VIBRIO VULNIFICUS A-RIBOSWITCH in water
132253
   13C      O5'    1   3.414   9.359   6.484  0.3242 -0.1246 -1.2783
   13C      H5T    2   3.501   9.322   6.503  2.0405  3.7226 -0.6509
   13C      C5'    3   3.388   9.352   6.349  0.5401 -0.8950  0.7985
   13C     H5'1    4   3.280   9.344   6.333  0.2366  1.0558  1.5841
   13C     H5'2    5   3.429   9.257   6.314  1.6628 -0.7589  1.6962
   13C      C4'    6   3.438   9.478   6.266 -0.4675  0.9475 -0.6451
   13C      H4'    7   3.411   9.461   6.161 -0.9980  1.5488 -0.6047
   13C      O4'    8   3.381   9.605   6.309 -0.2571  0.2446  0.4407
   13C      C1'    9   3.487   9.704   6.316 -0.6873 -0.0906 -0.1232
   13C      H1'   10   3.455   9.794   6.263 -0.3313  0.0524 -0.0934
   13C       N1   11   3.540   9.747   6.453  0.0046  0.1270 -0.0449
   13C       C6   12   3.484   9.701   6.566  0.1424  0.6554  0.2257
   13C       H6   13   3.410   9.622   6.564 -0.0288  0.8060 -2.1664
   13C       C5   14   3.511   9.757   6.689  0.0689  0.7345  0.3387
   13C       H5   15   3.459   9.724   6.778 -3.5730  1.7530 -1.2134
   13C       C4   16   3.605   9.856   6.689 -0.6397  0.2151 -0.1758
   13C       N4   17   3.647   9.910   6.796 -0.0958  0.0661 -0.6181
   13C      H41   18   3.629   9.861   6.883 -1.6195 -1.7705 -1.8886
   13C      H42   19   3.711   9.987   6.783  1.5844 -1.6139 -3.3290
   13C       N3   20   3.652   9.915   6.577 -0.3218  0.1167 -0.6550
   13C       C2   21   3.625   9.858   6.457  0.1807 -0.6721 -0.0995
   13C       O2   22   3.666   9.915   6.360  0.2647 -0.3243 -0.4111
   13C      C3'   23   3.587   9.506   6.266 -0.9984  0.1889  0.0849
   13C      H3'   24   3.621   9.497   6.369 -0.5106  1.5739  0.0699
   13C      C2'   25   3.602   9.652   6.229  0.5683 -0.0473  0.4784
   13C     H2'1   26   3.699   9.696   6.250  0.6585 -0.9205  2.0306
   13C      O2'   27   3.569   9.678   6.097  0.2290  0.6038 -0.8404
   13C     HO'2   28   3.637   9.646   6.036 -0.4365  1.1424 -1.8968
   13C      O3'   29   3.670   9.419   6.181 -0.8338 -0.1446  0.1265
   14G        P   30   3.829   9.390   6.218  0.1742  0.0289  0.1018
   14G      O1P   31   3.880   9.281   6.137 -0.1294 -0.2209 -0.3785
   14G      O2P   32   3.829   9.390   6.365  0.2613 -0.0782  0.1006
   14G      O5'   33   3.895   9.526   6.159  0.4605  0.2552  0.1275
   14G      C5'   34   3.895   9.568   6.021 -0.5710 -0.5185 -0.1310
   14G     H5'1   35   3.796   9.573   5.976 -0.3524  0.7767 -0.5022
   14G     H5'2   36   3.957   9.496   5.968  1.7000  1.2820 -0.0518
   14G      C4'   37   3.967   9.704   6.009 -0.3256  0.4771 -1.0066
   14G      H4'   38   3.959   9.747   5.909  1.4477 -0.1397 -1.4463
   14G      O4'   39   3.914   9.807   6.100  0.3773 -0.2263 -0.0133
   14G      C1'   40   4.023   9.895   6.153 -0.4347 -0.1298  0.1548
   14G      H1'   41   4.004  10.002   6.142 -0.7135 -0.3415 -1.6165
   14G       N9   42   4.037   9.860   6.291  0.2392 -0.1833  0.2958
   14G       C8   43   3.957   9.782   6.368  0.1115  0.5880 -0.0431
   14G       H8   44   3.873   9.725   6.330  0.8942 -0.6489  0.0336
   14G       N7   45   3.985   9.780   6.500  0.0547  0.0393  0.0789
   14G       C5   46   4.090   9.871   6.509 -0.7204  0.0450  0.5185
   14G       C6   47   4.172   9.919   6.615 -0.1452 -0.3714 -1.2616
   14G       O6   48   4.178   9.887   6.738  0.0893 -0.2866  0.0011
   14G       N1   49   4.251  10.024   6.580  0.4431 -0.4806  0.0550
   14G       H1   50   4.307  10.062   6.655 -1.5529 -0.6175  1.6930
   14G       C2   51   4.277  10.071   6.456  0.2137 -0.0668 -0.5721
   14G       N2   52   4.357  10.172   6.440  0.1250 -0.4815 -0.2066
   14G      H21   53   4.405  10.196   6.526 -2.0683 -1.2891  1.3503
   14G      H22   54   4.374  10.211   6.349 -3.0344  1.8987  0.0431
   14G       N3   55   4.206  10.026   6.355  0.3042 -0.2728  0.2962
   14G       C4   56   4.114   9.930   6.385 -0.2939  0.4166  0.1106
   14G      C3'   57   4.117   9.708   6.039 -0.1498 -0.3234  0.0714
   14G      H3'   58   4.145   9.659   6.132  3.4967  2.3519  0.5975
   14G      C2'   59   4.145   9.855   6.063  0.2128  0.5585 -0.2297
   14G     H2'1   60   4.241   9.869   6.112  0.8390 -2.0145 -0.5589
   14G      O2'   61   4.129   9.934   5.943 -0.3782 -0.1528 -0.8243
   14G     HO'2   62   4.146   9.874   5.871  1.2384 -1.7787  0.7862
   14G      O3'   63   4.187   9.658   5.931  0.2482 -0.1197 -0.1276
   15C        P   64   4.317   9.565   5.955  0.1704 -0.3775  0.0583
   15C      O1P   65   4.361   9.503   5.828 -0.2916 -0.6636 -0.3145
   15C      O2P   66   4.277   9.468   6.060  0.2465  0.5394  0.6646
   15C      O5'   67   4.433   9.654   6.014 -0.4763 -0.3965  0.4187
   15C      C5'   68   4.474   9.768   5.941  0.2250 -0.0581 -0.1954
   15C     H5'1   69   4.399   9.847   5.941  1.0524  0.7883  1.3132
   15C     H5'2   70   4.484   9.742   5.836 -0.3614  1.2273 -0.5932
   15C      C4'   71   4.607   9.820   6.003 -0.5355  0.3792  0.3005
   15C      H4'   72   4.649   9.900   5.944  2.9305  0.2061  2.2868
   15C      O4'   73   4.587   9.879   6.133  0.0569  0.2993  0.1917
   15C      C1'   74   4.675   9.807   6.223 -0.0914  0.0064 -0.2670
   15C      H1'   75   4.765   9.865   6.245  0.2022 -0.2747 -0.7186
   15C       N1   76   4.589   9.785   6.346 -0.1097  0.4032 -0.1600
   15C       C6   77   4.483   9.697   6.351 -0.2599 -0.1178 -0.0369
   15C       H6   78   4.445   9.652   6.260 -1.6346  2.5299 -0.8728
   15C       C5   79   4.439   9.656   6.468 -0.6720 -0.4380  0.2771
   15C       H5   80   4.360   9.582   6.456 -1.2775  0.2089  0.2064
   15C       C4   81   4.496   9.716   6.588  0.9620  0.1583  0.6463
   15C       N4   82   4.450   9.683   6.704  0.4151 -0.3056 -0.9290
   15C      H41   83   4.359   9.640   6.709  1.8826 -3.5509  1.3692
   15C      H42   84   4.470   9.734   6.788 -2.9192  1.2841 -0.9293
   15C       N3   85   4.588   9.809   6.579  0.4475  0.0207 -0.1651
   15C       C2   86   4.631   9.851   6.460  0.3181 -0.4325  0.0135
   15C       O2   87   4.699   9.953   6.471  0.0588 -0.7186  0.2036
   15C      C3'   88   4.716   9.722   6.007 -0.7539  0.1987  0.7052
   15C      H3'   89   4.693   9.649   5.929  0.7234  0.0321  0.4065
   15C      C2'   90   4.713   9.676   6.149 -0.2715 -0.5018  0.1933
   15C     H2'1   91   4.633   9.607   6.178 -2.0494  1.9136  1.3217
   15C      O2'   92   4.828   9.616   6.204 -0.0169  0.0439 -0.1391
   15C     HO'2   93   4.910   9.632   6.157 -0.0803 -1.3025 -0.7647
   15C      O3'   94   4.828   9.799   5.970  0.2159 -0.0187 -0.0150
   16U        P   95   4.985   9.747   5.962 -0.1449  0.3832  0.2236
   16U      O1P   96   5.052   9.816   5.852  0.8920  0.4893  0.0135
   16U      O2P   97   4.977   9.604   5.951 -0.3571 -0.2930  0.6382
   16U      O5'   98   5.050   9.784   6.103  0.7633  0.3333  0.3744
   16U      C5'   99   5.062   9.920   6.146 -0.4753 -0.3799  0.2363
   16U     H5'1  100   4.968   9.969   6.119  0.3802 -0.5220 -3.5535
   16U     H5'2  101   5.143   9.961   6.085  0.0456 -1.4999  0.1558
   16U      C4'  102   5.104   9.927   6.290  0.8346 -0.8374  0.5526
   16U      H4'  103   5.137  10.030   6.301 -2.8130  0.6360 -0.6828
   16U      O4'  104   4.998   9.920   6.387 -0.3634  0.8699  0.3847
   16U      C1'  105   5.065   9.887   6.507 -0.2962  1.1302  0.1837
   16U      H1'  106   5.053   9.964   6.582  0.7764  0.2847  1.2734
   16U       N1  107   5.011   9.758   6.569 -0.3122  0.6373 -0.1692
   16U       C6  108   4.911   9.686   6.509 -0.4671  0.4528 -0.6446
   16U       H6  109   4.890   9.715   6.407 -2.5421  0.1434 -0.3433
   16U       C5  110   4.859   9.569   6.569 -0.2671 -0.6650  0.6974
   16U       H5  111   4.781   9.518   6.514 -0.8011  1.3657 -0.5313
   16U       C4  112   4.899   9.526   6.699 -0.2012  0.1037  0.3029
   16U       O4  113   4.857   9.416   6.748  0.0547  0.3834 -0.6398
   16U       N3  114   4.988   9.610   6.755  0.3849 -0.9922  1.1909
   16U       H3  115   5.018   9.597   6.850  2.9174  2.5895  1.0734
   16U       C2  116   5.049   9.717   6.696 -0.5417  0.3969 -0.3856
   16U       O2  117   5.144   9.761   6.757  0.2651 -0.1830  0.2504
   16U      C3'  118   5.216   9.830   6.345 -0.2884  0.0039  0.2763
   16U      H3'  119   5.188   9.724   6.338  0.2776 -0.0369 -2.1563
   16U      C2'  120   5.220   9.875   6.487  0.5851  0.1616  0.3651
   16U     H2'1  121   5.271   9.801   6.548  1.8893  0.6145 -0.1529
   16U      O2'  122   5.281  10.002   6.497  0.0957  0.3570  0.1482
   16U     HO'2  123   5.349   9.997   6.429 -0.6175 -2.0302 -0.5059
   16U      O3'  124   5.337   9.848   6.276 -0.3629  0.6796  0.0119
   17U        P  125   5.455   9.745   6.276  0.0282 -0.0197  0.1496
   17U      O1P  126   5.568   9.803   6.198 -0.0133  0.5200  0.3599
   17U      O2P  127   5.395   9.614   6.243  0.0297  0.1997 -0.0747
   17U      O5'  128   5.494   9.734   6.435  0.0727  0.2456  0.3490
   17U      C5'  129   5.576   9.834   6.497  0.1561  0.3702  0.8880
   17U     H5'1  130   5.527   9.931   6.485  0.7132  0.4327 -1.1417
   17U     H5'2  131   5.671   9.846   6.445  0.4492 -2.2305  0.6983
   17U      C4'  132   5.608   9.816   6.646 -0.4976  0.7890  0.2634
   17U      H4'  133   5.660   9.901   6.689  1.1493 -0.6318  1.2025
   17U      O4'  134   5.479   9.799   6.705  0.5570 -0.4132 -0.1903
   17U      C1'  135   5.480   9.708   6.814 -0.3523  0.1665  0.0277
   17U      H1'  136   5.443   9.756   6.904  2.1079  1.3739  0.4780
   17U       N1  137   5.404   9.581   6.801 -0.1813  0.3650 -0.1898
   17U       C6  138   5.348   9.542   6.680  0.1707 -0.6584 -0.2531
   17U       H6  139   5.382   9.595   6.592 -0.1111  1.4664  0.8252
   17U       C5  140   5.246   9.446   6.676 -0.4634 -0.2776  0.4139
   17U       H5  141   5.196   9.419   6.585 -2.2887  0.6150  1.0956
   17U       C4  142   5.221   9.365   6.789  0.3182 -0.9181  0.5038
   17U       O4  143   5.144   9.269   6.795 -0.6189  0.2461  0.7068
   17U       N3  144   5.287   9.399   6.901 -0.1282  0.1928 -0.3916
   17U       H3  145   5.258   9.345   6.982 -1.5321 -0.1994 -1.1389
   17U       C2  146   5.380   9.502   6.915 -0.3776  0.0974  0.3377
   17U       O2  147   5.427   9.535   7.024  0.3991 -0.1840 -0.0071
   17U      C3'  148   5.685   9.684   6.687 -0.7893 -0.3363  0.8510
   17U      H3'  149   5.654   9.602   6.622  3.2039 -1.7091  0.3745
   17U      C2'  150   5.635   9.660   6.828  0.2149 -0.5209  0.1615
   17U     H2'1  151   5.640   9.559   6.867 -2.8637 -0.8576 -0.0616
   17U      O2'  152   5.694   9.752   6.917 -0.6593  0.2753  0.2384
   17U     HO'2  153   5.661   9.842   6.906 -4.8727 -1.0755 -0.0760
   17U      O3'  154   5.822   9.691   6.671  0.1663  0.3347 -0.2283
   18C        P  155   5.902   9.556   6.654  0.0166 -0.3020 -0.1125
   18C      O1P  156   6.037   9.612   6.622  0.2347 -0.1138  0.2745
   18C      O2P  157   5.826   9.478   6.551 -0.1158 -0.8165 -1.1635
   18C      O5'  158   5.895   9.494   6.798 -0.8632 -0.3829  0.4413
   18C      C5'  159   5.975   9.540   6.908 -0.0092  0.3576 -0.8842
   18C     H5'1  160   5.950   9.646   6.913  0.0860  0.5986 -3.9572
   18C     H5'2  161   6.082   9.532   6.889 -0.4439 -1.0366 -3.0385
   18C      C4'  162   5.947   9.469   7.044 -0.1548 -0.7612  0.2246
   18C      H4'  163   6.011   9.528   7.110 -0.2372 -0.8014  0.3430
   18C      O4'  164   5.801   9.477   7.086 -0.5581 -0.3445  1.1447
   18C      C1'  165   5.771   9.347   7.143  0.0866 -0.8411  0.3602
   18C      H1'  166   5.716   9.364   7.236  1.9417 -0.2002  1.3758
   18C       N1  167   5.690   9.258   7.061 -0.2845  0.5145  0.0789
   18C       C6  168   5.705   9.248   6.925 -0.1517 -0.2489  1.0189
   18C       H6  169   5.773   9.313   6.871 -2.3562  0.4603 -1.1067
   18C       C5  170   5.613   9.185   6.855  0.1006  0.2811 -0.0738
   18C       H5  171   5.618   9.193   6.747  1.0171  0.1573 -0.0516
   18C       C4  172   5.516   9.111   6.926  0.1492  0.5224 -0.2595
   18C       N4  173   5.431   9.041   6.863 -0.3505  0.1683  0.8458
   18C      H41  174   5.454   9.018   6.767 -1.2926 -0.6556  0.8096
   18C      H42  175   5.368   8.993   6.925 -0.3295 -0.2416  0.5565
   18C       N3  176   5.501   9.114   7.061 -0.1324 -0.2010 -0.1933
   18C       C2  177   5.594   9.183   7.128 -0.5324  0.2895  0.2075
   18C       O2  178   5.583   9.184   7.248  0.7904  0.1020  0.3009
   18C      C3'  179   5.992   9.321   7.056 -0.4195  0.7616  0.9459
   18C      H3'  180   5.958   9.266   6.968  0.9813 -0.3815  1.0753
   18C      C2'  181   5.904   9.277   7.171  0.0021 -0.2624  0.1991
   18C     H2'1  182   5.895   9.169   7.157  1.7570 -0.1032 -3.2060
   18C      O2'  183   5.943   9.316   7.305  0.0296 -0.0759  0.6029
   18C     HO'2  184   6.028   9.273   7.313  0.3367  0.4124  0.0566
   18C      O3'  185   6.132   9.305   7.089  0.4685  0.1194 -0.3618
   19A        P  186   6.203   9.168   7.050  0.2837  0.1280 -0.0857
   19A      O1P  187   6.351   9.173   7.071 -0.4147 -0.2758  0.1905
   19A      O2P  188   6.143   9.110   6.926 -0.0566  0.2607 -0.2160
   19A      O5'  189   6.154   9.063   7.169 -0.9299 -0.2828 -0.0941
   19A      C5'  190   6.203   9.076   7.302  0.2783  0.5052 -0.1918
   19A     H5'1  191   6.177   9.177   7.334  0.5098 -0.4147  3.3674
   19A     H5'2  192   6.311   9.061   7.301  0.3689  0.5841  2.2028
   19A      C4'  193   6.140   8.968   7.400  0.1953 -0.8935  0.1623
   19A      H4'  194   6.180   8.968   7.502  0.6746 -0.6673 -0.0206
   19A      O4'  195   6.002   8.985   7.418  0.0529  0.4726  0.0937
   19A      C1'  196   5.932   8.861   7.414  0.1339 -0.7642  0.0845
   19A      H1'  197   5.863   8.839   7.495 -1.1500 -2.5771 -1.4164
   19A       N9  198   5.849   8.844   7.294  0.3391 -0.3044  0.4642
   19A       C8  199   5.877   8.889   7.166 -0.9793 -0.7834  0.7170
   19A       H8  200   5.961   8.955   7.151 -0.9172  0.0266  3.8537
   19A       N7  201   5.783   8.870   7.078  0.4510  0.1671  0.1253
   19A       C5  202   5.690   8.798   7.154 -0.2687 -0.6601 -0.4766
   19A       C6  203   5.571   8.726   7.126 -0.5093 -0.2695  0.3068
   19A       N6  204   5.521   8.723   7.008  0.7951  0.6234 -0.3235
   19A      H61  205   5.572   8.759   6.929  1.3751 -1.5107 -0.9973
   19A      H62  206   5.426   8.688   7.004  0.7522  0.4836  1.2749
   19A       N1  207   5.515   8.649   7.215 -0.0388  0.0882 -0.1465
   19A       C2  208   5.569   8.643   7.335  0.1132 -0.4152 -0.4599
   19A       H2  209   5.530   8.567   7.401 -0.1447  0.8126  0.8743
   19A       N3  210   5.677   8.710   7.375  0.7360  0.5526  0.4209
   19A       C4  211   5.727   8.790   7.283  0.1273 -0.5835  0.6629
   19A      C3'  212   6.156   8.827   7.352 -0.2491  0.1112  0.0639
   19A      H3'  213   6.166   8.839   7.244  0.6310 -1.9578 -0.1325
   19A      C2'  214   6.042   8.754   7.415 -0.4392  1.1977  0.1613
   19A     H2'1  215   6.003   8.671   7.357 -2.0381  0.7047  1.8738
   19A      O2'  216   6.058   8.724   7.554  0.3366  0.4639  0.7975
   19A     HO'2  217   6.152   8.737   7.562  0.6247 -0.7930 -0.2610
   19A      O3'  218   6.286   8.785   7.397 -0.2173  0.4807 -0.2492
   20U        P  219   6.374   8.669   7.326 -0.0372 -0.0164  0.0934
   20U      O1P  220   6.510   8.676   7.377  0.7322  0.1897 -0.2187
   20U      O2P  221   6.368   8.687   7.182  0.1554 -0.4303 -0.0789
   20U      O5'  222   6.322   8.525   7.364  0.3718 -0.5153  0.2315
   20U      C5'  223   6.323   8.474   7.493 -0.6655  0.8514 -0.7983
   20U     H5'1  224   6.332   8.541   7.578  3.1962 -1.8393  1.2604
   20U     H5'2  225   6.416   8.418   7.495 -1.3715 -0.3573 -0.0283
   20U      C4'  226   6.207   8.378   7.494  0.2723  0.2866 -0.0509
   20U      H4'  227   6.217   8.319   7.586  2.6790 -1.5353 -1.3574
   20U      O4'  228   6.067   8.418   7.471  0.1746 -0.1347 -0.0719
   20U      C1'  229   6.003   8.313   7.400  0.8943  0.4685  0.2083
   20U      H1'  230   5.928   8.257   7.457  0.7870 -1.9987 -2.1267
   20U       N1  231   5.938   8.355   7.276 -0.3070  0.0342 -0.2252
   20U       C6  232   6.011   8.429   7.187  0.3789 -0.6619 -0.2391
   20U       H6  233   6.113   8.456   7.214 -0.1310  0.4242  0.6808
   20U       C5  234   5.953   8.492   7.084 -0.1826 -0.2752 -0.6010
   20U       H5  235   6.016   8.553   7.021  1.7736  0.6055  2.0175
   20U       C4  236   5.814   8.476   7.054 -0.0885  0.2636 -0.0186
   20U       O4  237   5.756   8.536   6.957  0.2993  0.3156 -0.4440
   20U       N3  238   5.748   8.392   7.141  0.5652 -0.2123 -0.2323
   20U       H3  239   5.651   8.373   7.119 -0.0718  1.3008  1.0731
   20U       C2  240   5.802   8.326   7.246  0.0451  0.0700 -0.2641
   20U       O2  241   5.734   8.249   7.311  0.4013  0.5126  0.6428
   20U      C3'  242   6.237   8.268   7.392 -0.1671 -0.0716  0.2844
   20U      H3'  243   6.263   8.322   7.301  0.2696 -0.1570  0.3584
   20U      C2'  244   6.098   8.202   7.373  0.8308  0.1831  0.5520
   20U     H2'1  245   6.093   8.169   7.270  3.1650  1.8865 -0.1797
   20U      O2'  246   6.083   8.098   7.472 -0.4480  0.3098 -0.1534
   20U     HO'2  247   6.161   8.042   7.465 -1.0481 -0.4334 -1.1897
   20U      O3'  248   6.337   8.176   7.423  0.2015  0.3059  0.4001
   21A        P  249   6.410   8.100   7.305  0.1028 -0.1666 -0.5931
   21A      O1P  250   6.504   8.010   7.375  0.1891  0.1294  0.4822
   21A      O2P  251   6.468   8.195   7.209 -0.2297 -0.4521 -0.1828
   21A      O5'  252   6.290   8.029   7.231 -0.0268  0.2899  0.3912
   21A      C5'  253   6.260   7.888   7.249 -0.1686  0.0123 -0.7356
   21A     H5'1  254   6.167   7.880   7.305 -1.1074  0.9107 -2.0924
   21A     H5'2  255   6.340   7.828   7.292 -0.2439 -1.0679 -2.0024
   21A      C4'  256   6.213   7.825   7.119 -0.3261  0.6037  0.1357
   21A      H4'  257   6.201   7.722   7.153  0.6571  1.0032  1.8503
   21A      O4'  258   6.099   7.887   7.058 -0.4235 -0.6776  0.1574
   21A      C1'  259   6.098   7.874   6.913  0.2543 -0.8131 -0.5213
   21A      H1'  260   6.012   7.816   6.878  0.2934 -1.2097  0.0263
   21A       N9  261   6.106   8.008   6.856 -0.2058  0.0633 -0.0053
   21A       C8  262   6.162   8.122   6.902 -0.5337 -0.3019  1.4206
   21A       H8  263   6.201   8.133   7.003  0.3315 -0.1590  1.0766
   21A       N7  264   6.183   8.216   6.808 -0.0705 -0.0281  0.0511
   21A       C5  265   6.130   8.160   6.695  0.2865  0.5862  0.1089
   21A       C6  266   6.127   8.196   6.558 -0.3078  0.3238 -0.2236
   21A       N6  267   6.183   8.298   6.507  0.3333  0.0039  0.0446
   21A      H61  268   6.255   8.352   6.552  1.1816  0.6568 -1.9864
   21A      H62  269   6.169   8.297   6.407  2.5217 -1.4393 -0.3230
   21A       N1  270   6.059   8.120   6.473  0.4812 -0.5017 -0.2119
   21A       C2  271   6.018   8.005   6.508 -0.5974 -0.6830  0.2890
   21A       H2  272   5.981   7.949   6.424  1.9759 -2.6269  0.3552
   21A       N3  273   6.021   7.954   6.631 -0.0569 -0.2781  0.3497
   21A       C4  274   6.070   8.040   6.730  0.6344 -0.6446  0.6518
   21A      C3'  275   6.312   7.816   7.005 -0.2021  0.6093 -0.5158
   21A      H3'  276   6.367   7.909   6.989  2.5877 -0.8926 -0.2683
   21A      C2'  277   6.218   7.790   6.886  0.0200  0.3350 -0.4267
   21A     H2'1  278   6.263   7.816   6.790  1.3241  1.2392  0.3953
   21A      O2'  279   6.170   7.659   6.883  0.2127 -0.0377  0.9480
   21A     HO'2  280   6.240   7.594   6.891  1.5545  0.8142 -2.2005
   21A      O3'  281   6.413   7.711   7.026  0.0714 -0.4589 -0.0111
   22U        P  282   6.521   7.675   6.913  0.4049  0.2855 -0.2184
   22U      O1P  283   6.611   7.580   6.983  0.2271 -0.1316 -0.6643
   22U      O2P  284   6.571   7.789   6.845 -0.2435 -0.3535 -0.6843
   22U      O5'  285   6.444   7.575   6.806 -0.0672  0.6986  0.1015
   22U      C5'  286   6.489   7.568   6.680  0.2466 -0.1548 -0.4601
   22U     H5'1  287   6.587   7.520   6.687 -0.1528 -0.9543 -0.2439
   22U     H5'2  288   6.489   7.667   6.633 -1.0792  0.1082  0.0513
   22U      C4'  289   6.397   7.470   6.590 -0.1507  0.4057  0.6184
   22U      H4'  290   6.452   7.464   6.497  1.9500 -2.2712  1.8798
   22U      O4'  291   6.400   7.343   6.642  0.0509  0.7714 -0.1188
   22U      C1'  292   6.279   7.275   6.626  0.3447  0.7696 -0.7883
   22U      H1'  293   6.268   7.246   6.522 -3.4943 -0.4998 -0.1992
   22U       N1  294   6.262   7.168   6.729 -0.4450  0.7088 -0.1371
   22U       C6  295   6.302   7.177   6.863  0.3499  0.3400  0.7517
   22U       H6  296   6.328   7.272   6.908 -0.5222  1.1796 -0.4843
   22U       C5  297   6.291   7.072   6.949  0.3033 -0.8799 -0.5026
   22U       H5  298   6.327   7.082   7.051 -0.6368 -1.8625 -0.0551
   22U       C4  299   6.245   6.938   6.900  0.0863 -0.0711  0.3774
   22U       O4  300   6.233   6.834   6.972  0.3085 -0.1739  0.7647
   22U       N3  301   6.199   6.938   6.768 -0.2870 -1.2492 -0.5697
   22U       H3  302   6.167   6.851   6.728  1.2276 -1.8038 -0.6501
   22U       C2  303   6.207   7.051   6.679 -0.9285 -0.3869  0.0826
   22U       O2  304   6.157   7.032   6.569 -0.1184  0.4086 -0.5651
   22U      C3'  305   6.250   7.505   6.575  1.0043  0.1416 -1.1528
   22U      H3'  306   6.234   7.602   6.624  0.4416 -0.8182  0.6550
   22U      C2'  307   6.183   7.389   6.658  0.4236 -0.5930  0.1115
   22U     H2'1  308   6.194   7.426   6.760 -1.0577 -0.3827  0.2201
   22U      O2'  309   6.044   7.374   6.630  0.5469  0.1392  0.0944
   22U     HO'2  310   5.997   7.457   6.640  0.0546 -0.0729 -0.3730
   22U      O3'  311   6.201   7.488   6.452  0.7549  0.4955  0.1832
   23A        P  312   6.194   7.601   6.336  0.1762 -0.1003 -0.2999
   23A      O1P  313   6.174   7.727   6.411  0.2513 -0.4316 -0.4553
   23A      O2P  314   6.090   7.558   6.248  0.2054  0.1220  0.2405
   23A      O5'  315   6.343   7.582   6.279  0.9844 -0.0599 -0.2699
   23A      C5'  316   6.370   7.461   6.204  0.7796  0.4212 -0.4250
   23A     H5'1  317   6.312   7.448   6.113 -1.8377  0.6971  1.0925
   23A     H5'2  318   6.350   7.381   6.275 -0.2289  1.1260  0.1052
   23A      C4'  319   6.521   7.448   6.164  0.3786 -0.1013 -0.6876
   23A      H4'  320   6.537   7.531   6.096 -1.0706  1.6851  1.0411
   23A      O4'  321   6.594   7.474   6.281 -0.6719  0.0131 -0.0927
   23A      C1'  322   6.692   7.376   6.295 -1.1186 -0.5856  0.0313
   23A      H1'  323   6.795   7.411   6.292 -1.3255  0.1053  0.7902
   23A       N9  324   6.682   7.311   6.435 -0.1759 -0.9114 -0.0568
   23A       C8  325   6.761   7.332   6.551  0.4697  0.2151  0.7783
   23A       H8  326   6.838   7.406   6.570 -0.6239  1.6349 -0.0737
   23A       N7  327   6.744   7.238   6.645  0.3815 -0.9652 -0.3309
   23A       C5  328   6.646   7.157   6.592  0.7086  0.7840  0.1274
   23A       C6  329   6.583   7.042   6.635 -0.3255  0.6773 -0.6498
   23A       N6  330   6.604   6.981   6.748  0.3248  0.1269 -0.2216
   23A      H61  331   6.684   7.005   6.803  2.9322 -0.2663 -3.5327
   23A      H62  332   6.548   6.900   6.771 -0.1266  0.3854 -0.3754
   23A       N1  333   6.486   6.981   6.565  0.1072  0.5072  0.0683
   23A       C2  334   6.458   7.033   6.448 -0.4841 -0.1621  0.7744
   23A       H2  335   6.380   6.989   6.387  1.7268  0.2494 -2.5933
   23A       N3  336   6.504   7.145   6.392  0.1407  0.2096  0.0455
   23A       C4  337   6.603   7.203   6.468 -0.1362  0.3436 -0.2940
   23A      C3'  338   6.549   7.309   6.115 -0.3200  0.3333 -0.7737
   23A      H3'  339   6.478   7.236   6.153  4.1738 -4.2010  0.0584
   23A      C2'  340   6.683   7.276   6.179 -0.4448 -0.2740  0.5336
   23A     H2'1  341   6.693   7.176   6.221  0.7368 -0.9157 -1.1866
   23A      O2'  342   6.790   7.293   6.090 -0.5889 -0.1417  0.1658
   23A     HO'2  343   6.766   7.251   6.007 -0.8286  0.1511  0.0841
   23A      O3'  344   6.557   7.312   5.972  0.3482  0.0388  0.0484
   24A        P  345   6.451   7.242   5.873  0.2735  0.2802  0.1393
   24A      O1P  346   6.497   7.264   5.734 -0.2770  0.7936 -0.4531
   24A      O2P  347   6.319   7.293   5.910 -0.4844 -0.2185  0.3077
   24A      O5'  348   6.461   7.093   5.913 -0.3178  0.4071 -0.1679
   24A      C5'  349   6.405   7.027   6.026 -0.6752 -0.1032 -0.7742
   24A     H5'1  350   6.312   7.065   6.067 -1.9045 -3.6623  0.0916
   24A     H5'2  351   6.475   7.031   6.109 -2.3208  2.7382  0.5947
   24A      C4'  352   6.367   6.884   5.978  0.0647 -0.4155  0.5533
   24A      H4'  353   6.362   6.825   6.070 -2.8545 -1.0234  0.0969
   24A      O4'  354   6.239   6.884   5.925 -0.1848  0.3687 -0.1639
   24A      C1'  355   6.223   6.793   5.819 -0.0606  0.0759  0.8991
   24A      H1'  356   6.144   6.720   5.832 -0.2923 -0.3372 -1.9867
   24A       N9  357   6.214   6.863   5.685  0.5442  0.4198  0.7658
   24A       C8  358   6.238   6.996   5.663  1.0363 -0.2449  0.3937
   24A       H8  359   6.278   7.071   5.730 -0.3373  0.1548  0.8047
   24A       N7  360   6.196   7.039   5.541 -0.8972 -0.4536  0.3184
   24A       C5  361   6.151   6.921   5.482  0.0921  0.0930  0.8950
   24A       C6  362   6.083   6.889   5.365  1.4815  0.3738 -0.0950
   24A       N6  363   6.041   6.974   5.278  0.1313  0.3324  0.0101
   24A      H61  364   6.031   7.071   5.306 -0.9084  0.1562  0.2809
   24A      H62  365   6.002   6.938   5.192 -2.2684 -0.0345  1.1665
   24A       N1  366   6.050   6.764   5.333  0.0231 -0.1262 -0.2028
   24A       C2  367   6.069   6.666   5.419 -0.1113 -0.0538  0.3171
   24A       H2  368   6.046   6.562   5.398  2.5596 -0.4604 -0.9837
   24A       N3  369   6.128   6.685   5.535  1.2267  0.3085  0.1892
   24A       C4  370   6.171   6.807   5.563 -0.0578 -0.5002 -1.4100
   24A      C3'  371   6.459   6.804   5.880 -1.0522 -0.6266  0.9927
   24A      H3'  372   6.502   6.877   5.811  0.3533 -1.4205  0.9842
   24A      C2'  373   6.349   6.710   5.820  0.7886 -0.1710  0.6698
   24A     H2'1  374   6.386   6.673   5.724  0.1749  0.6478  0.1070
   24A      O2'  375   6.314   6.592   5.894  0.4010 -0.2942 -0.1658
   24A     HO'2  376   6.395   6.552   5.925  1.4218  0.8222 -1.3073
   24A      O3'  377   6.548   6.724   5.945 -0.5627  0.0920 -0.1578
   25U        P  378   6.698   6.701   5.892  0.1608 -0.7714 -0.0011
   25U      O1P  379   6.707   6.762   5.759 -0.2049 -0.4656  0.3908
   25U      O2P  380   6.721   6.556   5.902 -0.1252 -0.5834  0.4031
   25U      O5'  381   6.787   6.773   5.997  0.7765  0.0260 -0.6728
   25U      C5'  382   6.776   6.909   6.014 -0.3566  0.1921  0.4157
   25U     H5'1  383   6.672   6.939   6.001 -0.1462  0.5054 -0.7184
   25U     H5'2  384   6.831   6.957   5.933 -1.1756  0.3370 -0.0680
   25U      C4'  385   6.827   6.949   6.150 -0.1327  0.2049  0.2587
   25U      H4'  386   6.848   7.055   6.152  0.1264  0.1451  1.0230
   25U      O4'  387   6.731   6.931   6.252 -0.2113 -0.0659 -0.1847
   25U      C1'  388   6.806   6.907   6.374  0.0203  1.1999  0.2332
   25U      H1'  389   6.778   6.985   6.444 -1.1013  2.1015 -1.1722
   25U       N1  390   6.766   6.774   6.428  0.7236  0.2345 -0.2630
   25U       C6  391   6.711   6.679   6.347  0.5968 -0.1753 -0.3737
   25U       H6  392   6.692   6.693   6.241  1.7762 -1.3339 -0.7708
   25U       C5  393   6.669   6.562   6.393  0.0296  0.3155  0.0704
   25U       H5  394   6.633   6.483   6.328  0.4318 -0.2868  0.5597
   25U       C4  395   6.681   6.527   6.534 -0.5405  0.3193 -0.6723
   25U       O4  396   6.646   6.418   6.593  0.7352 -0.3762 -0.1997
   25U       N3  397   6.743   6.623   6.609  0.1756 -0.1602  0.1328
   25U       H3  398   6.730   6.613   6.708 -1.3992 -0.3590 -0.0673
   25U       C2  399   6.781   6.745   6.563  0.8562 -0.1843  0.0701
   25U       O2  400   6.834   6.825   6.641  0.3134  0.0823  0.1199
   25U      C3'  401   6.958   6.884   6.194  0.2153  0.0746  0.5772
   25U      H3'  402   6.960   6.775   6.191  2.9391 -0.0493 -4.3669
   25U      C2'  403   6.962   6.932   6.341  0.5718  0.7225  0.0589
   25U     H2'1  404   7.017   6.861   6.402 -0.5459 -2.3291 -2.1909
   25U      O2'  405   6.989   7.068   6.360 -0.1404 -0.1629  0.0038
   25U     HO'2  406   7.070   7.081   6.411  0.3556 -0.0664 -0.7919
   25U      O3'  407   7.073   6.932   6.127 -0.0070  0.4999  0.7173
   26C        P  408   7.198   6.849   6.116  0.7343 -0.2759 -0.1099
   26C      O1P  409   7.306   6.931   6.060 -0.2551  0.2566  0.5879
   26C      O2P  410   7.160   6.726   6.040  0.4682 -0.8032  0.0790
   26C      O5'  411   7.247   6.792   6.261 -0.2940  0.3204  0.1850
   26C      C5'  412   7.315   6.881   6.351  0.2882 -0.7698 -0.0905
   26C     H5'1  413   7.259   6.973   6.364 -0.4760 -1.0392 -1.4190
   26C     H5'2  414   7.411   6.905   6.305  0.1079 -2.3985 -1.4120
   26C      C4'  415   7.338   6.813   6.494 -0.5354 -0.0639  0.1866
   26C      H4'  416   7.398   6.886   6.548 -1.4436  1.2983 -0.5750
   26C      O4'  417   7.209   6.792   6.543 -0.3717  0.3215 -0.7036
   26C      C1'  418   7.217   6.683   6.642  0.5385 -0.2888 -0.5904
   26C      H1'  419   7.178   6.717   6.738  3.6898  2.5639 -0.1600
   26C       N1  420   7.139   6.564   6.594  0.0368  0.0289 -0.6099
   26C       C6  421   7.090   6.550   6.463 -0.1030 -0.0864  0.2375
   26C       H6  422   7.127   6.609   6.381 -0.6743 -0.7431 -0.5074
   26C       C5  423   7.014   6.443   6.435  0.8132 -0.2934 -0.0141
   26C       H5  424   7.002   6.434   6.327  0.8559  1.4023 -0.1821
   26C       C4  425   6.974   6.354   6.543 -0.5132 -0.2041  0.0431
   26C       N4  426   6.895   6.256   6.520  0.1827 -0.6321 -0.0324
   26C      H41  427   6.841   6.247   6.434 -0.8280  0.1152  0.5066
   26C      H42  428   6.868   6.198   6.598 -3.7186  2.1544  1.0164
   26C       N3  429   7.037   6.352   6.657  0.5697 -0.0088 -0.1850
   26C       C2  430   7.117   6.461   6.687  0.3730  0.0653  0.6601
   26C       O2  431   7.169   6.465   6.796  1.2995  0.1665  0.1895
   26C      C3'  432   7.409   6.681   6.504  0.0873  0.8087 -0.0965
   26C      H3'  433   7.363   6.605   6.441 -2.2671  2.1352 -0.0774
   26C      C2'  434   7.361   6.646   6.641 -0.4392 -0.4942 -0.4412
   26C     H2'1  435   7.362   6.539   6.662 -2.1681 -0.2659  1.0082
   26C      O2'  436   7.425   6.708   6.744 -0.0063 -0.7765 -0.7283
   26C     HO'2  437   7.491   6.767   6.707  0.5999 -1.0513 -0.1039
   26C      O3'  438   7.551   6.709   6.497 -0.0556  0.3928  0.4283
   27C        P  439   7.645   6.573   6.466  0.0234 -0.1539  0.4683
   27C      O1P  440   7.784   6.628   6.446  0.1754 -0.3683 -0.2265
   27C      O2P  441   7.577   6.504   6.353  0.2236  0.3518 -0.1636
   27C      O5'  442   7.643   6.472   6.591 -0.0531 -0.0920 -0.0756
   27C      C5'  443   7.714   6.496   6.714 -0.1454  0.1866 -0.2293
   27C     H5'1  444   7.704   6.596   6.754  1.6115  0.0814  0.5256
   27C     H5'2  445   7.820   6.477   6.698 -0.3291 -2.6986  1.2798
   27C      C4'  446   7.669   6.386   6.812 -0.5373 -0.5113  0.5804
   27C      H4'  447   7.711   6.399   6.912  2.0617  0.2426 -0.5131
   27C      O4'  448   7.529   6.385   6.820 -0.0296 -0.0909 -0.8082
   27C      C1'  449   7.487   6.253   6.852 -0.8834  0.1767 -0.5038
   27C      H1'  450   7.430   6.257   6.945  0.0441  2.1431  0.0376
   27C       N1  451   7.395   6.203   6.752 -0.3832  0.0844  0.0323
   27C       C6  452   7.370   6.253   6.630 -0.3989 -0.0919 -0.5362
   27C       H6  453   7.423   6.344   6.606  1.0678 -1.0626 -1.0787
   27C       C5  454   7.293   6.195   6.535  0.2683  0.9214 -0.3007
   27C       H5  455   7.279   6.235   6.436  3.2804 -1.6846 -1.9894
   27C       C4  456   7.223   6.080   6.576 -1.2847  0.2521 -0.0032
   27C       N4  457   7.144   6.031   6.497 -0.3998  0.1495 -0.2152
   27C      H41  458   7.110   6.080   6.415  0.4303 -0.1481 -0.7408
   27C      H42  459   7.102   5.940   6.509 -1.5426  0.4466 -1.6257
   27C       N3  460   7.237   6.020   6.693  0.1944 -0.1679 -0.1219
   27C       C2  461   7.325   6.082   6.780  0.1668  0.6427 -0.8553
   27C       O2  462   7.348   6.021   6.886 -0.2632  0.5140 -0.1873
   27C      C3'  463   7.703   6.248   6.761 -0.4853 -0.3544  0.6278
   27C      H3'  464   7.658   6.231   6.663 -1.9844  0.5024  1.1534
   27C      C2'  465   7.621   6.175   6.861 -0.7255  0.1591  0.1810
   27C     H2'1  466   7.618   6.072   6.826  0.8695 -0.9229  2.9264
   27C      O2'  467   7.675   6.175   6.987  0.5568 -0.2955 -0.6360
   27C     HO'2  468   7.628   6.109   7.038 -2.4937  1.7204 -0.5753
   27C      O3'  469   7.833   6.198   6.787 -0.0829  0.3479  0.7691
   28U        P  470   7.903   6.090   6.697  0.1400 -0.0284  0.1032
   28U      O1P  471   8.031   6.061   6.761 -0.6493  0.0356 -0.0253
   28U      O2P  472   7.913   6.146   6.562 -0.2680  0.4417  0.2918
   28U      O5'  473   7.796   5.961   6.693  0.1467 -0.5071  0.1858
   28U      C5'  474   7.800   5.869   6.802  0.1026 -0.6263  0.2483
   28U     H5'1  475   7.780   5.926   6.893  2.0748 -0.4737  0.6268
   28U     H5'2  476   7.897   5.820   6.812  0.3164  0.0317  1.7504
   28U      C4'  477   7.699   5.757   6.793 -0.1023 -0.3561  0.1212
   28U      H4'  478   7.690   5.700   6.886 -2.2379  1.2602  0.9842
   28U      O4'  479   7.565   5.800   6.761  0.9369 -0.3728 -0.8072
   28U      C1'  480   7.503   5.693   6.695  0.4271 -0.7110 -0.0716
   28U      H1'  481   7.433   5.653   6.768  0.2727 -0.7582 -0.2450
   28U       N1  482   7.416   5.733   6.579 -0.2825 -0.3761  0.2484
   28U       C6  483   7.453   5.829   6.484 -0.6841  0.2173 -0.6535
   28U       H6  484   7.546   5.883   6.491 -0.1740 -0.7397  0.2230
   28U       C5  485   7.370   5.845   6.381  0.4308 -0.0149 -0.1469
   28U       H5  486   7.408   5.917   6.310  2.1152  0.6328  1.3417
   28U       C4  487   7.247   5.767   6.360 -0.3972  0.1711 -0.4961
   28U       O4  488   7.159   5.791   6.279  0.2619 -0.3421  0.8450
   28U       N3  489   7.231   5.659   6.445 -0.5801 -0.2738 -0.0389
   28U       H3  490   7.140   5.616   6.453 -1.9288  2.5225  1.3240
   28U       C2  491   7.300   5.656   6.563  0.8494 -0.0295 -0.4926
   28U       O2  492   7.252   5.583   6.650 -0.0435 -0.0986  0.5596
   28U      C3'  493   7.737   5.668   6.671  0.5570 -0.0661 -0.5835
   28U      H3'  494   7.759   5.731   6.585 -1.7087  0.2807 -0.9526
   28U      C2'  495   7.603   5.590   6.659 -0.3862  0.3727 -0.2571
   28U     H2'1  496   7.595   5.552   6.558  1.3294 -3.7829  0.9750
   28U      O2'  497   7.592   5.492   6.762  0.0352 -0.1193  0.1849
   28U     HO'2  498   7.647   5.417   6.741 -1.3808 -1.3558  0.7210
   28U      O3'  499   7.844   5.591   6.704 -0.4921 -0.4024 -0.4675
   29A        P  500   7.891   5.466   6.615  0.2261  0.0637 -0.3530
   29A      O1P  501   8.031   5.439   6.658 -0.4511 -0.2259  0.2628
   29A      O2P  502   7.863   5.472   6.472 -1.1805 -0.1791  0.2507
   29A      O5'  503   7.807   5.339   6.676  0.2174 -0.1155 -0.5584
   29A      C5'  504   7.830   5.286   6.801 -0.1943  0.6065  0.3826
   29A     H5'1  505   7.810   5.369   6.868 -0.9629  1.4342 -0.8383
   29A     H5'2  506   7.934   5.257   6.813  0.3369  1.1878 -2.2724
   29A      C4'  507   7.736   5.168   6.821  0.4752  0.0553 -0.3458
   29A      H4'  508   7.748   5.114   6.915  3.2614 -0.0909 -0.7240
   29A      O4'  509   7.604   5.223   6.810  0.0434 -0.3346  0.2702
   29A      C1'  510   7.512   5.128   6.758 -0.2826 -0.4485  0.3486
   29A      H1'  511   7.430   5.107   6.825 -0.1178 -0.8284  0.4334
   29A       N9  512   7.457   5.172   6.629  0.0325  0.3478  0.2335
   29A       C8  513   7.513   5.267   6.546  0.6152 -0.7244  0.2381
   29A       H8  514   7.608   5.316   6.562 -0.4333  1.6048 -0.2336
   29A       N7  515   7.445   5.298   6.440 -0.1208 -0.3696 -0.2515
   29A       C5  516   7.339   5.211   6.447 -0.3248 -0.1885 -0.4347
   29A       C6  517   7.218   5.192   6.369  0.1119  0.4847 -0.3547
   29A       N6  518   7.180   5.248   6.261 -0.9067 -0.2906 -0.4375
   29A      H61  519   7.227   5.323   6.212 -2.2844  0.9029 -0.0148
   29A      H62  520   7.090   5.221   6.223 -0.1138 -2.7229 -0.7717
   29A       N1  521   7.120   5.105   6.402 -0.0444 -0.2597  0.2459
   29A       C2  522   7.132   5.037   6.520  0.1444  0.6350  1.1992
   29A       H2  523   7.046   4.979   6.548  2.0003 -2.5506  0.8715
   29A       N3  524   7.238   5.046   6.604 -0.5611 -0.2777  1.1593
   29A       C4  525   7.338   5.134   6.559  0.4688 -0.6698  0.9366
   29A      C3'  526   7.735   5.057   6.724  0.6208  0.6622  0.2852
   29A      H3'  527   7.745   5.103   6.625  0.3900  1.9463  0.8360
   29A      C2'  528   7.592   5.002   6.744 -0.4531  0.0149 -0.0668
   29A     H2'1  529   7.561   4.954   6.651  0.9575 -0.6159 -0.2444
   29A      O2'  530   7.563   4.911   6.852  0.0042 -0.2875  0.6296
   29A     HO'2  531   7.648   4.902   6.896 -0.4450 -0.7949  1.4156
   29A      O3'  532   7.826   4.953   6.738 -0.0883 -0.0104 -0.3065
   30A        P  533   7.886   4.879   6.614  0.1351  0.3953  0.0003
   30A      O1P  534   7.989   4.783   6.663 -0.7819 -0.4435 -0.6630
   30A      O2P  535   7.924   4.987   6.520 -0.1585 -0.3886  0.3426
   30A      O5'  536   7.778   4.787   6.548 -0.0421 -0.7746  0.5390
   30A      C5'  537   7.723   4.681   6.621  0.1343 -1.1972  0.4702
   30A     H5'1  538   7.688   4.726   6.714 -1.1246  1.6081 -1.2469
   30A     H5'2  539   7.800   4.604   6.633  1.1128 -0.2199  0.5867
   30A      C4'  540   7.592   4.624   6.567  0.7437 -0.0529 -0.5872
   30A      H4'  541   7.558   4.547   6.637  0.7507  0.9013  0.4976
   30A      O4'  542   7.497   4.732   6.584 -0.1794  0.0064  0.0334
   30A      C1'  543   7.400   4.725   6.481  0.6187  1.0156  0.6326
   30A      H1'  544   7.300   4.727   6.526  0.1011  1.2974 -0.4929
   30A       N9  545   7.421   4.825   6.377 -0.1475 -0.7577 -1.0473
   30A       C8  546   7.517   4.924   6.369  0.4209  0.1084  0.3638
   30A       H8  547   7.596   4.940   6.441 -0.8983 -0.4086  1.9710
   30A       N7  548   7.503   5.002   6.264 -0.4457 -0.0166  0.4724
   30A       C5  549   7.386   4.957   6.206 -0.5720  0.2327  0.1289
   30A       C6  550   7.292   5.004   6.106  0.0418 -0.4256 -0.2914
   30A       N6  551   7.300   5.109   6.022 -0.4920 -0.4156  0.2617
   30A      H61  552   7.381   5.169   6.014 -1.0699  0.2112 -1.3468
   30A      H62  553   7.220   5.121   5.962  1.1701  2.5427 -1.6064
   30A       N1  554   7.170   4.946   6.093  1.2664  0.7782  0.0102
   30A       C2  555   7.144   4.840   6.172  0.1346 -0.3977  0.5097
   30A       H2  556   7.046   4.797   6.157  0.0928 -0.1613  0.0845
   30A       N3  557   7.215   4.785   6.268  0.6549 -0.2828 -0.9281
   30A       C4  558   7.334   4.853   6.278 -0.6142  0.3098  0.4399
   30A      C3'  559   7.577   4.570   6.422  0.2398 -0.2766  0.1701
   30A      H3'  560   7.629   4.633   6.349 -2.9183  1.8019 -0.5445
   30A      C2'  561   7.424   4.583   6.417 -0.1779  0.2142 -1.3383
   30A     H2'1  562   7.388   4.580   6.315 -0.5244 -1.1609 -1.1908
   30A      O2'  563   7.354   4.484   6.499  0.1730 -0.3664  0.6259
   30A     HO'2  564   7.389   4.397   6.479 -0.3814 -0.4267 -0.1395
   30A      O3'  565   7.611   4.439   6.412  0.8885  0.1228 -0.2757
   31U        P  566   7.662   4.376   6.283  0.4538  0.2534 -0.1342
   31U      O1P  567   7.685   4.232   6.303 -0.0233  0.0836 -0.1688
   31U      O2P  568   7.772   4.462   6.238  0.1580  0.1076  0.5288
   31U      O5'  569   7.546   4.382   6.174 -0.3753 -0.1754  0.1478
   31U      C5'  570   7.421   4.309   6.178 -0.1346 -0.0856 -0.0453
   31U     H5'1  571   7.388   4.312   6.282  1.8583 -2.4610  0.7376
   31U     H5'2  572   7.445   4.203   6.171 -3.5658 -1.0143  0.5650
   31U      C4'  573   7.316   4.335   6.075 -0.0988 -0.9953 -0.0108
   31U      H4'  574   7.240   4.257   6.079 -0.4754 -0.8493 -2.4509
   31U      O4'  575   7.251   4.464   6.084 -0.4994  0.5276 -0.2535
   31U      C1'  576   7.233   4.518   5.959 -1.0121 -0.1140  0.2372
   31U      H1'  577   7.132   4.556   5.943 -0.2352  1.8657 -0.2303
   31U       N1  578   7.333   4.627   5.928  0.6471 -1.0008  0.1456
   31U       C6  579   7.443   4.644   6.000 -0.3914 -0.0533 -0.1289
   31U       H6  580   7.449   4.593   6.095  1.7596  0.6636  0.1945
   31U       C5  581   7.522   4.754   5.977 -0.1142  0.4064  0.0988
   31U       H5  582   7.593   4.788   6.052  2.4058  0.4758 -2.1433
   31U       C4  583   7.485   4.852   5.883  0.3389 -0.4722  0.4338
   31U       O4  584   7.551   4.955   5.860  0.2282  0.1935  0.0177
   31U       N3  585   7.373   4.830   5.814  0.1800  0.3246  0.1616
   31U       H3  586   7.354   4.901   5.744  2.4665  0.3681 -0.5002
   31U       C2  587   7.289   4.719   5.830  0.0917 -0.0980 -0.4110
   31U       O2  588   7.185   4.705   5.765  0.1912 -0.6094 -0.4302
   31U      C3'  589   7.376   4.326   5.937  0.5595  0.5995  0.0395
   31U      H3'  590   7.462   4.393   5.933  0.7633  0.4702  1.7566
   31U      C2'  591   7.269   4.396   5.861 -0.2116  0.1088 -0.3355
   31U     H2'1  592   7.320   4.432   5.772  1.0437 -0.3496  0.1652
   31U      O2'  593   7.154   4.323   5.826  0.4295 -0.0231  0.5923
   31U     HO'2  594   7.128   4.350   5.738 -0.1644 -1.0643  0.4265
   31U      O3'  595   7.412   4.195   5.899 -0.3397  0.3544 -0.4934
   32G        P  596   7.512   4.173   5.778  0.3154  0.8180  0.3148
   32G      O1P  597   7.517   4.023   5.743  0.7835  0.2640 -0.3673
   32G      O2P  598   7.640   4.237   5.796  0.0191  0.3848 -0.7779
   32G      O5'  599   7.452   4.235   5.650 -0.6200 -0.4827 -0.0388
   32G      C5'  600   7.335   4.182   5.585  0.1700 -0.6124 -0.0424
   32G     H5'1  601   7.247   4.179   5.649 -1.9247  1.9431 -2.5264
   32G     H5'2  602   7.343   4.076   5.558 -0.6633 -0.3949 -1.2230
   32G      C4'  603   7.295   4.274   5.478  0.1163  0.9201 -0.2711
   32G      H4'  604   7.211   4.231   5.423  0.2072  0.5118 -0.0881
   32G      O4'  605   7.258   4.406   5.521 -0.2005 -0.2632  0.0921
   32G      C1'  606   7.319   4.499   5.425  0.2345 -0.8893 -0.4463
   32G      H1'  607   7.241   4.565   5.385  0.9760 -0.0212 -0.4906
   32G       N9  608   7.429   4.573   5.490  0.7622  0.0147  0.0943
   32G       C8  609   7.507   4.540   5.596 -0.1288 -0.4178  0.4649
   32G       H8  610   7.518   4.441   5.636  2.6841 -0.4058 -0.1249
   32G       N7  611   7.576   4.640   5.637  0.2864  0.5088  0.0962
   32G       C5  612   7.554   4.742   5.546  0.7365 -0.1610  0.1522
   32G       C6  613   7.596   4.880   5.536  0.1808  0.8667  0.1217
   32G       O6  614   7.693   4.943   5.591  0.3648  0.3900  0.2363
   32G       N1  615   7.521   4.947   5.435 -0.6866 -0.0777 -0.5823
   32G       H1  616   7.550   5.043   5.425  5.0344 -1.5585 -2.8842
   32G       C2  617   7.435   4.892   5.344 -0.6485 -0.3841 -0.4613
   32G       N2  618   7.396   4.960   5.239  0.2464 -0.2733 -0.1588
   32G      H21  619   7.437   5.052   5.227 -0.5277  0.4759  2.3913
   32G      H22  620   7.340   4.915   5.168 -1.2977  1.2793  0.0196
   32G       N3  621   7.399   4.766   5.355  0.2346  0.1679 -0.1747
   32G       C4  622   7.459   4.698   5.454 -0.0291 -0.0135  0.3509
   32G      C3'  623   7.407   4.285   5.378  0.4635 -0.1876  0.2911
   32G      H3'  624   7.502   4.304   5.428  0.2651  2.0517 -0.1145
   32G      C2'  625   7.379   4.418   5.309  0.2325  0.0406  0.1368
   32G     H2'1  626   7.472   4.463   5.273 -1.5873  3.1095 -1.1105
   32G      O2'  627   7.277   4.414   5.209 -0.3182 -0.4370 -0.3117
   32G     HO'2  628   7.318   4.407   5.123  4.5571  0.8172  1.5870
   32G      O3'  629   7.405   4.179   5.279 -0.1469 -0.1763 -0.3402
   33A        P  630   7.530   4.147   5.193 -0.0464 -0.0866 -0.0488
   33A      O1P  631   7.529   4.003   5.176 -0.2781 -0.3981 -0.9307
   33A      O2P  632   7.647   4.208   5.263 -0.4138 -0.3939  0.4659
   33A      O5'  633   7.510   4.241   5.065  0.5688  0.8120  0.7604
   33A      C5'  634   7.421   4.205   4.956  1.3485 -0.2722  0.1985
   33A     H5'1  635   7.319   4.187   4.990  0.7695 -0.2035 -1.4285
   33A     H5'2  636   7.455   4.120   4.897  1.6806 -0.1811  0.2545
   33A      C4'  637   7.409   4.328   4.866  0.8276 -0.1594  0.4428
   33A      H4'  638   7.330   4.310   4.793 -0.2486 -0.1717  1.5751
   33A      O4'  639   7.362   4.441   4.944 -0.9555  0.1947 -0.2400
   33A      C1'  640   7.422   4.556   4.884  0.1113 -0.3569 -0.3471
   33A      H1'  641   7.348   4.626   4.844  0.7906 -0.8449 -2.5894
   33A       N9  642   7.521   4.618   4.973 -0.0029 -0.0011 -0.8102
   33A       C8  643   7.588   4.556   5.071 -0.4901 -0.7057 -0.0616
   33A       H8  644   7.567   4.455   5.103  2.1074 -0.8836  1.4217
   33A       N7  645   7.670   4.634   5.136 -0.4041 -1.0532 -0.1259
   33A       C5  646   7.654   4.763   5.076 -0.3103 -0.5829  0.2176
   33A       C6  647   7.711   4.890   5.099 -0.3230 -0.2551 -0.1851
   33A       N6  648   7.783   4.929   5.200  0.0249 -0.1915 -0.2043
   33A      H61  649   7.804   4.856   5.267  1.5655 -0.8981 -1.4039
   33A      H62  650   7.844   5.007   5.182 -0.0656 -0.0833 -0.0505
   33A       N1  651   7.683   4.988   5.009  0.3060 -0.0451  0.3782
   33A       C2  652   7.616   4.958   4.904 -0.5137 -0.1158  1.5208
   33A       H2  653   7.596   5.044   4.842  1.6772 -0.0894  0.7765
   33A       N3  654   7.562   4.840   4.870 -0.2392 -1.2217 -0.3346
   33A       C4  655   7.578   4.743   4.964  0.3741  0.7722 -0.6401
   33A      C3'  656   7.523   4.368   4.779 -0.1890 -0.2529  0.5422
   33A      H3'  657   7.612   4.364   4.841  0.6384  0.4928 -0.5746
   33A      C2'  658   7.495   4.516   4.754 -1.0862  0.0227 -0.2277
   33A     H2'1  659   7.586   4.576   4.746 -0.0616 -1.2888  0.9282
   33A      O2'  660   7.412   4.546   4.646 -0.6058 -0.1420 -0.4498
   33A     HO'2  661   7.406   4.641   4.637  2.5033  0.1339 -0.8275
   33A      O3'  662   7.534   4.294   4.661 -0.4026 -0.5898  0.6701
   34U        P  663   7.672   4.284   4.579  0.7726  0.1487 -0.1240
   34U      O1P  664   7.630   4.199   4.469 -0.0902  0.1244 -0.0547
   34U      O2P  665   7.771   4.228   4.667 -0.2768  0.2632  0.6027
   34U      O5'  666   7.715   4.424   4.524 -0.2117 -0.0807  0.2172
   34U      C5'  667   7.644   4.489   4.425  0.4987 -0.2457 -1.0127
   34U     H5'1  668   7.538   4.486   4.447  1.0557 -3.0043  1.9784
   34U     H5'2  669   7.660   4.437   4.330 -1.4142 -3.0153  0.0615
   34U      C4'  670   7.687   4.642   4.402  0.7836  0.3412 -1.2160
   34U      H4'  671   7.621   4.689   4.329 -0.1471  2.3030  0.7874
   34U      O4'  672   7.685   4.712   4.526 -0.6320  0.3281 -0.0839
   34U      C1'  673   7.812   4.763   4.553 -0.0631  0.3623  0.2004
   34U      H1'  674   7.811   4.870   4.531  0.4824  0.0908 -1.2189
   34U       N1  675   7.854   4.744   4.689 -0.6106 -0.7212 -0.7248
   34U       C6  676   7.863   4.620   4.738 -1.3065  0.7342  0.3368
   34U       H6  677   7.838   4.542   4.668 -3.5904  2.7472 -1.2825
   34U       C5  678   7.908   4.588   4.862  0.1829 -0.9587  0.1173
   34U       H5  679   7.919   4.487   4.898  1.7208 -0.9789 -0.3751
   34U       C4  680   7.956   4.698   4.948 -0.7034  0.9992  0.6589
   34U       O4  681   7.997   4.685   5.067  0.3946 -0.8494  0.1454
   34U       N3  682   7.945   4.828   4.894 -0.2607 -0.4416  0.1351
   34U       H3  683   7.996   4.901   4.942  0.4832 -1.2440  0.5921
   34U       C2  684   7.904   4.853   4.765  0.4435 -0.0234  0.2557
   34U       O2  685   7.920   4.967   4.729 -0.1204  0.0953  0.0475
   34U      C3'  686   7.824   4.649   4.342 -0.2544  0.3258  0.4038
   34U      H3'  687   7.868   4.557   4.304  0.0623  0.9702 -0.8126
   34U      C2'  688   7.913   4.699   4.455 -0.2048 -0.0999 -0.2173
   34U     H2'1  689   7.958   4.614   4.507  0.6737 -1.1717 -2.5698
   34U      O2'  690   8.014   4.790   4.411 -0.0115  0.1484  0.3428
   34U     HO'2  691   8.020   4.781   4.316  0.3044  0.4097  0.3379
   34U      O3'  692   7.821   4.740   4.234  0.4964 -0.4231  0.4041
   35A        P  693   7.766   4.706   4.090  0.0855  0.0819  0.3780
   35A      O1P  694   7.652   4.617   4.093 -0.3400 -0.1425 -0.2870
   35A      O2P  695   7.885   4.662   4.013 -0.1194 -0.2316  0.4263
   35A      O5'  696   7.722   4.850   4.038 -0.7794  0.0367 -0.4272
   35A      C5'  697   7.592   4.899   4.048 -0.0669  0.2805 -0.4118
   35A     H5'1  698   7.564   4.904   4.153 -1.9370 -2.9215 -0.6397
   35A     H5'2  699   7.523   4.838   3.990  0.4601  0.2237 -0.9913
   35A      C4'  700   7.600   5.039   3.990  0.0991 -0.0973 -0.1623
   35A      H4'  701   7.503   5.084   3.973  1.1156  1.7937 -1.3195
   35A      O4'  702   7.672   5.110   4.088 -0.6407 -0.7918 -0.4611
   35A      C1'  703   7.765   5.214   4.037  0.1305 -1.0201  0.0995
   35A      H1'  704   7.750   5.315   4.075 -1.6197 -0.7634 -1.1623
   35A       N9  705   7.907   5.164   4.073  0.4231 -0.6931  0.0981
   35A       C8  706   7.932   5.093   4.188 -0.4926  0.1093  0.9377
   35A       H8  707   7.862   5.025   4.235 -0.4090 -0.5432  0.1433
   35A       N7  708   8.063   5.092   4.216  0.0192  0.5014  0.5010
   35A       C5  709   8.119   5.170   4.121 -0.4441  0.5100 -0.1205
   35A       C6  710   8.255   5.214   4.095  0.1517 -0.0545  0.2423
   35A       N6  711   8.363   5.175   4.150  0.5520  0.0926  0.1725
   35A      H61  712   8.359   5.090   4.205 -0.4511 -0.3516 -0.5404
   35A      H62  713   8.445   5.192   4.094  0.6357 -0.3379  0.1590
   35A       N1  714   8.273   5.290   3.990 -0.1702  0.1135 -0.6091
   35A       C2  715   8.174   5.324   3.907  0.3097 -0.4111  0.0433
   35A       H2  716   8.202   5.383   3.821  2.4377 -2.8336 -1.0338
   35A       N3  717   8.048   5.288   3.917 -0.6223  0.4651  0.5162
   35A       C4  718   8.025   5.210   4.027  0.1121 -0.1555  0.1171
   35A      C3'  719   7.676   5.066   3.858 -0.9752 -0.7565  0.5529
   35A      H3'  720   7.753   4.991   3.844  0.1368  0.7751 -2.2519
   35A      C2'  721   7.738   5.208   3.889  0.4120  0.3967 -0.6974
   35A     H2'1  722   7.831   5.231   3.837 -0.1334  1.5973 -1.1728
   35A      O2'  723   7.643   5.314   3.873  0.0982 -0.7260  0.5455
   35A     HO'2  724   7.574   5.303   3.938 -0.1330  3.8658  1.4127
   35A      O3'  725   7.591   5.062   3.750 -0.2995  0.2156  0.1859
   36U        P  726   7.545   4.921   3.677 -0.4176 -0.1439 -0.1984
   36U      O1P  727   7.649   4.817   3.688 -0.0597 -0.4734  0.0412
   36U      O2P  728   7.506   4.963   3.547  0.4040 -0.9469 -0.1506
   36U      O5'  729   7.416   4.883   3.761 -0.0656  0.8726  0.5965
   36U      C5'  730   7.311   4.977   3.786  0.1925  0.4915  0.5588
   36U     H5'1  731   7.280   5.037   3.700  1.3586  0.5085  0.1277
   36U     H5'2  732   7.338   5.041   3.870 -0.6514  0.0537  1.1707
   36U      C4'  733   7.188   4.891   3.818  0.1319  0.0827 -0.0880
   36U      H4'  734   7.103   4.958   3.836  0.8800  0.6244  1.6911
   36U      O4'  735   7.147   4.818   3.701  0.5344 -0.2619  0.4662
   36U      C1'  736   7.140   4.676   3.738 -0.5461 -0.5427 -0.5336
   36U      H1'  737   7.041   4.642   3.769 -0.8664  0.3466 -0.5578
   36U       N1  738   7.189   4.595   3.620 -0.5053  0.1666 -0.8005
   36U       C6  739   7.293   4.639   3.545 -0.0345 -0.1415 -0.6956
   36U       H6  740   7.354   4.720   3.582 -0.7450 -0.6018  1.6831
   36U       C5  741   7.324   4.573   3.434  0.7464  0.1701 -0.6122
   36U       H5  742   7.406   4.610   3.373  0.6707  0.2762 -0.6496
   36U       C4  743   7.266   4.452   3.392  0.0875 -1.0297 -1.1495
   36U       O4  744   7.295   4.390   3.289 -0.3759  0.6787 -0.5907
   36U       N3  745   7.171   4.405   3.473 -0.4534 -0.4196  0.1776
   36U       H3  746   7.100   4.354   3.422  1.1312 -1.7323 -0.8149
   36U       C2  747   7.126   4.473   3.587 -0.3157 -0.1404  0.0638
   36U       O2  748   7.027   4.435   3.649  0.3161 -0.1204 -0.0458
   36U      C3'  749   7.205   4.799   3.941 -0.4284  0.4102  0.1160
   36U      H3'  750   7.288   4.831   4.004  0.0604  1.2084 -0.9002
   36U      C2'  751   7.232   4.672   3.863 -0.4027 -0.3544 -0.0929
   36U     H2'1  752   7.338   4.681   3.840  0.0283  1.7537  2.2262
   36U      O2'  753   7.213   4.548   3.933  0.1200  0.2459  0.0920
   36U     HO'2  754   7.121   4.549   3.962 -0.1392 -2.0206 -0.5137
   36U      O3'  755   7.082   4.784   4.015 -0.5134 -0.0548  1.2521
   37G        P  756   7.024   4.894   4.109 -0.5979  0.7228  0.2230
   37G      O1P  757   6.893   4.843   4.159  0.4126 -0.5238  0.0304
   37G      O2P  758   7.025   5.029   4.056  0.1343 -0.0565  0.0699
   37G      O5'  759   7.137   4.879   4.224  0.2450 -0.4497 -0.4787
   37G      C5'  760   7.157   4.765   4.305 -0.3993  0.1191  0.0254
   37G     H5'1  761   7.164   4.674   4.245 -0.3543  0.6737 -0.8381
   37G     H5'2  762   7.057   4.748   4.346 -0.2219  0.3355  0.5622
   37G      C4'  763   7.248   4.782   4.421 -0.4838  0.0183 -0.2771
   37G      H4'  764   7.254   4.688   4.476  0.6493  1.8761  3.0308
   37G      O4'  765   7.379   4.815   4.377 -0.1453 -0.1090  0.0906
   37G      C1'  766   7.430   4.913   4.465  0.3917  0.4633 -0.2989
   37G      H1'  767   7.534   4.885   4.483  1.1913  0.8633 -3.6104
   37G       N9  768   7.445   5.041   4.391 -0.1936 -0.5238 -0.2351
   37G       C8  769   7.352   5.123   4.330  0.6184  0.3074  0.0729
   37G       H8  770   7.252   5.084   4.315  1.2783 -0.9467 -1.4389
   37G       N7  771   7.396   5.242   4.288  0.4236  0.3840  0.4507
   37G       C5  772   7.531   5.241   4.337  0.1220 -0.1752 -0.0110
   37G       C6  773   7.633   5.337   4.324  0.3118 -0.0152 -0.0137
   37G       O6  774   7.634   5.444   4.264  0.0103  0.1501  0.1712
   37G       N1  775   7.737   5.310   4.406  0.2015  0.2582  0.5225
   37G       H1  776   7.815   5.374   4.395 -0.8233  1.1989 -2.0511
   37G       C2  777   7.752   5.194   4.474  0.3309 -0.5547 -0.4385
   37G       N2  778   7.863   5.169   4.541 -1.0300 -0.5115  0.1204
   37G      H21  779   7.924   5.248   4.558 -0.7273 -0.9378  1.0946
   37G      H22  780   7.861   5.088   4.601 -2.4957 -0.4686  0.1727
   37G       N3  781   7.665   5.097   4.477 -0.0174 -0.1907 -0.1668
   37G       C4  782   7.555   5.125   4.400 -0.6179  0.9846 -0.3829
   37G      C3'  783   7.205   4.889   4.518  0.6749 -0.7055 -0.0375
   37G      H3'  784   7.178   4.983   4.470 -3.0047 -0.8416  1.4642
   37G      C2'  785   7.331   4.912   4.589 -0.2619 -0.3600 -0.1588
   37G     H2'1  786   7.326   5.014   4.627  1.6373  0.9288 -2.9604
   37G      O2'  787   7.373   4.811   4.676 -0.5421 -0.1444  0.5554
   37G     HO'2  788   7.445   4.837   4.734 -1.0567 -1.5142  1.8692
   37G      O3'  789   7.091   4.847   4.598 -0.5136 -1.1850 -0.0539
   38G        P  790   6.988   4.949   4.648 -0.3803  0.2619 -0.4989
   38G      O1P  791   6.909   4.874   4.750 -0.5285  0.1573 -0.1006
   38G      O2P  792   6.923   5.022   4.532  0.7345  0.6582 -0.1915
   38G      O5'  793   7.081   5.045   4.735 -0.2225 -0.2132  0.2120
   38G      C5'  794   7.133   5.002   4.855 -0.4391 -0.0605  0.0127
   38G     H5'1  795   7.179   4.903   4.848 -0.1501  0.0440  0.4255
   38G     H5'2  796   7.043   4.992   4.915  0.0485  3.3960  1.5654
   38G      C4'  797   7.227   5.097   4.934 -0.7576 -0.5277  0.6030
   38G      H4'  798   7.254   5.053   5.030 -0.4640 -1.2574  0.1950
   38G      O4'  799   7.339   5.122   4.852  0.7053 -0.0804  0.7701
   38G      C1'  800   7.367   5.256   4.859 -0.2075  0.9185 -0.2443
   38G      H1'  801   7.474   5.260   4.879 -0.7256 -0.3748  3.8519
   38G       N9  802   7.354   5.322   4.724 -0.5309 -0.2404  0.2467
   38G       C8  803   7.257   5.321   4.632  0.6863 -0.5701  0.0586
   38G       H8  804   7.177   5.251   4.651 -1.5823  2.0541  0.7701
   38G       N7  805   7.265   5.413   4.539 -0.0493 -0.2452 -0.5644
   38G       C5  806   7.393   5.474   4.562  0.7954 -0.1254  0.7244
   38G       C6  807   7.460   5.573   4.486 -0.0220 -0.5443 -0.0787
   38G       O6  808   7.436   5.633   4.378 -0.3808  0.0469 -0.6112
   38G       N1  809   7.586   5.597   4.535 -1.0330  0.6960  0.0130
   38G       H1  810   7.648   5.667   4.497 -1.3107  0.3261 -1.1669
   38G       C2  811   7.642   5.536   4.644 -0.2568 -0.5163 -0.2926
   38G       N2  812   7.767   5.565   4.673  0.0290 -0.3554  0.0932
   38G      H21  813   7.819   5.636   4.625  1.7723 -1.9074 -0.4409
   38G      H22  814   7.807   5.520   4.755 -2.3600 -1.9919  0.4545
   38G       N3  815   7.582   5.433   4.708 -0.4508  0.1817 -0.9057
   38G       C4  816   7.453   5.410   4.669  0.2601  0.0644  0.4735
   38G      C3'  817   7.166   5.235   4.954  0.2400  0.0217 -0.2288
   38G      H3'  818   7.102   5.260   4.870 -4.4556 -2.4478  2.2403
   38G      C2'  819   7.287   5.327   4.964 -0.2424 -0.0138  0.0293
   38G     H2'1  820   7.271   5.429   4.930 -2.0911 -0.2239  0.1667
   38G      O2'  821   7.337   5.321   5.093 -1.0021 -0.8646  1.1633
   38G     HO'2  822   7.256   5.317   5.145 -3.6081  4.2129 -1.7396
   38G      O3'  823   7.084   5.250   5.071 -0.9846  0.3281  0.0262
   39U        P  824   6.930   5.288   5.056 -0.0204 -0.2648 -0.4257
   39U      O1P  825   6.890   5.309   4.914 -0.1696 -0.7013 -0.1723
   39U      O2P  826   6.922   5.395   5.156 -0.4367 -0.1429 -0.7999
   39U      O5'  827   6.843   5.165   5.107 -0.0277 -0.3122  0.4772
   39U      C5'  828   6.801   5.070   5.020 -0.4016 -0.3348 -0.7958
   39U     H5'1  829   6.882   5.063   4.947  0.7685  2.1571  0.1660
   39U     H5'2  830   6.706   5.108   4.983 -0.9187  0.4220  1.1813
   39U      C4'  831   6.779   4.942   5.096  0.1707  0.5585  0.1211
   39U      H4'  832   6.732   4.867   5.031 -2.0964  1.2299  0.8938
   39U      O4'  833   6.909   4.890   5.125  0.2843  0.2060 -0.0606
   39U      C1'  834   6.910   4.827   5.247 -0.0392 -0.6813 -0.0136
   39U      H1'  835   6.949   4.726   5.244  1.9726  0.0064  1.2119
   39U       N1  836   6.987   4.895   5.361 -0.2313  0.4592 -0.0840
   39U       C6  837   7.047   5.019   5.346 -0.1422 -0.2669 -0.5483
   39U       H6  838   7.024   5.078   5.258  0.6911  1.9280  0.6196
   39U       C5  839   7.148   5.063   5.428 -0.4476 -0.6190 -1.1008
   39U       H5  840   7.207   5.151   5.407  0.0503 -0.8801 -0.8207
   39U       C4  841   7.197   4.977   5.536 -0.1069  0.3919 -0.3223
   39U       O4  842   7.268   5.019   5.621  0.3794  0.9309  0.0140
   39U       N3  843   7.129   4.860   5.542 -0.0284  0.3543 -0.5189
   39U       H3  844   7.140   4.806   5.627 -1.3800 -0.4814 -0.8483
   39U       C2  845   7.026   4.811   5.460  0.2889 -0.4302 -0.2224
   39U       O2  846   6.995   4.699   5.484 -0.8978 -0.0091  0.0235
   39U      C3'  847   6.696   4.949   5.221  0.4071 -0.6193 -0.4462
   39U      H3'  848   6.731   5.034   5.279 -2.3159  0.1823  0.1738
   39U      C2'  849   6.758   4.822   5.289 -0.8439 -0.2785 -0.6429
   39U     H2'1  850   6.757   4.814   5.398 -1.7304  2.0879 -0.4264
   39U      O2'  851   6.693   4.705   5.238 -0.1927 -0.4061 -1.5271
   39U     HO'2  852   6.599   4.724   5.235 -0.0173  0.4942 -1.5452
   39U      O3'  853   6.552   4.964   5.210  0.1741  0.4521 -1.0604
   40U        P  854   6.475   4.994   5.343  0.2196  0.4954 -0.5744
   40U      O1P  855   6.331   4.976   5.319  0.2003  0.1234  0.1828
   40U      O2P  856   6.527   5.120   5.394 -0.8363  0.0252  0.2666
   40U      O5'  857   6.527   4.886   5.451  0.7656 -0.7304  0.3735
   40U      C5'  858   6.457   4.757   5.475  0.0387 -0.4032 -0.0424
   40U     H5'1  859   6.452   4.694   5.386  1.7272  0.3570 -0.7187
   40U     H5'2  860   6.356   4.787   5.501  0.3248  0.7196 -0.1596
   40U      C4'  861   6.511   4.682   5.602  0.2167  0.1277  0.3825
   40U      H4'  862   6.478   4.579   5.611  0.2176 -0.0265 -1.2394
   40U      O4'  863   6.657   4.692   5.594 -1.0938  0.1073 -0.2827
   40U      C1'  864   6.717   4.714   5.726  0.1536 -0.1612 -0.4701
   40U      H1'  865   6.775   4.626   5.756 -0.6780 -1.5524 -2.6850
   40U       N1  866   6.811   4.833   5.745  0.0792  0.6206 -0.0942
   40U       C6  867   6.798   4.947   5.666  0.9905  0.6134 -0.6282
   40U       H6  868   6.730   4.939   5.582 -0.3689 -0.2182  0.4971
   40U       C5  869   6.873   5.055   5.686 -0.0194 -0.5748 -0.4780
   40U       H5  870   6.866   5.140   5.619  2.5268 -0.5237 -0.8100
   40U       C4  871   6.970   5.064   5.791  0.0900  0.4745  0.4461
   40U       O4  872   7.051   5.150   5.828  0.1398  0.0874  0.2088
   40U       N3  873   6.979   4.944   5.863 -0.5351  0.2108 -0.2923
   40U       H3  874   7.042   4.952   5.941 -0.1485  0.9961 -0.6712
   40U       C2  875   6.903   4.830   5.853 -0.3581 -0.6828  0.1303
   40U       O2  876   6.902   4.739   5.938 -0.1544  0.6267  0.3320
   40U      C3'  877   6.475   4.762   5.729 -0.6858 -0.8927  0.6829
   40U      H3'  878   6.487   4.869   5.718  0.0986 -0.8771  1.5578
   40U      C2'  879   6.596   4.728   5.822 -0.1916  0.1388 -0.8608
   40U     H2'1  880   6.629   4.801   5.896  1.3829 -0.9839 -0.4029
   40U      O2'  881   6.592   4.589   5.881  0.5726 -0.0676  0.4899
   40U     HO'2  882   6.585   4.613   5.973 -2.1473 -0.0339  0.3418
   40U      O3'  883   6.353   4.718   5.790 -0.0781  0.5959  0.8378
   41U        P  884   6.252   4.802   5.866  0.2012  0.4136  0.1009
   41U      O1P  885   6.126   4.728   5.869  0.3218 -0.9601 -0.6094
   41U      O2P  886   6.249   4.940   5.812  0.0457  0.5628 -0.0696
   41U      O5'  887   6.319   4.801   6.008  0.3274 -0.3090 -0.1627
   41U      C5'  888   6.327   4.681   6.084 -0.0442 -0.1113 -0.4633
   41U     H5'1  889   6.338   4.589   6.025 -0.4745 -0.2979 -0.2567
   41U     H5'2  890   6.233   4.669   6.137  0.4143 -0.1768  0.3403
   41U      C4'  891   6.439   4.675   6.191 -0.1681 -0.4009 -0.4928
   41U      H4'  892   6.438   4.575   6.235  1.5565  1.0362  3.3315
   41U      O4'  893   6.567   4.701   6.147 -0.7779  0.0149  0.2289
   41U      C1'  894   6.646   4.756   6.253  0.8165  0.3057 -1.0009
   41U      H1'  895   6.726   4.693   6.292 -0.3138  1.6656  4.2258
   41U       N1  896   6.706   4.893   6.224  0.1455 -0.5769  0.0454
   41U       C6  897   6.665   4.968   6.116  0.3679 -0.6189 -0.1049
   41U       H6  898   6.574   4.943   6.065  0.0618  1.0502 -0.4259
   41U       C5  899   6.726   5.094   6.094 -0.0236  0.3702  0.3542
   41U       H5  900   6.685   5.160   6.019 -1.9156 -1.1138  0.0322
   41U       C4  901   6.849   5.132   6.157  0.1888 -0.0601  0.1980
   41U       O4  902   6.917   5.229   6.130 -0.1469  0.4848 -0.6237
   41U       N3  903   6.876   5.051   6.260 -0.9404 -0.9395  0.4491
   41U       H3  904   6.957   5.077   6.314 -0.3409  2.0001 -1.5999
   41U       C2  905   6.815   4.941   6.298 -0.1779 -0.8497  0.1308
   41U       O2  906   6.846   4.890   6.405 -0.0720  0.5907  0.5815
   41U      C3'  907   6.413   4.781   6.302  0.2393  0.0808 -0.0123
   41U      H3'  908   6.391   4.875   6.252  2.1437  2.2834  2.9662
   41U      C2'  909   6.546   4.770   6.368 -0.1472 -0.7435 -0.2790
   41U     H2'1  910   6.568   4.859   6.427  2.5519 -2.0013  0.8213
   41U      O2'  911   6.561   4.650   6.450  0.1367 -0.5866 -0.2095
   41U     HO'2  912   6.637   4.655   6.509  0.9657  0.4145 -1.3051
   41U      O3'  913   6.308   4.749   6.388  0.1194 -0.2370 -0.5344
   42G        P  914   6.258   4.863   6.485  0.2575  0.5747  0.0580
   42G      O1P  915   6.151   4.798   6.572  0.6216  0.2266 -0.2505
   42G      O2P  916   6.219   4.977   6.401 -0.1479 -0.0852  0.8262
   42G      O5'  917   6.384   4.900   6.572 -0.3236  0.4254  0.1623
   42G      C5'  918   6.423   4.820   6.684 -0.6733  0.0931  0.0338
   42G     H5'1  919   6.430   4.715   6.659  0.3041  0.2402 -0.3675
   42G     H5'2  920   6.345   4.822   6.760  0.7859 -1.0869  1.6412
   42G      C4'  921   6.555   4.874   6.746  0.9000 -0.0251  0.2161
   42G      H4'  922   6.594   4.808   6.824  1.3323  1.8082  1.6417
   42G      O4'  923   6.648   4.908   6.645 -0.0667 -0.1849  0.3088
   42G      C1'  924   6.731   5.013   6.687 -0.4461  0.1049  0.6843
   42G      H1'  925   6.832   4.985   6.718 -0.2172  2.3921  2.2309
   42G       N9  926   6.750   5.129   6.595 -0.2586  0.4005  0.3438
   42G       C8  927   6.681   5.176   6.486  0.6707  0.2068 -0.2499
   42G       H8  928   6.588   5.127   6.461 -0.2804  2.5617 -1.6037
   42G       N7  929   6.720   5.285   6.428  0.6341 -0.5598 -0.0392
   42G       C5  930   6.837   5.313   6.506  0.0697  0.1416 -0.4920
   42G       C6  931   6.945   5.417   6.503  0.1780  0.7002 -0.1263
   42G       O6  932   6.964   5.505   6.419 -0.2385 -0.7004  0.4066
   42G       N1  933   7.028   5.414   6.617  1.2525 -0.5670  0.6019
   42G       H1  934   7.097   5.487   6.626  1.7409 -1.1614  1.9276
   42G       C2  935   7.028   5.321   6.711  1.2808  0.3006 -0.5752
   42G       N2  936   7.129   5.321   6.801 -0.0224  0.5593  0.7998
   42G      H21  937   7.201   5.392   6.797  1.1414 -0.5566  1.0579
   42G      H22  938   7.129   5.245   6.867 -0.3770 -1.4201 -1.3301
   42G       N3  939   6.945   5.215   6.712  0.4199 -0.2933  0.3521
   42G       C4  940   6.852   5.224   6.609 -0.5061  0.7900 -0.1753
   42G      C3'  941   6.524   5.015   6.803 -0.7786 -0.1399  1.3207
   42G      H3'  942   6.466   5.080   6.737 -0.9539  0.5355  2.1171
   42G      C2'  943   6.668   5.062   6.819 -0.5003 -0.3779  0.9958
   42G     H2'1  944   6.669   5.171   6.823  1.3550 -0.2097 -1.7191
   42G      O2'  945   6.746   5.011   6.924  0.2446  0.2328  0.1785
   42G     HO'2  946   6.681   4.998   6.994 -0.1368  1.1493  0.0228
   42G      O3'  947   6.455   4.991   6.923  0.6506 -0.6927  1.2125
   43G        P  948   6.376   5.116   6.991 -0.1824  0.2216  0.2351
   43G      O1P  949   6.315   5.070   7.117 -0.4694  0.0587 -0.2825
   43G      O2P  950   6.288   5.162   6.893 -0.2553  0.1072  0.6302
   43G      O5'  951   6.481   5.240   7.027  0.0474 -0.1054 -0.6768
   43G      C5'  952   6.582   5.231   7.132 -0.1957  0.2323 -0.1891
   43G     H5'1  953   6.652   5.153   7.103 -0.4715 -0.4102  0.8428
   43G     H5'2  954   6.540   5.198   7.226  1.9929 -0.9177  0.4546
   43G      C4'  955   6.659   5.359   7.155  0.3374 -0.6373  0.3507
   43G      H4'  956   6.719   5.355   7.247 -0.1244 -2.6193  0.5990
   43G      O4'  957   6.742   5.389   7.044  0.4361 -0.4128 -0.2835
   43G      C1'  958   6.730   5.523   7.019  0.2694 -0.0577  0.7315
   43G      H1'  959   6.794   5.580   7.087  0.9086  0.0983  0.0217
   43G       N9  960   6.774   5.561   6.879  0.6101 -0.0587 -0.5524
   43G       C8  961   6.695   5.557   6.769 -1.0220 -0.4595  0.2264
   43G       H8  962   6.606   5.497   6.759 -0.8776 -1.5074  3.7937
   43G       N7  963   6.745   5.624   6.667  0.4889  0.0531 -0.4938
   43G       C5  964   6.866   5.672   6.721  0.5487 -0.8030 -0.1989
   43G       C6  965   6.959   5.761   6.666 -0.0810  0.3146  0.0095
   43G       O6  966   6.972   5.805   6.555 -0.6235 -0.2467 -0.1887
   43G       N1  967   7.062   5.800   6.751 -0.0683 -0.1072  1.1627
   43G       H1  968   7.119   5.881   6.729 -0.4450 -0.8134 -3.1151
   43G       C2  969   7.077   5.750   6.873 -0.5108 -0.0586 -0.2885
   43G       N2  970   7.176   5.796   6.943  0.4259 -0.5719  0.8080
   43G      H21  971   7.226   5.878   6.912 -1.2015 -0.3161 -1.4582
   43G      H22  972   7.205   5.738   7.020 -0.8446 -0.9935  0.9926
   43G       N3  973   6.991   5.673   6.940 -0.7922 -0.1185  0.1804
   43G       C4  974   6.890   5.635   6.851  0.8045  0.4146 -0.5970
   43G      C3'  975   6.566   5.474   7.182 -0.8704  0.3940  0.1208
   43G      H3'  976   6.463   5.437   7.189 -0.3261 -0.9521  1.6412
   43G      C2'  977   6.580   5.544   7.044  0.4980 -0.0663 -0.3426
   43G     H2'1  978   6.517   5.481   6.981 -0.3792 -0.2568  0.7044
   43G      O2'  979   6.523   5.675   7.039 -0.1449  0.1190  0.3003
   43G     HO'2  980   6.499   5.689   7.131  1.3384  1.9125  0.4670
   43G      O3'  981   6.616   5.547   7.290 -0.0622 -0.0546  0.2111
   44G        P  982   6.524   5.647   7.367  0.6567 -0.2586  0.4310
   44G      O1P  983   6.474   5.584   7.490  0.2355  0.4779  0.2015
   44G      O2P  984   6.436   5.706   7.268 -0.5467  0.1308 -0.1608
   44G      O5'  985   6.634   5.750   7.401  0.3197  0.1653 -0.4698
   44G      C5'  986   6.728   5.726   7.500  0.3275  1.3390 -0.1744
   44G     H5'1  987   6.771   5.627   7.490  1.6945  1.9863 -1.1304
   44G     H5'2  988   6.689   5.741   7.601 -2.1728  0.3172 -0.9145
   44G      C4'  989   6.850   5.810   7.482  0.1834 -0.5806 -1.1182
   44G      H4'  990   6.916   5.788   7.566 -1.0719 -1.8885 -0.4459
   44G      O4'  991   6.929   5.780   7.370  0.2047 -0.0158  0.2010
   44G      C1'  992   6.983   5.892   7.310  0.3214 -0.2230 -0.7869
   44G      H1'  993   7.090   5.879   7.295  0.1475 -1.9464 -0.7215
   44G       N9  994   6.914   5.927   7.179 -0.2570  0.8855 -0.0330
   44G       C8  995   6.803   5.867   7.126  1.1070  0.9935  0.0624
   44G       H8  996   6.750   5.793   7.184 -1.5764  1.4065 -1.6498
   44G       N7  997   6.771   5.901   7.002 -0.8388 -0.0121 -0.4771
   44G       C5  998   6.867   6.000   6.979 -0.2183 -0.8862 -0.8799
   44G       C6  999   6.884   6.088   6.870  0.2925  1.3457 -0.4318
   44G       O6 1000   6.813   6.089   6.767 -0.5611 -0.1240  0.5227
   44G       N1 1001   6.981   6.181   6.881 -0.2334  0.4761  0.3780
   44G       H1 1002   7.002   6.244   6.805  0.4133 -1.2609 -0.9467
   44G       C2 1003   7.061   6.181   6.983 -0.5133 -0.6189 -0.9540
   44G       N2 1004   7.145   6.279   6.993 -0.2399  0.4153  0.0484
   44G      H21 1005   7.153   6.343   6.915  0.1976 -1.8505 -1.9066
   44G      H22 1006   7.216   6.279   7.065 -0.1114  0.8928 -0.0689
   44G       N3 1007   7.043   6.118   7.103 -0.3172 -0.4241 -0.0866
   44G       C4 1008   6.950   6.018   7.086 -0.1774 -0.1006 -0.3167
   44G      C3' 1009   6.821   5.965   7.476 -0.3223  0.1475  0.0152
   44G      H3' 1010   6.735   5.971   7.409 -1.1586 -2.2195  0.7902
   44G      C2' 1011   6.950   6.010   7.402  0.0409  0.1206 -0.4786
   44G     H2'1 1012   6.921   6.093   7.337  0.8718  0.0887 -0.9122
   44G      O2' 1013   7.064   6.050   7.483 -0.1182  0.4723 -0.5643
   44G     HO'2 1014   7.035   6.134   7.517 -2.1070  0.1825 -1.3812
   44G      O3' 1015   6.811   6.026   7.605 -0.0692 -0.5572 -0.0869
   45A        P 1016   6.699   6.130   7.647  0.2342  0.2032 -0.1094
   45A      O1P 1017   6.678   6.103   7.792  0.2209 -0.6028  0.6054
   45A      O2P 1018   6.582   6.109   7.563  0.4518 -0.4378  0.0540
   45A      O5' 1019   6.749   6.279   7.614 -0.3137  0.3343 -0.3091
   45A      C5' 1020   6.871   6.327   7.668 -0.1484  0.2888  0.2654
   45A     H5'1 1021   6.931   6.238   7.687 -0.4473  0.1312  0.4877
   45A     H5'2 1022   6.855   6.378   7.763  0.2202  1.3797 -0.2446
   45A      C4' 1023   6.950   6.421   7.579  0.8325 -0.3856  0.5005
   45A      H4' 1024   7.042   6.449   7.629  1.6758  1.3068 -1.8483
   45A      O4' 1025   7.001   6.353   7.467  0.1648  0.1354  0.2227
   45A      C1' 1026   7.000   6.434   7.354 -0.5484 -0.9676  0.8682
   45A      H1' 1027   7.096   6.422   7.303  0.1559  1.1741  1.6046
   45A       N9 1028   6.887   6.394   7.266 -0.3842  0.3751  0.2364
   45A       C8 1029   6.786   6.303   7.290 -0.1759 -0.2060 -0.4011
   45A       H8 1030   6.782   6.248   7.382  1.7334 -0.5130 -0.4457
   45A       N7 1031   6.711   6.268   7.186  0.0459  0.0203 -0.3630
   45A       C5 1032   6.761   6.358   7.090  0.0105  0.8638 -0.3852
   45A       C6 1033   6.736   6.377   6.950 -0.2097 -0.0665 -0.5128
   45A       N6 1034   6.646   6.326   6.876  0.6998  0.5220  1.0989
   45A      H61 1035   6.585   6.251   6.906  0.9340 -0.8553 -1.5554
   45A      H62 1036   6.646   6.360   6.780 -2.3405  0.9734  1.1412
   45A       N1 1037   6.798   6.472   6.880  0.4717 -0.7541  0.2940
   45A       C2 1038   6.894   6.540   6.939  0.1596 -0.4590 -0.4989
   45A       H2 1039   6.947   6.621   6.890  0.8023 -1.4576 -1.5035
   45A       N3 1040   6.938   6.524   7.061  0.3020 -0.3112 -0.0754
   45A       C4 1041   6.870   6.431   7.133  0.2027  0.5648 -0.1927
   45A      C3' 1042   6.873   6.547   7.525  0.0590 -0.2770 -0.9008
   45A      H3' 1043   6.774   6.523   7.487 -0.1346 -0.5701 -0.2348
   45A      C2' 1044   6.972   6.574   7.409 -0.2587 -0.1597  1.0770
   45A     H2'1 1045   6.925   6.642   7.339 -1.2832 -0.3140  1.5919
   45A      O2' 1046   7.098   6.616   7.446 -0.0414 -0.6547 -0.4411
   45A     HO'2 1047   7.101   6.640   7.539 -2.6084  0.0360 -0.4724
   45A      O3' 1048   6.880   6.662   7.613 -0.1012  0.2855 -0.5709
   46G        P 1049   6.769   6.765   7.643  0.3445 -0.2539 -0.6407
   46G      O1P 1050   6.831   6.884   7.703  0.2370  0.4499 -0.8525
   46G      O2P 1051   6.645   6.695   7.705 -0.2999 -0.3737  0.7339
   46G      O5' 1052   6.733   6.798   7.496 -0.1514 -0.1032 -0.6270
   46G      C5' 1053   6.812   6.898   7.430 -0.7911 -0.4383 -0.3919
   46G     H5'1 1054   6.914   6.861   7.420 -2.0128 -3.6770 -2.7350
   46G     H5'2 1055   6.814   6.992   7.485  1.5154 -0.9762  0.5774
   46G      C4' 1056   6.764   6.931   7.290  0.0963 -0.5303 -0.0208
   46G      H4' 1057   6.825   7.016   7.260 -3.5087  1.9271 -1.1599
   46G      O4' 1058   6.776   6.831   7.191 -0.3376  0.1033 -0.4820
   46G      C1' 1059   6.673   6.859   7.092  0.0708 -0.2055 -0.5552
   46G      H1' 1060   6.718   6.883   6.995 -0.3207  0.9160 -0.4699
   46G       N9 1061   6.589   6.731   7.087  0.1068  0.2788  0.1016
   46G       C8 1062   6.557   6.640   7.185  0.8896 -0.1401 -0.7668
   46G       H8 1063   6.588   6.652   7.287 -1.1073 -1.6714  0.0977
   46G       N7 1064   6.480   6.543   7.159  0.1239  0.4382  0.5482
   46G       C5 1065   6.455   6.567   7.021  0.0643  1.1151  0.6630
   46G       C6 1066   6.370   6.496   6.930  0.7086 -0.1595  0.0505
   46G       O6 1067   6.295   6.406   6.958 -0.2361 -0.1034 -0.3313
   46G       N1 1068   6.379   6.537   6.802  0.0236  0.0275 -0.0955
   46G       H1 1069   6.321   6.492   6.733  0.5988  1.0796 -1.3133
   46G       C2 1070   6.453   6.638   6.762  0.2013  0.8760 -0.2603
   46G       N2 1071   6.433   6.678   6.641 -0.5125  0.3690  0.1167
   46G      H21 1072   6.365   6.634   6.580 -0.1684  0.3553 -0.2612
   46G      H22 1073   6.464   6.771   6.620 -1.2496  0.5564 -0.1537
   46G       N3 1074   6.514   6.730   6.848  0.3962  0.7917  0.3091
   46G       C4 1075   6.516   6.683   6.976  0.6697 -0.1027  0.2244
   46G      C3' 1076   6.622   6.982   7.293 -0.6637  0.1803  0.0792
   46G      H3' 1077   6.558   6.908   7.342  0.8917 -1.1995  0.1358
   46G      C2' 1078   6.581   6.974   7.147 -0.7640  0.0408 -0.8710
   46G     H2'1 1079   6.475   6.953   7.136 -1.2479  1.9239 -0.0750
   46G      O2' 1080   6.604   7.094   7.086 -0.3631  0.0588 -0.3819
   46G     HO'2 1081   6.570   7.166   7.138 -0.5467  0.1783 -0.6636
   46G      O3' 1082   6.605   7.103   7.356  0.0116 -0.2413  0.3101
   47U        P 1083   6.468   7.157   7.416  0.0449  0.8280 -0.3693
   47U      O1P 1084   6.497   7.256   7.510  0.9134  0.0271 -0.1949
   47U      O2P 1085   6.390   7.038   7.461 -0.1141  0.3873  0.2043
   47U      O5' 1086   6.396   7.210   7.282  0.0081  0.1253  0.0886
   47U      C5' 1087   6.432   7.339   7.230  0.9778  0.3597  0.3497
   47U     H5'1 1088   6.487   7.316   7.139 -0.6385  0.6497 -0.7330
   47U     H5'2 1089   6.497   7.401   7.292 -0.0209  2.2948 -0.4570
   47U      C4' 1090   6.310   7.418   7.200  0.4460 -0.0639 -0.0466
   47U      H4' 1091   6.350   7.509   7.155 -1.6102 -0.5026 -3.0315
   47U      O4' 1092   6.239   7.356   7.097  0.4140 -0.6930  0.5628
   47U      C1' 1093   6.100   7.349   7.113  0.0159 -0.4487 -0.4706
   47U      H1' 1094   6.040   7.412   7.048 -2.1247 -0.4846  1.3269
   47U       N1 1095   6.048   7.209   7.110 -0.1125  0.2993 -0.1402
   47U       C6 1096   6.073   7.116   7.206  0.0431 -0.2481 -0.6106
   47U       H6 1097   6.127   7.150   7.293  0.2926 -0.2338 -0.7716
   47U       C5 1098   6.017   6.992   7.194 -0.0252 -0.0370 -0.0981
   47U       H5 1099   6.017   6.924   7.278 -0.2043 -1.9151 -1.5244
   47U       C4 1100   5.933   6.956   7.079  0.5512 -0.1477  0.0756
   47U       O4 1101   5.873   6.847   7.056 -0.0868 -0.6411  0.1575
   47U       N3 1102   5.921   7.056   6.983 -0.1965  0.2576 -0.0248
   47U       H3 1103   5.862   7.023   6.908 -0.6740 -1.3722  1.0103
   47U       C2 1104   5.974   7.180   6.997  0.4836 -0.8443  0.2282
   47U       O2 1105   5.948   7.257   6.904  0.4736  0.3819 -0.8075
   47U      C3' 1106   6.214   7.434   7.317 -0.3788 -0.0237 -0.5828
   47U      H3' 1107   6.236   7.365   7.399  0.6199 -0.1808 -0.9763
   47U      C2' 1108   6.082   7.420   7.244  0.4554  0.5978 -0.4707
   47U     H2'1 1109   6.020   7.353   7.303  0.7876 -0.5082 -1.3357
   47U      O2' 1110   6.021   7.542   7.206 -0.8503  0.0495  0.4079
   47U     HO'2 1111   6.038   7.606   7.276 -1.1419 -0.6542  1.1248
   47U      O3' 1112   6.243   7.567   7.357  0.3462  0.4097 -0.2573
   48U        P 1113   6.206   7.604   7.499 -0.4411  0.6015  0.1807
   48U      O1P 1114   6.287   7.722   7.530 -0.0566 -0.0712  0.6360
   48U      O2P 1115   6.213   7.486   7.590 -0.0005 -0.1861  0.6553
   48U      O5' 1116   6.064   7.649   7.470  0.4216 -0.0046 -0.5405
   48U      C5' 1117   5.993   7.761   7.536  0.3958 -0.2216  0.3227
   48U     H5'1 1118   6.025   7.856   7.493  0.5729 -1.0839 -1.5215
   48U     H5'2 1119   6.031   7.764   7.638 -0.0140 -1.6899  0.5470
   48U      C4' 1120   5.844   7.747   7.563 -0.0582 -0.4719  0.3419
   48U      H4' 1121   5.836   7.662   7.631 -1.4889 -1.8520 -1.4362
   48U      O4' 1122   5.793   7.860   7.635 -0.0010 -0.2330 -0.3042
   48U      C1' 1123   5.692   7.919   7.554 -0.7669  0.0720 -0.5540
   48U      H1' 1124   5.598   7.868   7.574 -1.4514  1.2029 -0.8271
   48U       N1 1125   5.673   8.061   7.581  0.7247  0.0899  0.0259
   48U       C6 1126   5.754   8.134   7.668  0.5641  1.0852  0.7765
   48U       H6 1127   5.839   8.096   7.722  2.2116  2.5432 -0.6893
   48U       C5 1128   5.738   8.267   7.680 -0.1015  0.9166  0.4873
   48U       H5 1129   5.808   8.328   7.736 -0.8109  0.6866  1.6578
   48U       C4 1130   5.629   8.333   7.619  1.1222 -0.7431 -0.0435
   48U       O4 1131   5.596   8.451   7.632 -0.0511  0.4147  0.0351
   48U       N3 1132   5.543   8.254   7.548 -0.7353  1.0213  0.0993
   48U       H3 1133   5.474   8.295   7.487 -0.0830 -0.0623 -1.4547
   48U       C2 1134   5.560   8.118   7.520 -0.3703 -0.0951 -0.3945
   48U       O2 1135   5.477   8.068   7.442 -0.5561  0.6918  0.6006
   48U      C3' 1136   5.760   7.729   7.435 -0.4415  0.0782 -0.5396
   48U      H3' 1137   5.803   7.688   7.344 -0.0905 -2.4894  0.6799
   48U      C2' 1138   5.714   7.871   7.411  0.6857  0.5685  0.1246
   48U     H2'1 1139   5.790   7.936   7.368 -0.4565  3.2646  1.9294
   48U      O2' 1140   5.598   7.872   7.329 -0.9605 -0.0862 -0.3910
   48U     HO'2 1141   5.549   7.954   7.336  0.2584  0.6197  0.3031
   48U      O3' 1142   5.646   7.648   7.467 -0.3820  0.0513  0.6141
   49U        P 1143   5.668   7.492   7.440 -0.1739 -0.0632 -0.1380
   49U      O1P 1144   5.550   7.423   7.495  0.0179 -0.1358  0.1189
   49U      O2P 1145   5.802   7.444   7.483 -0.8095 -0.2515  0.5811
   49U      O5' 1146   5.666   7.483   7.280  0.0212  0.8090 -0.2770
   49U      C5' 1147   5.543   7.461   7.213  0.2027 -0.1039  0.2733
   49U     H5'1 1148   5.475   7.535   7.254  1.8244  0.8252  1.4240
   49U     H5'2 1149   5.521   7.356   7.235  0.8357 -0.3694 -0.3144
   49U      C4' 1150   5.559   7.489   7.067  0.0135  0.2161  0.0728
   49U      H4' 1151   5.470   7.454   7.014 -1.0936  2.1483  0.5480
   49U      O4' 1152   5.574   7.630   7.042 -0.7474  0.1930 -0.0071
   49U      C1' 1153   5.667   7.639   6.931 -1.0892 -0.3019 -0.1441
   49U      H1' 1154   5.614   7.606   6.842 -0.0998  0.4106 -1.0167
   49U       N1 1155   5.710   7.788   6.924  0.4181  0.1287  0.3060
   49U       C6 1156   5.731   7.855   7.044 -0.2543 -0.3092 -0.3109
   49U       H6 1157   5.717   7.795   7.133  2.7592 -0.6021  0.0628
   49U       C5 1158   5.776   7.986   7.049  0.6806 -0.1497  0.4490
   49U       H5 1159   5.785   8.040   7.142 -2.2948 -0.5758  1.1041
   49U       C4 1160   5.795   8.057   6.926 -0.0560 -0.0918 -0.1267
   49U       O4 1161   5.844   8.168   6.924 -0.0195  0.0096 -0.1094
   49U       N3 1162   5.748   7.990   6.817  0.0805 -0.3346 -0.1465
   49U       H3 1163   5.753   8.038   6.728 -1.4437 -1.2393 -0.7742
   49U       C2 1164   5.709   7.858   6.808  0.5914 -0.2353 -0.2172
   49U       O2 1165   5.694   7.804   6.697 -0.1886 -0.0467 -0.2233
   49U      C3' 1166   5.676   7.417   7.004  0.4785  0.7988  0.4201
   49U      H3' 1167   5.719   7.346   7.075 -0.4526 -0.3627 -0.1323
   49U      C2' 1168   5.772   7.532   6.971 -0.5814 -0.2132  0.0270
   49U     H2'1 1169   5.815   7.563   7.067  0.3291  2.0899 -1.0550
   49U      O2' 1170   5.868   7.525   6.873 -0.0891  0.0297 -0.0746
   49U     HO'2 1171   5.873   7.431   6.855  0.0126 -0.3069  1.5611
   49U      O3' 1172   5.645   7.352   6.879  0.2645  0.1210 -0.3590
   50C        P 1173   5.558   7.216   6.878  0.1338 -0.1807 -0.8023
   50C      O1P 1174   5.492   7.200   7.010 -0.2824  0.6219 -0.0131
   50C      O2P 1175   5.648   7.112   6.826 -0.3536  0.9638 -0.0840
   50C      O5' 1176   5.448   7.231   6.759 -0.7297  0.0424 -0.3325
   50C      C5' 1177   5.325   7.290   6.782  0.1561  0.5614 -0.6322
   50C     H5'1 1178   5.336   7.396   6.808 -0.1274  0.0242  1.9820
   50C     H5'2 1179   5.279   7.231   6.861 -0.5118 -0.3467 -1.6841
   50C      C4' 1180   5.242   7.273   6.661  0.3219  0.1457 -0.6539
   50C      H4' 1181   5.140   7.286   6.700  1.0078  0.7910  1.0363
   50C      O4' 1182   5.258   7.372   6.563 -0.0592  0.5715 -0.0918
   50C      C1' 1183   5.236   7.320   6.429  0.3169  0.2175  0.4066
   50C      H1' 1184   5.171   7.389   6.377  0.2803 -0.3850 -0.3616
   50C       N1 1185   5.363   7.303   6.347 -0.1325 -0.0359  0.0039
   50C       C6 1186   5.476   7.359   6.395  0.1525  0.3347  0.4520
   50C       H6 1187   5.473   7.427   6.478 -1.1344  1.0105 -0.1241
   50C       C5 1188   5.596   7.327   6.335 -0.0741  0.0078  0.3161
   50C       H5 1189   5.689   7.361   6.379  1.0099 -0.9879 -1.1070
   50C       C4 1190   5.595   7.252   6.214 -0.8240 -0.2750  0.1336
   50C       N4 1191   5.705   7.237   6.147 -1.1212 -0.1099  0.5917
   50C      H41 1192   5.792   7.272   6.184 -1.6652 -0.2420  2.0463
   50C      H42 1193   5.702   7.188   6.059  1.7808  1.4009 -0.4859
   50C       N3 1194   5.482   7.210   6.163 -0.3665  0.7418  0.9025
   50C       C2 1195   5.364   7.236   6.222  0.2776 -0.4704 -0.0807
   50C       O2 1196   5.258   7.190   6.173 -0.8577 -0.2058  0.0298
   50C      C3' 1197   5.227   7.141   6.590 -0.4497 -0.3995 -0.4255
   50C      H3' 1198   5.329   7.106   6.581  0.2446  1.4542 -0.1321
   50C      C2' 1199   5.171   7.184   6.457  1.3246  0.1484  0.3218
   50C     H2'1 1200   5.197   7.113   6.379  1.2490  1.1451 -0.6401
   50C      O2' 1201   5.025   7.196   6.439 -0.0706  0.0189 -0.1116
   50C     HO'2 1202   4.977   7.113   6.450 -5.7357  2.5630 -1.7252
   50C      O3' 1203   5.137   7.061   6.658  0.6187  0.3947 -0.0963
   51U        P 1204   5.182   6.910   6.687 -0.2530  0.1309  0.0238
   51U      O1P 1205   5.061   6.845   6.728  0.1085  0.1652 -0.1428
   51U      O2P 1206   5.299   6.925   6.773 -0.2158  0.1532 -0.3009
   51U      O5' 1207   5.234   6.847   6.553 -0.3800  0.0054  0.2580
   51U      C5' 1208   5.149   6.805   6.445  0.0286 -0.2134  0.2433
   51U     H5'1 1209   5.069   6.878   6.435  0.0601 -0.3190 -0.8875
   51U     H5'2 1210   5.083   6.720   6.462 -1.7664  0.6481 -1.9809
   51U      C4' 1211   5.233   6.805   6.317  0.2967  0.1589  0.5286
   51U      H4' 1212   5.158   6.786   6.240 -0.1234 -1.5469  1.3050
   51U      O4' 1213   5.317   6.917   6.287  1.0897  0.0729 -0.7506
   51U      C1' 1214   5.426   6.878   6.210 -0.1276  0.0887  0.8080
   51U      H1' 1215   5.411   6.917   6.110 -3.2135 -1.5977  0.4877
   51U       N1 1216   5.558   6.901   6.270 -0.3522 -0.4269 -0.8039
   51U       C6 1217   5.573   6.916   6.409 -0.2251 -0.5800 -0.1092
   51U       H6 1218   5.495   6.918   6.483  1.6209  0.8622  1.9438
   51U       C5 1219   5.694   6.928   6.463 -0.3319  0.0494  0.4526
   51U       H5 1220   5.704   6.932   6.570  1.7028 -1.8966  0.4183
   51U       C4 1221   5.813   6.935   6.387  0.0425  0.2600  0.3694
   51U       O4 1222   5.926   6.964   6.432  0.5218 -0.0937  0.1898
   51U       N3 1223   5.796   6.936   6.252 -0.3392  0.1833 -1.0055
   51U       H3 1224   5.880   6.945   6.197  1.4985 -1.0224  1.3745
   51U       C2 1225   5.673   6.930   6.187  0.3869 -0.2398 -0.5802
   51U       O2 1226   5.668   6.954   6.063  0.0125 -0.2677 -0.5533
   51U      C3' 1227   5.325   6.682   6.310  0.5837  0.1316 -0.0183
   51U      H3' 1228   5.391   6.672   6.397  1.3476  0.1255 -0.5946
   51U      C2' 1229   5.407   6.726   6.190  0.2959  0.1257  0.5072
   51U     H2'1 1230   5.504   6.677   6.186  1.4123  2.2731 -0.8300
   51U      O2' 1231   5.335   6.699   6.068  0.1712 -1.1531 -0.6292
   51U     HO'2 1232   5.259   6.641   6.081  0.2725 -1.1303  0.1440
   51U      O3' 1233   5.254   6.560   6.292 -0.5694  0.8034  0.0666
   52A        P 1234   5.320   6.417   6.329  0.0450  0.4936 -0.1486
   52A      O1P 1235   5.252   6.311   6.244  0.1836  0.5201 -0.3690
   52A      O2P 1236   5.323   6.399   6.486 -0.2121 -0.5288  0.3270
   52A      O5' 1237   5.462   6.413   6.273  0.1654 -0.4138 -0.3649
   52A      C5' 1238   5.494   6.413   6.133  0.1252  0.2224 -0.8028
   52A     H5'1 1239   5.438   6.489   6.080 -3.6348 -2.5007 -1.1598
   52A     H5'2 1240   5.449   6.320   6.097 -1.3585  0.9134 -0.7972
   52A      C4' 1241   5.654   6.427   6.102  0.3074 -0.6154 -0.1009
   52A      H4' 1242   5.663   6.433   5.994  1.9450  2.3074  0.1025
   52A      O4' 1243   5.688   6.557   6.152 -0.2299 -0.4214  0.3807
   52A      C1' 1244   5.818   6.551   6.218  0.7987 -0.2155 -0.3608
   52A      H1' 1245   5.888   6.628   6.186 -0.5420  0.0860 -2.8407
   52A       N9 1246   5.815   6.555   6.366 -0.1331 -0.4654  0.6388
   52A       C8 1247   5.714   6.540   6.448  0.6719 -0.9620 -0.3821
   52A       H8 1248   5.620   6.502   6.410 -0.2456  0.9361 -0.1625
   52A       N7 1249   5.734   6.564   6.575  0.2866  0.0926 -0.3048
   52A       C5 1250   5.865   6.611   6.566 -0.2414 -0.8448  0.6363
   52A       C6 1251   5.965   6.656   6.657 -0.8435  0.0070  0.3501
   52A       N6 1252   5.937   6.667   6.784 -0.1873 -0.0954 -0.3272
   52A      H61 1253   5.853   6.629   6.825 -0.0372  0.7819  0.8426
   52A      H62 1254   6.003   6.702   6.852 -1.5914  0.6199  0.7289
   52A       N1 1255   6.091   6.690   6.623 -0.3422 -0.7393  0.6006
   52A       C2 1256   6.120   6.683   6.496  0.1724  0.2045  0.5509
   52A       H2 1257   6.218   6.713   6.463 -0.1328 -0.3722 -0.9301
   52A       N3 1258   6.038   6.654   6.398 -0.0457  0.5432 -0.2276
   52A       C4 1259   5.917   6.611   6.437 -0.1079 -0.0205  0.0130
   52A      C3' 1260   5.753   6.324   6.156 -0.2941  0.1941  0.3709
   52A      H3' 1261   5.728   6.294   6.258 -2.4829  2.7689  0.7059
   52A      C2' 1262   5.875   6.417   6.162 -0.1378 -0.5549 -0.5498
   52A     H2'1 1263   5.940   6.384   6.243 -3.1663 -2.7814  1.1865
   52A      O2' 1264   5.951   6.440   6.038  0.5629  0.3440  0.2410
   52A     HO'2 1265   6.031   6.491   6.050  1.1653 -0.2201 -1.1493
   52A      O3' 1266   5.772   6.208   6.068  0.1520 -0.0449 -0.9411
   53C        P 1267   5.865   6.081   6.105  0.0260  0.0877  0.0984
   53C      O1P 1268   5.859   5.982   6.000  0.3557 -0.6447 -0.3919
   53C      O2P 1269   5.835   6.031   6.240  0.2742 -0.1836 -0.5603
   53C      O5' 1270   6.025   6.116   6.105  0.3444  0.0598  0.0793
   53C      C5' 1271   6.104   6.154   5.988  0.6103 -0.4096 -0.2339
   53C     H5'1 1272   6.048   6.229   5.933  2.0635  1.3658  0.6170
   53C     H5'2 1273   6.137   6.070   5.927 -1.4824  0.0622 -2.1827
   53C      C4' 1274   6.234   6.225   6.021 -0.4155 -0.6784 -0.0837
   53C      H4' 1275   6.263   6.282   5.932 -3.0827  0.4514 -0.3262
   53C      O4' 1276   6.213   6.322   6.126 -0.4597  0.8896 -0.5345
   53C      C1' 1277   6.287   6.279   6.247  0.2298  0.3635  0.7746
   53C      H1' 1278   6.375   6.344   6.248  2.7200 -2.7407  2.2843
   53C       N1 1279   6.212   6.294   6.377 -0.2613 -0.5699 -0.4043
   53C       C6 1280   6.101   6.222   6.400 -0.3886 -1.2799 -0.2462
   53C       H6 1281   6.070   6.148   6.328 -1.2409 -0.5698 -0.6346
   53C       C5 1282   6.038   6.240   6.514  0.3225 -1.2496 -0.1430
   53C       H5 1283   5.949   6.182   6.533 -0.1431 -1.6880 -3.1054
   53C       C4 1284   6.093   6.332   6.614 -0.2270  0.4951 -1.0724
   53C       N4 1285   6.039   6.358   6.728  0.0166  0.6422 -0.2020
   53C      H41 1286   5.951   6.324   6.763 -0.3228 -1.6823 -2.9606
   53C      H42 1287   6.088   6.422   6.789 -1.8280 -0.4490  2.6555
   53C       N3 1288   6.207   6.397   6.595  0.7975  0.6975  0.1201
   53C       C2 1289   6.261   6.386   6.472  0.3922 -0.6055 -0.1352
   53C       O2 1290   6.358   6.463   6.449  0.2177 -0.5647 -0.0620
   53C      C3' 1291   6.348   6.136   6.066 -0.2831  0.2222  0.1942
   53C      H3' 1292   6.327   6.031   6.045  1.0930  0.0133 -0.2335
   53C      C2' 1293   6.346   6.138   6.222 -0.2867 -0.5930 -0.0048
   53C     H2'1 1294   6.282   6.058   6.257 -1.0811 -1.7426 -3.6518
   53C      O2' 1295   6.476   6.129   6.279  0.5389 -0.3995 -0.2354
   53C     HO'2 1296   6.542   6.122   6.210 -0.3175 -1.8299 -0.9652
   53C      O3' 1297   6.481   6.179   6.020 -1.3984 -0.4776 -0.1643
   54C        P 1298   6.558   6.081   5.924  0.3286 -0.1790 -0.2172
   54C      O1P 1299   6.534   5.944   5.978 -0.6041 -0.5937  0.7529
   54C      O2P 1300   6.692   6.132   5.931  0.6609  0.8300 -0.4120
   54C      O5' 1301   6.493   6.096   5.775  0.2076  0.3648  0.3619
   54C      C5' 1302   6.380   6.016   5.740 -0.6785 -0.2161 -0.0852
   54C     H5'1 1303   6.300   6.019   5.815 -0.3197  0.0516  0.2918
   54C     H5'2 1304   6.406   5.912   5.722  0.5938 -0.0501  0.6960
   54C      C4' 1305   6.316   6.073   5.613 -0.0443 -0.0422 -0.1395
   54C      H4' 1306   6.225   6.017   5.588 -0.4857  1.2106 -1.4749
   54C      O4' 1307   6.277   6.214   5.623 -0.4706 -0.0378  0.3013
   54C      C1' 1308   6.294   6.275   5.497 -0.2696  0.1774  0.4591
   54C      H1' 1309   6.195   6.300   5.459 -0.7567 -1.0452  0.8723
   54C       N1 1310   6.385   6.386   5.483  0.6953 -0.5188  1.1193
   54C       C6 1311   6.476   6.407   5.583  0.5407 -0.0388  0.0956
   54C       H6 1312   6.487   6.333   5.662 -0.2010  0.2840  0.5175
   54C       C5 1313   6.548   6.523   5.579  0.0936  0.4846  0.0048
   54C       H5 1314   6.614   6.547   5.661  0.0831 -0.7497  0.3869
   54C       C4 1315   6.526   6.616   5.473  0.4590  0.0999 -0.2266
   54C       N4 1316   6.552   6.742   5.488  0.0106 -0.4159 -0.4742
   54C      H41 1317   6.601   6.766   5.573 -2.3398 -0.8528  1.0871
   54C      H42 1318   6.515   6.805   5.418  1.6660  1.6697  0.4204
   54C       N3 1319   6.445   6.588   5.375  0.3343 -0.1199  0.8840
   54C       C2 1320   6.377   6.471   5.371 -0.0060  0.6771 -1.0017
   54C       O2 1321   6.300   6.446   5.274  0.1627 -0.1563 -0.2328
   54C      C3' 1322   6.402   6.071   5.481  0.0086 -0.2387 -0.2017
   54C      H3' 1323   6.504   6.108   5.493  0.5688  0.3015 -5.0091
   54C      C2' 1324   6.348   6.175   5.392 -0.0276 -0.4343 -0.2188
   54C     H2'1 1325   6.419   6.218   5.322  0.3719 -1.3424 -0.3927
   54C      O2' 1326   6.239   6.121   5.315  0.1496  0.0080  0.5967
   54C     HO'2 1327   6.265   6.060   5.245 -0.9181  2.8275 -2.5030
   54C      O3' 1328   6.400   5.948   5.413 -0.1800  0.1349  0.1415
   55A        P 1329   6.504   5.878   5.320 -0.4057 -0.0505  0.4950
   55A      O1P 1330   6.504   5.733   5.353  0.5711 -0.2825 -0.3224
   55A      O2P 1331   6.626   5.959   5.314  0.3302 -0.4373  0.3864
   55A      O5' 1332   6.448   5.899   5.171  0.5500 -0.2003  0.4871
   55A      C5' 1333   6.325   5.854   5.133 -0.2756  0.5800 -0.8243
   55A     H5'1 1334   6.245   5.852   5.207 -1.0329 -2.3064 -1.6104
   55A     H5'2 1335   6.338   5.752   5.097 -0.3564  0.5400 -0.7406
   55A      C4' 1336   6.270   5.956   5.025 -0.5637 -0.0161  0.1172
   55A      H4' 1337   6.166   5.929   5.010 -0.0276 -2.4426  0.2743
   55A      O4' 1338   6.272   6.091   5.065  0.0829 -0.0739  0.7263
   55A      C1' 1339   6.327   6.178   4.961 -0.3241  0.9426  0.0168
   55A      H1' 1340   6.258   6.261   4.945 -2.1210 -0.8293 -2.2248
   55A       N9 1341   6.450   6.244   5.006  0.9767  0.1086  0.3444
   55A       C8 1342   6.551   6.206   5.094 -0.2651  0.1704 -0.5077
   55A       H8 1343   6.551   6.109   5.141 -4.2327  1.7197  3.3525
   55A       N7 1344   6.642   6.302   5.117  0.1725  0.0179 -0.0804
   55A       C5 1345   6.583   6.414   5.052 -0.1893  0.0260  0.8003
   55A       C6 1346   6.614   6.555   5.034  0.1335 -0.4709 -0.1411
   55A       N6 1347   6.706   6.619   5.107 -0.4128 -0.1959  0.2949
   55A      H61 1348   6.772   6.564   5.160 -0.4869 -0.8683 -0.2962
   55A      H62 1349   6.729   6.714   5.080 -1.4215  0.2469  0.9443
   55A       N1 1350   6.538   6.636   4.962  0.1048  0.5465  0.4366
   55A       C2 1351   6.438   6.579   4.898  0.0889 -0.2631  0.1068
   55A       H2 1352   6.383   6.652   4.841  1.8642  0.1127 -1.2098
   55A       N3 1353   6.406   6.453   4.890  1.1449 -0.8386  0.0534
   55A       C4 1354   6.480   6.372   4.968  0.4512  0.4209 -0.1717
   55A      C3' 1355   6.347   5.949   4.897 -0.2412  0.0552 -0.4583
   55A      H3' 1356   6.450   5.930   4.929 -0.2806  1.8217  0.8375
   55A      C2' 1357   6.334   6.089   4.833 -0.5430 -0.4729  0.8534
   55A     H2'1 1358   6.424   6.107   4.774 -1.4710 -3.5879 -1.8125
   55A      O2' 1359   6.215   6.101   4.743 -0.8190  0.5794 -0.5280
   55A     HO'2 1360   6.237   6.045   4.669  2.6093  0.8259  0.1261
   55A      O3' 1361   6.304   5.845   4.813  0.8021  0.2415 -0.2269
   56A        P 1362   6.387   5.794   4.695 -0.2388 -0.2840 -0.4409
   56A      O1P 1363   6.334   5.675   4.631  0.1890  0.2966 -0.1781
   56A      O2P 1364   6.527   5.779   4.738 -0.9061 -0.5092 -0.0529
   56A      O5' 1365   6.386   5.915   4.587 -0.1697  0.3769  0.4923
   56A      C5' 1366   6.332   5.898   4.452 -0.4789 -0.0645 -0.4709
   56A     H5'1 1367   6.226   5.875   4.458 -1.3640  2.8246 -2.9740
   56A     H5'2 1368   6.383   5.823   4.391  0.1739 -0.0172 -0.0047
   56A      C4' 1369   6.341   6.029   4.370 -0.7191 -0.0311 -0.2692
   56A      H4' 1370   6.265   6.022   4.293  0.7006  2.3812 -2.0155
   56A      O4' 1371   6.308   6.140   4.448 -0.1631 -0.0253  0.4085
   56A      C1' 1372   6.397   6.252   4.415 -0.0527 -0.1191  1.0979
   56A      H1' 1373   6.350   6.349   4.396  1.4595  0.4694  0.1682
   56A       N9 1374   6.506   6.273   4.512  0.2706 -0.2928 -0.8432
   56A       C8 1375   6.575   6.171   4.577 -1.2353 -0.7883 -0.4504
   56A       H8 1376   6.547   6.067   4.574  0.2446 -1.3560  1.9911
   56A       N7 1377   6.647   6.222   4.677  0.1026 -0.4924  0.1153
   56A       C5 1378   6.649   6.364   4.649 -0.6443  1.0929  0.4121
   56A       C6 1379   6.722   6.466   4.711  0.3275 -0.1304 -0.3066
   56A       N6 1380   6.805   6.455   4.809 -0.5168 -0.2656 -0.4705
   56A      H61 1381   6.834   6.369   4.854  0.1095 -0.2669 -0.8561
   56A      H62 1382   6.868   6.532   4.824 -0.8947  0.4566 -2.2982
   56A       N1 1383   6.708   6.587   4.660  0.0805 -0.3531  0.1567
   56A       C2 1384   6.619   6.601   4.561 -0.9549 -0.5028  0.0656
   56A       H2 1385   6.617   6.703   4.524 -0.3836 -0.4446  0.1834
   56A       N3 1386   6.537   6.520   4.499 -0.3980  0.4876  0.9877
   56A       C4 1387   6.562   6.394   4.547  0.0270 -0.2135  0.5547
   56A      C3' 1388   6.468   6.056   4.299 -0.6464  0.0364 -0.0378
   56A      H3' 1389   6.557   6.021   4.351 -0.3987  0.0143 -0.4697
   56A      C2' 1390   6.470   6.207   4.283  0.3790  0.3129 -0.0730
   56A     H2'1 1391   6.565   6.259   4.268  1.2388 -1.5051 -1.3536
   56A      O2' 1392   6.393   6.238   4.168  0.1944 -0.0025  0.6581
   56A     HO'2 1393   6.345   6.160   4.138 -1.6117  0.6617  1.6462
   56A      O3' 1394   6.466   5.998   4.161 -0.5403 -0.4107  0.2630
   57G        P 1395   6.591   5.944   4.085 -0.3623  0.0165 -0.3742
   57G      O1P 1396   6.542   5.875   3.964 -0.5761  0.0256  0.4121
   57G      O2P 1397   6.674   5.869   4.175  0.1015  0.0164  0.0903
   57G      O5' 1398   6.679   6.070   4.050  0.3257 -0.7693  0.8373
   57G      C5' 1399   6.661   6.145   3.932 -0.1982  0.7198 -0.4092
   57G     H5'1 1400   6.562   6.192   3.938 -0.1247  0.7233  1.9352
   57G     H5'2 1401   6.689   6.085   3.846  4.4933  0.7865  0.7915
   57G      C4' 1402   6.759   6.257   3.937 -0.1430 -0.0182 -0.3386
   57G      H4' 1403   6.734   6.303   3.842 -2.7456 -0.1071  0.2099
   57G      O4' 1404   6.724   6.360   4.036  0.8714  0.1775  0.1799
   57G      C1' 1405   6.846   6.410   4.086  0.2796 -0.0033  0.6121
   57G      H1' 1406   6.852   6.519   4.083 -0.5464  0.0776  1.2680
   57G       N9 1407   6.878   6.364   4.232 -0.1673  0.7568  0.3263
   57G       C8 1408   6.849   6.247   4.300 -0.4635 -0.4155  0.0835
   57G       H8 1409   6.804   6.160   4.255  3.5542 -3.1698  0.9644
   57G       N7 1410   6.900   6.229   4.417  0.6790 -0.3024 -0.0815
   57G       C5 1411   6.967   6.345   4.433  0.5160  0.1553  0.1360
   57G       C6 1412   7.042   6.394   4.544 -0.3139  0.8301  0.2090
   57G       O6 1413   7.071   6.340   4.644  0.2173 -0.5437 -0.5080
   57G       N1 1414   7.103   6.517   4.514 -0.3132  0.3241  0.3825
   57G       H1 1415   7.177   6.536   4.580 -1.1708 -3.5635  2.7327
   57G       C2 1416   7.093   6.588   4.403 -0.4698 -0.3622  0.5217
   57G       N2 1417   7.161   6.695   4.396 -0.0479 -0.6435  0.3345
   57G      H21 1418   7.215   6.724   4.477 -1.1042  2.1785  0.1577
   57G      H22 1419   7.154   6.755   4.314 -0.7475 -1.0177  0.1206
   57G       N3 1420   7.013   6.551   4.302 -1.1469 -0.3855 -0.1474
   57G       C4 1421   6.949   6.431   4.328 -0.4079  0.2164  0.4158
   57G      C3' 1422   6.912   6.242   3.934 -0.8255  0.2557 -0.1414
   57G      H3' 1423   6.937   6.163   4.004 -0.2127  0.4620 -0.1259
   57G      C2' 1424   6.962   6.380   3.989  0.7183 -0.4182  0.0880
   57G     H2'1 1425   7.057   6.380   4.043  0.9628  2.0215 -0.2294
   57G      O2' 1426   6.966   6.480   3.886 -1.2078 -0.3330 -0.7928
   57G     HO'2 1427   6.974   6.430   3.804  1.7338  0.2459 -0.9960
   57G      O3' 1428   6.966   6.228   3.803  0.3222  0.3775 -0.4294
   58A        P 1429   7.121   6.178   3.793 -0.0931 -0.5767 -0.0694
   58A      O1P 1430   7.151   6.194   3.644 -0.2236  0.8315 -0.5144
   58A      O2P 1431   7.142   6.056   3.867  0.5072 -0.0292  0.9054
   58A      O5' 1432   7.211   6.295   3.872  0.7099  0.9175  0.5167
   58A      C5' 1433   7.254   6.408   3.798 -0.4305  0.2220 -1.0321
   58A     H5'1 1434   7.173   6.467   3.756 -0.8246 -0.1558 -0.8108
   58A     H5'2 1435   7.321   6.380   3.716  0.8911  1.3440 -0.3821
   58A      C4' 1436   7.324   6.498   3.900 -0.0852  0.0728  0.4665
   58A      H4' 1437   7.345   6.592   3.848  1.4638 -0.2114  0.5485
   58A      O4' 1438   7.255   6.529   4.018  0.1835 -0.7029  0.1758
   58A      C1' 1439   7.354   6.519   4.125 -0.5845  0.3633 -0.0893
   58A      H1' 1440   7.343   6.609   4.186  0.8834 -0.4045  1.4011
   58A       N9 1441   7.322   6.402   4.220 -0.3706  0.2945  0.1310
   58A       C8 1442   7.265   6.271   4.195 -0.9779 -0.3369 -0.0463
   58A       H8 1443   7.240   6.243   4.094 -1.6323  3.1083 -0.9791
   58A       N7 1444   7.270   6.196   4.303  0.2371 -0.1231  0.5932
   58A       C5 1445   7.328   6.279   4.402 -1.0603 -0.1973  0.2987
   58A       C6 1446   7.358   6.255   4.540  0.4234  0.1229 -0.3055
   58A       N6 1447   7.350   6.137   4.603  0.0415  0.5031 -0.8619
   58A      H61 1448   7.312   6.054   4.559  0.0198  1.1172 -2.0268
   58A      H62 1449   7.414   6.129   4.681  1.0293 -1.8116 -1.8176
   58A       N1 1450   7.427   6.347   4.610 -0.0367 -0.1595  0.4838
   58A       C2 1451   7.455   6.464   4.554 -0.3041  0.0638  0.1717
   58A       H2 1452   7.525   6.531   4.603 -0.1699  0.0816 -0.0458
   58A       N3 1453   7.425   6.503   4.429  0.2034 -0.8203  0.5956
   58A       C4 1454   7.362   6.404   4.357  0.9953  0.6552  0.5230
   58A      C3' 1455   7.460   6.442   3.932  0.2443  0.0226  0.6933
   58A      H3' 1456   7.448   6.335   3.949 -0.9958  0.3401  1.8897
   58A      C2' 1457   7.491   6.506   4.063  0.3942 -0.3993  0.2210
   58A     H2'1 1458   7.559   6.436   4.111  1.2151 -0.8689 -1.5565
   58A      O2' 1459   7.567   6.628   4.060  0.4775  0.1216  0.1184
   58A     HO'2 1460   7.520   6.703   4.023 -0.3921 -0.0200  0.8873
   58A      O3' 1461   7.557   6.470   3.827  0.5236  0.4622 -0.4951
   59G        P 1462   7.683   6.371   3.803  0.1261 -0.1389  0.1675
   59G      O1P 1463   7.774   6.425   3.698 -0.6818  0.5685 -0.3345
   59G      O2P 1464   7.626   6.235   3.773 -0.8161 -0.0423  0.3832
   59G      O5' 1465   7.759   6.371   3.958 -0.0209 -0.2081  0.4115
   59G      C5' 1466   7.834   6.485   3.991 -0.4628 -0.2885 -0.3838
   59G     H5'1 1467   7.773   6.572   3.966 -2.8190 -2.0113 -0.9508
   59G     H5'2 1468   7.920   6.489   3.923 -0.9171 -0.6914 -0.9892
   59G      C4' 1469   7.883   6.478   4.139  0.3765 -0.7660  0.5643
   59G      H4' 1470   7.924   6.572   4.175 -2.0525  1.2877 -1.5892
   59G      O4' 1471   7.781   6.451   4.233 -0.4840 -0.2403  0.7869
   59G      C1' 1472   7.842   6.398   4.349 -0.5057 -0.4750  0.5092
   59G      H1' 1473   7.834   6.466   4.434  2.1567  2.6124 -1.4650
   59G       N9 1474   7.764   6.278   4.383  0.3166 -0.3505  0.0393
   59G       C8 1475   7.674   6.218   4.304  0.1837  0.5510 -0.0526
   59G       H8 1476   7.650   6.249   4.203 -1.7620 -1.4879 -0.3099
   59G       N7 1477   7.610   6.122   4.363  0.1881  0.6788  0.5461
   59G       C5 1478   7.665   6.120   4.494 -0.4025  0.1422  0.9444
   59G       C6 1479   7.658   6.029   4.611 -0.2660 -0.6442  0.5825
   59G       O6 1480   7.589   5.928   4.617  0.0360 -0.0136 -0.2919
   59G       N1 1481   7.731   6.067   4.719 -0.3179  0.4414 -0.5189
   59G       H1 1482   7.718   6.016   4.805 -3.9781 -1.1832 -1.8452
   59G       C2 1483   7.813   6.170   4.709 -0.1946 -0.2089 -0.3922
   59G       N2 1484   7.881   6.200   4.820  0.2669 -0.0947  0.0624
   59G      H21 1485   7.861   6.136   4.896  0.8117  0.0893  0.3654
   59G      H22 1486   7.941   6.281   4.824  0.7827 -0.4182 -0.9036
   59G       N3 1487   7.836   6.249   4.608  0.0850 -0.1664 -0.6458
   59G       C4 1488   7.761   6.217   4.503 -0.0481  0.6774 -0.0339
   59G      C3' 1489   7.987   6.362   4.156  1.1813 -0.3947  0.2935
   59G      H3' 1490   7.951   6.265   4.120 -1.4789  1.8435 -3.9798
   59G      C2' 1491   7.992   6.357   4.311  0.5281  0.1843  0.2742
   59G     H2'1 1492   8.016   6.258   4.352 -2.3856 -0.5226  0.4676
   59G      O2' 1493   8.079   6.463   4.365  0.5810  0.3735  0.2962
   59G     HO'2 1494   8.150   6.464   4.302  3.1435 -1.4832  2.8927
   59G      O3' 1495   8.112   6.389   4.104 -0.6000 -0.3284  0.2176
   60C        P 1496   8.191   6.269   4.019  0.3603 -0.6551  0.6674
   60C      O1P 1497   8.326   6.324   3.975  0.3489  0.2482  0.7370
   60C      O2P 1498   8.099   6.227   3.912  0.1728  0.6214 -0.9752
   60C      O5' 1499   8.199   6.157   4.127  0.0436 -0.6709 -0.0456
   60C      C5' 1500   8.290   6.187   4.235 -0.0501 -0.4760 -0.4327
   60C     H5'1 1501   8.268   6.281   4.285 -3.0948 -0.8121 -0.9218
   60C     H5'2 1502   8.390   6.193   4.192  0.5846  1.2839  1.1551
   60C      C4' 1503   8.296   6.080   4.342  0.4960 -0.4094 -0.1490
   60C      H4' 1504   8.385   6.105   4.400 -0.3483  5.0012 -0.6122
   60C      O4' 1505   8.182   6.078   4.431 -0.2449 -0.0036 -0.3849
   60C      C1' 1506   8.156   5.939   4.460 -0.4878 -0.2791 -0.3580
   60C      H1' 1507   8.154   5.917   4.567  1.1176  0.1015 -0.2242
   60C       N1 1508   8.020   5.898   4.404 -0.0706  0.6198  0.0868
   60C       C6 1509   7.977   5.952   4.287  1.4111 -0.3746 -0.1923
   60C       H6 1510   8.029   6.034   4.239 -2.5377  3.3974  1.3069
   60C       C5 1511   7.854   5.917   4.241  0.0714  0.4039 -0.1705
   60C       H5 1512   7.807   5.956   4.153 -2.0098 -0.7244  0.3829
   60C       C4 1513   7.791   5.813   4.319  0.2909  0.2196 -0.7661
   60C       N4 1514   7.678   5.761   4.273 -0.1154 -0.1519  0.3582
   60C      H41 1515   7.646   5.800   4.186 -0.0001 -0.7839  0.0268
   60C      H42 1516   7.642   5.677   4.316 -0.8270 -1.0650 -1.8710
   60C       N3 1517   7.834   5.756   4.430 -0.1310  0.4094  0.7520
   60C       C2 1518   7.951   5.797   4.474  1.0169 -0.4011 -0.1835
   60C       O2 1519   7.995   5.746   4.581 -0.3558 -0.1019  0.2897
   60C      C3' 1520   8.317   5.940   4.287  0.2867  0.4114  0.1459
   60C      H3' 1521   8.251   5.928   4.202  0.2080  4.1921 -0.4810
   60C      C2' 1522   8.266   5.854   4.400 -0.2472  0.0512 -0.4468
   60C     H2'1 1523   8.230   5.758   4.364 -0.0232  0.9079 -3.1596
   60C      O2' 1524   8.359   5.840   4.509  0.1800 -0.2760  0.5587
   60C     HO'2 1525   8.368   5.744   4.504 -2.0382 -0.4535 -1.7765
   60C      O3' 1526   8.461   5.921   4.254  0.4994 -0.4015 -0.7957
   61C        P 1527   8.515   5.807   4.167 -0.0213  0.0098 -0.5164
   61C      O1P 1528   8.660   5.835   4.150 -0.1325  0.3413 -1.1848
   61C      O2P 1529   8.419   5.795   4.056 -0.5574 -0.1643  0.2554
   61C      O5' 1530   8.499   5.682   4.257 -0.2281 -0.1304 -0.1091
   61C      C5' 1531   8.588   5.662   4.364  0.0165 -0.2747 -0.3408
   61C     H5'1 1532   8.600   5.749   4.428  1.1978 -0.4943 -0.2280
   61C     H5'2 1533   8.685   5.639   4.319 -0.4763 -1.7695 -0.7167
   61C      C4' 1534   8.528   5.548   4.462 -0.1623  1.1360  0.2503
   61C      H4' 1535   8.596   5.532   4.546 -0.0951  1.2349  0.2146
   61C      O4' 1536   8.392   5.574   4.494 -0.7111  0.5705  0.1235
   61C      C1' 1537   8.321   5.450   4.482  0.5122  0.7086 -0.3643
   61C      H1' 1538   8.295   5.428   4.586  0.2936 -1.0525 -0.7606
   61C       N1 1539   8.208   5.478   4.383 -0.7860 -0.4154  0.1276
   61C       C6 1540   8.231   5.516   4.258  0.2513 -0.2875  0.0109
   61C       H6 1541   8.333   5.538   4.230 -0.2849  2.3239 -0.0797
   61C       C5 1542   8.135   5.529   4.164 -0.2874 -0.8599  0.0988
   61C       H5 1543   8.162   5.543   4.060  1.7147 -0.8271  0.5886
   61C       C4 1544   8.005   5.509   4.213 -0.1185  0.4552 -0.1632
   61C       N4 1545   7.903   5.558   4.139 -0.3722 -0.3059 -0.5643
   61C      H41 1546   7.918   5.584   4.042  1.0291 -2.9496 -1.1650
   61C      H42 1547   7.816   5.553   4.190 -0.0275 -1.1419 -0.0384
   61C       N3 1548   7.979   5.455   4.335 -0.1298  0.6922  0.7430
   61C       C2 1549   8.083   5.433   4.423  0.3329 -0.0746 -0.0387
   61C       O2 1550   8.062   5.399   4.539 -0.2143  0.6739 -0.2134
   61C      C3' 1551   8.528   5.411   4.390 -0.5729  0.4679  0.5477
   61C      H3' 1552   8.515   5.424   4.283  1.1792 -1.6331  0.0133
   61C      C2' 1553   8.409   5.333   4.444  0.6327 -0.0297 -0.4638
   61C     H2'1 1554   8.360   5.268   4.371  2.5048 -1.0821 -0.8489
   61C      O2' 1555   8.425   5.268   4.572  0.0053 -0.0767 -0.1644
   61C     HO'2 1556   8.406   5.175   4.566  3.0735 -0.7513 -2.2074
   61C      O3' 1557   8.653   5.351   4.399  0.6718  1.2687 -0.5293
   62U        P 1558   8.712   5.269   4.278 -0.1716  0.4327 -0.1407
   62U      O1P 1559   8.856   5.243   4.309  0.0317 -0.8554 -0.1008
   62U      O2P 1560   8.675   5.335   4.153  0.3959 -0.0579  0.0147
   62U      O5' 1561   8.645   5.125   4.273  0.4378  0.2151 -0.1379
   62U      C5' 1562   8.629   5.041   4.387  0.3472 -0.7279 -0.0139
   62U     H5'1 1563   8.555   5.079   4.458  1.4918 -4.3604  3.5739
   62U     H5'2 1564   8.728   5.020   4.429 -0.7234 -2.4727  1.8562
   62U      C4' 1565   8.575   4.910   4.337  0.0161  0.4441  0.3390
   62U      H4' 1566   8.557   4.849   4.426 -3.1878  0.3111 -0.3089
   62U      O4' 1567   8.440   4.930   4.282 -0.2277  0.5275  0.3516
   62U      C1' 1568   8.422   4.824   4.181 -0.3519 -0.8518  0.2278
   62U      H1' 1569   8.400   4.733   4.237 -0.5471 -2.0534 -1.7377
   62U       N1 1570   8.316   4.860   4.078  0.2220  0.3869 -0.3592
   62U       C6 1571   8.344   4.937   3.967  0.9089 -0.1386  0.4456
   62U       H6 1572   8.438   4.985   3.944  0.3269  0.3394 -1.0783
   62U       C5 1573   8.245   4.970   3.873 -0.0609 -0.1756 -0.0125
   62U       H5 1574   8.256   5.023   3.779 -2.4705 -0.1823 -0.3581
   62U       C4 1575   8.110   4.928   3.885 -0.6703  0.1106  0.0377
   62U       O4 1576   8.021   4.954   3.809 -0.2327 -0.1477  0.5301
   62U       N3 1577   8.097   4.837   3.982 -0.3743  0.0957  1.1877
   62U       H3 1578   8.007   4.794   3.997 -1.6825  2.7316  1.5371
   62U       C2 1579   8.191   4.805   4.080  0.0854  0.3387  0.5855
   62U       O2 1580   8.153   4.730   4.164  0.2372 -0.0136  0.3496
   62U      C3' 1581   8.651   4.824   4.228 -0.8372  0.3521 -0.0532
   62U      H3' 1582   8.740   4.875   4.193  0.6509 -0.6781  1.9946
   62U      C2' 1583   8.559   4.805   4.111 -0.5234 -0.9681  0.2941
   62U     H2'1 1584   8.581   4.877   4.031 -0.0148 -1.2335  0.1901
   62U      O2' 1585   8.582   4.678   4.059 -0.1138  0.4741  0.0821
   62U     HO'2 1586   8.622   4.627   4.129  0.8187 -2.2771 -2.2933
   62U      O3' 1587   8.689   4.704   4.284 -0.2205 -0.3183  0.2486
   63U        P 1588   8.838   4.696   4.348  0.1006  0.2676 -0.0695
   63U      O1P 1589   8.881   4.824   4.403 -0.2741 -0.4762  0.2355
   63U      O2P 1590   8.928   4.635   4.247  1.0044  0.8813 -0.0675
   63U      O5' 1591   8.816   4.581   4.457  0.0394  0.0422 -0.2197
   63U      C5' 1592   8.807   4.626   4.594 -0.0157 -0.0629  0.3012
   63U     H5'1 1593   8.785   4.733   4.594 -2.1528 -0.4419 -1.2003
   63U     H5'2 1594   8.902   4.608   4.645  1.5575  2.0569 -1.6245
   63U      C4' 1595   8.686   4.560   4.666  0.1677 -0.4410 -0.4072
   63U      H4' 1596   8.682   4.600   4.767  1.4734 -3.0643  0.7695
   63U      O4' 1597   8.565   4.597   4.602 -0.4982 -0.3364  0.0662
   63U      C1' 1598   8.471   4.500   4.605 -0.1517  0.1523 -0.3798
   63U      H1' 1599   8.391   4.528   4.673 -3.0962 -0.2246 -3.3968
   63U       N1 1600   8.410   4.480   4.478 -0.2203  0.2614 -0.4054
   63U       C6 1601   8.494   4.459   4.366  0.9141  0.4607 -0.5380
   63U       H6 1602   8.602   4.456   4.370  0.9752  0.6782 -1.5898
   63U       C5 1603   8.429   4.442   4.245 -0.1248  0.1773 -0.0698
   63U       H5 1604   8.495   4.429   4.160  0.8451  0.2705  0.6646
   63U       C4 1605   8.285   4.440   4.235  0.1299 -0.7069  0.2790
   63U       O4 1606   8.224   4.428   4.131  0.2883  0.0449 -0.5877
   63U       N3 1607   8.220   4.461   4.352  0.1344 -0.0740  0.2189
   63U       H3 1608   8.125   4.427   4.355  0.3728 -0.7645  2.5555
   63U       C2 1609   8.269   4.479   4.475 -1.0345 -0.5406  0.0279
   63U       O2 1610   8.197   4.486   4.571  0.0701  0.2451  0.8072
   63U      C3' 1611   8.691   4.408   4.669 -0.2543  0.4548 -0.5095
   63U      H3' 1612   8.733   4.360   4.580 -0.3049 -1.7592  0.6073
   63U      C2' 1613   8.539   4.376   4.658  0.7425  0.2894 -0.4172
   63U     H2'1 1614   8.518   4.288   4.598 -3.1587 -0.1294  1.2778
   63U      O2' 1615   8.477   4.344   4.787 -0.4364 -0.1155 -0.1551
   63U     HO'2 1616   8.546   4.346   4.854 -0.9527  2.1076  0.3907
   63U      O3' 1617   8.738   4.354   4.794  0.1412  0.1233  0.5563
   64A        P 1618   8.883   4.366   4.839 -0.4291  0.2048  0.5926
   64A      O1P 1619   8.961   4.360   4.712 -0.2972  0.0561 -0.3711
   64A      O2P 1620   8.916   4.270   4.943  0.6051 -0.0167  0.3352
   64A      O5' 1621   8.897   4.515   4.885 -0.1615 -0.7205  0.1894
   64A      C5' 1622   8.822   4.557   4.995 -0.4248  1.2685 -0.7369
   64A     H5'1 1623   8.855   4.507   5.086  0.5296 -1.0315 -2.2492
   64A     H5'2 1624   8.715   4.541   4.977 -0.0745 -1.0844 -0.9934
   64A      C4' 1625   8.842   4.712   4.996  0.0199  0.8931 -0.7133
   64A      H4' 1626   8.942   4.738   5.029 -0.5772  2.3075  0.0917
   64A      O4' 1627   8.805   4.769   4.872  0.0732  0.1367  0.0996
   64A      C1' 1628   8.738   4.892   4.896 -0.7239  0.2513 -0.5406
   64A      H1' 1629   8.795   4.977   4.858  2.1924 -1.7865 -1.0529
   64A       N9 1630   8.606   4.903   4.823  0.0742  0.2602 -0.9983
   64A       C8 1631   8.584   4.985   4.717  0.6021 -0.4107  0.9468
   64A       H8 1632   8.657   5.052   4.676 -0.1384 -0.0546  0.1874
   64A       N7 1633   8.465   4.984   4.672  0.6349  0.5814  0.1768
   64A       C5 1634   8.405   4.878   4.752  0.4355  0.1651 -0.1449
   64A       C6 1635   8.285   4.804   4.748 -1.0267  0.2127 -1.7374
   64A       N6 1636   8.195   4.815   4.657  0.1119  0.0633 -0.6800
   64A      H61 1637   8.216   4.880   4.582  4.3253 -0.7918 -0.4753
   64A      H62 1638   8.137   4.734   4.645  0.4026 -0.1172 -0.8747
   64A       N1 1639   8.261   4.701   4.831  0.2209 -0.4967  0.2262
   64A       C2 1640   8.356   4.673   4.918  0.8845  0.6389 -0.1126
   64A       H2 1641   8.339   4.591   4.987 -1.5225  1.3241  0.1812
   64A       N3 1642   8.471   4.732   4.936  0.5585  0.3641  0.3462
   64A       C4 1643   8.493   4.833   4.848 -0.1161 -0.1450  0.6026
   64A      C3' 1644   8.749   4.778   5.100  0.1556 -0.2984 -0.2764
   64A      H3' 1645   8.655   4.725   5.120 -0.4582  1.3646  1.5582
   64A      C2' 1646   8.723   4.920   5.043 -0.0410  0.2681  0.2296
   64A     H2'1 1647   8.625   4.966   5.053  0.3700  0.9380  1.4254
   64A      O2' 1648   8.821   5.019   5.077 -0.2829  1.1129 -0.2131
   64A     HO'2 1649   8.840   5.002   5.170 -0.0485  1.0127 -0.2805
   64A      O3' 1650   8.821   4.798   5.217  0.0241 -0.0936  0.2591
   65A        P 1651   8.763   4.750   5.352 -0.4355 -0.0067  0.0702
   65A      O1P 1652   8.870   4.768   5.450 -0.0885  0.0168  0.3259
   65A      O2P 1653   8.690   4.624   5.343  0.4818 -0.5403 -0.1727
   65A      O5' 1654   8.653   4.865   5.371  0.0643 -0.5386 -0.7209
   65A      C5' 1655   8.694   4.992   5.418  1.2134  0.5746 -0.0990
   65A     H5'1 1656   8.778   5.026   5.357  0.2801  0.3634 -1.5274
   65A     H5'2 1657   8.725   4.991   5.523 -0.7135 -2.0331  0.5325
   65A      C4' 1658   8.571   5.084   5.407 -0.0309 -0.2041 -0.2803
   65A      H4' 1659   8.599   5.182   5.445 -1.6925  0.0160  0.4680
   65A      O4' 1660   8.533   5.104   5.276  0.6815 -0.0130  0.1521
   65A      C1' 1661   8.393   5.092   5.274 -0.6501  0.0579  0.6033
   65A      H1' 1662   8.351   5.186   5.310 -0.1051  0.5390 -0.0018
   65A       N9 1663   8.338   5.073   5.134 -0.3017  0.7612 -0.1520
   65A       C8 1664   8.267   4.974   5.072 -0.4540 -0.4564 -0.0445
   65A       H8 1665   8.250   4.876   5.115  0.5086 -0.0686  1.3047
   65A       N7 1666   8.206   5.004   4.959 -0.2897  0.1579 -0.3953
   65A       C5 1667   8.244   5.138   4.940 -0.1555 -0.2694  0.6086
   65A       C6 1668   8.201   5.239   4.848 -0.3933  1.1139  0.7313
   65A       N6 1669   8.119   5.219   4.750  0.4364  0.8205  0.5209
   65A      H61 1670   8.062   5.135   4.749  0.3699  0.8701  0.2416
   65A      H62 1671   8.096   5.299   4.693 -0.2617 -1.4036 -2.5955
   65A       N1 1672   8.243   5.364   4.860 -0.2852  0.0186  0.1429
   65A       C2 1673   8.321   5.395   4.964  0.0233  1.1097  0.2236
   65A       H2 1674   8.357   5.496   4.969  2.3036  0.3322  0.7298
   65A       N3 1675   8.367   5.310   5.059  0.5047  0.4796  0.4338
   65A       C4 1676   8.323   5.180   5.046  0.2018  0.5275 -0.3992
   65A      C3' 1677   8.458   5.025   5.487 -0.6145 -0.0207  0.1397
   65A      H3' 1678   8.496   4.937   5.540  1.1890  0.3779 -0.4262
   65A      C2' 1679   8.368   4.980   5.372 -0.3818 -0.2851 -0.5511
   65A     H2'1 1680   8.407   4.882   5.343 -1.1537 -0.9433  0.5615
   65A      O2' 1681   8.232   4.967   5.404  0.3016 -0.7799 -0.5865
   65A     HO'2 1682   8.244   4.984   5.498  4.6305 -1.8574 -0.7232
   65A      O3' 1683   8.397   5.120   5.569  0.1126  0.3107  0.2737
   66A        P 1684   8.337   5.063   5.701  0.1819  0.2308 -0.3785
   66A      O1P 1685   8.450   5.026   5.782  0.4517  0.1833 -0.5600
   66A      O2P 1686   8.235   4.955   5.664 -0.4154 -0.1915  0.1551
   66A      O5' 1687   8.256   5.188   5.760 -0.3963 -0.1769 -0.1654
   66A      C5' 1688   8.140   5.249   5.700 -0.2037 -0.1267  0.4867
   66A     H5'1 1689   8.104   5.318   5.776  0.7361  0.7295  0.1821
   66A     H5'2 1690   8.066   5.181   5.658 -0.9764  1.7574 -1.3444
   66A      C4' 1691   8.191   5.343   5.585 -0.8420  0.3317 -0.5046
   66A      H4' 1692   8.288   5.390   5.604 -1.2510  1.0930 -0.2449
   66A      O4' 1693   8.191   5.280   5.461 -0.1904 -0.4693 -0.4860
   66A      C1' 1694   8.179   5.385   5.360 -0.0114  1.0821 -0.1447
   66A      H1' 1695   8.276   5.393   5.309 -0.4890 -3.4235 -2.2590
   66A       N9 1696   8.077   5.334   5.264 -0.1372 -0.2256  0.2932
   66A       C8 1697   8.016   5.206   5.264  0.1077  0.4530  0.1423
   66A       H8 1698   8.045   5.131   5.336 -0.6107  0.2838  0.2668
   66A       N7 1699   7.920   5.198   5.176  0.6009  0.4258  0.1547
   66A       C5 1700   7.926   5.315   5.099 -0.6591  0.1165 -0.0637
   66A       C6 1701   7.859   5.370   4.984  0.6253  0.9961  0.4552
   66A       N6 1702   7.768   5.299   4.915 -0.0031 -0.1311  0.3329
   66A      H61 1703   7.743   5.203   4.938  2.6545 -0.8832  0.4049
   66A      H62 1704   7.728   5.344   4.834  0.0454 -0.9881 -0.1859
   66A       N1 1705   7.907   5.478   4.928 -0.3445  0.5306 -0.1790
   66A       C2 1706   7.987   5.555   4.999  0.0658 -0.1293  0.4479
   66A       H2 1707   8.014   5.647   4.949 -2.9520  0.9674  0.6716
   66A       N3 1708   8.053   5.520   5.111 -0.4817 -1.1465  0.0048
   66A       C4 1709   8.021   5.397   5.159  0.6407 -0.1939  0.8161
   66A      C3' 1710   8.091   5.453   5.568  0.3759  0.5354  0.3354
   66A      H3' 1711   7.995   5.407   5.544  1.0265 -0.2584 -0.8676
   66A      C2' 1712   8.142   5.509   5.438 -0.4851 -0.0007 -0.0876
   66A     H2'1 1713   8.060   5.564   5.392  0.2463  0.3691 -0.9973
   66A      O2' 1714   8.266   5.582   5.446  0.0541 -0.1918 -0.1354
   66A     HO'2 1715   8.280   5.631   5.365  2.7449 -2.1128 -0.9580
   66A      O3' 1716   8.072   5.551   5.669 -0.3818  0.4858 -0.0208
   67C        P 1717   7.938   5.635   5.680 -0.4773 -0.6213  0.1846
   67C      O1P 1718   7.940   5.710   5.810  0.1712 -0.0267  0.4744
   67C      O2P 1719   7.818   5.557   5.645  0.0117 -0.3360 -0.4363
   67C      O5' 1720   7.940   5.735   5.546 -0.5360  0.3316  0.7063
   67C      C5' 1721   8.026   5.847   5.539  0.2177  0.5013  0.1402
   67C     H5'1 1722   8.125   5.803   5.542 -0.1587 -0.6103 -1.9394
   67C     H5'2 1723   8.019   5.909   5.628 -0.1895  0.5499  0.0788
   67C      C4' 1724   8.014   5.932   5.412 -0.0069 -1.0255  0.3979
   67C      H4' 1725   8.091   6.006   5.388 -0.7927 -0.4768 -0.4643
   67C      O4' 1726   8.007   5.849   5.299  0.0922 -0.4584  0.0439
   67C      C1' 1727   7.924   5.912   5.205  0.4380  0.5141 -0.4585
   67C      H1' 1728   7.980   5.942   5.117  1.8461  0.3892  0.3589
   67C       N1 1729   7.815   5.820   5.159  0.2656  0.2184  0.6827
   67C       C6 1730   7.789   5.698   5.225 -0.1339  0.5604 -0.2658
   67C       H6 1731   7.857   5.678   5.306  1.7759  0.2177 -1.8791
   67C       C5 1732   7.680   5.619   5.198  0.5720 -0.2900 -0.8471
   67C       H5 1733   7.654   5.528   5.250  0.7578  0.9081  1.4757
   67C       C4 1734   7.601   5.668   5.088  0.3291 -0.0900 -0.0143
   67C       N4 1735   7.495   5.615   5.051 -0.0699 -0.0013  0.2319
   67C      H41 1736   7.472   5.529   5.099 -2.4252  0.6801  0.4996
   67C      H42 1737   7.473   5.625   4.953  0.8761 -0.2100 -0.0115
   67C       N3 1738   7.636   5.769   5.013  0.7536 -0.4830  0.1343
   67C       C2 1739   7.740   5.850   5.044  0.3102 -0.1714 -0.1793
   67C       O2 1740   7.773   5.938   4.970 -0.2015  0.8337  0.3466
   67C      C3' 1741   7.876   6.011   5.421  0.0681  0.2269  0.7455
   67C      H3' 1742   7.796   5.951   5.465 -0.1426  0.6538  0.9431
   67C      C2' 1743   7.855   6.034   5.274  0.9262 -0.5197  0.0149
   67C     H2'1 1744   7.749   6.038   5.247  0.6912  1.0786  0.9921
   67C      O2' 1745   7.918   6.150   5.221 -0.9174 -0.1131 -0.1666
   67C     HO'2 1746   7.904   6.233   5.268 -1.2294 -0.2671  0.0126
   67C      O3' 1747   7.874   6.127   5.502 -0.4987  0.7506 -0.0498
   68U        P 1748   7.758   6.225   5.520  0.4025  0.0460  0.2269
   68U      O1P 1749   7.757   6.282   5.655 -0.1429 -0.5265 -0.4361
   68U      O2P 1750   7.635   6.161   5.471  0.9060 -0.7444 -0.6339
   68U      O5' 1751   7.795   6.333   5.406  0.4124  0.7973 -0.2953
   68U      C5' 1752   7.911   6.405   5.420 -0.9219 -0.1390  0.5826
   68U     H5'1 1753   7.998   6.342   5.404 -1.7841 -0.6436 -2.8382
   68U     H5'2 1754   7.919   6.461   5.513 -0.0509  0.0664  0.3926
   68U      C4' 1755   7.915   6.508   5.301  0.4362  0.2447 -0.0780
   68U      H4' 1756   8.014   6.546   5.278  1.2717 -1.7482  0.0570
   68U      O4' 1757   7.869   6.443   5.178  0.3798  0.5993  0.8105
   68U      C1' 1758   7.747   6.496   5.131 -0.4302 -0.2056  0.0820
   68U      H1' 1759   7.766   6.585   5.070  0.8728 -0.7197 -0.2960
   68U       N1 1760   7.659   6.395   5.069 -0.0408  0.0972 -0.2570
   68U       C6 1761   7.619   6.281   5.135 -0.1635 -0.6186  0.5411
   68U       H6 1762   7.635   6.258   5.240  0.4767  0.4856  0.6964
   68U       C5 1763   7.548   6.184   5.071 -1.1052 -0.5250 -0.2375
   68U       H5 1764   7.520   6.090   5.116  1.2613 -1.7655 -1.1674
   68U       C4 1765   7.516   6.203   4.932 -0.8755  0.1091 -0.6395
   68U       O4 1766   7.457   6.113   4.867 -0.0060 -0.3047  0.0942
   68U       N3 1767   7.560   6.324   4.870  0.0885 -0.1278  0.1218
   68U       H3 1768   7.536   6.341   4.773  2.5174 -1.5697 -0.8382
   68U       C2 1769   7.634   6.415   4.940 -0.5239 -0.6595  0.6978
   68U       O2 1770   7.678   6.516   4.878  0.2282  0.8323 -0.8660
   68U      C3' 1771   7.807   6.623   5.322 -0.2459 -0.5591  0.4872
   68U      H3' 1772   7.772   6.644   5.423 -1.0915 -0.8754  0.2626
   68U      C2' 1773   7.683   6.559   5.249  0.0278 -0.1617 -0.9307
   68U     H2'1 1774   7.638   6.483   5.314 -0.5427 -0.6001 -1.8241
   68U      O2' 1775   7.580   6.650   5.225 -0.0802  0.4960 -0.2517
   68U     HO'2 1776   7.592   6.734   5.269 -0.3122  1.9609 -2.8107
   68U      O3' 1777   7.860   6.740   5.262  0.4828 -0.2035  0.3189
   69C        P 1778   7.783   6.879   5.253 -0.2708  0.4210  0.1610
   69C      O1P 1779   7.887   6.991   5.278 -0.1526  0.5460 -0.6374
   69C      O2P 1780   7.660   6.866   5.339 -0.2662  0.3217  0.5769
   69C      O5' 1781   7.725   6.895   5.108 -0.8247  0.1905  0.4967
   69C      C5' 1782   7.812   6.942   5.007  0.2640  0.7388 -0.1489
   69C     H5'1 1783   7.873   6.854   4.989 -1.9081 -0.6005 -1.5670
   69C     H5'2 1784   7.866   7.031   5.040 -1.4127  0.8557  2.5739
   69C      C4' 1785   7.744   6.957   4.871 -0.4919  0.5727  0.3873
   69C      H4' 1786   7.815   7.003   4.802  0.8096 -1.2460  0.4354
   69C      O4' 1787   7.708   6.832   4.818  0.1271 -0.7138 -0.1748
   69C      C1' 1788   7.582   6.828   4.745  0.5568 -0.0732  0.1322
   69C      H1' 1789   7.607   6.802   4.642 -1.8726  0.2497 -0.6032
   69C       N1 1790   7.466   6.757   4.795 -0.3203  0.1023  0.8695
   69C       C6 1791   7.464   6.718   4.924  0.2532 -0.0191  0.9075
   69C       H6 1792   7.538   6.761   4.991 -1.4608  0.4661  2.5855
   69C       C5 1793   7.379   6.621   4.951 -0.6793  0.5268 -0.8045
   69C       H5 1794   7.387   6.575   5.049 -0.5705  0.5156 -0.8181
   69C       C4 1795   7.281   6.572   4.855 -0.5672 -0.7067  0.0617
   69C       N4 1796   7.209   6.469   4.882 -1.3413  0.0918 -0.4627
   69C      H41 1797   7.227   6.418   4.967  2.5902 -0.4137 -1.3647
   69C      H42 1798   7.164   6.415   4.810  1.0235 -1.4083 -0.9483
   69C       N3 1799   7.277   6.627   4.740 -0.0032  0.1015  0.6641
   69C       C2 1800   7.373   6.715   4.707  0.5754  0.1416 -0.5414
   69C       O2 1801   7.369   6.750   4.590  0.8614 -0.9015 -0.0573
   69C      C3' 1802   7.608   7.028   4.863  0.0358  0.3010  0.1059
   69C      H3' 1803   7.546   6.997   4.948  1.9344  0.5724  1.6577
   69C      C2' 1804   7.540   6.975   4.744  0.6696 -0.8176  0.9455
   69C     H2'1 1805   7.432   6.976   4.755  0.3913 -2.4715 -1.0135
   69C      O2' 1806   7.582   7.046   4.621  0.1018 -0.1963  0.3072
   69C     HO'2 1807   7.593   7.140   4.639  1.3397 -0.3913  0.6957
   69C      O3' 1808   7.605   7.170   4.868  0.1268 -0.2318  0.3155
   70U        P 1809   7.483   7.241   4.929 -0.0961  0.4167  0.3300
   70U      O1P 1810   7.512   7.386   4.935  0.0137  0.1168  0.3279
   70U      O2P 1811   7.433   7.185   5.058  0.6865 -0.3560  0.4702
   70U      O5' 1812   7.367   7.214   4.827 -0.5480  0.6965 -0.0805
   70U      C5' 1813   7.357   7.298   4.715  0.1823 -0.2232 -0.2878
   70U     H5'1 1814   7.454   7.333   4.678 -0.8835  1.4625 -1.6410
   70U     H5'2 1815   7.309   7.387   4.756  2.4595 -0.0120  2.2346
   70U      C4' 1816   7.260   7.242   4.606  0.2908 -0.0490  0.1224
   70U      H4' 1817   7.290   7.281   4.509 -1.2001 -1.6698 -1.0551
   70U      O4' 1818   7.265   7.101   4.593  0.4799  0.6465 -0.0800
   70U      C1' 1819   7.132   7.052   4.565  0.6876  0.0792 -0.7022
   70U      H1' 1820   7.137   7.002   4.469  1.5442 -0.1742 -0.5312
   70U       N1 1821   7.075   6.966   4.673  0.9308  0.2680 -0.6460
   70U       C6 1822   7.127   6.964   4.793  0.3068 -0.3349 -0.9547
   70U       H6 1823   7.201   7.039   4.817  0.0926 -0.4324  0.0506
   70U       C5 1824   7.098   6.858   4.874  0.6785 -0.8315 -0.3696
   70U       H5 1825   7.154   6.851   4.966  2.9877  2.8266 -1.2845
   70U       C4 1826   6.994   6.764   4.845 -0.1138  0.2442  1.1632
   70U       O4 1827   6.951   6.669   4.917 -0.6900  0.0819 -0.1828
   70U       N3 1828   6.938   6.782   4.725  0.5820  0.3782 -0.2817
   70U       H3 1829   6.877   6.711   4.690 -2.2743  0.6750  3.5245
   70U       C2 1830   6.969   6.883   4.635  0.3907  0.4487  0.9198
   70U       O2 1831   6.908   6.888   4.525  0.1770 -0.1500  0.6236
   70U      C3' 1832   7.121   7.279   4.642 -0.1283  0.4566  0.8344
   70U      H3' 1833   7.107   7.265   4.749 -2.4856  2.0712  0.8020
   70U      C2' 1834   7.046   7.176   4.559 -0.0906  0.0272  0.1006
   70U     H2'1 1835   6.947   7.157   4.600 -1.0022  1.2318 -1.4389
   70U      O2' 1836   7.043   7.217   4.418  0.1099  0.0537  0.2098
   70U     HO'2 1837   7.011   7.307   4.413 -1.6628 -0.4746  0.9416
   70U      O3' 1838   7.096   7.415   4.598 -0.2176  0.0773  0.3598
   71U        P 1839   6.973   7.505   4.644  0.2789  0.3042  0.4283
   71U      O1P 1840   6.959   7.616   4.548  0.0735 -0.2707  0.2560
   71U      O2P 1841   6.999   7.530   4.788  0.6803  0.1165 -0.0012
   71U      O5' 1842   6.845   7.405   4.630 -0.4313 -0.3335  0.0435
   71U      C5' 1843   6.755   7.417   4.522 -0.4878  0.2822  1.0260
   71U     H5'1 1844   6.812   7.410   4.429 -1.2170  1.0105  0.4997
   71U     H5'2 1845   6.713   7.517   4.535 -0.0184  0.3107  2.4516
   71U      C4' 1846   6.651   7.309   4.506 -0.0854  0.3817 -0.2688
   71U      H4' 1847   6.602   7.309   4.408 -2.2668 -0.0197  0.7394
   71U      O4' 1848   6.704   7.179   4.534  0.0254 -0.0608 -0.0629
   71U      C1' 1849   6.607   7.113   4.609  0.2610  0.3330  0.7325
   71U      H1' 1850   6.566   7.032   4.550  1.8791 -0.0250  0.0537
   71U       N1 1851   6.657   7.064   4.739  0.6198  0.6045 -0.2588
   71U       C6 1852   6.734   7.140   4.820 -0.1100 -0.1649 -0.1164
   71U       H6 1853   6.768   7.236   4.784 -0.4559  0.3946  0.9906
   71U       C5 1854   6.768   7.090   4.941 -0.5435  0.5878 -0.5869
   71U       H5 1855   6.839   7.142   5.003  0.5909 -1.8920  0.3463
   71U       C4 1856   6.712   6.957   4.979 -0.0277  0.0925 -0.8579
   71U       O4 1857   6.759   6.899   5.075 -0.8076  0.4160  0.2630
   71U       N3 1858   6.634   6.894   4.891  0.6138 -0.5240 -0.4602
   71U       H3 1859   6.613   6.798   4.916 -0.8604 -0.3379 -0.8904
   71U       C2 1860   6.593   6.942   4.777 -0.5754  0.1131 -0.0935
   71U       O2 1861   6.522   6.863   4.711  0.5761  0.1971  0.5232
   71U      C3' 1862   6.547   7.334   4.616 -0.9505  0.7957  0.0586
   71U      H3' 1863   6.612   7.363   4.698 -2.1906 -1.4522  1.9349
   71U      C2' 1864   6.485   7.202   4.636 -0.3526 -0.0016 -0.5479
   71U     H2'1 1865   6.458   7.199   4.742  1.5026 -1.3999 -0.0553
   71U      O2' 1866   6.369   7.180   4.558  0.1442 -0.5471 -0.3410
   71U     HO'2 1867   6.298   7.219   4.610 -0.6628 -1.4526 -0.7326
   71U      O3' 1868   6.452   7.432   4.581  0.2492  0.2959 -0.1527
   72G        P 1869   6.380   7.505   4.698 -0.1547  0.4232  0.2713
   72G      O1P 1870   6.321   7.637   4.649  0.8925 -0.1595 -0.2208
   72G      O2P 1871   6.467   7.516   4.812  0.9366 -0.3572 -0.0634
   72G      O5' 1872   6.260   7.407   4.739 -0.2547 -0.2050 -0.2904
   72G      C5' 1873   6.144   7.388   4.655 -0.3778 -0.8911  0.8335
   72G     H5'1 1874   6.182   7.374   4.554 -1.2571  0.8793  0.2236
   72G     H5'2 1875   6.089   7.482   4.654 -0.6641 -1.0593  0.2701
   72G      C4' 1876   6.058   7.274   4.704 -0.2026 -0.1810  0.4932
   72G      H4' 1877   5.978   7.261   4.631 -0.1782 -0.4626  0.5152
   72G      O4' 1878   6.136   7.155   4.713  0.7653  0.3955 -0.5839
   72G      C1' 1879   6.092   7.084   4.828 -0.1974  1.0150 -0.2424
   72G      H1' 1880   6.062   6.986   4.791 -1.8629  2.0735 -1.8863
   72G       N9 1881   6.201   7.074   4.930 -0.2384  1.0820 -0.0521
   72G       C8 1882   6.296   7.169   4.966  0.7811 -0.7678  0.3886
   72G       H8 1883   6.287   7.267   4.922  1.1229 -0.6836  0.5007
   72G       N7 1884   6.372   7.142   5.060 -0.0187  0.0478 -1.3280
   72G       C5 1885   6.344   7.005   5.086 -0.1187  0.4261  0.4295
   72G       C6 1886   6.402   6.912   5.182  0.6843  0.5872  0.0380
   72G       O6 1887   6.491   6.921   5.269 -0.1380 -0.3863  0.0198
   72G       N1 1888   6.340   6.787   5.166 -0.1694 -0.0487  0.3662
   72G       H1 1889   6.377   6.712   5.223  0.8876  0.7845  0.8024
   72G       C2 1890   6.250   6.755   5.077 -1.0745 -0.4834  0.3420
   72G       N2 1891   6.211   6.631   5.078 -0.1003  0.5266  0.2055
   72G      H21 1892   6.261   6.564   5.135 -2.5764  0.0537  2.0005
   72G      H22 1893   6.141   6.595   5.014  2.4936 -1.6280 -1.6379
   72G       N3 1894   6.191   6.838   5.001 -0.0026 -0.2679  0.0043
   72G       C4 1895   6.240   6.963   5.008  0.0997 -0.7952 -0.7406
   72G      C3' 1896   5.995   7.305   4.838 -0.3248  0.7041  0.1193
   72G      H3' 1897   6.071   7.344   4.906 -0.8439 -1.9730  2.3916
   72G      C2' 1898   5.967   7.158   4.874  0.7659  0.2621  0.2186
   72G     H2'1 1899   5.959   7.155   4.983 -2.3727  1.5928  0.1582
   72G      O2' 1900   5.854   7.092   4.818  0.0385  0.0890  0.0540
   72G     HO'2 1901   5.793   7.082   4.891  0.0543 -0.7512 -0.0367
   72G      O3' 1902   5.891   7.390   4.818  0.3381 -0.5030  0.4488
   73A        P 1903   5.804   7.461   4.940  0.1873  0.2856 -0.3128
   73A      O1P 1904   5.717   7.565   4.879 -0.1556  0.0944  0.6449
   73A      O2P 1905   5.888   7.511   5.051 -0.0853 -0.0866  0.0534
   73A      O5' 1906   5.717   7.346   5.008  0.2952  0.2982 -0.5903
   73A      C5' 1907   5.612   7.291   4.938  0.0908  0.3264  0.0939
   73A     H5'1 1908   5.659   7.239   4.855  1.1825  0.5549  0.5374
   73A     H5'2 1909   5.546   7.370   4.903 -0.6280  0.4009  1.5333
   73A      C4' 1910   5.538   7.185   5.022  0.1243 -0.0680  0.0847
   73A      H4' 1911   5.457   7.149   4.959 -0.8371  2.4854 -0.2756
   73A      O4' 1912   5.622   7.080   5.049  0.3563 -0.6072  0.0195
   73A      C1' 1913   5.585   7.032   5.173 -0.0813  0.1085 -0.6055
   73A      H1' 1914   5.574   6.923   5.174 -0.5140  0.1436 -1.0249
   73A       N9 1915   5.688   7.065   5.271  0.1011  0.4803  0.0888
   73A       C8 1916   5.755   7.186   5.286  0.5475 -0.3157  0.6246
   73A       H8 1917   5.760   7.268   5.215  1.4292 -0.3729  0.6029
   73A       N7 1918   5.821   7.200   5.397  0.3477  0.4513 -0.7625
   73A       C5 1919   5.790   7.078   5.466  0.0166 -0.0296 -0.0901
   73A       C6 1920   5.821   7.016   5.589 -0.2474 -0.6023  0.6549
   73A       N6 1921   5.897   7.063   5.681 -0.2770 -1.0486  0.4684
   73A      H61 1922   5.970   7.131   5.663  0.2049 -1.1999  1.7539
   73A      H62 1923   5.890   7.006   5.764 -1.6583 -3.0684 -0.9406
   73A       N1 1924   5.777   6.899   5.629  0.6869  0.8898  0.2944
   73A       C2 1925   5.697   6.839   5.544  0.2180 -0.1573 -0.3798
   73A       H2 1926   5.663   6.744   5.581 -1.1201  1.0247  1.6094
   73A       N3 1927   5.658   6.879   5.423 -0.1621 -0.5102 -0.0072
   73A       C4 1928   5.709   6.999   5.385  0.1766 -0.2162  0.0992
   73A      C3' 1929   5.473   7.235   5.156  0.4908  0.3404 -0.1636
   73A      H3' 1930   5.537   7.310   5.204 -0.0088 -0.6765  2.2124
   73A      C2' 1931   5.458   7.096   5.217  0.3667 -0.7697  0.7275
   73A     H2'1 1932   5.449   7.101   5.325 -0.4384  1.6220  0.6096
   73A      O2' 1933   5.347   7.029   5.162  0.7463 -0.5669 -0.0022
   73A     HO'2 1934   5.282   7.090   5.125  1.1371  0.4787  0.9861
   73A      O3' 1935   5.345   7.292   5.126 -1.1314 -0.6544 -0.1726
   74U        P 1936   5.296   7.429   5.197 -0.1894 -0.1995  0.0215
   74U      O1P 1937   5.150   7.450   5.160 -0.4910  0.1204  0.3240
   74U      O2P 1938   5.400   7.532   5.174  0.0606 -0.2876  0.3781
   74U      O5' 1939   5.297   7.416   5.358 -0.0265  0.4320  0.1802
   74U      C5' 1940   5.204   7.332   5.429  0.8930 -0.4044  0.0341
   74U     H5'1 1941   5.201   7.239   5.372 -2.5626 -2.3422  2.9306
   74U     H5'2 1942   5.105   7.376   5.438  0.8836 -0.7388  2.3946
   74U      C4' 1943   5.251   7.283   5.569 -0.5334 -0.4514  0.0236
   74U      H4' 1944   5.180   7.213   5.614 -0.9095 -0.1135 -0.0413
   74U      O4' 1945   5.384   7.231   5.565 -0.4657  0.5806 -0.4218
   74U      C1' 1946   5.465   7.255   5.680 -0.6414  0.5172 -0.8310
   74U      H1' 1947   5.472   7.169   5.746  0.7986 -0.7268 -2.5046
   74U       N1 1948   5.584   7.335   5.641  0.1760 -0.9088  0.6805
   74U       C6 1949   5.588   7.418   5.536  0.6703  0.0111  0.7359
   74U       H6 1950   5.506   7.417   5.465  1.4671  1.1789 -0.2508
   74U       C5 1951   5.712   7.482   5.504  0.4121  0.5064 -0.9967
   74U       H5 1952   5.716   7.521   5.403 -3.0026  0.4662 -1.2658
   74U       C4 1953   5.830   7.458   5.589 -0.2011 -0.6642  0.6762
   74U       O4 1954   5.944   7.500   5.570  0.1068  0.3685 -0.5158
   74U       N3 1955   5.805   7.383   5.694 -0.5861 -0.1045 -0.6462
   74U       H3 1956   5.884   7.366   5.755  0.5739  2.9641 -1.1022
   74U       C2 1957   5.693   7.314   5.725 -0.4844 -0.2436  0.1424
   74U       O2 1958   5.691   7.240   5.821 -1.5456 -0.3267  0.1925
   74U      C3' 1959   5.272   7.404   5.661  0.6508  0.0850  0.0105
   74U      H3' 1960   5.311   7.484   5.599  1.8423  0.2580  0.9523
   74U      C2' 1961   5.372   7.346   5.761 -0.5151 -0.2478 -0.2624
   74U     H2'1 1962   5.427   7.428   5.807 -0.6615 -0.6070  0.5857
   74U      O2' 1963   5.312   7.273   5.867 -0.7438  0.9110 -0.8026
   74U     HO'2 1964   5.368   7.231   5.933 -1.4207  1.1571 -0.0373
   74U      O3' 1965   5.159   7.458   5.718  0.5618 -0.5348 -0.0620
   75U        P 1966   5.147   7.592   5.794 -0.2844  0.4516  0.2543
   75U      O1P 1967   5.010   7.599   5.842 -0.0381  0.1574 -1.3070
   75U      O2P 1968   5.190   7.695   5.693  0.3982  0.2116  0.5234
   75U      O5' 1969   5.252   7.610   5.923  0.2363 -0.7041  0.2069
   75U      C5' 1970   5.232   7.536   6.045  0.2382 -0.3178  0.1861
   75U     H5'1 1971   5.265   7.433   6.029 -2.5816 -1.0413 -1.8255
   75U     H5'2 1972   5.125   7.531   6.067 -0.1766 -1.4947 -1.8316
   75U      C4' 1973   5.306   7.586   6.170 -0.7119 -0.6098  0.3982
   75U      H4' 1974   5.264   7.531   6.254 -0.5525 -2.0497 -0.4454
   75U      O4' 1975   5.442   7.555   6.157  0.4666 -0.6742  0.2419
   75U      C1' 1976   5.516   7.679   6.158  0.3363  0.5666  0.1021
   75U      H1' 1977   5.547   7.703   6.259  2.4598 -1.7908  0.1076
   75U       N1 1978   5.639   7.670   6.083 -0.5435 -0.7118  1.0262
   75U       C6 1979   5.636   7.668   5.943 -0.2674  0.3196  0.0274
   75U       H6 1980   5.542   7.687   5.892  0.3611 -0.0208 -1.3040
   75U       C5 1981   5.747   7.643   5.868 -0.2266  0.1406  0.0334
   75U       H5 1982   5.747   7.649   5.761 -0.1645  0.9250  0.0698
   75U       C4 1983   5.873   7.617   5.932  0.0825 -0.1667  0.8351
   75U       O4 1984   5.981   7.599   5.877 -0.9468  0.0262  0.3502
   75U       N3 1985   5.869   7.626   6.065 -0.5520  0.1400  0.0195
   75U       H3 1986   5.959   7.605   6.106  0.1817  0.0601 -1.5477
   75U       C2 1987   5.757   7.625   6.144  0.3122 -0.5289  1.2775
   75U       O2 1988   5.768   7.587   6.259  0.8030  0.2404 -0.2524
   75U      C3' 1989   5.292   7.731   6.198 -0.6877 -0.6353 -0.0107
   75U      H3' 1990   5.204   7.767   6.145  0.0606  1.6144  0.1911
   75U      C2' 1991   5.411   7.788   6.121 -0.3419  0.0229 -0.6469
   75U     H2'1 1992   5.392   7.780   6.013  0.3470 -3.6250 -0.6178
   75U      O2' 1993   5.441   7.925   6.155 -0.2480  0.7141  0.0779
   75U     HO'2 1994   5.457   7.939   6.248  1.3654  2.9936 -0.4752
   75U      O3' 1995   5.300   7.781   6.333 -0.0446 -0.7702 -0.6039
   76A        P 1996   5.176   7.842   6.414  0.0543 -0.2728 -0.1580
   76A      O1P 1997   5.050   7.793   6.352  0.9865  0.3403  0.1796
   76A      O2P 1998   5.208   7.991   6.418  0.2425 -0.8380  0.1716
   76A      O5' 1999   5.166   7.800   6.567 -0.3023 -0.2814 -0.4973
   76A      C5' 2000   5.134   7.675   6.627  0.7065 -0.0253  0.1105
   76A     H5'1 2001   5.191   7.597   6.576 -0.1126 -0.1254 -0.6910
   76A     H5'2 2002   5.028   7.651   6.621  0.6832  0.1961 -0.4764
   76A      C4' 2003   5.163   7.680   6.781 -0.2984 -0.1186  0.3354
   76A      H4' 2004   5.137   7.585   6.829  0.6502 -1.6137 -1.9200
   76A      O4' 2005   5.304   7.706   6.788  0.4906  0.0367 -0.7255
   76A      C1' 2006   5.318   7.788   6.903  0.3841  1.1092 -0.0206
   76A      H1' 2007   5.380   7.757   6.988  1.0083  0.0440 -0.8295
   76A       N9 2008   5.367   7.917   6.858  0.2868 -0.1258 -0.1582
   76A       C8 2009   5.410   7.954   6.735  0.9043 -0.6254  0.8419
   76A       H8 2010   5.403   7.883   6.654 -1.7422  0.5090 -0.0418
   76A       N7 2011   5.442   8.081   6.720 -0.1517 -0.0634 -0.2741
   76A       C5 2012   5.441   8.123   6.855 -0.2015  0.7860  0.7238
   76A       C6 2013   5.484   8.240   6.919 -0.1300  0.0157 -0.8218
   76A       N6 2014   5.531   8.347   6.852 -0.9102 -0.0914  0.9408
   76A      H61 2015   5.533   8.350   6.751 -0.3677  0.6064  0.9587
   76A      H62 2016   5.566   8.422   6.911 -0.0824 -0.7706  1.3436
   76A       N1 2017   5.502   8.248   7.050  0.3945  0.4148 -0.3866
   76A       C2 2018   5.471   8.133   7.120  0.5004  0.2188  0.9245
   76A       H2 2019   5.481   8.138   7.228  1.0056 -0.6475  0.9208
   76A       N3 2020   5.414   8.019   7.078  0.1923 -0.4281 -0.1226
   76A       C4 2021   5.402   8.023   6.941  0.2124  0.1772 -0.3827
   76A      C3' 2022   5.088   7.788   6.853 -0.2090  0.4212 -0.5923
   76A      H3' 2023   5.100   7.871   6.784 -0.5965 -1.1411 -2.6592
   76A      C2' 2024   5.174   7.795   6.970 -0.8525  0.5434 -0.1294
   76A     H2'1 2025   5.158   7.887   7.026  2.0644  1.8724 -1.2905
   76A      O2' 2026   5.162   7.678   7.056 -0.3559 -0.8043 -0.4456
   76A     HO'2 2027   5.183   7.703   7.146 -1.1693 -1.0155 -0.1850
   76A      O3' 2028   4.945   7.772   6.882 -0.4091 -0.4282 -0.1461
   77U        P 2029   4.863   7.907   6.900 -0.1064  0.0431  0.1479
   77U      O1P 2030   4.733   7.870   6.955  0.4640  0.2853  1.1993
   77U      O2P 2031   4.876   7.996   6.783  0.5826 -0.0483  0.1210
   77U      O5' 2032   4.942   7.980   7.022  0.2700  0.0695 -0.5300
   77U      C5' 2033   4.919   7.929   7.155  0.2922  0.4082 -0.2828
   77U     H5'1 2034   4.946   7.824   7.167  3.1464  1.0215 -0.5668
   77U     H5'2 2035   4.813   7.934   7.179  0.5229  1.5761  0.5530
   77U      C4' 2036   4.991   8.018   7.263 -0.8054 -0.8353  0.0690
   77U      H4' 2037   4.986   7.964   7.358 -1.3291 -0.6059  0.1779
   77U      O4' 2038   5.130   8.038   7.240 -0.2686 -0.0963 -0.3615
   77U      C1' 2039   5.166   8.162   7.293 -0.4405  0.2576  0.2399
   77U      H1' 2040   5.255   8.138   7.352  0.4471 -0.0663 -1.1998
   77U       N1 2041   5.201   8.259   7.186  0.3709  0.2705  0.4405
   77U       C6 2042   5.153   8.250   7.058 -0.6147  0.1291  0.5827
   77U       H6 2043   5.104   8.158   7.028  0.9628 -0.5616  0.0391
   77U       C5 2044   5.176   8.348   6.965  0.7834 -0.0066 -1.4619
   77U       H5 2045   5.137   8.340   6.865 -2.2384  0.2043 -0.4273
   77U       C4 2046   5.244   8.470   7.005  0.5039  0.4485  0.3210
   77U       O4 2047   5.278   8.561   6.933 -0.2127  0.1289 -0.0215
   77U       N3 2048   5.297   8.466   7.135  0.4606 -0.2735  0.2690
   77U       H3 2049   5.360   8.540   7.164 -1.1526  1.1256  0.3605
   77U       C2 2050   5.264   8.375   7.233  0.0227 -0.5137  0.0524
   77U       O2 2051   5.307   8.389   7.345  0.2090 -0.0398 -0.8471
   77U      C3' 2052   4.934   8.164   7.285 -0.9136 -0.4393 -0.8236
   77U      H3' 2053   4.926   8.227   7.196 -0.5199  0.8494  0.0168
   77U      C2' 2054   5.052   8.208   7.373  0.5848 -0.5185 -0.4621
   77U     H2'1 2055   5.053   8.315   7.392 -3.4941 -0.7834  2.9302
   77U      O2' 2056   5.053   8.146   7.500  0.1999  0.1230 -0.3815
   77U     HO'2 2057   5.001   8.199   7.562 -2.2966 -0.3824 -1.8876
   77U      O3' 2058   4.821   8.161   7.365  0.1693  0.0818  0.2945
   78G        P 2059   4.732   8.291   7.394  0.0052 -0.1802  0.0962
   78G      O1P 2060   4.626   8.247   7.491  0.2226 -0.0513 -0.2562
   78G      O2P 2061   4.692   8.347   7.263 -0.4128 -0.1965  0.7918
   78G      O5' 2062   4.832   8.387   7.475  0.6434 -0.2440 -0.0269
   78G      C5' 2063   4.829   8.412   7.616  0.6041  0.1219  0.8760
   78G     H5'1 2064   4.834   8.313   7.662  0.2261  0.6573  2.1298
   78G     H5'2 2065   4.737   8.459   7.650 -0.9184 -2.6471  0.9055
   78G      C4' 2066   4.948   8.483   7.665 -1.2969  0.3339  0.1674
   78G      H4' 2067   4.981   8.453   7.765  0.3262 -1.7916 -0.9007
   78G      O4' 2068   5.067   8.460   7.580  0.2165 -1.1726  0.1639
   78G      C1' 2069   5.127   8.594   7.555 -0.1422 -0.0616 -0.3862
   78G      H1' 2070   5.234   8.582   7.571 -0.1260  1.5075  0.9563
   78G       N9 2071   5.113   8.652   7.420  0.1171  0.0603 -0.7127
   78G       C8 2072   5.044   8.602   7.318  0.5509 -0.3015 -0.1591
   78G       H8 2073   4.971   8.523   7.330 -0.9799  1.2033  1.0310
   78G       N7 2074   5.067   8.659   7.202  0.6372 -0.0392 -0.2909
   78G       C5 2075   5.152   8.764   7.232  1.2847 -0.5377  0.2375
   78G       C6 2076   5.226   8.855   7.146  0.0748  0.7452 -0.6584
   78G       O6 2077   5.233   8.869   7.024  0.3708  0.2834  0.7570
   78G       N1 2078   5.313   8.931   7.218 -0.0267  0.1849 -0.4803
   78G       H1 2079   5.367   9.005   7.175  1.6458 -0.7360 -0.0433
   78G       C2 2080   5.341   8.911   7.354  0.9346 -0.1492  1.0605
   78G       N2 2081   5.442   8.974   7.399  0.1138 -0.2609 -0.0684
   78G      H21 2082   5.489   9.051   7.354  1.5614 -0.4993  0.9827
   78G      H22 2083   5.462   8.952   7.496 -1.5851 -0.1250  0.3456
   78G       N3 2084   5.283   8.825   7.431  0.0056 -0.2656 -0.3461
   78G       C4 2085   5.188   8.755   7.367  1.0886  0.6008 -0.0453
   78G      C3' 2086   4.935   8.641   7.670 -0.4378  0.3534  0.1924
   78G      H3' 2087   4.889   8.660   7.573  2.6096 -0.1430 -1.4598
   78G      C2' 2088   5.084   8.683   7.663 -0.4443  0.0511  0.3134
   78G     H2'1 2089   5.096   8.783   7.621  1.4599 -0.1242  0.3568
   78G      O2' 2090   5.168   8.667   7.775 -0.0051 -0.1687 -0.8549
   78G     HO'2 2091   5.193   8.575   7.785 -0.4904 -0.5980 -2.9774
   78G      O3' 2092   4.864   8.676   7.781  0.3082 -0.0265  0.1332
   79A        P 2093   4.796   8.813   7.802 -0.2874  0.2208  0.7087
   79A      O1P 2094   4.758   8.824   7.944  0.0681 -0.2793 -0.6214
   79A      O2P 2095   4.693   8.827   7.690  0.0544  1.0072 -0.4450
   79A      O5' 2096   4.899   8.934   7.774 -0.2016  0.4978 -0.1861
   79A      C5' 2097   4.993   8.970   7.872  0.0000  0.2226 -0.0881
   79A     H5'1 2098   5.054   8.882   7.895  0.4068  1.0310  2.2904
   79A     H5'2 2099   4.946   9.007   7.963 -1.2854 -0.6081 -0.3964
   79A      C4' 2100   5.097   9.070   7.825  0.4447 -0.4377 -0.1270
   79A      H4' 2101   5.163   9.083   7.911  0.1168  0.2881  0.0197
   79A      O4' 2102   5.175   9.025   7.719  1.0939  0.0887 -0.0695
   79A      C1' 2103   5.201   9.143   7.644  0.1508 -0.0901 -0.5005
   79A      H1' 2104   5.307   9.157   7.621 -0.1692  1.3280 -1.2340
   79A       N9 2105   5.129   9.131   7.510  0.1202  0.1858 -0.6728
   79A       C8 2106   5.026   9.046   7.477  1.1320 -0.1568 -0.8027
   79A       H8 2107   4.986   8.969   7.542  0.0739  0.8640 -0.2186
   79A       N7 2108   4.978   9.068   7.357 -0.1298  1.1370  0.4785
   79A       C5 2109   5.076   9.159   7.301  0.7496  0.0673  0.1372
   79A       C6 2110   5.098   9.221   7.176  0.1141 -0.1400  0.3900
   79A       N6 2111   5.038   9.196   7.060 -0.5833 -0.8621  0.5468
   79A      H61 2112   4.966   9.125   7.054 -0.7219 -0.5819 -2.5260
   79A      H62 2113   5.065   9.238   6.972  0.1805 -1.3464  0.5514
   79A       N1 2114   5.194   9.308   7.157  0.8364  0.0506  0.4455
   79A       C2 2115   5.276   9.341   7.261 -0.1511 -0.5708  0.1030
   79A       H2 2116   5.355   9.412   7.242  0.2250 -1.5207 -2.3385
   79A       N3 2117   5.262   9.299   7.380  0.1816 -0.1363 -0.8820
   79A       C4 2118   5.160   9.205   7.396  0.3523  0.7053 -0.3256
   79A      C3' 2119   5.030   9.196   7.789 -0.3620 -0.0458  1.1769
   79A      H3' 2120   4.950   9.177   7.717  1.2139  3.1704 -1.7461
   79A      C2' 2121   5.145   9.264   7.712 -0.0099 -0.1386 -0.7221
   79A     H2'1 2122   5.106   9.348   7.654 -1.8178  0.1614  0.8191
   79A      O2' 2123   5.237   9.321   7.802 -0.2966 -0.6033  0.2384
   79A     HO'2 2124   5.184   9.336   7.882 -2.5298  0.3884 -1.3190
   79A      O3' 2125   4.984   9.264   7.906 -0.5304  0.2690 -0.1052
   80A        P 2126   4.870   9.372   7.915  0.3650 -0.0343 -0.2220
   80A      O1P 2127   4.860   9.415   8.056 -0.1258 -0.2802 -0.5417
   80A      O2P 2128   4.752   9.311   7.856 -0.7527  0.0696 -0.3103
   80A      O5' 2129   4.918   9.497   7.820  0.2060  0.3623  0.6411
   80A      C5' 2130   5.015   9.581   7.864 -0.3683 -0.7888 -0.0455
   80A     H5'1 2131   5.094   9.520   7.906  0.6934  1.6631  1.7905
   80A     H5'2 2132   4.979   9.647   7.943  1.7348  0.4825 -0.0715
   80A      C4' 2133   5.084   9.664   7.754 -0.4962  0.1487  0.4892
   80A      H4' 2134   5.166   9.717   7.803  1.0323 -0.4150 -1.3411
   80A      O4' 2135   5.134   9.566   7.663 -0.1846 -0.1549 -0.1893
   80A      C1' 2136   5.139   9.627   7.541  0.1743  0.4228  0.6925
   80A      H1' 2137   5.239   9.614   7.500 -0.1791  0.6613 -0.2681
   80A       N9 2138   5.045   9.569   7.442 -0.5984  0.0267 -0.2403
   80A       C8 2139   4.943   9.485   7.467  0.3604  0.1260  0.1604
   80A       H8 2140   4.917   9.444   7.563 -0.5078  0.4368  0.0595
   80A       N7 2141   4.874   9.450   7.359 -0.3202  0.9538  0.5501
   80A       C5 2142   4.944   9.513   7.256 -0.2938 -0.8521  0.7088
   80A       C6 2143   4.941   9.516   7.112  0.1031  0.3287  0.1462
   80A       N6 2144   4.855   9.450   7.032  0.0113 -0.6934  0.4860
   80A      H61 2145   4.781   9.395   7.075 -0.5029 -0.9039 -0.6489
   80A      H62 2146   4.882   9.442   6.935  1.3692 -1.4654  0.9049
   80A       N1 2147   5.037   9.582   7.046 -0.1092 -0.2783  0.4825
   80A       C2 2148   5.135   9.645   7.108 -0.0248 -0.7766 -0.3286
   80A       H2 2149   5.217   9.682   7.049  0.0785 -0.4548  0.0138
   80A       N3 2150   5.147   9.652   7.243 -1.2377  0.2312  0.2771
   80A       C4 2151   5.049   9.590   7.305 -0.5231  1.5701  0.2311
   80A      C3' 2152   4.996   9.751   7.666  0.7044 -0.5620  0.1347
   80A      H3' 2153   4.910   9.704   7.618 -0.2979 -0.1395  1.4825
   80A      C2' 2154   5.099   9.778   7.555  0.5549  0.3082  0.0102
   80A     H2'1 2155   5.055   9.803   7.458  0.5986 -0.5473 -0.2349
   80A      O2' 2156   5.221   9.841   7.584 -0.2117 -0.0230  0.0611
   80A     HO'2 2157   5.252   9.873   7.499 -1.2723 -0.0411 -0.3505
   80A      O3' 2158   4.955   9.862   7.734  0.0238  0.0026 -0.9507
   81G        P 2159   4.833   9.948   7.687  0.0999 -0.3690  0.7023
   81G      O1P 2160   4.811  10.042   7.796  0.4670 -0.4238  0.0889
   81G      O2P 2161   4.722   9.863   7.635 -0.0767  0.4769  0.2514
   81G      O5' 2162   4.892  10.025   7.560  0.6108 -0.4725 -0.2126
   81G      C5' 2163   5.009  10.109   7.559 -0.6509 -0.0155  0.5563
   81G     H5'1 2164   5.094  10.055   7.600 -0.0977 -1.3390 -2.0781
   81G     H5'2 2165   4.989  10.205   7.607  0.6859  0.1902  0.7397
   81G      C4' 2166   5.061  10.138   7.417 -0.4951 -0.6488  0.2452
   81G      H4' 2167   5.150  10.201   7.427 -1.4226  0.6553  0.6908
   81G      O4' 2168   5.085  10.017   7.338  0.6756  0.5718 -0.4846
   81G      C1' 2169   5.029  10.027   7.206 -0.3758 -0.3021 -0.4870
   81G      H1' 2170   5.104  10.014   7.127 -1.3013  0.3598 -1.5136
   81G       N9 2171   4.910   9.940   7.177  0.1056 -0.3267 -0.4564
   81G       C8 2172   4.854   9.845   7.259  0.1050 -0.7225  0.9579
   81G       H8 2173   4.888   9.843   7.361  0.6172  1.5704  0.8805
   81G       N7 2174   4.765   9.766   7.204 -0.2019  0.2373 -0.8066
   81G       C5 2175   4.759   9.822   7.076  0.0839  0.0240  0.1228
   81G       C6 2176   4.678   9.793   6.958  0.5306  0.1484 -0.6030
   81G       O6 2177   4.576   9.724   6.951 -0.2230  0.2340  0.1127
   81G       N1 2178   4.719   9.864   6.849  0.8726  0.5759  0.8883
   81G       H1 2179   4.673   9.839   6.763 -0.3864 -0.9752  1.9749
   81G       C2 2180   4.828   9.939   6.837 -0.0757  0.2209 -0.1252
   81G       N2 2181   4.850  10.006   6.729  0.0848  0.2065  0.0920
   81G      H21 2182   4.801   9.990   6.642  0.7391  0.0953 -0.2648
   81G      H22 2183   4.921  10.078   6.731 -1.8109  2.4675 -3.3049
   81G       N3 2184   4.889   9.980   6.943 -0.6308 -0.1589  0.1227
   81G       C4 2185   4.845   9.924   7.065 -0.1314 -0.8658  0.3950
   81G      C3' 2186   4.958  10.216   7.331 -0.4851  1.0016 -0.4791
   81G      H3' 2187   4.865  10.164   7.353  1.1151 -0.9293  2.4147
   81G      C2' 2188   4.993  10.171   7.187  0.4360  0.8665  0.1858
   81G     H2'1 2189   4.904  10.176   7.125  1.2662 -0.7001 -1.2270
   81G      O2' 2190   5.109  10.226   7.131  0.0808 -0.1084 -0.1836
   81G     HO'2 2191   5.128  10.314   7.164  2.4931 -1.4911  2.6587
   81G      O3' 2192   4.952  10.356   7.365 -0.4808  0.7081  0.2615
   82U        P 2193   4.813  10.427   7.346 -0.0114 -0.0627 -0.0802
   82U      O1P 2194   4.838  10.567   7.371 -0.3416  0.3033 -0.0467
   82U      O2P 2195   4.703  10.353   7.420 -0.2463  0.0960  0.3688
   82U      O5' 2196   4.787  10.400   7.189 -0.2168 -0.0294 -0.0121
   82U      C5' 2197   4.847  10.478   7.088 -0.2342  0.8671  0.6299
   82U     H5'1 2198   4.951  10.451   7.108  0.1248  0.8235 -1.1687
   82U     H5'2 2199   4.828  10.585   7.092 -2.3510  0.6289 -1.3239
   82U      C4' 2200   4.787  10.436   6.952 -0.4317  0.1009 -0.4463
   82U      H4' 2201   4.841  10.493   6.876 -2.6991  0.6087 -1.7604
   82U      O4' 2202   4.782  10.297   6.919  0.0522 -0.4532 -0.4123
   82U      C1' 2203   4.660  10.268   6.848  0.8909 -0.0349 -0.1517
   82U      H1' 2204   4.679  10.238   6.745  0.6409  2.5198 -1.0321
   82U       N1 2205   4.569  10.170   6.912  0.1442 -0.3526 -0.0337
   82U       C6 2206   4.580  10.128   7.044 -0.6660 -0.6651  0.0036
   82U       H6 2207   4.667  10.164   7.096 -1.1907  0.3142  0.2182
   82U       C5 2208   4.489  10.047   7.110  0.0568 -0.2197  0.0108
   82U       H5 2209   4.489  10.031   7.217  3.2526  1.1025  0.3151
   82U       C4 2210   4.384   9.990   7.022  0.1226  0.0086 -0.1626
   82U       O4 2211   4.305   9.907   7.067  0.9492 -0.0700 -0.2211
   82U       N3 2212   4.381  10.024   6.894  0.3027 -0.3043 -0.4346
   82U       H3 2213   4.308   9.984   6.837  1.6251 -1.6027 -1.3013
   82U       C2 2214   4.464  10.112   6.836 -0.9682  0.1537  1.0895
   82U       O2 2215   4.436  10.151   6.721 -0.3095 -0.5577 -0.7477
   82U      C3' 2216   4.635  10.481   6.954 -0.0181  0.1584 -0.0323
   82U      H3' 2217   4.584  10.449   7.044 -1.8767  3.1380  0.1093
   82U      C2' 2218   4.583  10.396   6.830 -1.1204  0.1695  0.4990
   82U     H2'1 2219   4.474  10.390   6.821 -0.9748  0.0860 -1.4885
   82U      O2' 2220   4.641  10.458   6.713 -0.2381 -0.4694  0.7292
   82U     HO'2 2221   4.596  10.543   6.705 -0.7761 -0.9420 -3.0944
   82U      O3' 2222   4.626  10.620   6.939  0.3728 -0.6056 -0.0160
   83G        P 2223   4.474  10.694   6.939  0.3878  0.0021 -0.2390
   83G      O1P 2224   4.493  10.835   6.927 -0.6087 -0.4941 -0.0137
   83G      O2P 2225   4.399  10.631   7.049  0.1107 -0.1997 -0.2772
   83G      O5' 2226   4.402  10.654   6.805  0.4745 -0.5328  0.8038
   83G      C5' 2227   4.428  10.718   6.684 -0.0689  0.7663 -0.9679
   83G     H5'1 2228   4.532  10.709   6.654  0.5692  2.9953  0.3952
   83G     H5'2 2229   4.416  10.825   6.697 -0.1245  0.8142 -1.3945
   83G      C4' 2230   4.329  10.666   6.579  1.0044 -0.2222  0.3286
   83G      H4' 2231   4.357  10.708   6.482  0.5683 -0.8205 -0.0613
   83G      O4' 2232   4.340  10.528   6.557 -0.2600 -0.4274  0.1866
   83G      C1' 2233   4.214  10.473   6.517  0.8922  0.2205  0.3207
   83G      H1' 2234   4.223  10.425   6.419  3.4535  1.9442 -0.3899
   83G       N9 2235   4.163  10.375   6.616  0.2882 -0.3045 -0.0674
   83G       C8 2236   4.188  10.375   6.750 -0.7721 -0.3643 -0.1186
   83G       H8 2237   4.243  10.450   6.803 -1.9599 -0.0351  0.7012
   83G       N7 2238   4.098  10.300   6.814 -0.0931 -0.4106  0.1013
   83G       C5 2239   4.030  10.233   6.707 -0.8923  0.0437  0.3968
   83G       C6 2240   3.921  10.139   6.714  0.0251  1.0240  0.6214
   83G       O6 2241   3.864  10.086   6.812 -0.2578  0.2472 -0.3956
   83G       N1 2242   3.863  10.112   6.592  0.5799 -0.0543 -0.0445
   83G       H1 2243   3.791  10.041   6.588 -0.6425  1.1642 -3.0856
   83G       C2 2244   3.906  10.175   6.478  0.1458  0.1728 -0.1148
   83G       N2 2245   3.865  10.137   6.365  0.2112  0.3104 -0.5912
   83G      H21 2246   3.808  10.054   6.364  0.1893  0.0014  4.0917
   83G      H22 2247   3.879  10.196   6.285 -0.2924 -0.1253 -1.0086
   83G       N3 2248   4.004  10.272   6.465  0.2885 -0.2734  0.2358
   83G       C4 2249   4.062  10.286   6.584  0.1050  0.5661  0.0550
   83G      C3' 2250   4.177  10.697   6.606 -0.3083 -0.4920  0.0921
   83G      H3' 2251   4.157  10.673   6.710  1.7353  0.3012  0.7236
   83G      C2' 2252   4.116  10.591   6.516 -0.2896  0.2444  0.2427
   83G     H2'1 2253   4.027  10.552   6.564  0.3869 -2.2004 -0.3446
   83G      O2' 2254   4.078  10.641   6.384  0.4043 -0.0517  0.0920
   83G     HO'2 2255   3.993  10.682   6.397 -0.3546 -2.0307  2.1052
   83G      O3' 2256   4.140  10.827   6.568 -0.8890 -0.1008  0.1296
   83G      H3T 2257   4.057  10.823   6.522  0.4095  2.5552 -2.8182
   84SOL     OW 2258   3.810   0.712   9.858  0.3331  0.8718 -0.2145
   84SOL    HW1 2259   3.787   0.650   9.788  2.3415  0.6749 -0.7829
   84SOL    HW2 2260   3.856   0.783   9.813  1.9851  0.5740  0.8978
   85SOL     OW 2261   2.482   1.110   0.239  0.8227 -0.0477 -0.2049
   85SOL    HW1 2262   2.508   1.027   0.279 -0.2603 -0.2312  0.1449
   85SOL    HW2 2263   2.547   1.173   0.271  1.2634 -0.6219  0.0596
   86SOL     OW 2264   0.344   5.281   8.658 -0.2714  0.1257  0.0920
   86SOL    HW1 2265   0.265   5.294   8.711 -0.0470 -1.8374  0.9971
   86SOL    HW2 2266   0.311   5.273   8.568 -0.7087  2.9146 -0.0831
   87SOL     OW 2267   7.503   9.308   8.825 -0.1812  0.1986  0.0757
   87SOL    HW1 2268   7.517   9.300   8.731  0.0326 -0.6770  0.1794
   87SOL    HW2 2269   7.564   9.377   8.852  1.5534 -1.2213 -0.0510
   88SOL     OW 2270   2.746   6.166   5.357 -0.6955  0.1042  1.0744
   88SOL    HW1 2271   2.798   6.238   5.323 -1.0912 -0.1572 -0.1545
   88SOL    HW2 2272   2.809   6.096   5.373 -0.5138  0.1863  0.7318
   89SOL     OW 2273   4.310   0.136  10.147  0.3155 -0.1269 -0.2646
   89SOL    HW1 2274   4.273   0.123  10.234  1.8202 -0.3032  0.3810
   89SOL    HW2 2275   4.276   0.221  10.119 -3.1771 -1.6156 -1.1448
   90SOL     OW 2276   3.463   2.659   0.805  0.5102  0.2120 -0.0037
   90SOL    HW1 2277   3.493   2.667   0.896  0.6139  2.1766 -0.1743
   90SOL    HW2 2278   3.526   2.711   0.755  1.2972 -1.9791 -1.4511
   91SOL     OW 2279   1.544   7.965   2.142 -0.4511  0.1825 -0.2296
   91SOL    HW1 2280   1.539   7.956   2.237 -1.8121 -0.5077 -0.3517
   91SOL    HW2 2281   1.637   7.978   2.125 -0.0063 -0.9476  1.1005
   92SOL     OW 2282   7.900   8.332   2.418  0.8173 -0.2563 -0.4783
   92SOL    HW1 2283   7.920   8.374   2.334  2.8997  0.8995  0.5119
   92SOL    HW2 2284   7.869   8.404   2.474  1.9094 -0.4874  0.4661
   93SOL     OW 2285   1.321   1.752   8.525 -0.7463  0.0218 -0.2025
   93SOL    HW1 2286   1.415   1.734   8.526 -0.5706  0.9216  0.3092
   93SOL    HW2 2287   1.315   1.846   8.538 -1.7365 -0.1036  0.3095
   94SOL     OW 2288   8.970   6.661   0.377  0.2609  1.1173 -1.0940
   94SOL    HW1 2289   8.997   6.707   0.297  0.8186  1.8532 -0.5003
   94SOL    HW2 2290   9.016   6.707   0.448 -0.0056  0.3016 -0.3736
   95SOL     OW 2291   7.260   9.818   8.436  0.2606 -0.1611  0.0427
   95SOL    HW1 2292   7.167   9.812   8.459  0.0306  1.0450 -0.5280
   95SOL    HW2 2293   7.299   9.740   8.476 -0.3196  1.1272  3.4829
   96SOL     OW 2294   9.802   2.912   9.929 -0.5885  0.3211 -0.1261
   96SOL    HW1 2295   9.821   2.850   9.857 -1.1512  1.5972 -1.4200
   96SOL    HW2 2296   9.886   2.924   9.972 -0.3061 -0.7446 -0.3494
   97SOL     OW 2297   1.734   9.603   4.131  0.0331  0.5238 -0.6081
   97SOL    HW1 2298   1.656   9.574   4.179  0.7733  1.3322  1.1675
   97SOL    HW2 2299   1.729   9.556   4.048 -0.9962 -1.4394  0.4803
   98SOL     OW 2300   3.990   2.318  10.418 -0.2730  0.5536  0.4595
   98SOL    HW1 2301   4.045   2.384  10.375 -3.1462  1.3173 -2.3836
   98SOL    HW2 2302   3.998   2.240  10.363  2.3434 -1.4453  3.2741
   99SOL     OW 2303   5.749   6.276  10.220 -0.1904 -0.1909 -0.0612
   99SOL    HW1 2304   5.687   6.321  10.277  1.1385  1.2621  0.3133
   99SOL    HW2 2305   5.742   6.322  10.136  0.0673 -0.2958 -0.1427
  100SOL     OW 2306   8.746   0.641   3.414  0.3234  0.1736  0.7971
  100SOL    HW1 2307   8.725   0.586   3.338  0.5039 -0.1441  0.9731
  100SOL    HW2 2308   8.688   0.716   3.406 -0.4757 -0.4127  0.9726
  101SOL     OW 2309   0.216   6.614   8.833 -0.3266 -0.4801 -0.0006
  101SOL    HW1 2310   0.307   6.639   8.848 -0.3601  0.0671 -0.6838
  101SOL    HW2 2311   0.180   6.603   8.921 -0.4077  2.2516  0.4015
  102SOL     OW 2312   6.950   3.475   2.890 -0.2962 -0.2980  0.0996
  102SOL    HW1 2313   6.863   3.507   2.914 -0.8771 -0.9461 -1.0936
  102SOL    HW2 2314   7.003   3.493   2.968 -1.1416  1.3839  0.3465
  103SOL     OW 2315   6.463   9.850   8.636 -0.1453  0.3053 -0.1634
  103SOL    HW1 2316   6.542   9.903   8.646 -0.2440  0.6522 -1.1591
  103SOL    HW2 2317   6.391   9.913   8.648 -0.2880  0.0052  0.6635
  104SOL     OW 2318   9.260   4.225   7.484 -0.4613 -0.1468  0.5824
  104SOL    HW1 2319   9.169   4.198   7.474 -0.3390 -0.7833  1.1233
  104SOL    HW2 2320   9.267   4.252   7.575  0.3460 -1.9518  1.0955
  105SOL     OW 2321   9.829   1.009   8.653 -0.3318 -0.3975 -0.0964
  105SOL    HW1 2322   9.846   0.949   8.726 -2.2387  1.0706  1.6541
  105SOL    HW2 2323   9.884   1.085   8.670 -0.3723 -0.2746 -0.4979
  106SOL     OW 2324   2.608   0.282   8.370  0.3954  0.1341 -0.0065
  106SOL    HW1 2325   2.624   0.277   8.465 -1.7859  0.4907  0.4115
  106SOL    HW2 2326   2.643   0.200   8.336 -1.6480 -1.5013  1.5966
  107SOL     OW 2327   4.187   1.872   2.585  0.7605  0.2449 -0.5693
  107SOL    HW1 2328   4.194   1.964   2.557  2.2487  0.4347  0.3274
  107SOL    HW2 2329   4.276   1.838   2.574  0.4414 -0.8099  0.0647
  108SOL     OW 2330   7.639   0.952   0.035  0.1084  0.0412 -0.1530
  108SOL    HW1 2331   7.638   0.865  -0.005 -0.0785  0.3355 -0.8000
  108SOL    HW2 2332   7.717   0.952   0.090  0.2821 -0.4277 -0.3927
  109SOL     OW 2333   1.135   5.032   8.277  0.0818  0.4515  0.0026
  109SOL    HW1 2334   1.126   5.042   8.182 -0.2745  0.2197  0.0092
  109SOL    HW2 2335   1.091   5.109   8.314  0.7682  0.8659 -0.0311
  110SOL     OW 2336   8.487   0.880  10.223  0.1543 -0.0889  0.6691
  110SOL    HW1 2337   8.443   0.916  10.300  1.2069  0.1577  1.1811
  110SOL    HW2 2338   8.493   0.953  10.161  0.7943  0.1846  1.0390
  111SOL     OW 2339   6.108   5.731   3.815  0.3612  0.5955  0.0049
  111SOL    HW1 2340   6.113   5.814   3.767 -1.4825  0.3245 -0.7660
  111SOL    HW2 2341   6.027   5.738   3.866  0.4360 -0.5430  0.3015
  112SOL     OW 2342   3.204   0.603   0.210 -0.2463  0.7128  0.1829
  112SOL    HW1 2343   3.234   0.612   0.300 -1.1409 -1.8181  0.8428
  112SOL    HW2 2344   3.238   0.517   0.182 -0.3046  1.2649 -1.7701
  113SOL     OW 2345   8.414   6.859  11.095 -0.0582 -0.1301  0.8206
  113SOL    HW1 2346   8.333   6.822  11.130  1.7260 -2.2288  3.1075
  113SOL    HW2 2347   8.439   6.927  11.158 -1.2902  2.5329 -1.3166
  114SOL     OW 2348   4.919   9.370   8.504 -0.5475  0.2282 -0.1468
  114SOL    HW1 2349   4.955   9.284   8.524 -1.9492 -0.5197 -0.6970
  114SOL    HW2 2350   4.962   9.395   8.422 -1.4135 -0.7500 -0.9194
  115SOL     OW 2351   5.392  10.923   4.237  0.5640  0.2893  0.4018
  115SOL    HW1 2352   5.392  10.948   4.330  1.1847 -2.0572  1.1001
  115SOL    HW2 2353   5.483  10.936   4.209 -0.0005  2.8559 -0.5034
  116SOL     OW 2354   4.374   1.343   1.936  0.0838  0.5686  0.6574
  116SOL    HW1 2355   4.299   1.402   1.931 -1.2132 -1.0491  0.0730
  116SOL    HW2 2356   4.393   1.336   2.030 -0.0971  1.4538  0.7671
  117SOL     OW 2357   7.688   8.682   7.706  0.1460  0.3248 -0.0513
  117SOL    HW1 2358   7.757   8.644   7.651  4.7444  3.6069  2.6818
  117SOL    HW2 2359   7.661   8.611   7.764  0.5225 -1.3083 -1.7909
  118SOL     OW 2360   2.559   3.057   6.268 -0.0288  0.3341 -0.7105
  118SOL    HW1 2361   2.651   3.033   6.264 -0.2676 -0.6575 -0.4033
  118SOL    HW2 2362   2.528   3.051   6.178  0.1134  0.3023 -0.7563
  119SOL     OW 2363   0.064   1.830   4.262  0.3874  0.3394 -0.2550
  119SOL    HW1 2364   0.062   1.925   4.252  2.4259  0.3801 -0.8439
  119SOL    HW2 2365   0.006   1.812   4.336  0.2887  2.0780  0.1253
  120SOL     OW 2366   3.779   0.368   5.659  0.2330 -0.1671  0.4513
  120SOL    HW1 2367   3.861   0.326   5.635  0.1688 -0.5627  0.9206
  120SOL    HW2 2368   3.711   0.308   5.627  0.1316 -0.0314  0.4099
  121SOL     OW 2369   9.671   6.165  10.246 -0.6116  0.3465 -0.4582
  121SOL    HW1 2370   9.682   6.258  10.225 -0.6942  0.3239 -0.6053
  121SOL    HW2 2371   9.745   6.123  10.201  0.2837  0.5047  0.8157
  122SOL     OW 2372  10.986   0.715   2.953 -0.5875  0.1875 -0.2356
  122SOL    HW1 2373  11.055   0.755   3.005 -1.7110 -0.3445  1.7661
  122SOL    HW2 2374  10.932   0.789   2.924  0.0101  0.4781 -0.6353
  123SOL     OW 2375   5.243  10.034  10.568  0.5531 -0.8318  0.3454
  123SOL    HW1 2376   5.263  10.095  10.497 -0.6197 -0.3011  0.4419
  123SOL    HW2 2377   5.273   9.949  10.535  1.0642 -0.4075 -0.3145
  124SOL     OW 2378   8.319   1.832   1.597  0.7346  0.2748 -0.0503
  124SOL    HW1 2379   8.295   1.911   1.644  0.3371  1.1666 -1.6963
  124SOL    HW2 2380   8.241   1.777   1.600  0.2085  0.9700 -0.9592
  125SOL     OW 2381  11.080   6.146   3.356 -0.3990  0.2159  0.2578
  125SOL    HW1 2382  11.014   6.121   3.291  0.3554 -1.8655  0.1930
  125SOL    HW2 2383  11.150   6.186   3.305 -0.2105 -0.5883 -0.1431
  126SOL     OW 2384   8.754   7.053   7.197  0.3774  0.7500 -0.1768
  126SOL    HW1 2385   8.780   7.144   7.180  1.9016  0.3833 -0.0173
  126SOL    HW2 2386   8.837   7.008   7.215 -0.2618 -0.8632 -1.0941
  127SOL     OW 2387   9.005  10.266   4.129  0.6371 -0.1084  0.2989
  127SOL    HW1 2388   9.101  10.270   4.121  0.7257 -0.2560  1.1899
  127SOL    HW2 2389   8.979  10.192   4.075  0.9454  0.3775 -0.5393
  128SOL     OW 2390   5.353   8.466   2.965 -0.1368  0.1551  0.0656
  128SOL    HW1 2391   5.434   8.516   2.977  1.4644 -1.9451 -1.0509
  128SOL    HW2 2392   5.338   8.469   2.870  0.3782 -1.8943 -0.1243
  129SOL     OW 2393   1.902   6.303   2.650  0.0462  0.5542  0.3076
  129SOL    HW1 2394   1.924   6.233   2.711 -0.9144  2.1669  2.6734
  129SOL    HW2 2395   1.827   6.347   2.690  1.3130  3.6353 -0.4199
  130SOL     OW 2396   3.997   4.779   4.183 -0.0433  0.5725  0.1936
  130SOL    HW1 2397   4.078   4.777   4.132 -0.1855  0.4301 -0.0224
  130SOL    HW2 2398   3.927   4.768   4.119 -0.1305 -2.6550  0.7025
  131SOL     OW 2399   2.736   9.909   8.737 -0.0859  0.2265  0.2248
  131SOL    HW1 2400   2.701   9.988   8.695 -0.0082  0.5383  0.7389
  131SOL    HW2 2401   2.785   9.865   8.668 -0.9664  0.1065 -0.3432
  132SOL     OW 2402   4.009   9.913   2.026 -0.1057  0.5036  0.1473
  132SOL    HW1 2403   3.964   9.957   2.098  0.1379 -0.4296  0.8903
  132SOL    HW2 2404   4.102   9.929   2.043 -0.0674  3.4035 -1.9991
  133SOL     OW 2405   1.415   3.950   5.211  0.1061  0.2593 -0.1767
  133SOL    HW1 2406   1.495   3.898   5.218  0.1370  0.4435  0.8952
  133SOL    HW2 2407   1.381   3.928   5.124 -0.3110 -2.2104  0.5166
  134SOL     OW 2408   5.455   7.696   5.395 -0.3385 -0.6187  0.4011
  134SOL    HW1 2409   5.449   7.767   5.330  0.8837  1.4291  2.3834
  134SOL    HW2 2410   5.409   7.623   5.354 -1.6884  1.2945 -1.7802
  135SOL     OW 2411   2.549   2.428   0.611 -0.0320  0.0736  0.1751
  135SOL    HW1 2412   2.463   2.419   0.653  0.7058  0.9986  1.9818
  135SOL    HW2 2413   2.609   2.382   0.669  0.7998 -0.0939 -0.7914
  136SOL     OW 2414   0.441   7.330   7.264  0.8207 -0.0812  0.6590
  136SOL    HW1 2415   0.408   7.383   7.336 -1.5956 -0.0738 -0.3482
  136SOL    HW2 2416   0.412   7.376   7.185  2.9021 -0.3855 -0.3599
  137SOL     OW 2417   2.366   8.933   8.666  0.7430  0.5745 -0.0676
  137SOL    HW1 2418   2.425   8.955   8.738  0.6817 -2.4539  1.0686
  137SOL    HW2 2419   2.281   8.964   8.694 -0.1199 -3.7853  3.2756
  138SOL     OW 2420   0.510   3.447   1.025 -0.5849 -0.3616 -0.2180
  138SOL    HW1 2421   0.576   3.491   1.079  0.5894 -0.6231 -1.4041
  138SOL    HW2 2422   0.550   3.441   0.939 -2.4470  0.1015 -1.1598
  139SOL     OW 2423   0.493   8.473   0.793 -0.5705 -0.3161 -0.0816
  139SOL    HW1 2424   0.527   8.545   0.740 -0.2687 -0.9053 -0.6998
  139SOL    HW2 2425   0.451   8.414   0.730 -1.2664 -0.4369  0.4788
  140SOL     OW 2426  10.656   5.001   5.534  0.4774 -0.3498 -0.2021
  140SOL    HW1 2427  10.671   4.930   5.596 -2.4058 -0.8987  0.0294
  140SOL    HW2 2428  10.701   5.077   5.572  0.8766 -1.2780  1.2480
  141SOL     OW 2429   2.321   5.672   5.359  0.0715  1.1047 -0.1317
  141SOL    HW1 2430   2.264   5.700   5.288  0.6170 -0.0831 -1.0814
  141SOL    HW2 2431   2.269   5.686   5.438 -1.3835  0.5019 -0.9255
  142SOL     OW 2432   1.193   9.719   3.655 -0.4713 -0.1814 -0.0602
  142SOL    HW1 2433   1.249   9.642   3.662  1.7460  0.9290 -3.0042
  142SOL    HW2 2434   1.175   9.727   3.561 -1.8674  2.0480  0.3130
  143SOL     OW 2435   1.538   0.812   5.487 -0.8818 -0.1176 -0.7690
  143SOL    HW1 2436   1.447   0.807   5.459 -1.0493  1.3193 -0.5626
  143SOL    HW2 2437   1.587   0.829   5.407 -0.8345 -0.5222 -0.8272
  144SOL     OW 2438   5.811   8.687   0.591 -0.4568 -0.2077  0.4925
  144SOL    HW1 2439   5.883   8.627   0.609  0.5754  0.8885  0.1103
  144SOL    HW2 2440   5.794   8.729   0.675  0.7319  0.9923  0.1623
  145SOL     OW 2441   8.351   0.190   2.268  0.7313  0.3880 -0.5160
  145SOL    HW1 2442   8.403   0.252   2.217  2.9104 -0.8008  0.1544
  145SOL    HW2 2443   8.377   0.104   2.236  1.6521 -0.3824  2.0417
  146SOL     OW 2444   6.706  10.432   0.277 -0.1535  0.1333 -0.4236
  146SOL    HW1 2445   6.636  10.494   0.297 -0.5553 -1.0042  2.2588
  146SOL    HW2 2446   6.664  10.346   0.281  1.4784 -0.6770  2.4744
  147SOL     OW 2447   2.509   0.504   3.459  0.2957 -0.1690  0.3045
  147SOL    HW1 2448   2.502   0.479   3.366 -0.1036  0.1473  0.2453
  147SOL    HW2 2449   2.589   0.461   3.489  0.1655 -0.6873 -0.0586
  148SOL     OW 2450   0.984   6.424   4.142  0.4745  0.0358  0.1907
  148SOL    HW1 2451   1.071   6.406   4.178  0.4529  1.3795  0.9505
  148SOL    HW2 2452   0.966   6.515   4.165 -1.3784 -0.3789  0.5177
  149SOL     OW 2453   6.985   6.263   2.047 -0.1556  0.5344  0.4853
  149SOL    HW1 2454   7.029   6.185   2.080 -0.2747 -0.0552 -0.6905
  149SOL    HW2 2455   6.926   6.289   2.117  0.6780  0.2211  1.3264
  150SOL     OW 2456   8.297   4.336   1.469  0.6358  0.3294 -0.0198
  150SOL    HW1 2457   8.228   4.325   1.534  2.0109 -0.0339  1.4204
  150SOL    HW2 2458   8.289   4.259   1.413 -0.9900  0.9827 -0.7503
  151SOL     OW 2459   1.591   1.440   8.478 -0.1915  0.2433  0.0485
  151SOL    HW1 2460   1.617   1.397   8.559 -1.2689 -1.1496 -0.3183
  151SOL    HW2 2461   1.496   1.435   8.477 -0.2733  1.4412 -0.6749
  152SOL     OW 2462   7.774   4.036   1.049  0.0775 -0.0187 -0.1153
  152SOL    HW1 2463   7.797   4.122   1.085  0.8517 -0.0852 -0.4404
  152SOL    HW2 2464   7.841   3.977   1.083 -0.8364 -0.6474  0.6714
  153SOL     OW 2465   4.035   6.527   1.178  0.2533 -0.7045 -0.1432
  153SOL    HW1 2466   3.992   6.445   1.202 -0.9184 -0.3450 -0.9421
  153SOL    HW2 2467   4.065   6.563   1.262 -1.2198 -0.8655  0.4893
  154SOL     OW 2468   2.374   9.826   0.804  0.5194 -0.1793  0.0196
  154SOL    HW1 2469   2.344   9.859   0.719  1.6082 -1.3282 -0.8571
  154SOL    HW2 2470   2.392   9.905   0.855 -0.6925  0.5292 -0.6060
  155SOL     OW 2471   8.193   1.755   0.149 -0.1339  0.3996  0.1084
  155SOL    HW1 2472   8.109   1.790   0.121 -0.4854  0.8702  1.6344
  155SOL    HW2 2473   8.231   1.825   0.202  0.7000 -0.2484  0.3943
  156SOL     OW 2474   7.068   2.583   0.118 -0.3286 -0.5031  0.1202
  156SOL    HW1 2475   7.123   2.601   0.042  0.8549  2.3121  1.4809
  156SOL    HW2 2476   6.986   2.630   0.100 -0.4791 -0.7570  0.1305
  157SOL     OW 2477   6.571  10.019   7.450 -0.3143 -0.2753  0.1068
  157SOL    HW1 2478   6.582   9.930   7.418 -1.1241 -0.2726 -0.1955
  157SOL    HW2 2479   6.658  10.044   7.483 -0.2758 -1.4622  0.9585
  158SOL     OW 2480   3.654   0.745   8.847  0.0718  0.8290 -0.5660
  158SOL    HW1 2481   3.576   0.796   8.825  0.1990  1.1196 -0.3521
  158SOL    HW2 2482   3.621   0.656   8.860 -0.1565  0.8623 -0.9064
  159SOL     OW 2483  10.021   2.003   5.104  0.4781  0.1886  0.3275
  159SOL    HW1 2484  10.062   2.030   5.186  0.2211  0.2808  0.4232
  159SOL    HW2 2485  10.000   2.085   5.059  2.0394  0.1660 -0.5445
  160SOL     OW 2486  11.028  11.025   3.770  0.1127  0.4945 -0.3909
  160SOL    HW1 2487  10.966  11.034   3.843 -0.3807  0.4198 -0.7996
  160SOL    HW2 2488  10.975  11.038   3.691  0.4909 -0.2086 -0.7667
  161SOL     OW 2489   3.699   1.291   4.384  0.1726 -0.0453 -0.4607
  161SOL    HW1 2490   3.675   1.383   4.387 -0.8317 -0.3030 -0.2847
  161SOL    HW2 2491   3.788   1.291   4.348 -0.7475  0.8330 -2.9240
  162SOL     OW 2492   2.471   0.335  10.417 -0.4640 -0.8535  0.0844
  162SOL    HW1 2493   2.480   0.415  10.469 -1.3830 -1.4495  1.2019
  162SOL    HW2 2494   2.553   0.328  10.369 -0.4778  0.9135 -0.2578
  163SOL     OW 2495   3.887   3.727   4.082  0.0195 -0.5094  0.1456
  163SOL    HW1 2496   3.924   3.742   3.995 -0.3406  0.3884  0.1393
  163SOL    HW2 2497   3.855   3.637   4.079 -0.0123 -0.4744 -0.6604
  164SOL     OW 2498   4.115   8.223   9.838 -0.2300 -0.0785  0.0825
  164SOL    HW1 2499   4.181   8.174   9.789  1.2223  1.7482  0.0912
  164SOL    HW2 2500   4.092   8.295   9.780 -2.6040 -0.9182 -0.0937
  165SOL     OW 2501   8.868   7.492   7.396  0.4773 -0.1183 -0.5493
  165SOL    HW1 2502   8.942   7.529   7.444  1.0157  1.9631 -2.8261
  165SOL    HW2 2503   8.901   7.409   7.361  0.7501 -0.6035  0.7680
  166SOL     OW 2504   6.376   2.928   2.650  0.2146  0.5173 -0.7131
  166SOL    HW1 2505   6.297   2.952   2.602  0.0939 -1.5827 -1.6722
  166SOL    HW2 2506   6.345   2.885   2.729  0.3631 -0.3187 -1.0945
  167SOL     OW 2507   4.643   3.559   7.805 -0.2859  0.8344 -0.2389
  167SOL    HW1 2508   4.734   3.587   7.817  0.1816 -0.7784  0.2300
  167SOL    HW2 2509   4.599   3.585   7.886  0.2704 -0.1738  0.4206
  168SOL     OW 2510   7.891   4.433   1.931 -0.0150 -0.6786  0.0634
  168SOL    HW1 2511   7.881   4.470   2.019 -0.1204 -1.1572  0.2562
  168SOL    HW2 2512   7.803   4.403   1.908 -0.0169 -0.4206 -0.2659
  169SOL     OW 2513   5.208   0.604   4.861 -0.8460 -0.4306 -0.0922
  169SOL    HW1 2514   5.208   0.669   4.932  1.3334 -1.7785  1.2667
  169SOL    HW2 2515   5.174   0.524   4.902  0.1111 -1.1322 -0.6246
  170SOL     OW 2516   7.990   7.264   7.356 -0.5869 -0.0954 -1.0632
  170SOL    HW1 2517   7.978   7.169   7.363 -1.3705  0.0413 -0.4073
  170SOL    HW2 2518   7.902   7.298   7.338 -0.2707  0.4931 -1.5374
  171SOL     OW 2519   1.843   3.499   1.968  0.4316 -0.0451 -0.3502
  171SOL    HW1 2520   1.907   3.514   1.898 -0.4197 -2.1658 -1.7026
  171SOL    HW2 2521   1.895   3.463   2.040  0.7503 -3.0526 -1.9160
  172SOL     OW 2522  10.457   4.679   5.289 -0.2920 -0.0589  0.1897
  172SOL    HW1 2523  10.511   4.626   5.231 -1.2715 -1.3262  0.3742
  172SOL    HW2 2524  10.405   4.615   5.338 -1.1929  1.0622  0.7537
  173SOL     OW 2525   8.887   5.882   6.435  0.5568  0.0051 -0.3837
  173SOL    HW1 2526   8.890   5.843   6.348  1.2973 -0.1499 -0.2962
  173SOL    HW2 2527   8.907   5.974   6.421 -0.8652  0.3079 -0.5510
  174SOL     OW 2528   0.527  10.858   2.119 -0.2966 -0.4526 -0.0188
  174SOL    HW1 2529   0.584  10.795   2.076  0.5229  0.4528 -0.2795
  174SOL    HW2 2530   0.497  10.812   2.199 -0.4606 -1.4913 -0.6543
  175SOL     OW 2531   4.406   9.418   8.872 -0.0870 -0.1387  0.2316
  175SOL    HW1 2532   4.463   9.480   8.917  2.2920 -1.3987 -0.8887
  175SOL    HW2 2533   4.465   9.365   8.818 -2.3190 -1.6013 -0.9387
  176SOL     OW 2534   5.455  10.299   1.548  0.3271  0.3933 -0.3914
  176SOL    HW1 2535   5.437  10.337   1.462 -0.2631 -0.2051 -0.5442
  176SOL    HW2 2536   5.399  10.221   1.551 -1.0211  1.3719  1.2665
  177SOL     OW 2537   6.968   0.717   4.991 -0.5292  0.4292  0.3225
  177SOL    HW1 2538   7.060   0.694   4.980 -1.2004 -1.2972 -4.0186
  177SOL    HW2 2539   6.930   0.643   5.039 -0.1609 -0.5962 -0.9110
  178SOL     OW 2540   1.687   2.261   4.318 -0.3990 -0.1874  0.0106
  178SOL    HW1 2541   1.681   2.356   4.306  0.8038  0.0026  0.7344
  178SOL    HW2 2542   1.637   2.243   4.397 -0.4447 -0.1171 -0.0028
  179SOL     OW 2543   3.088   0.885  10.622 -0.2006  0.4770 -0.2694
  179SOL    HW1 2544   3.172   0.913  10.655 -0.7817  0.9779  0.8254
  179SOL    HW2 2545   3.080   0.926  10.536  1.6800 -1.4961 -1.4839
  180SOL     OW 2546   3.195   3.762  10.900 -0.2190 -0.0801  0.1480
  180SOL    HW1 2547   3.247   3.698  10.852  2.2927 -0.0947  2.6203
  180SOL    HW2 2548   3.246   3.843  10.895 -1.5074  0.7732  0.1600
  181SOL     OW 2549   9.383   3.099   2.728 -0.8712  0.4536  0.2136
  181SOL    HW1 2550   9.384   3.126   2.820 -0.5936  0.7322  0.1334
  181SOL    HW2 2551   9.458   3.040   2.720 -1.9715 -1.0700  0.5876
  182SOL     OW 2552   8.870   6.542   8.924 -0.1387 -1.1281 -0.4735
  182SOL    HW1 2553   8.905   6.453   8.922  0.7201 -0.8071 -2.6842
  182SOL    HW2 2554   8.947   6.598   8.912 -0.1520  0.2071  3.9428
  183SOL     OW 2555   3.912   0.260   0.715  0.0296  0.6353  0.0542
  183SOL    HW1 2556   3.829   0.211   0.717  0.2155  0.3372  0.9678
  183SOL    HW2 2557   3.898   0.328   0.649 -0.3338 -0.4635 -1.0441
  184SOL     OW 2558   3.311   4.634   0.251  0.2082  0.3186 -0.0748
  184SOL    HW1 2559   3.216   4.621   0.244 -0.2154  2.6817  0.2241
  184SOL    HW2 2560   3.347   4.546   0.264 -1.7463 -0.8529 -2.0015
  185SOL     OW 2561   4.873   0.358   1.571 -0.1340  0.0443 -0.1274
  185SOL    HW1 2562   4.943   0.362   1.636  1.7002  1.7670 -2.0780
  185SOL    HW2 2563   4.795   0.388   1.618  0.4743 -1.3462  1.9439
  186SOL     OW 2564   2.719  10.140   8.531  0.7666 -0.0904  0.0180
  186SOL    HW1 2565   2.753  10.113   8.447 -0.6616 -1.2583 -0.2291
  186SOL    HW2 2566   2.624  10.142   8.519  0.5481 -0.0034  1.5132
  187SOL     OW 2567   3.152   6.354   1.507  0.2935  0.2656 -0.6209
  187SOL    HW1 2568   3.228   6.402   1.540 -0.3177  0.0946  1.1476
  187SOL    HW2 2569   3.114   6.412   1.441  0.3271  1.6621  0.5280
  188SOL     OW 2570   3.465   1.760   5.695 -0.5516  0.2305  0.2611
  188SOL    HW1 2571   3.560   1.752   5.707 -0.4336  1.1888  0.0394
  188SOL    HW2 2572   3.436   1.813   5.769 -0.6488  1.3477 -0.5393
  189SOL     OW 2573   5.051   8.791   2.312 -0.4043 -0.0348 -0.4175
  189SOL    HW1 2574   5.006   8.760   2.390 -0.0021 -2.9156 -1.1904
  189SOL    HW2 2575   5.074   8.711   2.265  1.3971  1.4991 -2.3505
  190SOL     OW 2576   7.107   8.137   8.537 -0.5307 -0.1252  0.0082
  190SOL    HW1 2577   7.068   8.050   8.524 -1.8205  0.2327  1.2956
  190SOL    HW2 2578   7.044   8.184   8.591  0.6081  1.2965  0.1538
  191SOL     OW 2579   5.418   2.332   5.009 -0.1307  0.6679 -0.0634
  191SOL    HW1 2580   5.476   2.407   5.023 -0.8097  0.7469  3.0167
  191SOL    HW2 2581   5.330   2.367   5.021 -0.5237 -0.3647  0.1631
  192SOL     OW 2582   6.050   6.234   8.759 -0.2121  0.1941 -0.5246
  192SOL    HW1 2583   5.971   6.189   8.789 -1.5219  1.6696 -1.5499
  192SOL    HW2 2584   6.023   6.280   8.680  1.0919  2.4326  0.2245
  193SOL     OW 2585   2.331  10.789   6.972  1.3812  0.9453  0.1753
  193SOL    HW1 2586   2.413  10.795   7.022  1.1455 -1.6258  1.0403
  193SOL    HW2 2587   2.356  10.747   6.890  0.9071 -0.2359  0.6170
  194SOL     OW 2588   2.452   7.891   1.809 -0.3050 -0.1367  0.1775
  194SOL    HW1 2589   2.526   7.924   1.757 -0.6509  0.3256 -0.0369
  194SOL    HW2 2590   2.442   7.800   1.781  2.1210 -1.2025  2.4325
  195SOL     OW 2591   5.423   3.789  10.968  0.7270 -0.3714 -0.2077
  195SOL    HW1 2592   5.487   3.846  10.925  0.9442  0.8148  1.5610
  195SOL    HW2 2593   5.473   3.748  11.038 -0.4238  0.6820  1.2993
  196SOL     OW 2594   4.842   4.551  10.855 -0.3769  0.1632 -0.0203
  196SOL    HW1 2595   4.842   4.468  10.902  0.5075  0.5117  0.6346
  196SOL    HW2 2596   4.865   4.527  10.765 -0.3273 -0.3241  0.1167
  197SOL     OW 2597   4.976   5.518   0.540 -0.2652 -0.3404  0.0673
  197SOL    HW1 2598   5.063   5.548   0.515 -0.2354 -0.2289  0.3055
  197SOL    HW2 2599   4.990   5.430   0.576 -0.3069 -0.4974 -0.2868
  198SOL     OW 2600   4.726   0.831   2.856  0.0836  0.3766 -0.4654
  198SOL    HW1 2601   4.814   0.840   2.819  1.1899 -0.0194  1.8818
  198SOL    HW2 2602   4.696   0.921   2.866  0.6618  0.5637 -0.3376
  199SOL     OW 2603   4.877  10.681   6.324 -0.3087  0.1407 -0.3714
  199SOL    HW1 2604   4.963  10.720   6.310  0.3940 -1.6422 -1.3438
  199SOL    HW2 2605   4.815  10.749   6.295  0.7993  1.0188 -0.7595
  200SOL     OW 2606   8.323   6.096   2.548 -0.2902 -0.0102  0.1547
  200SOL    HW1 2607   8.376   6.022   2.576 -1.0466 -0.1776  1.2089
  200SOL    HW2 2608   8.341   6.105   2.455  0.1480 -1.2390  0.1061
  201SOL     OW 2609   8.578   6.747   9.990 -0.1600 -0.0072  0.0860
  201SOL    HW1 2610   8.539   6.817  10.042 -0.1779 -1.1028  1.5910
  201SOL    HW2 2611   8.672   6.768   9.989 -0.1509 -0.0115  0.6065
  202SOL     OW 2612   5.730  10.991   1.266  0.5758  0.1586  0.6366
  202SOL    HW1 2613   5.792  10.939   1.316  2.5023  0.7563 -0.9846
  202SOL    HW2 2614   5.785  11.049   1.212 -1.4058  1.1610 -0.4268
  203SOL     OW 2615   9.982   9.388   8.426  0.1748 -0.3088 -0.2565
  203SOL    HW1 2616   9.897   9.431   8.434  0.1831 -0.6133  3.9364
  203SOL    HW2 2617  10.037   9.452   8.380 -0.6606  3.1003  2.9555
  204SOL     OW 2618   9.954   0.276  10.971 -0.5964 -1.1648 -0.5612
  204SOL    HW1 2619   9.861   0.296  10.967 -0.5476 -0.8886 -0.3930
  204SOL    HW2 2620   9.983   0.276  10.880 -0.5570 -0.2479 -0.5595
  205SOL     OW 2621   6.994   1.451   2.364 -0.4328  0.6239  0.4170
  205SOL    HW1 2622   6.966   1.475   2.275  0.0084 -2.0525 -0.5542
  205SOL    HW2 2623   6.975   1.357   2.370  0.7635  0.4643  2.6954
  206SOL     OW 2624   1.701   7.018   6.617  0.4648  0.0635  0.3115
  206SOL    HW1 2625   1.678   7.015   6.710  0.9403  2.0656  0.5306
  206SOL    HW2 2626   1.617   7.019   6.572  0.2281 -0.6416  0.7161
  207SOL     OW 2627  10.180   3.752   4.458 -1.0174 -0.0167 -0.3721
  207SOL    HW1 2628  10.196   3.659   4.440  0.2749  0.2245 -0.5768
  207SOL    HW2 2629  10.228   3.798   4.390  0.1175  0.8366  0.9505
  208SOL     OW 2630   3.510   8.571   6.332  0.2936 -0.9581 -0.2191
  208SOL    HW1 2631   3.587   8.627   6.330 -0.0814 -0.4504 -0.3838
  208SOL    HW2 2632   3.486   8.567   6.425 -0.5910  0.4093 -0.3716
  209SOL     OW 2633   1.618   1.359   3.540  0.2312  0.1327 -0.3719
  209SOL    HW1 2634   1.568   1.327   3.615  1.6936  0.0092  0.5835
  209SOL    HW2 2635   1.589   1.450   3.528  0.9451  0.5962  1.2156
  210SOL     OW 2636   2.197   2.465  10.221  0.1208 -0.1506  0.0474
  210SOL    HW1 2637   2.176   2.400  10.153 -1.7356  0.3961  0.0613
  210SOL    HW2 2638   2.154   2.545  10.191  1.8726  0.9471  0.3456
  211SOL     OW 2639   1.995   3.875   1.006 -0.4042  0.4387 -0.4528
  211SOL    HW1 2640   1.987   3.780   0.996  0.9692  0.2006  0.3733
  211SOL    HW2 2641   2.083   3.895   0.973 -0.8429  1.4960 -1.0310
  212SOL     OW 2642   0.538   0.999   9.904 -0.0508  0.5542  0.2682
  212SOL    HW1 2643   0.451   0.960   9.897 -0.8096  1.7905  2.0839
  212SOL    HW2 2644   0.548   1.018   9.997  0.6627  3.7577 -0.3661
  213SOL     OW 2645   6.309   4.629  10.407  0.0298 -0.1718 -0.0604
  213SOL    HW1 2646   6.256   4.648  10.330  1.1572 -0.1005 -0.8387
  213SOL    HW2 2647   6.398   4.619  10.373  0.3118 -1.6501  1.0219
  214SOL     OW 2648   3.832   0.408   1.607  0.1578  0.0232  0.4700
  214SOL    HW1 2649   3.900   0.475   1.613  0.9738 -0.7012 -0.4878
  214SOL    HW2 2650   3.863   0.348   1.539 -2.2637  0.6151 -1.2734
  215SOL     OW 2651   0.534   1.809   1.302  0.2200 -0.5398 -0.1086
  215SOL    HW1 2652   0.610   1.784   1.354  1.9787  3.5402 -0.3676
  215SOL    HW2 2653   0.474   1.848   1.365  0.5450  0.6923 -0.5443
  216SOL     OW 2654   3.733   0.887   7.463  0.1172 -0.9312  0.1677
  216SOL    HW1 2655   3.766   0.824   7.527  1.3899  2.2838  3.0033
  216SOL    HW2 2656   3.804   0.897   7.399  1.7712  0.5751  2.1039
  217SOL     OW 2657   3.372   0.914   1.170  0.4328 -0.5629  0.3072
  217SOL    HW1 2658   3.346   0.830   1.133  1.0173 -1.3693  1.6563
  217SOL    HW2 2659   3.335   0.914   1.258 -1.8729  1.7861 -0.5377
  218SOL     OW 2660   1.019   7.450   0.668  0.0217  1.0293 -0.2886
  218SOL    HW1 2661   0.963   7.475   0.594 -0.2567 -0.6774 -0.7166
  218SOL    HW2 2662   0.993   7.508   0.739 -2.9487 -0.2052 -0.2275
  219SOL     OW 2663   1.227   6.731   9.259  0.0573 -0.3518  0.7309
  219SOL    HW1 2664   1.182   6.813   9.277  0.2511 -0.2928  0.9358
  219SOL    HW2 2665   1.287   6.751   9.187  1.1299  0.0321  1.7171
  220SOL     OW 2666   3.101  10.341   0.013 -0.1372 -0.5015 -0.2686
  220SOL    HW1 2667   3.136  10.334   0.102  0.5089  2.0619 -0.2428
  220SOL    HW2 2668   3.121  10.257  -0.028  1.8154 -0.8298  1.2215
  221SOL     OW 2669   4.090  10.044   3.995  0.2067 -0.0580 -0.1054
  221SOL    HW1 2670   4.042  10.001   4.066  0.4493  0.3671  0.3181
  221SOL    HW2 2671   4.050  10.130   3.986 -1.0301 -0.7404 -1.7160
  222SOL     OW 2672  10.590   7.837   6.367  0.2283 -0.3396  0.3913
  222SOL    HW1 2673  10.612   7.930   6.365 -0.5029 -0.1687 -0.5407
  222SOL    HW2 2674  10.544   7.821   6.284 -2.2048 -0.8898  1.7256
  223SOL     OW 2675   6.308   2.381   0.840  0.5732 -0.8946  0.2214
  223SOL    HW1 2676   6.242   2.323   0.879  0.8080 -1.9326 -0.8686
  223SOL    HW2 2677   6.261   2.430   0.774  0.3676  0.2307  1.1659
  224SOL     OW 2678   1.451   5.763   1.891 -0.0414  0.1888 -0.2093
  224SOL    HW1 2679   1.520   5.720   1.842  0.8227  2.0147 -0.6655
  224SOL    HW2 2680   1.402   5.814   1.826 -1.7452 -0.9147  0.1297
  225SOL     OW 2681   2.990   9.372   6.638  0.4110  0.0552  0.8586
  225SOL    HW1 2682   2.940   9.450   6.661  1.6395  0.7391  1.3394
  225SOL    HW2 2683   3.080   9.393   6.664  1.3251 -0.3860 -1.6182
  226SOL     OW 2684   0.980  10.598   3.358  0.1846 -0.5937  0.1106
  226SOL    HW1 2685   1.001  10.594   3.452  0.3118 -1.8146  0.0565
  226SOL    HW2 2686   1.065  10.592   3.315  0.2933  1.8117 -0.1046
  227SOL     OW 2687   5.997   0.949   8.551  0.3727  0.0074 -0.6185
  227SOL    HW1 2688   5.997   1.036   8.510  0.8903 -0.1864 -1.0407
  227SOL    HW2 2689   6.020   0.966   8.643 -1.9289  0.5718 -0.0692
  228SOL     OW 2690   5.928   0.349   4.127 -0.3280 -0.1170  0.1687
  228SOL    HW1 2691   6.007   0.402   4.136 -0.1974 -0.2963  0.0763
  228SOL    HW2 2692   5.907   0.354   4.033 -0.5392  0.0934  0.2259
  229SOL     OW 2693   9.525   8.287   9.505 -0.3130 -0.7371  0.0265
  229SOL    HW1 2694   9.521   8.238   9.422 -2.0712 -0.0949 -0.2981
  229SOL    HW2 2695   9.542   8.377   9.479  1.8955 -0.9232  0.5746
  230SOL     OW 2696   2.268   9.205   8.065 -0.1210  0.3997 -0.5859
  230SOL    HW1 2697   2.208   9.262   8.017 -0.6772 -0.3987 -0.8639
  230SOL    HW2 2698   2.218   9.125   8.080  0.2185  0.4278  0.8717
  231SOL     OW 2699   4.146   8.639   2.238 -0.4957 -0.5221  0.3147
  231SOL    HW1 2700   4.174   8.674   2.322 -0.4382  0.6625 -0.1770
  231SOL    HW2 2701   4.131   8.546   2.254 -1.5750 -0.1074  1.9014
  232SOL     OW 2702   7.738   6.786   2.205  0.1039  0.5507  0.4051
  232SOL    HW1 2703   7.648   6.770   2.233 -0.3279  0.0256 -1.1937
  232SOL    HW2 2704   7.774   6.699   2.190 -0.9217  0.6744 -4.2628
  233SOL     OW 2705   0.539   9.340   7.446  0.3929  0.4092 -0.4097
  233SOL    HW1 2706   0.452   9.336   7.486 -0.7893  2.2800 -2.5634
  233SOL    HW2 2707   0.594   9.382   7.512 -0.2746 -0.8208  0.9857
  234SOL     OW 2708  10.417   0.810  10.061  0.6166 -0.0203 -0.7782
  234SOL    HW1 2709  10.324   0.832  10.054  0.6748  0.7130  0.6321
  234SOL    HW2 2710  10.424   0.725  10.016 -0.9531 -0.6811  0.1521
  235SOL     OW 2711   7.914  10.452   5.607  0.4294 -0.4425  0.4623
  235SOL    HW1 2712   7.975  10.404   5.663  1.1027  1.6233  1.6206
  235SOL    HW2 2713   7.930  10.418   5.519  2.6314 -0.5976  0.8590
  236SOL     OW 2714   1.501   4.290   8.922 -0.0367 -0.4378 -0.0598
  236SOL    HW1 2715   1.555   4.254   8.992 -1.0943 -1.5459  0.2327
  236SOL    HW2 2716   1.419   4.240   8.927 -0.7846  0.6319 -0.9896
  237SOL     OW 2717   4.413   0.189   7.863 -0.1679 -0.6406 -0.2939
  237SOL    HW1 2718   4.421   0.239   7.944  0.4428  0.5906 -1.0917
  237SOL    HW2 2719   4.441   0.100   7.887 -1.3895 -0.6806  1.1644
  238SOL     OW 2720   1.989   4.100   7.922  0.9925  0.5179 -0.8498
  238SOL    HW1 2721   2.073   4.145   7.917  2.0961 -1.4805 -1.0780
  238SOL    HW2 2722   1.974   4.068   7.833  0.3227  0.2715 -0.6528
  239SOL     OW 2723   3.795   2.418   0.634 -0.0582  0.2712  0.1944
  239SOL    HW1 2724   3.727   2.351   0.636  0.1099  0.1041  2.3122
  239SOL    HW2 2725   3.811   2.432   0.541 -2.8553  0.2246 -0.3899
  240SOL     OW 2726  10.151   0.356   8.382 -0.4401  0.0957  0.0200
  240SOL    HW1 2727  10.210   0.282   8.392  0.3811  0.6808 -0.4091
  240SOL    HW2 2728  10.071   0.319   8.346 -0.2984 -0.6900  0.4985
  241SOL     OW 2729   9.614   8.056   7.019 -0.2336  0.0179  0.0544
  241SOL    HW1 2730   9.594   7.987   6.956 -0.8593  0.5697 -0.3620
  241SOL    HW2 2731   9.597   8.138   6.972 -2.9277  0.4401  1.5915
  242SOL     OW 2732   1.003   5.993   9.493 -0.1699  0.3371 -0.2506
  242SOL    HW1 2733   1.070   5.957   9.551  0.0413  1.1236  0.0068
  242SOL    HW2 2734   1.052   6.033   9.421 -0.3031  1.7408  0.4127
  243SOL     OW 2735   4.363   3.455   8.527  0.8428  0.5888  0.0535
  243SOL    HW1 2736   4.396   3.499   8.606  0.8233  1.1024 -0.2214
  243SOL    HW2 2737   4.283   3.410   8.557 -0.5174  2.7128 -0.1592
  244SOL     OW 2738   0.789   1.984   5.104 -0.2815 -0.4936 -0.6991
  244SOL    HW1 2739   0.860   2.005   5.045  1.2472  2.9502  2.0044
  244SOL    HW2 2740   0.715   2.036   5.072  0.4050  1.0005  0.0414
  245SOL     OW 2741   1.448   5.404   4.261  0.4264 -0.1848 -0.6513
  245SOL    HW1 2742   1.449   5.382   4.167  0.9248 -1.0336 -0.4576
  245SOL    HW2 2743   1.539   5.396   4.288  0.7192  2.3664 -0.5798
  246SOL     OW 2744   8.700   5.316   3.644 -1.1100 -0.5701 -0.4591
  246SOL    HW1 2745   8.633   5.303   3.711 -0.8162 -2.4892 -0.4832
  246SOL    HW2 2746   8.762   5.378   3.683 -3.2991  2.0656 -0.7987
  247SOL     OW 2747   8.990   8.674   5.205  0.3858 -0.3865 -0.1994
  247SOL    HW1 2748   9.043   8.738   5.252 -0.6311  1.5026 -1.5221
  247SOL    HW2 2749   9.052   8.626   5.150  0.9838  0.3969 -0.2095
  248SOL     OW 2750   0.234  10.633   3.658 -0.7930 -0.3463 -0.3773
  248SOL    HW1 2751   0.200  10.640   3.569 -0.8570 -0.0072 -0.3255
  248SOL    HW2 2752   0.297  10.705   3.665 -0.8050 -0.3597 -0.1402
  249SOL     OW 2753   7.381   8.853   4.852  0.5458  0.1016  0.0848
  249SOL    HW1 2754   7.324   8.838   4.928  0.8622  1.5405  0.6376
  249SOL    HW2 2755   7.435   8.928   4.877  0.6337  0.6324 -1.5839
  250SOL     OW 2756   2.127   0.022   8.800 -0.1121 -0.2293 -0.1236
  250SOL    HW1 2757   2.118   0.062   8.886 -1.5762  0.0354 -0.3750
  250SOL    HW2 2758   2.152   0.094   8.742 -0.0105 -0.2330 -0.0854
  251SOL     OW 2759   4.603   5.122   1.610 -0.6431  0.7487  0.6392
  251SOL    HW1 2760   4.529   5.061   1.612 -0.7286  0.6844 -1.6359
  251SOL    HW2 2761   4.562   5.209   1.620 -1.3306  0.8537 -2.2040
  252SOL     OW 2762   5.129   1.061   9.832 -0.2823  0.0156 -0.1058
  252SOL    HW1 2763   5.036   1.043   9.843 -0.2699  0.6820  1.3591
  252SOL    HW2 2764   5.169   0.975   9.816 -1.1359 -0.2672 -0.7530
  253SOL     OW 2765   7.410   1.124   3.236  0.2949 -0.2514 -0.1991
  253SOL    HW1 2766   7.483   1.186   3.242 -0.5419  0.8041 -0.4766
  253SOL    HW2 2767   7.447   1.039   3.260  1.2186  0.5609  1.3838
  254SOL     OW 2768   7.688   2.480  10.696 -0.5394 -0.1916  0.1525
  254SOL    HW1 2769   7.713   2.412  10.758 -0.4598  0.0497  0.3863
  254SOL    HW2 2770   7.683   2.435  10.612  1.6134 -0.0832 -0.0945
  255SOL     OW 2771   8.655   5.897   0.295 -0.1770  0.1713  0.0937
  255SOL    HW1 2772   8.621   5.932   0.212 -0.6136  0.4073  0.3733
  255SOL    HW2 2773   8.604   5.818   0.311 -2.1050  1.6314  1.5864
  256SOL     OW 2774   0.181   3.072  10.563  0.8414 -0.0771  0.5984
  256SOL    HW1 2775   0.143   3.157  10.587  0.2836 -0.3749  0.8151
  256SOL    HW2 2776   0.273   3.090  10.546  0.4205  0.8458 -0.8691
  257SOL     OW 2777   6.800   6.791   2.013 -0.3340 -0.0715 -0.2766
  257SOL    HW1 2778   6.807   6.886   2.026 -0.6438 -0.1919  0.9243
  257SOL    HW2 2779   6.742   6.762   2.084 -2.3345 -0.8274 -2.1029
  258SOL     OW 2780   8.005   4.937  10.297 -0.5660  0.0055 -0.3755
  258SOL    HW1 2781   8.093   4.956  10.266 -0.2293 -0.1276  0.4713
  258SOL    HW2 2782   7.996   4.842  10.289 -0.8456  0.0787 -0.9918
  259SOL     OW 2783   0.228   1.344   4.500 -0.3657  0.2243  0.1154
  259SOL    HW1 2784   0.234   1.418   4.560  4.1241  0.0459  0.2144
  259SOL    HW2 2785   0.164   1.372   4.435 -1.0720  2.9011  1.7827
  260SOL     OW 2786   3.254   6.522   2.197  0.6760 -0.4811 -0.4924
  260SOL    HW1 2787   3.214   6.485   2.275 -0.5914  0.1270 -0.8199
  260SOL    HW2 2788   3.311   6.453   2.163 -0.6479 -1.6579 -0.3926
  261SOL     OW 2789   5.556   2.518   0.082 -0.6024 -0.5213 -0.2502
  261SOL    HW1 2790   5.511   2.538   0.000 -0.9192 -1.6318 -0.3596
  261SOL    HW2 2791   5.548   2.597   0.135 -0.9185 -0.0134 -1.0591
  262SOL     OW 2792   1.445   2.957   3.476  0.1302  0.5144 -0.0701
  262SOL    HW1 2793   1.414   2.993   3.393  1.0507 -0.2789 -0.7854
  262SOL    HW2 2794   1.474   3.034   3.525  0.7110  0.9043 -0.9852
  263SOL     OW 2795   9.598   0.383   7.634  0.2000 -0.1511  0.6791
  263SOL    HW1 2796   9.646   0.430   7.702 -0.8822 -0.3687  1.6113
  263SOL    HW2 2797   9.589   0.446   7.563  0.5703  0.3723  1.0934
  264SOL     OW 2798   5.307   7.642   1.219  0.4614 -0.2232 -0.5156
  264SOL    HW1 2799   5.277   7.660   1.130 -1.4949  1.2202  0.3319
  264SOL    HW2 2800   5.307   7.728   1.261  0.7579 -0.9463  1.0298
  265SOL     OW 2801   7.771   2.539   8.094  0.7064 -0.3443  1.1889
  265SOL    HW1 2802   7.755   2.466   8.153 -0.1436 -1.4284 -0.3217
  265SOL    HW2 2803   7.697   2.598   8.108  0.1314 -0.9437  0.7248
  266SOL     OW 2804   3.740   3.166   1.441 -0.1471 -0.2703 -0.3217
  266SOL    HW1 2805   3.673   3.217   1.485 -1.4030 -2.4969  0.4875
  266SOL    HW2 2806   3.781   3.228   1.380 -1.9634  1.5131  0.1654
  267SOL     OW 2807   1.642   6.197   1.148 -0.5908 -0.6788  0.0552
  267SOL    HW1 2808   1.717   6.246   1.114 -2.4236  1.4392 -1.2053
  267SOL    HW2 2809   1.648   6.207   1.243 -0.3890  1.2687 -0.1234
  268SOL     OW 2810   4.833   5.946   6.016  0.3501  0.5832  0.4447
  268SOL    HW1 2811   4.842   6.040   6.003 -0.2356  0.5250 -0.4205
  268SOL    HW2 2812   4.775   5.938   6.093 -2.0027  0.9724 -1.1701
  269SOL     OW 2813   1.879   7.215   1.758 -0.1236 -0.0230  0.0751
  269SOL    HW1 2814   1.840   7.270   1.690 -1.1623 -0.5149  0.2463
  269SOL    HW2 2815   1.939   7.157   1.710 -0.5514 -0.1028 -0.3770
  270SOL     OW 2816   0.264   0.495   3.660 -0.0712  0.1924  0.5805
  270SOL    HW1 2817   0.320   0.524   3.587 -1.3387 -1.3743 -1.1215
  270SOL    HW2 2818   0.203   0.567   3.673  0.9360  1.0072  0.9816
  271SOL     OW 2819   9.642   7.837  11.008  0.1873  0.9115  0.1328
  271SOL    HW1 2820   9.659   7.764  11.068  0.2243  0.1149 -0.8295
  271SOL    HW2 2821   9.714   7.833  10.945 -1.1694  0.1775 -1.4335
  272SOL     OW 2822   4.704   6.843   0.971  0.1555 -0.6588 -0.3209
  272SOL    HW1 2823   4.749   6.917   1.010  0.6536 -0.5315 -1.1151
  272SOL    HW2 2824   4.619   6.878   0.944 -1.2326 -1.3292  2.8223
  273SOL     OW 2825   3.930   4.062   5.664 -0.2287  0.2604  0.3039
  273SOL    HW1 2826   3.853   4.033   5.615 -3.1139  2.0300  3.3567
  273SOL    HW2 2827   3.957   4.143   5.621 -0.3901 -0.1297 -0.5322
  274SOL     OW 2828   0.888   3.851   4.220 -0.3894 -0.2540  0.0322
  274SOL    HW1 2829   0.852   3.795   4.289 -1.8243 -1.5647 -1.6860
  274SOL    HW2 2830   0.892   3.794   4.143 -0.6673  1.6713 -1.4721
  275SOL     OW 2831   1.877   1.815   5.110  0.1309  0.3256 -0.5459
  275SOL    HW1 2832   1.815   1.751   5.075 -1.1216  0.5417  1.1751
  275SOL    HW2 2833   1.882   1.882   5.042 -3.2859  1.4367  0.1007
  276SOL     OW 2834   4.123   7.057   0.854 -0.1932 -0.2884 -0.4687
  276SOL    HW1 2835   4.172   7.007   0.788 -0.4491 -1.2840  0.0659
  276SOL    HW2 2836   4.040   7.010   0.861  0.3132 -0.9640  1.4775
  277SOL     OW 2837   5.349   0.741   3.955  0.3324  0.3077  0.3595
  277SOL    HW1 2838   5.264   0.696   3.956  0.5893 -0.1805  0.5018
  277SOL    HW2 2839   5.413   0.670   3.965  0.7456  0.6996  0.4812
  278SOL     OW 2840   4.767   4.851   7.656 -0.8340  0.2522 -0.1958
  278SOL    HW1 2841   4.820   4.786   7.609  1.2856  0.3019  1.9198
  278SOL    HW2 2842   4.806   4.935   7.631  2.6341  0.1807  3.8340
  279SOL     OW 2843   6.337   2.233   8.487  0.2849  0.2321 -0.5027
  279SOL    HW1 2844   6.422   2.205   8.521 -0.7125 -0.9677  1.1627
  279SOL    HW2 2845   6.274   2.175   8.529 -1.3549  0.9113 -1.9055
  280SOL     OW 2846   2.673   5.311   7.555 -0.6385 -0.5144  0.3644
  280SOL    HW1 2847   2.589   5.303   7.600 -1.0144  2.8812  0.5251
  280SOL    HW2 2848   2.692   5.405   7.555  2.9902 -1.0813 -0.0274
  281SOL     OW 2849   4.493   1.829   1.259  0.5166  0.4501  0.2824
  281SOL    HW1 2850   4.582   1.859   1.278  1.5284 -2.4698  0.5921
  281SOL    HW2 2851   4.437   1.890   1.307  2.3746  1.7000  0.9844
  282SOL     OW 2852  10.089   2.702   8.689  0.0263  0.1562 -0.2228
  282SOL    HW1 2853  10.042   2.692   8.606 -1.5172  1.4919  0.4570
  282SOL    HW2 2854  10.070   2.622   8.737  1.4872 -0.9468 -1.3668
  283SOL     OW 2855   8.912  10.101   6.034 -0.5180  0.1938  0.1632
  283SOL    HW1 2856   8.916  10.081   5.940 -1.8104  0.6276 -0.0038
  283SOL    HW2 2857   8.980  10.046   6.073  0.0257 -0.0020 -1.0259
  284SOL     OW 2858   2.901   1.137   0.875  0.2214 -0.8218 -0.4773
  284SOL    HW1 2859   2.868   1.177   0.795  0.7028  0.7466  0.0680
  284SOL    HW2 2860   2.986   1.100   0.851  0.4087 -0.2663 -0.6768
  285SOL     OW 2861   5.018   5.791   1.757 -0.2319  0.6503  0.4042
  285SOL    HW1 2862   4.981   5.817   1.842  0.0430  1.1519  0.3755
  285SOL    HW2 2863   5.042   5.874   1.715 -0.6536  0.4333 -0.3012
  286SOL     OW 2864   3.688   6.662   9.584 -0.6726 -0.0684 -0.4192
  286SOL    HW1 2865   3.713   6.655   9.676  0.1321  0.1792 -0.6118
  286SOL    HW2 2866   3.665   6.573   9.559 -1.1351 -0.0944  0.0859
  287SOL     OW 2867   7.259   7.615   0.241  0.1225  0.4550 -0.3061
  287SOL    HW1 2868   7.227   7.671   0.171 -1.5842 -0.1715 -0.0830
  287SOL    HW2 2869   7.335   7.661   0.276 -0.8187  2.2970 -0.5538
  288SOL     OW 2870   3.781   7.811   7.723  0.2214 -0.4099 -0.0029
  288SOL    HW1 2871   3.839   7.778   7.792  1.0764  1.8905  0.4469
  288SOL    HW2 2872   3.807   7.902   7.711 -0.0168 -0.6563 -3.2638
  289SOL     OW 2873   8.008   7.642   4.781 -0.3222 -0.0118 -0.1572
  289SOL    HW1 2874   7.976   7.599   4.861  1.9860 -1.6438 -0.0307
  289SOL    HW2 2875   8.034   7.730   4.810  0.1723 -0.4666  0.8288
  290SOL     OW 2876   8.212   9.069   4.602  0.1005 -0.1828  0.1579
  290SOL    HW1 2877   8.213   8.983   4.559 -1.0778  0.2281 -0.7436
  290SOL    HW2 2878   8.216   9.048   4.695  0.0384 -1.2187 -0.0524
  291SOL     OW 2879   8.201  10.118   6.051 -0.5733 -0.2852  0.0443
  291SOL    HW1 2880   8.181  10.044   5.994 -1.4212  1.0647 -1.4657
  291SOL    HW2 2881   8.244  10.182   5.994  1.3693 -0.1051  1.6112
  292SOL     OW 2882   0.002   9.535   7.332  0.3021 -0.5312 -0.4678
  292SOL    HW1 2883   0.072   9.476   7.304 -0.3441 -2.1020  1.0574
  292SOL    HW2 2884  -0.079   9.491   7.306 -0.1968  1.2094 -2.1061
  293SOL     OW 2885   3.843   2.269   3.152  0.1625  0.1407  0.2747
  293SOL    HW1 2886   3.934   2.284   3.179  0.8593 -1.7194 -0.8718
  293SOL    HW2 2887   3.823   2.342   3.093  0.5624  1.0710  1.2441
  294SOL     OW 2888   2.754   7.073   6.003  0.2714 -0.4316  0.0117
  294SOL    HW1 2889   2.824   7.009   5.989 -0.9902 -2.7747  3.1940
  294SOL    HW2 2890   2.784   7.124   6.078  0.5419  1.8169 -1.5208
  295SOL     OW 2891   3.205   1.488   0.835 -0.4555  0.8433 -0.4156
  295SOL    HW1 2892   3.279   1.451   0.787 -1.0448  0.4599 -1.0444
  295SOL    HW2 2893   3.171   1.415   0.888  0.5866  1.4229  1.1137
  296SOL     OW 2894  10.936  10.216   9.299  0.5854  0.3328 -0.1626
  296SOL    HW1 2895  11.012  10.164   9.328  0.5907 -0.1477 -1.0148
  296SOL    HW2 2896  10.941  10.214   9.204 -1.0158 -0.4943 -0.2594
  297SOL     OW 2897   2.881   0.272  10.802  0.7215  0.2182  0.3317
  297SOL    HW1 2898   2.892   0.295  10.895 -0.8927 -0.1438  0.6356
  297SOL    HW2 2899   2.789   0.287  10.784  0.3902 -2.3276 -0.4720
  298SOL     OW 2900   0.523   2.570   6.325  0.7576 -0.4626 -0.1974
  298SOL    HW1 2901   0.603   2.550   6.374  2.0194  1.4972 -1.3355
  298SOL    HW2 2902   0.456   2.515   6.365  2.8280 -2.8344  0.2395
  299SOL     OW 2903  11.072   9.384   8.235 -0.0944  0.2176  0.0367
  299SOL    HW1 2904  11.155   9.360   8.194  0.1419 -1.8979  1.5630
  299SOL    HW2 2905  11.005   9.363   8.170  0.3349 -2.1374  0.2484
  300SOL     OW 2906   8.639  10.391   0.425 -0.2743 -0.0946  0.2246
  300SOL    HW1 2907   8.675  10.303   0.437  0.1888  0.0228 -0.2616
  300SOL    HW2 2908   8.546  10.377   0.407 -0.1530 -0.5023 -0.0981
  301SOL     OW 2909   8.893   8.130   1.732  0.1748  0.2455 -0.5162
  301SOL    HW1 2910   8.802   8.098   1.733  0.0563  0.5871  0.5378
  301SOL    HW2 2911   8.945   8.052   1.711 -0.1614 -0.5511  1.4150
  302SOL     OW 2912   0.429   7.985   0.205 -0.4799 -0.6416  0.2982
  302SOL    HW1 2913   0.490   8.002   0.134 -1.0754 -1.0824 -0.3380
  302SOL    HW2 2914   0.475   7.926   0.264 -0.5757 -1.6252 -0.5942
  303SOL     OW 2915   8.595  10.071   9.702 -0.1823  0.7770  0.0246
  303SOL    HW1 2916   8.672  10.047   9.754 -0.6094 -0.2698  0.1866
  303SOL    HW2 2917   8.629  10.079   9.613  0.9593  4.3906  0.5830
  304SOL     OW 2918   1.444   3.429   2.233 -0.2399 -0.5753 -0.4893
  304SOL    HW1 2919   1.365   3.409   2.183 -0.7125 -3.9098  1.3531
  304SOL    HW2 2920   1.492   3.491   2.178 -3.6115  0.8499 -2.1176
  305SOL     OW 2921   5.388   3.013  11.027 -0.1094 -0.0954  0.0981
  305SOL    HW1 2922   5.469   3.052  10.994  1.2755 -1.9635  1.0997
  305SOL    HW2 2923   5.318   3.058  10.980  1.5589  0.7605 -1.6648
  306SOL     OW 2924   7.110   8.220  10.434  0.0297  0.0959 -0.6126
  306SOL    HW1 2925   7.134   8.288  10.371 -0.1828  1.8326  1.0775
  306SOL    HW2 2926   7.025   8.247  10.468 -0.2998 -1.3119 -0.2323
  307SOL     OW 2927   0.655   7.063   3.758 -0.0378 -0.8306 -0.1318
  307SOL    HW1 2928   0.603   7.038   3.835 -0.3034  0.3166  0.0764
  307SOL    HW2 2929   0.651   6.986   3.701 -0.5900 -1.3691  0.6016
  308SOL     OW 2930   2.890   1.480   0.172  0.6538  0.7652  0.1945
  308SOL    HW1 2931   2.942   1.497   0.093  2.4437  1.2013  1.4154
  308SOL    HW2 2932   2.940   1.415   0.221 -0.2673  0.7316  1.1426
  309SOL     OW 2933   2.576  10.806   0.494 -0.2107 -0.1307  0.7398
  309SOL    HW1 2934   2.569  10.866   0.419  1.7915  0.5819  1.0690
  309SOL    HW2 2935   2.638  10.739   0.465 -0.1585 -0.3854  1.4276
  310SOL     OW 2936   3.724   9.191   9.224  0.0991 -0.7543 -0.3355
  310SOL    HW1 2937   3.670   9.269   9.215 -0.3159 -1.2570 -3.0305
  310SOL    HW2 2938   3.694   9.133   9.154  1.0565 -2.9515  0.9669
  311SOL     OW 2939   5.503   4.931   3.712  0.2188  0.4061  0.2832
  311SOL    HW1 2940   5.553   4.993   3.765 -1.1378  0.0597  2.0512
  311SOL    HW2 2941   5.499   4.851   3.765 -2.6547  0.6032  0.5071
  312SOL     OW 2942   6.718   5.322   2.938  0.1296 -0.7097 -0.5993
  312SOL    HW1 2943   6.663   5.394   2.910 -0.6871 -1.5635 -1.2624
  312SOL    HW2 2944   6.800   5.363   2.966 -0.3416  0.4620 -0.9066
  313SOL     OW 2945   3.337   1.951   8.879 -0.1424  0.5603 -0.2806
  313SOL    HW1 2946   3.293   2.031   8.906  0.0688 -0.1707  2.5929
  313SOL    HW2 2947   3.274   1.882   8.896  0.3307 -0.0437 -0.9364
  314SOL     OW 2948   1.568   3.645   2.122 -0.0206  0.1718  0.0410
  314SOL    HW1 2949   1.544   3.724   2.170 -0.0627  0.6305 -0.7167
  314SOL    HW2 2950   1.662   3.636   2.136 -0.0506  0.2422  0.2917
  315SOL     OW 2951   6.721   9.612   2.359 -0.3509 -0.0962 -0.1411
  315SOL    HW1 2952   6.692   9.637   2.272 -0.3610 -0.1247 -0.1455
  315SOL    HW2 2953   6.644   9.627   2.415  0.0274  1.1551  0.0904
  316SOL     OW 2954   7.832   2.273   4.219  0.4874  0.1140 -0.3276
  316SOL    HW1 2955   7.910   2.231   4.182 -0.3126 -1.0713 -0.7471
  316SOL    HW2 2956   7.762   2.252   4.157 -0.3766  0.2915  0.5576
  317SOL     OW 2957   4.726   5.168   8.793 -0.4692 -0.0149 -0.1822
  317SOL    HW1 2958   4.770   5.162   8.878 -2.6669  0.3698  1.0533
  317SOL    HW2 2959   4.793   5.144   8.730  1.8558  1.7467  1.4504
  318SOL     OW 2960   6.945   5.937   4.282  0.0357  0.7821  0.5019
  318SOL    HW1 2961   6.874   5.892   4.238  1.0050  1.3014 -1.7358
  318SOL    HW2 2962   6.905   5.974   4.361 -1.4902 -1.2365  0.7470
  319SOL     OW 2963   7.370   3.737   1.389  0.0389  0.3264 -0.3888
  319SOL    HW1 2964   7.369   3.833   1.395 -1.5082  0.3028  0.2247
  319SOL    HW2 2965   7.302   3.716   1.325 -0.9856 -0.4174  0.9077
  320SOL     OW 2966   5.521   2.885   1.973  0.2548 -0.4282  0.2861
  320SOL    HW1 2967   5.476   2.833   2.039 -0.1150  0.3166  0.6265
  320SOL    HW2 2968   5.566   2.954   2.023 -0.4746  0.4746 -0.2732
  321SOL     OW 2969   6.617  10.739   1.837  0.3707  0.1052  0.4884
  321SOL    HW1 2970   6.608  10.667   1.901  0.4618 -0.1442  0.2223
  321SOL    HW2 2971   6.575  10.705   1.758  0.1224  0.4756  0.4598
  322SOL     OW 2972   9.596   3.728   4.136 -0.2521 -0.5118 -0.1386
  322SOL    HW1 2973   9.579   3.637   4.163 -1.1921 -0.0750  0.7738
  322SOL    HW2 2974   9.596   3.724   4.041  1.0009 -1.7013 -0.1328
  323SOL     OW 2975   2.959   2.630   8.563  0.7105  0.0130  0.4026
  323SOL    HW1 2976   3.005   2.691   8.621  1.9014 -0.5390  0.0690
  323SOL    HW2 2977   3.014   2.625   8.485  0.3453 -1.0702  0.2054
  324SOL     OW 2978   0.349   7.092   8.025  0.2442 -0.3051 -0.3498
  324SOL    HW1 2979   0.266   7.139   8.031  1.5691  2.1907 -0.4261
  324SOL    HW2 2980   0.326   7.009   7.984 -2.5444 -0.6862  1.7183
  325SOL     OW 2981   3.551   7.940   3.740  0.0681  0.1997 -0.4075
  325SOL    HW1 2982   3.493   7.957   3.813 -0.1378 -1.5164 -0.1281
  325SOL    HW2 2983   3.544   8.017   3.684 -3.1407 -0.2823 -0.8177
  326SOL     OW 2984   3.517   0.118   8.729 -0.5474  0.1468  0.3733
  326SOL    HW1 2985   3.561   0.146   8.810 -0.5630  3.4957 -0.6473
  326SOL    HW2 2986   3.424   0.131   8.747 -0.6102  0.0494  0.1216
  327SOL     OW 2987   5.732   7.375  10.707  0.1375  0.3816 -0.0859
  327SOL    HW1 2988   5.682   7.294  10.718 -0.1073  0.3793 -1.1517
  327SOL    HW2 2989   5.709   7.428  10.784 -1.1493  0.1999 -0.3267
  328SOL     OW 2990   3.771   9.549   7.419  0.1773  0.0234  0.2809
  328SOL    HW1 2991   3.771   9.564   7.324 -1.5218 -0.0219  0.2405
  328SOL    HW2 2992   3.715   9.618   7.454  2.0213  1.0106  1.4708
  329SOL     OW 2993  10.457   5.361   3.760 -0.5424  0.5648  1.0083
  329SOL    HW1 2994  10.522   5.386   3.827  1.5582 -2.2724  0.2009
  329SOL    HW2 2995  10.437   5.269   3.778 -0.9157  0.0891 -1.4698
  330SOL     OW 2996   7.644   9.479   7.491 -0.4829  0.0614  0.2620
  330SOL    HW1 2997   7.631   9.438   7.405 -0.7296 -0.8270  0.7077
  330SOL    HW2 2998   7.707   9.548   7.475  0.4783 -0.9272 -0.4124
  331SOL     OW 2999   2.737   6.446   3.772  0.4279 -0.3262  0.7139
  331SOL    HW1 3000   2.680   6.373   3.797  0.8435 -0.8171  0.2551
  331SOL    HW2 3001   2.815   6.435   3.826 -0.3683  1.0415  2.2249
  332SOL     OW 3002   2.391   7.886   4.599  0.3685 -0.3217 -1.0535
  332SOL    HW1 3003   2.412   7.965   4.550  2.4829 -0.1448 -0.0045
  332SOL    HW2 3004   2.297   7.890   4.614  0.5718  2.7024  0.0884
  333SOL     OW 3005   2.847   8.285   6.775 -0.0029 -0.4438  0.0817
  333SOL    HW1 3006   2.905   8.357   6.750  2.7564 -1.2603  3.4060
  333SOL    HW2 3007   2.896   8.206   6.753 -0.8451 -1.2150  0.8697
  334SOL     OW 3008   0.939   3.346   8.292  0.4117 -0.1648  0.2000
  334SOL    HW1 3009   0.863   3.288   8.294  1.7998 -2.1255  2.6781
  334SOL    HW2 3010   0.988   3.319   8.215 -0.2169 -0.5309 -0.0774
  335SOL     OW 3011   9.243   4.498   5.522  0.5164 -0.4134 -0.0828
  335SOL    HW1 3012   9.160   4.511   5.476  0.2606  1.9473  0.9042
  335SOL    HW2 3013   9.290   4.581   5.511  1.9609 -1.0487  0.9375
  336SOL     OW 3014   3.673   8.690   7.899  0.3455  0.0435  0.4248
  336SOL    HW1 3015   3.693   8.757   7.964  0.1572  0.1039  0.4224
  336SOL    HW2 3016   3.621   8.736   7.833 -0.7574 -0.3533  0.9913
  337SOL     OW 3017   5.600   3.723   0.862  1.5608  0.5972 -0.1907
  337SOL    HW1 3018   5.624   3.673   0.940  3.1096  2.6515  0.7518
  337SOL    HW2 3019   5.607   3.815   0.890 -2.4803  1.4683 -1.4025
  338SOL     OW 3020   9.570   3.155   5.794 -0.1552 -0.2628 -0.3258
  338SOL    HW1 3021   9.630   3.208   5.845  0.1984  0.8313 -1.7911
  338SOL    HW2 3022   9.625   3.093   5.747 -0.3342 -0.3516 -0.4224
  339SOL     OW 3023   1.091   6.748   3.065 -0.1501 -0.2937  0.0476
  339SOL    HW1 3024   1.099   6.693   2.987  0.1134  0.6905 -0.6376
  339SOL    HW2 3025   1.171   6.800   3.065 -1.2608  1.4914 -0.4288
  340SOL     OW 3026   3.682   7.808   5.947 -0.0511 -0.0414  0.2040
  340SOL    HW1 3027   3.744   7.736   5.935 -0.9243 -0.8846  0.5800
  340SOL    HW2 3028   3.655   7.802   6.038 -1.5875 -0.4731 -0.2379
  341SOL     OW 3029   5.523   6.843   8.041  0.0578  0.2289  0.2588
  341SOL    HW1 3030   5.596   6.904   8.047 -1.0090  1.5103  0.8578
  341SOL    HW2 3031   5.487   6.857   7.953  1.0840 -1.1207 -0.4222
  342SOL     OW 3032   9.290   1.671   4.313 -0.6081  0.2159 -0.4754
  342SOL    HW1 3033   9.200   1.665   4.281 -0.5843 -0.1854 -0.4721
  342SOL    HW2 3034   9.335   1.598   4.270 -0.4900 -0.1113  0.1876
  343SOL     OW 3035   0.365   5.792   5.572  0.5210  0.3176  1.0565
  343SOL    HW1 3036   0.273   5.768   5.581  1.0289 -1.9879  0.9414
  343SOL    HW2 3037   0.376   5.867   5.629 -1.2855  0.1962  1.6280
  344SOL     OW 3038   9.229   8.420   2.378 -0.0973 -0.3398 -0.5721
  344SOL    HW1 3039   9.212   8.489   2.442 -0.3400 -0.7412 -0.1943
  344SOL    HW2 3040   9.149   8.367   2.377  1.2773 -2.7142  1.8163
  345SOL     OW 3041   4.083   8.679   7.969  0.5543 -0.4194  0.1182
  345SOL    HW1 3042   4.044   8.617   8.031 -0.3110  1.8118  1.9571
  345SOL    HW2 3043   4.129   8.742   8.024  1.5642  0.4904 -1.6839
  346SOL     OW 3044   6.883   9.141   4.346 -0.5052 -0.2027  0.3609
  346SOL    HW1 3045   6.900   9.136   4.440 -0.6661  0.2018  0.4154
  346SOL    HW2 3046   6.864   9.051   4.320 -1.1458 -0.2242  0.8559
  347SOL     OW 3047   7.631   0.012   6.430 -0.1402  0.0674  0.0781
  347SOL    HW1 3048   7.607  -0.046   6.357 -0.4652 -0.6832  0.7630
  347SOL    HW2 3049   7.549   0.055   6.454 -0.5961 -1.5688  1.6126
  348SOL     OW 3050   2.324  10.504   3.940  0.5139 -0.1169  0.5596
  348SOL    HW1 3051   2.345  10.539   4.026  0.0495  1.0459  0.2135
  348SOL    HW2 3052   2.295  10.580   3.889  1.9543 -0.5540 -1.0086
  349SOL     OW 3053   7.668   0.897   6.027  0.7039  0.2592 -0.1468
  349SOL    HW1 3054   7.581   0.919   6.059  0.8573  0.2953  0.2463
  349SOL    HW2 3055   7.707   0.844   6.097  0.7893 -0.2374 -0.5631
  350SOL     OW 3056   3.395   9.529   2.985 -0.2466  0.3419 -0.3103
  350SOL    HW1 3057   3.459   9.597   3.006 -0.7508  0.8692 -0.4613
  350SOL    HW2 3058   3.393   9.473   3.063  0.7859  0.0067 -0.5112
  351SOL     OW 3059  10.220   8.142   0.774  0.6744  0.5870  0.3446
  351SOL    HW1 3060  10.314   8.157   0.781  0.5979  0.8987  0.6965
  351SOL    HW2 3061  10.180   8.211   0.827  0.2866 -0.2625  1.1895
  352SOL     OW 3062   6.660   3.070   0.817 -0.1517 -0.1309  0.2127
  352SOL    HW1 3063   6.593   3.009   0.784 -2.3826  0.9124  2.5278
  352SOL    HW2 3064   6.688   3.032   0.900 -1.5318  1.8739  1.6686
  353SOL     OW 3065   1.920   3.147   4.588  0.3664  0.1579 -0.4872
  353SOL    HW1 3066   1.873   3.085   4.532  0.3984 -0.0517 -0.2828
  353SOL    HW2 3067   2.013   3.128   4.572  0.3749 -0.0176 -0.2373
  354SOL     OW 3068   5.430   4.997   4.102 -0.4870  0.0314 -0.1774
  354SOL    HW1 3069   5.457   5.071   4.157 -0.7700  0.5602 -0.7476
  354SOL    HW2 3070   5.503   4.934   4.110 -0.3936  0.2186  0.5650
  355SOL     OW 3071   2.329  10.262   3.083 -0.2109  0.7513  0.3057
  355SOL    HW1 3072   2.364  10.348   3.105 -0.7178  0.7286  1.2220
  355SOL    HW2 3073   2.239  10.262   3.115  0.0230 -0.3862  1.0497
  356SOL     OW 3074   4.695   2.673   4.972 -0.1407  0.2471 -0.1488
  356SOL    HW1 3075   4.737   2.718   4.899  0.6466 -0.7332 -0.3314
  356SOL    HW2 3076   4.662   2.592   4.933 -1.1369  0.4435  0.2577
  357SOL     OW 3077   6.040   0.638   5.210  0.0063  0.5816 -0.3423
  357SOL    HW1 3078   6.075   0.549   5.199  1.9225  1.5367 -2.9976
  357SOL    HW2 3079   6.076   0.668   5.293  2.3555  0.0779 -1.0929
  358SOL     OW 3080   2.057   7.206   8.503 -0.2772  0.3685  0.3601
  358SOL    HW1 3081   2.016   7.176   8.422 -0.4176 -1.6593  1.1143
  358SOL    HW2 3082   2.008   7.284   8.527  0.6012  1.8147 -2.1409
  359SOL     OW 3083   3.772  10.555   8.968 -0.5930  0.7827 -0.1738
  359SOL    HW1 3084   3.714  10.479   8.981  1.2982 -0.7342 -0.2144
  359SOL    HW2 3085   3.858  10.524   8.995  0.6493  2.2277 -2.2268
  360SOL     OW 3086   3.582   1.286   6.624 -0.0415  0.0173  0.3793
  360SOL    HW1 3087   3.498   1.267   6.665  0.5459  0.3064  1.7992
  360SOL    HW2 3088   3.615   1.362   6.672  0.1530  1.1587 -1.4764
  361SOL     OW 3089  10.291   7.928   9.088 -0.3405 -0.2132  0.0979
  361SOL    HW1 3090  10.268   7.968   9.171  2.3657 -0.5266  1.1025
  361SOL    HW2 3091  10.241   7.978   9.023  0.1909  2.4835  1.5859
  362SOL     OW 3092   9.071   8.076   0.165  0.3050 -0.4076 -0.1108
  362SOL    HW1 3093   9.163   8.074   0.136 -0.0074  0.2566 -1.2373
  362SOL    HW2 3094   9.021   8.072   0.083 -0.6466  0.4068  0.4076
  363SOL     OW 3095   5.683   1.926   6.407 -0.1589  0.2054 -0.2417
  363SOL    HW1 3096   5.598   1.970   6.417 -0.5211 -0.7708  1.2665
  363SOL    HW2 3097   5.739   1.993   6.367 -1.2696  1.3231 -0.0134
  364SOL     OW 3098   8.942   2.385   6.356 -0.3263 -0.4871 -0.4783
  364SOL    HW1 3099   8.918   2.426   6.274  3.0174  0.3211 -1.1946
  364SOL    HW2 3100   8.944   2.291   6.336 -1.1478 -0.4467 -0.8044
  365SOL     OW 3101   2.983   8.550   1.802 -0.7636  0.1966  0.1157
  365SOL    HW1 3102   3.015   8.622   1.855 -0.8458  1.2228 -1.1690
  365SOL    HW2 3103   2.924   8.591   1.739  0.8314 -0.6407 -2.0569
  366SOL     OW 3104   9.661   1.924   0.401  0.3804  0.1797 -0.5194
  366SOL    HW1 3105   9.700   2.000   0.356 -2.4997  1.8889 -0.3857
  366SOL    HW2 3106   9.620   1.961   0.479 -2.3203 -1.2069 -1.1638
  367SOL     OW 3107   0.656   1.210   2.868 -0.1981  0.0787 -0.1062
  367SOL    HW1 3108   0.732   1.182   2.818 -0.6938  1.0092 -1.4504
  367SOL    HW2 3109   0.641   1.140   2.931  1.1221 -0.6098 -0.5269
  368SOL     OW 3110   3.833   2.915   8.185 -0.0531  0.1416  0.3119
  368SOL    HW1 3111   3.779   2.874   8.254 -1.7060 -1.5552 -1.8448
  368SOL    HW2 3112   3.885   2.842   8.150 -0.2603  0.6661 -1.1228
  369SOL     OW 3113   0.037   4.305   8.736 -0.5850 -0.1664  0.2726
  369SOL    HW1 3114   0.051   4.362   8.811 -1.5758 -1.6885  1.6916
  369SOL    HW2 3115   0.106   4.238   8.744 -0.7838 -0.4165 -0.0883
  370SOL     OW 3116   9.583   4.300   5.854 -0.2982  0.1572  0.1376
  370SOL    HW1 3117   9.533   4.380   5.840  0.6781  0.5793 -1.1136
  370SOL    HW2 3118   9.592   4.294   5.949  1.6817  2.8956  0.2610
  371SOL     OW 3119   3.242   2.118   4.319  0.0408 -0.0576 -0.4391
  371SOL    HW1 3120   3.229   2.151   4.408  1.1958 -0.7305 -0.0040
  371SOL    HW2 3121   3.196   2.180   4.263 -0.4105  0.5605  0.6035
  372SOL     OW 3122  10.404   4.590   9.081 -0.0405  1.0598  0.0316
  372SOL    HW1 3123  10.464   4.517   9.068 -3.0197 -2.8222  4.6729
  372SOL    HW2 3124  10.419   4.618   9.171 -2.8655  2.2298  0.2422
  373SOL     OW 3125   2.654   8.180   6.912 -0.3618 -0.0129  0.4720
  373SOL    HW1 3126   2.617   8.251   6.964 -0.8163  0.5285 -0.5606
  373SOL    HW2 3127   2.723   8.221   6.861  0.3982 -0.6361  0.9685
  374SOL     OW 3128   4.003   7.103  10.316 -0.2184  0.2352 -0.4699
  374SOL    HW1 3129   4.083   7.146  10.345 -0.7309  0.9411 -0.0507
  374SOL    HW2 3130   3.939   7.174  10.310 -1.5847 -0.6589  1.9988
  375SOL     OW 3131   4.679   5.219   4.574 -0.6156  0.7664  0.0752
  375SOL    HW1 3132   4.769   5.191   4.558 -0.7244  0.4931 -0.0636
  375SOL    HW2 3133   4.688   5.306   4.612 -0.2682  0.4882  0.6372
  376SOL     OW 3134   5.537   4.450   8.655  0.1130 -0.1499  0.4598
  376SOL    HW1 3135   5.451   4.412   8.635  0.4385 -1.9563  2.1810
  376SOL    HW2 3136   5.516   4.528   8.706 -0.5207  0.2104 -0.3314
  377SOL     OW 3137   4.142   8.648   9.350 -0.2615  0.9874  0.4137
  377SOL    HW1 3138   4.213   8.690   9.301  0.8969 -1.4307 -0.1484
  377SOL    HW2 3139   4.156   8.674   9.441  0.8434  1.2404  0.1805
  378SOL     OW 3140   1.456   1.846   9.788  0.2154  0.1536 -0.3145
  378SOL    HW1 3141   1.411   1.859   9.872  1.5400 -1.4293  0.6853
  378SOL    HW2 3142   1.385   1.823   9.727 -0.5184 -1.1890  0.9625
  379SOL     OW 3143   2.135   7.582   6.682 -0.4783 -0.4577  0.8503
  379SOL    HW1 3144   2.047   7.556   6.654 -1.1242  3.5284 -1.5695
  379SOL    HW2 3145   2.147   7.670   6.647  3.9738 -0.1876  2.3604
  380SOL     OW 3146   4.697   3.889   9.151  0.6845 -0.2580  0.1726
  380SOL    HW1 3147   4.634   3.958   9.174  0.4137 -1.0313  1.9741
  380SOL    HW2 3148   4.649   3.829   9.094 -0.0880 -0.5648  1.1165
  381SOL     OW 3149  10.180   6.634   0.534  0.2861  1.0637 -0.6297
  381SOL    HW1 3150  10.191   6.548   0.493 -0.8747  0.5942 -0.0081
  381SOL    HW2 3151  10.203   6.619   0.626 -0.2548  1.3214 -0.4445
  382SOL     OW 3152   3.962   1.603  10.861  0.0351  0.1474  0.4165
  382SOL    HW1 3153   3.981   1.599  10.767 -0.8154 -0.7127  0.2647
  382SOL    HW2 3154   4.040   1.564  10.902  0.7702  1.2706  0.1425
  383SOL     OW 3155   3.793   9.303   1.665  0.2330 -0.4007 -0.4214
  383SOL    HW1 3156   3.763   9.308   1.575  1.1055 -0.4869 -0.7271
  383SOL    HW2 3157   3.851   9.228   1.667  0.4348 -0.2381  0.1459
  384SOL     OW 3158   9.110   2.754   8.901 -0.4146 -0.2011 -0.5171
  384SOL    HW1 3159   9.120   2.782   8.992 -2.7741 -0.2459 -0.1828
  384SOL    HW2 3160   9.199   2.730   8.873  0.1226 -2.0701  2.3884
  385SOL     OW 3161   9.220   5.087   3.276 -0.0644  0.1516 -0.3555
  385SOL    HW1 3162   9.251   5.014   3.222  1.7109  0.3191  0.3886
  385SOL    HW2 3163   9.298   5.141   3.291 -0.1331 -0.5599  3.4560
  386SOL     OW 3164   9.848   8.234   3.533 -0.4319 -0.0941 -0.0052
  386SOL    HW1 3165   9.825   8.306   3.592  0.5081  0.5020 -0.3241
  386SOL    HW2 3166   9.839   8.155   3.586  0.6587  0.4450  1.0412
  387SOL     OW 3167   9.331   2.585   1.638  0.8610 -0.4914 -0.4101
  387SOL    HW1 3168   9.258   2.647   1.644  0.5515 -0.9742  1.2807
  387SOL    HW2 3169   9.296   2.512   1.587  0.1971 -0.6327  0.2261
  388SOL     OW 3170   1.674   7.199   9.295  0.2932 -0.2752 -0.3569
  388SOL    HW1 3171   1.700   7.257   9.366 -0.4764 -0.1054 -0.2069
  388SOL    HW2 3172   1.689   7.251   9.215 -0.3022  0.1088 -0.2298
  389SOL     OW 3173   0.011   1.794   2.504  0.2076 -0.3860 -0.5165
  389SOL    HW1 3174   0.104   1.786   2.526  0.5750  0.4545 -1.6762
  389SOL    HW2 3175  -0.030   1.720   2.549  1.3018 -0.3116  0.6840
  390SOL     OW 3176   2.981   5.894   8.109  0.1192  0.0759  0.1637
  390SOL    HW1 3177   2.998   5.834   8.181  0.0089  1.4204  1.3543
  390SOL    HW2 3178   3.059   5.888   8.054  0.9009  0.2013  1.2443
  391SOL     OW 3179   0.058   9.921   5.274 -0.2143 -0.0564 -0.0706
  391SOL    HW1 3180   0.038   9.860   5.345 -2.3798 -0.6110 -1.0741
  391SOL    HW2 3181   0.036   9.873   5.194  1.1064  0.9388 -1.0817
  392SOL     OW 3182   6.425  10.014   4.090 -0.2445 -0.2115  0.5626
  392SOL    HW1 3183   6.398  10.037   4.179 -2.3942 -3.0655  0.8002
  392SOL    HW2 3184   6.410   9.920   4.084 -0.1406 -0.1328 -2.8265
  393SOL     OW 3185   2.076  10.410   8.451 -0.6137  0.3756  0.0823
  393SOL    HW1 3186   2.022  10.331   8.443 -1.6866  1.1957 -0.9840
  393SOL    HW2 3187   2.119  10.418   8.366 -1.8947  1.9033 -0.4588
  394SOL     OW 3188   7.296   0.972   0.440 -0.1348 -0.6445 -0.1678
  394SOL    HW1 3189   7.302   1.064   0.464 -0.6488 -0.7624  0.4122
  394SOL    HW2 3190   7.275   0.973   0.346 -2.1460 -0.1367  0.2397
  395SOL     OW 3191   0.721   8.629  10.046 -0.1277  0.2765 -0.3418
  395SOL    HW1 3192   0.815   8.643  10.044  0.1868 -1.5042  0.3459
  395SOL    HW2 3193   0.689   8.668   9.964  1.1368  1.1517 -0.4449
  396SOL     OW 3194   4.196   6.555   5.229 -0.8084  0.1364 -0.2359
  396SOL    HW1 3195   4.238   6.481   5.272 -1.2384 -0.2014 -0.3849
  396SOL    HW2 3196   4.254   6.629   5.245  1.1585 -0.7916 -2.6177
  397SOL     OW 3197   4.687   0.117   9.763 -0.5520  0.3898  0.5231
  397SOL    HW1 3198   4.619   0.158   9.816 -0.6383  0.3151  0.4723
  397SOL    HW2 3199   4.760   0.102   9.823 -1.2991 -1.3182  1.0589
  398SOL     OW 3200   0.773  10.525  10.778 -0.5798  0.1500 -0.0071
  398SOL    HW1 3201   0.775  10.494  10.687  0.1374  2.9440 -1.0671
  398SOL    HW2 3202   0.683  10.513  10.806 -0.5222 -1.9896 -0.5725
  399SOL     OW 3203   1.768   3.001   8.667 -0.3190 -0.4849  0.2370
  399SOL    HW1 3204   1.855   2.999   8.707  1.1283 -0.5845 -2.6445
  399SOL    HW2 3205   1.759   2.917   8.622 -0.2770  0.8686 -2.5036
  400SOL     OW 3206   3.849   6.205   9.618 -0.2695 -0.3076 -0.0477
  400SOL    HW1 3207   3.810   6.244   9.696  0.5980  0.7756 -0.1112
  400SOL    HW2 3208   3.923   6.263   9.598 -0.9836 -0.0516 -2.1691
  401SOL     OW 3209   0.024   0.304   9.384 -0.1370  0.4357 -0.3402
  401SOL    HW1 3210   0.065   0.271   9.304 -1.6698 -1.6040 -0.3614
  401SOL    HW2 3211  -0.043   0.239   9.405  1.7054 -0.4811  3.9142
  402SOL     OW 3212   9.793   9.441   0.510 -0.0307  0.6444  0.2811
  402SOL    HW1 3213   9.728   9.371   0.507  0.3169  0.3476 -2.3944
  402SOL    HW2 3214   9.743   9.519   0.532 -1.2602  0.3359 -1.2445
  403SOL     OW 3215   2.992   7.628   4.139  0.0600  0.1745  0.1076
  403SOL    HW1 3216   3.086   7.640   4.131  0.3622 -0.8225  1.6863
  403SOL    HW2 3217   2.976   7.538   4.110  0.2162 -1.0264  3.2833
  404SOL     OW 3218   3.474   5.418   8.157  0.0733 -0.2667  0.3166
  404SOL    HW1 3219   3.395   5.372   8.127  0.0608 -0.5244  0.7336
  404SOL    HW2 3220   3.503   5.368   8.233  0.6109 -0.1404  0.1955
  405SOL     OW 3221   7.943   2.299   5.954 -0.0817 -0.3518  0.2476
  405SOL    HW1 3222   7.912   2.368   6.013  0.3750 -1.3748  1.7518
  405SOL    HW2 3223   8.035   2.320   5.938  0.1876 -0.8310  1.0863
  406SOL     OW 3224   1.122   0.184   1.204 -0.2818  0.1421  0.3094
  406SOL    HW1 3225   1.208   0.217   1.178  0.5602 -0.8487  1.7310
  406SOL    HW2 3226   1.068   0.263   1.211  0.5569  0.7986 -0.3588
  407SOL     OW 3227  10.108   2.084   2.023 -0.1540  0.3226 -0.0998
  407SOL    HW1 3228  10.160   2.161   2.000 -0.4925  0.8139  0.7233
  407SOL    HW2 3229  10.130   2.019   1.957  0.3189  1.0497 -0.6671
  408SOL     OW 3230   1.237   3.414   0.396  0.8359 -0.0226 -0.2450
  408SOL    HW1 3231   1.268   3.402   0.485  0.8478  2.3537  0.1435
  408SOL    HW2 3232   1.312   3.391   0.341  0.6343 -2.1196  0.2631
  409SOL     OW 3233   6.561   3.451   7.713  0.5642  0.0601 -0.4031
  409SOL    HW1 3234   6.535   3.369   7.672 -1.3348 -0.0087  0.8340
  409SOL    HW2 3235   6.591   3.425   7.801  0.4579  0.6342 -0.1962
  410SOL     OW 3236   3.685   8.804   8.957 -0.3853 -0.2731  0.0635
  410SOL    HW1 3237   3.687   8.712   8.984 -0.7656  0.2393  1.9458
  410SOL    HW2 3238   3.756   8.845   9.006 -1.3388  0.7834  0.5949
  411SOL     OW 3239   1.622   5.247   5.129  0.0158  0.2063  0.3292
  411SOL    HW1 3240   1.654   5.329   5.091  0.4497 -0.0841  0.0568
  411SOL    HW2 3241   1.700   5.207   5.168  0.3104 -1.2165 -1.6132
  412SOL     OW 3242  10.888   2.891   5.889  0.3177 -0.6560 -0.0070
  412SOL    HW1 3243  10.841   2.810   5.907 -0.1022 -0.1157  1.4590
  412SOL    HW2 3244  10.888   2.899   5.793  0.0537 -2.1822 -0.1465
  413SOL     OW 3245   4.520   0.536  10.562 -0.2605 -1.1322  0.3283
  413SOL    HW1 3246   4.573   0.531  10.482  0.6597 -0.4615  0.8801
  413SOL    HW2 3247   4.540   0.455  10.609 -0.5799 -1.3930  0.0183
  414SOL     OW 3248   0.440   3.025   8.435 -0.2720  0.1518  0.6624
  414SOL    HW1 3249   0.503   3.013   8.506 -0.6489  1.1635  1.1817
  414SOL    HW2 3250   0.452   3.115   8.407 -0.3766 -0.1299 -0.3337
  415SOL     OW 3251   4.602   5.601  10.085  0.3903 -0.4326  0.1142
  415SOL    HW1 3252   4.600   5.676  10.144  1.8618 -0.8039  0.6872
  415SOL    HW2 3253   4.645   5.635  10.006 -1.4359  0.0236 -0.7347
  416SOL     OW 3254   5.200   1.462   2.759  0.2923  0.0698  0.1356
  416SOL    HW1 3255   5.212   1.555   2.775 -0.2970  0.4656 -1.5255
  416SOL    HW2 3256   5.145   1.432   2.831  0.4090  1.0167  0.6381
  417SOL     OW 3257   2.948   1.908   9.779  0.4164 -0.0133 -0.3379
  417SOL    HW1 3258   3.000   1.849   9.725  1.9909 -0.3843  1.4509
  417SOL    HW2 3259   2.947   1.866   9.866 -0.2029  1.5715  0.4618
  418SOL     OW 3260   6.334   7.586   7.802 -0.3634 -0.2301  0.3147
  418SOL    HW1 3261   6.279   7.626   7.734 -0.2804  1.5654  1.2541
  418SOL    HW2 3262   6.369   7.660   7.852  1.1829 -1.4209  1.0931
  419SOL     OW 3263   8.005   5.425   2.680  0.5398 -0.2396  0.0564
  419SOL    HW1 3264   8.046   5.498   2.726  0.3490 -0.1392  0.0689
  419SOL    HW2 3265   8.034   5.435   2.589 -0.6999  0.7555 -0.2674
  420SOL     OW 3266   6.036   9.298   1.099  0.3814 -0.5021  0.1166
  420SOL    HW1 3267   6.010   9.233   1.165  0.9102  0.5972  1.4366
  420SOL    HW2 3268   6.128   9.279   1.082  0.4606 -0.2853  0.2961
  421SOL     OW 3269   2.449   9.120   8.265  0.2705 -0.1265  0.0947
  421SOL    HW1 3270   2.399   9.139   8.345  1.3827 -4.8627  2.3245
  421SOL    HW2 3271   2.387   9.137   8.194 -1.6143  2.0082  2.0648
  422SOL     OW 3272   9.629   7.527   4.015 -0.1727 -0.5264 -0.4672
  422SOL    HW1 3273   9.614   7.501   4.106 -0.3062 -1.6867 -0.8097
  422SOL    HW2 3274   9.663   7.617   4.022  1.0644 -1.0468  0.8123
  423SOL     OW 3275   2.302   3.945   0.958 -0.2372  0.6641 -0.0221
  423SOL    HW1 3276   2.360   3.974   0.887  2.9315 -0.9006  1.6963
  423SOL    HW2 3277   2.325   3.853   0.972 -2.6182  0.2029  1.3672
  424SOL     OW 3278   2.366   8.415  10.977  0.2369 -0.0615 -0.4199
  424SOL    HW1 3279   2.312   8.491  11.000  0.2321 -0.2515  0.2192
  424SOL    HW2 3280   2.307   8.341  10.984  0.6359 -0.3050  0.5671
  425SOL     OW 3281   0.387   1.558   1.972  0.9602 -0.6629  0.3950
  425SOL    HW1 3282   0.448   1.493   2.005  1.2412  0.0185  1.2702
  425SOL    HW2 3283   0.301   1.516   1.979  1.2468 -1.3864 -0.2381
  426SOL     OW 3284   4.139   7.482   6.157  0.2658  0.2558  0.3868
  426SOL    HW1 3285   4.045   7.493   6.171 -0.2603 -2.1837 -0.7870
  426SOL    HW2 3286   4.165   7.557   6.103 -0.9512  1.0084  0.8093
  427SOL     OW 3287   7.726   4.900   2.551 -0.1609 -0.2167  0.4673
  427SOL    HW1 3288   7.765   4.875   2.635  0.3905  0.6417  0.4851
  427SOL    HW2 3289   7.663   4.969   2.574 -1.2514 -1.1534  0.3610
  428SOL     OW 3290  10.916  10.061   3.803  0.1759 -0.1621  0.2741
  428SOL    HW1 3291  10.884  10.144   3.769  2.8237  0.8095 -0.0878
  428SOL    HW2 3292  10.935  10.008   3.726  4.2250  1.2782  0.0533
  429SOL     OW 3293   9.041   7.970  10.563  0.2139  0.3695 -0.8067
  429SOL    HW1 3294   9.036   8.065  10.569 -1.0157  0.2823 -0.0036
  429SOL    HW2 3295   9.134   7.951  10.550  0.3417  1.7141 -2.0564
  430SOL     OW 3296   8.333   0.039  10.252  0.0801  0.6359 -0.3362
  430SOL    HW1 3297   8.401   0.092  10.293  2.0061  0.0850 -2.5894
  430SOL    HW2 3298   8.334  -0.044  10.301 -1.2058  1.7041  1.6028
  431SOL     OW 3299   3.615   0.742   2.845 -0.1860 -0.2864  0.6191
  431SOL    HW1 3300   3.705   0.744   2.814 -0.5164 -2.1780 -0.6826
  431SOL    HW2 3301   3.613   0.803   2.918  1.5499  1.6548 -0.8254
  432SOL     OW 3302   9.086   9.599   5.060 -0.1603  0.5601  0.3584
  432SOL    HW1 3303   9.056   9.689   5.074 -0.9723  0.2365  0.7695
  432SOL    HW2 3304   9.124   9.572   5.144  2.6087  1.4152 -0.5174
  433SOL     OW 3305   8.959  10.239   2.769 -0.2055 -0.4998 -0.4641
  433SOL    HW1 3306   8.995  10.309   2.713  0.0472 -0.1500  0.1277
  433SOL    HW2 3307   8.876  10.274   2.800 -0.4649 -0.7962 -0.8076
  434SOL     OW 3308  10.500  10.696   9.173  0.3240  0.5110  0.2468
  434SOL    HW1 3309  10.422  10.695   9.228 -0.7771 -1.0407 -1.2585
  434SOL    HW2 3310  10.547  10.616   9.197  0.2141  0.2105 -0.5284
  435SOL     OW 3311   6.475   0.578   3.961 -0.7431 -0.8231  0.5103
  435SOL    HW1 3312   6.449   0.618   4.044 -0.6784 -0.0510  0.1661
  435SOL    HW2 3313   6.444   0.640   3.894  0.8406 -0.5062  0.0343
  436SOL     OW 3314  11.030   7.201   3.275  0.2158 -0.4735 -0.7901
  436SOL    HW1 3315  10.994   7.263   3.211  0.4563  3.0143  2.1035
  436SOL    HW2 3316  10.957   7.181   3.333  0.4565 -2.0164 -0.9724
  437SOL     OW 3317   9.154   6.333   1.504 -0.5272  0.0577  0.2534
  437SOL    HW1 3318   9.158   6.416   1.552 -1.5587 -0.1920  0.8065
  437SOL    HW2 3319   9.177   6.266   1.569  0.2607 -0.1106 -0.1790
  438SOL     OW 3320   6.709   0.977   9.266  0.4870  0.2949 -0.0388
  438SOL    HW1 3321   6.667   0.940   9.343 -1.6905  1.0972 -0.7529
  438SOL    HW2 3322   6.675   0.927   9.193  0.3705  1.2956 -0.6960
  439SOL     OW 3323   4.924   5.095   4.523  0.3068  0.4152  0.2890
  439SOL    HW1 3324   4.925   5.058   4.434 -1.8372  0.7299  0.0984
  439SOL    HW2 3325   5.005   5.146   4.528  0.6583  0.0818 -1.3522
  440SOL     OW 3326   5.359   6.016   4.559  0.2577 -0.6768 -0.9061
  440SOL    HW1 3327   5.421   5.948   4.535  1.3128 -0.3861  0.7997
  440SOL    HW2 3328   5.403   6.065   4.629 -1.4330  0.2685 -0.4421
  441SOL     OW 3329   3.328   5.072   8.525 -0.1027  0.2898  0.3421
  441SOL    HW1 3330   3.400   5.038   8.471  1.1456  1.6131  1.0972
  441SOL    HW2 3331   3.354   5.162   8.544 -1.5542  0.5089  1.3927
  442SOL     OW 3332   9.847   6.902   2.352  0.6753 -0.6068 -0.1438
  442SOL    HW1 3333   9.803   6.973   2.398 -0.3762 -0.8429 -0.7534
  442SOL    HW2 3334   9.857   6.833   2.417 -1.8220 -1.3779 -0.4962
  443SOL     OW 3335   9.297   7.977   2.114  0.4780  0.0552  0.4068
  443SOL    HW1 3336   9.269   8.068   2.129  2.8506  0.8536  0.3669
  443SOL    HW2 3337   9.347   7.954   2.192  1.5058 -0.5137 -0.3951
  444SOL     OW 3338   7.050   4.513   0.130 -0.1865  0.2280 -0.4388
  444SOL    HW1 3339   7.009   4.427   0.117 -2.3833  0.6227  2.7928
  444SOL    HW2 3340   6.977   4.575   0.133  1.2491  2.0815 -1.3502
  445SOL     OW 3341   2.003  10.483   0.414  0.3223  0.2332 -0.5839
  445SOL    HW1 3342   2.087  10.462   0.455 -0.2027 -2.2357 -0.5835
  445SOL    HW2 3343   2.022  10.487   0.320  0.7533  1.5344 -0.4493
  446SOL     OW 3344   7.681   7.187   4.052  0.2773 -0.8158  0.3457
  446SOL    HW1 3345   7.679   7.125   4.124  2.5171 -0.7324  0.5456
  446SOL    HW2 3346   7.637   7.265   4.086 -1.3156 -1.7575  0.5588
  447SOL     OW 3347   0.529   5.300  10.200 -0.1743 -0.4303 -0.0198
  447SOL    HW1 3348   0.451   5.303  10.256  0.8772 -0.0089  1.4941
  447SOL    HW2 3349   0.556   5.391  10.192  0.6774 -0.6481  0.2565
  448SOL     OW 3350   4.628   4.012   5.820 -0.1270 -0.0558  0.1619
  448SOL    HW1 3351   4.657   4.008   5.911 -0.2914  1.3818  0.2973
  448SOL    HW2 3352   4.708   4.004   5.769  0.3232  1.7488  0.5026
  449SOL     OW 3353   7.670  10.125   0.494  0.3536 -0.9649 -0.4179
  449SOL    HW1 3354   7.584  10.163   0.475  1.1836  0.9385 -0.5087
  449SOL    HW2 3355   7.695  10.081   0.412  0.4122  0.3665 -1.1389
  450SOL     OW 3356   3.944   6.804  10.279 -0.3411 -0.0214  0.1197
  450SOL    HW1 3357   3.931   6.899  10.283 -0.3949 -0.0420  0.4746
  450SOL    HW2 3358   4.039   6.792  10.283 -0.1588  0.1182 -2.2035
  451SOL     OW 3359   9.060   5.310  10.728  0.3674 -0.7595 -0.0852
  451SOL    HW1 3360   9.131   5.329  10.667  0.4011 -1.4682 -0.2852
  451SOL    HW2 3361   9.055   5.214  10.729  0.5388 -0.7726  1.2389
  452SOL     OW 3362   6.050  10.038   3.484 -0.5273 -0.2717 -0.1662
  452SOL    HW1 3363   6.075  10.051   3.392 -1.5120 -0.3730 -0.4567
  452SOL    HW2 3364   6.019   9.947   3.487 -2.2577  0.2963 -0.1532
  453SOL     OW 3365   2.530  10.850   5.679 -0.2988  0.2480 -0.1509
  453SOL    HW1 3366   2.607  10.906   5.688 -0.0620 -0.2771  1.6766
  453SOL    HW2 3367   2.558  10.779   5.622 -0.0534  1.0661 -1.0654
  454SOL     OW 3368   4.797   9.151   2.374  0.0688 -0.3277 -0.1000
  454SOL    HW1 3369   4.846   9.207   2.434  1.0201 -0.1131 -1.0431
  454SOL    HW2 3370   4.719   9.125   2.424  0.9007 -0.2971  1.2699
  455SOL     OW 3371   8.444   2.484   6.834  0.4228  0.7141 -0.1192
  455SOL    HW1 3372   8.521   2.489   6.891  0.3372  0.1585  0.0478
  455SOL    HW2 3373   8.475   2.440   6.755 -0.0502 -0.8787  0.5380
  456SOL     OW 3374   8.054   5.584   3.197  0.1281 -0.5289 -0.1358
  456SOL    HW1 3375   7.987   5.600   3.130  0.2194 -0.5929 -0.2438
  456SOL    HW2 3376   8.010   5.600   3.280 -0.4320 -1.9165 -0.1308
  457SOL     OW 3377   2.712   8.858   8.503 -0.0225 -0.0786  0.1741
  457SOL    HW1 3378   2.800   8.828   8.528 -0.2686 -0.5972  0.4493
  457SOL    HW2 3379   2.722   8.889   8.413  0.0663 -1.9212 -0.5050
  458SOL     OW 3380   0.502   6.520   8.717  0.3917 -0.3919 -0.0597
  458SOL    HW1 3381   0.560   6.497   8.789  3.2305  1.5217 -1.5226
  458SOL    HW2 3382   0.521   6.455   8.649 -0.4067 -0.7030  0.0019
  459SOL     OW 3383   4.568   3.612   6.574 -0.1646  0.3849 -0.5303
  459SOL    HW1 3384   4.476   3.589   6.574 -0.2046  0.5273  0.1197
  459SOL    HW2 3385   4.607   3.558   6.505 -0.9109  1.0719 -1.5235
  460SOL     OW 3386   4.172  11.030  10.000  0.3916 -0.1116  0.3993
  460SOL    HW1 3387   4.241  11.090  10.029  0.8260 -0.5189  0.2440
  460SOL    HW2 3388   4.153  10.977  10.078  0.0046  0.2269  0.5376
  461SOL     OW 3389   9.904   1.992   4.569 -0.2222  0.5169  0.0589
  461SOL    HW1 3390   9.928   2.047   4.644  2.0246 -0.6495  0.2901
  461SOL    HW2 3391   9.894   1.905   4.605 -1.3015  0.3274 -0.6798
  462SOL     OW 3392   6.563   2.174   4.015 -0.4034  0.2919 -0.9645
  462SOL    HW1 3393   6.588   2.217   3.933 -0.5101 -1.6163 -2.0568
  462SOL    HW2 3394   6.523   2.092   3.988  0.7567 -1.0160  1.0337
  463SOL     OW 3395   2.013   3.777  10.082  1.0789 -0.1369 -0.3829
  463SOL    HW1 3396   2.028   3.718  10.008 -1.1520  0.1408 -1.1215
  463SOL    HW2 3397   1.941   3.834  10.054  0.2028  0.0351  1.9610
  464SOL     OW 3398   5.224   7.269   7.256  0.1998 -0.0874  0.4924
  464SOL    HW1 3399   5.225   7.322   7.335 -0.1128  1.3610 -0.4294
  464SOL    HW2 3400   5.177   7.322   7.192  0.7475 -1.0625 -0.7730
  465SOL     OW 3401   3.509   7.492   8.599 -0.6816  0.7539  0.4510
  465SOL    HW1 3402   3.500   7.469   8.507 -0.9961 -1.1347  0.9133
  465SOL    HW2 3403   3.585   7.550   8.602  0.1984 -0.2634 -0.8373
  466SOL     OW 3404   7.283   1.608   0.635 -0.1868 -0.0936 -0.1454
  466SOL    HW1 3405   7.245   1.695   0.644 -1.1528 -0.5130 -0.0307
  466SOL    HW2 3406   7.232   1.566   0.567 -0.7318 -1.0938  0.8465
  467SOL     OW 3407   5.687   2.348  10.919  0.2842  0.8487 -0.5887
  467SOL    HW1 3408   5.612   2.365  10.862  0.0293 -2.1913 -1.3214
  467SOL    HW2 3409   5.662   2.386  11.004 -0.7433  2.5260 -1.5945
  468SOL     OW 3410  10.742   1.186   5.579 -0.5060 -0.5419 -0.2038
  468SOL    HW1 3411  10.718   1.275   5.607  2.1994  0.5490 -0.9494
  468SOL    HW2 3412  10.660   1.147   5.549 -1.7173  1.9112 -0.3361
  469SOL     OW 3413   6.489   0.888   1.681  0.4200  0.3446 -0.3722
  469SOL    HW1 3414   6.447   0.970   1.656 -0.6977  0.1516  0.7591
  469SOL    HW2 3415   6.444   0.821   1.630 -1.2146  0.0576  1.3431
  470SOL     OW 3416   7.625  10.956   7.760 -0.3133  0.2540 -0.1994
  470SOL    HW1 3417   7.537  10.969   7.797 -1.0673  2.4162 -2.4072
  470SOL    HW2 3418   7.616  10.878   7.705 -0.5877 -0.0800  0.3119
  471SOL     OW 3419   6.605   8.168   3.630 -0.4610  0.6733 -0.4051
  471SOL    HW1 3420   6.645   8.114   3.698 -0.6161  0.3170 -0.5954
  471SOL    HW2 3421   6.677   8.188   3.570 -0.7868 -1.0227 -1.4353
  472SOL     OW 3422   8.636   8.126   4.557 -0.6527 -0.1571  0.1493
  472SOL    HW1 3423   8.595   8.172   4.484 -2.3505 -2.7090 -0.6732
  472SOL    HW2 3424   8.599   8.167   4.635 -2.6797 -0.4778 -0.5613
  473SOL     OW 3425   5.894   0.559   2.489  0.0178  0.2116 -0.3562
  473SOL    HW1 3426   5.982   0.570   2.523  0.2468  0.3178 -0.9660
  473SOL    HW2 3427   5.864   0.647   2.469  0.4212  0.0665 -1.7123
  474SOL     OW 3428   6.216   8.048  10.344  0.2633  0.3587  1.3785
  474SOL    HW1 3429   6.192   8.134  10.309 -0.8385 -0.5890 -0.3267
  474SOL    HW2 3430   6.171   8.043  10.428  1.1470  1.8076  1.9893
  475SOL     OW 3431   2.265   4.990   7.478 -0.1322 -0.0493 -0.0755
  475SOL    HW1 3432   2.184   5.041   7.479  0.0583  0.4365 -2.7438
  475SOL    HW2 3433   2.326   5.043   7.428  1.8804 -0.4242  1.8578
  476SOL     OW 3434  10.626   1.285   6.407 -0.0405 -0.2467 -0.2857
  476SOL    HW1 3435  10.680   1.223   6.357  0.5206 -1.1244  1.3521
  476SOL    HW2 3436  10.674   1.368   6.401  0.6567 -0.6355 -0.2057
  477SOL     OW 3437   3.449   4.815   7.265  0.2429  0.4114 -0.1812
  477SOL    HW1 3438   3.534   4.794   7.227  1.5346  2.5894  1.2626
  477SOL    HW2 3439   3.463   4.809   7.360 -0.9762  1.5947  0.1082
  478SOL     OW 3440   0.775   3.956   8.769  0.0773 -0.0753  0.3052
  478SOL    HW1 3441   0.806   4.007   8.844  0.5259  0.4381 -0.2232
  478SOL    HW2 3442   0.852   3.947   8.713  0.2198 -1.9858  0.7387
  479SOL     OW 3443   8.194   6.170   2.244  0.0404  0.6088  0.2164
  479SOL    HW1 3444   8.147   6.190   2.163 -0.8431  0.3458  0.6491
  479SOL    HW2 3445   8.169   6.080   2.265  2.9393 -0.6269 -1.0080
  480SOL     OW 3446  10.096   7.346   7.240 -0.3220  0.1062  0.1298
  480SOL    HW1 3447  10.044   7.266   7.243 -1.6304  0.7733 -2.0952
  480SOL    HW2 3448  10.169   7.326   7.180 -2.1422  1.2214 -2.6970
  481SOL     OW 3449   2.813   9.679   9.645  0.0659 -0.0696  0.1752
  481SOL    HW1 3450   2.763   9.679   9.726 -0.5504  3.0263 -0.0941
  481SOL    HW2 3451   2.898   9.642   9.669  0.2572  1.7238  2.5113
  482SOL     OW 3452   1.587   5.616   1.696 -0.9209 -0.0046 -0.6610
  482SOL    HW1 3453   1.604   5.547   1.632 -0.3810 -0.7675  0.2821
  482SOL    HW2 3454   1.640   5.690   1.665 -0.3523 -0.4954 -0.8754
  483SOL     OW 3455   4.651   9.380   9.491 -0.4568  0.7467  0.0563
  483SOL    HW1 3456   4.629   9.307   9.550 -2.3676 -0.5963 -2.1263
  483SOL    HW2 3457   4.577   9.439   9.498 -1.0425  0.2310 -1.4239
  484SOL     OW 3458   3.676   2.224   0.314  0.4612  0.4536 -0.4841
  484SOL    HW1 3459   3.703   2.314   0.332  1.4988  0.3251 -1.3255
  484SOL    HW2 3460   3.650   2.224   0.222  3.3114 -0.7128 -1.3917
  485SOL     OW 3461   9.809   4.671   1.596  0.7224  0.4516 -0.0971
  485SOL    HW1 3462   9.838   4.665   1.505 -0.1971  3.5137 -0.6931
  485SOL    HW2 3463   9.715   4.651   1.593  0.5827  1.0693  0.0878
  486SOL     OW 3464   0.252   1.024   7.988 -0.1253 -0.0731 -0.0975
  486SOL    HW1 3465   0.341   0.995   8.009 -0.1017 -0.1851 -0.3575
  486SOL    HW2 3466   0.263   1.086   7.916 -0.0867  1.2528  1.0020
  487SOL     OW 3467   0.645   2.041   2.073  0.0863 -0.1195  1.0289
  487SOL    HW1 3468   0.736   2.067   2.066 -0.0492  0.4307  1.2244
  487SOL    HW2 3469   0.624   2.001   1.988  0.8552 -1.4241  1.4326
  488SOL     OW 3470   3.097  10.531   5.304  0.5088  0.4867  0.2045
  488SOL    HW1 3471   3.032  10.488   5.360  0.5664 -0.1605 -0.2113
  488SOL    HW2 3472   3.046  10.585   5.244  0.3643  0.1926  0.0600
  489SOL     OW 3473   1.324  11.029   2.534  0.6048  0.4026  0.0457
  489SOL    HW1 3474   1.314  11.124   2.545  0.1076  0.2407  1.1621
  489SOL    HW2 3475   1.396  11.006   2.592  0.1820 -0.0144  0.4118
  490SOL     OW 3476   1.999   0.412   2.610 -0.7123  0.0251 -0.1286
  490SOL    HW1 3477   1.942   0.374   2.544 -1.2943  0.0506  0.3525
  490SOL    HW2 3478   2.080   0.434   2.563 -0.2840 -1.9484 -0.3917
  491SOL     OW 3479   2.945   6.489   2.865  0.3201  0.2823 -0.4775
  491SOL    HW1 3480   2.867   6.475   2.812  0.3377  0.7250 -0.6267
  491SOL    HW2 3481   3.015   6.442   2.819 -0.2014 -1.6513  0.6110
  492SOL     OW 3482   7.874   3.850   2.744 -0.5289  0.4383 -0.0477
  492SOL    HW1 3483   7.828   3.782   2.793  0.9407 -0.5172  0.0374
  492SOL    HW2 3484   7.950   3.806   2.706  0.4001  1.9983 -0.0734
  493SOL     OW 3485   9.317   6.048   9.146  0.2448  0.3785 -0.7033
  493SOL    HW1 3486   9.357   6.095   9.073  1.3224  1.9858  0.8488
  493SOL    HW2 3487   9.290   6.116   9.207  0.3994 -0.9380  0.9021
  494SOL     OW 3488   8.324   9.660   2.575 -0.3310  0.3222 -0.2991
  494SOL    HW1 3489   8.237   9.627   2.552 -0.8841  1.3222  0.2901
  494SOL    HW2 3490   8.348   9.612   2.654 -0.7168  0.6414  0.0150
  495SOL     OW 3491   5.330   7.138   2.209 -0.6421  0.1649  0.2118
  495SOL    HW1 3492   5.404   7.092   2.170 -0.2989 -1.3400  2.4572
  495SOL    HW2 3493   5.366   7.221   2.239 -0.2805  0.1515 -0.1753
  496SOL     OW 3494   5.320   2.081   9.380  0.6781  0.2965 -0.4972
  496SOL    HW1 3495   5.278   1.995   9.390  0.6382  0.0559 -2.4298
  496SOL    HW2 3496   5.412   2.065   9.404  0.3471  0.1014  0.6985
  497SOL     OW 3497   5.259   1.515   5.485  0.4495 -0.7495 -0.4211
  497SOL    HW1 3498   5.252   1.578   5.412  1.1336 -2.3873 -1.9812
  497SOL    HW2 3499   5.352   1.513   5.505  0.1222  0.8032  1.6262
  498SOL     OW 3500  10.378   5.716   4.897  0.4128 -0.1669  0.1171
  498SOL    HW1 3501  10.291   5.688   4.869  0.6065 -0.4013 -0.2573
  498SOL    HW2 3502  10.363   5.764   4.979 -0.0569 -0.2738  0.0939
  499SOL     OW 3503   1.966  10.580   2.517  0.3638 -0.1299 -0.0838
  499SOL    HW1 3504   1.905  10.515   2.482 -1.3567  1.1146  0.4806
  499SOL    HW2 3505   2.052  10.554   2.482  0.0303 -3.4936  1.2175
  500SOL     OW 3506   6.076   0.164   8.760  0.5587  0.2192 -0.8577
  500SOL    HW1 3507   6.126   0.099   8.709  2.7948  0.9939  0.1986
  500SOL    HW2 3508   6.022   0.208   8.695  1.2836 -0.6552 -2.1121
  501SOL     OW 3509   1.501  10.152   9.565  0.7078 -0.2262 -0.4589
  501SOL    HW1 3510   1.460  10.222   9.514  0.8569  0.4978  0.3771
  501SOL    HW2 3511   1.511  10.190   9.653 -1.4943 -2.1347  0.7211
  502SOL     OW 3512   1.368   7.034   3.918 -0.9530  0.5566 -0.2762
  502SOL    HW1 3513   1.335   7.025   3.828 -0.8251 -0.7003 -0.2229
  502SOL    HW2 3514   1.437   6.968   3.924  0.7057  2.2607  0.0265
  503SOL     OW 3515   8.783   3.369   9.134  0.1225 -0.2472 -0.1728
  503SOL    HW1 3516   8.763   3.300   9.198 -1.5920 -0.4369 -0.8399
  503SOL    HW2 3517   8.776   3.325   9.049 -0.6053  0.6360 -0.5900
  504SOL     OW 3518   9.064   1.469   1.551  0.6702  0.0481 -0.2776
  504SOL    HW1 3519   8.983   1.520   1.561  0.2181 -0.2884 -1.9462
  504SOL    HW2 3520   9.044   1.385   1.591 -0.3916 -0.5864 -2.0450
  505SOL     OW 3521   2.510   5.664   4.181  0.2267  0.3262  0.1651
  505SOL    HW1 3522   2.579   5.620   4.230  0.6282 -1.2991 -1.6984
  505SOL    HW2 3523   2.555   5.703   4.106 -0.6117  1.0563  0.0200
  506SOL     OW 3524   0.932   6.655   7.760 -0.5279 -0.1904  0.5790
  506SOL    HW1 3525   0.985   6.710   7.819  1.6682 -1.1982 -0.3601
  506SOL    HW2 3526   0.907   6.580   7.814  1.9861 -1.4133  0.1963
  507SOL     OW 3527   4.263   4.206   0.789  0.4083 -0.3544  0.3117
  507SOL    HW1 3528   4.285   4.129   0.842  2.8464  1.3793  2.0334
  507SOL    HW2 3529   4.342   4.224   0.739  0.7177  2.2039  1.5398
  508SOL     OW 3530   0.315   5.506   5.355  0.6045  0.5142 -0.2509
  508SOL    HW1 3531   0.241   5.517   5.414  0.8882  0.1153  0.1799
  508SOL    HW2 3532   0.389   5.543   5.402  0.5699  1.5532 -0.9585
  509SOL     OW 3533   6.449   2.970   1.221  0.2832 -0.0091 -0.5767
  509SOL    HW1 3534   6.450   3.031   1.295  3.1660 -1.2459  0.5734
  509SOL    HW2 3535   6.520   3.000   1.164  1.0686 -1.6263 -0.5125
  510SOL     OW 3536   6.771   0.835   9.021 -0.2360  0.8414 -0.1603
  510SOL    HW1 3537   6.790   0.784   8.941  1.4085 -0.4173  0.9534
  510SOL    HW2 3538   6.853   0.880   9.039 -0.7991  1.6142  0.4912
  511SOL     OW 3539   9.117  10.087   4.787  0.6858 -0.1822  0.8490
  511SOL    HW1 3540   9.037  10.036   4.778 -0.8282  2.3887 -2.0419
  511SOL    HW2 3541   9.119  10.112   4.880 -0.9487 -1.6665  1.3349
  512SOL     OW 3542   0.376   2.382   4.248 -0.3376  0.6256  0.0526
  512SOL    HW1 3543   0.365   2.440   4.323 -3.0396  0.0087  0.2479
  512SOL    HW2 3544   0.359   2.294   4.282  1.0441  0.0068 -0.7760
  513SOL     OW 3545   9.181  10.879   7.599  0.4917  0.2266 -0.1063
  513SOL    HW1 3546   9.198  10.969   7.571 -2.2060  0.2382 -2.0318
  513SOL    HW2 3547   9.232  10.825   7.538 -1.5133  0.4065 -2.0664
  514SOL     OW 3548   9.326   0.066  10.893 -0.0234 -0.0516  0.1844
  514SOL    HW1 3549   9.240   0.052  10.933  0.0857 -0.1404  0.3835
  514SOL    HW2 3550   9.306   0.084  10.801 -0.2807  0.2671  0.2989
  515SOL     OW 3551  10.792   9.716   4.896 -0.1195 -0.6276 -0.3512
  515SOL    HW1 3552  10.800   9.769   4.975 -1.3482  0.2795 -0.8257
  515SOL    HW2 3553  10.732   9.645   4.921  0.6812 -1.2290 -0.0465
  516SOL     OW 3554   9.955   0.443   0.710  0.2984 -0.4146 -0.1892
  516SOL    HW1 3555   9.911   0.368   0.670  0.2721 -1.9377  2.4181
  516SOL    HW2 3556  10.038   0.408   0.742  1.4070  1.3087 -1.0041
  517SOL     OW 3557   0.356   5.793   4.627  0.3885  0.0479  0.1819
  517SOL    HW1 3558   0.305   5.714   4.609  0.6961  0.0473 -0.7219
  517SOL    HW2 3559   0.338   5.812   4.719 -1.9075  0.5452 -0.3108
  518SOL     OW 3560   0.091   1.568   8.254  0.1571 -0.5373 -0.5238
  518SOL    HW1 3561   0.166   1.620   8.285  0.0498  0.1805 -1.4394
  518SOL    HW2 3562   0.113   1.478   8.278 -0.6443  0.0706  3.1411
  519SOL     OW 3563   1.177   2.615   6.771 -0.0105  0.6996 -0.6158
  519SOL    HW1 3564   1.251   2.639   6.828  0.6557 -1.7107 -0.3410
  519SOL    HW2 3565   1.187   2.521   6.758 -1.7382  0.7151 -2.5095
  520SOL     OW 3566  10.458  10.515   1.845 -0.0842 -0.3934  0.0422
  520SOL    HW1 3567  10.430  10.583   1.905 -1.0778  0.4885 -1.3511
  520SOL    HW2 3568  10.391  10.515   1.776  2.0201  0.0451 -2.1218
  521SOL     OW 3569   4.954   0.625  10.967 -0.5427  0.3565 -0.5806
  521SOL    HW1 3570   4.867   0.606  10.932 -0.7261 -0.5110  0.3127
  521SOL    HW2 3571   4.938   0.671  11.049 -0.1254  1.6158 -1.1786
  522SOL     OW 3572   8.672   3.297   1.102  0.0958  0.3524 -0.0419
  522SOL    HW1 3573   8.692   3.209   1.070  0.5045 -0.6164  2.5793
  522SOL    HW2 3574   8.584   3.315   1.071 -0.1510 -1.1627 -0.2932
  523SOL     OW 3575   4.240   6.151   1.726  0.4128 -0.0581  0.4212
  523SOL    HW1 3576   4.287   6.234   1.734  0.8436 -0.1537 -0.8516
  523SOL    HW2 3577   4.178   6.151   1.799  0.4473  1.3585  0.4763
  524SOL     OW 3578   8.351   2.882   3.090 -0.3512 -0.1050  0.1904
  524SOL    HW1 3579   8.260   2.905   3.105 -0.3130  0.1415  0.0579
  524SOL    HW2 3580   8.349   2.791   3.062 -0.6238  0.1030 -0.4854
  525SOL     OW 3581   4.692   9.370   0.672  1.0534  0.0770 -0.1597
  525SOL    HW1 3582   4.671   9.456   0.708 -2.4533 -1.2196  1.2546
  525SOL    HW2 3583   4.741   9.325   0.741 -0.4039 -0.3181  0.6417
  526SOL     OW 3584   5.175   3.402   9.314 -0.1086  0.2096 -0.4209
  526SOL    HW1 3585   5.186   3.482   9.264 -1.2446  1.6582  1.5058
  526SOL    HW2 3586   5.253   3.398   9.370  1.0196 -1.2535 -1.9761
  527SOL     OW 3587   9.637  10.780   0.906 -0.2082  0.5311  0.0496
  527SOL    HW1 3588   9.642  10.856   0.964 -1.2586  1.6380 -1.2260
  527SOL    HW2 3589   9.671  10.813   0.822 -0.0791 -0.6043 -0.3608
  528SOL     OW 3590   0.294   7.754   0.232  0.1680  0.1111  0.2816
  528SOL    HW1 3591   0.379   7.724   0.199  0.8298 -1.9109  3.4121
  528SOL    HW2 3592   0.311   7.841   0.268  1.0170 -0.3717  1.0803
  529SOL     OW 3593   1.060   5.821   7.609 -0.3132 -0.4601 -0.2940
  529SOL    HW1 3594   1.038   5.855   7.696 -2.4312 -1.6952 -0.2734
  529SOL    HW2 3595   0.978   5.828   7.559 -0.7276 -4.5611 -0.5227
  530SOL     OW 3596   2.973   9.140   1.206  0.0021  0.3158  0.2158
  530SOL    HW1 3597   3.047   9.168   1.152 -0.7117  0.9052 -0.4626
  530SOL    HW2 3598   3.011   9.129   1.294  0.3130  3.6439  0.6107
  531SOL     OW 3599   9.294   0.194   9.326  0.0910  0.5617 -0.2934
  531SOL    HW1 3600   9.212   0.157   9.294  0.8195 -1.1284 -0.3341
  531SOL    HW2 3601   9.355   0.184   9.252  1.4563 -2.2416  1.0599
  532SOL     OW 3602   8.482   1.567   5.315 -0.0427 -0.1259 -0.3426
  532SOL    HW1 3603   8.398   1.603   5.343  0.4121  0.8001 -0.1415
  532SOL    HW2 3604   8.547   1.629   5.347  0.8094 -1.3679  0.4611
  533SOL     OW 3605   3.133  10.342   7.298 -0.2470  0.5619  0.2348
  533SOL    HW1 3606   3.156  10.409   7.363  0.6189  0.8428 -0.3485
  533SOL    HW2 3607   3.179  10.264   7.328 -1.0227  0.2960  0.7542
  534SOL     OW 3608   4.481   5.396  10.378  0.4105 -0.2423 -0.1751
  534SOL    HW1 3609   4.445   5.354  10.456  1.7402 -1.6046 -0.2406
  534SOL    HW2 3610   4.411   5.453  10.347 -2.1037 -3.3657 -0.8248
  535SOL     OW 3611   0.804   0.861   5.107 -0.0283  0.0280  0.4420
  535SOL    HW1 3612   0.829   0.886   5.196  0.5007 -0.2431  0.3735
  535SOL    HW2 3613   0.826   0.937   5.053  2.0635 -0.7273  0.1541
  536SOL     OW 3614   4.585  10.444   0.358 -0.3947  0.6559 -0.4575
  536SOL    HW1 3615   4.521  10.405   0.418  0.4593 -0.5293 -0.2860
  536SOL    HW2 3616   4.547  10.529   0.334 -3.2237 -0.9619 -2.2786
  537SOL     OW 3617   0.511   2.522   1.071 -0.1707 -0.4126  0.2799
  537SOL    HW1 3618   0.585   2.578   1.092 -1.2995  0.1211  3.3105
  537SOL    HW2 3619   0.439   2.583   1.052 -0.3767 -0.9083 -0.5960
  538SOL     OW 3620   6.046  10.036   7.556  0.1217 -0.6406  0.9901
  538SOL    HW1 3621   6.000   9.997   7.482 -1.4540  0.2811  1.4502
  538SOL    HW2 3622   6.137  10.046   7.525 -0.1764 -1.6386 -0.2632
  539SOL     OW 3623   5.423   3.264   4.922 -0.1987  0.0172 -0.5555
  539SOL    HW1 3624   5.412   3.317   5.000 -0.4018 -0.4269 -0.2763
  539SOL    HW2 3625   5.481   3.314   4.866  0.6822 -0.0719  0.2625
  540SOL     OW 3626   3.130   8.269   4.953  0.0579  0.0243 -0.0372
  540SOL    HW1 3627   3.186   8.224   4.891  1.3912  0.3287  0.9043
  540SOL    HW2 3628   3.041   8.243   4.928  0.6005 -0.5483 -1.4969
  541SOL     OW 3629   0.576   2.809   7.334  0.1318 -0.2601 -0.5260
  541SOL    HW1 3630   0.572   2.901   7.359 -0.4115 -0.2526 -0.6184
  541SOL    HW2 3631   0.498   2.770   7.373  0.5300 -0.7553 -0.2062
  542SOL     OW 3632   8.881   8.336   8.790 -0.3509  0.0838  0.1751
  542SOL    HW1 3633   8.954   8.370   8.739 -2.8483 -0.3184 -4.1193
  542SOL    HW2 3634   8.906   8.246   8.812  0.9227  0.3548 -0.0802
  543SOL     OW 3635   8.436   2.683   5.973  0.0929  1.0166  0.4959
  543SOL    HW1 3636   8.414   2.768   6.011  1.4459  1.4970  0.2716
  543SOL    HW2 3637   8.389   2.682   5.889 -0.8285  1.0425  0.9921
  544SOL     OW 3638   6.851   8.323   7.622  0.3300  0.0604 -0.2243
  544SOL    HW1 3639   6.756   8.315   7.630  0.4175  0.8554  2.3776
  544SOL    HW2 3640   6.864   8.396   7.561 -0.8027  1.7473  1.4617
  545SOL     OW 3641  10.777   6.117   4.545 -0.4032  0.5614  0.0588
  545SOL    HW1 3642  10.754   6.038   4.594  0.2842 -1.6901 -2.9032
  545SOL    HW2 3643  10.706   6.128   4.482  1.2559 -0.0609 -2.0577
  546SOL     OW 3644   5.695  10.525   9.522  0.8351 -0.1250  0.7200
  546SOL    HW1 3645   5.710  10.569   9.438  0.9807  2.0820  1.8270
  546SOL    HW2 3646   5.618  10.569   9.558 -0.1659 -2.0918  1.1099
  547SOL     OW 3647   5.157   0.350   7.678  0.0222 -0.6291 -0.0670
  547SOL    HW1 3648   5.106   0.372   7.757 -2.3080 -2.9917 -0.7689
  547SOL    HW2 3649   5.194   0.264   7.696 -0.3107 -1.0806 -1.4309
  548SOL     OW 3650   6.992   9.141   3.362 -0.2934  0.5175  0.0063
  548SOL    HW1 3651   7.083   9.142   3.390  0.4007  1.4593 -2.0728
  548SOL    HW2 3652   6.975   9.231   3.334 -1.8736  0.3630  0.3836
  549SOL     OW 3653   6.195   3.586   7.802  0.4805  0.5603  0.6374
  549SOL    HW1 3654   6.107   3.553   7.822  0.4019  0.3079 -0.0970
  549SOL    HW2 3655   6.180   3.676   7.773  0.5907  0.9144  1.6517
  550SOL     OW 3656   4.137   0.576   3.254 -0.1308  0.4115  0.2660
  550SOL    HW1 3657   4.125   0.488   3.290  1.4599  0.2772  0.5496
  550SOL    HW2 3658   4.205   0.615   3.309  1.5987  0.6008 -1.8706
  551SOL     OW 3659   7.063   5.064  11.036 -0.1013 -0.0028  0.6287
  551SOL    HW1 3660   7.002   4.993  11.015 -0.8149  0.4770  1.0486
  551SOL    HW2 3661   7.150   5.027  11.018 -0.3328 -1.5872  2.4105
  552SOL     OW 3662  10.220   8.763   9.082  0.2512 -0.6546  0.4928
  552SOL    HW1 3663  10.304   8.781   9.041 -0.1283 -0.0096 -0.0082
  552SOL    HW2 3664  10.228   8.800   9.170  0.1441  0.2913  0.1116
  553SOL     OW 3665   2.751   2.188  10.010  0.6646  0.3821 -0.5655
  553SOL    HW1 3666   2.720   2.208  10.099  0.6303 -1.7677 -0.0455
  553SOL    HW2 3667   2.685   2.128   9.975  2.8867 -2.4394 -0.2857
  554SOL     OW 3668   7.982   1.111  10.915  0.7854  0.1417  0.2709
  554SOL    HW1 3669   7.910   1.139  10.971  0.8874  0.9499  0.0075
  554SOL    HW2 3670   7.940   1.091  10.831  0.6581 -0.8972  0.5621
  555SOL     OW 3671   0.227   5.750  10.990  0.7856 -0.4384 -0.3244
  555SOL    HW1 3672   0.225   5.843  11.015  1.7450 -0.3092 -0.6690
  555SOL    HW2 3673   0.149   5.712  11.031  1.2643  0.1792  1.2443
  556SOL     OW 3674   1.397   0.490   7.276 -0.7084  0.1254 -0.0199
  556SOL    HW1 3675   1.408   0.407   7.323  0.1855  0.2334 -0.0257
  556SOL    HW2 3676   1.387   0.555   7.345 -2.0952 -0.0655 -0.0207
  557SOL     OW 3677   2.757   9.696   9.066 -0.2266 -0.1942  0.3525
  557SOL    HW1 3678   2.839   9.663   9.103 -0.0621 -0.3472 -0.1375
  557SOL    HW2 3679   2.779   9.782   9.031 -1.0102  1.1577  2.9905
  558SOL     OW 3680   9.266   4.269   6.449 -0.1646  0.1797 -0.7233
  558SOL    HW1 3681   9.214   4.282   6.529 -1.3694  0.6657 -1.5628
  558SOL    HW2 3682   9.202   4.251   6.381  0.8089  0.3633 -1.7158
  559SOL     OW 3683  10.881   8.583  10.829 -0.5288  0.2647  0.1272
  559SOL    HW1 3684  10.953   8.594  10.767 -0.2502 -0.1879  0.3622
  559SOL    HW2 3685  10.868   8.669  10.867 -0.9618  0.6466 -0.8409
  560SOL     OW 3686  10.227   3.489   4.619 -0.1319  0.2095  0.0250
  560SOL    HW1 3687  10.254   3.571   4.660 -0.1588 -0.1581  0.7945
  560SOL    HW2 3688  10.189   3.438   4.690 -0.7185 -0.2120 -0.5798
  561SOL     OW 3689  10.921   7.985   0.913 -1.2243  0.4792 -0.3580
  561SOL    HW1 3690  10.831   7.954   0.910 -1.1708  0.2327  0.3563
  561SOL    HW2 3691  10.966   7.923   0.971 -1.0224  1.6272  0.7625
  562SOL     OW 3692   3.545   7.276   3.921  0.6108 -0.1209  0.0572
  562SOL    HW1 3693   3.460   7.263   3.877 -0.2890  0.2297  1.6370
  562SOL    HW2 3694   3.576   7.188   3.939  2.0872 -0.4005 -3.1631
  563SOL     OW 3695   3.220   8.434   0.779 -0.3846  0.0375 -0.6047
  563SOL    HW1 3696   3.276   8.364   0.809 -0.4777 -1.5451 -3.7014
  563SOL    HW2 3697   3.247   8.449   0.688 -3.7014  0.4325 -1.6656
  564SOL     OW 3698   1.441   9.268   3.461  0.1212  0.5155  0.3945
  564SOL    HW1 3699   1.514   9.251   3.402 -0.0215  3.4046 -0.7965
  564SOL    HW2 3700   1.363   9.247   3.410  0.0552  1.1086  0.2369
  565SOL     OW 3701   1.311   8.581   6.103 -0.7329  0.2159 -0.5653
  565SOL    HW1 3702   1.281   8.522   6.172  0.8114 -0.4059 -0.3774
  565SOL    HW2 3703   1.407   8.583   6.113 -0.5662  0.9378 -2.0219
  566SOL     OW 3704   5.614   4.579   5.382  0.1078 -0.0526 -0.4659
  566SOL    HW1 3705   5.667   4.502   5.403  1.7534  0.7636 -1.4377
  566SOL    HW2 3706   5.613   4.583   5.287  1.8588  2.2278 -0.4902
  567SOL     OW 3707   9.447  10.220   6.601  0.6851  0.5911 -0.0081
  567SOL    HW1 3708   9.492  10.248   6.680 -0.9521  0.1805  1.1216
  567SOL    HW2 3709   9.426  10.128   6.617 -0.7853  0.8454 -0.3498
  568SOL     OW 3710   1.768   5.659  10.974 -0.1665  0.0688 -0.7620
  568SOL    HW1 3711   1.699   5.655  10.907  0.0906  1.2989 -1.1177
  568SOL    HW2 3712   1.720   5.672  11.056 -0.4249 -0.2977 -0.8520
  569SOL     OW 3713   5.679   1.857   1.623  0.0682  0.1506  0.4361
  569SOL    HW1 3714   5.624   1.933   1.641  1.9842  1.9414 -0.8674
  569SOL    HW2 3715   5.741   1.854   1.696  0.4099  0.2515  0.1529
  570SOL     OW 3716   1.270   9.021   7.475  0.5691  0.5468 -0.5544
  570SOL    HW1 3717   1.341   8.970   7.514 -1.5551 -1.8548  0.4748
  570SOL    HW2 3718   1.231   9.068   7.549  0.7648  1.4778 -1.0320
  571SOL     OW 3719   1.573  10.960   3.194  0.1137  0.1653  0.2009
  571SOL    HW1 3720   1.537  10.963   3.105 -0.9778 -0.2092  0.6116
  571SOL    HW2 3721   1.568  11.050   3.226 -0.3244  0.1436  0.1978
  572SOL     OW 3722   3.171  10.365   7.002 -0.0103 -0.5120  0.0885
  572SOL    HW1 3723   3.163  10.390   7.094  1.5194 -1.4741  0.5263
  572SOL    HW2 3724   3.081  10.359   6.971 -0.5605 -0.2228  1.5409
  573SOL     OW 3725   3.113   2.543   4.495 -0.1965  0.1164  0.4825
  573SOL    HW1 3726   3.065   2.568   4.416  1.3047  1.0502 -0.1925
  573SOL    HW2 3727   3.154   2.625   4.525  0.1340 -0.4383  1.6106
  574SOL     OW 3728   1.793   8.007   6.064  0.5655 -0.1309  1.4210
  574SOL    HW1 3729   1.849   7.976   6.135  1.8400  0.9766  0.9341
  574SOL    HW2 3730   1.712   7.956   6.074  1.8499 -2.2138  1.7719
  575SOL     OW 3731   4.822   6.846   4.597  1.0137 -0.1852 -0.2604
  575SOL    HW1 3732   4.897   6.841   4.537  3.1756 -1.0718  2.2935
  575SOL    HW2 3733   4.812   6.757   4.630 -1.4557 -0.1607 -0.7485
  576SOL     OW 3734   3.665   4.877   9.962 -0.0224 -0.0325  0.4710
  576SOL    HW1 3735   3.702   4.802  10.009 -0.6849 -0.4026  0.4209
  576SOL    HW2 3736   3.664   4.947  10.026  2.5984  0.6055 -0.0664
  577SOL     OW 3737   8.784   3.725   9.437  0.2781 -0.5268  0.2042
  577SOL    HW1 3738   8.746   3.679   9.362 -0.1319 -0.1168  0.1580
  577SOL    HW2 3739   8.801   3.656   9.501  0.1225 -0.8090 -0.0555
  578SOL     OW 3740   1.579   7.655   0.162  0.0420  0.0618 -0.9520
  578SOL    HW1 3741   1.657   7.704   0.189 -0.3589  0.2569 -0.1284
  578SOL    HW2 3742   1.569   7.677   0.069  0.8244  0.2287 -1.0080
  579SOL     OW 3743  10.436   4.956   9.022 -0.1343 -0.1492 -0.0665
  579SOL    HW1 3744  10.409   4.953   8.930  0.6012 -0.5445 -0.2776
  579SOL    HW2 3745  10.493   4.880   9.032 -0.7541 -0.5051  0.8985
  580SOL     OW 3746   2.233   3.669   0.992 -0.7668 -0.1930 -0.7830
  580SOL    HW1 3747   2.158   3.614   0.968 -0.3943 -0.3560 -1.6012
  580SOL    HW2 3748   2.270   3.628   1.069 -1.5128 -0.1207 -0.3796
  581SOL     OW 3749   6.139   9.215  10.599  0.0479  0.0295  0.0878
  581SOL    HW1 3750   6.159   9.294  10.649 -1.0198  0.9972 -0.9473
  581SOL    HW2 3751   6.219   9.163  10.604  1.4953  2.0309 -0.7572
  582SOL     OW 3752   2.089   7.038   9.330  0.1158  0.3769  0.6880
  582SOL    HW1 3753   2.027   7.112   9.326  0.9682  1.0720 -0.1448
  582SOL    HW2 3754   2.052   6.972   9.272  0.5737  1.1478 -0.5221
  583SOL     OW 3755   4.260   7.805   0.772 -0.4040  0.3351  0.1434
  583SOL    HW1 3756   4.167   7.795   0.755 -1.3723 -1.5855  4.9281
  583SOL    HW2 3757   4.301   7.731   0.727 -1.8058 -1.0971  1.1176
  584SOL     OW 3758   7.540   1.213   1.170  0.7867 -0.2395 -0.2434
  584SOL    HW1 3759   7.517   1.219   1.262 -2.5419 -0.9910 -0.9145
  584SOL    HW2 3760   7.593   1.133   1.164  1.3496  0.0078  1.0151
  585SOL     OW 3761   7.448   8.551   9.655 -0.2349  1.0663  0.4858
  585SOL    HW1 3762   7.513   8.525   9.589 -0.1860  0.1831  0.8662
  585SOL    HW2 3763   7.453   8.646   9.656 -2.3397  1.3842 -2.9187
  586SOL     OW 3764   9.682   7.343   7.979  0.5835  0.1860  0.5372
  586SOL    HW1 3765   9.594   7.377   7.963  0.5137  0.3219  1.2155
  586SOL    HW2 3766   9.740   7.414   7.953  0.5821 -0.5081 -1.5996
  587SOL     OW 3767   5.889   2.382   4.360  0.7758 -0.4688  0.5059
  587SOL    HW1 3768   5.972   2.342   4.337 -0.4577 -2.7670 -0.3185
  587SOL    HW2 3769   5.828   2.309   4.367 -0.9702  1.0173  2.1803
  588SOL     OW 3770   2.072   0.090   6.978  0.4970  0.4461  0.3049
  588SOL    HW1 3771   2.158   0.121   7.007  0.7726  1.8129 -1.7479
  588SOL    HW2 3772   2.092   0.029   6.906 -0.1990  2.4546 -1.7112
  589SOL     OW 3773   6.351   9.043   4.208  0.1118  0.3228  0.0815
  589SOL    HW1 3774   6.442   9.059   4.233  1.6308 -2.5474 -2.9040
  589SOL    HW2 3775   6.349   9.054   4.113 -2.1206 -1.7355 -0.2181
  590SOL     OW 3776   8.470   3.971   3.600 -0.6583 -0.6105 -0.1314
  590SOL    HW1 3777   8.447   3.977   3.507 -0.6408  0.7057 -0.0803
  590SOL    HW2 3778   8.390   3.940   3.643 -0.8673 -0.6023 -0.5155
  591SOL     OW 3779   0.055   3.966   2.661  0.3535 -0.3105 -0.0285
  591SOL    HW1 3780   0.059   3.999   2.750 -0.9162  0.6525 -0.3029
  591SOL    HW2 3781   0.036   3.873   2.670  1.2113 -0.4325  0.6996
  592SOL     OW 3782   3.936  11.032   0.765  0.3632 -0.1405  0.4967
  592SOL    HW1 3783   4.000  11.087   0.719  0.7469 -0.4037  0.7141
  592SOL    HW2 3784   3.924  10.956   0.708  1.0212 -0.5838  0.9392
  593SOL     OW 3785   6.813   0.476   1.479  0.1008 -0.3969  0.2359
  593SOL    HW1 3786   6.827   0.542   1.412 -1.1892 -0.0022  0.3335
  593SOL    HW2 3787   6.893   0.423   1.478 -0.2474 -0.9965 -2.2701
  594SOL     OW 3788   5.603   1.599   3.800  0.0117 -0.3983 -0.5329
  594SOL    HW1 3789   5.642   1.597   3.713  1.3497  2.7897 -0.1643
  594SOL    HW2 3790   5.530   1.661   3.792  0.0405 -0.2020  0.5727
  595SOL     OW 3791   9.883   3.007  10.362  0.3818 -0.0390 -0.0142
  595SOL    HW1 3792   9.977   3.024  10.369 -0.0034  3.1584 -0.7073
  595SOL    HW2 3793   9.855   2.990  10.452  1.6359 -1.4909  0.1464
  596SOL     OW 3794   3.541  10.391   0.649  0.5796 -0.0028  0.7401
  596SOL    HW1 3795   3.469  10.357   0.596  1.8591  0.3129 -1.3254
  596SOL    HW2 3796   3.509  10.475   0.682 -0.4614 -0.4691  0.9407
  597SOL     OW 3797   0.664  10.868   4.897 -0.0833 -0.2085 -0.0829
  597SOL    HW1 3798   0.750  10.840   4.867 -0.4514 -0.6204 -0.7707
  597SOL    HW2 3799   0.682  10.936   4.962  0.7445  0.4724 -0.9993
  598SOL     OW 3800   5.897   5.724   1.594 -0.2036 -0.4813  0.2213
  598SOL    HW1 3801   5.911   5.680   1.677  1.8063 -0.1924  0.0841
  598SOL    HW2 3802   5.886   5.816   1.617 -0.9082 -0.5688  0.2489
  599SOL     OW 3803   1.958   6.536   0.427 -0.2004 -0.4990  0.1214
  599SOL    HW1 3804   1.952   6.602   0.358  0.7306  1.2347  1.5947
  599SOL    HW2 3805   1.937   6.453   0.384  1.4965  0.3223 -2.5215
  600SOL     OW 3806  10.909  10.663   9.421 -0.0968 -0.2515  0.2687
  600SOL    HW1 3807  10.827  10.703   9.392  0.4059  1.3973  1.0430
  600SOL    HW2 3808  10.978  10.721   9.390  0.6724 -0.5662  1.3054
  601SOL     OW 3809   7.710   3.856   6.568 -0.1847 -0.5545  0.0959
  601SOL    HW1 3810   7.692   3.950   6.571  1.4413 -0.1916 -0.3551
  601SOL    HW2 3811   7.772   3.841   6.640  1.4362 -0.7926 -1.2874
  602SOL     OW 3812   6.592   7.528   2.067  0.4059 -0.3876 -0.5470
  602SOL    HW1 3813   6.549   7.464   2.124 -1.1178  0.4820 -0.6658
  602SOL    HW2 3814   6.686   7.517   2.085  0.1397 -2.1496 -0.0586
  603SOL     OW 3815   2.740   3.404   9.642 -0.0974  0.1543 -0.1901
  603SOL    HW1 3816   2.734   3.499   9.655  0.5521  0.2207 -0.3782
  603SOL    HW2 3817   2.680   3.386   9.569 -0.4563  0.3694  0.0453
  604SOL     OW 3818   5.636   7.673   0.346  0.0503  0.0009 -0.5674
  604SOL    HW1 3819   5.703   7.607   0.364  0.4112  0.4209 -0.3830
  604SOL    HW2 3820   5.678   7.757   0.365 -0.7071  0.2353  0.0954
  605SOL     OW 3821  10.770   6.331   9.001 -0.0444 -0.2036  0.4525
  605SOL    HW1 3822  10.784   6.315   9.095 -0.2196  0.5455  0.6094
  605SOL    HW2 3823  10.708   6.262   8.975  1.1386 -1.3340  0.5421
  606SOL     OW 3824   0.832  10.774   7.669 -0.5201  0.3157 -0.1777
  606SOL    HW1 3825   0.864  10.732   7.589  1.4258 -0.9135  1.1749
  606SOL    HW2 3826   0.852  10.866   7.657  0.6431  0.0116 -0.7311
  607SOL     OW 3827   9.948   9.253   6.912 -0.2131 -0.0541  0.3843
  607SOL    HW1 3828   9.869   9.241   6.860  0.7697 -1.4772 -0.8745
  607SOL    HW2 3829   9.978   9.341   6.892 -1.8955  0.8525  1.5553
  608SOL     OW 3830   4.780   0.733   9.444  0.5341 -0.3959  0.1273
  608SOL    HW1 3831   4.829   0.812   9.469  0.3152  0.0959 -0.9447
  608SOL    HW2 3832   4.803   0.719   9.353  1.1055 -2.0024  0.4937
  609SOL     OW 3833   2.048   0.564   9.663  1.0178 -0.6618 -0.4101
  609SOL    HW1 3834   2.124   0.526   9.618  2.4775 -0.1756  1.4883
  609SOL    HW2 3835   2.019   0.634   9.605  0.4176 -2.3994 -2.3350
  610SOL     OW 3836   4.109   1.286   0.630  0.1877 -0.7060  0.1308
  610SOL    HW1 3837   4.130   1.224   0.560  0.3295  0.7918 -1.2117
  610SOL    HW2 3838   4.186   1.285   0.687  0.6713 -0.9035 -0.5166
  611SOL     OW 3839   9.956   6.916   7.487  0.2491  0.4191  0.7280
  611SOL    HW1 3840  10.020   6.958   7.544  0.3088  1.3849 -0.0290
  611SOL    HW2 3841   9.984   6.939   7.399 -1.1718  0.9108  0.3851
  612SOL     OW 3842   0.488  10.412   0.276  0.3590 -0.0697  0.9869
  612SOL    HW1 3843   0.580  10.394   0.262  0.0233 -0.3944 -1.1082
  612SOL    HW2 3844   0.442  10.350   0.219 -1.0053  2.8504 -1.3232
  613SOL     OW 3845   6.420   1.888   9.869 -0.3432 -0.0680 -0.2613
  613SOL    HW1 3846   6.386   1.805   9.905  0.1932 -0.2749 -0.2205
  613SOL    HW2 3847   6.363   1.955   9.907 -1.5327 -0.4998 -1.2283
  614SOL     OW 3848   8.872   8.041  11.065  0.1623 -0.2219  0.2614
  614SOL    HW1 3849   8.813   7.984  11.016  1.2845 -1.7467  0.6071
  614SOL    HW2 3850   8.827   8.125  11.068 -1.1707 -0.8468 -0.9970
  615SOL     OW 3851   0.451   3.823  10.832 -0.1234  0.3479 -0.0363
  615SOL    HW1 3852   0.453   3.906  10.784  1.8486  1.6051  2.0150
  615SOL    HW2 3853   0.491   3.760  10.772  0.4586  1.4071 -0.7958
  616SOL     OW 3854   9.563   6.467   2.439  0.2934  0.7471  0.5590
  616SOL    HW1 3855   9.512   6.469   2.520 -1.2646 -2.9066 -0.1557
  616SOL    HW2 3856   9.550   6.379   2.404  1.7699  1.8108 -3.1627
  617SOL     OW 3857   5.409  11.096   1.151 -0.6592  0.3746 -0.3881
  617SOL    HW1 3858   5.375  11.040   1.081  0.4775 -0.3422 -0.3836
  617SOL    HW2 3859   5.334  11.109   1.209 -0.8788 -1.4324 -0.2123
  618SOL     OW 3860   6.617   8.248   3.040 -0.5398 -0.2775 -0.7052
  618SOL    HW1 3861   6.640   8.287   3.125 -0.2192 -0.1627 -0.8433
  618SOL    HW2 3862   6.679   8.176   3.030  0.7308  0.9100 -1.7367
  619SOL     OW 3863   5.660   9.555  10.711 -0.2117  0.0601  0.1557
  619SOL    HW1 3864   5.756   9.558  10.712 -0.2209  0.7407 -0.4992
  619SOL    HW2 3865   5.640   9.470  10.673  0.0952 -1.5824  3.2915
  620SOL     OW 3866  10.016   3.515   7.137  0.6021 -0.6460 -0.1738
  620SOL    HW1 3867  10.068   3.594   7.124 -0.2397  0.0439  0.5577
  620SOL    HW2 3868   9.958   3.536   7.210  1.0719 -2.3085  0.7198
  621SOL     OW 3869   9.276   6.073   0.928  0.7978 -0.1225 -0.6769
  621SOL    HW1 3870   9.190   6.112   0.912  0.2156 -1.3272 -0.5313
  621SOL    HW2 3871   9.289   6.013   0.855  1.0938 -0.6553 -0.1889
  622SOL     OW 3872   2.331   0.779   4.602 -0.7085 -0.5655 -0.6664
  622SOL    HW1 3873   2.418   0.804   4.570 -0.8717 -0.5229 -1.0924
  622SOL    HW2 3874   2.343   0.759   4.694 -0.6635  1.6472 -0.1395
  623SOL     OW 3875   8.884   8.933   2.982 -0.5674  0.4960 -0.2223
  623SOL    HW1 3876   8.956   8.940   2.920 -0.6658  1.1764 -0.2680
  623SOL    HW2 3877   8.819   8.996   2.951 -0.4091  1.2091  0.8341
  624SOL     OW 3878   1.735   9.472   8.311  0.7843  0.0146 -0.2964
  624SOL    HW1 3879   1.698   9.555   8.341 -1.4756 -0.7612 -0.7531
  624SOL    HW2 3880   1.743   9.482   8.216  0.2287 -0.3823 -0.3887
  625SOL     OW 3881   0.318   4.598   2.175  0.3214 -0.3395  0.1699
  625SOL    HW1 3882   0.333   4.514   2.131 -0.6299 -0.9515  0.9726
  625SOL    HW2 3883   0.382   4.657   2.136  1.4707 -1.6081  0.0616
  626SOL     OW 3884   8.649  10.335   0.867  0.2920 -0.2965  0.1882
  626SOL    HW1 3885   8.617  10.355   0.779 -1.1195  0.3949  0.8182
  626SOL    HW2 3886   8.598  10.393   0.924  1.6211 -0.2930  1.4119
  627SOL     OW 3887   9.712   4.365   7.968  0.2955 -0.4495 -0.3889
  627SOL    HW1 3888   9.764   4.393   8.043 -0.7739  1.8379 -0.4101
  627SOL    HW2 3889   9.707   4.443   7.912 -2.8895 -0.6112 -0.4965
  628SOL     OW 3890   8.516   3.801   6.168  0.2148 -0.0795  0.2349
  628SOL    HW1 3891   8.543   3.713   6.141  1.9554  0.9696 -1.7602
  628SOL    HW2 3892   8.586   3.858   6.137 -1.6086  2.2131  0.0332
  629SOL     OW 3893   8.196   7.116   2.823  0.7109  0.2994  0.4199
  629SOL    HW1 3894   8.214   7.121   2.729  0.8512 -1.2850  0.3344
  629SOL    HW2 3895   8.194   7.207   2.852 -0.5777  0.9020 -1.3471
  630SOL     OW 3896   1.497   5.924   2.858 -0.4127  0.4503  0.0397
  630SOL    HW1 3897   1.593   5.920   2.860 -0.3502  0.9212 -1.1364
  630SOL    HW2 3898   1.474   5.893   2.770 -1.3301  0.5700  0.2292
  631SOL     OW 3899  10.265   3.473   1.543 -0.4795 -0.2889 -0.6342
  631SOL    HW1 3900  10.326   3.486   1.470  0.8793  3.3141  0.9373
  631SOL    HW2 3901  10.200   3.543   1.531 -0.5487  0.0010  1.2600
  632SOL     OW 3902  10.089   4.931   8.815  0.2976  0.5933  0.3237
  632SOL    HW1 3903   9.997   4.935   8.839  0.4074  0.7767  0.7146
  632SOL    HW2 3904  10.133   4.897   8.893  0.5852  0.6911  0.2055
  633SOL     OW 3905  10.482   2.544   2.267 -0.6763 -0.2369 -0.4140
  633SOL    HW1 3906  10.567   2.570   2.302 -0.5417 -1.9433  0.6629
  633SOL    HW2 3907  10.494   2.546   2.172 -0.1254  1.6265 -0.3423
  634SOL     OW 3908   5.738   3.186   9.132 -0.2994  0.0911  0.3757
  634SOL    HW1 3909   5.789   3.242   9.074 -1.3176 -0.6561 -1.3125
  634SOL    HW2 3910   5.802   3.123   9.167  0.3870  0.7575  0.3475
  635SOL     OW 3911  10.859   9.558   2.951 -0.2972 -0.1584  0.2641
  635SOL    HW1 3912  10.836   9.482   2.898  1.7055  1.1997 -2.8688
  635SOL    HW2 3913  10.948   9.581   2.923 -1.1937  3.9896  0.1116
  636SOL     OW 3914   5.021   4.268   7.306 -0.0501 -0.0047  0.2446
  636SOL    HW1 3915   4.943   4.226   7.270  1.1697 -2.2772  0.0038
  636SOL    HW2 3916   5.091   4.203   7.293  1.6941  1.5561  1.2686
  637SOL     OW 3917   4.722   4.484   9.283 -0.2716  0.4305 -0.1837
  637SOL    HW1 3918   4.754   4.564   9.241  0.6586  0.6417  0.8854
  637SOL    HW2 3919   4.628   4.484   9.266  0.0851  0.3718 -2.4629
  638SOL     OW 3920   3.279   7.220   3.819  0.3011 -0.2693 -0.4490
  638SOL    HW1 3921   3.231   7.164   3.880  0.9272 -0.4588 -0.1158
  638SOL    HW2 3922   3.232   7.303   3.820 -0.9834 -0.9448 -1.3835
  639SOL     OW 3923   8.317   7.992  10.571  0.1279  0.2708  0.1148
  639SOL    HW1 3924   8.279   8.022  10.489  0.3108 -0.3173 -0.1938
  639SOL    HW2 3925   8.315   8.068  10.628  1.1375  1.0283 -0.8399
  640SOL     OW 3926   6.755   9.877   8.344 -0.2120 -0.0679  0.4705
  640SOL    HW1 3927   6.758   9.969   8.315 -0.1944 -0.4779 -0.9074
  640SOL    HW2 3928   6.741   9.827   8.263  1.7649 -1.4451  0.9170
  641SOL     OW 3929   6.322   2.343   2.621 -0.0137  0.4956  0.1926
  641SOL    HW1 3930   6.255   2.345   2.552  0.9804 -0.0486 -0.8122
  641SOL    HW2 3931   6.323   2.252   2.651 -1.3990  0.9991  1.9316
  642SOL     OW 3932   9.240   4.342   3.482  0.0701  0.2198 -0.4299
  642SOL    HW1 3933   9.327   4.365   3.513 -0.5256  0.4268  1.1838
  642SOL    HW2 3934   9.240   4.367   3.389  0.7596  3.1024  0.2442
  643SOL     OW 3935   4.534   7.228   4.241  0.1951  0.7663  0.1504
  643SOL    HW1 3936   4.616   7.203   4.198  0.3660 -0.2662  1.0263
  643SOL    HW2 3937   4.494   7.292   4.182  1.3061  0.7812 -0.6167
  644SOL     OW 3938   7.489   7.712   8.720 -0.0124 -0.6785  0.2688
  644SOL    HW1 3939   7.564   7.727   8.662 -0.1696 -1.9619 -0.2998
  644SOL    HW2 3940   7.424   7.776   8.690 -0.0153 -1.1748 -0.8515
  645SOL     OW 3941   5.854   8.817   8.962 -0.2004 -0.6405  0.3164
  645SOL    HW1 3942   5.777   8.866   8.991 -0.1984 -0.8210  0.6259
  645SOL    HW2 3943   5.841   8.729   8.996 -0.1034 -0.8059 -0.0623
  646SOL     OW 3944   4.370  10.717   2.264 -0.2755 -0.5694  0.4498
  646SOL    HW1 3945   4.362  10.719   2.169  0.3967  1.2132  0.4058
  646SOL    HW2 3946   4.336  10.801   2.294 -0.6553 -1.1706  1.8193
  647SOL     OW 3947   1.949   5.603   1.211  0.3800 -0.0565 -0.0467
  647SOL    HW1 3948   1.933   5.601   1.306 -0.3730 -1.8348 -0.1573
  647SOL    HW2 3949   1.862   5.618   1.173  0.2716 -1.5429 -0.4705
  648SOL     OW 3950   5.305   1.274   8.069 -0.3139  1.2342 -0.0474
  648SOL    HW1 3951   5.216   1.246   8.089  0.2593  0.5348  1.7404
  648SOL    HW2 3952   5.319   1.352   8.123 -0.2006  2.0033 -1.1645
  649SOL     OW 3953   6.012   2.073   2.630 -0.8865  0.0186 -0.0912
  649SOL    HW1 3954   6.091   2.082   2.682 -1.9383 -0.4207  1.6758
  649SOL    HW2 3955   5.994   1.979   2.629 -0.1163 -0.1588 -2.5282
  650SOL     OW 3956   4.130   2.354   4.021 -0.8245 -0.0123 -0.1821
  650SOL    HW1 3957   4.216   2.315   4.003 -0.2532  0.8942  0.4783
  650SOL    HW2 3958   4.089   2.293   4.082  0.8586  1.2668  2.4428
  651SOL     OW 3959   2.304  10.072   5.592 -0.2232 -0.0538 -0.3158
  651SOL    HW1 3960   2.320  10.091   5.500 -0.2670  0.1396 -0.2835
  651SOL    HW2 3961   2.309   9.977   5.598  0.6745 -0.0246 -0.3593
  652SOL     OW 3962   8.790  10.647   9.986  0.1800 -0.4636 -0.1317
  652SOL    HW1 3963   8.703  10.686   9.994 -0.1490 -0.8111 -1.7152
  652SOL    HW2 3964   8.816  10.663   9.896  1.2868 -1.3526  0.0011
  653SOL     OW 3965   1.118   4.710   3.068  0.6895 -0.2987 -0.4164
  653SOL    HW1 3966   1.203   4.738   3.034  1.0695 -2.1790 -1.1477
  653SOL    HW2 3967   1.131   4.704   3.163  0.8490  1.0580 -0.3400
  654SOL     OW 3968   1.992   6.730   9.077  0.9619 -0.3754  0.5108
  654SOL    HW1 3969   1.995   6.717   9.171  0.9264  2.0715  0.9043
  654SOL    HW2 3970   2.083   6.727   9.048  0.8865 -3.2555  0.1831
  655SOL     OW 3971   8.625   6.832   9.233 -0.1398 -0.0256  0.2510
  655SOL    HW1 3972   8.587   6.919   9.220  3.7501  1.4145 -3.9218
  655SOL    HW2 3973   8.578   6.776   9.170 -0.0829  0.0047  0.1813
  656SOL     OW 3974   5.050   5.922   0.482 -0.6110 -0.3148  0.4072
  656SOL    HW1 3975   4.993   5.891   0.553 -1.6942 -0.5637 -0.5396
  656SOL    HW2 3976   5.138   5.914   0.517 -1.0934 -0.9611  1.5299
  657SOL     OW 3977   2.486   0.917   7.786  0.3721 -0.0498 -0.1490
  657SOL    HW1 3978   2.496   1.001   7.831  0.3424 -0.4501  0.6241
  657SOL    HW2 3979   2.534   0.929   7.704 -0.9833  1.2492 -0.8008
  658SOL     OW 3980   7.716   0.890   8.884  0.0734 -0.2572 -0.2521
  658SOL    HW1 3981   7.670   0.807   8.879  1.4219 -1.6302  4.8821
  658SOL    HW2 3982   7.805   0.868   8.910  0.6543  2.7190  0.7399
  659SOL     OW 3983   5.304   4.652   1.534  0.0647 -0.7387 -0.2050
  659SOL    HW1 3984   5.251   4.576   1.510 -1.3761  0.5223 -1.1762
  659SOL    HW2 3985   5.242   4.723   1.543  1.3902  0.3658  0.6565
  660SOL     OW 3986  10.139   0.159   2.208  0.2130  0.4574 -0.6788
  660SOL    HW1 3987  10.156   0.183   2.117  0.1629  0.9220 -0.5680
  660SOL    HW2 3988  10.080   0.227   2.240  3.5565  2.9183  0.9680
  661SOL     OW 3989   3.871   5.088   4.033  0.2347  0.2437 -0.3981
  661SOL    HW1 3990   3.894   5.073   4.125  1.3821  0.0851 -0.7036
  661SOL    HW2 3991   3.842   5.002   4.002 -0.3667  0.3460 -0.1325
  662SOL     OW 3992   8.851   0.864   4.997  0.0074  0.1682  0.1412
  662SOL    HW1 3993   8.854   0.917   4.918 -1.1084  1.4095  0.8872
  662SOL    HW2 3994   8.884   0.778   4.970  1.4833  1.0961 -1.2082
  663SOL     OW 3995   0.182   8.677   2.082 -0.2384  0.6245 -0.1778
  663SOL    HW1 3996   0.249   8.634   2.136 -0.1756  0.1654 -0.6122
  663SOL    HW2 3997   0.134   8.733   2.143  0.1220  0.4551  0.2644
  664SOL     OW 3998  10.194   6.859   0.362 -0.1190 -0.2111  0.1161
  664SOL    HW1 3999  10.168   6.904   0.442  0.6854 -0.1625  0.3492
  664SOL    HW2 4000  10.201   6.767   0.387  0.4499 -0.1513  0.1827
  665SOL     OW 4001   4.548   8.744   2.715  0.3723  0.2991 -0.1052
  665SOL    HW1 4002   4.481   8.791   2.764  0.8958  0.2731  0.6490
  665SOL    HW2 4003   4.612   8.717   2.781  0.3653 -0.9953 -0.5946
  666SOL     OW 4004   1.938   9.103   4.803  0.3089 -0.9700 -0.2969
  666SOL    HW1 4005   1.956   9.020   4.848  1.6656 -1.2970 -1.3455
  666SOL    HW2 4006   2.018   9.119   4.751 -0.6666  0.0232 -1.5511
  667SOL     OW 4007   1.755   7.271   0.135  0.1131  0.1650  0.2560
  667SOL    HW1 4008   1.664   7.241   0.136 -1.3226  3.7650 -1.8994
  667SOL    HW2 4009   1.778   7.276   0.042  2.1277  0.4346  0.7150
  668SOL     OW 4010   6.027   7.062   9.460 -0.1389 -0.2995 -0.8943
  668SOL    HW1 4011   6.109   7.094   9.497 -0.0732 -1.4904  0.0413
  668SOL    HW2 4012   6.052   7.023   9.376  0.6168 -2.3619  0.2125
  669SOL     OW 4013   0.251   7.194   1.285 -0.1862  1.0931 -0.0180
  669SOL    HW1 4014   0.331   7.223   1.242 -0.1307  1.8173  0.5467
  669SOL    HW2 4015   0.280   7.162   1.371 -0.2428 -0.7016 -0.6246
  670SOL     OW 4016   2.881   7.690  10.054 -0.5459 -0.2456  0.1864
  670SOL    HW1 4017   2.859   7.658   9.966 -0.5507  1.4461 -0.4788
  670SOL    HW2 4018   2.866   7.785  10.049 -0.5286 -0.1091  2.0248
  671SOL     OW 4019   6.315   1.137   6.218  0.4285 -0.1923 -0.0570
  671SOL    HW1 4020   6.341   1.049   6.190 -0.2279 -0.6260  0.6492
  671SOL    HW2 4021   6.228   1.125   6.256  0.7352  0.5888  0.9554
  672SOL     OW 4022   1.298   8.233   9.314 -0.3369  0.2736 -0.1217
  672SOL    HW1 4023   1.370   8.224   9.252  0.8727  1.0683  1.0870
  672SOL    HW2 4024   1.275   8.326   9.310 -0.4793  0.2632  0.3587
  673SOL     OW 4025   1.107   0.112   6.687  0.1647 -0.1881 -0.7290
  673SOL    HW1 4026   1.018   0.129   6.655  0.0756 -2.2527 -1.7359
  673SOL    HW2 4027   1.099   0.110   6.782 -1.5248 -3.2238 -0.8263
  674SOL     OW 4028   8.435   4.401   6.877  0.0084 -0.2305  0.9470
  674SOL    HW1 4029   8.488   4.355   6.812 -2.1085  1.2300 -2.0229
  674SOL    HW2 4030   8.474   4.376   6.961  3.4508 -1.5637 -0.8363
  675SOL     OW 4031   1.641  10.295   4.559 -0.2928 -0.0813  0.2856
  675SOL    HW1 4032   1.668  10.204   4.548  1.0303  0.3129 -0.0019
  675SOL    HW2 4033   1.575  10.293   4.628  0.3989 -1.1497  0.9445
  676SOL     OW 4034   9.091  10.947   1.611  0.1895 -0.6166  0.2724
  676SOL    HW1 4035   9.041  10.869   1.634  0.1593 -0.9244 -0.8008
  676SOL    HW2 4036   9.025  11.016   1.600  0.3421  0.2001  3.4172
  677SOL     OW 4037   7.214   3.699   5.479 -0.1166  0.5438 -0.3494
  677SOL    HW1 4038   7.246   3.620   5.435  1.4456  0.4495  0.8573
  677SOL    HW2 4039   7.185   3.667   5.565  1.6282  1.4042  0.6069
  678SOL     OW 4040   7.642   0.498  10.835  0.0958  0.1184  0.2875
  678SOL    HW1 4041   7.563   0.536  10.798  1.1626  1.0409 -1.1459
  678SOL    HW2 4042   7.712   0.557  10.809  1.2335 -0.4643  1.8386
  679SOL     OW 4043   2.173   6.171   3.119  0.9818  0.1165  0.0245
  679SOL    HW1 4044   2.242   6.235   3.138  1.3017  0.4403 -1.9608
  679SOL    HW2 4045   2.095   6.224   3.104  0.5662 -0.1719  1.0905
  680SOL     OW 4046   8.287   3.363   9.550 -0.4933  0.2581 -0.1310
  680SOL    HW1 4047   8.253   3.288   9.502  1.2051  0.9000 -2.5353
  680SOL    HW2 4048   8.316   3.327   9.634  0.4832 -1.8631 -1.3042
  681SOL     OW 4049   2.645   3.542   3.216 -0.0542 -0.8579  0.4933
  681SOL    HW1 4050   2.668   3.469   3.274 -0.2680 -2.0164 -0.8184
  681SOL    HW2 4051   2.628   3.501   3.132 -0.7369  0.6721 -0.1529
  682SOL     OW 4052  10.379  10.445   7.538 -0.0087  0.1669  0.4025
  682SOL    HW1 4053  10.310  10.453   7.473  0.6051 -0.7569 -0.3822
  682SOL    HW2 4054  10.459  10.472   7.493  0.7122 -2.1576  0.2093
  683SOL     OW 4055   2.480   9.937   9.202  0.7330  0.4778 -0.2114
  683SOL    HW1 4056   2.572   9.951   9.179  0.8290 -0.3393 -0.3574
  683SOL    HW2 4057   2.478   9.848   9.236  0.2034  0.9091  0.9218
  684SOL     OW 4058   1.566   3.517   5.976  0.1245 -0.7987  0.0740
  684SOL    HW1 4059   1.495   3.571   5.943  0.8885 -0.5996 -1.3486
  684SOL    HW2 4060   1.644   3.552   5.933  0.9166 -1.7457  0.6985
  685SOL     OW 4061  10.706   2.160  10.951 -0.6028 -0.2717 -0.4618
  685SOL    HW1 4062  10.661   2.203  11.023  1.6253 -1.2574  1.6584
  685SOL    HW2 4063  10.692   2.066  10.966  4.2721 -0.9134  2.1588
  686SOL     OW 4064  10.644   6.005   6.545  0.0810 -0.3832  0.0677
  686SOL    HW1 4065  10.644   6.083   6.489  1.8645  0.0897  0.6625
  686SOL    HW2 4066  10.554   5.972   6.540 -0.2297  0.5978 -1.7346
  687SOL     OW 4067   1.861   3.463   0.002 -0.2994  0.8043  0.5587
  687SOL    HW1 4068   1.894   3.441  -0.084 -1.1413  3.7904 -0.6779
  687SOL    HW2 4069   1.781   3.513  -0.015 -0.4426  1.5963  3.0525
  688SOL     OW 4070   7.285   3.097   5.742 -0.4941 -0.3723  0.1219
  688SOL    HW1 4071   7.327   3.165   5.689 -0.4115 -3.1904 -3.8685
  688SOL    HW2 4072   7.357   3.050   5.783 -0.0726 -1.3884 -1.6817
  689SOL     OW 4073   0.910   6.454   5.602 -0.6751 -0.1752 -0.4300
  689SOL    HW1 4074   0.898   6.400   5.680 -0.2377  0.2892 -0.0282
  689SOL    HW2 4075   0.873   6.403   5.531 -0.4450 -0.9101 -0.0271
  690SOL     OW 4076   3.541   2.004  10.574 -0.1487  0.0504 -0.4301
  690SOL    HW1 4077   3.635   2.018  10.564 -0.5720  2.2935 -2.2353
  690SOL    HW2 4078   3.526   2.008  10.669  1.6828 -1.6583  0.0001
  691SOL     OW 4079   6.771   3.866   3.603  0.1500 -0.2999  0.9194
  691SOL    HW1 4080   6.713   3.797   3.636 -2.1843  0.9883 -0.2393
  691SOL    HW2 4081   6.806   3.907   3.682  0.7976 -2.1160  1.6284
  692SOL     OW 4082   0.768  10.483   9.849  0.4992  0.7628 -0.5681
  692SOL    HW1 4083   0.689  10.437   9.821 -0.8524  2.2636  0.6080
  692SOL    HW2 4084   0.828  10.414   9.877 -0.3868 -0.4064 -1.4578
  693SOL     OW 4085   3.288   7.048   1.840  0.1070 -0.5568  0.4449
  693SOL    HW1 4086   3.216   7.109   1.858 -1.1048 -1.8416  0.2261
  693SOL    HW2 4087   3.305   7.059   1.746  0.5660  0.1241  0.6039
  694SOL     OW 4088   3.310   2.928   6.246 -0.0582  1.0206  0.4173
  694SOL    HW1 4089   3.240   2.951   6.307  1.5915  0.3723  2.6828
  694SOL    HW2 4090   3.313   2.833   6.248  1.7035  1.0517  1.4310
  695SOL     OW 4091   2.123   7.937   2.217 -0.9447  0.3609  0.1415
  695SOL    HW1 4092   2.112   7.848   2.184 -0.7527  0.8376 -1.2866
  695SOL    HW2 4093   2.183   7.979   2.154 -0.0609  1.1475  1.4540
  696SOL     OW 4094   1.643   1.189   2.239 -0.0592 -0.4403  0.4283
  696SOL    HW1 4095   1.712   1.247   2.206 -0.6512  1.3995  2.2158
  696SOL    HW2 4096   1.673   1.164   2.326 -1.6796  0.5668  1.3244
  697SOL     OW 4097   6.982   0.354   6.148  0.4045 -0.5129 -1.0200
  697SOL    HW1 4098   7.073   0.385   6.143  0.2489 -0.1142 -1.4400
  697SOL    HW2 4099   6.938   0.418   6.203  0.1875 -0.2330 -1.5120
  698SOL     OW 4100   0.423   9.511   8.455 -0.3090  0.7739  0.0091
  698SOL    HW1 4101   0.409   9.577   8.387  1.3489  0.4079 -0.7307
  698SOL    HW2 4102   0.439   9.562   8.535  3.2787  1.4774 -0.9748
  699SOL     OW 4103   9.526   0.907   0.530 -0.9510 -0.1741 -0.4717
  699SOL    HW1 4104   9.461   0.839   0.551 -0.9450 -0.0508 -0.0509
  699SOL    HW2 4105   9.479   0.967   0.471 -0.7135 -0.9673 -1.5053
  700SOL     OW 4106   1.086   2.191  10.101  0.3688  0.4682 -0.1896
  700SOL    HW1 4107   1.006   2.210  10.053 -0.4431 -1.6864  0.2015
  700SOL    HW2 4108   1.122   2.277  10.123 -1.8972  1.5024 -0.2498
  701SOL     OW 4109  10.492   5.610   9.808 -0.3511 -0.0250  0.4208
  701SOL    HW1 4110  10.548   5.538   9.779  0.3508 -0.1920  2.0899
  701SOL    HW2 4111  10.457   5.580   9.892 -0.5514  1.3227  0.8332
  702SOL     OW 4112   1.809   2.124   7.067  0.0389 -0.5591 -0.1063
  702SOL    HW1 4113   1.870   2.051   7.063  2.3279  1.2884 -0.8565
  702SOL    HW2 4114   1.755   2.114   6.988  1.4093 -0.5749 -1.0753
  703SOL     OW 4115   4.772   1.737   1.156  0.5872  0.1398  0.0414
  703SOL    HW1 4116   4.810   1.669   1.211  0.6272 -1.3777 -1.7898
  703SOL    HW2 4117   4.827   1.740   1.078  0.0547  1.6647 -0.3280
  704SOL     OW 4118   1.884   1.090   9.287  0.3105 -0.0377 -0.1626
  704SOL    HW1 4119   1.837   1.018   9.245  0.2996  0.6288 -1.3388
  704SOL    HW2 4120   1.968   1.094   9.241  0.8894 -0.2055  0.8581
  705SOL     OW 4121  10.643   0.887   7.303 -0.3297 -0.0184  0.2422
  705SOL    HW1 4122  10.703   0.961   7.294  0.6553 -0.9306 -0.8822
  705SOL    HW2 4123  10.687   0.827   7.363 -1.3125  0.4300  1.4869
  706SOL     OW 4124   3.523   0.041   6.560 -0.3211  0.2186  0.4524
  706SOL    HW1 4125   3.602   0.025   6.611  1.1879  1.8831 -1.2039
  706SOL    HW2 4126   3.470   0.099   6.615  0.4844  0.6201  0.8216
  707SOL     OW 4127   8.100   1.804   6.878  0.1183 -0.5520  0.7065
  707SOL    HW1 4128   8.096   1.881   6.936  0.5612 -0.3590  0.4855
  707SOL    HW2 4129   8.010   1.792   6.848 -0.1453 -0.7423  1.5483
  708SOL     OW 4130   8.704   9.749   9.227 -0.1782  0.1741  0.6829
  708SOL    HW1 4131   8.692   9.708   9.142 -1.3507  0.1000  0.8619
  708SOL    HW2 4132   8.713   9.676   9.289 -0.0938  0.2108  0.7136
  709SOL     OW 4133   8.078   6.432   7.371 -0.2136  0.4370 -0.2081
  709SOL    HW1 4134   8.027   6.480   7.437  1.2908  1.8064  0.0202
  709SOL    HW2 4135   8.056   6.475   7.288  1.6509  2.0754  0.0807
  710SOL     OW 4136   1.010   8.075   5.771  0.0239 -0.4270 -0.2680
  710SOL    HW1 4137   1.105   8.069   5.761  0.1762 -1.0884  1.3299
  710SOL    HW2 4138   0.996   8.147   5.833 -0.4326 -1.1567  0.5001
  711SOL     OW 4139   6.752   0.263   4.661 -0.4350 -0.1017 -0.7320
  711SOL    HW1 4140   6.751   0.358   4.649 -2.4765  0.0480  0.2358
  711SOL    HW2 4141   6.840   0.244   4.694 -1.4231  2.1653  3.9382
  712SOL     OW 4142   1.920   3.947   2.570 -0.6546  0.3218 -0.3654
  712SOL    HW1 4143   1.904   3.925   2.662  1.8207  1.3264  0.3990
  712SOL    HW2 4144   1.853   3.899   2.521 -0.0496 -2.8821  1.6998
  713SOL     OW 4145   7.896   4.186   8.191  0.1031  0.4151 -0.3473
  713SOL    HW1 4146   7.857   4.185   8.103 -0.9990  0.0306  0.1301
  713SOL    HW2 4147   7.923   4.277   8.204 -3.7909  1.6475  0.6071
  714SOL     OW 4148   0.478   5.648   5.090  0.1015  0.3666  0.1620
  714SOL    HW1 4149   0.456   5.689   5.174 -0.2285 -1.5622  1.0613
  714SOL    HW2 4150   0.511   5.561   5.113  1.2271  0.2509 -1.6457
  715SOL     OW 4151   9.832   0.840  10.533  0.3242  0.2184 -0.7771
  715SOL    HW1 4152   9.781   0.793  10.599 -0.1819  0.3745 -1.0611
  715SOL    HW2 4153   9.895   0.891  10.585  2.0419 -2.0382 -0.4923
  716SOL     OW 4154   0.678   0.220   9.279  1.0973  0.4093  0.0373
  716SOL    HW1 4155   0.688   0.252   9.369 -0.8963 -0.5457  0.6574
  716SOL    HW2 4156   0.746   0.153   9.270  0.9873  0.1498  1.0366
  717SOL     OW 4157   5.678   6.314   9.141  0.1744  0.1163  0.7822
  717SOL    HW1 4158   5.593   6.295   9.102 -0.6160  3.1717  0.8009
  717SOL    HW2 4159   5.676   6.269   9.225 -1.4016  0.0540  0.7408
  718SOL     OW 4160  10.082   4.286   9.246  0.7553 -0.3624  0.8743
  718SOL    HW1 4161  10.068   4.271   9.339 -0.1947 -0.5936  0.7066
  718SOL    HW2 4162  10.008   4.243   9.203 -0.0136  1.5796  0.1539
  719SOL     OW 4163   5.281   6.302  10.432 -0.3182 -0.4783 -0.6461
  719SOL    HW1 4164   5.255   6.394  10.426  1.8116  0.3567  1.2207
  719SOL    HW2 4165   5.209   6.260  10.480 -0.4291  0.6767  0.2408
  720SOL     OW 4166   1.586   1.850   1.915  0.5896  0.3024 -0.3008
  720SOL    HW1 4167   1.608   1.866   1.824  0.7872  2.9540  0.1406
  720SOL    HW2 4168   1.643   1.910   1.965 -1.3333  0.8424  1.3880
  721SOL     OW 4169   9.396   1.171   1.604 -0.6029 -0.2570  0.0721
  721SOL    HW1 4170   9.466   1.111   1.578 -0.4753  0.2678 -0.8169
  721SOL    HW2 4171   9.316   1.134   1.566 -0.8416 -0.8921  1.1423
  722SOL     OW 4172   4.455   3.317   2.221  0.5185  0.0198  0.8937
  722SOL    HW1 4173   4.492   3.255   2.158  3.1130  1.3302  1.0095
  722SOL    HW2 4174   4.391   3.366   2.170  0.6910 -0.6583 -0.0163
  723SOL     OW 4175   6.802  10.772   4.295  0.0098 -0.4042 -0.0913
  723SOL    HW1 4176   6.781  10.860   4.326  0.5115 -0.3641  0.1494
  723SOL    HW2 4177   6.717  10.729   4.285 -0.4671  0.9813 -2.8853
  724SOL     OW 4178   6.801   7.495   3.771  0.2945  0.2927 -0.1891
  724SOL    HW1 4179   6.872   7.552   3.801  1.5542 -1.5064  0.4195
  724SOL    HW2 4180   6.778   7.442   3.847 -0.8502 -0.0155 -0.7228
  725SOL     OW 4181   0.397   2.434   6.636  0.8586  0.4734  0.1258
  725SOL    HW1 4182   0.458   2.506   6.649 -0.4949  2.0620 -1.7561
  725SOL    HW2 4183   0.425   2.392   6.555  0.1870  0.4628 -0.1091
  726SOL     OW 4184   7.855   3.846   6.789 -0.2337 -0.6323 -0.5210
  726SOL    HW1 4185   7.937   3.892   6.808 -0.1804 -0.3169 -1.4533
  726SOL    HW2 4186   7.810   3.842   6.873 -0.3188  1.3139 -0.4240
  727SOL     OW 4187   8.839   1.232   3.572 -0.6366  0.3274  0.0936
  727SOL    HW1 4188   8.782   1.252   3.497  0.5795 -0.3155 -1.0358
  727SOL    HW2 4189   8.805   1.287   3.643  0.5483  4.0697 -1.9527
  728SOL     OW 4190   5.538   8.718   9.327 -0.9173  0.3631 -0.4118
  728SOL    HW1 4191   5.503   8.637   9.365 -1.3030  0.5728 -0.3202
  728SOL    HW2 4192   5.518   8.786   9.391 -0.8330  0.5792 -0.6121
  729SOL     OW 4193  10.738   5.912   7.960 -0.1288 -0.2508 -0.0687
  729SOL    HW1 4194  10.744   5.817   7.962  3.7303 -0.1797  0.4652
  729SOL    HW2 4195  10.749   5.935   7.868  2.8577 -0.4094  0.1222
  730SOL     OW 4196   5.287   4.974  10.095 -0.6515  0.1105  0.3043
  730SOL    HW1 4197   5.240   4.939  10.171 -0.2464  1.2157  1.0889
  730SOL    HW2 4198   5.364   4.918  10.086 -1.6200 -1.1616 -0.4449
  731SOL     OW 4199   3.093   5.580  10.824 -0.3099  0.4928 -0.2068
  731SOL    HW1 4200   3.033   5.517  10.865  0.5660 -0.2884 -0.0803
  731SOL    HW2 4201   3.142   5.528  10.760  2.0544  0.4691  1.4974
  732SOL     OW 4202   0.497   4.741   3.461 -0.4206  0.5673 -0.2183
  732SOL    HW1 4203   0.409   4.738   3.423 -0.9947  0.6658  1.0595
  732SOL    HW2 4204   0.550   4.786   3.395 -0.6415 -1.9438 -2.3121
  733SOL     OW 4205   4.887   3.147  11.086 -0.0860  0.1297  0.7829
  733SOL    HW1 4206   4.937   3.067  11.069 -0.5068 -0.1851  0.9995
  733SOL    HW2 4207   4.952   3.217  11.083 -0.0314  0.0633 -1.6364
  734SOL     OW 4208   5.881   8.186   5.885 -0.4003  0.0705  0.1518
  734SOL    HW1 4209   5.799   8.139   5.870 -1.0122  1.9594 -3.8426
  734SOL    HW2 4210   5.948   8.118   5.880 -1.4779 -0.9589 -1.5393
  735SOL     OW 4211   6.340   3.989   4.680  0.6209 -0.4337  0.1034
  735SOL    HW1 4212   6.351   4.052   4.751  0.5710  0.4549 -0.6622
  735SOL    HW2 4213   6.245   3.973   4.677  0.7967 -1.9737  1.4861
  736SOL     OW 4214  10.581   6.680   5.993  0.1559  0.6413 -0.1625
  736SOL    HW1 4215  10.643   6.753   5.999  0.2729  0.5631 -0.4185
  736SOL    HW2 4216  10.540   6.677   6.080 -1.7672  2.7156 -0.8878
  737SOL     OW 4217  10.755   0.152  10.213  0.0318  0.4184 -0.1729
  737SOL    HW1 4218  10.718   0.217  10.152 -1.7661 -0.1229  0.2638
  737SOL    HW2 4219  10.802   0.091  10.157 -1.9279 -0.3022 -1.1508
  738SOL     OW 4220   9.224   6.481   5.540  0.1962 -0.2467  0.2873
  738SOL    HW1 4221   9.183   6.396   5.559  0.1539 -0.3093 -0.0777
  738SOL    HW2 4222   9.220   6.528   5.623  3.9306 -2.0892  1.6950
  739SOL     OW 4223  10.081   0.942   1.833 -0.0082 -0.0627  0.2218
  739SOL    HW1 4224  10.151   0.921   1.895  0.2089  2.1512  0.8283
  739SOL    HW2 4225  10.018   0.993   1.884 -1.1967 -0.5098 -0.7469
  740SOL     OW 4226   5.152   0.976   4.685  0.0309  0.1016  0.2847
  740SOL    HW1 4227   5.195   0.935   4.611  1.4068  0.3716  0.9030
  740SOL    HW2 4228   5.102   1.049   4.647  0.0644 -0.2535 -0.4531
  741SOL     OW 4229  10.651   9.006  10.418 -0.2235 -0.5620 -0.4879
  741SOL    HW1 4230  10.712   9.065  10.373 -1.1703  0.5408 -0.3838
  741SOL    HW2 4231  10.656   9.033  10.510 -2.1215  0.7671 -0.7084
  742SOL     OW 4232   1.723   3.738   6.377 -0.0490 -0.1005  0.3157
  742SOL    HW1 4233   1.677   3.664   6.338 -0.6916 -1.2023  2.9514
  742SOL    HW2 4234   1.782   3.698   6.441  0.7142  1.6112  0.7407
  743SOL     OW 4235   6.720  10.841   5.560 -0.2487 -0.0970  0.0745
  743SOL    HW1 4236   6.720  10.932   5.529 -0.0352  0.4649  1.6574
  743SOL    HW2 4237   6.759  10.792   5.488  2.4728  1.4916  0.3365
  744SOL     OW 4238   0.661   9.966   2.020 -0.2794 -0.3029  0.4416
  744SOL    HW1 4239   0.596   9.896   2.014  0.0725 -0.6121  0.2321
  744SOL    HW2 4240   0.647  10.018   1.940 -0.3273 -0.3212  0.4377
  745SOL     OW 4241   2.770   2.744   6.916 -0.0528 -0.1864 -0.2663
  745SOL    HW1 4242   2.765   2.663   6.967  0.8829 -0.1449 -0.0927
  745SOL    HW2 4243   2.780   2.814   6.981 -0.3623  0.0210 -0.4383
  746SOL     OW 4244   1.133   7.612   3.543 -0.2178  0.2922  0.5966
  746SOL    HW1 4245   1.129   7.620   3.447  1.3856 -1.9792  0.2436
  746SOL    HW2 4246   1.165   7.696   3.573 -4.0883  2.3739 -0.4308
  747SOL     OW 4247   3.772   0.946   3.406 -0.1912 -0.8511  0.2698
  747SOL    HW1 4248   3.751   0.870   3.352  1.8707  0.0509 -2.0032
  747SOL    HW2 4249   3.855   0.922   3.448 -1.4960 -1.3261  2.7741
  748SOL     OW 4250   9.240   6.039   5.117 -0.3408  0.4490  0.5134
  748SOL    HW1 4251   9.238   6.134   5.132  3.1616  0.7741 -0.3680
  748SOL    HW2 4252   9.179   6.025   5.044 -1.7117  1.8003  1.3284
  749SOL     OW 4253   4.845   1.873   5.029 -0.0560  0.3501 -0.4628
  749SOL    HW1 4254   4.807   1.927   5.097 -1.2213  0.4140 -1.1408
  749SOL    HW2 4255   4.841   1.784   5.063  0.5340  0.5142  0.0571
  750SOL     OW 4256   9.923   0.041   5.364  0.3197  0.2480 -0.2927
  750SOL    HW1 4257   9.925   0.039   5.268  1.9862 -2.1274 -0.3005
  750SOL    HW2 4258   9.996  -0.015   5.390 -1.3876 -0.9292  2.3619
  751SOL     OW 4259  10.081   9.386   5.467 -0.2957  0.1432 -0.5658
  751SOL    HW1 4260  10.174   9.406   5.482 -0.3452  0.4769 -0.6891
  751SOL    HW2 4261  10.034   9.460   5.504 -0.6003 -0.7495  0.8792
  752SOL     OW 4262   7.490   0.961   1.838  0.4935 -0.0271  0.1958
  752SOL    HW1 4263   7.548   0.973   1.913 -0.2116  2.6014  0.4264
  752SOL    HW2 4264   7.540   0.994   1.763  0.0271  0.4564  0.0848
  753SOL     OW 4265   9.310   3.925   2.594 -0.1146  0.0391 -1.0962
  753SOL    HW1 4266   9.246   3.890   2.531 -0.2480 -2.8937  0.4636
  753SOL    HW2 4267   9.306   3.864   2.668  0.9125  2.6242  1.2639
  754SOL     OW 4268   8.356   3.073   8.889  0.2815 -0.3280 -0.3110
  754SOL    HW1 4269   8.429   3.030   8.844  0.0111 -0.8275 -0.2778
  754SOL    HW2 4270   8.278   3.045   8.841  0.1907  1.0657 -1.0186
  755SOL     OW 4271   0.102  11.039   8.186  0.0566 -0.1430  0.6148
  755SOL    HW1 4272   0.188  11.027   8.227  0.8456 -2.2804 -1.3865
  755SOL    HW2 4273   0.121  11.038   8.092 -2.2258 -1.3366  0.1034
  756SOL     OW 4274   6.145   2.559   8.057  0.1688  0.0788 -0.4121
  756SOL    HW1 4275   6.197   2.591   8.130  0.7306 -1.0472 -0.2896
  756SOL    HW2 4276   6.145   2.464   8.067 -0.9270 -0.0160 -1.0874
  757SOL     OW 4277   4.254   3.321   0.006  0.4959 -0.1812 -0.3899
  757SOL    HW1 4278   4.292   3.343   0.091 -0.0713 -0.1408 -0.1428
  757SOL    HW2 4279   4.170   3.281   0.027  0.1325  0.2737 -0.9516
  758SOL     OW 4280   9.913   6.494   5.855  0.2733 -0.2001  0.6862
  758SOL    HW1 4281   9.945   6.560   5.915 -1.0910  1.3799 -0.2451
  758SOL    HW2 4282   9.851   6.540   5.798 -0.4420 -2.1846 -0.2613
  759SOL     OW 4283   5.377   7.161   4.139  0.4864 -0.5879 -0.1124
  759SOL    HW1 4284   5.421   7.243   4.118 -0.4750  0.5556  2.0191
  759SOL    HW2 4285   5.447   7.103   4.169  0.9819 -0.0551 -0.2147
  760SOL     OW 4286   8.522   8.919   0.949  0.5436  0.5149 -0.4086
  760SOL    HW1 4287   8.566   8.930   1.033  0.4973  0.6729 -0.4033
  760SOL    HW2 4288   8.516   8.825   0.936  3.4586  0.3825 -1.7180
  761SOL     OW 4289   0.496  10.437   2.049  0.4384 -0.0496 -0.1366
  761SOL    HW1 4290   0.537  10.454   1.964 -1.9734 -1.3723 -1.6776
  761SOL    HW2 4291   0.423  10.498   2.054  0.1403 -0.4509  0.6894
  762SOL     OW 4292  10.948   0.635   7.723 -0.4869 -0.1901 -0.4011
  762SOL    HW1 4293  11.018   0.688   7.761 -0.6477  0.0228 -0.4031
  762SOL    HW2 4294  10.989   0.591   7.648 -0.5020  0.3847 -0.7563
  763SOL     OW 4295   2.981   9.350   2.322 -0.2534  0.2221 -0.0489
  763SOL    HW1 4296   2.935   9.285   2.374  1.3412 -1.1439 -0.2429
  763SOL    HW2 4297   2.914   9.386   2.264 -1.9532  1.3737  2.4391
  764SOL     OW 4298  10.759   3.121   7.274  0.1129  0.3181 -0.6602
  764SOL    HW1 4299  10.664   3.127   7.280 -0.0842 -2.5641  0.3703
  764SOL    HW2 4300  10.790   3.210   7.291 -2.2898  0.7887  1.9093
  765SOL     OW 4301   2.377   0.207   9.722  0.1194  0.5586  0.7293
  765SOL    HW1 4302   2.312   0.138   9.709  1.7814 -0.9956  0.3934
  765SOL    HW2 4303   2.334   0.268   9.783 -2.5850  0.9257 -1.3452
  766SOL     OW 4304   7.342   2.206   9.712 -0.1749 -0.3769  0.6432
  766SOL    HW1 4305   7.258   2.204   9.758 -0.8671 -1.4873 -0.6213
  766SOL    HW2 4306   7.406   2.187   9.781 -0.9758  0.0568  1.5453
  767SOL     OW 4307   2.885   4.640   3.700  0.5232  0.1445  0.1150
  767SOL    HW1 4308   2.830   4.570   3.736 -2.5974  2.1868 -0.2757
  767SOL    HW2 4309   2.861   4.718   3.750  1.6332  1.5323 -1.4041
  768SOL     OW 4310   6.351  10.623   8.622  0.2998  0.2322  0.2544
  768SOL    HW1 4311   6.308  10.657   8.544  0.7106  0.5611  0.1676
  768SOL    HW2 4312   6.410  10.694   8.650 -0.9191  0.7334  1.7234
  769SOL     OW 4313   9.824   5.600   0.004  0.4557 -0.2244  0.4859
  769SOL    HW1 4314   9.888   5.534   0.032 -0.8454 -1.4826  0.5957
  769SOL    HW2 4315   9.860   5.683   0.036  1.1671 -1.1009  2.0919
  770SOL     OW 4316   1.505   3.463   3.455 -1.1564  0.1807  0.6923
  770SOL    HW1 4317   1.494   3.382   3.506  1.2210 -2.2151 -2.2590
  770SOL    HW2 4318   1.599   3.469   3.438 -1.6439  1.7077 -2.0116
  771SOL     OW 4319   1.785   6.638   5.335  0.0516  0.0188  0.4968
  771SOL    HW1 4320   1.789   6.563   5.394  1.8236  0.7510  1.3931
  771SOL    HW2 4321   1.861   6.691   5.359 -0.6169  1.6268 -0.7502
  772SOL     OW 4322   5.399  10.773   3.627  0.2866 -0.3939  0.2170
  772SOL    HW1 4323   5.397  10.778   3.723 -1.2665  0.1188  0.1954
  772SOL    HW2 4324   5.396  10.679   3.609 -0.8477 -0.4703  0.6971
  773SOL     OW 4325   8.715   0.477   1.168  0.5873  0.0952  0.3020
  773SOL    HW1 4326   8.739   0.421   1.242  1.5069 -1.1249 -0.8794
  773SOL    HW2 4327   8.652   0.539   1.205  0.5335 -0.8804  1.9573
  774SOL     OW 4328   9.469   9.930   6.283  0.4591  1.0833  0.4901
  774SOL    HW1 4329   9.557   9.966   6.276  0.5456  0.6995 -0.5939
  774SOL    HW2 4330   9.416   9.985   6.225  0.2375  0.5870  0.2110
  775SOL     OW 4331   0.390   6.072  10.157 -0.8587  0.0618 -0.0745
  775SOL    HW1 4332   0.384   6.014  10.233 -0.2824 -0.7263 -0.6130
  775SOL    HW2 4333   0.483   6.093  10.151 -1.1565  1.7344  0.5999
  776SOL     OW 4334   9.511   1.665   4.871  1.1091  0.0410  0.6763
  776SOL    HW1 4335   9.536   1.756   4.888  1.5765 -0.0414  0.4612
  776SOL    HW2 4336   9.440   1.647   4.933 -0.2530  1.1157 -0.5125
  777SOL     OW 4337   1.679   9.740   8.436 -0.0437 -0.0435  0.2804
  777SOL    HW1 4338   1.589   9.757   8.408 -0.6660 -3.0901  0.1273
  777SOL    HW2 4339   1.681   9.763   8.529 -1.0072  0.0013  0.2941
  778SOL     OW 4340   4.007   0.053   1.595  0.1506 -0.1641  0.6295
  778SOL    HW1 4341   4.002   0.125   1.532  0.4350  0.0895  0.8899
  778SOL    HW2 4342   4.101   0.032   1.600  0.2203  0.3310  1.5302
  779SOL     OW 4343   9.163   0.183   8.687 -0.3505 -0.0045  0.4900
  779SOL    HW1 4344   9.162   0.102   8.636 -1.7135 -0.0198  0.5142
  779SOL    HW2 4345   9.196   0.249   8.626  0.3683 -0.4848  0.3453
  780SOL     OW 4346   1.009   4.170   8.302  0.9629  0.2018 -0.2136
  780SOL    HW1 4347   1.002   4.208   8.215 -0.4378 -0.1071 -0.2671
  780SOL    HW2 4348   1.095   4.128   8.304  0.7301 -0.3934 -1.7001
  781SOL     OW 4349  11.051   2.203  10.485 -0.4150 -0.5326  0.2747
  781SOL    HW1 4350  11.055   2.163  10.571 -0.4208 -2.3833 -0.5440
  781SOL    HW2 4351  11.086   2.136  10.425 -0.6425  0.5983 -1.1945
  782SOL     OW 4352   5.768   1.682   6.077 -0.5909  0.3012 -0.0590
  782SOL    HW1 4353   5.752   1.600   6.031 -0.5279  0.0689  0.3207
  782SOL    HW2 4354   5.686   1.700   6.123 -0.1116 -0.3798  1.1113
  783SOL     OW 4355   0.716   6.543   3.065 -0.2442 -0.2581 -0.0137
  783SOL    HW1 4356   0.702   6.512   3.154 -1.8693 -0.6490 -0.3728
  783SOL    HW2 4357   0.758   6.628   3.076 -1.3228  0.1591  1.1810
  784SOL     OW 4358   8.627   6.160   9.995 -0.2089 -0.3688 -0.4635
  784SOL    HW1 4359   8.678   6.107  10.056  0.3202  0.7336  0.0596
  784SOL    HW2 4360   8.632   6.249  10.029 -2.7238 -0.2338 -0.1979
  785SOL     OW 4361   1.556   2.800   1.628 -1.0096 -0.3161 -0.1494
  785SOL    HW1 4362   1.599   2.823   1.547  2.1318  0.2382  1.5343
  785SOL    HW2 4363   1.544   2.705   1.623  0.1730 -0.4425 -0.8018
  786SOL     OW 4364   9.440   5.568   4.796 -0.3205  0.2610  0.9728
  786SOL    HW1 4365   9.457   5.586   4.889  1.5382 -1.8607  1.1324
  786SOL    HW2 4366   9.390   5.487   4.796  2.8691 -1.9022  0.1842
  787SOL     OW 4367   3.044   5.902   2.674  0.4766  0.1490  0.1054
  787SOL    HW1 4368   2.971   5.963   2.671 -0.0189 -0.4623 -0.9298
  787SOL    HW2 4369   3.014   5.831   2.731  0.3940  0.0707 -0.0342
  788SOL     OW 4370   8.729   7.990  10.433 -0.3796 -0.3330  0.4390
  788SOL    HW1 4371   8.669   8.057  10.399 -0.1276 -0.7532 -0.9091
  788SOL    HW2 4372   8.763   8.027  10.515 -0.7373  0.9030  0.0518
  789SOL     OW 4373   3.592   1.575   4.517  0.5282 -0.1333 -0.3259
  789SOL    HW1 4374   3.593   1.654   4.462  0.9831 -1.8241 -2.8985
  789SOL    HW2 4375   3.526   1.519   4.477  1.5951 -1.8573  0.2194
  790SOL     OW 4376   2.997   8.844   0.614  0.3263 -1.0111  0.0559
  790SOL    HW1 4377   3.011   8.818   0.705 -2.2942 -0.6385  0.6400
  790SOL    HW2 4378   2.902   8.836   0.601 -0.2113  3.9067 -1.0282
  791SOL     OW 4379   6.125   0.851   3.363  0.1826 -0.3514 -0.5500
  791SOL    HW1 4380   6.038   0.887   3.344  1.2329  2.6753 -0.0845
  791SOL    HW2 4381   6.128   0.770   3.311 -2.4774 -0.0010 -1.4397
  792SOL     OW 4382   9.729   7.037   0.796 -0.5154 -0.3934 -0.2274
  792SOL    HW1 4383   9.739   7.036   0.701  0.3657  0.9562 -0.1873
  792SOL    HW2 4384   9.680   7.117   0.813 -0.4734 -0.5131  0.4661
  793SOL     OW 4385   7.910   0.177   8.079 -0.2836  0.0719  0.3963
  793SOL    HW1 4386   7.823   0.160   8.041 -0.9886  1.2363  1.4444
  793SOL    HW2 4387   7.892   0.226   8.159  1.3984  1.1828  0.1350
  794SOL     OW 4388   6.263   5.168   9.907  0.4182  0.5489  0.2867
  794SOL    HW1 4389   6.255   5.229   9.980 -0.1192 -0.6393  1.2499
  794SOL    HW2 4390   6.179   5.173   9.862  0.5157  0.8079  0.1327
  795SOL     OW 4391   1.011   4.018   6.047  0.1135 -0.0001 -0.8458
  795SOL    HW1 4392   1.085   4.023   6.107 -0.2329 -0.1103 -0.4032
  795SOL    HW2 4393   0.962   3.941   6.076  0.3497 -0.5007 -1.7444
  796SOL     OW 4394   3.360   0.687   2.023  0.0005  0.2586 -0.4153
  796SOL    HW1 4395   3.266   0.671   2.014  0.0923  0.1474 -1.3484
  796SOL    HW2 4396   3.395   0.670   1.935  0.9521 -0.1040  0.0279
  797SOL     OW 4397   0.718   2.815   7.085 -0.7109  0.3618  0.3627
  797SOL    HW1 4398   0.747   2.725   7.067 -0.3101  0.4400  0.6065
  797SOL    HW2 4399   0.726   2.824   7.180  2.0734  1.5927  0.1048
  798SOL     OW 4400   9.102   9.170   6.139 -0.2483  0.5939  0.2295
  798SOL    HW1 4401   9.069   9.091   6.097 -1.1706  1.2553 -0.3127
  798SOL    HW2 4402   9.093   9.239   6.073  0.8984  1.0957  0.5532
  799SOL     OW 4403   8.634   1.592   2.973  0.4228 -0.8361 -0.9975
  799SOL    HW1 4404   8.729   1.598   2.966  0.6918 -3.3655 -0.7601
  799SOL    HW2 4405   8.609   1.531   2.903 -0.8716 -1.1103 -0.3271
  800SOL     OW 4406   2.993   4.938   9.250  0.0011 -0.0537 -0.1084
  800SOL    HW1 4407   3.017   4.965   9.162  0.1029  0.2420  0.0081
  800SOL    HW2 4408   2.976   4.844   9.243 -1.3791  0.2201 -0.7336
  801SOL     OW 4409   7.870   9.931   2.226  0.6383 -0.5794  0.1650
  801SOL    HW1 4410   7.898   9.957   2.138 -1.5605 -0.5270 -0.5978
  801SOL    HW2 4411   7.854  10.013   2.272 -0.0859 -0.5766 -0.0719
  802SOL     OW 4412   3.518   0.909   9.860 -0.5602  0.4367 -0.1385
  802SOL    HW1 4413   3.543   1.000   9.874  2.2680 -0.3024  0.1834
  802SOL    HW2 4414   3.532   0.895   9.766  0.5428 -0.0460  0.0843
  803SOL     OW 4415   2.498   8.915   3.887 -0.0726  0.0207  0.0033
  803SOL    HW1 4416   2.527   8.860   3.959 -0.5403  0.2455  0.3759
  803SOL    HW2 4417   2.439   8.860   3.836 -0.1327  0.0159  0.0786
  804SOL     OW 4418  10.908   2.467   8.729  0.0915 -0.5416  0.0304
  804SOL    HW1 4419  10.988   2.486   8.779 -0.4567  1.4680  0.2256
  804SOL    HW2 4420  10.883   2.551   8.690 -3.3507 -0.4353  2.0667
  805SOL     OW 4421   1.752   7.858   5.245  0.0441 -0.3261  1.4481
  805SOL    HW1 4422   1.676   7.914   5.229  0.3387  0.4275  2.5314
  805SOL    HW2 4423   1.810   7.911   5.298  1.9720 -0.4013 -0.4548
  806SOL     OW 4424   0.397   0.958   2.908  0.1876  0.5819 -0.2789
  806SOL    HW1 4425   0.490   0.960   2.932  0.3053  2.0267 -0.7393
  806SOL    HW2 4426   0.387   0.879   2.856  0.5383 -1.1134  2.0473
  807SOL     OW 4427   3.087   1.426   5.098  0.6511  0.0387 -0.2922
  807SOL    HW1 4428   3.052   1.507   5.063  1.5230 -0.6390 -3.0059
  807SOL    HW2 4429   3.182   1.435   5.091  0.8310 -0.5668  1.0048
  808SOL     OW 4430   9.058   8.772   4.637  0.1091 -0.0453 -0.1663
  808SOL    HW1 4431   9.079   8.793   4.546 -0.5856 -0.8755 -0.5382
  808SOL    HW2 4432   9.048   8.857   4.680  0.3382  0.3565 -0.8875
  809SOL     OW 4433   5.440   3.218   2.537  0.0334  0.1085 -0.0172
  809SOL    HW1 4434   5.388   3.213   2.457  0.9249 -1.6944 -0.5355
  809SOL    HW2 4435   5.471   3.128   2.552 -0.0224  0.4092  2.3008
  810SOL     OW 4436   4.846  10.556   0.568 -0.4186 -0.5352 -0.5367
  810SOL    HW1 4437   4.762  10.599   0.586  1.0059  1.7383  1.1100
  810SOL    HW2 4438   4.859  10.497   0.642  0.0419  0.1389 -0.0693
  811SOL     OW 4439   5.099   5.008   7.854 -0.1194 -0.6127 -0.2575
  811SOL    HW1 4440   5.099   4.936   7.792  1.2696 -0.9808  0.1190
  811SOL    HW2 4441   5.058   4.973   7.933 -0.9074 -0.4806 -0.6075
  812SOL     OW 4442   7.584   0.571   4.377  0.8865  0.2404 -0.0662
  812SOL    HW1 4443   7.626   0.605   4.298 -0.0197 -0.3355 -0.8030
  812SOL    HW2 4444   7.505   0.527   4.346  1.4315 -1.5583  0.9846
  813SOL     OW 4445   4.927   2.294   3.791 -0.6310 -0.1409 -0.4181
  813SOL    HW1 4446   4.842   2.251   3.782 -0.8152 -0.3725  1.9097
  813SOL    HW2 4447   4.986   2.226   3.824  0.0383  0.4594 -0.3449
  814SOL     OW 4448   9.871   1.136   4.956  0.0187 -0.0552 -0.3029
  814SOL    HW1 4449   9.911   1.115   5.041 -1.0789  0.2910  0.3223
  814SOL    HW2 4450   9.894   1.227   4.940 -0.4523  0.1315  0.0377
  815SOL     OW 4451   1.942  10.542   2.807 -0.4219 -0.8742  0.0227
  815SOL    HW1 4452   1.903  10.616   2.761 -2.7363 -1.1314  1.3945
  815SOL    HW2 4453   1.928  10.467   2.749  0.5211 -0.5351 -0.6717
  816SOL     OW 4454   3.123   1.165   4.890  0.4044 -0.1316 -0.4115
  816SOL    HW1 4455   3.064   1.104   4.935  1.7849 -1.0892  0.1930
  816SOL    HW2 4456   3.208   1.150   4.931  0.8437  2.1408 -0.3233
  817SOL     OW 4457   4.859   4.697   4.442 -0.2136 -0.1712 -0.0271
  817SOL    HW1 4458   4.799   4.650   4.500 -1.0369  0.6427 -0.1928
  817SOL    HW2 4459   4.807   4.770   4.409  0.1935 -0.6911 -1.9099
  818SOL     OW 4460   0.065   8.599   4.639 -0.4316 -0.0600 -0.5967
  818SOL    HW1 4461   0.122   8.585   4.715 -0.9576 -0.5398 -0.2787
  818SOL    HW2 4462   0.092   8.684   4.604  0.7855 -0.4860 -0.7328
  819SOL     OW 4463   2.550   7.269   1.374 -0.2080  0.1236 -0.2318
  819SOL    HW1 4464   2.636   7.247   1.336  0.7024  1.4111  0.9943
  819SOL    HW2 4465   2.487   7.230   1.313  1.2406 -1.2903 -0.9031
  820SOL     OW 4466   2.391   4.032   8.130 -0.2422  0.2138  0.0129
  820SOL    HW1 4467   2.318   4.034   8.192 -0.7428 -4.4228 -0.0368
  820SOL    HW2 4468   2.452   3.967   8.166  1.9183  1.0034 -1.9415
  821SOL     OW 4469   6.910   6.262   5.231 -0.9016 -0.6034 -0.5385
  821SOL    HW1 4470   6.907   6.326   5.302 -0.2177  0.7713 -1.6907
  821SOL    HW2 4471   6.823   6.263   5.193 -0.8135 -0.1492 -0.7274
  822SOL     OW 4472   7.057   5.546   2.290 -0.3070  0.3752  0.5151
  822SOL    HW1 4473   7.122   5.498   2.341  0.5106  1.1228  0.1993
  822SOL    HW2 4474   7.000   5.586   2.356 -1.8198 -2.0639  0.7813
  823SOL     OW 4475   8.380   6.863   0.633 -0.2601 -0.2187  0.0813
  823SOL    HW1 4476   8.382   6.784   0.687  0.5773  0.4988  1.1620
  823SOL    HW2 4477   8.302   6.910   0.662 -0.8096 -0.6961 -0.6285
  824SOL     OW 4478   4.185   2.960   5.884 -0.2166 -0.2648  0.8656
  824SOL    HW1 4479   4.168   2.897   5.814 -1.1283  0.7310  0.1597
  824SOL    HW2 4480   4.184   3.045   5.840  1.3831  0.2423  1.7258
  825SOL     OW 4481   7.592   8.316   1.313 -1.0217  0.0167  0.1863
  825SOL    HW1 4482   7.595   8.230   1.355  1.5253  0.7955  1.8236
  825SOL    HW2 4483   7.549   8.373   1.378  0.2523  0.6036  0.5551
  826SOL     OW 4484   3.877   7.296   5.905 -0.7794 -0.3054  0.4124
  826SOL    HW1 4485   3.972   7.280   5.900 -0.8138 -0.6713  0.8731
  826SOL    HW2 4486   3.839   7.209   5.915 -1.1921 -0.1851 -0.0900
  827SOL     OW 4487   5.424   2.364   0.747  0.6343  0.7464 -0.2302
  827SOL    HW1 4488   5.423   2.355   0.652  0.8210  1.7237 -0.3418
  827SOL    HW2 4489   5.458   2.453   0.762  0.7016  0.5695  0.7484
  828SOL     OW 4490   4.342   4.274   7.509  0.7696 -0.4583 -0.2205
  828SOL    HW1 4491   4.317   4.352   7.558  1.3873 -1.1663  1.3248
  828SOL    HW2 4492   4.279   4.268   7.437 -0.4420  0.4367  0.7300
  829SOL     OW 4493   0.543   8.333   2.352  0.5369 -0.1936 -0.0171
  829SOL    HW1 4494   0.589   8.301   2.429 -0.6559 -0.5042  0.5904
  829SOL    HW2 4495   0.596   8.304   2.278  0.6822 -1.6021  0.6166
  830SOL     OW 4496   5.500   0.675   5.480 -0.2095  0.2560 -0.0520
  830SOL    HW1 4497   5.539   0.599   5.523  0.2485  0.5342  0.0345
  830SOL    HW2 4498   5.500   0.743   5.548 -1.3074  0.1194  0.0993
  831SOL     OW 4499   8.571   8.923   1.209 -0.4435 -0.4175  0.2293
  831SOL    HW1 4500   8.539   8.914   1.299 -1.1696 -0.0835  0.0126
  831SOL    HW2 4501   8.665   8.903   1.215 -0.6597 -1.2872  0.9010
  832SOL     OW 4502  10.253   5.394   7.772  1.2003  0.3507  0.4866
  832SOL    HW1 4503  10.281   5.305   7.749 -3.6352 -0.8727 -1.9852
  832SOL    HW2 4504  10.246   5.439   7.687  0.8136  2.2033  1.4513
  833SOL     OW 4505   4.814   4.139   7.204  0.3080  0.4777 -0.7089
  833SOL    HW1 4506   4.816   4.056   7.251  0.1561 -0.2821 -1.9717
  833SOL    HW2 4507   4.735   4.183   7.236 -0.2132 -0.3671 -0.7908
  834SOL     OW 4508   9.993   3.864   7.608 -0.1322 -0.2434  0.1147
  834SOL    HW1 4509   9.932   3.937   7.595 -0.2171 -0.6449 -2.4315
  834SOL    HW2 4510  10.073   3.904   7.640 -0.5590  0.8281 -0.1251
  835SOL     OW 4511   4.794   9.766   5.648 -0.0362 -0.2703  0.0008
  835SOL    HW1 4512   4.727   9.823   5.684  1.1227  0.3648  1.2358
  835SOL    HW2 4513   4.865   9.767   5.712  1.5661 -0.1901 -1.6613
  836SOL     OW 4514   9.388   0.315   4.475 -0.2511 -0.0354  0.8627
  836SOL    HW1 4515   9.320   0.381   4.469 -0.8828 -0.2702  3.8331
  836SOL    HW2 4516   9.356   0.243   4.421 -1.3167  0.6726  0.5159
  837SOL     OW 4517   0.764   3.600   3.878 -0.6146  0.8837 -0.3044
  837SOL    HW1 4518   0.775   3.521   3.931 -2.7146  0.8765  0.2056
  837SOL    HW2 4519   0.744   3.567   3.791 -2.5721  0.7787  0.1414
  838SOL     OW 4520   5.604   5.963   0.890  0.3473  0.3750  0.0151
  838SOL    HW1 4521   5.515   5.979   0.858  0.4644 -2.6354 -2.1771
  838SOL    HW2 4522   5.591   5.938   0.982 -1.0865  0.1302 -0.2205
  839SOL     OW 4523   3.303   2.767   7.468 -0.5354  0.4160  0.5210
  839SOL    HW1 4524   3.296   2.743   7.376 -1.7335  0.4392  0.5946
  839SOL    HW2 4525   3.242   2.709   7.513 -0.2468  0.6712  1.2558
  840SOL     OW 4526  10.665   1.740   3.914  0.6686  0.2541  0.3878
  840SOL    HW1 4527  10.672   1.796   3.991  0.2161  0.9214 -0.0504
  840SOL    HW2 4528  10.753   1.742   3.874  1.2869 -1.1581  1.5955
  841SOL     OW 4529   3.459   2.291   9.959 -0.1103  0.5057 -0.6318
  841SOL    HW1 4530   3.408   2.211   9.971 -1.5953  1.3182 -1.1528
  841SOL    HW2 4531   3.422   2.352  10.024  1.2016  0.6812 -0.0285
  842SOL     OW 4532   0.103  10.686   9.167  0.4715 -0.1374  0.2701
  842SOL    HW1 4533   0.162  10.682   9.091  0.4545 -0.5623  0.2766
  842SOL    HW2 4534   0.136  10.759   9.219  2.8227 -2.1029  1.7715
  843SOL     OW 4535   6.954   7.558   9.465 -0.5892 -0.2546  0.5688
  843SOL    HW1 4536   7.010   7.498   9.514 -0.8948 -0.5017  0.6228
  843SOL    HW2 4537   7.005   7.638   9.456  1.1372 -1.5232 -2.2444
  844SOL     OW 4538   5.145   9.302   9.228  0.2912  0.8154 -0.1732
  844SOL    HW1 4539   5.202   9.379   9.216  1.3560 -0.1265 -1.4737
  844SOL    HW2 4540   5.121   9.276   9.139 -1.0040  0.3107  0.3053
  845SOL     OW 4541   2.331  10.975   9.966 -0.4029 -0.1797  0.2108
  845SOL    HW1 4542   2.269  11.015   9.906 -1.1985  0.6956  1.5642
  845SOL    HW2 4543   2.279  10.914  10.018  0.4457 -1.5966 -0.5518
  846SOL     OW 4544  10.817  10.088   9.931  0.5520  0.0781 -0.4983
  846SOL    HW1 4545  10.773  10.118   9.852  0.8102 -1.8121 -1.4120
  846SOL    HW2 4546  10.910  10.090   9.909  0.8035  1.5931  0.5359
  847SOL     OW 4547   8.457   9.104   3.947 -0.1023  0.0352  0.3788
  847SOL    HW1 4548   8.521   9.069   4.009  1.0948  0.6351 -0.4710
  847SOL    HW2 4549   8.430   9.029   3.896  0.2267 -0.1622  0.4887
  848SOL     OW 4550   3.568  10.362   1.778 -0.6580 -0.6397  0.3234
  848SOL    HW1 4551   3.584  10.377   1.684  3.8922  0.3125  1.0039
  848SOL    HW2 4552   3.554  10.268   1.785 -1.4237 -0.6905 -1.3139
  849SOL     OW 4553   8.367   9.448   9.276  0.5923 -0.0773  0.6493
  849SOL    HW1 4554   8.378   9.357   9.248 -0.3275  0.0297 -0.1074
  849SOL    HW2 4555   8.430   9.497   9.224  0.5109 -0.1728  0.4621
  850SOL     OW 4556   3.603   0.784   4.723 -0.0160 -0.1705 -0.1556
  850SOL    HW1 4557   3.529   0.839   4.696  0.0727  0.4530  0.8236
  850SOL    HW2 4558   3.619   0.727   4.647 -1.9722 -0.8426 -0.1350
  851SOL     OW 4559   2.845   4.520   0.664  0.3805 -0.8209  0.1135
  851SOL    HW1 4560   2.941   4.522   0.667  0.4353 -1.5316 -0.6738
  851SOL    HW2 4561   2.818   4.611   0.677  1.1629 -0.6179  0.3526
  852SOL     OW 4562   0.995   9.937   5.051  0.2742 -0.3569 -0.1631
  852SOL    HW1 4563   0.981   9.979   5.136  0.7450 -0.0475 -0.2384
  852SOL    HW2 4564   0.964   9.847   5.065 -2.5817  0.4739 -0.5702
  853SOL     OW 4565   7.768   6.019   7.751  0.2801  0.4494  0.8120
  853SOL    HW1 4566   7.737   6.108   7.735  1.7015  0.8898  0.4559
  853SOL    HW2 4567   7.775   6.013   7.847  0.8678  0.9522  0.8001
  854SOL     OW 4568  10.192   5.397   5.196  0.2830  0.5617 -0.4267
  854SOL    HW1 4569  10.282   5.423   5.179  0.8353 -0.2564  1.0899
  854SOL    HW2 4570  10.185   5.396   5.291 -0.8339 -1.0298 -0.4905
  855SOL     OW 4571   4.274   1.137   5.888  0.7416 -0.8831 -0.3320
  855SOL    HW1 4572   4.358   1.165   5.924  0.5446 -0.2525 -0.3566
  855SOL    HW2 4573   4.250   1.205   5.825  1.2255 -2.1202 -1.9271
  856SOL     OW 4574   6.285   5.813  10.840  0.6286  0.1073 -0.2876
  856SOL    HW1 4575   6.283   5.908  10.857 -0.4297  0.1407 -0.5144
  856SOL    HW2 4576   6.339   5.804  10.761  1.6758  0.3995  0.3772
  857SOL     OW 4577   8.107   5.934  10.600 -0.4915  0.3327  0.2062
  857SOL    HW1 4578   8.021   5.926  10.641 -0.8751  0.1149 -0.6112
  857SOL    HW2 4579   8.089   5.978  10.516  0.3243  1.1722  0.4525
  858SOL     OW 4580   0.796   4.353   3.595  0.6861  0.7734 -0.0018
  858SOL    HW1 4581   0.812   4.324   3.506  0.1180 -0.7951  0.3772
  858SOL    HW2 4582   0.739   4.430   3.586  0.4786  0.5083 -0.9766
  859SOL     OW 4583   8.357   9.560   7.808  0.6437  0.2921 -0.0420
  859SOL    HW1 4584   8.372   9.606   7.726  0.3570  0.9237  0.2511
  859SOL    HW2 4585   8.402   9.613   7.874 -0.2740  0.5311  0.4007
  860SOL     OW 4586   9.563   1.112   2.260  0.2891  0.7441  0.2247
  860SOL    HW1 4587   9.468   1.098   2.260  0.4522 -0.6226 -1.3733
  860SOL    HW2 4588   9.576   1.186   2.200  0.2448  0.9321  0.4444
  861SOL     OW 4589   4.974   0.363   1.067 -0.5990  0.4167  0.5002
  861SOL    HW1 4590   5.055   0.411   1.053 -0.5023  1.4658  3.6843
  861SOL    HW2 4591   5.002   0.273   1.084 -0.2982  0.3506 -0.3254
  862SOL     OW 4592  10.044   7.565   5.551  0.3612  0.0748 -0.8300
  862SOL    HW1 4593  10.012   7.630   5.615 -0.9077 -1.0475 -0.2686
  862SOL    HW2 4594  10.122   7.528   5.592 -0.4647 -0.6676  0.1425
  863SOL     OW 4595   8.284   4.750   5.843  0.1511 -0.9035 -0.1067
  863SOL    HW1 4596   8.278   4.782   5.753  0.7607 -0.4429  0.0096
  863SOL    HW2 4597   8.278   4.829   5.897  0.5301 -1.0980  0.2280
  864SOL     OW 4598   7.330   7.258   3.596 -0.1741 -0.3314 -0.5034
  864SOL    HW1 4599   7.400   7.302   3.644  1.2050 -1.4263 -1.3903
  864SOL    HW2 4600   7.352   7.165   3.603 -2.9491 -0.9640  1.2840
  865SOL     OW 4601   5.055   0.821   7.525  0.1039 -0.7746 -0.5399
  865SOL    HW1 4602   5.096   0.770   7.594 -0.0784 -1.1595 -0.7157
  865SOL    HW2 4603   5.104   0.797   7.446  0.7143  0.1221 -0.4514
  866SOL     OW 4604  10.879   2.463   8.392  0.1722  0.3891  0.5058
  866SOL    HW1 4605  10.892   2.554   8.418 -0.3545  0.3062  1.1049
  866SOL    HW2 4606  10.897   2.462   8.298  1.2427  0.8858  0.6886
  867SOL     OW 4607   6.033  10.057   1.154  0.7712 -0.1266  0.2567
  867SOL    HW1 4608   6.045  10.150   1.172  1.2472 -0.0861 -0.2458
  867SOL    HW2 4609   5.975  10.026   1.224  0.9750  0.4492  0.6870
  868SOL     OW 4610   8.668   2.297   8.229 -0.1916  0.1402 -0.5185
  868SOL    HW1 4611   8.676   2.378   8.179  0.9823  0.7412  0.6111
  868SOL    HW2 4612   8.631   2.324   8.313 -0.0845 -0.5504 -0.2431
  869SOL     OW 4613  10.100   6.153   0.616  0.3443 -0.9492  0.7443
  869SOL    HW1 4614  10.103   6.206   0.696 -0.3152 -2.6959  2.0024
  869SOL    HW2 4615  10.007   6.132   0.605  0.2900  0.0509 -1.0733
  870SOL     OW 4616   8.610   3.407   6.674  0.0991 -0.1496  0.4700
  870SOL    HW1 4617   8.600   3.418   6.768 -1.5057 -0.4832  0.3814
  870SOL    HW2 4618   8.641   3.317   6.662 -2.2342 -1.0541  0.6359
  871SOL     OW 4619  10.003   1.191   2.118  0.0686  0.2615 -0.1169
  871SOL    HW1 4620   9.998   1.271   2.066  0.2772  2.9724  3.5872
  871SOL    HW2 4621   9.954   1.212   2.198 -1.2917 -3.9892  0.4107
  872SOL     OW 4622   3.156   8.693   4.193  0.0642 -0.5158 -0.4049
  872SOL    HW1 4623   3.070   8.653   4.177  0.1523 -1.5435  1.4806
  872SOL    HW2 4624   3.158   8.707   4.287  2.9426 -2.8548  0.0011
  873SOL     OW 4625   2.081   9.188  10.948  0.0572  0.3195 -0.1744
  873SOL    HW1 4626   2.095   9.256  10.883  0.8450  1.3638  1.0396
  873SOL    HW2 4627   2.151   9.125  10.932 -0.2885  0.0983 -0.8838
  874SOL     OW 4628   4.451   4.625   8.104  0.4329  0.3354 -0.4087
  874SOL    HW1 4629   4.380   4.688   8.098 -0.6594 -0.9528 -1.9855
  874SOL    HW2 4630   4.414   4.544   8.070  1.7488 -1.2146  1.6178
  875SOL     OW 4631   3.761   1.815   4.154  0.2460  0.1760 -0.3738
  875SOL    HW1 4632   3.781   1.759   4.228  0.1020  0.7937  0.1394
  875SOL    HW2 4633   3.781   1.904   4.185  0.6828  0.3944 -1.2383
  876SOL     OW 4634   6.487   9.721  10.059 -0.3323  0.0708 -0.1449
  876SOL    HW1 4635   6.491   9.663  10.135 -0.0926 -0.7282 -0.7646
  876SOL    HW2 4636   6.395   9.723  10.035 -0.1983 -0.8538 -0.7387
  877SOL     OW 4637   5.671   5.193   4.764 -0.5037  0.3392 -0.0196
  877SOL    HW1 4638   5.588   5.227   4.732 -0.4051  0.0271 -0.6365
  877SOL    HW2 4639   5.735   5.225   4.701 -0.1878  0.3659  0.3106
  878SOL     OW 4640   4.704   8.604   6.063  0.1129 -0.1200  0.1219
  878SOL    HW1 4641   4.740   8.689   6.038  0.4546 -0.2446  0.1903
  878SOL    HW2 4642   4.742   8.543   6.001 -1.3824 -0.0073 -0.9618
  879SOL     OW 4643  10.528  11.079   1.556  0.2693  0.0990  0.0905
  879SOL    HW1 4644  10.492  11.050   1.640  1.0395 -1.5411 -0.1062
  879SOL    HW2 4645  10.475  11.033   1.490 -0.8195  1.9432 -0.3869
  880SOL     OW 4646   4.547   4.667   6.435  0.1667 -0.0988  0.0631
  880SOL    HW1 4647   4.465   4.706   6.403  0.3267  0.3278  0.1721
  880SOL    HW2 4648   4.559   4.590   6.380  0.1036  0.2717 -0.4829
  881SOL     OW 4649   9.345   3.732  10.897  0.1528 -0.2646 -0.3034
  881SOL    HW1 4650   9.257   3.768  10.911 -0.4041 -0.6655 -2.3318
  881SOL    HW2 4651   9.399   3.808  10.876  0.0166 -0.1412 -0.2029
  882SOL     OW 4652  10.596   3.408   8.923 -0.5620  0.7709  0.4075
  882SOL    HW1 4653  10.525   3.434   8.864 -0.2430 -1.0610 -0.8535
  882SOL    HW2 4654  10.552   3.356   8.990 -0.3956 -0.8279 -0.6760
  883SOL     OW 4655   2.592   4.745   7.259 -0.4855  0.3673  0.5416
  883SOL    HW1 4656   2.545   4.769   7.339 -0.8771 -0.0246  0.4327
  883SOL    HW2 4657   2.680   4.724   7.289 -0.0610  2.1214  0.6149
  884SOL     OW 4658   7.465   3.843   4.287 -0.1530  0.0422  0.4391
  884SOL    HW1 4659   7.495   3.791   4.361 -2.1987 -0.8260  0.7237
  884SOL    HW2 4660   7.399   3.902   4.324  0.5746  1.3472 -0.2773
  885SOL     OW 4661   9.499   4.696   2.795  0.2218 -0.2019 -0.2480
  885SOL    HW1 4662   9.552   4.617   2.781 -0.3442 -0.7945  0.8191
  885SOL    HW2 4663   9.417   4.663   2.832 -0.3385  0.8284 -0.5380
  886SOL     OW 4664   6.262   2.710   8.295 -0.0005  0.5451 -0.0488
  886SOL    HW1 4665   6.250   2.795   8.252 -2.8192  0.4925  0.4422
  886SOL    HW2 4666   6.329   2.725   8.361  0.2728  2.1162 -0.6552
  887SOL     OW 4667   4.008   4.968   1.332  0.8668 -0.2763 -0.1509
  887SOL    HW1 4668   4.081   5.013   1.291  1.0011 -0.1266  0.2441
  887SOL    HW2 4669   3.980   5.026   1.403  2.0609 -1.4994  1.3882
  888SOL     OW 4670   7.412   8.179   7.266 -0.5496  0.2056 -0.1444
  888SOL    HW1 4671   7.484   8.115   7.262 -1.4797 -0.8316 -0.8021
  888SOL    HW2 4672   7.366   8.157   7.347 -0.8396  0.0792 -0.3433
  889SOL     OW 4673   7.650   2.650   5.437 -0.0988  0.1289 -0.3656
  889SOL    HW1 4674   7.650   2.745   5.423 -0.8021  0.1226 -0.4660
  889SOL    HW2 4675   7.666   2.613   5.350  2.6952  0.1595  0.0469
  890SOL     OW 4676   6.315   7.927   3.007  0.1235 -0.3652 -0.5583
  890SOL    HW1 4677   6.371   7.852   2.988  2.0098  0.4471  1.4850
  890SOL    HW2 4678   6.280   7.910   3.095 -1.1890  0.1572 -0.9468
  891SOL     OW 4679   8.510   2.160   0.218  0.1054 -0.9436  0.9869
  891SOL    HW1 4680   8.527   2.168   0.124  0.1090 -1.4244  0.9448
  891SOL    HW2 4681   8.594   2.178   0.260 -0.1977  0.6736  0.9750
  892SOL     OW 4682   4.266   8.968   7.456 -0.1644 -0.1664  0.4029
  892SOL    HW1 4683   4.258   9.058   7.424  1.2758 -0.3945 -0.6492
  892SOL    HW2 4684   4.302   8.977   7.544 -0.4309  0.3024  0.4650
  893SOL     OW 4685   9.081   2.132   1.291 -0.1252 -0.5117  0.1467
  893SOL    HW1 4686   9.002   2.186   1.289 -1.4717 -2.4206 -0.4530
  893SOL    HW2 4687   9.102   2.117   1.199  1.7414  1.0195  0.2654
  894SOL     OW 4688   9.861   9.997   3.191 -0.5727  0.3124  0.2105
  894SOL    HW1 4689   9.887  10.088   3.177  0.4066 -0.2961 -2.5708
  894SOL    HW2 4690   9.942   9.947   3.177 -1.5581 -1.1126 -0.6154
  895SOL     OW 4691   1.043   2.423   3.065  1.0176  0.1500  0.1883
  895SOL    HW1 4692   0.989   2.349   3.039  1.2562  0.9013 -2.8116
  895SOL    HW2 4693   1.010   2.496   3.013  2.4190  1.5505  1.1706
  896SOL     OW 4694   2.445   2.367   2.156 -0.1580 -0.3588 -0.2944
  896SOL    HW1 4695   2.469   2.311   2.230 -0.3544  0.0734  0.0989
  896SOL    HW2 4696   2.479   2.453   2.178 -1.5786  0.1410  0.0236
  897SOL     OW 4697  10.529   5.147   9.514  0.1301  0.2882  0.9114
  897SOL    HW1 4698  10.520   5.099   9.432  2.2394  2.2774 -0.6138
  897SOL    HW2 4699  10.597   5.100   9.562  0.7410  0.5704  0.3375
  898SOL     OW 4700   0.476   6.822   8.809 -0.0993 -0.4875 -0.1756
  898SOL    HW1 4701   0.512   6.764   8.877  0.3618 -0.2448 -0.2085
  898SOL    HW2 4702   0.422   6.884   8.858 -0.2240 -0.6610 -0.0914
  899SOL     OW 4703   5.468   6.254   1.446  0.2902 -0.3330 -0.1466
  899SOL    HW1 4704   5.378   6.276   1.422  0.8169  2.3525  0.0685
  899SOL    HW2 4705   5.462   6.226   1.537 -0.1961  1.1947  0.3235
  900SOL     OW 4706   5.073   0.539   1.771  0.3708  0.1748  0.0140
  900SOL    HW1 4707   5.128   0.463   1.753 -1.2028 -0.8403 -0.6985
  900SOL    HW2 4708   5.072   0.588   1.688  0.1906  0.1695  0.0118
  901SOL     OW 4709   0.208   9.602   2.051  0.4488  0.1704 -0.1874
  901SOL    HW1 4710   0.182   9.658   1.977 -1.3121  1.9538  1.6597
  901SOL    HW2 4711   0.300   9.621   2.065  0.0653  2.1304 -0.0799
  902SOL     OW 4712   7.785   1.321   9.541  0.0682 -0.1659  0.1678
  902SOL    HW1 4713   7.800   1.413   9.562 -1.7880 -0.1949  1.9194
  902SOL    HW2 4714   7.831   1.307   9.459 -0.4242  2.5957 -0.6704
  903SOL     OW 4715   0.083   1.831   1.670 -0.0804  0.0210  0.5075
  903SOL    HW1 4716   0.127   1.897   1.617 -0.1027 -0.2167  0.1913
  903SOL    HW2 4717   0.084   1.752   1.616  2.0977 -0.9390  1.7928
  904SOL     OW 4718   5.545  10.067   4.548 -0.0609  0.2777  0.1044
  904SOL    HW1 4719   5.499  10.146   4.521  2.7566  1.7984 -0.5164
  904SOL    HW2 4720   5.483   9.996   4.529 -2.4259  2.2240  0.1037
  905SOL     OW 4721   0.879   3.777   9.032  0.1969 -0.7528 -0.4248
  905SOL    HW1 4722   0.862   3.686   9.057 -1.8519 -0.4034 -0.3631
  905SOL    HW2 4723   0.849   3.784   8.942 -0.4237  0.0411 -0.1721
  906SOL     OW 4724   4.251   8.535   6.644 -0.2108  0.7928  0.2286
  906SOL    HW1 4725   4.180   8.554   6.705  0.7715 -1.3491  2.1860
  906SOL    HW2 4726   4.309   8.612   6.650 -1.3939  1.7301  0.0164
  907SOL     OW 4727   3.454   8.813   1.509  0.2099 -0.0573  1.3349
  907SOL    HW1 4728   3.389   8.794   1.441 -0.7349  1.2586  1.8432
  907SOL    HW2 4729   3.531   8.763   1.482  0.2935  1.3446 -1.3746
  908SOL     OW 4730   2.264   9.222   3.596 -0.7927 -0.4462 -0.1896
  908SOL    HW1 4731   2.263   9.186   3.507  1.7477 -0.0057 -0.4895
  908SOL    HW2 4732   2.177   9.203   3.631 -1.2131 -2.4098 -2.0666
  909SOL     OW 4733   1.850   0.674   4.932 -0.0200  0.9355 -0.8115
  909SOL    HW1 4734   1.814   0.618   5.000  1.8031 -1.1357 -1.4405
  909SOL    HW2 4735   1.924   0.719   4.974 -0.7110  1.9589 -0.6533
  910SOL     OW 4736   9.775  11.052   7.700  0.4972 -0.4302 -0.1551
  910SOL    HW1 4737   9.780  10.981   7.635  0.0628 -0.1737 -0.4740
  910SOL    HW2 4738   9.816  11.015   7.778 -0.0120 -1.1507 -0.2146
  911SOL     OW 4739   1.798   3.461  10.417  0.0343  0.5746  0.8742
  911SOL    HW1 4740   1.782   3.525  10.487 -0.9406  0.9595  0.3110
  911SOL    HW2 4741   1.787   3.376  10.459 -2.7977  0.7942  0.7301
  912SOL     OW 4742   3.565   4.852   9.709 -0.0291  0.1068 -0.0775
  912SOL    HW1 4743   3.602   4.852   9.797  0.5966  1.4022 -0.3167
  912SOL    HW2 4744   3.508   4.929   9.707 -0.2870 -0.0993 -0.6917
  913SOL     OW 4745   4.277   9.516   5.371 -0.0895  0.0583 -0.3175
  913SOL    HW1 4746   4.348   9.465   5.410  0.9707  0.6434 -1.4181
  913SOL    HW2 4747   4.202   9.458   5.373  0.6704 -0.9488 -0.0539
  914SOL     OW 4748   3.430   4.840   2.707  0.3356 -0.3021 -0.2072
  914SOL    HW1 4749   3.406   4.750   2.730  0.4381  0.2598  2.4188
  914SOL    HW2 4750   3.347   4.880   2.678  0.3185 -1.2209 -1.5362
  915SOL     OW 4751   8.691   8.044   5.105 -0.2537  0.2413 -1.2451
  915SOL    HW1 4752   8.714   8.036   5.013 -0.2841  2.1814 -1.4606
  915SOL    HW2 4753   8.666   8.135   5.116  0.1169  0.1556  0.7761
  916SOL     OW 4754   7.527  10.115   6.232 -0.1313  0.4883 -0.3615
  916SOL    HW1 4755   7.526  10.128   6.138 -2.6487  0.3635 -0.4281
  916SOL    HW2 4756   7.481  10.031   6.245  0.0371  0.5839  0.9736
  917SOL     OW 4757   5.231   5.452   8.928 -0.5222  0.3167 -0.1820
  917SOL    HW1 4758   5.309   5.437   8.875 -0.4378  0.9938 -0.2553
  917SOL    HW2 4759   5.158   5.434   8.868 -0.4252  0.7286 -0.4250
  918SOL     OW 4760   4.951  10.635   1.950  0.3765 -0.3276  0.1062
  918SOL    HW1 4761   4.950  10.541   1.962 -0.9425 -0.2912  0.4956
  918SOL    HW2 4762   4.865  10.655   1.913  1.2323  0.5440 -1.5325
  919SOL     OW 4763   2.129   5.685   3.870 -0.2855 -0.0248  0.3237
  919SOL    HW1 4764   2.161   5.596   3.857  1.0825 -0.0254  2.8569
  919SOL    HW2 4765   2.196   5.726   3.925 -1.5897  2.1126  0.4337
  920SOL     OW 4766   8.862   3.195   2.405  0.2056 -0.5924 -0.0654
  920SOL    HW1 4767   8.915   3.121   2.434 -0.3561 -1.1612 -0.4559
  920SOL    HW2 4768   8.787   3.196   2.465 -0.6712 -1.4247 -1.0888
  921SOL     OW 4769   1.863   1.373   5.098  0.1712 -0.2700  0.5851
  921SOL    HW1 4770   1.899   1.289   5.127  0.1534  0.0687  1.6294
  921SOL    HW2 4771   1.927   1.438   5.126 -0.4443  0.1831  0.9771
  922SOL     OW 4772   9.909   7.290   5.559 -0.5509 -0.1969  0.3725
  922SOL    HW1 4773   9.955   7.229   5.617 -2.7932 -0.5060  1.9571
  922SOL    HW2 4774   9.964   7.369   5.560  0.9377 -1.1821  0.5613
  923SOL     OW 4775   7.501   1.475   2.295 -0.2528 -0.1171 -0.2460
  923SOL    HW1 4776   7.577   1.417   2.293 -1.5012 -1.7865 -1.6045
  923SOL    HW2 4777   7.427   1.418   2.276 -1.8478  1.5062  0.8264
  924SOL     OW 4778   7.579   8.964   1.538  0.3876  0.0457  0.4734
  924SOL    HW1 4779   7.659   9.013   1.520  1.1893 -1.0260  0.9716
  924SOL    HW2 4780   7.534   8.959   1.453  1.3747 -0.2350 -0.0421
  925SOL     OW 4781   3.413   9.270   2.459 -0.2438  0.0535 -0.5267
  925SOL    HW1 4782   3.318   9.268   2.475 -0.3462  1.7020 -0.8067
  925SOL    HW2 4783   3.449   9.310   2.538  0.2949 -0.9245 -0.2525
  926SOL     OW 4784   8.766  10.525   5.640  0.4382 -0.5688  0.8997
  926SOL    HW1 4785   8.735  10.525   5.549  1.1319 -0.5121  0.6611
  926SOL    HW2 4786   8.845  10.471   5.638  1.3979  0.7993  1.1382
  927SOL     OW 4787   5.387   0.469   1.927  0.1153  0.1372  0.1746
  927SOL    HW1 4788   5.474   0.430   1.939 -0.3449 -0.8220  0.4930
  927SOL    HW2 4789   5.340   0.406   1.873 -0.9434 -0.2354  1.4711
  928SOL     OW 4790   6.825   9.458   5.060 -0.6041  0.0949  0.1563
  928SOL    HW1 4791   6.734   9.476   5.035 -0.8711 -1.4462 -0.0737
  928SOL    HW2 4792   6.819   9.396   5.132  0.2558  1.3986  1.3902
  929SOL     OW 4793   6.375   5.670   8.030 -0.1700  0.2655 -0.0798
  929SOL    HW1 4794   6.359   5.645   8.121 -0.3455  0.2334 -0.1187
  929SOL    HW2 4795   6.428   5.599   7.994  0.1295  0.4086  0.0721
  930SOL     OW 4796   4.971  10.984   3.374  0.4056  0.7281 -0.6237
  930SOL    HW1 4797   5.056  10.967   3.415 -0.6588 -0.7290  1.1823
  930SOL    HW2 4798   4.923  11.035   3.440 -1.8329 -2.7873  0.7285
  931SOL     OW 4799   6.962   7.867   8.646 -0.4970  0.1578  0.1416
  931SOL    HW1 4800   6.920   7.908   8.721 -0.4590  2.2413 -0.9299
  931SOL    HW2 4801   6.891   7.850   8.584 -0.2425  0.4015 -0.2200
  932SOL     OW 4802   1.807   1.592   8.068  0.1491 -0.1740  0.0047
  932SOL    HW1 4803   1.783   1.665   8.011  0.3764  3.5334  4.1050
  932SOL    HW2 4804   1.735   1.586   8.131  1.9582 -0.6949  2.1471
  933SOL     OW 4805   8.466   1.274  10.435  1.1387 -0.2215  0.3300
  933SOL    HW1 4806   8.504   1.281  10.348 -1.5718 -2.5140 -1.1904
  933SOL    HW2 4807   8.541   1.262  10.493  2.9825  0.6804 -1.7209
  934SOL     OW 4808   9.763   1.126   9.155 -0.1610 -0.1281  0.1465
  934SOL    HW1 4809   9.809   1.113   9.238 -0.7735 -1.8533  0.2677
  934SOL    HW2 4810   9.675   1.154   9.180 -0.1488 -0.0087  0.0558
  935SOL     OW 4811   8.290   3.961  10.831 -0.2452 -0.5588  0.1162
  935SOL    HW1 4812   8.330   4.045  10.850 -1.9070  0.4578 -0.5812
  935SOL    HW2 4813   8.361   3.907  10.798  0.7015  0.8768 -0.2895
  936SOL     OW 4814   4.930   6.380   1.098  0.5411 -0.1292  0.0077
  936SOL    HW1 4815   4.911   6.472   1.119 -0.9552 -0.2962 -0.4933
  936SOL    HW2 4816   5.022   6.369   1.122  0.3474  1.0950  1.5081
  937SOL     OW 4817   0.620   6.722   9.883 -0.3194  0.1465 -0.5709
  937SOL    HW1 4818   0.714   6.709   9.883 -0.2751  0.4531 -0.6401
  937SOL    HW2 4819   0.597   6.733   9.976  0.0326  2.2338 -0.6886
  938SOL     OW 4820   2.734   4.510   9.428  0.3822 -0.2524 -0.4370
  938SOL    HW1 4821   2.758   4.454   9.354 -1.7105 -0.3501 -1.0771
  938SOL    HW2 4822   2.781   4.471   9.503 -0.8889 -2.8281 -0.8793
  939SOL     OW 4823   7.104   2.933   6.447  0.8657  0.1670 -0.2417
  939SOL    HW1 4824   7.196   2.953   6.431  1.2229  1.2103  2.4728
  939SOL    HW2 4825   7.105   2.844   6.482  1.0945  0.6963  1.1855
  940SOL     OW 4826   8.709   0.439   6.264  0.1650  0.2399  0.2653
  940SOL    HW1 4827   8.800   0.429   6.289  0.5959 -0.0702 -1.2839
  940SOL    HW2 4828   8.659   0.416   6.342  1.3621 -2.5576  0.3145
  941SOL     OW 4829   3.492   5.144   4.642 -0.4020 -0.2269 -0.4643
  941SOL    HW1 4830   3.581   5.131   4.674 -1.0255 -0.8436  1.1210
  941SOL    HW2 4831   3.502   5.195   4.561  1.3051  0.6281  0.2537
  942SOL     OW 4832   4.597   9.865   2.083  0.2967 -0.3426  0.5859
  942SOL    HW1 4833   4.611   9.782   2.037  1.6777 -0.6141  1.4125
  942SOL    HW2 4834   4.652   9.858   2.162  0.2027  1.2359  0.8305
  943SOL     OW 4835   8.233   8.545   1.980 -0.2099 -0.3360  0.0120
  943SOL    HW1 4836   8.232   8.547   2.076 -1.7111  0.1075  0.0167
  943SOL    HW2 4837   8.155   8.595   1.954  1.5130  1.7634 -1.4906
  944SOL     OW 4838   5.833   5.719   9.132  0.0704 -0.7992 -0.0488
  944SOL    HW1 4839   5.786   5.752   9.209 -1.1604 -1.1746 -0.6055
  944SOL    HW2 4840   5.776   5.649   9.098  1.0472 -1.2656 -0.7619
  945SOL     OW 4841   6.816   9.378   3.920 -0.2865  0.3627  0.2244
  945SOL    HW1 4842   6.880   9.308   3.916 -1.7047 -0.9698 -0.1095
  945SOL    HW2 4843   6.852   9.440   3.983  0.9180 -0.7397  0.6591
  946SOL     OW 4844   2.778   1.421   3.445 -0.0518  0.2914  0.4425
  946SOL    HW1 4845   2.812   1.333   3.428 -2.1570 -0.4120 -0.4773
  946SOL    HW2 4846   2.781   1.465   3.360  0.6623  1.0108  0.8284
  947SOL     OW 4847   1.691   6.050   7.849 -0.0587  0.0137  0.3272
  947SOL    HW1 4848   1.622   6.115   7.839 -0.8216 -0.3555  2.4775
  947SOL    HW2 4849   1.651   5.969   7.817  0.0882  0.1828 -0.2813
  948SOL     OW 4850   8.213   2.393   4.193 -0.9159  0.0246 -0.0100
  948SOL    HW1 4851   8.149   2.464   4.198  0.7241  1.6423 -0.6888
  948SOL    HW2 4852   8.288   2.425   4.244 -0.8081 -2.0505  1.2580
  949SOL     OW 4853   0.434   1.179   1.593  0.7969  0.0248 -0.1827
  949SOL    HW1 4854   0.392   1.227   1.521 -0.9146 -1.1401 -0.0275
  949SOL    HW2 4855   0.450   1.246   1.660  1.3102  0.9083 -1.1659
  950SOL     OW 4856   1.150   1.904   6.546  0.4048  0.0633  0.3247
  950SOL    HW1 4857   1.070   1.887   6.496  0.3274  0.3505  0.3487
  950SOL    HW2 4858   1.213   1.839   6.514  1.8062  2.8765 -3.3631
  951SOL     OW 4859   6.611   8.575   2.235 -0.6676 -0.3494  0.1106
  951SOL    HW1 4860   6.620   8.557   2.141  1.4740 -1.0636  0.3780
  951SOL    HW2 4861   6.518   8.565   2.253 -0.8106 -2.7427 -1.4820
  952SOL     OW 4862   5.648  10.813   7.110 -0.5077  0.2642 -0.8126
  952SOL    HW1 4863   5.654  10.900   7.150 -2.2048 -0.6977  1.8186
  952SOL    HW2 4864   5.637  10.830   7.017 -0.2414  2.8557 -0.4439
  953SOL     OW 4865   5.053   4.133   1.177  0.1601 -0.6579 -1.0211
  953SOL    HW1 4866   5.086   4.197   1.113 -1.9665 -0.0244 -1.5719
  953SOL    HW2 4867   4.969   4.105   1.141 -0.0820 -1.9561  0.4483
  954SOL     OW 4868   3.179   1.341   5.434  0.1735 -0.3969  0.5440
  954SOL    HW1 4869   3.269   1.332   5.400 -0.1206 -1.0870 -0.0756
  954SOL    HW2 4870   3.173   1.275   5.503  0.2424 -0.1238  0.8133
  955SOL     OW 4871   2.119   3.519   5.342  0.5264  1.3723  0.1435
  955SOL    HW1 4872   2.148   3.609   5.356  0.2832  1.3977  0.5312
  955SOL    HW2 4873   2.193   3.475   5.301  0.2887  2.0007 -1.0005
  956SOL     OW 4874   3.150   7.479   9.831  0.2329 -0.2380 -0.4254
  956SOL    HW1 4875   3.184   7.546   9.891  0.8396 -1.9808  1.2701
  956SOL    HW2 4876   3.224   7.419   9.819 -0.5585 -1.0708 -1.2217
  957SOL     OW 4877   4.968   3.231   3.545  0.3017  0.0859 -0.2806
  957SOL    HW1 4878   5.024   3.308   3.538  0.5937 -0.1191 -0.2308
  957SOL    HW2 4879   4.900   3.245   3.479  0.2960  0.4321 -0.2048
  958SOL     OW 4880   7.298   4.216   7.068 -0.7389  0.1800 -0.0282
  958SOL    HW1 4881   7.378   4.258   7.036 -1.3589  0.5903 -1.0950
  958SOL    HW2 4882   7.290   4.136   7.015  0.0259 -0.9536  1.4700
  959SOL     OW 4883   4.309   4.699   2.328  0.0669  0.3191  0.2334
  959SOL    HW1 4884   4.388   4.664   2.369 -0.2043  1.8572  2.2065
  959SOL    HW2 4885   4.328   4.793   2.317 -0.8310  0.3825 -0.9058
  960SOL     OW 4886   9.121  10.046   3.214  0.2641  0.3105 -0.5272
  960SOL    HW1 4887   9.147  10.031   3.305  4.2336 -1.8938 -1.7566
  960SOL    HW2 4888   9.178  10.118   3.185 -0.8440  0.8850 -1.3362
  961SOL     OW 4889   3.216   5.715   1.647 -0.0958 -0.0837 -0.3652
  961SOL    HW1 4890   3.127   5.711   1.614 -0.9661  1.1908  1.5885
  961SOL    HW2 4891   3.271   5.705   1.570 -1.9111 -1.0061 -1.6105
  962SOL     OW 4892   0.234   9.697   1.529 -0.4119  0.1977 -0.2364
  962SOL    HW1 4893   0.235   9.719   1.436  2.6616 -2.4094 -1.0322
  962SOL    HW2 4894   0.214   9.603   1.531 -2.1549  0.5315  1.9551
  963SOL     OW 4895   7.455  10.879  10.198  0.6544 -0.0685 -0.7681
  963SOL    HW1 4896   7.521  10.889  10.266 -0.9662  1.6944  0.6943
  963SOL    HW2 4897   7.502  10.844  10.123  2.4033 -2.9610  1.4524
  964SOL     OW 4898   3.251  10.488   7.506 -0.4625 -0.2791  0.3730
  964SOL    HW1 4899   3.293  10.411   7.544 -0.1966 -0.3917 -0.1391
  964SOL    HW2 4900   3.289  10.562   7.553  0.4729 -0.3643 -0.2114
  965SOL     OW 4901   1.239   1.577   9.887 -0.8892  0.2066 -0.3735
  965SOL    HW1 4902   1.243   1.517   9.962 -1.5969  2.0354  1.2149
  965SOL    HW2 4903   1.305   1.543   9.826 -0.5253 -1.5549  0.9181
  966SOL     OW 4904   5.408   9.142   1.074  0.2425  0.0909 -0.0645
  966SOL    HW1 4905   5.340   9.142   1.142  1.3301 -2.7010  1.1422
  966SOL    HW2 4906   5.391   9.222   1.024 -2.0541  1.0413  2.0290
  967SOL     OW 4907  10.373   8.134   1.226 -0.0674 -0.0864  0.5468
  967SOL    HW1 4908  10.386   8.192   1.151  0.7061  0.2482  0.9220
  967SOL    HW2 4909  10.282   8.105   1.220  0.7749 -2.7059 -2.4012
  968SOL     OW 4910   9.823   3.627   4.493  0.0045  0.2342  0.1345
  968SOL    HW1 4911   9.879   3.688   4.541  0.6217  0.7207 -1.1652
  968SOL    HW2 4912   9.749   3.680   4.463 -0.2072  0.0084  0.2525
  969SOL     OW 4913   3.081   4.007   7.665 -0.1700 -0.8015 -0.3633
  969SOL    HW1 4914   3.050   4.065   7.735 -0.4968  0.1428 -1.2628
  969SOL    HW2 4915   3.002   3.986   7.615 -0.2606 -2.9766  0.5892
  970SOL     OW 4916   1.928   8.416   8.814 -0.2337 -0.4276  0.2473
  970SOL    HW1 4917   1.964   8.427   8.726 -0.8361  0.2036  0.0697
  970SOL    HW2 4918   1.886   8.500   8.833 -0.1534 -0.5748  1.1209
  971SOL     OW 4919   3.724   4.253   6.787  0.5736  0.0839  0.5092
  971SOL    HW1 4920   3.711   4.180   6.847  2.7333 -0.1555  0.7563
  971SOL    HW2 4921   3.697   4.220   6.702 -5.3302  1.2713  1.4889
  972SOL     OW 4922   4.089  10.728   9.217  0.9219  0.8520 -0.0406
  972SOL    HW1 4923   4.053  10.761   9.300 -0.3668  1.3328 -0.7646
  972SOL    HW2 4924   4.077  10.800   9.155  0.2282 -0.1164 -1.0770
  973SOL     OW 4925   5.361   2.346   5.692 -0.0417 -0.3704  0.6650
  973SOL    HW1 4926   5.441   2.340   5.743 -0.3753 -1.0199  1.1254
  973SOL    HW2 4927   5.298   2.290   5.738 -0.7483  0.0974  0.2918
  974SOL     OW 4928   3.642  11.090  10.371  0.3210  0.5928  0.3149
  974SOL    HW1 4929   3.602  11.177  10.372 -1.1206 -0.0391 -0.2639
  974SOL    HW2 4930   3.680  11.081  10.458 -0.4802  1.3646  0.7645
  975SOL     OW 4931   2.795   3.890   2.752 -0.7768  0.2209 -0.0060
  975SOL    HW1 4932   2.852   3.812   2.745 -2.2925 -1.0146  0.7560
  975SOL    HW2 4933   2.728   3.877   2.685 -0.4675  1.4113 -0.5591
  976SOL     OW 4934   6.451   6.549   9.747 -0.5699 -0.1894  0.0357
  976SOL    HW1 4935   6.506   6.619   9.712 -0.4706  0.1360  0.8196
  976SOL    HW2 4936   6.475   6.544   9.840 -0.2488 -1.5635 -0.0996
  977SOL     OW 4937   9.423   5.366   0.620  0.7008 -0.5996  0.4635
  977SOL    HW1 4938   9.376   5.368   0.537  0.9895 -1.3276  0.2778
  977SOL    HW2 4939   9.437   5.458   0.642 -0.3824 -0.3811  0.2856
  978SOL     OW 4940   6.675   3.694  11.083 -0.4460 -0.1178  0.6010
  978SOL    HW1 4941   6.724   3.771  11.055 -0.8132  0.2418  0.9165
  978SOL    HW2 4942   6.583   3.723  11.080 -0.5157 -0.1513  1.8679
  979SOL     OW 4943   7.254   7.149   1.759 -0.4063  0.1268  0.2700
  979SOL    HW1 4944   7.170   7.160   1.804 -0.9902 -1.2055 -0.4247
  979SOL    HW2 4945   7.318   7.139   1.829 -1.1667 -1.0310  0.8369
  980SOL     OW 4946   9.162   8.765   2.738  0.2248  0.0166 -0.1069
  980SOL    HW1 4947   9.251   8.787   2.766  0.7679  0.6943 -2.1960
  980SOL    HW2 4948   9.167   8.672   2.714  0.2674 -0.0486  0.1557
  981SOL     OW 4949   4.220   3.901   2.091  0.3175 -0.6525  0.0168
  981SOL    HW1 4950   4.251   3.944   2.171 -1.3082 -2.6315  1.8229
  981SOL    HW2 4951   4.131   3.932   2.079 -0.6676 -2.9297  1.0087
  982SOL     OW 4952   8.166   7.961   1.382  0.8325 -0.3749 -0.1218
  982SOL    HW1 4953   8.231   8.010   1.432  1.8571 -1.3361 -0.4690
  982SOL    HW2 4954   8.193   7.971   1.291  0.4969 -0.7950 -0.2741
  983SOL     OW 4955   1.788   1.481   7.123  0.3238 -0.2865  0.2427
  983SOL    HW1 4956   1.795   1.528   7.206 -1.4307  2.3747 -0.9886
  983SOL    HW2 4957   1.715   1.421   7.135  0.6983 -0.6244  0.8993
  984SOL     OW 4958   7.686   3.310   5.997 -0.2126  0.2812 -0.9061
  984SOL    HW1 4959   7.590   3.308   5.989 -0.3387 -1.3731  0.4215
  984SOL    HW2 4960   7.712   3.391   5.954 -2.3046  1.2169 -0.5396
  985SOL     OW 4961   2.648   0.749  10.835 -0.2224 -0.0260  0.1789
  985SOL    HW1 4962   2.672   0.762  10.744 -0.3830  0.9280  0.2619
  985SOL    HW2 4963   2.730   0.723  10.878  0.5282  2.2278  0.2656
  986SOL     OW 4964  10.229   7.245   4.067  0.1093  0.5318 -0.1617
  986SOL    HW1 4965  10.228   7.326   4.016 -0.0523  0.7400  0.1723
  986SOL    HW2 4966  10.159   7.256   4.131  0.6086  0.4578  0.4022
  987SOL     OW 4967   6.234   3.417   9.086  0.9351 -0.5028 -0.0208
  987SOL    HW1 4968   6.228   3.441   8.994  0.2733  0.7361  0.3284
  987SOL    HW2 4969   6.323   3.383   9.097  0.7487 -1.4435 -1.2815
  988SOL     OW 4970   6.016   8.458   1.941 -0.2856  0.1212 -0.2882
  988SOL    HW1 4971   5.983   8.523   2.003 -1.0111 -0.9076  0.4375
  988SOL    HW2 4972   5.938   8.410   1.912  0.1830 -0.1467 -1.1547
  989SOL     OW 4973   1.150   6.005   7.430  0.2470  0.8043 -0.4401
  989SOL    HW1 4974   1.217   5.969   7.489 -0.3369  0.4280  0.0001
  989SOL    HW2 4975   1.200   6.035   7.354  0.8144 -0.5351 -0.6369
  990SOL     OW 4976   0.718   5.402  10.935 -0.0096 -0.1239  0.2508
  990SOL    HW1 4977   0.791   5.381  10.993  0.3437 -1.3043 -0.6087
  990SOL    HW2 4978   0.718   5.498  10.931  0.5078 -0.0474  1.4741
  991SOL     OW 4979   0.951  10.199   6.285 -0.3898  0.2061  0.3473
  991SOL    HW1 4980   0.876  10.142   6.304 -0.2363  0.4471  1.8046
  991SOL    HW2 4981   0.912  10.286   6.273 -0.2505  0.6659  2.7838
  992SOL     OW 4982   5.173   9.095   1.628  0.2267 -0.0632 -0.3592
  992SOL    HW1 4983   5.266   9.076   1.614 -0.2828 -1.1192 -2.7182
  992SOL    HW2 4984   5.168   9.190   1.636  1.4538  0.0320 -0.5924
  993SOL     OW 4985   9.300   9.894   9.662  0.3100  0.4469  0.3534
  993SOL    HW1 4986   9.279   9.943   9.582 -0.1722  1.0522  0.8416
  993SOL    HW2 4987   9.359   9.825   9.632  0.7281  1.1067 -0.4118
  994SOL     OW 4988   6.736   4.859  10.478 -0.2377 -0.6027  0.0608
  994SOL    HW1 4989   6.789   4.887  10.403 -1.1317 -1.1969 -0.8184
  994SOL    HW2 4990   6.667   4.925  10.484  0.5203  0.1188  1.1461
  995SOL     OW 4991   0.600   8.915   0.507  0.8417 -0.1633 -0.3689
  995SOL    HW1 4992   0.642   8.917   0.421  0.9251 -0.7270 -0.3416
  995SOL    HW2 4993   0.653   8.974   0.561  1.6204 -0.8852 -0.3296
  996SOL     OW 4994   1.897   1.048   1.433  0.4130 -0.2837 -0.2677
  996SOL    HW1 4995   1.831   1.082   1.492  0.9337 -0.2467  0.3101
  996SOL    HW2 4996   1.849   1.022   1.354 -0.3803 -0.9154  0.4111
  997SOL     OW 4997   4.410   2.192   3.636 -0.5686  1.1533 -0.3699
  997SOL    HW1 4998   4.411   2.229   3.725 -3.1379 -0.9553  0.6865
  997SOL    HW2 4999   4.405   2.268   3.578  0.6737  2.5785  1.2871
  998SOL     OW 5000   7.983   4.686   6.913 -0.7126 -0.1085  0.4487
  998SOL    HW1 5001   7.956   4.729   6.832 -1.2462  0.4456  0.9092
  998SOL    HW2 5002   8.048   4.621   6.886 -0.2332  0.6791 -0.3172
  999SOL     OW 5003   7.948   9.805   0.879 -0.2706  0.2444 -0.2037
  999SOL    HW1 5004   8.026   9.776   0.832  0.1700  0.9995  0.0527
  999SOL    HW2 5005   7.962   9.777   0.970 -1.0131 -0.9998 -0.4454
 1000SOL     OW 5006   9.379   5.354   7.658 -0.0620 -0.6352  0.7409
 1000SOL    HW1 5007   9.446   5.407   7.614 -0.0136 -2.0797 -1.0461
 1000SOL    HW2 5008   9.396   5.264   7.629 -2.5402 -1.1040  0.4967
 1001SOL     OW 5009   7.490   6.067   0.951 -0.0600 -0.3738 -0.5575
 1001SOL    HW1 5010   7.460   6.156   0.932 -2.2967 -0.9703 -0.1548
 1001SOL    HW2 5011   7.570   6.057   0.900  1.4111  2.5155  0.9485
 1002SOL     OW 5012  10.323   7.443   5.244  0.0568  0.0408  0.1902
 1002SOL    HW1 5013  10.327   7.388   5.165 -0.0142  0.0436  0.1849
 1002SOL    HW2 5014  10.352   7.386   5.315 -1.7269 -0.5507  0.4862
 1003SOL     OW 5015   4.496   9.038   8.400  0.3524 -0.1613  0.2329
 1003SOL    HW1 5016   4.459   9.069   8.318  1.0845  0.3767  0.0976
 1003SOL    HW2 5017   4.561   9.104   8.424 -0.2132 -0.0280  1.5178
 1004SOL     OW 5018   1.490   8.752   5.483 -0.6894  0.4803 -0.2368
 1004SOL    HW1 5019   1.480   8.764   5.577  1.4540 -0.4785  0.1788
 1004SOL    HW2 5020   1.458   8.834   5.445 -3.9487 -0.0467  1.0715
 1005SOL     OW 5021   8.263   5.995  10.117 -0.2857  0.0232 -0.0719
 1005SOL    HW1 5022   8.270   5.901  10.101 -1.4104 -0.0373 -0.2230
 1005SOL    HW2 5023   8.193   6.004  10.181  1.2866  0.6001  1.6754
 1006SOL     OW 5024   0.393   0.496   8.366 -0.5080  0.6127 -0.0815
 1006SOL    HW1 5025   0.485   0.472   8.351 -0.2899  1.9295 -1.0890
 1006SOL    HW2 5026   0.391   0.528   8.456  0.3728  1.9287 -0.4872
 1007SOL     OW 5027   3.477   8.784   4.390  0.6793 -0.0051  0.1717
 1007SOL    HW1 5028   3.492   8.754   4.479 -0.1486 -0.2215  0.2447
 1007SOL    HW2 5029   3.543   8.739   4.338 -0.6741 -2.1841  0.2306
 1008SOL     OW 5030   4.635   7.524   9.978  0.0295  0.7672  0.4317
 1008SOL    HW1 5031   4.582   7.603   9.971  1.5702  1.7784 -0.3765
 1008SOL    HW2 5032   4.572   7.452   9.965 -1.0407  1.9302 -1.3033
 1009SOL     OW 5033   6.358   7.865   0.174 -0.0183 -0.0810 -0.1427
 1009SOL    HW1 5034   6.448   7.849   0.148  0.6022  1.6183  0.8106
 1009SOL    HW2 5035   6.307   7.799   0.127  1.5371 -0.1274 -1.8560
 1010SOL     OW 5036   8.404   9.019   7.483 -0.4112  0.3950 -0.2122
 1010SOL    HW1 5037   8.461   9.042   7.556  0.6841 -2.1361 -0.1704
 1010SOL    HW2 5038   8.463   8.996   7.412 -1.3302 -1.3367 -0.4820
 1011SOL     OW 5039   3.393   3.255   9.903 -0.7969  0.2108 -0.1258
 1011SOL    HW1 5040   3.440   3.171   9.902 -1.4119 -0.1567  0.6162
 1011SOL    HW2 5041   3.349   3.258   9.818 -1.6998 -0.7688  0.2821
 1012SOL     OW 5042   2.406   0.213   4.990 -0.1345 -0.4951 -0.2141
 1012SOL    HW1 5043   2.380   0.200   4.899 -1.2753  1.3937 -0.2132
 1012SOL    HW2 5044   2.497   0.243   4.985  1.4978 -4.7989 -0.3636
 1013SOL     OW 5045   2.245   0.918   4.097  0.4180  0.0779  0.2072
 1013SOL    HW1 5046   2.180   0.858   4.059  3.7878 -4.3634  0.6750
 1013SOL    HW2 5047   2.248   0.992   4.036 -3.0598 -0.7791 -1.2367
 1014SOL     OW 5048  10.728  10.078  11.085  0.0553  0.1744 -0.2153
 1014SOL    HW1 5049  10.798  10.026  11.125 -1.1063 -0.6559  0.8246
 1014SOL    HW2 5050  10.752  10.169  11.104  1.3929 -0.0212 -0.8325
 1015SOL     OW 5051   6.532   3.039   8.365  0.4743  0.2458 -0.1211
 1015SOL    HW1 5052   6.586   3.025   8.443 -0.7365  0.2786  0.7504
 1015SOL    HW2 5053   6.459   2.978   8.376  0.7970 -0.4671 -1.7365
 1016SOL     OW 5054   9.934   0.929   4.742  0.0269 -0.1644 -0.2710
 1016SOL    HW1 5055   9.869   0.864   4.769 -0.2793  0.2562  0.0124
 1016SOL    HW2 5056   9.934   0.994   4.812  1.0845 -0.3892 -0.0454
 1017SOL     OW 5057   4.301   7.524   5.043  0.6939  0.6316  0.3959
 1017SOL    HW1 5058   4.327   7.598   5.097  0.3160  3.7936 -3.3344
 1017SOL    HW2 5059   4.317   7.552   4.953  1.2919 -4.2180 -1.3237
 1018SOL     OW 5060   0.015   7.043   4.608  0.1243 -0.5665 -0.4211
 1018SOL    HW1 5061   0.109   7.046   4.590  0.2309  1.5926  0.1832
 1018SOL    HW2 5062   0.010   7.043   4.704 -0.4879 -0.9810 -0.4538
 1019SOL     OW 5063   0.388   5.227   6.567 -0.2987 -0.3163 -0.1395
 1019SOL    HW1 5064   0.479   5.201   6.554 -0.1433  0.6272 -1.0570
 1019SOL    HW2 5065   0.373   5.215   6.661  0.8901 -0.1364  0.0912
 1020SOL     OW 5066   9.930   4.137   7.590 -0.0676  0.1050 -0.1728
 1020SOL    HW1 5067   9.981   4.216   7.604 -0.6533 -0.0780  4.0262
 1020SOL    HW2 5068   9.847   4.168   7.555 -0.0990  1.3092  0.9136
 1021SOL     OW 5069  10.293   7.668   7.181  0.3580  0.1573 -0.6551
 1021SOL    HW1 5070  10.287   7.738   7.116 -0.8835  1.7721  1.1095
 1021SOL    HW2 5071  10.358   7.699   7.244  2.7807 -2.1138 -1.8337
 1022SOL     OW 5072   1.112   4.226   6.552  0.2637  0.6449  0.1484
 1022SOL    HW1 5073   1.188   4.257   6.601  0.3993 -0.2301  0.5209
 1022SOL    HW2 5074   1.040   4.282   6.581  0.5360  0.7465  0.6450
 1023SOL     OW 5075   1.602   1.103   0.835 -0.2875 -0.1694 -0.2284
 1023SOL    HW1 5076   1.574   1.109   0.926 -1.0681  0.8580 -0.5167
 1023SOL    HW2 5077   1.634   1.190   0.813  0.0055 -0.4346 -0.9032
 1024SOL     OW 5078   1.906   0.184   0.458  0.6051  0.4093 -0.1019
 1024SOL    HW1 5079   1.875   0.272   0.437 -2.1122 -0.0005  1.6537
 1024SOL    HW2 5080   1.997   0.196   0.483  0.1167  2.8976  0.8101
 1025SOL     OW 5081  10.464   5.977   5.162 -0.2766  0.4597  0.1319
 1025SOL    HW1 5082  10.450   6.072   5.164 -0.1274  0.4881 -0.1223
 1025SOL    HW2 5083  10.378   5.940   5.180 -0.6287  0.6396 -1.1177
 1026SOL     OW 5084   1.170  10.792   3.792  0.8858  0.5447 -0.4832
 1026SOL    HW1 5085   1.106  10.812   3.860  0.2014  1.0218 -1.2415
 1026SOL    HW2 5086   1.232  10.865   3.795  0.4437  0.9425 -0.8420
 1027SOL     OW 5087   1.156   8.979   5.580 -0.0625  0.0645 -0.0820
 1027SOL    HW1 5088   1.191   8.933   5.656 -2.9106  0.3038  1.5400
 1027SOL    HW2 5089   1.087   9.036   5.616 -1.0614  0.7101 -2.7601
 1028SOL     OW 5090   1.328   1.744  10.332 -0.3453  0.4158 -0.1648
 1028SOL    HW1 5091   1.376   1.674  10.289 -0.2495  0.2826  0.1579
 1028SOL    HW2 5092   1.387   1.820  10.328 -1.3203  1.1441 -2.5470
 1029SOL     OW 5093   1.654   6.817  10.795 -0.3958 -0.0695 -0.3222
 1029SOL    HW1 5094   1.558   6.812  10.795 -0.4847  1.2633 -0.3269
 1029SOL    HW2 5095   1.678   6.816  10.702 -0.1018 -4.1392 -0.3722
 1030SOL     OW 5096   1.102   3.156   5.754 -0.4790  0.4775 -0.2842
 1030SOL    HW1 5097   1.011   3.141   5.779 -0.0221 -1.0360  0.5928
 1030SOL    HW2 5098   1.125   3.081   5.699  0.8717 -0.3734  1.3481
 1031SOL     OW 5099   4.881   6.177   8.753 -0.1526 -0.5631 -0.1611
 1031SOL    HW1 5100   4.864   6.189   8.847  0.8495 -1.0531  0.0929
 1031SOL    HW2 5101   4.912   6.087   8.746  1.0077 -0.1396 -0.7667
 1032SOL     OW 5102   6.281   1.670  10.044 -0.6525 -0.1433 -0.0798
 1032SOL    HW1 5103   6.280   1.652  10.138 -1.5282  0.6563  0.0752
 1032SOL    HW2 5104   6.251   1.588  10.004  1.2830 -1.0535  0.1954
 1033SOL     OW 5105   8.226   7.283   8.358 -0.1474  0.1586 -0.5453
 1033SOL    HW1 5106   8.189   7.225   8.292 -0.5473 -0.6190  0.3311
 1033SOL    HW2 5107   8.288   7.338   8.310 -0.3669 -0.4358 -1.5411
 1034SOL     OW 5108   0.570   9.570   6.570  0.8524 -0.1189  0.0610
 1034SOL    HW1 5109   0.509   9.621   6.623  2.2064  0.5424  1.0407
 1034SOL    HW2 5110   0.577   9.619   6.488 -1.0348 -0.9970 -0.6956
 1035SOL     OW 5111   6.926   8.371   8.566  0.0001  0.2186  0.4649
 1035SOL    HW1 5112   6.873   8.449   8.546 -1.0382 -0.5423  0.1913
 1035SOL    HW2 5113   7.014   8.395   8.537 -0.3810  1.1479  0.0086
 1036SOL     OW 5114   8.759   9.552   4.016 -0.2666  0.6658 -0.7623
 1036SOL    HW1 5115   8.723   9.640   4.016  1.1819  1.4012 -4.0009
 1036SOL    HW2 5116   8.833   9.555   4.076  0.0390  1.8248 -1.1786
 1037SOL     OW 5117   9.590   9.258  10.671  0.0719  0.6480 -0.3403
 1037SOL    HW1 5118   9.664   9.240  10.612 -0.8078 -0.5025 -1.1347
 1037SOL    HW2 5119   9.588   9.354  10.677  0.4303  0.7904 -1.8920
 1038SOL     OW 5120   1.061   7.800   8.783  0.6102  0.5645 -0.1600
 1038SOL    HW1 5121   0.998   7.744   8.828 -0.5110  1.4199 -0.6162
 1038SOL    HW2 5122   1.058   7.883   8.831  0.8258  0.8648 -0.6550
 1039SOL     OW 5123  11.075  10.269   5.693 -0.1888 -0.3888 -0.1273
 1039SOL    HW1 5124  11.170  10.279   5.685 -0.2101  0.1253  0.1975
 1039SOL    HW2 5125  11.042  10.290   5.605  0.0928 -2.0063 -0.6368
 1040SOL     OW 5126   4.305   0.882   2.891  0.3309  0.2657  0.1372
 1040SOL    HW1 5127   4.297   0.976   2.876 -5.3952 -0.0708 -1.3298
 1040SOL    HW2 5128   4.233   0.862   2.951 -0.9027 -3.5160 -2.2701
 1041SOL     OW 5129   1.121   0.497   5.508  0.0949  0.0415 -0.1880
 1041SOL    HW1 5130   1.156   0.501   5.597  1.3389 -0.9585 -0.5938
 1041SOL    HW2 5131   1.075   0.413   5.505  1.3022 -0.6200 -0.8859
 1042SOL     OW 5132   6.154   9.506  10.729 -0.0367 -0.5616  0.0270
 1042SOL    HW1 5133   6.128   9.566  10.800 -0.4984 -1.5318  0.6931
 1042SOL    HW2 5134   6.133   9.554  10.649  2.4419  1.4627  0.4444
 1043SOL     OW 5135   5.593   6.907   0.873 -1.3403 -0.1179  0.5794
 1043SOL    HW1 5136   5.663   6.842   0.870 -0.8381  0.3402  1.6928
 1043SOL    HW2 5137   5.532   6.873   0.939 -1.0587  0.5320  1.1945
 1044SOL     OW 5138   7.355  10.667   5.982  0.4234  0.8530 -0.5859
 1044SOL    HW1 5139   7.448  10.647   5.987  0.7822  2.6387  0.9920
 1044SOL    HW2 5140   7.326  10.673   6.073 -0.4875  3.3686 -0.9539
 1045SOL     OW 5141  10.917   0.080   9.364  0.1112 -0.6910 -0.5747
 1045SOL    HW1 5142  10.921  -0.015   9.380 -2.4657 -0.9433 -0.9556
 1045SOL    HW2 5143  10.841   0.091   9.306 -1.1199  1.8217  1.3295
 1046SOL     OW 5144   3.827   5.339   5.528 -0.3689 -0.2534  0.1217
 1046SOL    HW1 5145   3.792   5.318   5.442 -1.7086 -2.4921  1.1187
 1046SOL    HW2 5146   3.750   5.359   5.581  0.2029 -1.3401  1.3969
 1047SOL     OW 5147  10.410   7.130   3.505  0.1585  0.2339 -0.4102
 1047SOL    HW1 5148  10.476   7.066   3.479 -0.3808  0.6037 -2.9994
 1047SOL    HW2 5149  10.423   7.141   3.599  1.1854 -2.5970 -0.1198
 1048SOL     OW 5150   0.141   6.561   4.040 -1.2788 -0.3527 -0.0591
 1048SOL    HW1 5151   0.104   6.476   4.018 -1.2708 -0.0692 -1.2189
 1048SOL    HW2 5152   0.070   6.624   4.025 -0.6790  0.0681 -1.2368
 1049SOL     OW 5153   0.872   6.298   4.381 -0.5709 -0.5138  0.3278
 1049SOL    HW1 5154   0.931   6.346   4.438 -0.1612 -0.5296 -0.0785
 1049SOL    HW2 5155   0.909   6.307   4.293 -1.8052  0.4980 -0.1278
 1050SOL     OW 5156   4.589   5.323   9.094  0.2187  0.0821  0.1669
 1050SOL    HW1 5157   4.548   5.240   9.072  0.5515  0.0757 -0.4801
 1050SOL    HW2 5158   4.516   5.382   9.115 -0.0194 -0.3502  0.5548
 1051SOL     OW 5159   5.042   1.961   6.783  0.0383 -0.1711 -0.0054
 1051SOL    HW1 5160   5.047   1.868   6.806 -0.2304  0.2752  2.0078
 1051SOL    HW2 5161   5.058   2.007   6.865 -4.6639  1.5182  0.2682
 1052SOL     OW 5162   7.365   5.550   1.971  0.3447  0.0596 -0.1481
 1052SOL    HW1 5163   7.340   5.523   2.060  1.6460 -0.6896  0.0218
 1052SOL    HW2 5164   7.295   5.517   1.915  0.0844 -0.4583  0.4738
 1053SOL     OW 5165   0.328   6.246   6.676 -0.2973  0.7631  0.3510
 1053SOL    HW1 5166   0.272   6.225   6.751 -1.1929  2.5991  0.2353
 1053SOL    HW2 5167   0.417   6.246   6.712 -0.2847 -2.0954  0.5540
 1054SOL     OW 5168   1.979   3.415   6.415 -0.4437  0.4653 -0.5487
 1054SOL    HW1 5169   1.998   3.338   6.468 -0.0163 -0.8859 -2.5138
 1054SOL    HW2 5170   1.883   3.418   6.411 -0.5727  1.9611  2.0861
 1055SOL     OW 5171   2.533   8.248   8.296  0.4138  0.6184 -0.2003
 1055SOL    HW1 5172   2.500   8.298   8.221 -4.3584  0.6365  1.5905
 1055SOL    HW2 5173   2.504   8.158   8.278  0.2234  0.4129  1.0709
 1056SOL     OW 5174   4.592   4.783   6.941  0.0124  0.1648  0.6159
 1056SOL    HW1 5175   4.595   4.831   6.859  0.2752 -0.0222  0.5145
 1056SOL    HW2 5176   4.587   4.691   6.915 -1.4248  0.1679  0.8018
 1057SOL     OW 5177   4.801  10.434  10.197  0.5736 -0.6660 -0.5297
 1057SOL    HW1 5178   4.748  10.394  10.266  0.2586  1.0160  0.2476
 1057SOL    HW2 5179   4.873  10.477  10.242  0.1513  0.7922 -1.1799
 1058SOL     OW 5180   2.276   6.156   0.061  0.2779 -0.4010  0.1282
 1058SOL    HW1 5181   2.252   6.084   0.003 -0.4756 -0.9650  1.1092
 1058SOL    HW2 5182   2.342   6.205   0.012  1.0186 -1.9094 -0.4471
 1059SOL     OW 5183   4.760   5.225   6.880 -0.1297 -0.2696 -0.5831
 1059SOL    HW1 5184   4.827   5.157   6.892 -0.7110 -0.6181  1.0750
 1059SOL    HW2 5185   4.797   5.302   6.922 -1.0989 -0.7350  1.2624
 1060SOL     OW 5186   8.126   3.715   6.565  0.1655  0.3892  0.2053
 1060SOL    HW1 5187   8.171   3.784   6.515  0.7665  0.2318  0.5135
 1060SOL    HW2 5188   8.196   3.671   6.613  0.1278 -1.9384 -1.7257
 1061SOL     OW 5189   2.822   0.016   4.639 -0.1170 -0.4093  0.4444
 1061SOL    HW1 5190   2.747   0.073   4.653  1.7206  2.3586 -0.2818
 1061SOL    HW2 5191   2.847  -0.013   4.727 -1.9435 -1.3732  0.6988
 1062SOL     OW 5192   1.333  10.312   4.621  0.0103 -0.0395 -0.8502
 1062SOL    HW1 5193   1.391  10.274   4.687 -2.2746 -0.6949  0.9576
 1062SOL    HW2 5194   1.360  10.403   4.614  0.6678 -0.0953  0.6533
 1063SOL     OW 5195   1.348  10.665   0.571 -0.5012 -0.1103 -0.2299
 1063SOL    HW1 5196   1.302  10.744   0.601 -1.8526 -0.9228 -0.0572
 1063SOL    HW2 5197   1.441  10.688   0.576 -0.8581  1.5723 -0.4840
 1064SOL     OW 5198   0.436   3.910   0.667 -0.1017  0.0411  0.1968
 1064SOL    HW1 5199   0.476   3.841   0.720  0.3796  1.1355  1.3031
 1064SOL    HW2 5200   0.485   3.989   0.690  1.4564  0.2813 -3.2893
 1065SOL     OW 5201   1.406   3.467   1.507  0.5311  0.0269  0.5167
 1065SOL    HW1 5202   1.422   3.372   1.505  1.7595  0.2189 -0.1567
 1065SOL    HW2 5203   1.347   3.483   1.434  2.3109  0.0528 -1.0115
 1066SOL     OW 5204   3.164   7.143   4.416 -0.3938 -0.3595  0.1751
 1066SOL    HW1 5205   3.129   7.225   4.450  0.1323 -0.4093  0.8789
 1066SOL    HW2 5206   3.117   7.128   4.334 -0.5796  0.5771  0.1017
 1067SOL     OW 5207   4.728   8.703   7.001  0.8582  0.3886  0.2128
 1067SOL    HW1 5208   4.757   8.726   6.913 -2.5893 -0.5457 -1.3395
 1067SOL    HW2 5209   4.774   8.622   7.022  0.5465 -0.2498 -1.4510
 1068SOL     OW 5210   5.009   7.835   3.541  0.5983  0.3617  0.0780
 1068SOL    HW1 5211   5.053   7.774   3.600  1.6969  0.2849 -0.7856
 1068SOL    HW2 5212   4.924   7.794   3.524  1.4132 -1.0794 -0.6810
 1069SOL     OW 5213   5.140   4.001   5.377 -0.1030 -0.2758  0.4887
 1069SOL    HW1 5214   5.140   3.983   5.283 -2.3969  0.7024  0.2288
 1069SOL    HW2 5215   5.231   4.018   5.399  0.7388 -2.2227 -1.1921
 1070SOL     OW 5216   3.456   9.157   7.676  0.0442  0.8353 -0.2966
 1070SOL    HW1 5217   3.527   9.218   7.655  1.4588 -0.5335  0.2298
 1070SOL    HW2 5218   3.479   9.122   7.762 -1.7808  1.0147  0.2992
 1071SOL     OW 5219   4.074   5.752   4.509 -1.0032  0.0572 -0.1958
 1071SOL    HW1 5220   4.145   5.816   4.499 -0.3242 -0.2010  2.2305
 1071SOL    HW2 5221   4.107   5.673   4.466  0.6894 -0.3661  1.7113
 1072SOL     OW 5222  10.900  10.883   9.033  0.0847  0.5692  0.4090
 1072SOL    HW1 5223  10.913  10.870   9.127  1.7740 -1.4281 -0.0383
 1072SOL    HW2 5224  10.858  10.803   9.003  0.4198  0.7805 -0.6737
 1073SOL     OW 5225   4.510   9.083   2.467 -0.5162  0.1762 -0.2798
 1073SOL    HW1 5226   4.518   8.988   2.456 -3.7969 -0.2466  0.0684
 1073SOL    HW2 5227   4.497   9.095   2.562  0.2061  1.0491 -0.2733
 1074SOL     OW 5228   2.613   4.646   5.481 -0.2605 -0.0902 -0.3534
 1074SOL    HW1 5229   2.612   4.664   5.575 -1.2708  2.4155 -0.7677
 1074SOL    HW2 5230   2.706   4.651   5.457 -0.2402  3.8565 -0.1454
 1075SOL     OW 5231   2.971   6.537   3.170 -0.6145  0.5533 -0.2561
 1075SOL    HW1 5232   3.042   6.477   3.193 -1.3438  0.2938  1.4755
 1075SOL    HW2 5233   2.967   6.534   3.074  0.1407 -1.2596 -0.2716
 1076SOL     OW 5234   8.996   3.987   1.860  0.3917 -0.7608  0.3145
 1076SOL    HW1 5235   8.942   4.040   1.919  1.5197 -0.2480  0.9185
 1076SOL    HW2 5236   9.071   4.042   1.839  0.8002 -1.5362 -0.3258
 1077SOL     OW 5237   7.117   6.615   8.688 -0.3525  0.1458 -0.4912
 1077SOL    HW1 5238   7.205   6.639   8.718 -0.0587 -1.0905 -0.3009
 1077SOL    HW2 5239   7.122   6.622   8.592 -1.0266  3.2048 -0.4077
 1078SOL     OW 5240   2.989   9.858   7.133 -0.1053  0.3636 -0.6864
 1078SOL    HW1 5241   2.958   9.944   7.104 -0.4623  0.6688  0.5452
 1078SOL    HW2 5242   3.083   9.869   7.144 -0.1123  0.5281 -0.7910
 1079SOL     OW 5243  10.237   1.093   1.599 -0.8499  0.2923 -0.7006
 1079SOL    HW1 5244  10.192   1.083   1.683 -0.7877 -0.2501 -0.7283
 1079SOL    HW2 5245  10.320   1.135   1.621 -1.0349  0.5866 -0.5525
 1080SOL     OW 5246   7.463   3.986   9.437  0.2689  0.4364  0.1601
 1080SOL    HW1 5247   7.541   3.948   9.397 -0.9025  0.5285 -2.4214
 1080SOL    HW2 5248   7.408   3.911   9.461  0.1987  0.4058 -0.0949
 1081SOL     OW 5249   9.764   6.783  10.984 -0.8088 -0.3235  0.5146
 1081SOL    HW1 5250   9.772   6.760  11.076  0.9298 -0.2898  0.4092
 1081SOL    HW2 5251   9.671   6.769  10.963 -1.6179  1.2683  2.6597
 1082SOL     OW 5252  10.969  10.570  10.094 -0.6865 -0.2663 -0.7182
 1082SOL    HW1 5253  10.924  10.489  10.071 -0.1662 -1.0648  0.8887
 1082SOL    HW2 5254  11.062  10.551  10.080 -0.5174 -0.1576  0.1475
 1083SOL     OW 5255   7.621  10.388   4.456 -0.2855 -0.2739  0.2021
 1083SOL    HW1 5256   7.615  10.405   4.362  0.8265  0.6152  0.2626
 1083SOL    HW2 5257   7.535  10.411   4.490 -0.1436  1.2457 -0.3647
 1084SOL     OW 5258   5.548  10.266  10.968 -0.0796 -0.2347 -0.6302
 1084SOL    HW1 5259   5.538  10.361  10.974 -2.4295 -0.4609  0.3184
 1084SOL    HW2 5260   5.549  10.248  10.874  2.2674  0.8082 -0.8721
 1085SOL     OW 5261   3.984   0.646   2.315 -0.0047 -0.1366 -0.8563
 1085SOL    HW1 5262   3.983   0.638   2.411 -0.5141  1.0558 -0.7362
 1085SOL    HW2 5263   3.891   0.646   2.291 -0.0608  2.5060 -1.0105
 1086SOL     OW 5264   9.695   1.477   4.857  0.0017  0.6840  0.2069
 1086SOL    HW1 5265   9.724   1.460   4.767  0.8148  0.6392  0.4743
 1086SOL    HW2 5266   9.629   1.546   4.848 -0.1946  0.4117 -0.4627
 1087SOL     OW 5267   9.222   5.259   7.367  0.1793  0.2625 -0.1273
 1087SOL    HW1 5268   9.290   5.271   7.300 -0.6808 -1.0075 -1.2836
 1087SOL    HW2 5269   9.250   5.182   7.416 -1.5694 -1.8255 -2.2044
 1088SOL     OW 5270   5.452   4.078   6.551 -0.2060  0.5269  0.7245
 1088SOL    HW1 5271   5.460   4.146   6.484  0.0317 -0.2696 -0.0712
 1088SOL    HW2 5272   5.541   4.069   6.587  0.7469 -2.0252 -1.8739
 1089SOL     OW 5273   4.289   4.456  10.661  0.4097 -0.1191  0.3655
 1089SOL    HW1 5274   4.225   4.467  10.731  0.4585  1.5504  0.1793
 1089SOL    HW2 5275   4.351   4.528  10.674  2.9710 -2.3235  1.2613
 1090SOL     OW 5276   5.445   2.717   9.129  0.4167  0.3825 -0.0528
 1090SOL    HW1 5277   5.498   2.797   9.132  2.4292 -0.8231 -0.9713
 1090SOL    HW2 5278   5.426   2.697   9.220  1.0384  1.1903  0.2688
 1091SOL     OW 5279   1.098   8.305   8.912  0.3612  0.4997  0.4587
 1091SOL    HW1 5280   1.067   8.361   8.983  0.4595 -0.7311  1.5025
 1091SOL    HW2 5281   1.188   8.284   8.935  0.0968 -0.6635  0.4626
 1092SOL     OW 5282   0.548   2.912   1.528 -0.0579  0.6281 -0.3440
 1092SOL    HW1 5283   0.455   2.925   1.546 -0.2725 -0.5668 -0.5346
 1092SOL    HW2 5284   0.566   2.823   1.557  1.3056  1.2216  0.7513
 1093SOL     OW 5285   0.492   0.272   4.751  0.5830  0.4167  0.2824
 1093SOL    HW1 5286   0.441   0.277   4.832  0.4219 -0.3767  0.2366
 1093SOL    HW2 5287   0.491   0.179   4.728  0.4355  0.6652 -0.7598
 1094SOL     OW 5288   1.770   9.675   6.510 -0.0679 -0.3842 -0.1392
 1094SOL    HW1 5289   1.805   9.747   6.458 -0.7659  0.3006  0.3158
 1094SOL    HW2 5290   1.686   9.653   6.469  0.7130 -1.8377 -1.0648
 1095SOL     OW 5291   0.735   6.093   9.466 -0.7978 -0.1081 -0.1309
 1095SOL    HW1 5292   0.713   6.169   9.521 -2.5775 -0.0243 -0.8753
 1095SOL    HW2 5293   0.807   6.051   9.512  0.6081  2.2922  0.0643
 1096SOL     OW 5294   7.637   4.901   8.970  0.4477  0.8342 -0.1577
 1096SOL    HW1 5295   7.612   4.858   9.053  2.4168  0.2481  0.1961
 1096SOL    HW2 5296   7.640   4.829   8.907  0.1319  1.0793 -0.4484
 1097SOL     OW 5297   8.903  10.305   0.850  0.6422  0.1259  0.1851
 1097SOL    HW1 5298   8.886  10.218   0.885 -1.2580 -0.7119 -2.5205
 1097SOL    HW2 5299   8.817  10.342   0.833  1.3453  0.7868 -2.5701
 1098SOL     OW 5300   9.933   8.875   2.074 -0.7962  0.5977  0.0600
 1098SOL    HW1 5301   9.985   8.824   2.136  1.4308  0.2042 -1.9762
 1098SOL    HW2 5302   9.851   8.826   2.066 -0.7519  0.1392  1.8803
 1099SOL     OW 5303   0.188   3.972  10.945 -0.1644  0.2048  0.4103
 1099SOL    HW1 5304   0.250   4.002  11.011 -0.2922 -2.6268  2.0171
 1099SOL    HW2 5305   0.211   3.880  10.931 -2.3897 -0.2376 -0.8658
 1100SOL     OW 5306   7.100   8.579   5.373 -0.0309  0.3704  0.2754
 1100SOL    HW1 5307   7.032   8.564   5.438 -1.0849  1.7409 -0.4672
 1100SOL    HW2 5308   7.163   8.637   5.416 -0.2953  0.5998  0.3533
 1101SOL     OW 5309   2.377   2.763   5.386 -0.2670 -0.0897 -0.4282
 1101SOL    HW1 5310   2.343   2.852   5.380 -0.2325 -0.0142  0.3851
 1101SOL    HW2 5311   2.436   2.764   5.461  0.9824 -0.4065 -1.3733
 1102SOL     OW 5312   2.968   5.067   7.209  0.2033 -0.0749 -0.3525
 1102SOL    HW1 5313   2.952   5.024   7.125 -2.0428  0.1844 -0.1269
 1102SOL    HW2 5314   3.052   5.112   7.198 -0.0006 -0.1166 -2.4277
 1103SOL     OW 5315   9.408   2.353   6.660 -0.4142 -0.1384 -0.2618
 1103SOL    HW1 5316   9.333   2.396   6.620 -2.1728 -1.5462  1.3241
 1103SOL    HW2 5317   9.445   2.419   6.719 -0.4286  0.5328 -0.9860
 1104SOL     OW 5318   5.397   4.161   3.155 -0.2462  0.6047 -0.3749
 1104SOL    HW1 5319   5.349   4.223   3.211  0.1752  0.6959 -0.1052
 1104SOL    HW2 5320   5.388   4.077   3.200 -1.5482  0.2814 -1.1872
 1105SOL     OW 5321   1.217   0.232   9.568 -0.1040  0.2680  0.3751
 1105SOL    HW1 5322   1.178   0.239   9.481 -0.6977 -0.2982  0.5852
 1105SOL    HW2 5323   1.276   0.157   9.563  0.4812  0.7366  0.2346
 1106SOL     OW 5324   4.463   8.678   1.224 -0.2977  0.9028  0.0018
 1106SOL    HW1 5325   4.368   8.676   1.217 -0.3332  0.2212  0.5847
 1106SOL    HW2 5326   4.480   8.737   1.298 -0.3059  0.2462  0.5291
 1107SOL     OW 5327   1.530   0.354  10.943  0.1483 -0.3355 -0.3746
 1107SOL    HW1 5328   1.483   0.271  10.940  2.7649 -2.0235  1.0377
 1107SOL    HW2 5329   1.621   0.329  10.927  0.7476  2.6100 -2.1626
 1108SOL     OW 5330   8.775   7.149  10.365  0.0063 -0.3039  0.2334
 1108SOL    HW1 5331   8.768   7.157  10.461 -0.1758 -0.6361  0.2501
 1108SOL    HW2 5332   8.853   7.095  10.352  0.4412  0.3335  0.1691
 1109SOL     OW 5333   8.711   6.946   0.056 -0.6511 -0.1480 -0.2325
 1109SOL    HW1 5334   8.767   7.022   0.069  0.3216 -1.1768  1.9920
 1109SOL    HW2 5335   8.624   6.975   0.083 -0.3117  0.2133  0.4847
 1110SOL     OW 5336   3.719   7.606   1.600 -0.6902  0.2308  0.7256
 1110SOL    HW1 5337   3.748   7.678   1.544  0.5093  0.4594  1.5959
 1110SOL    HW2 5338   3.743   7.527   1.552  4.4383  0.2740  2.6052
 1111SOL     OW 5339   7.138   1.216   8.007 -0.4560 -0.2660 -0.0139
 1111SOL    HW1 5340   7.185   1.249   7.930 -0.2944  3.1696  1.3580
 1111SOL    HW2 5341   7.110   1.295   8.053 -1.3661 -2.1656  2.9898
 1112SOL     OW 5342   1.614   8.210   3.567  0.3081  0.4100  0.1978
 1112SOL    HW1 5343   1.658   8.191   3.485 -1.2701  1.2757 -0.8847
 1112SOL    HW2 5344   1.530   8.165   3.560 -0.9096  2.5566  0.2209
 1113SOL     OW 5345   5.255   1.341   7.644  0.2563 -0.2308  0.0762
 1113SOL    HW1 5346   5.207   1.371   7.721  0.6841 -1.8564  1.0353
 1113SOL    HW2 5347   5.189   1.294   7.592  0.6049 -1.9288  1.0894
 1114SOL     OW 5348   8.240   6.239   4.959 -0.3101 -0.1166 -0.0555
 1114SOL    HW1 5349   8.295   6.172   4.920 -0.6309  0.0990 -0.8940
 1114SOL    HW2 5350   8.158   6.236   4.909 -1.5913 -1.2751  1.9192
 1115SOL     OW 5351   5.353  11.090   9.354 -0.0561 -0.7141  0.0488
 1115SOL    HW1 5352   5.391  11.110   9.268  1.7043  0.9882  1.1173
 1115SOL    HW2 5353   5.408  11.021   9.389 -0.9387 -1.5970 -0.2597
 1116SOL     OW 5354   6.756  10.677   7.922  0.4637 -0.9065 -0.7583
 1116SOL    HW1 5355   6.779  10.649   7.833 -3.6548 -0.4401 -2.2130
 1116SOL    HW2 5356   6.672  10.723   7.911  0.0695 -0.3066  3.3283
 1117SOL     OW 5357   3.933   5.419   6.313  0.2698 -0.2742 -0.1087
 1117SOL    HW1 5358   3.881   5.448   6.239  0.8608 -1.8334 -1.1870
 1117SOL    HW2 5359   4.022   5.412   6.279  0.6483 -0.5268  0.8881
 1118SOL     OW 5360   2.005  10.931   5.276 -0.0252 -0.5152  0.7207
 1118SOL    HW1 5361   1.920  10.914   5.315 -1.0324  1.3018 -0.5313
 1118SOL    HW2 5362   2.020  10.857   5.218 -0.2164 -1.3939  1.7598
 1119SOL     OW 5363   7.047   3.523  10.345 -0.1487 -0.6867 -0.3977
 1119SOL    HW1 5364   7.031   3.532  10.251 -1.8521  1.4068 -0.0002
 1119SOL    HW2 5365   7.019   3.607  10.382  1.3323 -1.1121  1.8972
 1120SOL     OW 5366   3.973   6.053   3.074 -0.5190  0.1251  0.0868
 1120SOL    HW1 5367   3.938   6.117   3.136  1.4220  1.5290 -0.1782
 1120SOL    HW2 5368   4.023   6.105   3.011  0.5248 -1.5827 -0.5660
 1121SOL     OW 5369   7.026   4.494   8.521 -0.2825  0.7688 -0.1768
 1121SOL    HW1 5370   7.048   4.458   8.435  0.4955  2.0591 -0.5433
 1121SOL    HW2 5371   7.096   4.461   8.578 -2.2032 -2.2941  0.6337
 1122SOL     OW 5372   6.897   4.571   6.148 -0.4486 -0.2114 -0.0310
 1122SOL    HW1 5373   6.889   4.626   6.070 -0.9060 -1.8649 -1.2265
 1122SOL    HW2 5374   6.813   4.525   6.153 -0.0642 -0.8431  0.8631
 1123SOL     OW 5375   9.056   5.857   9.637 -0.4035 -0.6763  0.3047
 1123SOL    HW1 5376   9.032   5.788   9.576 -0.5171  0.0022 -0.4413
 1123SOL    HW2 5377   9.149   5.843   9.654 -0.5330 -1.2901  0.5393
 1124SOL     OW 5378   4.163   9.993   1.652 -0.4868 -0.5482 -0.0697
 1124SOL    HW1 5379   4.108   9.926   1.693 -1.6380  1.6929  2.2958
 1124SOL    HW2 5380   4.222  10.021   1.721 -0.3663  1.2162 -0.8308
 1125SOL     OW 5381   9.897   1.736   3.994 -0.2582 -0.6292 -0.2478
 1125SOL    HW1 5382   9.921   1.765   3.906  1.3077 -2.1407 -0.3702
 1125SOL    HW2 5383   9.816   1.686   3.982 -1.5342  1.3467 -0.3920
 1126SOL     OW 5384   4.939   4.842   0.604  0.0541  0.0315 -0.1571
 1126SOL    HW1 5385   4.889   4.916   0.637  0.7972  0.0532  0.9654
 1126SOL    HW2 5386   5.020   4.843   0.655  1.0524 -0.2133 -1.6758
 1127SOL     OW 5387  10.359   1.544   5.200  0.3616  0.4381  0.1223
 1127SOL    HW1 5388  10.292   1.611   5.191  0.4857  0.6341  0.6769
 1127SOL    HW2 5389  10.441   1.587   5.174  0.3642  0.3554 -0.0125
 1128SOL     OW 5390   4.064   4.617   5.966  0.4219  0.1742 -0.4490
 1128SOL    HW1 5391   3.984   4.566   5.977  0.0471  0.1832 -2.7141
 1128SOL    HW2 5392   4.134   4.557   5.991 -0.1735 -0.5510 -0.4926
 1129SOL     OW 5393   4.246   0.581  10.257  0.0675 -0.7878  0.7315
 1129SOL    HW1 5394   4.330   0.577  10.211 -0.1365  2.0297 -0.0710
 1129SOL    HW2 5395   4.262   0.639  10.332 -1.3916  0.9012 -0.1795
 1130SOL     OW 5396   8.970  11.036   9.811  0.1660 -0.0899  0.1705
 1130SOL    HW1 5397   9.047  11.031   9.753 -0.5433  0.8999 -0.9164
 1130SOL    HW2 5398   8.990  10.976   9.882  0.8903 -1.7264 -1.3339
 1131SOL     OW 5399   4.023   9.211   3.876  0.2781  0.4633 -0.1089
 1131SOL    HW1 5400   4.031   9.141   3.810  1.1999  0.6051 -0.1638
 1131SOL    HW2 5401   4.004   9.165   3.957  2.3255 -0.0226  0.1569
 1132SOL     OW 5402   8.604   0.927   5.102  0.4508 -0.1111  0.2169
 1132SOL    HW1 5403   8.671   0.860   5.089  0.3094  0.0437 -1.4547
 1132SOL    HW2 5404   8.644   0.989   5.163  1.4780 -0.4748 -0.0694
 1133SOL     OW 5405   3.558   5.741   9.850 -0.1422 -0.8069  0.2399
 1133SOL    HW1 5406   3.597   5.769   9.767  0.3181 -0.7860  0.4603
 1133SOL    HW2 5407   3.539   5.648   9.837 -2.9358 -0.1444 -0.9794
 1134SOL     OW 5408  10.500   9.434   9.335 -0.6976 -0.5149 -0.0227
 1134SOL    HW1 5409  10.466   9.492   9.403  2.0794  1.2794  0.0157
 1134SOL    HW2 5410  10.559   9.375   9.382 -0.0783 -0.3870 -0.6261
 1135SOL     OW 5411   5.690  10.846   3.857 -0.0554 -0.2611 -0.4165
 1135SOL    HW1 5412   5.614  10.879   3.904  0.0155 -2.1533  1.1577
 1135SOL    HW2 5413   5.754  10.917   3.862 -0.0768 -0.3501  2.3655
 1136SOL     OW 5414  11.036   4.769  11.027 -0.4258  0.0987  0.0778
 1136SOL    HW1 5415  10.972   4.830  11.063 -0.4086 -0.0996  0.4550
 1136SOL    HW2 5416  10.984   4.700  10.987 -0.4650  1.0305 -1.5740
 1137SOL     OW 5417   1.304   7.732   2.553 -0.3248  0.1517  0.3585
 1137SOL    HW1 5418   1.312   7.658   2.492 -0.6834 -1.1159  1.7704
 1137SOL    HW2 5419   1.332   7.808   2.503 -2.1489 -0.5391 -1.9202
 1138SOL     OW 5420   2.479   4.688   0.310  0.4626 -0.5193  0.9751
 1138SOL    HW1 5421   2.527   4.702   0.391 -1.6527  0.2301  2.1816
 1138SOL    HW2 5422   2.399   4.642   0.337  0.6161 -2.1269 -0.9931
 1139SOL     OW 5423   8.699   1.001   3.243 -0.0767 -0.5701  1.0275
 1139SOL    HW1 5424   8.690   1.092   3.271 -0.3613 -1.0257  2.5343
 1139SOL    HW2 5425   8.611   0.966   3.246 -0.1167 -0.6730 -0.4916
 1140SOL     OW 5426   8.143   9.722   4.662  0.4486 -0.4781 -0.5166
 1140SOL    HW1 5427   8.150   9.816   4.676  0.8919 -0.4333 -1.0182
 1140SOL    HW2 5428   8.117   9.687   4.747 -1.8374  0.3053 -0.8367
 1141SOL     OW 5429   3.891   2.207  11.043  0.5159  0.1635  0.0148
 1141SOL    HW1 5430   3.819   2.224  11.104  0.2293  0.3230 -0.3642
 1141SOL    HW2 5431   3.866   2.125  11.000  1.6793 -1.0524  1.5223
 1142SOL     OW 5432   8.415   8.508   5.001 -0.2069  0.3852  0.0869
 1142SOL    HW1 5433   8.320   8.493   4.996 -0.0908 -0.1677 -0.6083
 1142SOL    HW2 5434   8.446   8.441   5.062 -0.0280 -0.6359 -1.0920
 1143SOL     OW 5435   1.555   2.195   5.100 -0.0487  0.0034  0.1313
 1143SOL    HW1 5436   1.488   2.227   5.160  1.4656  3.0261  0.4151
 1143SOL    HW2 5437   1.555   2.259   5.028  3.1497  0.7948  0.6698
 1144SOL     OW 5438   2.742   5.814   3.829  0.3651  0.5330 -0.1081
 1144SOL    HW1 5439   2.665   5.790   3.881  0.8915  0.0078  0.4295
 1144SOL    HW2 5440   2.733   5.764   3.748 -1.8854  3.3374 -1.7870
 1145SOL     OW 5441   7.684   3.862   7.924  0.1647 -0.0012  0.1761
 1145SOL    HW1 5442   7.753   3.923   7.952  0.7958  0.0141 -1.3298
 1145SOL    HW2 5443   7.731   3.783   7.899 -0.5847 -0.8321  1.2948
 1146SOL     OW 5444   2.776   2.816   1.453 -0.2102  0.5492  0.4142
 1146SOL    HW1 5445   2.857   2.765   1.455 -0.2493  0.4529 -0.1909
 1146SOL    HW2 5446   2.801   2.902   1.485  0.7470  1.3326 -2.2340
 1147SOL     OW 5447   2.593   0.081   5.564 -0.2369 -0.7798 -0.0986
 1147SOL    HW1 5448   2.665   0.033   5.605 -0.5867 -1.1542  0.0881
 1147SOL    HW2 5449   2.527   0.014   5.545 -0.2875 -0.5393 -0.8243
 1148SOL     OW 5450  10.534   8.374   1.679 -0.1701  0.5251  0.0496
 1148SOL    HW1 5451  10.617   8.409   1.646 -0.4693  0.8099 -0.4204
 1148SOL    HW2 5452  10.485   8.351   1.600  0.1870 -1.4120  0.3395
 1149SOL     OW 5453   3.006   1.359   8.561  0.4645 -0.2226  0.0261
 1149SOL    HW1 5454   3.021   1.384   8.470  3.7463 -1.3117  0.1322
 1149SOL    HW2 5455   2.933   1.297   8.557  1.7116 -1.7098 -2.2098
 1150SOL     OW 5456  11.018   0.615   5.301  0.5411  0.0792 -0.0237
 1150SOL    HW1 5457  11.004   0.520   5.302 -0.1021  0.1704  0.3749
 1150SOL    HW2 5458  11.089   0.628   5.239  0.9739 -0.7124  0.2924
 1151SOL     OW 5459   9.759   9.664  10.841  0.4259  0.2063 -0.7464
 1151SOL    HW1 5460   9.852   9.669  10.862  0.1003  0.3591  0.7737
 1151SOL    HW2 5461   9.754   9.604  10.766  1.6606 -0.5703 -0.2386
 1152SOL     OW 5462   5.413   7.830   4.748  0.4054 -0.1445 -0.6187
 1152SOL    HW1 5463   5.334   7.879   4.770  1.6236  1.6653 -0.1389
 1152SOL    HW2 5464   5.418   7.761   4.814  0.5010  1.2196  0.8408
 1153SOL     OW 5465   1.936   3.341   0.464 -0.8913 -0.4648  0.1258
 1153SOL    HW1 5466   2.017   3.363   0.510 -1.3270 -0.7203  1.0278
 1153SOL    HW2 5467   1.890   3.425   0.456 -0.5010 -0.3018 -0.4787
 1154SOL     OW 5468   4.705   6.024   8.624  0.8170  0.5108 -0.5363
 1154SOL    HW1 5469   4.777   6.081   8.651  1.9149 -0.2900 -1.6796
 1154SOL    HW2 5470   4.708   5.951   8.686 -0.2549  1.3861  0.5985
 1155SOL     OW 5471   4.079   3.518   9.069  0.2025  0.0913 -0.6610
 1155SOL    HW1 5472   3.985   3.536   9.063  0.4570  1.3617 -1.0405
 1155SOL    HW2 5473   4.084   3.429   9.105 -1.1752 -0.8958 -2.7064
 1156SOL     OW 5474   3.644   0.840   6.214  0.0084 -0.1702  0.6899
 1156SOL    HW1 5475   3.717   0.811   6.160 -0.3935 -0.4783  0.3030
 1156SOL    HW2 5476   3.567   0.829   6.158 -0.2866  0.5867  0.9299
 1157SOL     OW 5477   1.576   8.525   9.490 -0.0727  0.3081  0.8953
 1157SOL    HW1 5478   1.512   8.458   9.513 -1.9026  1.2985 -0.9857
 1157SOL    HW2 5479   1.538   8.607   9.520  1.3041  0.7363  1.5658
 1158SOL     OW 5480   7.270  10.524   0.607 -0.1320 -0.4563  0.4240
 1158SOL    HW1 5481   7.317  10.567   0.536  1.4200 -1.9963  0.4431
 1158SOL    HW2 5482   7.200  10.475   0.564  0.2365 -0.6542  0.0439
 1159SOL     OW 5483   3.497   5.484   9.173 -0.1545  0.0507  0.3827
 1159SOL    HW1 5484   3.549   5.421   9.123 -0.6485 -0.2449  0.2440
 1159SOL    HW2 5485   3.407   5.453   9.166 -0.6672  1.7074 -1.1664
 1160SOL     OW 5486   1.674   5.332  10.069 -0.0851 -0.1223 -0.6678
 1160SOL    HW1 5487   1.597   5.364  10.117  0.0982 -0.6079 -0.0423
 1160SOL    HW2 5488   1.703   5.255  10.118  0.3917 -0.3509 -1.2946
 1161SOL     OW 5489   8.173   6.288   0.085  0.2393  0.0492 -0.1272
 1161SOL    HW1 5490   8.140   6.273   0.174 -0.6580  1.5227 -0.1968
 1161SOL    HW2 5491   8.204   6.378   0.086 -0.3609  0.2831 -1.4861
 1162SOL     OW 5492   9.201   7.107   2.652  0.2535  0.0187 -0.1014
 1162SOL    HW1 5493   9.185   7.054   2.574 -0.6122 -0.3899  0.3274
 1162SOL    HW2 5494   9.155   7.189   2.635  1.4515  0.5932 -0.6945
 1163SOL     OW 5495   5.028   7.271   3.138  0.4823 -0.1196  0.3248
 1163SOL    HW1 5496   5.000   7.309   3.055  2.5381 -1.2399 -0.9965
 1163SOL    HW2 5497   4.947   7.248   3.183 -0.7213  0.0901 -1.5939
 1164SOL     OW 5498   4.078   6.778   9.316  0.1333  0.5104 -0.3682
 1164SOL    HW1 5499   4.153   6.727   9.284  1.0933  1.9476 -0.4847
 1164SOL    HW2 5500   4.115   6.862   9.340 -1.5908  1.5853 -1.2914
 1165SOL     OW 5501   2.286   5.191   3.701  0.3993 -0.3928  0.8340
 1165SOL    HW1 5502   2.232   5.113   3.692 -1.8452  1.0328  1.2911
 1165SOL    HW2 5503   2.362   5.161   3.753  0.6516 -2.6726 -0.7033
 1166SOL     OW 5504  10.381   9.199   0.120  0.0112 -0.9626  0.0699
 1166SOL    HW1 5505  10.417   9.150   0.046  1.2562 -0.2746  0.1934
 1166SOL    HW2 5506  10.359   9.285   0.083  1.7235 -0.2072  0.7006
 1167SOL     OW 5507   1.153   0.532   9.522  0.3376  0.5739 -0.3083
 1167SOL    HW1 5508   1.093   0.549   9.450  0.1186  0.0163 -0.2681
 1167SOL    HW2 5509   1.168   0.437   9.518 -0.6329  0.3334  1.1041
 1168SOL     OW 5510   2.618   1.417   7.721  0.1293 -0.5758  0.2060
 1168SOL    HW1 5511   2.574   1.351   7.667  1.4570 -2.2859  1.1186
 1168SOL    HW2 5512   2.608   1.385   7.811 -0.2174  1.1268  0.8116
 1169SOL     OW 5513   2.513   0.415   3.205  0.0703  0.0775 -0.4695
 1169SOL    HW1 5514   2.503   0.389   3.113  1.3778 -2.3376 -0.0261
 1169SOL    HW2 5515   2.599   0.458   3.208 -0.1481  0.5151 -0.4391
 1170SOL     OW 5516  10.385   9.920   0.415  0.1926  0.1163 -0.2596
 1170SOL    HW1 5517  10.393  10.014   0.401 -0.9263  0.0096 -1.9350
 1170SOL    HW2 5518  10.436   9.881   0.344  1.7380 -0.6050  1.1567
 1171SOL     OW 5519   2.993   1.436  10.991  0.3856 -0.4728  0.2748
 1171SOL    HW1 5520   3.045   1.517  10.988 -2.5747  1.6359  0.7527
 1171SOL    HW2 5521   3.030   1.381  10.922  3.4091  0.6630  0.8436
 1172SOL     OW 5522   6.253   2.668   1.340 -0.3047  0.4821  0.4532
 1172SOL    HW1 5523   6.260   2.580   1.378 -3.2179  1.9748  5.2833
 1172SOL    HW2 5524   6.344   2.696   1.327  0.7353 -2.3802  0.7701
 1173SOL     OW 5525   8.043   8.849   6.448 -0.7325 -0.2555  0.4602
 1173SOL    HW1 5526   8.080   8.916   6.505 -0.3797 -0.0676  0.0195
 1173SOL    HW2 5527   8.099   8.850   6.370 -0.7932 -0.9801  0.3952
 1174SOL     OW 5528  10.935   6.464   7.072 -0.0088 -0.5064 -0.2784
 1174SOL    HW1 5529  10.999   6.392   7.072 -1.3508 -1.7408 -0.4211
 1174SOL    HW2 5530  10.976   6.533   7.124 -0.0177 -2.6387  2.8047
 1175SOL     OW 5531  10.540   7.693   7.318 -0.3722  0.4703  0.2621
 1175SOL    HW1 5532  10.626   7.650   7.316 -0.6081 -0.0312 -1.3077
 1175SOL    HW2 5533  10.496   7.656   7.395 -0.1909 -1.4204 -0.4779
 1176SOL     OW 5534   1.964   2.140  11.000 -0.2417 -0.0307  0.0132
 1176SOL    HW1 5535   2.042   2.167  11.050 -0.9804 -0.6818  1.5899
 1176SOL    HW2 5536   1.998   2.080  10.934  0.4578 -1.8096  1.8670
 1177SOL     OW 5537   3.035   5.312   0.372  0.0813  0.3661 -0.1328
 1177SOL    HW1 5538   3.119   5.357   0.382  1.6443 -2.2530 -0.6838
 1177SOL    HW2 5539   3.049   5.249   0.302 -3.3401  1.8626 -2.4098
 1178SOL     OW 5540   2.067   4.234   0.434 -0.1405  0.1541 -0.0657
 1178SOL    HW1 5541   2.017   4.188   0.502  0.5727 -2.3508 -1.1155
 1178SOL    HW2 5542   2.096   4.164   0.375  4.2330  1.4708  0.2178
 1179SOL     OW 5543   2.483  10.894   9.285  0.0186  0.1192 -0.5069
 1179SOL    HW1 5544   2.420  10.864   9.220 -0.7777  0.2065  0.2046
 1179SOL    HW2 5545   2.491  10.821   9.347 -0.2489  0.5282  0.0206
 1180SOL     OW 5546   9.426   3.191   9.377  0.3116  0.5298 -0.0497
 1180SOL    HW1 5547   9.333   3.213   9.373 -0.5901 -2.8387 -1.2917
 1180SOL    HW2 5548   9.437   3.148   9.462  0.8880  1.3644  0.3099
 1181SOL     OW 5549   6.157   4.221   9.461  0.1244 -0.5855  0.4813
 1181SOL    HW1 5550   6.096   4.249   9.530  0.5811  1.0899  0.2473
 1181SOL    HW2 5551   6.121   4.259   9.381  0.8083 -0.6326  0.1501
 1182SOL     OW 5552   9.495   5.155   0.378  0.2085 -0.1279  0.4627
 1182SOL    HW1 5553   9.574   5.210   0.369 -0.0518 -0.0287 -1.7681
 1182SOL    HW2 5554   9.528   5.065   0.375  0.3285 -0.0915  0.6548
 1183SOL     OW 5555   6.369   2.998   1.936 -0.0137  0.5942  0.0522
 1183SOL    HW1 5556   6.396   3.055   2.009 -1.0986  0.3736  0.6405
 1183SOL    HW2 5557   6.296   3.045   1.895  0.7943  0.8711 -1.1138
 1184SOL     OW 5558   2.264  10.962   3.712  0.2505  0.2057 -0.0098
 1184SOL    HW1 5559   2.354  10.986   3.690  0.2308 -0.0929 -0.4306
 1184SOL    HW2 5560   2.219  10.957   3.628 -0.7537  2.5782  0.3129
 1185SOL     OW 5561   7.639   1.766   1.705  0.1374 -0.4519  0.2328
 1185SOL    HW1 5562   7.648   1.718   1.787 -0.7854 -0.1625  0.5210
 1185SOL    HW2 5563   7.545   1.784   1.698 -0.3082 -2.9980 -2.3504
 1186SOL     OW 5564   6.181   4.115   2.389 -0.4400  0.0708 -0.4035
 1186SOL    HW1 5565   6.117   4.175   2.352  0.5705  0.6129 -1.3500
 1186SOL    HW2 5566   6.259   4.168   2.402  0.3239 -0.9169 -0.8105
 1187SOL     OW 5567   3.691   8.045   5.865  0.7444  0.4254 -0.0958
 1187SOL    HW1 5568   3.689   7.957   5.902 -0.0418  2.0246  4.1734
 1187SOL    HW2 5569   3.613   8.049   5.809  0.2634 -1.2634  0.4005
 1188SOL     OW 5570   0.175   2.355  10.694 -0.2850 -0.1889 -0.2067
 1188SOL    HW1 5571   0.120   2.316  10.626  1.3601  0.8909 -2.2882
 1188SOL    HW2 5572   0.262   2.319  10.678  0.3134  0.7549  0.7765
 1189SOL     OW 5573   8.999   6.025  10.922 -0.0751  0.0410 -0.2399
 1189SOL    HW1 5574   8.984   6.072  10.840 -0.2875 -0.7859 -0.6888
 1189SOL    HW2 5575   9.064   5.958  10.899 -0.7264 -0.7071  0.0614
 1190SOL     OW 5576   6.545   5.375  10.782  0.5408  0.0893  0.7690
 1190SOL    HW1 5577   6.612   5.391  10.717  0.0466 -0.5436  0.0895
 1190SOL    HW2 5578   6.565   5.288  10.817 -0.5737 -0.6264 -0.2850
 1191SOL     OW 5579   0.860   4.158   3.332  0.2749 -0.2311  0.0314
 1191SOL    HW1 5580   0.818   4.073   3.319  2.2706 -1.0716 -1.6824
 1191SOL    HW2 5581   0.839   4.207   3.253  0.5910  0.1764  0.1961
 1192SOL     OW 5582   8.836  11.043   5.463 -0.3192  0.1370 -0.6680
 1192SOL    HW1 5583   8.767  11.110   5.465 -0.0509  0.4279 -1.1638
 1192SOL    HW2 5584   8.888  11.064   5.386 -0.6281 -1.0460 -1.2129
 1193SOL     OW 5585   5.641   3.185  10.883  0.0413 -0.4499 -0.4816
 1193SOL    HW1 5586   5.735   3.197  10.867  0.5926 -1.8069  1.3736
 1193SOL    HW2 5587   5.603   3.271  10.868  1.5393  0.0771 -1.4917
 1194SOL     OW 5588  10.631   5.892   8.642 -0.0713  0.1631 -0.0931
 1194SOL    HW1 5589  10.548   5.860   8.676 -0.2757 -0.0106 -0.7451
 1194SOL    HW2 5590  10.613   5.982   8.615 -0.5892 -0.4930 -2.0727
 1195SOL     OW 5591   8.444   0.930  10.991  0.0215  0.4102 -0.1916
 1195SOL    HW1 5592   8.459   0.910  10.898 -1.9523  2.1693 -0.9784
 1195SOL    HW2 5593   8.508   0.877  11.037  0.6479 -1.0372 -2.5178
 1196SOL     OW 5594   2.941   7.471   2.390  0.0863 -0.3094 -0.0296
 1196SOL    HW1 5595   2.869   7.534   2.389  1.1881  1.0009 -1.0749
 1196SOL    HW2 5596   2.960   7.454   2.297  2.6243  1.2113  0.1336
 1197SOL     OW 5597  10.796   7.523  10.728 -0.2860 -0.0947  0.3011
 1197SOL    HW1 5598  10.849   7.505  10.805 -0.1437 -1.3090 -0.0483
 1197SOL    HW2 5599  10.712   7.483  10.747  0.2529 -1.8506 -0.7850
 1198SOL     OW 5600  10.594   7.326   0.607  0.4722 -0.0923 -0.0627
 1198SOL    HW1 5601  10.525   7.265   0.581 -1.6752  1.2266  2.0205
 1198SOL    HW2 5602  10.674   7.290   0.571 -1.1891 -2.1523 -1.9712
 1199SOL     OW 5603  11.012   0.224   8.880  0.0210  0.7797 -0.2107
 1199SOL    HW1 5604  11.075   0.280   8.925  0.3609  0.5624 -0.4178
 1199SOL    HW2 5605  11.017   0.251   8.788  0.4432  0.1753 -0.3719
 1200SOL     OW 5606   3.888   8.923   9.554  0.4224 -0.7591  0.0041
 1200SOL    HW1 5607   3.886   8.866   9.630 -0.0424 -0.8410 -0.0647
 1200SOL    HW2 5608   3.975   8.962   9.555  0.1074 -0.0231  1.1278
 1201SOL     OW 5609   4.759   5.706   9.381  0.1677 -0.0684 -0.6477
 1201SOL    HW1 5610   4.753   5.678   9.290  0.9462  0.3124 -0.8228
 1201SOL    HW2 5611   4.722   5.794   9.381 -0.3512 -0.2825 -0.4862
 1202SOL     OW 5612   2.452   4.500   9.611  0.7309 -0.3539 -0.3621
 1202SOL    HW1 5613   2.491   4.433   9.555  0.7855 -1.8102  1.3241
 1202SOL    HW2 5614   2.518   4.518   9.678  0.5724  1.1664 -0.5627
 1203SOL     OW 5615   7.643   0.200   9.657 -0.1134  0.4704 -0.1625
 1203SOL    HW1 5616   7.657   0.115   9.614  3.0420  0.4325  0.6440
 1203SOL    HW2 5617   7.625   0.177   9.748  0.6022  0.6458  0.0267
 1204SOL     OW 5618   8.146   1.556   9.081 -0.4415 -0.6659  0.1428
 1204SOL    HW1 5619   8.117   1.465   9.085 -1.4566 -0.3593  0.0529
 1204SOL    HW2 5620   8.132   1.582   8.990 -2.0238  0.1509  0.5851
 1205SOL     OW 5621   6.344   4.378   4.570 -0.2790 -0.0818 -0.0448
 1205SOL    HW1 5622   6.402   4.439   4.616 -0.5971 -0.0550  0.3333
 1205SOL    HW2 5623   6.316   4.425   4.492  2.1402 -1.0012 -1.5388
 1206SOL     OW 5624   5.466   2.746  10.973 -0.0458 -0.5474  0.1812
 1206SOL    HW1 5625   5.400   2.804  11.010 -0.5405 -0.4880 -0.7640
 1206SOL    HW2 5626   5.544   2.761  11.027 -0.4737  0.1989  0.6124
 1207SOL     OW 5627   3.932   8.759   9.774  0.5078 -0.4417 -0.0484
 1207SOL    HW1 5628   3.904   8.712   9.853  0.3805  1.1385  0.8824
 1207SOL    HW2 5629   3.926   8.694   9.704 -0.7132 -1.4974  0.9964
 1208SOL     OW 5630   4.899   7.759   8.065 -0.2370 -0.8238 -0.1174
 1208SOL    HW1 5631   4.893   7.772   8.160 -1.0147  0.7872 -0.3646
 1208SOL    HW2 5632   4.842   7.825   8.028 -2.4528 -3.4026 -1.6576
 1209SOL     OW 5633   1.377   0.551   6.778  0.0030 -0.3552  0.2117
 1209SOL    HW1 5634   1.313   0.492   6.739 -0.2655 -0.1556  0.3516
 1209SOL    HW2 5635   1.329   0.596   6.848  0.1881  0.0877  0.0548
 1210SOL     OW 5636  10.643   1.844   7.892  0.6943  0.3007  0.1965
 1210SOL    HW1 5637  10.581   1.853   7.820  0.7171  1.0259  0.2561
 1210SOL    HW2 5638  10.612   1.767   7.941  0.9400 -0.4690 -0.8272
 1211SOL     OW 5639  10.488   9.961   5.411  0.7186  0.3980 -0.5827
 1211SOL    HW1 5640  10.474   9.977   5.317 -0.4646  0.8560 -0.3522
 1211SOL    HW2 5641  10.408   9.993   5.452  1.2879  0.3413  0.6063
 1212SOL     OW 5642   7.871  10.021   0.715 -0.6963  0.1778  0.0516
 1212SOL    HW1 5643   7.860  10.113   0.738 -3.3146  0.2704 -1.2372
 1212SOL    HW2 5644   7.907   9.980   0.794 -0.7385  2.0437  1.0882
 1213SOL     OW 5645   2.445   6.146   2.257  0.1744  0.4691  0.3946
 1213SOL    HW1 5646   2.427   6.200   2.180 -3.7253 -0.9014  0.1598
 1213SOL    HW2 5647   2.473   6.062   2.221 -2.2756 -0.3845  0.3199
 1214SOL     OW 5648  10.426   0.223   4.204 -0.5707  0.2113 -0.1226
 1214SOL    HW1 5649  10.397   0.183   4.286  0.8852 -0.2877  0.1701
 1214SOL    HW2 5650  10.397   0.314   4.210 -2.2503 -0.3086  0.0415
 1215SOL     OW 5651  10.660   7.313   8.386 -0.2267 -0.2232 -0.3420
 1215SOL    HW1 5652  10.700   7.346   8.306 -0.5327 -1.5662 -1.0850
 1215SOL    HW2 5653  10.602   7.243   8.357 -0.0674 -0.9967  1.0747
 1216SOL     OW 5654   7.404   1.287   5.470  0.9153 -0.0182 -0.1656
 1216SOL    HW1 5655   7.330   1.278   5.410  1.3522  1.4446 -0.9692
 1216SOL    HW2 5656   7.381   1.361   5.526  2.4513  1.6408 -1.5760
 1217SOL     OW 5657  10.778   6.298   9.287 -0.0004  0.1765 -0.0878
 1217SOL    HW1 5658  10.783   6.382   9.334  0.6010  1.1526 -1.7797
 1217SOL    HW2 5659  10.721   6.244   9.341 -2.3645  2.4703 -0.0346
 1218SOL     OW 5660   2.187   2.628   5.052 -0.4586  0.2271 -0.6563
 1218SOL    HW1 5661   2.177   2.720   5.075 -0.5312 -0.3091  1.7626
 1218SOL    HW2 5662   2.278   2.619   5.027 -0.0103  0.6812  0.7288
 1219SOL     OW 5663   8.085   2.926   7.734  0.4269 -0.3357 -0.2890
 1219SOL    HW1 5664   8.094   2.946   7.827  0.2722 -0.6166 -0.2087
 1219SOL    HW2 5665   8.008   2.869   7.730  2.3685 -3.2062 -0.1301
 1220SOL     OW 5666   9.095   3.499   1.770 -0.1999  0.2070 -0.1059
 1220SOL    HW1 5667   9.026   3.499   1.704  0.7402  0.8607 -1.1329
 1220SOL    HW2 5668   9.117   3.592   1.782 -0.7757  0.1501  1.6067
 1221SOL     OW 5669   3.860  10.934   9.504 -0.1208 -1.0739  0.1682
 1221SOL    HW1 5670   3.798  10.862   9.517  0.0795 -0.9358  2.0218
 1221SOL    HW2 5671   3.938  10.892   9.466 -0.1555 -1.7688  0.8448
 1222SOL     OW 5672   4.487   0.004   1.455  0.0902 -0.0290 -1.0572
 1222SOL    HW1 5673   4.517   0.095   1.446 -0.3270  0.0306 -1.8766
 1222SOL    HW2 5674   4.400   0.003   1.416 -0.7490 -0.3461  0.7249
 1223SOL     OW 5675   2.543   4.353  10.194 -0.2773 -0.2971 -0.7721
 1223SOL    HW1 5676   2.547   4.419  10.264  0.7972  0.6380 -1.6833
 1223SOL    HW2 5677   2.453   4.321  10.197 -1.0869  1.8179 -0.8422
 1224SOL     OW 5678   0.143   1.486   9.966 -0.2201 -0.7174  0.4713
 1224SOL    HW1 5679   0.104   1.409   9.926 -0.5358 -0.0952 -0.4616
 1224SOL    HW2 5680   0.077   1.518  10.026 -1.0344  0.1068 -0.8129
 1225SOL     OW 5681   4.396   7.099   8.121  0.4874 -0.5615 -0.2147
 1225SOL    HW1 5682   4.421   7.160   8.190 -0.7032  0.7716 -0.9061
 1225SOL    HW2 5683   4.479   7.061   8.090  1.4594  1.8626 -0.7858
 1226SOL     OW 5684   0.925   4.400   1.445 -0.8341 -0.2733 -0.0593
 1226SOL    HW1 5685   0.973   4.399   1.528  0.7589  1.6585 -0.8676
 1226SOL    HW2 5686   0.984   4.358   1.382 -1.6449 -0.9013 -0.4244
 1227SOL     OW 5687   1.064   1.828   7.622 -0.2976  0.1746  0.5021
 1227SOL    HW1 5688   1.128   1.778   7.671  0.7138  0.0977 -0.8477
 1227SOL    HW2 5689   1.054   1.910   7.671  1.1897  0.3823  0.5019
 1228SOL     OW 5690   0.947   2.743   9.123  0.5252  0.7906 -0.2691
 1228SOL    HW1 5691   0.882   2.813   9.115  0.6914  0.7638 -2.1395
 1228SOL    HW2 5692   1.029   2.782   9.095  1.8865  1.4093  3.9383
 1229SOL     OW 5693   2.217   7.381   0.014  0.3720 -0.0265 -0.3860
 1229SOL    HW1 5694   2.254   7.294  -0.004  1.9360  0.2085  1.3523
 1229SOL    HW2 5695   2.142   7.364   0.070 -0.0633 -0.3082 -1.0413
 1230SOL     OW 5696   0.131   3.912  10.120 -0.5861 -0.1638  0.1099
 1230SOL    HW1 5697   0.125   4.005  10.098  0.9961  0.0945  0.6684
 1230SOL    HW2 5698   0.059   3.871  10.071  0.7665  0.8325 -2.9737
 1231SOL     OW 5699   1.779   9.906   8.003  0.0344 -0.6240 -0.0842
 1231SOL    HW1 5700   1.854   9.954   7.968 -0.0723  0.0951  0.6196
 1231SOL    HW2 5701   1.702   9.952   7.968 -0.0691 -0.4760  0.3233
 1232SOL     OW 5702   4.461   6.679   8.950 -0.4267  0.0734 -0.0768
 1232SOL    HW1 5703   4.465   6.585   8.938 -0.9844  0.1527 -0.9849
 1232SOL    HW2 5704   4.404   6.710   8.880 -0.6051  1.0371  0.4695
 1233SOL     OW 5705   1.566   3.097   2.372 -0.6372  0.0865 -0.0953
 1233SOL    HW1 5706   1.477   3.090   2.339 -0.2731  1.1573 -1.3833
 1233SOL    HW2 5707   1.559   3.155   2.448 -1.3869 -1.9360  1.4995
 1234SOL     OW 5708   4.685   7.727   8.465  0.0685  0.2338 -0.0831
 1234SOL    HW1 5709   4.742   7.734   8.541 -0.3813  2.9121  0.0971
 1234SOL    HW2 5710   4.728   7.662   8.409  1.5311 -0.2094  1.4611
 1235SOL     OW 5711   9.731   0.020   1.370  0.2569 -0.1236 -0.3080
 1235SOL    HW1 5712   9.718   0.115   1.374  0.4260 -0.0463 -1.3709
 1235SOL    HW2 5713   9.642  -0.015   1.375  0.1862  0.0824 -0.0171
 1236SOL     OW 5714   4.292   6.719   3.487 -0.3709  0.1741  0.2631
 1236SOL    HW1 5715   4.365   6.694   3.429 -0.3498 -0.5956  0.6096
 1236SOL    HW2 5716   4.312   6.809   3.513 -0.3679  0.5400 -0.9079
 1237SOL     OW 5717   4.916   7.671  10.860  0.2005  0.2057  0.0741
 1237SOL    HW1 5718   4.857   7.665  10.935 -0.5965 -0.4867 -0.5870
 1237SOL    HW2 5719   4.990   7.722  10.892 -1.3243  2.2195  0.5462
 1238SOL     OW 5720   0.330   4.096   9.783  0.1944 -0.0007 -0.7209
 1238SOL    HW1 5721   0.414   4.137   9.805 -0.3142  0.8954 -0.3954
 1238SOL    HW2 5722   0.354   4.013   9.741  1.2353  0.1487 -0.4491
 1239SOL     OW 5723   0.011   3.719   9.941  0.0697 -0.4936  0.0898
 1239SOL    HW1 5724   0.069   3.745   9.869 -1.6542 -0.2110 -1.2682
 1239SOL    HW2 5725   0.065   3.663   9.996  2.6951  2.5467  0.8846
 1240SOL     OW 5726   8.924   3.772   3.352  0.2650 -0.1977  0.5315
 1240SOL    HW1 5727   8.940   3.847   3.411  0.7854 -0.7073  1.0634
 1240SOL    HW2 5728   8.854   3.801   3.295  1.2025  1.1231 -0.0138
 1241SOL     OW 5729   2.689   4.719  10.162  0.2753  0.2464 -0.5498
 1241SOL    HW1 5730   2.722   4.698  10.249 -0.0451 -2.2441 -0.9440
 1241SOL    HW2 5731   2.765   4.753  10.115  1.5099 -2.1620 -0.4336
 1242SOL     OW 5732   1.839   6.045   6.700 -0.3271 -0.4501 -0.0742
 1242SOL    HW1 5733   1.799   6.102   6.765  1.3222 -1.1645  1.7103
 1242SOL    HW2 5734   1.841   6.096   6.620 -2.2898  0.5455  0.4588
 1243SOL     OW 5735   2.087   0.288  10.829  0.3601 -0.0617 -0.7314
 1243SOL    HW1 5736   2.029   0.260  10.759 -0.6880  1.4324 -0.5250
 1243SOL    HW2 5737   2.028   0.306  10.903  1.0601  1.4538 -0.4976
 1244SOL     OW 5738   1.251   2.862   1.431  0.1068  0.3455  0.1952
 1244SOL    HW1 5739   1.193   2.787   1.414  0.7028  0.2448 -1.5489
 1244SOL    HW2 5740   1.194   2.938   1.421  0.0539  0.2134 -0.5506
 1245SOL     OW 5741   9.422  10.638   8.223  0.6012 -0.3921  0.6770
 1245SOL    HW1 5742   9.517  10.636   8.207  0.6235  0.1257  0.7362
 1245SOL    HW2 5743   9.412  10.694   8.299  0.4044 -2.0253  1.9239
 1246SOL     OW 5744   9.785   6.808   8.673 -0.4231  0.4503 -1.2089
 1246SOL    HW1 5745   9.692   6.827   8.670 -0.2767  1.1253 -2.1275
 1246SOL    HW2 5746   9.801   6.756   8.594 -0.2139 -0.6319 -0.4672
 1247SOL     OW 5747   0.503   4.067   4.597  0.3201 -0.2229 -0.1256
 1247SOL    HW1 5748   0.566   4.140   4.598 -0.7051  0.7062  1.4551
 1247SOL    HW2 5749   0.424   4.104   4.638 -0.4515 -2.0374  0.0876
 1248SOL     OW 5750   8.238   7.971   6.178 -0.1137  0.6976  0.1368
 1248SOL    HW1 5751   8.233   7.878   6.199 -0.9101  0.2982 -1.6141
 1248SOL    HW2 5752   8.320   7.980   6.130 -1.5572  0.1802 -2.6157
 1249SOL     OW 5753   6.289   5.387   7.553 -0.4054  0.2919  0.3508
 1249SOL    HW1 5754   6.351   5.460   7.556 -1.5423  1.3087 -0.1278
 1249SOL    HW2 5755   6.280   5.367   7.460 -0.1295 -0.4418  0.4784
 1250SOL     OW 5756   4.543   8.032   6.171  0.1317 -0.3593 -0.3997
 1250SOL    HW1 5757   4.566   7.961   6.232  2.4159 -1.7615 -2.6680
 1250SOL    HW2 5758   4.609   8.026   6.102 -2.4892  0.8366 -3.2638
 1251SOL     OW 5759   5.804  10.794   1.981  0.0999 -0.0303  0.1573
 1251SOL    HW1 5760   5.723  10.775   1.933 -0.1651 -0.4653  0.7666
 1251SOL    HW2 5761   5.856  10.713   1.973 -0.9157 -0.9938  2.5265
 1252SOL     OW 5762   3.044   2.051   7.650  0.4646 -1.0540 -0.5234
 1252SOL    HW1 5763   3.075   2.138   7.626  2.4748 -1.1700  1.3261
 1252SOL    HW2 5764   3.061   1.998   7.572 -1.1943  0.2225 -1.8324
 1253SOL     OW 5765   1.107   0.893   0.352 -0.0119 -0.2329  0.2669
 1253SOL    HW1 5766   1.014   0.914   0.341  0.0249 -0.6496 -0.9859
 1253SOL    HW2 5767   1.112   0.798   0.342  0.2515 -0.5797  2.8047
 1254SOL     OW 5768   1.043   1.226   1.691 -0.8174  0.3221  0.6182
 1254SOL    HW1 5769   1.045   1.131   1.684  1.9983  0.4122 -3.1264
 1254SOL    HW2 5770   0.951   1.249   1.684 -1.3716 -2.0999 -1.1477
 1255SOL     OW 5771   0.816  10.922   9.488 -0.3592 -0.1529 -0.0519
 1255SOL    HW1 5772   0.816  10.842   9.541  1.2609 -1.2390 -1.5761
 1255SOL    HW2 5773   0.723  10.937   9.468 -0.6997 -1.7091  0.1988
 1256SOL     OW 5774   8.966  10.953   5.710  0.7713 -0.0682 -0.0232
 1256SOL    HW1 5775   8.918  10.956   5.628 -2.1735  0.6014  1.5648
 1256SOL    HW2 5776   8.942  10.870   5.750 -0.5145  0.9818  1.5337
 1257SOL     OW 5777   6.582   8.554   6.325 -0.3756 -0.0366  0.0742
 1257SOL    HW1 5778   6.589   8.509   6.410 -1.7945 -1.3373 -0.4693
 1257SOL    HW2 5779   6.611   8.489   6.261 -0.4887  0.5296 -0.5582
 1258SOL     OW 5780   0.984   9.898   0.271 -0.0665 -0.2520  0.4757
 1258SOL    HW1 5781   1.010   9.984   0.241  1.8924 -0.5389  1.2398
 1258SOL    HW2 5782   0.895   9.886   0.237  0.0533  1.5925 -0.5566
 1259SOL     OW 5783   7.301   0.298   3.957 -0.1246 -0.4335 -0.4891
 1259SOL    HW1 5784   7.375   0.288   4.018 -0.7206 -1.6645  0.0801
 1259SOL    HW2 5785   7.267   0.386   3.974  0.0467 -0.5647  0.5890
 1260SOL     OW 5786   5.422   7.202   9.246 -0.1261 -0.6981 -0.3327
 1260SOL    HW1 5787   5.470   7.142   9.188 -1.6040 -0.9181 -1.3799
 1260SOL    HW2 5788   5.390   7.145   9.316 -0.0981 -0.8162 -0.4143
 1261SOL     OW 5789   1.179   0.821   0.005 -0.4186 -0.6084 -0.3160
 1261SOL    HW1 5790   1.110   0.806  -0.060 -1.1792 -0.4242  0.4384
 1261SOL    HW2 5791   1.240   0.881  -0.040 -1.6569  0.6622 -0.3983
 1262SOL     OW 5792   5.332   3.796   8.412 -0.1072  0.1797  0.1694
 1262SOL    HW1 5793   5.422   3.781   8.442  0.6933  2.3960 -0.9678
 1262SOL    HW2 5794   5.297   3.861   8.473  0.2016  1.7432 -1.2554
 1263SOL     OW 5795   7.023   5.306   1.430 -0.2271 -0.0036  0.3236
 1263SOL    HW1 5796   6.954   5.343   1.374 -0.4093 -1.2776 -0.3350
 1263SOL    HW2 5797   7.062   5.237   1.377  1.8886  0.9560  0.5197
 1264SOL     OW 5798   6.607   6.358   9.631  0.1437  0.7680 -0.3388
 1264SOL    HW1 5799   6.670   6.411   9.681 -0.8522 -0.0407  1.8886
 1264SOL    HW2 5800   6.536   6.419   9.611 -0.4372  0.6068  1.1473
 1265SOL     OW 5801   7.582   9.987   6.919 -0.0107  0.2758  0.3759
 1265SOL    HW1 5802   7.614  10.075   6.940 -0.6166  0.5048  0.3710
 1265SOL    HW2 5803   7.585   9.940   7.002 -0.4170  0.5397  0.5421
 1266SOL     OW 5804   0.904   0.573  10.555  0.3942  0.0450  0.1895
 1266SOL    HW1 5805   0.860   0.583  10.471  0.0996 -0.7634  0.2433
 1266SOL    HW2 5806   0.943   0.659  10.572 -0.2091  0.4398 -0.3923
 1267SOL     OW 5807   3.655   0.894   8.214 -0.6160 -0.1002 -0.9257
 1267SOL    HW1 5808   3.589   0.845   8.164 -1.8468 -1.0540  1.4945
 1267SOL    HW2 5809   3.648   0.983   8.181 -1.3598 -0.6748 -2.4362
 1268SOL     OW 5810   1.284   7.648   4.581  0.3600  0.0780  0.1654
 1268SOL    HW1 5811   1.218   7.689   4.637 -1.5157 -0.9670 -1.1526
 1268SOL    HW2 5812   1.315   7.719   4.524 -2.1385  0.0037 -1.4351
 1269SOL     OW 5813   9.034   3.180   2.018  0.4834  0.2842 -0.1654
 1269SOL    HW1 5814   9.127   3.203   2.008  1.4101 -0.9555  3.7855
 1269SOL    HW2 5815   8.995   3.257   2.059  0.3973 -0.1359  0.5550
 1270SOL     OW 5816   4.004  10.942  10.906  0.3515 -0.3768 -0.6853
 1270SOL    HW1 5817   3.999  10.907  10.995  4.1453  0.9605  0.2615
 1270SOL    HW2 5818   4.028  10.866  10.852  2.8564 -0.4426  0.3759
 1271SOL     OW 5819   7.582   2.818   6.338 -0.2064  0.1961  0.0591
 1271SOL    HW1 5820   7.626   2.738   6.311  2.0231  0.8835  1.3913
 1271SOL    HW2 5821   7.608   2.883   6.273  0.5184  0.5130  0.6411
 1272SOL     OW 5822   6.865   0.218   6.829  0.2600  0.4502  0.2450
 1272SOL    HW1 5823   6.794   0.156   6.848  0.9204 -0.5205 -0.3520
 1272SOL    HW2 5824   6.873   0.216   6.734  3.0121 -1.7580  0.3825
 1273SOL     OW 5825   2.328  10.161   0.022  0.7502 -0.0164  0.2890
 1273SOL    HW1 5826   2.420  10.137   0.014  0.2778 -2.2783  0.8057
 1273SOL    HW2 5827   2.281  10.077   0.020 -1.5823  1.1613 -2.9056
 1274SOL     OW 5828   2.773   7.158  10.942 -0.6683  0.6590 -0.5785
 1274SOL    HW1 5829   2.790   7.102  11.017  0.9482 -0.0528 -1.4373
 1274SOL    HW2 5830   2.680   7.182  10.950 -1.5008 -2.3198 -0.3072
 1275SOL     OW 5831   6.753   8.600   8.457 -0.3456  0.1907 -0.2316
 1275SOL    HW1 5832   6.732   8.689   8.486 -1.7610 -0.8796  2.3027
 1275SOL    HW2 5833   6.694   8.585   8.383 -1.1617  0.8437  0.2690
 1276SOL     OW 5834   9.510   2.590   7.297  0.3689  0.3878 -1.0305
 1276SOL    HW1 5835   9.421   2.591   7.260  0.1483 -0.4010 -0.5542
 1276SOL    HW2 5836   9.501   2.633   7.382  0.3443 -0.0854 -0.7896
 1277SOL     OW 5837   3.496   4.154   0.846 -0.0170 -0.1374 -0.4416
 1277SOL    HW1 5838   3.412   4.171   0.890  0.3965 -0.0444  0.3327
 1277SOL    HW2 5839   3.479   4.172   0.754 -0.3156  1.9469 -0.0313
 1278SOL     OW 5840   7.695   0.340   9.444  0.0460 -0.0562  0.0170
 1278SOL    HW1 5841   7.635   0.408   9.474  1.3926  0.3957  1.8746
 1278SOL    HW2 5842   7.684   0.269   9.507  1.1835 -0.1035  0.1859
 1279SOL     OW 5843   2.589   2.044   5.838  0.5713  0.1009  0.4265
 1279SOL    HW1 5844   2.658   2.086   5.889 -0.8933  1.5667  1.3160
 1279SOL    HW2 5845   2.555   2.114   5.782 -1.2409 -0.1229  1.1806
 1280SOL     OW 5846   5.873   2.091   9.487 -0.2146  0.5130  0.4776
 1280SOL    HW1 5847   5.931   2.061   9.557  1.9837 -0.0393 -1.4622
 1280SOL    HW2 5848   5.923   2.077   9.407 -3.0626 -0.0453 -1.3573
 1281SOL     OW 5849   8.219   2.230   8.609 -0.5785 -0.2466 -0.0985
 1281SOL    HW1 5850   8.280   2.271   8.548 -1.0286 -0.1488 -0.4812
 1281SOL    HW2 5851   8.236   2.136   8.599 -0.2362 -0.2040  0.0630
 1282SOL     OW 5852   5.493   0.792   9.642  0.2891 -1.0028 -0.6978
 1282SOL    HW1 5853   5.498   0.697   9.627  1.3763 -1.1184  0.2074
 1282SOL    HW2 5854   5.560   0.808   9.709 -0.4951  0.2709 -0.1900
 1283SOL     OW 5855   2.286   7.997   8.925  0.0785 -0.1619  0.2599
 1283SOL    HW1 5856   2.269   7.903   8.932  0.6749 -0.4179 -1.3680
 1283SOL    HW2 5857   2.230   8.026   8.853 -0.5567  0.8792  1.1294
 1284SOL     OW 5858   5.776  10.540   5.641  0.1372 -0.1907  0.4465
 1284SOL    HW1 5859   5.692  10.499   5.663 -0.8593  1.9432  0.9564
 1284SOL    HW2 5860   5.773  10.554   5.547 -0.0523 -0.1782  0.4550
 1285SOL     OW 5861  10.799  10.146   7.330 -0.3080 -0.0890 -0.1956
 1285SOL    HW1 5862  10.826  10.055   7.331 -1.3849 -0.5087  2.7127
 1285SOL    HW2 5863  10.881  10.196   7.333  0.2755 -1.0450  0.0510
 1286SOL     OW 5864   2.835   2.804   4.791  0.2020  0.2811  0.0261
 1286SOL    HW1 5865   2.800   2.757   4.715  0.3919  0.5913 -0.2525
 1286SOL    HW2 5866   2.790   2.765   4.866  0.1039 -0.1091 -0.2349
 1287SOL     OW 5867   4.474   5.820   9.626  0.2314  0.6326 -0.3098
 1287SOL    HW1 5868   4.480   5.793   9.534 -2.0361 -2.8178  0.3531
 1287SOL    HW2 5869   4.406   5.887   9.628 -1.6580 -1.1726 -0.9426
 1288SOL     OW 5870   9.084   5.917   5.534  0.5886  0.7157  0.5697
 1288SOL    HW1 5871   8.989   5.918   5.518  0.6912  1.9666 -0.0483
 1288SOL    HW2 5872   9.092   5.917   5.629 -0.0521  2.3247  0.6525
 1289SOL     OW 5873   4.819   4.718   9.191 -0.7096  0.2529 -0.3711
 1289SOL    HW1 5874   4.831   4.752   9.279  2.1788  0.6419 -0.8267
 1289SOL    HW2 5875   4.777   4.789   9.142 -0.2778  0.8615  0.1455
 1290SOL     OW 5876   2.743   2.811   3.669  0.0665  0.3786  0.1720
 1290SOL    HW1 5877   2.653   2.806   3.636  0.4299  0.7804 -0.9464
 1290SOL    HW2 5878   2.777   2.893   3.633  1.5313 -0.7401 -1.1381
 1291SOL     OW 5879   2.219  10.996   3.440 -0.1153 -0.0472  0.3087
 1291SOL    HW1 5880   2.179  10.978   3.355 -1.1410  0.4448  0.6642
 1291SOL    HW2 5881   2.271  11.075   3.426  0.6102 -0.5886 -0.1164
 1292SOL     OW 5882   8.594   7.311   9.554 -0.6307  0.0453  0.0227
 1292SOL    HW1 5883   8.588   7.216   9.549 -0.9425  0.0229  0.6775
 1292SOL    HW2 5884   8.636   7.329   9.638 -1.6687  0.5025  0.4659
 1293SOL     OW 5885   7.176   4.338   1.749  0.3368 -0.4103  0.6846
 1293SOL    HW1 5886   7.177   4.256   1.700  0.1674  0.2721 -0.4886
 1293SOL    HW2 5887   7.083   4.361   1.755  0.5081  1.0337 -1.3370
 1294SOL     OW 5888   3.069   4.419   7.331 -0.3955 -0.5439  0.0631
 1294SOL    HW1 5889   3.025   4.499   7.302 -0.4062 -0.8488 -0.7960
 1294SOL    HW2 5890   3.124   4.448   7.405 -1.2945  0.0148  0.5305
 1295SOL     OW 5891   6.207   9.968   6.657  0.2258  0.1602 -0.2263
 1295SOL    HW1 5892   6.275   9.942   6.595  0.4957  0.2206  0.0442
 1295SOL    HW2 5893   6.254  10.011   6.728  0.0094 -0.6348  0.4213
 1296SOL     OW 5894   2.335   2.567   7.139 -0.5116 -0.0693  0.4820
 1296SOL    HW1 5895   2.374   2.516   7.067 -0.3290 -0.8396  1.1160
 1296SOL    HW2 5896   2.299   2.502   7.198  0.0411  0.5168  1.4960
 1297SOL     OW 5897   1.632   1.699   4.914 -0.1685 -0.4409  0.3953
 1297SOL    HW1 5898   1.560   1.693   4.851 -0.1588  1.9580  0.0573
 1297SOL    HW2 5899   1.589   1.710   4.999 -0.2981  1.8854  0.0935
 1298SOL     OW 5900   0.493   3.962   8.012 -0.3863 -0.8188 -0.0179
 1298SOL    HW1 5901   0.520   3.909   7.937 -0.1428  0.1128 -0.6039
 1298SOL    HW2 5902   0.437   4.030   7.975  0.5570  0.2644  0.4711
 1299SOL     OW 5903   2.034   1.299   3.724  0.2204  0.0437 -0.1188
 1299SOL    HW1 5904   2.061   1.376   3.674  1.6649 -1.0174 -1.0186
 1299SOL    HW2 5905   1.995   1.336   3.804  2.9713  1.7167  0.5789
 1300SOL     OW 5906   2.032   1.735   4.319 -0.4917  0.8555 -0.1991
 1300SOL    HW1 5907   2.108   1.785   4.350 -0.1452  0.7719 -0.8787
 1300SOL    HW2 5908   2.061   1.644   4.322 -0.9794  0.7235  0.6482
 1301SOL     OW 5909   7.164   0.361   3.323 -0.0151 -0.0941 -0.3094
 1301SOL    HW1 5910   7.116   0.362   3.405 -1.0198 -3.6496 -0.6712
 1301SOL    HW2 5911   7.096   0.366   3.256  0.7319  1.9122 -0.9931
 1302SOL     OW 5912   8.078   2.745   5.592  0.3556 -0.1007  0.1480
 1302SOL    HW1 5913   8.087   2.840   5.585 -0.6172 -0.0590 -0.7938
 1302SOL    HW2 5914   8.001   2.732   5.648 -0.3748 -0.3050 -0.8836
 1303SOL     OW 5915   8.677   2.101   6.298 -0.0882 -0.2509  0.3097
 1303SOL    HW1 5916   8.657   2.076   6.388  1.2061 -0.4585  0.5623
 1303SOL    HW2 5917   8.623   2.179   6.283 -2.2743 -1.6951  0.3492
 1304SOL     OW 5918   2.103   1.103   9.115 -0.3801 -0.0978 -0.1155
 1304SOL    HW1 5919   2.081   1.025   9.065  1.4728 -0.2691 -0.7052
 1304SOL    HW2 5920   2.109   1.173   9.050  2.8879 -0.4852 -0.3665
 1305SOL     OW 5921   6.719   2.572   7.085 -0.6066  0.2262  0.0607
 1305SOL    HW1 5922   6.709   2.493   7.033 -0.1153 -0.1516  0.5281
 1305SOL    HW2 5923   6.632   2.612   7.085 -0.4658  0.6119 -1.6204
 1306SOL     OW 5924   0.937   3.422   7.645 -0.5106  0.5758  0.2364
 1306SOL    HW1 5925   1.022   3.429   7.690 -0.9988 -2.3515  1.9377
 1306SOL    HW2 5926   0.880   3.481   7.693 -0.5648 -1.1477  2.4710
 1307SOL     OW 5927   7.310   0.895   3.674 -0.1736  1.1886 -0.1151
 1307SOL    HW1 5928   7.297   0.981   3.635  0.3256  1.4883  0.3621
 1307SOL    HW2 5929   7.404   0.879   3.669 -0.4715 -0.2516 -2.0702
 1308SOL     OW 5930   2.987   0.671  10.426  0.6691  0.2421  0.3031
 1308SOL    HW1 5931   3.078   0.678  10.397  0.7552 -1.5976 -0.0158
 1308SOL    HW2 5932   2.993   0.646  10.518  0.5637 -1.3831 -0.0920
 1309SOL     OW 5933  10.165   7.432   0.194  0.1607 -0.4960  0.0667
 1309SOL    HW1 5934  10.170   7.346   0.234 -0.3377 -1.6377 -2.1578
 1309SOL    HW2 5935  10.242   7.437   0.137  0.7560  0.9931  0.9265
 1310SOL     OW 5936   4.072   1.059   7.916  0.5482  0.0224 -0.9389
 1310SOL    HW1 5937   4.117   1.036   7.997  1.2531  0.5657 -1.1757
 1310SOL    HW2 5938   4.048   0.974   7.877  1.4299 -0.2685 -0.8538
 1311SOL     OW 5939   5.704  10.174   0.525 -0.1403  0.3964 -0.3169
 1311SOL    HW1 5940   5.662  10.144   0.606  1.5717  1.1999  0.9159
 1311SOL    HW2 5941   5.660  10.124   0.456 -2.5858  0.6472  0.9392
 1312SOL     OW 5942   6.781   9.495   8.141  0.1660 -0.3905 -0.2977
 1312SOL    HW1 5943   6.747   9.572   8.096  0.1014 -0.8428 -1.0290
 1312SOL    HW2 5944   6.808   9.528   8.227  0.2275  0.4642 -0.6341
 1313SOL     OW 5945   1.668   6.612   5.800  0.0693 -0.2022 -0.0259
 1313SOL    HW1 5946   1.729   6.584   5.732  0.8448  0.3749  0.4084
 1313SOL    HW2 5947   1.716   6.678   5.849 -0.0306 -1.4477  1.8362
 1314SOL     OW 5948   1.444   9.075   2.957 -0.3683 -0.4931  0.6331
 1314SOL    HW1 5949   1.476   8.991   2.926  0.0883 -0.0818 -0.0370
 1314SOL    HW2 5950   1.420   9.123   2.877  0.2796  0.3622  0.9371
 1315SOL     OW 5951   3.006   0.734   9.161  0.1304 -0.1198 -0.5665
 1315SOL    HW1 5952   3.063   0.668   9.122  0.3071 -0.5290  0.3565
 1315SOL    HW2 5953   2.964   0.689   9.235 -1.2864  0.2102 -1.1269
 1316SOL     OW 5954   4.766   6.845   7.782  0.0948 -0.3204 -0.0573
 1316SOL    HW1 5955   4.845   6.795   7.762 -0.0034 -0.4346 -0.1684
 1316SOL    HW2 5956   4.707   6.825   7.709 -0.2961 -0.7903  0.3867
 1317SOL     OW 5957   0.530   9.278   0.534  0.4308 -0.2586  0.0496
 1317SOL    HW1 5958   0.464   9.337   0.497 -0.2793 -0.0515  1.5688
 1317SOL    HW2 5959   0.591   9.337   0.579 -2.2182 -0.6222  4.7386
 1318SOL     OW 5960   2.757   5.352   1.451  0.1318 -0.0933 -0.1815
 1318SOL    HW1 5961   2.731   5.428   1.503  3.1150 -0.4515  2.1150
 1318SOL    HW2 5962   2.725   5.277   1.501 -2.0332 -0.4779 -1.9880
 1319SOL     OW 5963   3.235  10.951   2.330 -0.2595 -0.5100 -0.6054
 1319SOL    HW1 5964   3.262  10.966   2.239  0.7574  0.6669 -0.1516
 1319SOL    HW2 5965   3.305  10.992   2.382 -1.7790  0.6026  0.6735
 1320SOL     OW 5966   1.752   6.435   7.708 -0.4975 -0.0315  0.0551
 1320SOL    HW1 5967   1.697   6.401   7.637  0.3663 -1.6207  0.1028
 1320SOL    HW2 5968   1.699   6.423   7.787 -0.6556 -0.2130 -0.0770
 1321SOL     OW 5969   9.115   6.361  10.259 -0.3564 -0.0096  0.4130
 1321SOL    HW1 5970   9.132   6.398  10.172 -1.1253  0.2580  0.3703
 1321SOL    HW2 5971   9.173   6.410  10.318  0.2597 -0.2809  0.0345
 1322SOL     OW 5972   0.155   6.539   4.813 -0.0114  0.5163  0.2186
 1322SOL    HW1 5973   0.135   6.561   4.722 -0.1664 -0.7969 -0.0781
 1322SOL    HW2 5974   0.247   6.512   4.811 -0.1067  0.1773  0.3894
 1323SOL     OW 5975   1.164   3.803   3.569 -0.0786  0.2997 -0.4159
 1323SOL    HW1 5976   1.170   3.709   3.587 -1.2612  0.3829  0.5162
 1323SOL    HW2 5977   1.224   3.843   3.632 -2.0399  0.3729  1.5154
 1324SOL     OW 5978   0.267   8.833   1.320  0.3324  0.5020 -0.0654
 1324SOL    HW1 5979   0.259   8.797   1.232  2.1577  0.2502 -0.1773
 1324SOL    HW2 5980   0.362   8.843   1.333  0.0501  1.6251  1.4302
 1325SOL     OW 5981   3.209  10.322   8.612  1.1286  0.4406  0.0144
 1325SOL    HW1 5982   3.209  10.353   8.521  1.2821 -0.0103 -0.1441
 1325SOL    HW2 5983   3.161  10.239   8.609  0.4514  0.8106  0.4886
 1326SOL     OW 5984   7.600   9.302   6.491 -0.2958 -1.0301 -0.2835
 1326SOL    HW1 5985   7.533   9.285   6.425 -2.1286 -1.2425  1.5616
 1326SOL    HW2 5986   7.601   9.398   6.501  1.2966 -0.8310 -1.8614
 1327SOL     OW 5987   2.718   4.546   2.600 -0.6790  0.5314 -0.2493
 1327SOL    HW1 5988   2.636   4.579   2.638 -0.6880  0.8080 -0.5039
 1327SOL    HW2 5989   2.774   4.623   2.593 -0.0745  0.1953  0.7131
 1328SOL     OW 5990   2.599   3.957   6.575 -0.2286  0.3320 -0.0813
 1328SOL    HW1 5991   2.659   3.884   6.589  1.0218  1.6331  1.8051
 1328SOL    HW2 5992   2.565   3.943   6.486  0.6845 -1.9850 -0.1373
 1329SOL     OW 5993   3.165   2.762   4.329 -0.8195 -0.0838  0.1560
 1329SOL    HW1 5994   3.248   2.790   4.291  0.0013 -1.2001  1.0513
 1329SOL    HW2 5995   3.145   2.830   4.394  0.0519 -0.4383  0.8165
 1330SOL     OW 5996   3.020   9.619   5.158  0.8975 -0.2741  0.1757
 1330SOL    HW1 5997   3.021   9.631   5.253 -0.0059 -0.4762  0.2153
 1330SOL    HW2 5998   3.065   9.536   5.144 -0.6528 -1.2349  0.5993
 1331SOL     OW 5999   0.186   7.017   5.436  0.0816 -0.1046  0.4750
 1331SOL    HW1 6000   0.280   7.024   5.419 -0.1110  2.1666  0.0901
 1331SOL    HW2 6001   0.170   7.077   5.509 -1.3419  1.0599 -0.7445
 1332SOL     OW 6002   4.173   7.964   1.511  0.1655 -0.0313  0.0069
 1332SOL    HW1 6003   4.261   7.998   1.492  0.3297 -1.0065 -1.1151
 1332SOL    HW2 6004   4.116   8.013   1.452 -0.5310  2.6207  2.6431
 1333SOL     OW 6005   5.034   9.279  10.698 -0.1880  0.5909 -1.0155
 1333SOL    HW1 6006   4.991   9.262  10.782  1.6826 -0.1487 -0.1514
 1333SOL    HW2 6007   4.968   9.326  10.646 -2.2588 -1.1213 -0.0608
 1334SOL     OW 6008   3.807   2.647   6.224  0.8214  0.2683 -0.3137
 1334SOL    HW1 6009   3.733   2.587   6.227  0.0919  1.2014  2.0791
 1334SOL    HW2 6010   3.881   2.592   6.198 -0.7656 -0.5024 -3.7394
 1335SOL     OW 6011   2.930   5.085   4.239  0.1569 -0.1738  0.0938
 1335SOL    HW1 6012   2.932   5.172   4.278 -1.3420  0.3975 -0.9903
 1335SOL    HW2 6013   2.854   5.042   4.280  1.3424 -1.2994  1.2057
 1336SOL     OW 6014   3.468   0.007   2.775  0.2056 -0.0026 -0.2300
 1336SOL    HW1 6015   3.413   0.081   2.802 -0.7493 -0.5105 -0.7175
 1336SOL    HW2 6016   3.522   0.042   2.705  0.7955  0.6087  0.5102
 1337SOL     OW 6017   0.320   3.760   1.147  0.0482 -0.2405 -0.8992
 1337SOL    HW1 6018   0.319   3.832   1.085 -0.0011  0.8298  0.2954
 1337SOL    HW2 6019   0.247   3.779   1.207  1.0760 -0.3400  0.4425
 1338SOL     OW 6020   2.992   2.709  10.014  0.3212 -0.2234  0.2679
 1338SOL    HW1 6021   2.965   2.790  10.057  1.1078 -0.4324  1.1993
 1338SOL    HW2 6022   2.999   2.732   9.922  0.5795  0.7914  0.5280
 1339SOL     OW 6023   4.277   1.610  10.420 -0.5224 -0.0720 -0.1178
 1339SOL    HW1 6024   4.290   1.684  10.361  0.0623 -0.3115 -0.3042
 1339SOL    HW2 6025   4.260   1.536  10.362  0.5519 -0.4127 -0.0346
 1340SOL     OW 6026   5.698   5.699   6.816 -0.8684  0.8605  0.0747
 1340SOL    HW1 6027   5.710   5.781   6.767 -1.7201  1.4128  0.7527
 1340SOL    HW2 6028   5.787   5.666   6.830 -0.5752  0.7923 -1.6226
 1341SOL     OW 6029   4.147   5.432   9.413 -0.0569  0.0658  0.3809
 1341SOL    HW1 6030   4.147   5.526   9.398  3.0579  0.2520  0.9961
 1341SOL    HW2 6031   4.124   5.422   9.506 -2.3300  0.0230 -0.1362
 1342SOL     OW 6032  10.192   6.562   8.528 -0.7378  0.8507  0.0979
 1342SOL    HW1 6033  10.209   6.574   8.621 -0.0605 -0.1132  0.1136
 1342SOL    HW2 6034  10.262   6.504   8.497 -2.2408 -0.7690 -0.4869
 1343SOL     OW 6035   8.452   5.850   5.476 -0.2614 -0.2695  0.3330
 1343SOL    HW1 6036   8.502   5.795   5.537  1.6284 -0.3349 -1.1564
 1343SOL    HW2 6037   8.401   5.908   5.532  3.9053  2.0315  2.1962
 1344SOL     OW 6038   5.994   1.320   0.118  0.0167 -0.5692  0.0051
 1344SOL    HW1 6039   5.951   1.293   0.199 -0.2657  2.3305  0.9448
 1344SOL    HW2 6040   6.032   1.405   0.139  1.1331 -0.3514 -2.5432
 1345SOL     OW 6041   9.231  10.677  10.238  1.0829  0.4361  0.4053
 1345SOL    HW1 6042   9.252  10.762  10.277  3.1066  0.1285  0.0801
 1345SOL    HW2 6043   9.196  10.626  10.311  2.9683  0.5081  1.4027
 1346SOL     OW 6044   4.312   9.621   1.558  0.0268  0.2320 -0.5551
 1346SOL    HW1 6045   4.333   9.700   1.507 -2.3875  0.8660 -0.6754
 1346SOL    HW2 6046   4.248   9.650   1.622  1.4380 -1.0197  1.5462
 1347SOL     OW 6047   4.535   5.400   0.641  0.1923  0.1024 -0.1622
 1347SOL    HW1 6048   4.455   5.375   0.595  0.7642  0.1020 -1.1803
 1347SOL    HW2 6049   4.604   5.349   0.599  0.8535  0.7305  0.1352
 1348SOL     OW 6050   8.821   9.366   4.771  0.1771  0.3138 -0.4788
 1348SOL    HW1 6051   8.911   9.384   4.743  0.1371 -2.3424 -2.8691
 1348SOL    HW2 6052   8.821   9.273   4.795 -1.8229  0.3638 -0.0707
 1349SOL     OW 6053   4.350   0.248   0.939 -0.1214  0.3246  0.4501
 1349SOL    HW1 6054   4.312   0.321   0.989  0.7182  0.7831  0.4398
 1349SOL    HW2 6055   4.431   0.227   0.986  0.8622  0.9919 -0.8971
 1350SOL     OW 6056   5.977   0.108   3.274  0.2650  0.1364 -0.5680
 1350SOL    HW1 6057   6.057   0.116   3.326  0.4828 -0.6272 -0.7749
 1350SOL    HW2 6058   5.941   0.023   3.298 -0.8467  0.7430  0.0038
 1351SOL     OW 6059   4.135   5.880   3.542  0.2304  0.2856  0.1277
 1351SOL    HW1 6060   4.049   5.913   3.568 -0.8296 -1.7859 -0.5055
 1351SOL    HW2 6061   4.142   5.904   3.450  1.0726  1.8372  0.5647
 1352SOL     OW 6062   0.993   0.835   9.285 -0.5338  0.4002 -0.5943
 1352SOL    HW1 6063   1.077   0.829   9.240 -1.0983 -0.0470 -1.6242
 1352SOL    HW2 6064   0.972   0.744   9.309  0.5084  0.7822  2.0536
 1353SOL     OW 6065   7.752   3.617   6.010 -0.1451  0.6682 -0.1365
 1353SOL    HW1 6066   7.748   3.678   5.937  0.6869 -0.5434 -1.2314
 1353SOL    HW2 6067   7.680   3.643   6.067 -0.2960  2.1551 -0.9709
 1354SOL     OW 6068   5.345   9.911   2.154 -0.4154 -0.4045  0.3695
 1354SOL    HW1 6069   5.340   9.966   2.076 -0.6353 -1.1465 -0.1506
 1354SOL    HW2 6070   5.267   9.934   2.205 -0.8888 -0.7418 -0.1929
 1355SOL     OW 6071   7.041   4.292   9.134  0.0220 -0.2085 -1.1438
 1355SOL    HW1 6072   6.973   4.353   9.161  1.4467  1.5318 -1.2799
 1355SOL    HW2 6073   7.112   4.304   9.197  1.1928 -0.1141 -2.4090
 1356SOL     OW 6074  10.761   8.865   6.134  0.4609 -0.0762 -0.4167
 1356SOL    HW1 6075  10.681   8.875   6.083  0.6753 -1.5225 -1.0947
 1356SOL    HW2 6076  10.832   8.876   6.070  0.7825  0.3424  0.0084
 1357SOL     OW 6077   0.613   0.342   1.828 -0.2328 -0.1938  0.5762
 1357SOL    HW1 6078   0.608   0.249   1.806  2.4183  0.2612 -2.7326
 1357SOL    HW2 6079   0.530   0.378   1.799 -0.2764 -1.1543 -0.5674
 1358SOL     OW 6080  10.060   3.473   4.833  0.5657  0.1102  0.4665
 1358SOL    HW1 6081  10.105   3.497   4.914  0.6496 -0.0125  0.4565
 1358SOL    HW2 6082   9.989   3.536   4.825  1.0377  0.6162  0.2220
 1359SOL     OW 6083   0.694   0.940   9.610  0.1212 -0.1233 -0.1595
 1359SOL    HW1 6084   0.653   1.002   9.670  0.1476  1.2042 -1.4353
 1359SOL    HW2 6085   0.787   0.965   9.610 -0.0525  0.6550 -1.5468
 1360SOL     OW 6086  10.503   6.122   4.084 -0.0729 -0.1727  0.4986
 1360SOL    HW1 6087  10.439   6.117   4.013 -0.3141  0.0335  0.6990
 1360SOL    HW2 6088  10.462   6.178   4.150  0.6526  0.6459  0.2793
 1361SOL     OW 6089   2.705   3.915   8.033 -0.3021 -0.0939 -0.3315
 1361SOL    HW1 6090   2.706   3.944   7.942  0.3170 -0.7400 -0.5323
 1361SOL    HW2 6091   2.760   3.978   8.079  0.1200 -0.2941 -0.5638
 1362SOL     OW 6092   5.648   7.026   3.143  0.4184  0.2895 -0.5168
 1362SOL    HW1 6093   5.554   7.034   3.158  0.3323 -1.2630 -0.0282
 1362SOL    HW2 6094   5.682   7.115   3.151 -1.0086  0.8768 -0.7508
 1363SOL     OW 6095   7.715   4.129   4.160 -0.2425 -0.1568 -0.2954
 1363SOL    HW1 6096   7.719   4.201   4.097  0.8090  2.0748  2.1157
 1363SOL    HW2 6097   7.671   4.167   4.236 -0.7955 -2.4976  0.6224
 1364SOL     OW 6098   4.604   0.705   0.959  0.0600  0.8664  0.0735
 1364SOL    HW1 6099   4.590   0.628   1.014 -2.2216  1.4273  0.3741
 1364SOL    HW2 6100   4.665   0.676   0.892 -0.8829 -1.2731  0.0592
 1365SOL     OW 6101   8.559  10.276   3.973  0.2764 -0.1949 -0.0392
 1365SOL    HW1 6102   8.510  10.253   4.052  2.7758 -1.9291  1.1112
 1365SOL    HW2 6103   8.556  10.372   3.971  0.4411 -0.0694  2.3698
 1366SOL     OW 6104  10.455   3.292   4.634 -0.2907  0.3963  0.5029
 1366SOL    HW1 6105  10.379   3.280   4.692 -0.6318  1.1604  0.2288
 1366SOL    HW2 6106  10.479   3.384   4.645 -0.6841  0.6945 -0.9548
 1367SOL     OW 6107  10.923   0.448   6.834  0.2346  0.0021 -0.7218
 1367SOL    HW1 6108  10.962   0.368   6.868  0.4450 -0.7297 -2.5599
 1367SOL    HW2 6109  10.991   0.514   6.845 -0.1238  0.0900  1.2733
 1368SOL     OW 6110   1.617   8.060  10.428 -0.5282 -0.3141 -0.0710
 1368SOL    HW1 6111   1.539   8.005  10.432 -1.3272  0.8357  0.6525
 1368SOL    HW2 6112   1.588   8.140  10.383 -0.4022  1.0500  2.1086
 1369SOL     OW 6113   3.493  10.622   8.535 -0.0990 -0.5637  0.1095
 1369SOL    HW1 6114   3.514  10.655   8.448 -0.6044 -0.7150 -0.0756
 1369SOL    HW2 6115   3.411  10.665   8.559  0.5548  0.2558  0.9492
 1370SOL     OW 6116   3.055   0.389   6.206 -0.2363 -0.3912  0.3604
 1370SOL    HW1 6117   3.003   0.464   6.236  0.8711  0.2089  0.8653
 1370SOL    HW2 6118   3.059   0.331   6.282  0.3831 -0.1140  0.5453
 1371SOL     OW 6119   9.225   8.434   8.871 -0.3380 -0.3912 -0.2491
 1371SOL    HW1 6120   9.272   8.510   8.835  2.5122 -2.8113 -2.0801
 1371SOL    HW2 6121   9.152   8.421   8.810 -0.0974  0.1413 -0.6659
 1372SOL     OW 6122   3.331  10.688   5.742 -0.0275 -0.0595  0.0404
 1372SOL    HW1 6123   3.316  10.727   5.656  1.5276  0.3589 -0.0661
 1372SOL    HW2 6124   3.421  10.658   5.740  0.2194  0.4501  1.7079
 1373SOL     OW 6125   0.560   3.441   9.342  0.0888  0.7517  0.0455
 1373SOL    HW1 6126   0.601   3.360   9.311  0.7061  1.3087 -0.6184
 1373SOL    HW2 6127   0.473   3.441   9.303  0.5259  0.9923 -0.9608
 1374SOL     OW 6128   5.283   4.993   9.144 -0.1215  0.2005 -1.0749
 1374SOL    HW1 6129   5.193   4.971   9.121 -0.8841  2.3467 -0.4003
 1374SOL    HW2 6130   5.293   4.964   9.234  0.3349 -1.2448 -1.5671
 1375SOL     OW 6131   6.359   9.563  10.320  0.1810 -0.0391  0.1977
 1375SOL    HW1 6132   6.373   9.501  10.392 -1.3598 -0.3787  0.2518
 1375SOL    HW2 6133   6.374   9.511  10.240  1.8496  0.3277  0.2440
 1376SOL     OW 6134   1.454   9.176  10.640 -0.2409 -0.2565 -0.6913
 1376SOL    HW1 6135   1.399   9.113  10.593 -1.0526  0.0073 -0.1023
 1376SOL    HW2 6136   1.489   9.126  10.714 -0.2894 -0.2116 -0.6390
 1377SOL     OW 6137   1.306   5.467   8.562 -0.3615 -0.6345 -0.4658
 1377SOL    HW1 6138   1.213   5.487   8.572  0.2902  1.6738  2.4916
 1377SOL    HW2 6139   1.318   5.384   8.608 -0.7885 -0.2359  0.3945
 1378SOL     OW 6140   9.495   9.226   8.115 -0.0096 -0.3795  0.1513
 1378SOL    HW1 6141   9.527   9.234   8.205 -0.9783  2.7837  0.3141
 1378SOL    HW2 6142   9.546   9.290   8.065 -0.4013 -1.1603 -1.3280
 1379SOL     OW 6143  10.992   7.165   5.668  0.0181  0.4214 -0.5952
 1379SOL    HW1 6144  11.000   7.258   5.690  0.6937 -0.1617  2.0670
 1379SOL    HW2 6145  11.083   7.136   5.655 -0.1833  0.1250 -1.3583
 1380SOL     OW 6146   9.295   3.935   4.829  0.2102  0.0693  1.0746
 1380SOL    HW1 6147   9.373   3.986   4.810  0.4074  0.2193  2.2359
 1380SOL    HW2 6148   9.228   3.999   4.852 -0.3372 -0.0440 -0.0800
 1381SOL     OW 6149   6.360   7.228   1.464  0.1359 -0.5428 -0.1532
 1381SOL    HW1 6150   6.384   7.320   1.462  0.0921 -0.5287 -0.0159
 1381SOL    HW2 6151   6.402   7.193   1.542  0.5152 -0.7390 -0.4420
 1382SOL     OW 6152   3.466   9.124  10.000 -0.2821  0.1399  0.1307
 1382SOL    HW1 6153   3.411   9.202  10.010 -0.5037 -0.1100  0.9619
 1382SOL    HW2 6154   3.555   9.159   9.991 -0.3382  0.4891  0.8215
 1383SOL     OW 6155  10.599   4.347   7.765  0.1359 -0.2999 -0.1885
 1383SOL    HW1 6156  10.692   4.325   7.772  0.4391  0.9391 -0.0324
 1383SOL    HW2 6157  10.584   4.410   7.835 -0.7714 -0.3244 -0.3487
 1384SOL     OW 6158   7.557   6.589   0.747 -0.6643  0.0394  0.0320
 1384SOL    HW1 6159   7.520   6.663   0.796 -2.6134  0.1922 -1.5180
 1384SOL    HW2 6160   7.627   6.555   0.803 -1.0535  1.7967  1.6908
 1385SOL     OW 6161   2.895   4.679   7.362  0.7178  0.5020 -0.1804
 1385SOL    HW1 6162   2.953   4.710   7.432  0.9772  0.1271 -0.2296
 1385SOL    HW2 6163   2.839   4.614   7.404  1.4099 -0.3156 -0.4968
 1386SOL     OW 6164  10.258   8.036   1.637 -0.5061  0.7780  0.4536
 1386SOL    HW1 6165  10.254   7.998   1.725  1.4572 -1.4734 -0.2926
 1386SOL    HW2 6166  10.267   8.130   1.652 -1.7500  0.6326  2.5749
 1387SOL     OW 6167   1.047   0.155   3.176 -0.0361 -0.2243  0.1255
 1387SOL    HW1 6168   1.044   0.110   3.091 -1.5474 -0.4848  0.2853
 1387SOL    HW2 6169   1.102   0.231   3.161  0.1845 -0.5710 -0.9367
 1388SOL     OW 6170   5.386   1.172   9.767 -0.4365  0.2130  0.3929
 1388SOL    HW1 6171   5.393   1.238   9.698  2.4332 -1.6378 -1.2865
 1388SOL    HW2 6172   5.304   1.127   9.749 -0.7141  1.0820 -0.5811
 1389SOL     OW 6173   0.237   2.191   3.963 -0.1359 -0.5230  0.4708
 1389SOL    HW1 6174   0.193   2.158   3.885  1.4961  1.3547 -1.3644
 1389SOL    HW2 6175   0.210   2.283   3.969  1.4780 -0.0389  0.8099
 1390SOL     OW 6176   6.155   6.946   1.679  0.0178 -0.4618  0.3155
 1390SOL    HW1 6177   6.136   6.862   1.638  1.2080 -0.4899 -0.2358
 1390SOL    HW2 6178   6.107   7.010   1.626 -0.3505 -0.7302  0.3257
 1391SOL     OW 6179   3.795   3.788   2.637 -0.1349  0.6166  0.0954
 1391SOL    HW1 6180   3.787   3.834   2.721  1.0803  0.7053  0.1889
 1391SOL    HW2 6181   3.795   3.858   2.571 -1.9681  0.4999 -0.0848
 1392SOL     OW 6182   5.263   8.339   8.803 -0.4130 -0.7106 -0.3345
 1392SOL    HW1 6183   5.182   8.347   8.753 -2.4047 -0.6725  2.6082
 1392SOL    HW2 6184   5.254   8.405   8.872  1.1425 -2.1291  1.3017
 1393SOL     OW 6185   7.835   1.060  10.709 -0.3670 -0.3554  0.3807
 1393SOL    HW1 6186   7.741   1.042  10.716 -0.3126 -0.5488  0.5923
 1393SOL    HW2 6187   7.851   1.062  10.614 -0.2194 -2.2009  0.3405
 1394SOL     OW 6188   7.427   7.134   5.599  0.3790 -0.0618 -0.3978
 1394SOL    HW1 6189   7.463   7.166   5.516  5.3495  0.2360  1.5842
 1394SOL    HW2 6190   7.453   7.042   5.603  0.0366 -0.1263  0.7477
 1395SOL     OW 6191   0.944   1.638   4.355 -0.0876 -0.1677  0.3564
 1395SOL    HW1 6192   0.901   1.676   4.278 -0.2085  0.4172  0.7035
 1395SOL    HW2 6193   0.874   1.594   4.403  0.3565 -2.5282 -1.0043
 1396SOL     OW 6194   9.509   4.832   2.000 -0.5567  0.2750  0.5628
 1396SOL    HW1 6195   9.451   4.815   1.926  1.0941 -0.3041 -0.6715
 1396SOL    HW2 6196   9.497   4.757   2.058  0.0432 -0.6004 -0.4235
 1397SOL     OW 6197  10.279   3.444   7.987 -0.1866  0.1936  0.5863
 1397SOL    HW1 6198  10.331   3.369   8.017  1.3031  0.9177 -0.1062
 1397SOL    HW2 6199  10.230   3.471   8.065 -0.3861 -1.1681  0.9739
 1398SOL     OW 6200  10.280   9.339   3.445  0.5956 -0.6131  0.4024
 1398SOL    HW1 6201  10.324   9.342   3.530  0.3598 -0.1444  0.5135
 1398SOL    HW2 6202  10.199   9.290   3.461  0.4156 -0.2856  0.5181
 1399SOL     OW 6203   0.291   2.831   8.052  0.2284  0.1402  0.4067
 1399SOL    HW1 6204   0.309   2.787   8.136  2.3296 -1.4295 -0.7475
 1399SOL    HW2 6205   0.306   2.924   8.070 -0.9918  0.0416  2.1369
 1400SOL     OW 6206  10.459   3.430  10.558 -0.5145 -0.2339  0.6540
 1400SOL    HW1 6207  10.500   3.343  10.565  0.2354 -0.0481 -0.9651
 1400SOL    HW2 6208  10.365   3.411  10.550 -0.3789 -0.8854  0.4960
 1401SOL     OW 6209   2.363   8.428   0.585 -0.1133  0.3840 -0.5736
 1401SOL    HW1 6210   2.359   8.386   0.500 -0.3253 -2.5096  0.7372
 1401SOL    HW2 6211   2.272   8.433   0.613  0.1058 -1.7963  0.7799
 1402SOL     OW 6212   6.608  10.774  10.128 -0.2246  0.4355 -0.1097
 1402SOL    HW1 6213   6.629  10.867  10.125 -5.1610  1.8521 -0.7958
 1402SOL    HW2 6214   6.552  10.765  10.206 -1.6835 -1.3610 -1.2846
 1403SOL     OW 6215   0.284   7.917  10.081 -0.2513  0.0192 -0.6250
 1403SOL    HW1 6216   0.270   7.959  10.166  1.7230  0.3330 -0.3960
 1403SOL    HW2 6217   0.264   7.825  10.095 -0.6610  0.1958 -0.0233
 1404SOL     OW 6218   0.954  10.091   4.810 -0.2973  0.2178  0.2451
 1404SOL    HW1 6219   0.954  10.049   4.896 -1.1704 -0.4744 -0.0799
 1404SOL    HW2 6220   0.900  10.169   4.821  1.1886  1.2207  0.8058
 1405SOL     OW 6221   4.486   7.171   7.492  0.3427  0.0959 -0.6475
 1405SOL    HW1 6222   4.569   7.153   7.536 -0.4028  0.8628  1.1828
 1405SOL    HW2 6223   4.420   7.164   7.562 -1.0342  0.3716 -1.8685
 1406SOL     OW 6224   1.505  10.076  10.861 -0.2039 -0.3180 -0.6258
 1406SOL    HW1 6225   1.419  10.105  10.831 -0.1948 -0.2406 -0.5773
 1406SOL    HW2 6226   1.515   9.988  10.824 -0.3421 -0.3626 -0.5574
 1407SOL     OW 6227   9.463   8.254   9.254 -0.3252 -0.4566 -0.3329
 1407SOL    HW1 6228   9.461   8.315   9.180 -1.1260  1.3061  1.0752
 1407SOL    HW2 6229   9.398   8.187   9.232 -0.0198 -0.3894 -1.5342
 1408SOL     OW 6230   7.589   9.246   8.571  0.1128 -0.0862  0.3213
 1408SOL    HW1 6231   7.657   9.198   8.523  0.2759 -0.8286  1.2669
 1408SOL    HW2 6232   7.605   9.338   8.549 -0.2108 -0.4375 -1.5349
 1409SOL     OW 6233   4.440   1.237   2.212 -0.2720 -0.1480 -0.4845
 1409SOL    HW1 6234   4.347   1.215   2.205 -0.5209  0.6949  0.1165
 1409SOL    HW2 6235   4.485   1.153   2.199 -1.0843 -0.4718 -1.3139
 1410SOL     OW 6236   0.262   2.380   0.381 -0.0492  0.1620  0.1013
 1410SOL    HW1 6237   0.241   2.365   0.289  0.1143  0.6056 -0.0099
 1410SOL    HW2 6238   0.181   2.362   0.428  0.0251 -0.6455 -0.0678
 1411SOL     OW 6239   9.407   1.407   5.468 -0.2020  0.2044  0.3910
 1411SOL    HW1 6240   9.481   1.390   5.409  0.2424  0.9612  0.7023
 1411SOL    HW2 6241   9.375   1.493   5.441  1.7416  1.8783  2.9128
 1412SOL     OW 6242   3.111   6.510   8.482 -0.4567  0.5627  0.1873
 1412SOL    HW1 6243   3.161   6.537   8.558 -1.3695  1.9578  0.3347
 1412SOL    HW2 6244   3.063   6.432   8.511 -0.5535  0.8978  0.9509
 1413SOL     OW 6245   0.745   0.040  10.623  0.2331 -0.0189 -0.6106
 1413SOL    HW1 6246   0.791  -0.042  10.645 -0.7209 -1.6683 -3.9765
 1413SOL    HW2 6247   0.804   0.083  10.561 -0.5686  0.3174 -1.1460
 1414SOL     OW 6248   1.998   0.953   5.536  0.1712 -0.0598  0.0792
 1414SOL    HW1 6249   1.908   0.950   5.569 -1.3500  0.3048 -3.5698
 1414SOL    HW2 6250   2.016   1.047   5.526  0.6154 -0.1611 -0.0861
 1415SOL     OW 6251   5.133   2.601   9.010  0.2140 -0.2603 -0.7881
 1415SOL    HW1 6252   5.080   2.521   9.013  0.5679 -0.4892 -0.2072
 1415SOL    HW2 6253   5.217   2.574   9.048  1.0626 -0.1327 -2.5178
 1416SOL     OW 6254  10.660   9.361   3.638 -0.0622  0.6019  0.3547
 1416SOL    HW1 6255  10.633   9.387   3.726 -1.0185 -0.7035  0.4837
 1416SOL    HW2 6256  10.583   9.376   3.583 -0.6102 -1.6416  0.4081
 1417SOL     OW 6257   4.306   8.921   8.586  0.5929 -0.3419 -0.0899
 1417SOL    HW1 6258   4.317   8.831   8.557  0.5457 -0.1561 -0.6922
 1417SOL    HW2 6259   4.373   8.970   8.538 -0.8719  0.3277 -1.5635
 1418SOL     OW 6260   5.688   2.135   4.789 -0.1296 -0.1191 -0.2159
 1418SOL    HW1 6261   5.601   2.171   4.771  0.3288  0.7766 -0.7490
 1418SOL    HW2 6262   5.748   2.203   4.759  0.7791 -1.1786 -0.8685
 1419SOL     OW 6263   0.346   0.071   1.574  0.1994  0.0606  0.3595
 1419SOL    HW1 6264   0.321  -0.019   1.558 -0.0159 -0.1047  1.5430
 1419SOL    HW2 6265   0.324   0.117   1.493  2.6706 -1.3778 -1.2589
 1420SOL     OW 6266   2.031   9.434   3.964  0.0212 -0.3226  0.8126
 1420SOL    HW1 6267   1.936   9.436   3.955 -0.0802  1.0077  1.7962
 1420SOL    HW2 6268   2.054   9.342   3.958 -1.3501 -0.6846  0.7353
 1421SOL     OW 6269  10.158   9.410   2.176  0.4255 -0.4820  0.7328
 1421SOL    HW1 6270  10.134   9.462   2.253  0.4697  1.3840 -0.4681
 1421SOL    HW2 6271  10.208   9.469   2.121  1.1820 -2.0569 -0.3461
 1422SOL     OW 6272   9.157   5.135   6.211  0.5721 -0.7949  0.0083
 1422SOL    HW1 6273   9.071   5.095   6.224 -0.1810  0.7648  0.0609
 1422SOL    HW2 6274   9.190   5.150   6.300 -0.4369  1.2722  0.0999
 1423SOL     OW 6275   0.613   2.654   0.649 -0.1359  0.1727  0.3285
 1423SOL    HW1 6276   0.690   2.660   0.594  0.8749 -0.6474  1.5860
 1423SOL    HW2 6277   0.540   2.674   0.591  1.1151  2.5858 -0.5312
 1424SOL     OW 6278   7.294   0.159   9.569  0.2151 -0.1073  0.1790
 1424SOL    HW1 6279   7.360   0.166   9.500 -1.4099 -0.7465 -1.5074
 1424SOL    HW2 6280   7.220   0.211   9.538 -0.3393  0.1058  1.7434
 1425SOL     OW 6281   0.717   0.066   6.461 -0.7686  0.0313  0.0174
 1425SOL    HW1 6282   0.693   0.010   6.388 -0.0447 -0.6741  0.3064
 1425SOL    HW2 6283   0.658   0.141   6.455 -1.4412 -0.5443 -0.6410
 1426SOL     OW 6284   7.413   5.736   0.949 -0.3246  0.7350  0.5986
 1426SOL    HW1 6285   7.330   5.688   0.953  1.1587 -1.9821  1.5570
 1426SOL    HW2 6286   7.462   5.691   0.881  0.8242  1.4972  0.9081
 1427SOL     OW 6287   2.456   8.414   7.665  0.2595  0.0724  0.0339
 1427SOL    HW1 6288   2.379   8.470   7.679 -0.3718 -0.9594  0.8969
 1427SOL    HW2 6289   2.528   8.461   7.707 -0.5493 -0.3838  2.0971
 1428SOL     OW 6290   8.273   0.475   2.173 -0.7206  0.4003  0.3436
 1428SOL    HW1 6291   8.350   0.526   2.149 -1.8787  1.9211 -0.3428
 1428SOL    HW2 6292   8.283   0.458   2.267  0.5756  0.3008  0.1957
 1429SOL     OW 6293   3.603   3.746   4.622 -0.0163  0.5039  0.8445
 1429SOL    HW1 6294   3.650   3.757   4.539  0.3484  1.0725  1.1189
 1429SOL    HW2 6295   3.549   3.825   4.629 -0.2210  0.3449  1.0289
 1430SOL     OW 6296   7.859   9.403   1.298 -0.9381  1.0797 -0.1863
 1430SOL    HW1 6297   7.791   9.437   1.238 -0.5292  1.2564 -0.5535
 1430SOL    HW2 6298   7.933   9.382   1.241 -1.4478 -1.2387 -0.1101
 1431SOL     OW 6299   3.550   5.226   9.026 -0.2539  0.1776 -0.0802
 1431SOL    HW1 6300   3.586   5.162   8.965 -0.1168  0.6733 -0.5252
 1431SOL    HW2 6301   3.469   5.256   8.985 -0.4078  0.1671  0.2086
 1432SOL     OW 6302  10.079   9.043   2.724 -0.3949  0.2691  0.0848
 1432SOL    HW1 6303  10.091   9.057   2.818  4.0276  0.8457 -0.3438
 1432SOL    HW2 6304  10.101   9.127   2.685  0.8448 -0.7624 -1.5455
 1433SOL     OW 6305   4.150  10.949   6.280  0.0402  0.0978 -0.0308
 1433SOL    HW1 6306   4.241  10.969   6.301 -0.3771  1.0561  0.9984
 1433SOL    HW2 6307   4.150  10.857   6.256  1.1614 -0.1264  0.7549
 1434SOL     OW 6308   0.875   8.644   5.482 -0.0877 -0.0049  0.9108
 1434SOL    HW1 6309   0.945   8.597   5.528 -0.2893  0.8638  2.1357
 1434SOL    HW2 6310   0.852   8.716   5.540 -1.6744  0.0142  0.2961
 1435SOL     OW 6311   5.377   7.619   8.462 -0.0831  0.1851  0.4713
 1435SOL    HW1 6312   5.344   7.597   8.375 -1.2089 -1.9132  1.3713
 1435SOL    HW2 6313   5.347   7.709   8.476 -0.5069  0.3074 -1.0228
 1436SOL     OW 6314   7.118  10.346   1.333 -0.4089  0.5072 -0.0318
 1436SOL    HW1 6315   7.188  10.354   1.268  0.1284 -0.1067  0.4540
 1436SOL    HW2 6316   7.157  10.378   1.414 -1.7816  3.4996 -0.4113
 1437SOL     OW 6317   9.588  11.045   9.844  0.3121  0.4123 -0.0066
 1437SOL    HW1 6318   9.604  11.139   9.848  1.7172  0.1876  0.2215
 1437SOL    HW2 6319   9.674  11.005   9.859 -0.3750 -0.9208  0.5759
 1438SOL     OW 6320   7.222   6.015   0.967 -0.5918  0.4117 -0.1515
 1438SOL    HW1 6321   7.204   5.958   0.892 -2.8791 -0.3660  0.9137
 1438SOL    HW2 6322   7.318   6.025   0.966 -0.1690 -2.6066 -1.0247
 1439SOL     OW 6323   1.263   2.871   6.153  0.4329 -0.0578 -0.6511
 1439SOL    HW1 6324   1.239   2.804   6.090 -1.0012 -1.2231  1.0442
 1439SOL    HW2 6325   1.189   2.932   6.153 -0.3763 -0.9512  0.9895
 1440SOL     OW 6326   8.550   5.117   0.830 -0.3656  0.0527 -0.3319
 1440SOL    HW1 6327   8.459   5.146   0.825 -0.2706  0.3220 -0.5246
 1440SOL    HW2 6328   8.544   5.024   0.852 -0.7279 -0.3080 -1.8294
 1441SOL     OW 6329   9.484   2.199  10.139 -0.1281  0.1392 -0.3430
 1441SOL    HW1 6330   9.404   2.200  10.192  0.4835  0.6422  0.5883
 1441SOL    HW2 6331   9.464   2.256  10.065 -1.4680 -1.6395 -1.4266
 1442SOL     OW 6332   6.980   1.893   4.696  0.3110 -0.3031 -0.6495
 1442SOL    HW1 6333   6.885   1.905   4.700  0.2502 -0.9502  0.3082
 1442SOL    HW2 6334   7.012   1.967   4.646 -0.6071  0.4681 -0.1226
 1443SOL     OW 6335   4.232   8.715   7.710 -0.3142  0.3663  0.0873
 1443SOL    HW1 6336   4.195   8.657   7.776  0.6889  0.6661  0.9495
 1443SOL    HW2 6337   4.281   8.781   7.760 -0.5590  1.3405 -0.9061
 1444SOL     OW 6338  10.303   6.493   4.012 -0.2011 -0.4751 -0.3988
 1444SOL    HW1 6339  10.207   6.488   4.017 -0.4685  2.4928 -0.6449
 1444SOL    HW2 6340  10.331   6.506   4.103 -0.3010  0.9842 -0.5468
 1445SOL     OW 6341  10.863   4.035   7.804 -0.2923 -0.1994 -0.0894
 1445SOL    HW1 6342  10.836   4.119   7.766 -1.5189 -0.4652  0.1431
 1445SOL    HW2 6343  10.800   3.972   7.769  1.5909 -1.3578 -1.5841
 1446SOL     OW 6344   6.297   5.557   3.532  0.7905 -0.3175  0.7429
 1446SOL    HW1 6345   6.203   5.575   3.535  0.7552 -0.4114  0.2448
 1446SOL    HW2 6346   6.323   5.547   3.624  0.2633 -0.5536  0.8673
 1447SOL     OW 6347   4.960   6.496   7.964 -0.2189 -1.5046  0.4661
 1447SOL    HW1 6348   4.868   6.468   7.970 -0.4968 -1.0351 -1.1093
 1447SOL    HW2 6349   5.010   6.421   7.994 -1.0898 -2.2438  0.1174
 1448SOL     OW 6350   0.863   7.325   1.624  0.4879 -0.0165  0.1706
 1448SOL    HW1 6351   0.952   7.326   1.589  0.0172 -0.5024 -1.0945
 1448SOL    HW2 6352   0.831   7.414   1.611  0.6953  0.0886  0.3803
 1449SOL     OW 6353   1.479   2.477   7.499  0.5102 -0.5480 -0.2305
 1449SOL    HW1 6354   1.564   2.504   7.463  0.2938 -0.2300 -0.5048
 1449SOL    HW2 6355   1.415   2.524   7.446  0.0997 -2.0199 -1.0990
 1450SOL     OW 6356   0.352   3.969   7.684  0.2647 -0.5400  0.2389
 1450SOL    HW1 6357   0.420   4.002   7.626 -0.1710 -0.6093 -0.3141
 1450SOL    HW2 6358   0.311   3.897   7.636  0.0752 -0.7752  0.7386
 1451SOL     OW 6359   6.324   4.023   8.413 -0.5259  0.1173  0.3534
 1451SOL    HW1 6360   6.415   4.049   8.396 -0.3305  0.5340  1.8851
 1451SOL    HW2 6361   6.273   4.103   8.400 -0.5441  0.1237  0.4657
 1452SOL     OW 6362   9.829   4.391   0.642 -0.1136  0.6471 -0.0622
 1452SOL    HW1 6363   9.807   4.390   0.736 -1.6280 -0.5914 -0.3874
 1452SOL    HW2 6364   9.852   4.300   0.622  0.4705  0.9590 -0.8452
 1453SOL     OW 6365   1.718   7.237   3.533 -0.1175  0.3423 -0.0656
 1453SOL    HW1 6366   1.665   7.251   3.454 -1.7475 -2.1150  0.4710
 1453SOL    HW2 6367   1.711   7.319   3.582  0.8474  1.8872 -2.3555
 1454SOL     OW 6368   7.419  11.002   8.455 -0.3018  0.1332  0.1822
 1454SOL    HW1 6369   7.372  11.018   8.373 -0.1185  3.2438  0.5630
 1454SOL    HW2 6370   7.365  11.043   8.522 -0.1468 -1.8414  1.6016
 1455SOL     OW 6371   8.434   1.440   6.120 -0.2774 -0.2255 -0.8215
 1455SOL    HW1 6372   8.366   1.435   6.187 -1.6958 -1.7903 -2.2765
 1455SOL    HW2 6373   8.493   1.509   6.151 -1.4022 -0.2091  1.5051
 1456SOL     OW 6374   4.566   2.642   2.666 -0.6508 -0.5049  0.2688
 1456SOL    HW1 6375   4.568   2.731   2.702 -2.8700  0.0751 -0.8906
 1456SOL    HW2 6376   4.620   2.647   2.587 -0.6144 -0.2404  0.3083
 1457SOL     OW 6377   5.247   5.333   3.596 -0.0566  0.1657  0.2029
 1457SOL    HW1 6378   5.246   5.427   3.580  1.5119  0.1373 -0.2195
 1457SOL    HW2 6379   5.257   5.324   3.690 -0.0043  0.4139  0.2202
 1458SOL     OW 6380  10.049   8.209   9.939  0.5426  0.3226 -0.5540
 1458SOL    HW1 6381  10.084   8.277   9.882  1.1006  0.2460 -0.3033
 1458SOL    HW2 6382   9.977   8.252   9.985  1.4576  1.0154  0.2702
 1459SOL     OW 6383   7.403   8.680  10.224  0.3190  0.3670  0.2891
 1459SOL    HW1 6384   7.308   8.691  10.222  0.2455 -0.1636 -2.0586
 1459SOL    HW2 6385   7.431   8.695  10.134  2.8839  3.4478  1.4127
 1460SOL     OW 6386   0.005   8.962   2.949  0.3771 -0.6702 -0.7208
 1460SOL    HW1 6387  -0.081   8.932   2.979  0.8127 -2.1411 -0.8779
 1460SOL    HW2 6388   0.003   8.950   2.854  0.6216 -0.3418 -0.7698
 1461SOL     OW 6389  10.908   8.827   1.645 -0.4627  0.4673 -0.1446
 1461SOL    HW1 6390  10.981   8.764   1.641 -0.5488  0.4227 -1.2761
 1461SOL    HW2 6391  10.896   8.843   1.739 -0.3734 -1.1315  0.1706
 1462SOL     OW 6392   0.762   4.437   5.534 -0.3056  0.3535 -0.1523
 1462SOL    HW1 6393   0.693   4.438   5.467 -2.5310  0.8025  1.9714
 1462SOL    HW2 6394   0.737   4.366   5.593  1.4752  0.0833  0.3386
 1463SOL     OW 6395   5.688   0.983  10.664  0.5780 -0.5109  0.2196
 1463SOL    HW1 6396   5.758   1.048  10.673 -1.1246  1.3002  1.2415
 1463SOL    HW2 6397   5.672   0.952  10.753 -0.8842  0.2476  0.2607
 1464SOL     OW 6398   3.523   6.174  11.053  0.3156  0.5091  0.0218
 1464SOL    HW1 6399   3.541   6.099  10.996  0.7261  1.4306 -1.1056
 1464SOL    HW2 6400   3.535   6.140  11.142 -1.9882 -1.4099 -0.2996
 1465SOL     OW 6401   8.933   1.805   1.359 -0.2421 -0.5650 -0.1382
 1465SOL    HW1 6402   9.006   1.799   1.421  1.8407  0.6685 -2.3462
 1465SOL    HW2 6403   8.870   1.864   1.401  1.6711  1.2348  0.3253
 1466SOL     OW 6404   6.530   2.453   3.019 -0.2676  0.5919  0.1320
 1466SOL    HW1 6405   6.482   2.380   3.059  1.3230 -0.5083  0.1351
 1466SOL    HW2 6406   6.462   2.511   2.985 -1.5852 -0.6843  0.4897
 1467SOL     OW 6407   0.422   7.619   3.808  0.1650  0.0870 -0.1216
 1467SOL    HW1 6408   0.430   7.526   3.786 -1.1765  0.0224 -0.3945
 1467SOL    HW2 6409   0.457   7.625   3.897 -3.6006 -1.5088  1.6888
 1468SOL     OW 6410   7.237   0.202   2.108  0.2324  0.4470  0.2782
 1468SOL    HW1 6411   7.215   0.116   2.144 -0.6030  1.8252  3.3075
 1468SOL    HW2 6412   7.208   0.197   2.017 -0.6701 -2.1334  0.6083
 1469SOL     OW 6413   5.868   3.206   0.774 -0.0771 -0.1620  0.2182
 1469SOL    HW1 6414   5.780   3.241   0.781 -1.0231 -2.4158  0.2815
 1469SOL    HW2 6415   5.914   3.267   0.716 -1.7923  0.8146 -0.1622
 1470SOL     OW 6416   4.112   2.207   1.735  0.2991  0.2008 -0.7710
 1470SOL    HW1 6417   4.140   2.227   1.824 -1.1356 -1.1359  0.0414
 1470SOL    HW2 6418   4.150   2.120   1.718  2.6102  1.4422 -2.4549
 1471SOL     OW 6419   2.856   5.944  10.916 -0.1573  0.6966 -0.4752
 1471SOL    HW1 6420   2.819   5.946  11.004  0.3018  1.0276 -0.2855
 1471SOL    HW2 6421   2.796   5.889  10.866 -0.3040  0.3193  0.1017
 1472SOL     OW 6422   2.223   4.150  10.478  0.2802  0.1341  0.2590
 1472SOL    HW1 6423   2.273   4.222  10.517 -0.4389  0.4480  0.6299
 1472SOL    HW2 6424   2.160   4.127  10.546  0.9386 -1.3084  0.4075
 1473SOL     OW 6425   9.737  11.038   9.115 -0.7000  0.0314  0.2093
 1473SOL    HW1 6426   9.736  10.944   9.128 -1.6622 -0.4471 -2.6177
 1473SOL    HW2 6427   9.730  11.075   9.203  2.3021 -2.4195  1.6802
 1474SOL     OW 6428   1.879   6.159   7.684 -0.1926  0.7511 -0.7069
 1474SOL    HW1 6429   1.799   6.123   7.724  1.2766 -2.8852 -0.6479
 1474SOL    HW2 6430   1.873   6.253   7.699 -4.2304  0.6180 -0.3242
 1475SOL     OW 6431   3.306   2.089   4.855 -0.4883  0.5254  0.7747
 1475SOL    HW1 6432   3.324   2.182   4.865 -0.0077  1.2191 -4.0485
 1475SOL    HW2 6433   3.392   2.051   4.834 -1.1566 -0.3116 -0.5747
 1476SOL     OW 6434   0.448   8.540   4.257  0.7966  0.7608  0.2053
 1476SOL    HW1 6435   0.490   8.530   4.172 -0.9358  0.2484 -0.6470
 1476SOL    HW2 6436   0.442   8.451   4.291  0.3116  0.8058  0.2459
 1477SOL     OW 6437  10.871   4.900   0.108 -0.0469  0.0700  0.3343
 1477SOL    HW1 6438  10.815   4.837   0.153  1.7562 -1.1096  1.0013
 1477SOL    HW2 6439  10.890   4.967   0.174  1.6319 -1.0477  1.0586
 1478SOL     OW 6440   2.383   6.984   0.235  0.3785 -0.3009 -0.2894
 1478SOL    HW1 6441   2.319   6.913   0.229  1.9100 -1.9150  1.3755
 1478SOL    HW2 6442   2.345   7.044   0.300  0.5755 -1.3529  0.8458
 1479SOL     OW 6443   4.385   1.354   0.737  0.0012  0.8343  0.1578
 1479SOL    HW1 6444   4.434   1.404   0.672 -0.8136  0.7584 -0.5296
 1479SOL    HW2 6445   4.452   1.314   0.793  0.6735  2.7591  0.7915
 1480SOL     OW 6446   4.432   2.853  10.103 -0.6791  0.1906  0.1674
 1480SOL    HW1 6447   4.381   2.924  10.064 -2.0892 -0.8523  0.0350
 1480SOL    HW2 6448   4.391   2.773  10.069  1.3634 -0.7007 -0.3257
 1481SOL     OW 6449   6.695  10.910   4.642  0.2045  0.3308  0.4102
 1481SOL    HW1 6450   6.614  10.923   4.593 -0.1789  1.0029  1.1986
 1481SOL    HW2 6451   6.750  10.985   4.618  1.0740 -0.7227 -1.0179
 1482SOL     OW 6452   2.817   6.762   3.252  1.1197  0.3524  1.1224
 1482SOL    HW1 6453   2.848   6.673   3.240  1.1757  0.6124 -0.8712
 1482SOL    HW2 6454   2.844   6.808   3.173 -2.3114  1.1688  0.2754
 1483SOL     OW 6455   4.699   5.536   5.677 -0.0832 -0.0563 -0.1602
 1483SOL    HW1 6456   4.777   5.517   5.728 -0.7796  1.4329  1.5600
 1483SOL    HW2 6457   4.626   5.525   5.738 -1.2183 -1.0431 -1.6147
 1484SOL     OW 6458   7.172  10.109   9.348  0.4181 -0.2503  0.0583
 1484SOL    HW1 6459   7.259  10.106   9.309  1.3636 -0.2104  2.0809
 1484SOL    HW2 6460   7.181  10.063   9.431 -0.6799  2.4615  1.7892
 1485SOL     OW 6461   2.395   5.452   1.713 -0.1728  0.8286 -0.4254
 1485SOL    HW1 6462   2.345   5.471   1.634 -0.5164  0.9052 -0.1890
 1485SOL    HW2 6463   2.331   5.419   1.776 -0.0205  1.4285  0.0541
 1486SOL     OW 6464   8.318   0.095   0.339 -0.0306  0.1436  0.0050
 1486SOL    HW1 6465   8.406   0.128   0.358 -0.6518  0.5972  2.4121
 1486SOL    HW2 6466   8.299   0.035   0.411 -1.6212 -0.1335 -0.6106
 1487SOL     OW 6467   4.534   1.129   7.824  0.8239 -0.0707  1.0615
 1487SOL    HW1 6468   4.572   1.091   7.745  1.8553  1.8127  0.5915
 1487SOL    HW2 6469   4.547   1.061   7.891 -0.8751 -2.0750 -0.4791
 1488SOL     OW 6470   0.037   2.334   0.544 -0.6478  0.9673 -0.0613
 1488SOL    HW1 6471   0.035   2.415   0.595 -1.3605  0.1151  1.2956
 1488SOL    HW2 6472  -0.051   2.298   0.551 -0.0336 -0.5136  0.3164
 1489SOL     OW 6473   8.504   9.185  11.069  0.4412 -0.2315  0.1843
 1489SOL    HW1 6474   8.566   9.120  11.037 -0.7879 -1.7089  0.6693
 1489SOL    HW2 6475   8.421   9.137  11.077 -0.7153  1.5857 -0.1882
 1490SOL     OW 6476   2.449   8.574   4.549 -0.1076 -0.0386 -0.8386
 1490SOL    HW1 6477   2.461   8.536   4.635  0.9941  0.8402 -0.5774
 1490SOL    HW2 6478   2.524   8.544   4.498  1.9788  3.2308 -0.0403
 1491SOL     OW 6479   2.934   8.738  10.585  0.1131  0.4159 -0.4793
 1491SOL    HW1 6480   2.887   8.700  10.659  0.3665  0.5297 -0.2532
 1491SOL    HW2 6481   2.974   8.818  10.621  0.4233  0.3543 -0.6776
 1492SOL     OW 6482   1.026   8.537   9.747  0.2287 -0.0443 -0.2541
 1492SOL    HW1 6483   0.964   8.580   9.688 -0.4942 -0.3248  0.2780
 1492SOL    HW2 6484   1.080   8.483   9.690 -2.4642 -2.8006 -0.4738
 1493SOL     OW 6485   8.282   7.578   2.619 -0.4513 -0.1687 -0.0585
 1493SOL    HW1 6486   8.252   7.658   2.662  0.4027  0.8375 -1.2481
 1493SOL    HW2 6487   8.377   7.590   2.610 -0.0380 -2.0597  1.2023
 1494SOL     OW 6488   9.528  10.792   9.140 -0.4400  0.0267  0.1211
 1494SOL    HW1 6489   9.603  10.739   9.165 -0.8660 -0.9423 -0.5899
 1494SOL    HW2 6490   9.458  10.765   9.200 -0.6744 -0.2699 -0.2800
 1495SOL     OW 6491  10.662   4.406   8.070  0.7258 -0.0967  0.0518
 1495SOL    HW1 6492  10.749   4.435   8.096  1.2790 -0.5942 -1.1961
 1495SOL    HW2 6493  10.667   4.311   8.068 -0.1727 -0.1773  1.0366
 1496SOL     OW 6494   7.550   3.474   1.838 -0.0536 -0.5140 -0.3100
 1496SOL    HW1 6495   7.541   3.567   1.856 -0.4574 -0.6730  0.3451
 1496SOL    HW2 6496   7.573   3.435   1.922  0.1964 -0.9966 -0.5967
 1497SOL     OW 6497  10.542   1.155   2.985  0.0792 -0.0424  0.3414
 1497SOL    HW1 6498  10.608   1.111   2.931  1.5168  0.3944  1.6538
 1497SOL    HW2 6499  10.459   1.139   2.940  1.3144  1.6504 -2.9030
 1498SOL     OW 6500   2.359   3.386   7.321 -0.0353  0.0280 -0.2178
 1498SOL    HW1 6501   2.342   3.437   7.242  1.2880  1.0031  0.1066
 1498SOL    HW2 6502   2.348   3.295   7.294 -0.2631  0.3803 -1.3434
 1499SOL     OW 6503   3.649   1.938   3.934  0.0878  0.2316 -0.2403
 1499SOL    HW1 6504   3.569   1.990   3.938  0.0401  0.3760 -2.2431
 1499SOL    HW2 6505   3.655   1.896   4.020 -1.7552  0.7656  0.1765
 1500SOL     OW 6506   0.642   3.715   2.578  0.1313 -0.1669  0.3808
 1500SOL    HW1 6507   0.655   3.809   2.572  0.0570 -0.2173 -0.9713
 1500SOL    HW2 6508   0.562   3.704   2.630  1.9703  0.3464  3.6070
 1501SOL     OW 6509   1.360   5.678   4.379 -0.0867  0.0958 -0.4743
 1501SOL    HW1 6510   1.383   5.599   4.331 -0.8543 -1.7361  1.9744
 1501SOL    HW2 6511   1.265   5.685   4.371 -0.5288 -1.3336  2.0661
 1502SOL     OW 6512   2.248   8.154   6.412 -0.1331 -0.2410 -0.4772
 1502SOL    HW1 6513   2.344   8.161   6.408 -0.0898 -0.6540 -0.2605
 1502SOL    HW2 6514   2.227   8.087   6.347 -0.2084 -0.6635 -0.0212
 1503SOL     OW 6515   5.843   5.481  10.254  0.1126 -0.1872 -0.5745
 1503SOL    HW1 6516   5.917   5.526  10.214  0.9182 -1.0452 -0.0974
 1503SOL    HW2 6517   5.872   5.463  10.344 -1.0263  0.2605 -0.0964
 1504SOL     OW 6518   0.956   5.100   5.597 -0.9753 -0.1214 -0.5897
 1504SOL    HW1 6519   1.014   5.177   5.598 -0.8071 -0.2005  1.7160
 1504SOL    HW2 6520   0.893   5.118   5.666 -0.1584 -2.5820  0.9188
 1505SOL     OW 6521   7.574   1.030  10.459  0.0601  0.2575  0.1644
 1505SOL    HW1 6522   7.532   0.981  10.389 -0.9431  2.0258 -0.5385
 1505SOL    HW2 6523   7.576   0.968  10.533 -1.8047 -0.6242 -0.4425
 1506SOL     OW 6524   4.715   2.272   9.919 -0.0771 -0.3424  0.5078
 1506SOL    HW1 6525   4.725   2.365   9.897  1.5503 -0.3824  0.9278
 1506SOL    HW2 6526   4.805   2.240   9.927 -0.5421 -2.5217 -1.9030
 1507SOL     OW 6527   5.693   4.047   3.504 -0.3206  0.0592  0.3561
 1507SOL    HW1 6528   5.754   4.055   3.430  0.6868 -0.5212  1.0931
 1507SOL    HW2 6529   5.676   4.137   3.531  0.6884  0.2240  0.4946
 1508SOL     OW 6530   3.552   7.914   1.988  0.4853 -0.3764  1.0246
 1508SOL    HW1 6531   3.553   7.821   2.009 -0.5622 -1.0095 -1.4328
 1508SOL    HW2 6532   3.470   7.927   1.940  0.0070  2.0973  2.3569
 1509SOL     OW 6533   8.083   1.212   1.129 -0.7022  0.0393 -0.7334
 1509SOL    HW1 6534   8.050   1.150   1.193 -2.3753  0.4267 -1.1747
 1509SOL    HW2 6535   8.113   1.158   1.056  2.1530 -0.4767  0.6555
 1510SOL     OW 6536  10.326   8.281   5.207 -0.3476 -0.0661 -0.3460
 1510SOL    HW1 6537  10.310   8.287   5.113 -0.3117 -0.1390 -0.3567
 1510SOL    HW2 6538  10.396   8.344   5.223  1.1712 -1.6043 -0.7252
 1511SOL     OW 6539   3.503  10.681   9.898  0.2844  0.7468  0.7064
 1511SOL    HW1 6540   3.540  10.593   9.895  0.7300  0.8915  1.6495
 1511SOL    HW2 6541   3.423  10.672   9.949 -0.4783  0.6174 -0.4912
 1512SOL     OW 6542   4.578   0.232   1.684 -0.1715 -0.2547 -0.0555
 1512SOL    HW1 6543   4.652   0.204   1.631 -0.5288  0.2414 -0.8329
 1512SOL    HW2 6544   4.503   0.226   1.626 -0.5445  0.4484  0.3368
 1513SOL     OW 6545  11.006  10.467   7.685  0.2903  0.0053  0.1172
 1513SOL    HW1 6546  11.041  10.548   7.649  0.9869 -1.1599 -2.0366
 1513SOL    HW2 6547  11.079  10.430   7.735 -0.3167  1.0865  1.8680
 1514SOL     OW 6548   3.731   4.762   4.426 -0.4293  0.2849  0.3555
 1514SOL    HW1 6549   3.703   4.671   4.416 -2.5670  1.0667 -2.1706
 1514SOL    HW2 6550   3.650   4.809   4.449  0.1600  1.8023 -0.5443
 1515SOL     OW 6551   0.251   8.798   0.380 -0.0609  0.6774 -1.0253
 1515SOL    HW1 6552   0.291   8.871   0.428  0.8696  0.5730 -1.6166
 1515SOL    HW2 6553   0.228   8.735   0.448  0.5735  0.8428 -0.6434
 1516SOL     OW 6554   0.777   4.324  10.708 -0.0675 -0.0108  0.2443
 1516SOL    HW1 6555   0.757   4.248  10.653  1.4336 -0.3533  0.1473
 1516SOL    HW2 6556   0.857   4.301  10.754 -0.2054  1.0776  1.0740
 1517SOL     OW 6557   7.647   7.296   4.452  0.0471 -0.6674 -0.0736
 1517SOL    HW1 6558   7.651   7.210   4.410  0.5583  0.5274 -2.6790
 1517SOL    HW2 6559   7.592   7.349   4.395  2.0862  1.5300 -0.1689
 1518SOL     OW 6560   8.725   2.121   4.010  0.0291  0.1086 -0.9121
 1518SOL    HW1 6561   8.696   2.130   3.919 -0.4762  0.0411 -0.7589
 1518SOL    HW2 6562   8.779   2.042   4.010 -0.4040 -0.1909 -1.0509
 1519SOL     OW 6563   1.327   8.964   6.534 -0.2070 -0.3193  0.0779
 1519SOL    HW1 6564   1.321   8.928   6.622 -0.5812 -0.5323 -0.0328
 1519SOL    HW2 6565   1.403   8.919   6.495 -1.5476 -2.1268 -0.5697
 1520SOL     OW 6566   7.500   7.717   0.378 -0.2406 -0.2857 -0.5827
 1520SOL    HW1 6567   7.499   7.711   0.473  0.8737  2.0449 -0.3443
 1520SOL    HW2 6568   7.593   7.710   0.354  0.0156  2.9789 -1.0423
 1521SOL     OW 6569   6.972   2.294   2.803  0.5356 -0.2064 -0.0284
 1521SOL    HW1 6570   6.927   2.315   2.722  1.4805  1.2569 -0.2088
 1521SOL    HW2 6571   6.911   2.237   2.851 -0.8470  0.5080 -0.8895
 1522SOL     OW 6572   4.286   7.109   1.596  0.0376  0.4612 -0.0048
 1522SOL    HW1 6573   4.252   7.020   1.588 -0.8236  0.7350  0.4798
 1522SOL    HW2 6574   4.218   7.164   1.556  1.1065  0.8063 -1.4035
 1523SOL     OW 6575   7.097   2.124   7.006  0.0040  0.4920 -0.2029
 1523SOL    HW1 6576   7.027   2.113   7.071  0.5345  0.8456  0.4501
 1523SOL    HW2 6577   7.061   2.088   6.925 -0.0129 -1.7375  0.7122
 1524SOL     OW 6578   4.026   9.428   5.422  0.1295  0.0181  0.9753
 1524SOL    HW1 6579   3.960   9.434   5.354 -0.6881 -0.7194  1.6813
 1524SOL    HW2 6580   3.992   9.363   5.483  1.8803 -0.9859  0.9424
 1525SOL     OW 6581   2.015   5.878   9.992  0.6321 -0.4043 -0.5359
 1525SOL    HW1 6582   1.933   5.868  10.039  0.4471 -0.0515 -0.7771
 1525SOL    HW2 6583   1.992   5.866   9.900  0.3606  2.1219 -0.8796
 1526SOL     OW 6584   3.051   2.386   2.862  0.3067 -0.4364 -1.1483
 1526SOL    HW1 6585   3.007   2.380   2.947 -0.8672 -1.1269 -1.7839
 1526SOL    HW2 6586   3.134   2.340   2.875  0.2983 -0.2269 -0.2856
 1527SOL     OW 6587   7.084   5.220   9.593  0.2959  0.1722  0.0816
 1527SOL    HW1 6588   7.000   5.174   9.591 -0.1833  0.9614  1.4094
 1527SOL    HW2 6589   7.068   5.299   9.643  1.0771  1.9408 -2.2582
 1528SOL     OW 6590   1.329   2.616   7.297  0.2452 -0.0247 -0.0596
 1528SOL    HW1 6591   1.273   2.539   7.293 -0.8036  0.1135  5.2049
 1528SOL    HW2 6592   1.273   2.688   7.269 -0.4383 -0.5189  0.0098
 1529SOL     OW 6593   5.268   2.952   3.891 -1.2106  0.3165 -0.4829
 1529SOL    HW1 6594   5.195   2.960   3.829 -0.7271  0.7787 -1.0058
 1529SOL    HW2 6595   5.346   2.952   3.836 -0.6945  1.9918  0.1683
 1530SOL     OW 6596   1.116   7.153   5.626  1.0058  0.9075 -0.1339
 1530SOL    HW1 6597   1.147   7.241   5.605 -1.4621  1.5833 -1.4093
 1530SOL    HW2 6598   1.022   7.164   5.642  0.9436 -1.2526  1.4296
 1531SOL     OW 6599   6.461   5.784   9.914  0.1351 -0.0918  1.0818
 1531SOL    HW1 6600   6.554   5.761   9.913  0.1918 -0.2259 -2.1523
 1531SOL    HW2 6601   6.459   5.871   9.955  1.9769  0.6841 -0.3023
 1532SOL     OW 6602   4.426   8.602   3.027  0.1288 -0.1811 -1.1746
 1532SOL    HW1 6603   4.429   8.555   3.110  0.4837 -2.2817 -2.3127
 1532SOL    HW2 6604   4.386   8.541   2.965 -0.1975  1.3393 -2.5730
 1533SOL     OW 6605   2.486   1.718   3.225 -0.2609  0.0893 -0.0107
 1533SOL    HW1 6606   2.463   1.636   3.181  0.4488 -0.0045 -0.2188
 1533SOL    HW2 6607   2.447   1.710   3.312 -1.0715 -0.0271 -0.3746
 1534SOL     OW 6608   9.634   3.793   8.029  0.0815 -0.4006 -0.0210
 1534SOL    HW1 6609   9.712   3.833   7.992 -0.2352 -0.4496 -0.7446
 1534SOL    HW2 6610   9.642   3.700   8.007  1.1462 -0.9327  2.2071
 1535SOL     OW 6611   9.220   0.987   6.865 -0.0497 -0.2564  0.2488
 1535SOL    HW1 6612   9.180   0.912   6.907 -0.3996 -0.9994 -1.3419
 1535SOL    HW2 6613   9.161   1.010   6.794  0.7299  0.6835 -0.1288
 1536SOL     OW 6614   3.632   8.932   2.394  0.0523 -0.1052 -0.2210
 1536SOL    HW1 6615   3.564   8.865   2.385 -0.9342  0.8048  0.1869
 1536SOL    HW2 6616   3.609   8.979   2.474 -0.6449  2.1903 -1.6476
 1537SOL     OW 6617   0.386   5.262   2.540  0.5866  0.3094 -0.2076
 1537SOL    HW1 6618   0.379   5.225   2.453 -0.6664  0.3042 -0.1152
 1537SOL    HW2 6619   0.422   5.350   2.526  0.0600  0.4444 -0.7697
 1538SOL     OW 6620   1.628   9.647   1.795 -0.5137 -0.5250  0.6114
 1538SOL    HW1 6621   1.569   9.614   1.863  0.9231 -0.3547  1.9911
 1538SOL    HW2 6622   1.602   9.738   1.783  0.4206  0.0243  2.3673
 1539SOL     OW 6623   1.179   9.578   7.844 -0.5294  0.4660 -0.3634
 1539SOL    HW1 6624   1.108   9.630   7.882 -0.1080  1.3610 -0.7854
 1539SOL    HW2 6625   1.138   9.495   7.822 -1.2187  0.6118  0.3081
 1540SOL     OW 6626   3.785  10.865   3.688 -0.0239  0.0955 -0.1442
 1540SOL    HW1 6627   3.758  10.837   3.776 -3.3673  1.1273 -0.6993
 1540SOL    HW2 6628   3.845  10.938   3.704 -0.1342 -0.0830  1.2731
 1541SOL     OW 6629   8.172  10.805   6.718 -0.1275 -0.5534 -0.4151
 1541SOL    HW1 6630   8.092  10.768   6.680 -0.7954  1.0430 -0.6361
 1541SOL    HW2 6631   8.199  10.871   6.654 -1.2229  2.1655  1.7360
 1542SOL     OW 6632  10.650   6.157   1.028  0.2412  0.3192 -0.4719
 1542SOL    HW1 6633  10.694   6.109   1.098  0.4254  0.4410 -0.5055
 1542SOL    HW2 6634  10.721   6.197   0.977  0.0532  1.7625  0.3533
 1543SOL     OW 6635   1.711   3.843   9.986  0.0259 -0.6130 -0.1507
 1543SOL    HW1 6636   1.659   3.802  10.055 -0.9264  0.3360 -0.2652
 1543SOL    HW2 6637   1.650   3.851   9.912  0.1351  1.0911 -0.0832
 1544SOL     OW 6638   0.212   1.468   9.672 -0.1773 -0.4281  0.1046
 1544SOL    HW1 6639   0.238   1.545   9.722 -1.1988 -1.1540  1.8346
 1544SOL    HW2 6640   0.118   1.477   9.660 -0.0698 -0.6681 -1.0137
 1545SOL     OW 6641   1.307   7.755   9.742 -1.0594  1.1721 -0.5180
 1545SOL    HW1 6642   1.287   7.747   9.835 -1.1423  0.2143 -0.6080
 1545SOL    HW2 6643   1.231   7.715   9.698 -0.8674  1.3158 -0.9827
 1546SOL     OW 6644   5.814   8.661   1.236 -0.1579 -0.0194 -0.1702
 1546SOL    HW1 6645   5.885   8.700   1.186  1.1462 -0.1511  1.5105
 1546SOL    HW2 6646   5.738   8.717   1.218  1.6276  3.5647  2.2506
 1547SOL     OW 6647   5.322   6.802   4.399 -0.1875  0.1653 -0.0353
 1547SOL    HW1 6648   5.324   6.876   4.460 -1.4302  0.4184 -0.2898
 1547SOL    HW2 6649   5.315   6.725   4.455  0.1085  0.2977  0.1894
 1548SOL     OW 6650   8.651   3.000   1.143  0.7646 -0.1700 -0.1531
 1548SOL    HW1 6651   8.679   2.911   1.124 -0.1473 -0.7091  0.9180
 1548SOL    HW2 6652   8.661   3.008   1.238 -1.2332  0.1189  0.0583
 1549SOL     OW 6653  10.651   5.331   4.024 -0.0583  0.2372  0.0494
 1549SOL    HW1 6654  10.642   5.397   4.093  1.5211 -0.7282  1.2522
 1549SOL    HW2 6655  10.738   5.347   3.988 -0.2243 -0.3054 -0.5983
 1550SOL     OW 6656  10.567   4.232   5.310  0.4908  0.2228 -0.6570
 1550SOL    HW1 6657  10.569   4.155   5.367  0.4414 -0.8705 -2.0953
 1550SOL    HW2 6658  10.656   4.238   5.274  0.5128  0.8914 -0.5047
 1551SOL     OW 6659  11.028   7.766   5.743  0.0004 -0.2447  0.1857
 1551SOL    HW1 6660  11.070   7.849   5.764  0.8907 -0.4513 -0.7308
 1551SOL    HW2 6661  10.936   7.789   5.727  0.5860  0.8653 -1.8390
 1552SOL     OW 6662   3.322   7.271   2.798  0.2070  0.0267 -0.0414
 1552SOL    HW1 6663   3.299   7.268   2.891  0.4794 -0.2670  0.0204
 1552SOL    HW2 6664   3.264   7.337   2.760 -0.0927 -0.0479  0.2855
 1553SOL     OW 6665  10.096   2.672   2.906 -0.3688 -0.5131 -0.1041
 1553SOL    HW1 6666  10.182   2.688   2.866 -0.4427  0.8012  0.2097
 1553SOL    HW2 6667  10.090   2.577   2.912  1.2711 -0.6347  0.3029
 1554SOL     OW 6668   5.179   9.502   8.405  0.6405 -0.6255 -0.2179
 1554SOL    HW1 6669   5.196   9.409   8.389  2.1386 -0.2531 -1.0639
 1554SOL    HW2 6670   5.220   9.546   8.330 -1.4840  0.6405 -0.7246
 1555SOL     OW 6671  10.314   3.441   3.644 -0.1420  0.7313 -0.0177
 1555SOL    HW1 6672  10.387   3.419   3.586  0.8792  0.5276  1.2920
 1555SOL    HW2 6673  10.292   3.532   3.621  1.2939  1.1950  0.3190
 1556SOL     OW 6674   6.957   5.745   1.060  0.1212  0.0323 -0.6240
 1556SOL    HW1 6675   6.925   5.828   1.094 -1.7773 -1.0560  0.4774
 1556SOL    HW2 6676   7.013   5.711   1.130  3.7581  1.7926 -2.4233
 1557SOL     OW 6677   5.113   7.176   9.327 -0.4453  0.8594  0.5570
 1557SOL    HW1 6678   5.173   7.107   9.355  0.3013  0.8215 -1.0236
 1557SOL    HW2 6679   5.105   7.165   9.233 -1.0352  2.3720  0.3944
 1558SOL     OW 6680   8.852  10.580   9.032  0.7650 -0.2572 -0.0477
 1558SOL    HW1 6681   8.860  10.543   9.120 -1.8793  2.1480  1.4134
 1558SOL    HW2 6682   8.935  10.626   9.018  1.5123 -1.2624  0.8586
 1559SOL     OW 6683   1.792   2.363   5.841 -1.0846 -0.6687 -0.3522
 1559SOL    HW1 6684   1.702   2.362   5.810 -0.5399  1.4676 -2.3155
 1559SOL    HW2 6685   1.787   2.403   5.928 -2.0467 -0.8011 -0.3337
 1560SOL     OW 6686   7.885   3.126   7.355  0.0908  0.4766  0.2312
 1560SOL    HW1 6687   7.940   3.048   7.348 -0.5110 -0.0512  1.1429
 1560SOL    HW2 6688   7.812   3.098   7.411 -0.2774  1.6141  0.3343
 1561SOL     OW 6689   6.670   2.058   0.683  0.8120  0.2365  0.0931
 1561SOL    HW1 6690   6.633   2.145   0.698  1.5345  0.8700 -1.5274
 1561SOL    HW2 6691   6.716   2.037   0.764 -0.1567  0.9458  0.8479
 1562SOL     OW 6692   2.319   0.344  11.037 -0.2612  0.3726 -0.4460
 1562SOL    HW1 6693   2.395   0.388  10.999 -1.0834  0.8735 -1.6103
 1562SOL    HW2 6694   2.271   0.309  10.961 -0.3988 -1.2941  0.3521
 1563SOL     OW 6695   2.667   4.223   4.743  0.4213  0.3536 -0.3029
 1563SOL    HW1 6696   2.672   4.144   4.796 -1.3525  0.8353  0.6422
 1563SOL    HW2 6697   2.671   4.295   4.807  2.4976  1.1052 -1.1700
 1564SOL     OW 6698   4.881   5.412   4.897 -0.1313 -0.0088  0.8387
 1564SOL    HW1 6699   4.973   5.424   4.870  0.3684 -2.3624  1.2418
 1564SOL    HW2 6700   4.886   5.353   4.971 -2.0442 -1.1542  0.1178
 1565SOL     OW 6701   1.903   8.709   3.952 -0.5211  0.1047 -0.4105
 1565SOL    HW1 6702   1.859   8.624   3.947 -0.5192  0.1425 -1.1799
 1565SOL    HW2 6703   1.959   8.712   3.875 -0.5041  0.7927 -0.3788
 1566SOL     OW 6704   4.225   7.149   8.818 -0.0175  0.6323 -0.5767
 1566SOL    HW1 6705   4.151   7.105   8.862  0.0739  0.2727 -0.7768
 1566SOL    HW2 6706   4.196   7.239   8.807 -1.4798 -0.0367 -2.9442
 1567SOL     OW 6707   7.283   9.560   6.884  0.1581 -0.0312  0.3777
 1567SOL    HW1 6708   7.312   9.523   6.800  0.1714  0.9017 -0.0435
 1567SOL    HW2 6709   7.297   9.490   6.947 -3.0345 -2.0452 -0.9083
 1568SOL     OW 6710   4.720   7.399  10.720 -0.2157 -0.1844  0.6051
 1568SOL    HW1 6711   4.695   7.421  10.810  1.1297 -0.0969  0.9870
 1568SOL    HW2 6712   4.712   7.481  10.672 -0.7744 -0.1913  0.6822
 1569SOL     OW 6713   3.840   1.756   9.140  0.4495 -0.1958  0.6524
 1569SOL    HW1 6714   3.860   1.785   9.229  0.3164  0.0309  0.6074
 1569SOL    HW2 6715   3.859   1.832   9.085  0.2523 -0.2417  0.5195
 1570SOL     OW 6716   6.067   3.978   5.335 -0.4490 -0.4100 -0.8057
 1570SOL    HW1 6717   6.137   3.944   5.392  2.9615  1.0953 -3.7200
 1570SOL    HW2 6718   6.058   3.913   5.266  0.8962  1.0380 -2.4526
 1571SOL     OW 6719   6.640   2.620   0.459 -0.0412 -0.0924 -0.5009
 1571SOL    HW1 6720   6.724   2.607   0.413 -0.9681 -1.1627 -1.9874
 1571SOL    HW2 6721   6.608   2.531   0.476 -0.4774  0.3043  0.8643
 1572SOL     OW 6722   5.271   8.548  10.628 -0.1014 -0.1860  0.3976
 1572SOL    HW1 6723   5.243   8.457  10.635 -0.7949 -0.1550 -1.3073
 1572SOL    HW2 6724   5.358   8.550  10.668  0.0547 -1.6774  0.1920
 1573SOL     OW 6725   0.638   7.201   4.681 -0.3808  0.1391  0.3453
 1573SOL    HW1 6726   0.669   7.212   4.770  1.4450  1.2957 -0.3837
 1573SOL    HW2 6727   0.591   7.117   4.682  1.3988 -0.9140  1.9080
 1574SOL     OW 6728   9.368   5.260   7.948  0.4573  0.0292 -0.2918
 1574SOL    HW1 6729   9.349   5.276   7.856 -1.7612 -1.5548 -0.2128
 1574SOL    HW2 6730   9.283   5.237   7.986  1.5912 -1.0994  1.7535
 1575SOL     OW 6731   0.328   1.843   1.869  0.4243  0.0006  0.1011
 1575SOL    HW1 6732   0.286   1.778   1.926 -1.3511 -0.2719 -1.4347
 1575SOL    HW2 6733   0.258   1.874   1.812  1.4406  2.5858  0.1211
 1576SOL     OW 6734   6.029   9.517   3.989  0.3323 -0.0177  0.2891
 1576SOL    HW1 6735   6.055   9.431   4.023  1.3219  0.6644  1.3248
 1576SOL    HW2 6736   5.989   9.561   4.063  0.9236  0.8513  0.1015
 1577SOL     OW 6737   7.938   1.418   8.179  0.4883 -0.2918 -0.0354
 1577SOL    HW1 6738   7.893   1.344   8.139  1.0887 -1.3965  1.2730
 1577SOL    HW2 6739   7.876   1.452   8.244  0.7531 -0.5659  0.3693
 1578SOL     OW 6740   9.538  10.438   6.427 -0.1125  0.0703  0.1813
 1578SOL    HW1 6741   9.624  10.409   6.398 -0.5155  0.3990 -1.4270
 1578SOL    HW2 6742   9.505  10.366   6.480  0.6594 -0.5531 -0.1721
 1579SOL     OW 6743   8.431   9.283   4.977 -0.0662  0.3581  0.4522
 1579SOL    HW1 6744   8.447   9.378   4.978 -1.0613  0.5772 -1.1355
 1579SOL    HW2 6745   8.421   9.262   4.884  1.1715 -1.5102  0.6950
 1580SOL     OW 6746   2.074   4.832   7.139 -0.7186  0.4636  0.5440
 1580SOL    HW1 6747   1.999   4.778   7.114 -0.1927 -0.6446  1.2525
 1580SOL    HW2 6748   2.083   4.818   7.234  1.9538 -1.6156  0.1201
 1581SOL     OW 6749   1.658   6.350   2.011  0.9154 -0.5815  0.6800
 1581SOL    HW1 6750   1.740   6.306   1.987  0.3146 -2.3085  1.5820
 1581SOL    HW2 6751   1.629   6.392   1.930  2.7648  0.2274  0.3848
 1582SOL     OW 6752   8.060   3.069   3.773 -0.4950 -0.1215  0.4137
 1582SOL    HW1 6753   7.989   3.120   3.812 -2.1789 -0.6778 -1.6791
 1582SOL    HW2 6754   8.062   2.988   3.823 -1.0224  0.1060  0.8132
 1583SOL     OW 6755   7.926  11.046   4.667 -0.0576  0.7554  0.4823
 1583SOL    HW1 6756   7.898  11.136   4.685  1.6330  1.6379 -1.0766
 1583SOL    HW2 6757   8.012  11.038   4.709  0.3637  0.2795 -0.4386
 1584SOL     OW 6758   6.037   1.003   9.399  0.0803 -0.3769 -0.0396
 1584SOL    HW1 6759   6.064   0.975   9.311  0.9004 -1.0652  0.4159
 1584SOL    HW2 6760   6.013   1.095   9.389 -0.6476 -0.6638 -1.1552
 1585SOL     OW 6761  10.437  10.131   9.946 -0.3308 -0.1003  0.0415
 1585SOL    HW1 6762  10.497  10.171   9.884  0.5939  1.3324  1.7965
 1585SOL    HW2 6763  10.473  10.043   9.962  0.2228  0.0544 -0.3508
 1586SOL     OW 6764  11.048   0.656   6.010  0.9660  0.3338 -0.2531
 1586SOL    HW1 6765  11.092   0.723   6.062  1.3160  0.2401 -0.4210
 1586SOL    HW2 6766  10.975   0.702   5.968 -1.3515 -0.2476  2.7987
 1587SOL     OW 6767   5.559   0.253   4.119 -0.2169  0.2961 -0.1303
 1587SOL    HW1 6768   5.622   0.260   4.047 -0.5049  0.1360 -0.3974
 1587SOL    HW2 6769   5.486   0.308   4.093  0.1094  1.0572  0.5060
 1588SOL     OW 6770   8.129   9.380   9.596 -0.1624  0.5123 -0.6616
 1588SOL    HW1 6771   8.039   9.361   9.567 -1.0417  1.7576  1.0605
 1588SOL    HW2 6772   8.119   9.451   9.660  2.0897  0.8082 -0.5602
 1589SOL     OW 6773   3.727   2.337   3.797 -0.2435  0.6720 -0.2878
 1589SOL    HW1 6774   3.690   2.271   3.737  1.0830  0.4130 -0.8545
 1589SOL    HW2 6775   3.774   2.397   3.740 -0.4406  1.4409  0.3459
 1590SOL     OW 6776   3.816   5.211   6.994  0.9491 -1.3484  0.9744
 1590SOL    HW1 6777   3.739   5.239   7.042 -0.3360 -0.1985 -1.5462
 1590SOL    HW2 6778   3.889   5.259   7.034  0.3956 -2.2509  3.2158
 1591SOL     OW 6779   4.448   3.403   0.552  0.9994  0.8373  0.4761
 1591SOL    HW1 6780   4.480   3.469   0.614 -1.3391  2.4208  0.1400
 1591SOL    HW2 6781   4.484   3.431   0.468  0.4260  1.4285  0.4164
 1592SOL     OW 6782   6.109   9.575   2.949 -0.1287 -0.2480 -0.2746
 1592SOL    HW1 6783   6.082   9.649   3.004 -0.0894 -0.4484  0.0199
 1592SOL    HW2 6784   6.103   9.499   3.007 -1.3896 -0.6704 -0.9323
 1593SOL     OW 6785   5.377   7.647   0.429  0.3543 -0.2507  0.0806
 1593SOL    HW1 6786   5.334   7.728   0.402 -1.3801 -0.6609  1.3958
 1593SOL    HW2 6787   5.456   7.641   0.375 -1.4493  0.3308 -2.7879
 1594SOL     OW 6788   0.149   5.693   6.108 -0.6280  0.9229  0.1017
 1594SOL    HW1 6789   0.130   5.620   6.166 -2.3195 -1.3421 -2.9946
 1594SOL    HW2 6790   0.079   5.756   6.125 -0.6585  0.6660  0.9816
 1595SOL     OW 6791   6.244   0.399   2.385  0.1696  0.2087  0.3652
 1595SOL    HW1 6792   6.296   0.476   2.361  2.5450 -1.2763  0.4559
 1595SOL    HW2 6793   6.221   0.358   2.302  2.0776 -0.9411  0.3688
 1596SOL     OW 6794   4.877   2.068   1.567 -0.2669  0.4987 -0.5429
 1596SOL    HW1 6795   4.872   2.163   1.582 -2.0855  0.6632 -1.8200
 1596SOL    HW2 6796   4.954   2.056   1.512  1.1154  0.9601  1.1970
 1597SOL     OW 6797   8.299   0.758   4.832 -0.4045  0.4012 -0.0919
 1597SOL    HW1 6798   8.267   0.687   4.776 -0.2968  0.3945 -0.1451
 1597SOL    HW2 6799   8.363   0.805   4.778 -1.2667  1.2065 -0.4484
 1598SOL     OW 6800   4.492   3.078   8.670  0.0458 -0.0953 -0.2836
 1598SOL    HW1 6801   4.409   3.104   8.711  0.0852 -0.9437  0.3512
 1598SOL    HW2 6802   4.494   2.983   8.678  0.4160 -0.2228 -1.5983
 1599SOL     OW 6803   3.195  10.553   0.654 -0.4685 -0.3271  0.0319
 1599SOL    HW1 6804   3.262  10.532   0.720  0.9304 -1.1998 -1.5779
 1599SOL    HW2 6805   3.228  10.632   0.611 -0.2710 -0.9358 -0.9803
 1600SOL     OW 6806   1.168   2.351   7.332  0.2172  0.4333 -0.4925
 1600SOL    HW1 6807   1.081   2.317   7.310 -0.5799  1.1823  1.3132
 1600SOL    HW2 6808   1.227   2.279   7.311 -1.0409 -0.7821 -0.0303
 1601SOL     OW 6809   2.311   1.988   0.966 -0.2277  0.0810  0.0816
 1601SOL    HW1 6810   2.379   1.998   0.899 -0.4028  0.8872  0.0050
 1601SOL    HW2 6811   2.358   1.966   1.046 -0.0259 -1.0266 -0.3238
 1602SOL     OW 6812   1.532   9.979   1.250  0.1165 -0.0601 -0.4274
 1602SOL    HW1 6813   1.545   9.884   1.250  1.1983  0.0757 -0.1888
 1602SOL    HW2 6814   1.614  10.015   1.284  0.8176  1.0823 -3.0764
 1603SOL     OW 6815   2.192   9.783   6.377  0.6071 -0.4879  0.6111
 1603SOL    HW1 6816   2.213   9.690   6.387  1.2835 -0.5237 -0.8427
 1603SOL    HW2 6817   2.262   9.817   6.320 -0.3662  0.6095  0.0311
 1604SOL     OW 6818  10.905   8.946  10.549  0.0472 -0.1899  0.3517
 1604SOL    HW1 6819  10.828   8.889  10.540 -1.5913  1.6895  1.4470
 1604SOL    HW2 6820  10.933   8.962  10.459 -0.2668 -1.6308 -0.0333
 1605SOL     OW 6821   1.288  10.063   5.031  0.2720 -0.2101  0.1686
 1605SOL    HW1 6822   1.287  10.005   4.955  0.4505  0.0514 -0.0390
 1605SOL    HW2 6823   1.196  10.077   5.052  0.2113 -2.2341  1.5305
 1606SOL     OW 6824   9.738   0.184   4.886  0.1608 -0.4373 -0.1385
 1606SOL    HW1 6825   9.759   0.130   4.962 -1.0379 -0.2445  0.3434
 1606SOL    HW2 6826   9.643   0.187   4.883  0.1921  0.1234 -1.2549
 1607SOL     OW 6827   7.207   2.060   3.808  0.2763 -0.2823  0.0387
 1607SOL    HW1 6828   7.216   2.091   3.898 -0.7234  1.3467 -0.3763
 1607SOL    HW2 6829   7.225   1.967   3.813 -1.6687 -0.6458  2.2658
 1608SOL     OW 6830   9.281   0.591   0.009  0.0276 -0.7955  0.2070
 1608SOL    HW1 6831   9.320   0.503   0.002 -0.7389 -1.1698  0.4904
 1608SOL    HW2 6832   9.187   0.575   0.009 -0.1221  0.0519  0.0763
 1609SOL     OW 6833   2.783   2.245   5.269  0.6697  0.2130  0.2107
 1609SOL    HW1 6834   2.818   2.172   5.320 -0.0089 -0.1432  0.1782
 1609SOL    HW2 6835   2.714   2.282   5.325 -0.1734 -0.2665 -0.5008
 1610SOL     OW 6836   1.951   1.609   5.831  0.6941 -0.1451 -0.3720
 1610SOL    HW1 6837   1.910   1.564   5.905  1.6919  0.1615  0.3880
 1610SOL    HW2 6838   1.888   1.598   5.760 -0.7877  0.4466  0.7752
 1611SOL     OW 6839   1.731  10.502  10.514 -0.4705  0.3021  0.1340
 1611SOL    HW1 6840   1.762  10.571  10.454 -1.1151 -0.3558 -0.9920
 1611SOL    HW2 6841   1.809  10.449  10.530 -0.7260 -0.7844 -1.9163
 1612SOL     OW 6842   5.998  10.943   7.193 -0.5870 -0.0270 -0.5776
 1612SOL    HW1 6843   6.011  10.857   7.233  0.3313  0.3598 -0.0068
 1612SOL    HW2 6844   6.041  10.937   7.108  2.2108  0.7630  0.6777
 1613SOL     OW 6845   1.965   7.892   3.965  0.5768  0.0449 -0.4865
 1613SOL    HW1 6846   2.005   7.920   3.883 -0.4815 -0.5323 -1.2301
 1613SOL    HW2 6847   1.883   7.851   3.939 -1.1097  2.2254  1.0503
 1614SOL     OW 6848   1.093   6.118   1.854 -0.1960  0.1269 -0.1922
 1614SOL    HW1 6849   1.071   6.074   1.936 -2.1365 -0.9056 -1.2138
 1614SOL    HW2 6850   1.068   6.209   1.868 -2.1678 -0.3770 -0.1687
 1615SOL     OW 6851   4.070   8.088   1.308  0.4041  0.5055 -0.3374
 1615SOL    HW1 6852   4.098   8.053   1.224  0.0772  0.2933 -0.3592
 1615SOL    HW2 6853   3.988   8.133   1.289  0.1505  0.1601 -0.0675
 1616SOL     OW 6854  10.664   6.988   3.814  0.2782  0.2653 -0.4394
 1616SOL    HW1 6855  10.690   6.897   3.826 -1.6120 -0.5389 -1.8853
 1616SOL    HW2 6856  10.744   7.039   3.829  1.1663 -1.5185  1.3182
 1617SOL     OW 6857  10.172   0.317   2.839 -0.3745 -0.0850  0.5828
 1617SOL    HW1 6858  10.247   0.348   2.788  0.9449 -1.0515  1.8521
 1617SOL    HW2 6859  10.210   0.291   2.924 -2.0462 -1.1845  1.0396
 1618SOL     OW 6860   7.552   6.221   5.830  0.8504 -0.1231  0.0308
 1618SOL    HW1 6861   7.621   6.256   5.773  0.9263 -0.3515 -0.0216
 1618SOL    HW2 6862   7.599   6.184   5.904  0.7470  0.2310  0.2745
 1619SOL     OW 6863   8.493   8.017   0.617  0.0219 -0.3862 -0.2747
 1619SOL    HW1 6864   8.502   8.108   0.646  1.8397 -0.4002 -0.6448
 1619SOL    HW2 6865   8.564   8.006   0.554 -0.6097 -1.8707 -0.7579
 1620SOL     OW 6866   7.343   4.237   9.516 -0.9123  0.0099  0.0621
 1620SOL    HW1 6867   7.369   4.149   9.541 -1.8022  0.2740  2.1043
 1620SOL    HW2 6868   7.425   4.287   9.514 -0.6042 -0.4635  0.6780
 1621SOL     OW 6869   9.112   0.158   1.063  0.6916 -0.4035 -0.4056
 1621SOL    HW1 6870   9.182   0.099   1.091  0.0232 -1.1038 -0.1502
 1621SOL    HW2 6871   9.075   0.116   0.985  2.0760  1.1676 -1.9763
 1622SOL     OW 6872   4.548   5.459  10.915  0.2340 -0.1855  0.0455
 1622SOL    HW1 6873   4.559   5.367  10.937  1.3627 -0.1998 -0.5333
 1622SOL    HW2 6874   4.563   5.463  10.820 -0.3525  0.5181 -0.0331
 1623SOL     OW 6875   9.477   4.311   2.230  0.1354  0.2001 -0.0050
 1623SOL    HW1 6876   9.420   4.368   2.282 -1.9462  0.5651 -2.4922
 1623SOL    HW2 6877   9.424   4.234   2.211  0.9198 -0.0582 -1.3083
 1624SOL     OW 6878   1.181   0.492  10.146 -0.1861  0.0258 -0.3464
 1624SOL    HW1 6879   1.181   0.422  10.212 -1.9956  0.6956  0.4225
 1624SOL    HW2 6880   1.172   0.447  10.062 -0.4148 -0.7187  0.0728
 1625SOL     OW 6881   3.920   2.880   0.977 -0.1642  0.3012  0.4313
 1625SOL    HW1 6882   3.929   2.969   1.011  0.9636 -0.1009  1.2527
 1625SOL    HW2 6883   3.851   2.887   0.911 -0.0555  1.7943  0.4286
 1626SOL     OW 6884   8.220  10.772   4.681 -0.0132  0.5871  0.0072
 1626SOL    HW1 6885   8.301  10.764   4.730 -1.1468 -0.1314  1.8810
 1626SOL    HW2 6886   8.234  10.847   4.623  2.4352 -0.3607 -0.7161
 1627SOL     OW 6887   0.637   7.472   7.842 -0.1582 -0.0224 -0.0830
 1627SOL    HW1 6888   0.638   7.430   7.928  3.6506  1.1258  0.6198
 1627SOL    HW2 6889   0.667   7.404   7.781 -2.2436 -0.6437 -0.5189
 1628SOL     OW 6890   6.268   3.467   1.673 -0.3130  0.5816  0.2580
 1628SOL    HW1 6891   6.187   3.464   1.724  0.4096  0.7965  1.4306
 1628SOL    HW2 6892   6.299   3.377   1.671 -0.4439  0.5393  0.0081
 1629SOL     OW 6893   5.031   1.018   8.881  0.2885 -0.1952  0.7075
 1629SOL    HW1 6894   5.081   0.964   8.942  3.7375 -1.6599 -2.9346
 1629SOL    HW2 6895   5.083   1.098   8.872 -2.2203  1.7795  2.3850
 1630SOL     OW 6896   8.335   2.417   9.244 -0.2271 -0.2090 -0.5257
 1630SOL    HW1 6897   8.286   2.478   9.189 -0.5730  0.6147  0.6728
 1630SOL    HW2 6898   8.281   2.405   9.321  1.7208  1.3222  1.2024
 1631SOL     OW 6899   8.961   7.203   4.083 -1.0712  0.4768 -0.1719
 1631SOL    HW1 6900   8.867   7.215   4.067 -1.1745  1.0608  0.7984
 1631SOL    HW2 6901   8.969   7.204   4.179 -0.3286 -1.6062 -0.1794
 1632SOL     OW 6902   4.804   7.049   4.408 -0.2264 -0.2992 -0.9517
 1632SOL    HW1 6903   4.826   7.003   4.327 -2.1359 -1.5868 -0.8059
 1632SOL    HW2 6904   4.780   6.979   4.469 -0.1482  0.7340  0.3076
 1633SOL     OW 6905   4.013   3.607   0.759 -0.1140  0.0974 -0.0963
 1633SOL    HW1 6906   4.047   3.522   0.731 -1.7643 -0.4209 -0.5921
 1633SOL    HW2 6907   3.992   3.595   0.852  3.8100  1.3410  1.1805
 1634SOL     OW 6908  10.543   9.620   5.433 -0.3295 -0.0199 -0.0334
 1634SOL    HW1 6909  10.573   9.585   5.349  1.2568 -0.2634  0.6063
 1634SOL    HW2 6910  10.541   9.715   5.421  2.0321  0.1176  0.2775
 1635SOL     OW 6911   5.318   4.678   4.959  0.3528 -0.1665 -0.6341
 1635SOL    HW1 6912   5.260   4.635   4.896  0.2567 -2.2123  0.7858
 1635SOL    HW2 6913   5.403   4.681   4.915 -0.0919 -0.0131 -1.5034
 1636SOL     OW 6914   7.337   6.770   1.154  0.0884  0.0990  0.8306
 1636SOL    HW1 6915   7.270   6.708   1.182 -0.6495  1.4021  2.1030
 1636SOL    HW2 6916   7.312   6.795   1.065  0.0635 -0.9640  0.5338
 1637SOL     OW 6917   7.736   5.739   7.171 -0.0821 -0.0043 -0.2560
 1637SOL    HW1 6918   7.828   5.746   7.195  0.3993  1.4798 -2.2566
 1637SOL    HW2 6919   7.697   5.822   7.199 -0.9324 -0.7798  0.9349
 1638SOL     OW 6920   1.915   8.456   5.456  0.2525 -0.4791 -0.3633
 1638SOL    HW1 6921   1.820   8.457   5.458  0.1928  0.8151  3.3285
 1638SOL    HW2 6922   1.939   8.365   5.476 -0.2277 -0.5860 -0.2708
 1639SOL     OW 6923   9.518   5.688   5.978 -0.0191  0.0075 -0.4141
 1639SOL    HW1 6924   9.441   5.732   6.015 -0.5482 -0.8273 -0.5034
 1639SOL    HW2 6925   9.535   5.735   5.896 -0.4761  0.1488 -0.4321
 1640SOL     OW 6926   6.391   5.173   6.322 -0.1449 -0.4349  0.3547
 1640SOL    HW1 6927   6.398   5.114   6.247 -0.8772 -1.7228  1.2649
 1640SOL    HW2 6928   6.325   5.133   6.378 -0.1108  0.8668  1.3735
 1641SOL     OW 6929   3.387   2.607   8.372  0.1315 -0.5211 -0.3089
 1641SOL    HW1 6930   3.396   2.702   8.367  0.4197 -0.4860  0.7507
 1641SOL    HW2 6931   3.388   2.579   8.280  1.1476  0.3985 -0.6031
 1642SOL     OW 6932   8.311   7.581   3.524 -0.2646 -0.5551 -0.1278
 1642SOL    HW1 6933   8.369   7.518   3.480 -1.5385 -1.0163 -1.2283
 1642SOL    HW2 6934   8.256   7.527   3.580 -1.6128 -0.5113 -1.3576
 1643SOL     OW 6935   1.878   6.209   1.947  0.0147 -0.0872 -0.2677
 1643SOL    HW1 6936   1.936   6.149   1.993  0.9215 -0.3300 -1.6812
 1643SOL    HW2 6937   1.932   6.246   1.877 -0.3210  2.8287  0.8724
 1644SOL     OW 6938  10.609  10.493   8.881  0.0992  0.3853 -0.1670
 1644SOL    HW1 6939  10.543  10.559   8.857  0.5883  0.6752 -0.7491
 1644SOL    HW2 6940  10.580  10.413   8.837 -0.0818  0.4068 -0.0872
 1645SOL     OW 6941   3.627   0.758   0.107  0.1793 -0.0445 -0.0981
 1645SOL    HW1 6942   3.541   0.784   0.140  0.3607  0.8435 -0.3003
 1645SOL    HW2 6943   3.685   0.764   0.184  0.3742  0.9292 -0.3047
 1646SOL     OW 6944  10.419   9.853  10.457  0.5348 -0.0981 -0.2743
 1646SOL    HW1 6945  10.371   9.873  10.377 -1.3898 -0.7581  0.6661
 1646SOL    HW2 6946  10.463   9.770  10.438 -2.5240 -2.0141  0.3168
 1647SOL     OW 6947   9.320   4.755   9.235 -0.5017 -0.3252 -0.1219
 1647SOL    HW1 6948   9.239   4.806   9.228 -0.3258 -0.2132 -1.7057
 1647SOL    HW2 6949   9.296   4.679   9.287 -0.7883  1.2989  2.2695
 1648SOL     OW 6950   1.539   5.215   7.016  0.3094  0.5412  0.1213
 1648SOL    HW1 6951   1.569   5.190   7.103  2.5048  0.5885 -0.5583
 1648SOL    HW2 6952   1.475   5.148   6.993  0.3071  0.0563  1.4414
 1649SOL     OW 6953   3.565   9.477   1.663 -0.0758 -0.0089 -0.3160
 1649SOL    HW1 6954   3.550   9.438   1.749 -0.1261 -0.7328 -0.6480
 1649SOL    HW2 6955   3.646   9.436   1.632 -0.4426 -0.2930 -0.9158
 1650SOL     OW 6956   0.007   1.286   7.010 -0.0749 -0.0848 -0.2948
 1650SOL    HW1 6957  -0.080   1.314   7.037  0.5665  0.7473  1.0404
 1650SOL    HW2 6958  -0.001   1.191   6.996 -1.1845 -0.0111 -0.2593
 1651SOL     OW 6959   6.204  10.794   1.471 -0.4975 -0.1168  0.5654
 1651SOL    HW1 6960   6.242  10.880   1.456 -0.6347  0.5998  3.5629
 1651SOL    HW2 6961   6.276  10.732   1.457 -0.0544  0.6024 -0.3729
 1652SOL     OW 6962   2.641   6.449   2.454 -0.0079  0.2575  0.6868
 1652SOL    HW1 6963   2.597   6.532   2.473 -1.1518 -0.4860  1.5084
 1652SOL    HW2 6964   2.578   6.382   2.483 -0.4824 -1.0012 -2.7751
 1653SOL     OW 6965  10.966   3.975   6.197 -0.1262 -0.3437 -1.0281
 1653SOL    HW1 6966  11.033   3.915   6.228  0.8177 -0.0747 -2.4513
 1653SOL    HW2 6967  10.996   4.061   6.226 -1.4309 -0.4988  0.9306
 1654SOL     OW 6968   2.078   4.011   9.280  0.3487  0.3863 -0.4901
 1654SOL    HW1 6969   2.130   4.091   9.292 -0.0679  0.5035  0.6357
 1654SOL    HW2 6970   2.127   3.943   9.325  0.5789  0.0412 -1.2407
 1655SOL     OW 6971   5.747   4.792   6.381  0.1297  0.2563 -0.3074
 1655SOL    HW1 6972   5.713   4.842   6.456 -0.5414 -0.0153 -0.4272
 1655SOL    HW2 6973   5.838   4.773   6.405  0.2868  1.1942 -0.0855
 1656SOL     OW 6974   4.106   2.699   0.801  0.3203 -0.6662 -0.4468
 1656SOL    HW1 6975   4.056   2.741   0.871  1.9504 -0.4342  0.6337
 1656SOL    HW2 6976   4.136   2.772   0.746  0.0174 -0.7487 -0.7249
 1657SOL     OW 6977   6.711   8.623   7.557  0.2240  0.1934  0.7091
 1657SOL    HW1 6978   6.639   8.643   7.496 -0.1701  0.3768  1.2213
 1657SOL    HW2 6979   6.785   8.600   7.501 -0.8129 -2.1385  0.1579
 1658SOL     OW 6980   4.641   6.593   9.560  0.0385  0.0319  0.0398
 1658SOL    HW1 6981   4.570   6.579   9.496  0.5771  0.5586 -0.6904
 1658SOL    HW2 6982   4.633   6.686   9.584  1.1998  0.4129 -0.9570
 1659SOL     OW 6983   2.901   8.297   1.053 -0.1426 -0.3818 -0.1996
 1659SOL    HW1 6984   2.844   8.354   1.104  3.0155  1.4260  1.6913
 1659SOL    HW2 6985   2.881   8.318   0.962 -0.6799  2.1345  0.4217
 1660SOL     OW 6986   8.684   5.669   4.752  0.1055  0.5955 -0.9833
 1660SOL    HW1 6987   8.759   5.674   4.811  0.7810 -0.6503 -1.6873
 1660SOL    HW2 6988   8.612   5.709   4.800  0.7402 -0.0065  0.5143
 1661SOL     OW 6989   6.642   3.765   8.867 -0.4324 -0.0106  0.1418
 1661SOL    HW1 6990   6.604   3.733   8.948 -0.7971  1.2668  0.5025
 1661SOL    HW2 6991   6.632   3.693   8.805 -1.1420 -0.6027  0.9279
 1662SOL     OW 6992   4.516   9.596   4.451 -0.3827 -0.0734  0.7118
 1662SOL    HW1 6993   4.508   9.501   4.444 -3.2167 -0.0092  1.7114
 1662SOL    HW2 6994   4.524   9.626   4.360 -1.6481 -1.1784  0.2002
 1663SOL     OW 6995  10.203  10.477   1.724 -0.0459 -0.1621 -0.4323
 1663SOL    HW1 6996  10.116  10.501   1.756  0.4100  0.1172  0.6307
 1663SOL    HW2 6997  10.186  10.411   1.657 -0.9704 -2.7654  2.1620
 1664SOL     OW 6998   2.772   6.972   0.061 -0.2073  0.8939  0.0727
 1664SOL    HW1 6999   2.802   6.911  -0.006 -0.9545  1.3868 -0.7364
 1664SOL    HW2 7000   2.717   6.920   0.120  0.0493  0.5649  0.0199
 1665SOL     OW 7001   0.659   9.708   7.263  0.9153  0.0817 -0.0604
 1665SOL    HW1 7002   0.715   9.639   7.298  1.0339 -0.2409 -0.8604
 1665SOL    HW2 7003   0.652   9.772   7.334 -1.2677 -1.9041  1.6500
 1666SOL     OW 7004   2.977   3.481  11.040 -0.5338  0.1284  0.6949
 1666SOL    HW1 7005   2.883   3.498  11.033 -0.0911  2.2560 -3.0259
 1666SOL    HW2 7006   2.993   3.411  10.977  0.2343 -1.4978  2.6055
 1667SOL     OW 7007   9.720  10.547   8.250 -0.1770 -0.3745 -0.1333
 1667SOL    HW1 7008   9.776  10.525   8.325  1.3303  1.7002 -0.5703
 1667SOL    HW2 7009   9.758  10.498   8.177  2.5983  2.6105 -0.9056
 1668SOL     OW 7010   7.185   3.374   1.431 -0.2793  0.3543 -0.2012
 1668SOL    HW1 7011   7.109   3.401   1.380  0.3664  0.1189 -1.3265
 1668SOL    HW2 7012   7.260   3.393   1.374  0.6895  2.2636  1.5575
 1669SOL     OW 7013   7.282   1.132   3.547 -0.2628 -0.3658 -0.9585
 1669SOL    HW1 7014   7.203   1.165   3.505 -2.6661  1.2431  4.0237
 1669SOL    HW2 7015   7.323   1.210   3.585  0.5214 -1.7662  1.2481
 1670SOL     OW 7016   8.713   8.761   3.163  1.2918  0.1771  0.0066
 1670SOL    HW1 7017   8.657   8.779   3.239  1.1457  1.3340 -0.3460
 1670SOL    HW2 7018   8.748   8.847   3.139  1.0531 -0.1131 -1.4482
 1671SOL     OW 7019   9.728   7.288   8.257 -0.1102 -0.2243 -0.1473
 1671SOL    HW1 7020   9.654   7.302   8.316  0.7438  1.6350  0.5756
 1671SOL    HW2 7021   9.691   7.242   8.182 -1.4187 -1.8341  1.3961
 1672SOL     OW 7022   5.247   1.592   1.942 -0.4919  0.0895  0.0320
 1672SOL    HW1 7023   5.202   1.676   1.941 -0.6646 -0.0042 -0.2684
 1672SOL    HW2 7024   5.338   1.613   1.923 -0.7448  0.0965 -1.2708
 1673SOL     OW 7025   3.540  10.966   3.260 -0.1015  0.4355  0.0776
 1673SOL    HW1 7026   3.461  10.960   3.315 -0.2946 -3.3457 -0.3739
 1673SOL    HW2 7027   3.609  10.926   3.313  0.5567  0.0188 -1.0758
 1674SOL     OW 7028   5.490   1.812   4.949  0.2927 -0.2222  0.5679
 1674SOL    HW1 7029   5.449   1.815   4.862  0.3763  0.9460  0.5536
 1674SOL    HW2 7030   5.541   1.731   4.948 -0.2428 -0.5710 -0.2221
 1675SOL     OW 7031   3.200   5.956   9.212 -0.0856 -0.1931  0.6692
 1675SOL    HW1 7032   3.227   5.868   9.238 -0.3048  0.1602  2.2000
 1675SOL    HW2 7033   3.248   6.014   9.272 -1.1058  0.6440  0.7058
 1676SOL     OW 7034   3.522  10.632   7.481  0.3994  0.2086 -0.1565
 1676SOL    HW1 7035   3.487  10.660   7.396  1.0027 -0.7827 -0.7649
 1676SOL    HW2 7036   3.609  10.673   7.486  1.1090 -1.1272 -0.8592
 1677SOL     OW 7037  10.254   3.026   0.806  0.0319  0.2424  0.0034
 1677SOL    HW1 7038  10.312   2.963   0.849 -1.5015 -1.0838  0.2473
 1677SOL    HW2 7039  10.166   3.001   0.836 -0.7271  1.7568 -0.8575
 1678SOL     OW 7040   6.415  10.208   6.712 -0.1165  0.2261 -0.7015
 1678SOL    HW1 7041   6.444  10.299   6.711 -2.4557  1.0409 -0.1266
 1678SOL    HW2 7042   6.334  10.209   6.762  0.5185 -2.4402  0.5868
 1679SOL     OW 7043   5.435   1.295   3.077  0.4834 -0.2812 -0.0032
 1679SOL    HW1 7044   5.498   1.244   3.127 -2.2487 -2.3710  1.5559
 1679SOL    HW2 7045   5.437   1.257   2.989 -1.1546 -3.0320  0.9992
 1680SOL     OW 7046   0.679   6.189   3.330  0.1188 -0.6035 -0.1848
 1680SOL    HW1 7047   0.764   6.180   3.373  0.9292  1.7380 -1.1055
 1680SOL    HW2 7048   0.693   6.160   3.240 -0.8136 -2.7251  0.2960
 1681SOL     OW 7049   1.248   3.342   5.885 -0.0239  0.4219 -0.1480
 1681SOL    HW1 7050   1.196   3.282   5.832  1.6477 -1.5111  0.2690
 1681SOL    HW2 7051   1.184   3.402   5.924 -1.5047  0.4554 -2.4774
 1682SOL     OW 7052   7.113   4.233   8.039 -0.2454  0.0133  0.3643
 1682SOL    HW1 7053   7.073   4.225   7.953  0.8881 -1.3392 -0.0650
 1682SOL    HW2 7054   7.202   4.201   8.028 -0.0660 -0.1557  2.0289
 1683SOL     OW 7055  10.665   6.702  10.768 -0.4976  0.4617  0.4241
 1683SOL    HW1 7056  10.752   6.686  10.803 -0.0549  2.6714  0.4212
 1683SOL    HW2 7057  10.633   6.779  10.815 -2.7007 -0.6095  0.8267
 1684SOL     OW 7058   4.240   8.752   0.175 -0.0802  0.1496 -0.2119
 1684SOL    HW1 7059   4.162   8.799   0.205 -0.3881 -1.2617  1.4251
 1684SOL    HW2 7060   4.245   8.770   0.082 -2.5226  0.1263 -0.4221
 1685SOL     OW 7061   0.149   1.517   5.330 -0.2478  0.3737 -0.0495
 1685SOL    HW1 7062   0.106   1.464   5.397 -1.3875 -0.1519 -1.1548
 1685SOL    HW2 7063   0.094   1.507   5.252 -0.4136  3.0143 -0.3849
 1686SOL     OW 7064   7.838   7.729   4.474  0.1564 -0.2506 -0.0957
 1686SOL    HW1 7065   7.842   7.692   4.386 -1.8255  1.0118 -0.7955
 1686SOL    HW2 7066   7.787   7.666   4.524  2.4714 -1.6781  0.6238
 1687SOL     OW 7067   5.049  10.357   5.919 -0.7936 -0.1113 -0.3228
 1687SOL    HW1 7068   4.973  10.306   5.948 -0.4982 -0.4099 -0.0705
 1687SOL    HW2 7069   5.124  10.304   5.945 -0.5104 -0.6069 -2.0135
 1688SOL     OW 7070   4.460   5.227   7.019 -0.7641  0.5098  0.2861
 1688SOL    HW1 7071   4.545   5.247   6.982 -0.7489 -0.8525 -0.4986
 1688SOL    HW2 7072   4.468   5.137   7.050 -2.6183 -0.5943 -2.1078
 1689SOL     OW 7073   5.132   8.687   9.368  0.0772  0.5463  0.1470
 1689SOL    HW1 7074   5.111   8.682   9.462  1.3118 -0.2109  0.4001
 1689SOL    HW2 7075   5.107   8.777   9.343 -0.7233  0.6050  1.0676
 1690SOL     OW 7076  10.039   7.508   7.555  0.6897 -0.6117  0.0868
 1690SOL    HW1 7077   9.949   7.489   7.529 -0.7707  1.4874  3.1028
 1690SOL    HW2 7078  10.062   7.587   7.505  0.5231 -0.6352 -0.0259
 1691SOL     OW 7079   3.809   6.752   8.463  0.3823 -0.3910  0.7307
 1691SOL    HW1 7080   3.779   6.747   8.372  3.4406 -0.5299 -0.4038
 1691SOL    HW2 7081   3.820   6.661   8.489 -1.1251 -0.3682  1.5255
 1692SOL     OW 7082   3.334   0.658   9.460 -0.1549  0.7274  0.0194
 1692SOL    HW1 7083   3.296   0.740   9.427 -1.8322 -0.8076 -2.0917
 1692SOL    HW2 7084   3.271   0.591   9.437  1.8917 -1.4218  0.2770
 1693SOL     OW 7085   9.797   7.648   8.449  0.0199 -0.5313 -0.5141
 1693SOL    HW1 7086   9.796   7.607   8.536 -2.0345 -0.4770 -0.4782
 1693SOL    HW2 7087   9.842   7.731   8.462 -0.3486 -0.4825  0.5060
 1694SOL     OW 7088   3.371   6.456   6.365  0.5547 -0.4669 -0.4871
 1694SOL    HW1 7089   3.423   6.509   6.305 -2.2185  0.1213 -2.6028
 1694SOL    HW2 7090   3.284   6.497   6.365 -0.9330 -3.2990  0.0248
 1695SOL     OW 7091   4.937   9.927   4.899  0.0290 -0.3604  1.0389
 1695SOL    HW1 7092   5.022   9.886   4.911  0.4235  0.2509  0.4462
 1695SOL    HW2 7093   4.929   9.990   4.971  0.5425  0.3185  0.5129
 1696SOL     OW 7094   0.495   2.440   1.491  0.7300  0.5334 -0.3559
 1696SOL    HW1 7095   0.438   2.479   1.557  1.2414 -0.4394  0.6908
 1696SOL    HW2 7096   0.579   2.485   1.502  0.3556  1.5888 -1.5379
 1697SOL     OW 7097   6.237   1.987   0.187  0.0005 -0.3507  0.0739
 1697SOL    HW1 7098   6.186   2.021   0.114  0.9082  0.8949 -0.0187
 1697SOL    HW2 7099   6.288   2.063   0.217  1.7550 -1.5377  0.1873
 1698SOL     OW 7100  10.849   9.006   1.392  0.5813 -0.5019 -0.0796
 1698SOL    HW1 7101  10.841   8.929   1.449 -1.9309 -0.9292 -0.8969
 1698SOL    HW2 7102  10.797   9.073   1.436 -0.9902 -0.6908 -1.5393
 1699SOL     OW 7103   3.755   8.326   6.166  0.1835  0.5128 -0.8446
 1699SOL    HW1 7104   3.675   8.309   6.116  0.5536  0.8310 -1.5543
 1699SOL    HW2 7105   3.806   8.246   6.157 -0.0724  0.2829 -0.3342
 1700SOL     OW 7106   5.288   8.473   9.327  0.0548 -0.0416 -0.1989
 1700SOL    HW1 7107   5.357   8.488   9.391 -1.0497 -1.9021  1.5648
 1700SOL    HW2 7108   5.236   8.554   9.327  0.4574  0.2291  0.7892
 1701SOL     OW 7109   1.091   7.721   6.309  0.3103  0.3273 -0.1655
 1701SOL    HW1 7110   1.085   7.814   6.329 -0.1988  0.1231  0.6980
 1701SOL    HW2 7111   1.008   7.685   6.341  0.9374 -0.5903  0.4663
 1702SOL     OW 7112   2.805   4.556   3.439  0.2436  0.2025  0.1713
 1702SOL    HW1 7113   2.835   4.555   3.530 -0.7787  1.5942  0.5486
 1702SOL    HW2 7114   2.749   4.634   3.433 -0.9118 -0.7025 -1.2650
 1703SOL     OW 7115   9.181   0.949   2.818  0.3942  0.2737  0.1722
 1703SOL    HW1 7116   9.205   0.949   2.725  0.8644 -0.0764  0.2858
 1703SOL    HW2 7117   9.208   1.035   2.850 -0.1369  0.5436 -0.1063
 1704SOL     OW 7118   7.291   3.519   0.898  0.0175 -0.8689 -0.3752
 1704SOL    HW1 7119   7.352   3.546   0.829 -0.9863  0.4454 -0.7774
 1704SOL    HW2 7120   7.240   3.448   0.859  1.1296 -1.8593 -0.0958
 1705SOL     OW 7121   8.595   4.021   8.200 -0.1831  0.8558 -0.2005
 1705SOL    HW1 7122   8.591   3.956   8.130 -1.1176 -0.8444  1.3529
 1705SOL    HW2 7123   8.667   4.079   8.174 -0.6792  0.5005 -2.6890
 1706SOL     OW 7124   3.310  10.577   1.246 -0.2394 -0.8143 -0.7161
 1706SOL    HW1 7125   3.280  10.581   1.337  0.9272 -0.0515 -0.3401
 1706SOL    HW2 7126   3.288  10.489   1.217 -2.3141 -0.4786 -0.3073
 1707SOL     OW 7127   2.042   8.100   6.573  0.2072 -1.0000  0.7257
 1707SOL    HW1 7128   1.960   8.101   6.524  0.0712  2.5751  0.7870
 1707SOL    HW2 7129   2.110   8.090   6.506 -0.1392  0.4889  0.1005
 1708SOL     OW 7130   6.433  10.023   6.114 -0.0441 -0.0410 -0.4392
 1708SOL    HW1 7131   6.380   9.973   6.176  3.0802 -2.4799  0.5552
 1708SOL    HW2 7132   6.445  10.108   6.156 -1.4183 -0.1666  0.2531
 1709SOL     OW 7133   8.366   2.305   8.971 -0.7175  0.2231 -0.6605
 1709SOL    HW1 7134   8.275   2.276   8.959 -0.8981  0.5092 -0.0219
 1709SOL    HW2 7135   8.374   2.319   9.066 -0.2101  0.8724 -0.7943
 1710SOL     OW 7136  10.855   6.139   5.862  0.1995 -0.3352  0.0632
 1710SOL    HW1 7137  10.923   6.084   5.900  0.0783 -0.1166  0.5998
 1710SOL    HW2 7138  10.795   6.077   5.820 -0.4852 -0.7014  1.5384
 1711SOL     OW 7139   1.068   5.778   8.832  0.1676  0.4739 -0.6300
 1711SOL    HW1 7140   1.129   5.823   8.774 -0.7249  2.1828 -0.3045
 1711SOL    HW2 7141   0.999   5.745   8.774 -0.2383  1.3673 -0.6840
 1712SOL     OW 7142   4.136   5.186   2.119 -0.5564 -0.0907 -0.3704
 1712SOL    HW1 7143   4.074   5.187   2.192 -0.9532  0.7354 -0.7066
 1712SOL    HW2 7144   4.212   5.234   2.151  0.0200 -1.2652  0.1088
 1713SOL     OW 7145   4.937   1.556   1.015  0.1489  0.3081 -0.0279
 1713SOL    HW1 7146   5.019   1.529   1.056 -1.0344  0.6662  2.8488
 1713SOL    HW2 7147   4.960   1.631   0.962  1.8790 -0.4300 -0.3881
 1714SOL     OW 7148   1.927   9.038  10.291  0.7174 -0.0962 -0.0562
 1714SOL    HW1 7149   2.021   9.031  10.309  0.4024 -2.7994  1.0612
 1714SOL    HW2 7150   1.889   9.069  10.374  0.7265  3.1632 -1.1294
 1715SOL     OW 7151   3.883   8.300  10.005 -0.0592  0.4986  0.5618
 1715SOL    HW1 7152   3.923   8.227   9.956 -1.7939 -0.4388  0.4401
 1715SOL    HW2 7153   3.948   8.325  10.070  1.0188 -0.4197 -0.1362
 1716SOL     OW 7154   1.528   0.126   3.054 -0.4362 -0.2296  0.0586
 1716SOL    HW1 7155   1.537   0.140   3.148  0.4368  0.5986 -0.1348
 1716SOL    HW2 7156   1.433   0.120   3.040 -0.5515 -2.0135  1.1909
 1717SOL     OW 7157   4.621   4.638   6.016  0.4660 -0.4062  0.0170
 1717SOL    HW1 7158   4.656   4.629   6.105  0.5270  0.3708  0.0835
 1717SOL    HW2 7159   4.542   4.585   6.016  1.5379 -2.0810 -0.0963
 1718SOL     OW 7160   5.923   1.950   0.216 -0.4995  0.2366  0.0676
 1718SOL    HW1 7161   6.004   1.947   0.166 -0.0582  0.7335  0.7265
 1718SOL    HW2 7162   5.918   2.040   0.249 -1.5776  0.3501 -0.3773
 1719SOL     OW 7163   3.520   6.797   4.643 -0.3549  0.1488  0.1829
 1719SOL    HW1 7164   3.534   6.853   4.719 -2.2693  0.3887  0.4243
 1719SOL    HW2 7165   3.469   6.852   4.582  2.6213  0.6173 -2.1295
 1720SOL     OW 7166   1.385   1.952   4.446 -0.7239  0.2242  0.8096
 1720SOL    HW1 7167   1.330   1.969   4.523 -1.4971 -1.2566  0.6232
 1720SOL    HW2 7168   1.326   1.964   4.372 -0.0739  1.2924  0.4458
 1721SOL     OW 7169   4.570   4.840   9.221 -0.6081  0.1606 -0.3939
 1721SOL    HW1 7170   4.549   4.835   9.127  3.1525 -0.7880 -1.3306
 1721SOL    HW2 7171   4.569   4.750   9.251  2.6798 -0.1427 -0.8066
 1722SOL     OW 7172   2.352   3.018   3.714  0.0450 -0.2823  0.0865
 1722SOL    HW1 7173   2.365   3.101   3.760  1.0545 -0.6768  0.5475
 1722SOL    HW2 7174   2.258   3.001   3.720 -0.1482  0.7486  0.1111
 1723SOL     OW 7175   4.224   7.321   3.783 -0.3027  0.1165 -0.1053
 1723SOL    HW1 7176   4.216   7.408   3.745 -1.7254 -0.2128 -0.6328
 1723SOL    HW2 7177   4.317   7.301   3.779 -0.1043  1.1448 -1.0260
 1724SOL     OW 7178   8.830  10.864   6.809 -0.3901  0.0740  0.1225
 1724SOL    HW1 7179   8.764  10.929   6.785  0.0842 -0.0953 -1.7965
 1724SOL    HW2 7180   8.913  10.901   6.778 -0.0502 -1.2039 -0.5663
 1725SOL     OW 7181   6.208   1.604   8.308  0.1486  0.3674  0.2244
 1725SOL    HW1 7182   6.142   1.536   8.320  1.0500 -0.7161 -0.7991
 1725SOL    HW2 7183   6.165   1.684   8.340 -1.5606 -0.3434 -0.1603
 1726SOL     OW 7184   1.763   7.331   0.982  0.1365  0.8436 -0.9383
 1726SOL    HW1 7185   1.766   7.330   0.886  1.3243 -2.0416 -0.9829
 1726SOL    HW2 7186   1.849   7.367   1.007  2.1555 -3.1976 -1.1827
 1727SOL     OW 7187   9.841   1.721   6.845 -0.7837  0.5156  0.4322
 1727SOL    HW1 7188   9.844   1.805   6.891 -1.0791  2.1314 -2.2957
 1727SOL    HW2 7189   9.912   1.725   6.781  1.0198 -2.5566  1.9922
 1728SOL     OW 7190   3.709   0.953   3.941  0.0886  0.1238 -0.3030
 1728SOL    HW1 7191   3.616   0.974   3.938  0.1231  0.4708  0.6392
 1728SOL    HW2 7192   3.719   0.902   4.021  0.6686 -0.1606 -0.5490
 1729SOL     OW 7193   2.367   5.771   7.753  0.2626 -0.0707 -0.1622
 1729SOL    HW1 7194   2.393   5.862   7.740 -0.0925 -0.1864 -1.8933
 1729SOL    HW2 7195   2.335   5.767   7.843  1.1307  1.3002  0.2187
 1730SOL     OW 7196   0.215   2.717   6.695  0.5048  0.4825  0.1302
 1730SOL    HW1 7197   0.150   2.707   6.625 -0.5090  0.5727  1.0352
 1730SOL    HW2 7198   0.283   2.654   6.674  0.6267  1.0649 -1.3819
 1731SOL     OW 7199   5.678   7.168   7.761  0.2603 -0.6010  0.5660
 1731SOL    HW1 7200   5.618   7.109   7.808  1.0761 -0.4680  1.8068
 1731SOL    HW2 7201   5.654   7.255   7.791 -0.2887 -0.3710 -0.5197
 1732SOL     OW 7202   4.019   8.213   2.989  0.4475  0.2612  0.0389
 1732SOL    HW1 7203   4.040   8.124   3.017 -0.2744  0.3272  0.8531
 1732SOL    HW2 7204   4.099   8.246   2.948  2.1907  0.7191  3.4654
 1733SOL     OW 7205   8.033   7.751   0.028 -0.2747  0.0362 -0.2359
 1733SOL    HW1 7206   8.099   7.764   0.096  0.1331  1.4244 -0.8592
 1733SOL    HW2 7207   7.992   7.837   0.017 -1.5205 -0.5751 -0.5449
 1734SOL     OW 7208   3.034   4.109   6.851  0.3332  0.3028  0.3805
 1734SOL    HW1 7209   2.940   4.117   6.838  0.3984 -0.2923 -0.4892
 1734SOL    HW2 7210   3.067   4.197   6.834 -0.1128  0.6476  1.2251
 1735SOL     OW 7211   5.106   9.778   2.568 -0.3162 -0.0073  0.0131
 1735SOL    HW1 7212   5.099   9.750   2.476 -1.5328  2.0622 -0.5743
 1735SOL    HW2 7213   5.199   9.764   2.590 -0.5131 -3.0618 -0.6142
 1736SOL     OW 7214   6.727   4.189   6.906  0.5416  0.2041 -0.2411
 1736SOL    HW1 7215   6.711   4.248   6.980 -0.5606 -0.2936 -0.0615
 1736SOL    HW2 7216   6.819   4.201   6.886 -0.1028  3.9813 -1.8863
 1737SOL     OW 7217   1.453   3.166   7.339  0.3796 -0.1935  0.0966
 1737SOL    HW1 7218   1.395   3.238   7.366 -1.1618 -1.8033  1.3236
 1737SOL    HW2 7219   1.518   3.160   7.408  1.6743  1.1425 -0.9251
 1738SOL     OW 7220   4.075  10.826   7.709 -0.3954 -0.1766  0.0857
 1738SOL    HW1 7221   4.003  10.886   7.728 -1.5269 -1.4498 -0.0943
 1738SOL    HW2 7222   4.112  10.858   7.626 -2.6215 -1.1669 -1.3681
 1739SOL     OW 7223   3.733   6.521   3.500 -0.6844  0.5537  0.7470
 1739SOL    HW1 7224   3.678   6.571   3.440 -0.2713  0.9882  0.7285
 1739SOL    HW2 7225   3.715   6.557   3.586 -2.6276 -1.2502  1.1706
 1740SOL     OW 7226  10.840   6.236   7.418 -0.0722 -0.4365  0.1915
 1740SOL    HW1 7227  10.758   6.280   7.438 -0.1273 -0.7588  0.6945
 1740SOL    HW2 7228  10.831   6.149   7.457  0.7498 -0.2633  0.7986
 1741SOL     OW 7229   8.224   4.453   2.018  0.0196 -0.1853  0.9316
 1741SOL    HW1 7230   8.149   4.447   2.077  0.1855 -0.3607  1.1234
 1741SOL    HW2 7231   8.230   4.366   1.978  1.0207 -0.6499  2.0180
 1742SOL     OW 7232   6.351   4.830   2.773 -0.2003  0.4324  0.2211
 1742SOL    HW1 7233   6.292   4.764   2.811 -0.2669  0.4462  0.1433
 1742SOL    HW2 7234   6.408   4.781   2.715 -0.5017  0.4932 -0.1320
 1743SOL     OW 7235   1.699   5.801   1.517 -0.2845 -0.0400  0.8115
 1743SOL    HW1 7236   1.742   5.840   1.441 -0.6871  1.7414  1.4415
 1743SOL    HW2 7237   1.674   5.876   1.571  1.4602 -1.2764  3.5527
 1744SOL     OW 7238   0.307   4.053   3.444 -0.3118  0.4268 -0.2190
 1744SOL    HW1 7239   0.377   3.988   3.442 -0.6267  0.0945 -0.4383
 1744SOL    HW2 7240   0.347   4.129   3.488  0.1629  0.2182 -0.2793
 1745SOL     OW 7241   0.581   7.158   4.123  0.6231 -0.1620  0.2027
 1745SOL    HW1 7242   0.550   7.082   4.074  1.8346 -0.4798 -0.1175
 1745SOL    HW2 7243   0.533   7.232   4.087  0.9024 -0.5113 -0.9141
 1746SOL     OW 7244   7.791   6.164   0.392  0.0784 -0.3725 -0.6549
 1746SOL    HW1 7245   7.735   6.099   0.348 -1.2190 -0.6440  1.2607
 1746SOL    HW2 7246   7.869   6.114   0.417 -0.4531 -0.9681 -0.1237
 1747SOL     OW 7247   0.219   1.119   9.276  0.1282  0.1586 -0.1261
 1747SOL    HW1 7248   0.131   1.122   9.313  0.2362  1.0052  0.0664
 1747SOL    HW2 7249   0.229   1.201   9.229 -0.5153 -1.4107 -3.3079
 1748SOL     OW 7250   5.688   1.242   0.787 -0.1084 -0.5251 -0.1018
 1748SOL    HW1 7251   5.664   1.324   0.830  2.8397  0.4779 -0.1078
 1748SOL    HW2 7252   5.670   1.174   0.852  4.1347  0.9115  3.0366
 1749SOL     OW 7253   1.457   4.605   7.856  0.1656  0.5762 -0.9021
 1749SOL    HW1 7254   1.402   4.667   7.904 -0.5454 -0.4372 -0.3563
 1749SOL    HW2 7255   1.397   4.534   7.831  1.3952 -1.0922  0.6275
 1750SOL     OW 7256   2.228   0.106   4.056  0.3476 -0.1780  0.0387
 1750SOL    HW1 7257   2.323   0.117   4.044  0.4443 -1.8648 -1.0931
 1750SOL    HW2 7258   2.220   0.028   4.111 -0.3962  0.2335  0.5339
 1751SOL     OW 7259   0.649   9.150   3.318  0.5659  0.2013  0.5217
 1751SOL    HW1 7260   0.620   9.074   3.369 -2.7240  2.7636  2.8949
 1751SOL    HW2 7261   0.628   9.127   3.227  0.5303 -2.0160  1.0278
 1752SOL     OW 7262   4.899   9.816   9.912 -0.4518 -0.4574 -0.1520
 1752SOL    HW1 7263   4.813   9.776   9.898 -0.3569 -0.3583 -1.0505
 1752SOL    HW2 7264   4.930   9.839   9.825 -1.5485  3.8449  0.3380
 1753SOL     OW 7265  10.939   7.265  10.872 -0.1397 -0.4890 -0.9433
 1753SOL    HW1 7266  10.924   7.171  10.883  0.0414 -0.3157  1.1291
 1753SOL    HW2 7267  10.934   7.279  10.777 -3.9289 -1.9616 -1.1424
 1754SOL     OW 7268   5.977   2.741   3.328 -0.1124 -0.0081  0.8728
 1754SOL    HW1 7269   5.889   2.718   3.298 -0.2351  1.1240  0.2744
 1754SOL    HW2 7270   6.035   2.704   3.262 -0.2798  0.9723  0.1495
 1755SOL     OW 7271   3.151   1.371   4.730  0.3450  0.2697  0.2728
 1755SOL    HW1 7272   3.110   1.446   4.774  0.5010 -0.2920  1.4100
 1755SOL    HW2 7273   3.117   1.295   4.776  0.1212 -0.3783 -0.9311
 1756SOL     OW 7274   0.709   3.215   4.156  0.2330 -0.0533  0.5998
 1756SOL    HW1 7275   0.680   3.199   4.066 -0.7617  0.2836  0.8514
 1756SOL    HW2 7276   0.804   3.204   4.153  0.5195  2.1632 -0.9908
 1757SOL     OW 7277   2.454  10.084   4.342 -0.4788  0.1876 -0.3736
 1757SOL    HW1 7278   2.450   9.998   4.384 -1.0612  0.2465 -0.3040
 1757SOL    HW2 7279   2.390  10.137   4.388 -0.3818  0.5569 -0.6561
 1758SOL     OW 7280   4.940   2.100   3.541  0.1720  0.1046 -0.1055
 1758SOL    HW1 7281   5.005   2.151   3.589 -0.0424  3.9030 -3.3844
 1758SOL    HW2 7282   4.856   2.133   3.572 -0.0353  0.1716 -0.7274
 1759SOL     OW 7283   7.059   3.913   0.186  0.0185  0.3602 -0.1697
 1759SOL    HW1 7284   7.006   3.976   0.137 -0.4603  0.9992  1.1285
 1759SOL    HW2 7285   7.001   3.881   0.255  0.5457 -0.8371 -0.2542
 1760SOL     OW 7286   8.587   3.202   5.211  0.4576  0.0681 -0.4689
 1760SOL    HW1 7287   8.597   3.263   5.138  1.6627 -1.8820 -2.0783
 1760SOL    HW2 7288   8.571   3.117   5.169 -0.9113 -0.8123  1.6350
 1761SOL     OW 7289   4.490  10.618  10.320 -0.3022  0.5674 -0.0050
 1761SOL    HW1 7290   4.457  10.567  10.246 -2.2446 -0.7652  1.6401
 1761SOL    HW2 7291   4.536  10.553  10.374  0.6991  1.4243  0.1983
 1762SOL     OW 7292   2.853   2.993   5.054  0.0308  0.3521 -0.2406
 1762SOL    HW1 7293   2.783   2.929   5.071  0.9724 -0.7416 -0.3591
 1762SOL    HW2 7294   2.874   2.981   4.962  0.4777  0.5719 -0.1684
 1763SOL     OW 7295   6.686   6.412   8.037  0.2937  0.3069 -0.1638
 1763SOL    HW1 7296   6.711   6.320   8.038 -0.1874  0.0991  3.3296
 1763SOL    HW2 7297   6.769   6.460   8.047  0.2689  0.0785  1.2441
 1764SOL     OW 7298   2.513   5.995   0.171 -0.3585  0.7894  0.8616
 1764SOL    HW1 7299   2.441   6.033   0.122 -1.4045 -0.9384  0.9726
 1764SOL    HW2 7300   2.477   5.915   0.209  1.6741 -0.2816  0.6985
 1765SOL     OW 7301   1.592   3.220   3.578 -0.4153 -0.2188  1.1008
 1765SOL    HW1 7302   1.538   3.202   3.655 -0.6246 -0.4350  0.9013
 1765SOL    HW2 7303   1.679   3.188   3.602 -0.2491  0.5627  1.6081
 1766SOL     OW 7304   2.778   8.930   4.112  0.4695 -0.1864 -0.4705
 1766SOL    HW1 7305   2.728   9.002   4.150 -0.0332 -0.8457  0.1318
 1766SOL    HW2 7306   2.826   8.970   4.040  1.5258  1.1205  0.8930
 1767SOL     OW 7307   7.379   4.507   7.788  0.1598 -0.6460  0.0060
 1767SOL    HW1 7308   7.336   4.557   7.857  1.7944  0.8269  0.0381
 1767SOL    HW2 7309   7.351   4.548   7.706  0.9467 -0.1164 -0.0065
 1768SOL     OW 7310   8.260   3.702   6.081 -0.0570  0.2040 -0.0031
 1768SOL    HW1 7311   8.216   3.640   6.139  0.4816 -0.2495 -0.0685
 1768SOL    HW2 7312   8.335   3.733   6.132 -1.3750  2.2995  0.7814
 1769SOL     OW 7313   1.529   0.439   2.514  0.7029  0.2404 -0.0406
 1769SOL    HW1 7314   1.477   0.463   2.437  1.0632 -0.5223 -0.5274
 1769SOL    HW2 7315   1.616   0.476   2.497  1.0808 -0.8428 -0.4990
 1770SOL     OW 7316   6.035   3.396   0.613  0.3714 -0.0358 -0.6115
 1770SOL    HW1 7317   6.067   3.409   0.702  0.6281 -2.3706 -0.3059
 1770SOL    HW2 7318   6.077   3.465   0.562  1.9570  0.0292  0.6992
 1771SOL     OW 7319   6.600   4.436   9.050  0.3040  0.0801  0.1578
 1771SOL    HW1 7320   6.618   4.345   9.030  0.9584  0.7470 -2.8237
 1771SOL    HW2 7321   6.561   4.471   8.970 -3.7454  1.5450  2.5026
 1772SOL     OW 7322   9.963   7.773  10.021 -0.0028  0.1743  0.1441
 1772SOL    HW1 7323   9.910   7.783  10.099 -0.4802 -0.9203 -0.0207
 1772SOL    HW2 7324   9.979   7.679  10.014  0.9243  0.3585 -0.4912
 1773SOL     OW 7325   2.002   2.547   9.979  0.6209  0.5595 -0.1162
 1773SOL    HW1 7326   2.055   2.537   9.900  0.7586  2.0002 -0.2351
 1773SOL    HW2 7327   1.967   2.460   9.996 -0.2562  0.4206 -2.3522
 1774SOL     OW 7328   8.608   3.151  10.912  0.8322  0.2171 -0.1196
 1774SOL    HW1 7329   8.556   3.126  10.988  1.8097 -2.7014 -0.3058
 1774SOL    HW2 7330   8.696   3.167  10.948  0.7890  1.0837 -0.3666
 1775SOL     OW 7331   5.980   3.760   8.845  0.0962  0.1940 -0.0841
 1775SOL    HW1 7332   5.904   3.811   8.873 -0.1090  0.0459 -0.3701
 1775SOL    HW2 7333   5.983   3.686   8.905  0.5811  0.7021  0.5365
 1776SOL     OW 7334   3.090   1.898   9.228 -0.8826  0.1138  0.3752
 1776SOL    HW1 7335   3.114   1.979   9.272 -1.9352  0.9436 -0.5192
 1776SOL    HW2 7336   3.008   1.871   9.270 -0.5732 -0.4567  0.6247
 1777SOL     OW 7337   7.494   8.897   6.546 -0.5146  0.1185  0.4237
 1777SOL    HW1 7338   7.532   8.944   6.472  0.2028  0.3471  0.9348
 1777SOL    HW2 7339   7.508   8.805   6.526 -2.3512  0.0480 -0.8149
 1778SOL     OW 7340   5.488   2.923   5.273 -0.3509  0.2714  0.2678
 1778SOL    HW1 7341   5.524   3.003   5.236 -1.8258  1.0930  0.5542
 1778SOL    HW2 7342   5.562   2.861   5.272  0.7767  1.5740 -0.0697
 1779SOL     OW 7343   5.155   6.003   1.626  0.2162 -0.3231 -0.3952
 1779SOL    HW1 7344   5.232   6.060   1.630  1.4653 -1.9293 -0.7799
 1779SOL    HW2 7345   5.185   5.926   1.578 -1.6218 -1.0242 -0.4731
 1780SOL     OW 7346   8.382   5.106   7.844  0.5795 -0.3740  0.5248
 1780SOL    HW1 7347   8.324   5.116   7.920  1.3536  1.0604  0.9523
 1780SOL    HW2 7348   8.325   5.115   7.768 -0.6233 -3.9662  0.7886
 1781SOL     OW 7349   3.806   5.611   8.416  0.1433 -0.2850  0.4003
 1781SOL    HW1 7350   3.895   5.615   8.380  0.0988 -0.7999  0.2214
 1781SOL    HW2 7351   3.812   5.548   8.488  0.1576  0.4939  1.0943
 1782SOL     OW 7352   1.866   8.623   1.453  0.0714 -0.3301 -0.3227
 1782SOL    HW1 7353   1.955   8.589   1.458  0.6497  1.2089  0.3332
 1782SOL    HW2 7354   1.869   8.689   1.383 -0.8296 -1.0257 -1.0431
 1783SOL     OW 7355   9.238   7.474   3.918  0.1224  0.3908 -0.0551
 1783SOL    HW1 7356   9.177   7.465   3.845  0.9222 -2.7226 -0.4666
 1783SOL    HW2 7357   9.271   7.564   3.911 -1.5526  0.9174 -2.0614
 1784SOL     OW 7358   3.642   5.222   9.735  0.3365  0.2963  0.6615
 1784SOL    HW1 7359   3.557   5.186   9.759 -0.9999  3.1009  0.5496
 1784SOL    HW2 7360   3.695   5.214   9.815 -0.6308  0.1536  1.2961
 1785SOL     OW 7361   7.855   0.593   4.768 -0.6273  0.6702 -0.3812
 1785SOL    HW1 7362   7.822   0.677   4.798 -1.5111  0.2207 -0.0719
 1785SOL    HW2 7363   7.896   0.554   4.845 -1.1503  0.3668 -0.2533
 1786SOL     OW 7364   3.990   9.994   3.101  0.7443  0.1107 -0.2502
 1786SOL    HW1 7365   4.081   9.962   3.102  1.0315  0.8919  0.4689
 1786SOL    HW2 7366   3.993  10.075   3.153 -0.3762  0.1196 -0.1779
 1787SOL     OW 7367   7.460   6.817   0.900  1.0390 -0.1003  0.3824
 1787SOL    HW1 7368   7.369   6.842   0.888  0.2745 -2.3943  0.7771
 1787SOL    HW2 7369   7.510   6.878   0.846 -0.7135  1.2039  0.1625
 1788SOL     OW 7370   9.479   8.167   8.454  0.2645 -0.4267  0.4304
 1788SOL    HW1 7371   9.516   8.238   8.403 -1.9067 -0.3133 -1.1149
 1788SOL    HW2 7372   9.385   8.173   8.439 -0.1113 -2.7352  1.4288
 1789SOL     OW 7373   0.938   9.765   7.072  0.4522 -0.1938 -0.1894
 1789SOL    HW1 7374   0.864   9.711   7.100  1.4248 -1.9961 -0.9481
 1789SOL    HW2 7375   0.908   9.855   7.084 -0.7817 -0.8572  2.3192
 1790SOL     OW 7376   9.037  11.024   2.460 -0.4152 -0.2150 -0.2268
 1790SOL    HW1 7377   8.962  10.974   2.492 -1.7621  1.9768  0.3157
 1790SOL    HW2 7378   8.998  11.089   2.401  1.2736 -0.0326 -1.1883
 1791SOL     OW 7379   2.458   5.323   8.198  0.1248 -0.6650  0.4119
 1791SOL    HW1 7380   2.405   5.400   8.219  1.6245  0.5540 -0.0650
 1791SOL    HW2 7381   2.400   5.268   8.146 -0.5476  0.8382 -0.4962
 1792SOL     OW 7382  10.800   8.591   3.875 -0.4362 -0.3954  0.2907
 1792SOL    HW1 7383  10.730   8.537   3.911 -0.0873 -1.0938 -0.0689
 1792SOL    HW2 7384  10.754   8.666   3.836 -1.0249 -1.0543 -0.3152
 1793SOL     OW 7385   9.806   8.891   5.137 -0.7696  0.2849 -0.5163
 1793SOL    HW1 7386   9.758   8.960   5.092 -0.1586  1.7556  1.0118
 1793SOL    HW2 7387   9.781   8.899   5.229 -0.1936 -1.1175 -0.2041
 1794SOL     OW 7388   6.847   6.856   3.622  0.0760  1.0510 -0.4506
 1794SOL    HW1 7389   6.791   6.817   3.555  0.9946  1.5810 -1.5715
 1794SOL    HW2 7390   6.830   6.805   3.701 -1.3830  0.7058 -0.9637
 1795SOL     OW 7391   4.142   2.380   5.662 -0.1071  0.2323  0.3486
 1795SOL    HW1 7392   4.192   2.313   5.708  0.9469 -0.2038 -1.3568
 1795SOL    HW2 7393   4.114   2.338   5.581 -0.9911  1.3040  0.0683
 1796SOL     OW 7394   1.878   9.892   4.701 -0.2202 -0.9045  0.4340
 1796SOL    HW1 7395   1.793   9.850   4.688 -1.3151  0.9427  1.1829
 1796SOL    HW2 7396   1.901   9.874   4.792 -0.8667  0.3328  0.8659
 1797SOL     OW 7397   5.362   1.976   5.607 -0.1928 -0.4551 -0.3403
 1797SOL    HW1 7398   5.289   2.028   5.572 -0.7213  0.0525  1.4419
 1797SOL    HW2 7399   5.321   1.912   5.664  0.7374 -0.2070  0.6366
 1798SOL     OW 7400   4.926   6.076   4.550  0.7416 -0.3532  0.5463
 1798SOL    HW1 7401   4.836   6.043   4.555  0.9880 -1.0124  0.8842
 1798SOL    HW2 7402   4.924   6.160   4.596  0.5634 -0.9829  1.7349
 1799SOL     OW 7403   2.511   3.539   3.958 -0.4428 -0.1690 -0.2998
 1799SOL    HW1 7404   2.423   3.575   3.950 -1.2487 -1.6650  1.2393
 1799SOL    HW2 7405   2.566   3.598   3.906 -2.1230  1.5544 -0.2271
 1800SOL     OW 7406   1.465   2.684   8.722 -0.0186  0.5454  0.2120
 1800SOL    HW1 7407   1.501   2.769   8.745  0.7917  0.5790 -1.0647
 1800SOL    HW2 7408   1.531   2.621   8.752  0.7687  0.5591 -1.3848
 1801SOL     OW 7409   3.282   7.611   6.228 -0.0348 -0.0691  0.0975
 1801SOL    HW1 7410   3.355   7.664   6.259 -0.6839  0.4851  0.7087
 1801SOL    HW2 7411   3.313   7.572   6.146  0.3428  1.5298 -0.5514
 1802SOL     OW 7412   9.240   5.279   8.249 -0.0336 -0.2082  0.2400
 1802SOL    HW1 7413   9.182   5.296   8.175 -1.3505 -0.9168  1.0664
 1802SOL    HW2 7414   9.294   5.357   8.256 -3.4481  2.2327  1.7392
 1803SOL     OW 7415  10.158   8.696   5.738  0.5928  0.1541 -0.8087
 1803SOL    HW1 7416  10.143   8.791   5.739  0.3365  0.1428  1.4670
 1803SOL    HW2 7417  10.124   8.668   5.653  0.3361  2.0391 -1.3823
 1804SOL     OW 7418   6.031   7.119   2.670 -1.1127  0.9271 -0.2764
 1804SOL    HW1 7419   6.076   7.173   2.735 -0.0376 -0.4121  0.1304
 1804SOL    HW2 7420   6.074   7.034   2.675 -1.7254  0.4727 -1.9971
 1805SOL     OW 7421   7.654  10.441   8.621 -0.0237  0.3397 -0.6964
 1805SOL    HW1 7422   7.595  10.404   8.555  1.0143 -0.4044 -1.2233
 1805SOL    HW2 7423   7.650  10.379   8.694  0.1576  0.2552 -0.7587
 1806SOL     OW 7424   2.292   1.741   0.588  0.6361  0.0581 -0.5688
 1806SOL    HW1 7425   2.282   1.824   0.634  2.2585 -0.2573  0.4337
 1806SOL    HW2 7426   2.203   1.707   0.578 -0.0420  1.8661 -0.9398
 1807SOL     OW 7427   0.799   3.544   9.285  0.1172 -0.6799 -0.1954
 1807SOL    HW1 7428   0.705   3.546   9.303  0.1092  0.3322 -0.2579
 1807SOL    HW2 7429   0.833   3.472   9.338 -0.7293 -1.1898 -0.3439
 1808SOL     OW 7430  10.613   1.032  10.003 -0.0448  0.0735 -0.1938
 1808SOL    HW1 7431  10.621   0.939   9.982 -0.6073  0.0671 -0.3980
 1808SOL    HW2 7432  10.697   1.055  10.043 -0.3693 -0.8359  1.0731
 1809SOL     OW 7433   5.734   2.121   6.685 -0.2032 -0.0296  0.0707
 1809SOL    HW1 7434   5.768   2.031   6.684 -1.6180 -0.5974  0.6745
 1809SOL    HW2 7435   5.666   2.121   6.617  0.8729  1.0695 -1.0771
 1810SOL     OW 7436   6.052  10.112   3.044  0.4771  0.5133  0.0187
 1810SOL    HW1 7437   5.979  10.108   2.982  0.1386  0.9474  0.3838
 1810SOL    HW2 7438   6.019  10.166   3.116  0.5917 -0.6053  0.9370
 1811SOL     OW 7439   6.980   5.713   3.345  0.3600  0.1945 -0.1540
 1811SOL    HW1 7440   6.982   5.657   3.423 -0.7145  0.4338  0.0667
 1811SOL    HW2 7441   7.006   5.655   3.274  3.1188  0.4006  0.5876
 1812SOL     OW 7442  10.943   7.970   3.425  0.0818  0.0080  0.7104
 1812SOL    HW1 7443  10.992   8.052   3.414 -1.0152  0.8566  1.8799
 1812SOL    HW2 7444  10.965   7.919   3.347  0.0717  1.7882 -0.5255
 1813SOL     OW 7445   9.055   3.448   9.483  0.1880  0.3201 -0.1958
 1813SOL    HW1 7446   9.150   3.456   9.492 -0.0421  2.2715  1.1109
 1813SOL    HW2 7447   9.039   3.455   9.389  1.2085  2.1146 -0.2708
 1814SOL     OW 7448  10.149  10.013   2.445  0.7823 -0.6501  0.3293
 1814SOL    HW1 7449  10.061  10.050   2.439  1.6564  1.7078  1.0700
 1814SOL    HW2 7450  10.148   9.962   2.526 -0.2309 -1.7048 -0.3149
 1815SOL     OW 7451   8.288   1.942   0.314  0.1870 -0.1604 -0.3787
 1815SOL    HW1 7452   8.329   1.958   0.399 -1.5253  0.3617  0.4018
 1815SOL    HW2 7453   8.237   2.021   0.296 -0.7999 -0.9288 -1.0860
 1816SOL     OW 7454   6.810   7.930   9.853  0.1395 -0.2131  0.0268
 1816SOL    HW1 7455   6.746   7.989   9.813 -0.6521  0.2760  1.8879
 1816SOL    HW2 7456   6.895   7.972   9.839 -0.3018  0.8002  0.3346
 1817SOL     OW 7457  10.202   2.246   8.673  0.8433 -0.6000  0.3039
 1817SOL    HW1 7458  10.271   2.311   8.678 -0.3888  0.8172 -0.2400
 1817SOL    HW2 7459  10.247   2.165   8.649  2.2231  0.4485 -0.8276
 1818SOL     OW 7460  10.398   6.873   7.515 -0.0352 -0.5462 -0.3579
 1818SOL    HW1 7461  10.428   6.959   7.486 -1.2714  0.2850  0.7664
 1818SOL    HW2 7462  10.453   6.811   7.466  0.8888  0.8639 -1.1608
 1819SOL     OW 7463   7.709   9.453   5.262  0.3685 -0.4741  0.2290
 1819SOL    HW1 7464   7.628   9.415   5.295  0.7187  1.0735  3.1487
 1819SOL    HW2 7465   7.688   9.482   5.173 -2.8775  1.4037  1.4532
 1820SOL     OW 7466   4.284   1.875   3.086  0.2389 -0.1882  0.7281
 1820SOL    HW1 7467   4.224   1.850   3.015  0.7962  1.5828 -0.4484
 1820SOL    HW2 7468   4.258   1.821   3.160 -0.4941 -2.0021 -0.7666
 1821SOL     OW 7469   9.201   9.998   3.776 -0.2812 -0.8823 -0.3263
 1821SOL    HW1 7470   9.153   9.922   3.743  1.3858 -1.9288 -0.4550
 1821SOL    HW2 7471   9.249  10.031   3.700 -1.3410  0.6396 -0.3898
 1822SOL     OW 7472   5.490   6.247   7.178 -0.6824  0.3580  0.4783
 1822SOL    HW1 7473   5.527   6.216   7.260 -1.2915  0.8729  0.9606
 1822SOL    HW2 7474   5.397   6.225   7.183 -1.0221  1.6941  0.5947
 1823SOL     OW 7475   3.048   4.590   1.318  0.0341  0.1641 -0.0231
 1823SOL    HW1 7476   2.957   4.566   1.300  0.5756 -1.1426 -1.1838
 1823SOL    HW2 7477   3.043   4.681   1.348 -1.8396 -0.4999  1.9201
 1824SOL     OW 7478   6.240   2.955   3.217  0.4278  0.1464 -0.1590
 1824SOL    HW1 7479   6.239   2.861   3.231 -0.2460  0.5128  2.9684
 1824SOL    HW2 7480   6.207   2.967   3.128 -0.2045 -2.5074 -0.3408
 1825SOL     OW 7481   8.632   7.441   6.082  0.4293  0.6426  0.3304
 1825SOL    HW1 7482   8.595   7.429   5.994  0.5782 -1.5082  0.5092
 1825SOL    HW2 7483   8.627   7.536   6.097 -2.3001  0.7695 -0.8064
 1826SOL     OW 7484  10.702   4.760   9.018 -0.6068 -0.0289 -0.1920
 1826SOL    HW1 7485  10.678   4.669   9.039 -2.7271  0.0963 -1.7479
 1826SOL    HW2 7486  10.710   4.761   8.922  0.6407  1.1744 -0.1028
 1827SOL     OW 7487   2.663   2.244   0.216 -0.4877 -0.0180 -0.6613
 1827SOL    HW1 7488   2.641   2.242   0.123  2.5572 -2.7310 -1.4971
 1827SOL    HW2 7489   2.676   2.152   0.240  2.1764  0.7784  1.4851
 1828SOL     OW 7490   2.228   6.010   1.878  0.6000  0.3482  0.2110
 1828SOL    HW1 7491   2.164   5.991   1.947  0.6058  0.2629  0.1925
 1828SOL    HW2 7492   2.279   5.930   1.869  1.5255  0.8212  1.0893
 1829SOL     OW 7493   6.406   5.676   8.575 -0.1367  0.1934  0.0849
 1829SOL    HW1 7494   6.492   5.697   8.538  0.7857  0.2417  2.0976
 1829SOL    HW2 7495   6.415   5.694   8.669 -2.7226  1.3450  0.2126
 1830SOL     OW 7496   5.009   9.063   2.955  0.2232  0.0468 -0.5585
 1830SOL    HW1 7497   5.043   9.006   2.887  1.8050  2.1151 -1.6089
 1830SOL    HW2 7498   5.083   9.079   3.013 -0.6619 -0.3522  0.7202
 1831SOL     OW 7499   9.938   5.556   3.684 -0.1190 -0.1687  0.2017
 1831SOL    HW1 7500   9.906   5.597   3.603  0.4654  1.6228  0.8365
 1831SOL    HW2 7501   9.867   5.566   3.746 -1.2499 -3.0284 -0.4434
 1832SOL     OW 7502  10.251   1.885  10.323  0.2788  0.0552 -0.6183
 1832SOL    HW1 7503  10.252   1.801  10.369  1.1981 -0.3984 -1.4074
 1832SOL    HW2 7504  10.338   1.891  10.283 -0.5768  0.2227 -2.5928
 1833SOL     OW 7505   8.698   4.974   1.407  0.0401  0.2337 -0.8729
 1833SOL    HW1 7506   8.633   4.923   1.358  0.1176  0.8627 -1.6627
 1833SOL    HW2 7507   8.751   5.016   1.339  0.9811  0.1002 -0.2339
 1834SOL     OW 7508   9.488  10.232   8.418 -0.2863  0.8408 -0.2812
 1834SOL    HW1 7509   9.462  10.323   8.434 -1.4917  0.6218 -0.8972
 1834SOL    HW2 7510   9.523  10.232   8.329 -0.3732  0.6779 -0.3151
 1835SOL     OW 7511  10.458   8.286   1.953  0.1457 -0.4010  0.9261
 1835SOL    HW1 7512  10.498   8.333   1.880 -2.1922  0.8299  0.3766
 1835SOL    HW2 7513  10.501   8.322   2.031  2.4845 -1.5527  0.2554
 1836SOL     OW 7514   5.632   8.227   2.667 -0.1737  0.1619 -0.2033
 1836SOL    HW1 7515   5.668   8.146   2.703  0.4064  0.5559  0.1175
 1836SOL    HW2 7516   5.552   8.200   2.621  0.8610 -0.8122 -1.4900
 1837SOL     OW 7517  10.766   2.850   1.793 -0.0461  0.2012 -0.2133
 1837SOL    HW1 7518  10.688   2.795   1.799 -0.9873  1.4038 -0.8966
 1837SOL    HW2 7519  10.799   2.855   1.883 -1.7135  0.9758  0.4056
 1838SOL     OW 7520  10.644   1.564   1.636 -0.3797  0.1052 -0.6878
 1838SOL    HW1 7521  10.736   1.585   1.651 -0.7674  0.6440  1.0917
 1838SOL    HW2 7522  10.643   1.524   1.549  1.0100  3.4831 -2.4559
 1839SOL     OW 7523   6.993   7.916   5.664  0.3243 -0.3068 -0.3127
 1839SOL    HW1 7524   7.078   7.942   5.699  0.9370 -2.1540 -0.3256
 1839SOL    HW2 7525   6.930   7.969   5.712  1.4025  0.1901  0.5961
 1840SOL     OW 7526  11.035   0.905   7.223 -0.3020 -0.0789  0.3571
 1840SOL    HW1 7527  10.992   0.988   7.243  0.6626  0.6320 -0.4469
 1840SOL    HW2 7528  10.992   0.874   7.144 -0.9049 -0.5496  0.8511
 1841SOL     OW 7529   8.416   8.081   3.431  0.4026 -0.7916 -0.4179
 1841SOL    HW1 7530   8.512   8.081   3.427  0.3719 -0.6864 -1.1987
 1841SOL    HW2 7531   8.390   8.155   3.377 -0.0216  1.8754  3.0881
 1842SOL     OW 7532   8.675   8.203   4.249  0.3367  0.3298 -0.6333
 1842SOL    HW1 7533   8.679   8.233   4.158  0.5727 -1.0552 -1.1028
 1842SOL    HW2 7534   8.710   8.114   4.247 -0.9913 -0.2629  0.5776
 1843SOL     OW 7535  10.709   0.806   3.629  0.4166 -0.2792  0.2111
 1843SOL    HW1 7536  10.698   0.765   3.715  0.8662  0.8467  0.8225
 1843SOL    HW2 7537  10.739   0.895   3.648 -1.4265  0.6792 -1.0353
 1844SOL     OW 7538   9.390   2.314   9.565  0.4585  0.7845 -0.5156
 1844SOL    HW1 7539   9.340   2.255   9.508  1.6312  0.0732 -0.8374
 1844SOL    HW2 7540   9.445   2.364   9.505  3.8203 -1.9062 -0.0328
 1845SOL     OW 7541   7.705   2.508   4.412  0.0626 -0.3671 -0.0010
 1845SOL    HW1 7542   7.640   2.449   4.449  1.6398  0.0155  3.8759
 1845SOL    HW2 7543   7.758   2.453   4.354 -2.5016 -1.0436 -1.8806
 1846SOL     OW 7544   0.992   5.397   2.520  0.7726  0.5665  0.1139
 1846SOL    HW1 7545   1.025   5.486   2.507  2.5018 -0.1901 -1.1466
 1846SOL    HW2 7546   1.022   5.373   2.608  1.2935  0.8193  0.0080
 1847SOL     OW 7547   2.004   4.554   6.569  0.3980  0.0057 -0.5834
 1847SOL    HW1 7548   1.944   4.564   6.643  0.6858 -0.5359 -0.2776
 1847SOL    HW2 7549   1.947   4.563   6.492 -0.0050 -0.0772 -0.3013
 1848SOL     OW 7550   3.943   1.455   8.805  0.1792  0.1977  0.1891
 1848SOL    HW1 7551   3.930   1.371   8.761  1.6477  1.6660 -3.4535
 1848SOL    HW2 7552   3.856   1.480   8.836 -0.3658 -2.3657  0.9216
 1849SOL     OW 7553   2.719   3.387   6.796  0.0362  1.1010 -0.0120
 1849SOL    HW1 7554   2.733   3.296   6.770  0.6012  0.7470  1.4336
 1849SOL    HW2 7555   2.778   3.401   6.871  0.5639  2.9032 -0.6935
 1850SOL     OW 7556  10.997   8.268   5.651  0.0471  0.4548  0.6069
 1850SOL    HW1 7557  11.020   8.287   5.560 -1.5342  0.7481  0.2332
 1850SOL    HW2 7558  10.909   8.305   5.661 -1.0869 -2.2198  1.3461
 1851SOL     OW 7559   9.971   3.406   3.184 -0.6039  0.3639 -0.3055
 1851SOL    HW1 7560  10.008   3.474   3.128  4.2820 -1.6041  0.0542
 1851SOL    HW2 7561   9.979   3.325   3.133 -0.5071 -0.8005  1.4478
 1852SOL     OW 7562   6.624   5.615   9.056  0.7001 -0.1200  0.3575
 1852SOL    HW1 7563   6.717   5.595   9.046  1.4119  3.0718 -0.7966
 1852SOL    HW2 7564   6.611   5.626   9.150  0.6254 -3.5600  0.8885
 1853SOL     OW 7565   3.988   0.703   6.045  0.3753  0.6209 -0.3974
 1853SOL    HW1 7566   3.942   0.631   6.087  2.4627 -1.5590 -1.6238
 1853SOL    HW2 7567   4.023   0.755   6.117  0.1198 -0.4709  0.5372
 1854SOL     OW 7568   4.148   4.742   9.797 -0.3623 -0.1913 -0.6771
 1854SOL    HW1 7569   4.160   4.735   9.891  0.3985  1.0244 -0.6636
 1854SOL    HW2 7570   4.054   4.756   9.786 -0.6896 -1.8010 -0.2271
 1855SOL     OW 7571   2.188   1.403   6.667  0.1319 -0.3977  0.4726
 1855SOL    HW1 7572   2.172   1.369   6.579  1.3824  2.0952 -0.8282
 1855SOL    HW2 7573   2.169   1.329   6.725  1.6858 -2.9668 -2.0110
 1856SOL     OW 7574   7.899   5.932   6.394 -0.4764  0.7175  0.0107
 1856SOL    HW1 7575   7.903   5.999   6.462  0.5095 -1.8849  2.6845
 1856SOL    HW2 7576   7.805   5.919   6.379 -0.7480  3.8328 -1.9591
 1857SOL     OW 7577   1.115   1.762   3.494  0.3369 -0.1547  0.2949
 1857SOL    HW1 7578   1.185   1.788   3.555 -0.1479 -1.2548  1.3589
 1857SOL    HW2 7579   1.144   1.677   3.460 -0.8637 -1.0300  1.3978
 1858SOL     OW 7580   8.765   4.526   7.876 -0.3446  0.6133 -0.2406
 1858SOL    HW1 7581   8.689   4.572   7.912 -0.4782  0.8279 -0.7777
 1858SOL    HW2 7582   8.735   4.436   7.863 -0.6947  0.8306 -0.9866
 1859SOL     OW 7583   0.834   6.600   0.977  0.0267 -0.0757  0.4256
 1859SOL    HW1 7584   0.900   6.643   1.032 -0.0845 -0.9831  1.3144
 1859SOL    HW2 7585   0.843   6.507   0.998 -2.3769 -0.1359  1.5410
 1860SOL     OW 7586   7.082   2.867   8.786  0.0988 -0.6110 -0.3282
 1860SOL    HW1 7587   7.051   2.937   8.844  1.2613 -0.4351  0.1184
 1860SOL    HW2 7588   7.104   2.913   8.705  1.6353 -0.2882  0.2352
 1861SOL     OW 7589   9.437   0.319   0.799  0.6204  0.0207  0.1255
 1861SOL    HW1 7590   9.423   0.411   0.820  2.0661  0.7835 -1.9171
 1861SOL    HW2 7591   9.522   0.299   0.838  0.6800 -0.2024 -0.1142
 1862SOL     OW 7592   8.840   9.704   6.347 -0.4876 -0.5030 -0.6085
 1862SOL    HW1 7593   8.921   9.751   6.365 -1.1167  0.5893 -0.5638
 1862SOL    HW2 7594   8.771   9.770   6.353 -1.3824 -1.3885 -0.7363
 1863SOL     OW 7595  10.263   2.176   4.681  0.0138  0.0187  0.1676
 1863SOL    HW1 7596  10.289   2.200   4.770  1.3010 -3.1301  0.7691
 1863SOL    HW2 7597  10.326   2.109   4.655 -2.7031 -2.0970 -1.5432
 1864SOL     OW 7598  10.523   2.536   4.798  0.4866 -0.2437  0.0935
 1864SOL    HW1 7599  10.535   2.625   4.833 -3.3543  0.3280  0.3887
 1864SOL    HW2 7600  10.543   2.479   4.871 -1.8110  0.7194  1.6170
 1865SOL     OW 7601   7.639   7.657   1.623 -0.9922 -0.0267 -0.0811
 1865SOL    HW1 7602   7.550   7.627   1.606 -0.7993 -0.5258 -0.2058
 1865SOL    HW2 7603   7.686   7.644   1.541 -0.8942  0.5799 -0.1257
 1866SOL     OW 7604   4.136   1.952   3.654 -0.3711 -0.0135 -0.6352
 1866SOL    HW1 7605   4.100   1.878   3.606 -0.9587 -0.3274  0.2531
 1866SOL    HW2 7606   4.148   1.919   3.743  1.0684  0.4346 -0.6485
 1867SOL     OW 7607  10.396   3.939   5.984  0.0288 -0.4022 -0.0590
 1867SOL    HW1 7608  10.311   3.945   5.942  0.1173  1.3084 -0.0671
 1867SOL    HW2 7609  10.383   3.878   6.056 -2.0249  1.9496  1.7445
 1868SOL     OW 7610   2.775   8.708   4.281 -0.0608 -0.0449  0.0931
 1868SOL    HW1 7611   2.802   8.772   4.214 -1.8686  1.0851  0.3565
 1868SOL    HW2 7612   2.821   8.735   4.360  1.9680 -1.2914 -0.5906
 1869SOL     OW 7613   1.013  10.077   3.422 -0.3985  0.3186  0.0250
 1869SOL    HW1 7614   0.959  10.154   3.440 -0.1787  0.4113  0.3068
 1869SOL    HW2 7615   1.018  10.030   3.505 -1.2908 -0.5009 -0.3706
 1870SOL     OW 7616   7.411   9.241  10.683  0.0237 -0.6560 -0.2509
 1870SOL    HW1 7617   7.363   9.302  10.739 -0.5989 -2.3717  1.2020
 1870SOL    HW2 7618   7.343   9.191  10.638  0.3476 -2.4464  1.0910
 1871SOL     OW 7619   7.546   2.578   1.817  0.1225 -0.4152  0.4419
 1871SOL    HW1 7620   7.574   2.668   1.837  1.7634 -1.2539  2.2034
 1871SOL    HW2 7621   7.595   2.555   1.738  0.3799 -0.0705  0.4978
 1872SOL     OW 7622   5.972   4.879   2.507  0.0657 -0.5878 -0.0140
 1872SOL    HW1 7623   6.024   4.824   2.449  0.4412  1.1183 -1.3970
 1872SOL    HW2 7624   6.024   4.887   2.586  0.5477 -1.2600 -0.2565
 1873SOL     OW 7625   8.825   0.561   8.321 -0.1640  0.1837  0.2244
 1873SOL    HW1 7626   8.791   0.640   8.279  1.9463 -0.7861 -3.7638
 1873SOL    HW2 7627   8.749   0.503   8.327 -0.8328  0.8922 -1.0520
 1874SOL     OW 7628   4.153   9.669   4.613 -0.1700  0.4652  0.0575
 1874SOL    HW1 7629   4.220   9.736   4.604  0.1355  0.3759  1.5059
 1874SOL    HW2 7630   4.171   9.627   4.697 -0.3188 -1.4872 -0.8314
 1875SOL     OW 7631   1.534   0.943   3.110  0.1555 -0.7820 -0.0407
 1875SOL    HW1 7632   1.580   0.923   3.191  0.5586  0.1271 -0.0303
 1875SOL    HW2 7633   1.464   1.003   3.137  1.2968  0.8576 -0.5617
 1876SOL     OW 7634   2.676   9.973   2.845  0.1329  0.0419  0.0115
 1876SOL    HW1 7635   2.704  10.051   2.892  0.5786  0.8003 -1.4469
 1876SOL    HW2 7636   2.748   9.954   2.785 -0.7778 -0.3604 -0.9851
 1877SOL     OW 7637   8.931  10.557   1.101  0.2443 -0.4488  0.2135
 1877SOL    HW1 7638   9.017  10.578   1.064 -0.0153  2.1560  0.8381
 1877SOL    HW2 7639   8.893  10.643   1.123 -1.2131 -1.6393  2.8642
 1878SOL     OW 7640   1.933   7.429  10.766 -0.3015 -0.6317 -0.0431
 1878SOL    HW1 7641   1.884   7.398  10.843  0.5685  0.8836  1.1862
 1878SOL    HW2 7642   1.997   7.490  10.802  0.6125 -0.4208 -1.9262
 1879SOL     OW 7643   0.170   9.041  10.987 -0.1274  0.1261  0.0647
 1879SOL    HW1 7644   0.182   9.122  10.938 -0.2313  1.5361  2.2319
 1879SOL    HW2 7645   0.255   9.026  11.029 -1.2861  1.8098  3.4045
 1880SOL     OW 7646   9.484   0.101   9.138  0.1937 -0.0026 -0.7228
 1880SOL    HW1 7647   9.504   0.013   9.105  0.3095 -0.0975 -0.3945
 1880SOL    HW2 7648   9.445   0.145   9.063 -0.1196 -0.4217 -0.8119
 1881SOL     OW 7649   8.771   6.145   3.755 -0.6086  0.4314  0.8978
 1881SOL    HW1 7650   8.814   6.087   3.818 -1.5022 -1.1825  0.0578
 1881SOL    HW2 7651   8.826   6.142   3.677  1.4113  3.6936  1.9839
 1882SOL     OW 7652  10.583   0.529   7.774 -0.0636  0.6426  0.3574
 1882SOL    HW1 7653  10.574   0.539   7.679  1.8439 -2.1935 -0.2460
 1882SOL    HW2 7654  10.651   0.590   7.799 -2.2967  3.2930  0.4784
 1883SOL     OW 7655   7.566   4.163   2.420 -0.1813  0.2173 -0.0426
 1883SOL    HW1 7656   7.653   4.189   2.452  0.4690  1.6907 -2.6490
 1883SOL    HW2 7657   7.505   4.203   2.482  0.9837  2.1233 -0.0389
 1884SOL     OW 7658   6.462   4.577   5.141 -0.3552 -0.3057 -0.8034
 1884SOL    HW1 7659   6.393   4.544   5.199  0.9115  0.9514  1.5631
 1884SOL    HW2 7660   6.428   4.661   5.108 -0.8160 -0.7209 -1.4096
 1885SOL     OW 7661   6.370   6.036   8.199  0.1755 -0.7013 -0.1201
 1885SOL    HW1 7662   6.277   6.028   8.221  0.2904  0.0231  0.6306
 1885SOL    HW2 7663   6.392   6.127   8.216  0.9195 -0.7554 -0.7306
 1886SOL     OW 7664  10.311   7.689   2.461 -0.2355  0.0445 -0.4247
 1886SOL    HW1 7665  10.395   7.718   2.426 -1.1319  2.0466 -1.0280
 1886SOL    HW2 7666  10.271   7.638   2.389  1.3520 -2.9802  0.6504
 1887SOL     OW 7667  10.183   6.363   5.374 -0.4813 -0.1601  0.3811
 1887SOL    HW1 7668  10.234   6.442   5.359 -3.0091  1.4317 -0.4726
 1887SOL    HW2 7669  10.132   6.381   5.453 -0.9538 -1.0136  0.2889
 1888SOL     OW 7670   8.488   6.221   3.211 -0.4730  0.1713  0.1121
 1888SOL    HW1 7671   8.538   6.252   3.286 -0.7990 -2.9447  1.7989
 1888SOL    HW2 7672   8.493   6.292   3.148  0.1945  2.7907  2.8720
 1889SOL     OW 7673   5.623   1.220   4.143 -0.1316  0.2403  0.8487
 1889SOL    HW1 7674   5.648   1.293   4.200 -0.4480  1.4048 -0.4474
 1889SOL    HW2 7675   5.660   1.243   4.058 -0.0877 -1.2198  0.4538
 1890SOL     OW 7676  10.679   0.060   9.246 -0.0361 -0.3481  0.4286
 1890SOL    HW1 7677  10.706   0.048   9.155 -0.7798 -0.5035  0.2196
 1890SOL    HW2 7678  10.594   0.016   9.252  0.6590 -1.5958  1.5696
 1891SOL     OW 7679   6.679   5.072   9.991  0.3851 -0.8366  0.3305
 1891SOL    HW1 7680   6.765   5.042   9.961  0.0780 -0.7194 -0.6996
 1891SOL    HW2 7681   6.699   5.129  10.066  1.3297  0.4414 -0.8430
 1892SOL     OW 7682   3.427   7.680   2.123 -0.3672 -0.2718 -0.4723
 1892SOL    HW1 7683   3.483   7.607   2.150  2.0723  1.0780 -1.5267
 1892SOL    HW2 7684   3.339   7.643   2.121  0.5767 -2.8014  0.3559
 1893SOL     OW 7685   8.888   0.326   3.505 -0.6881  0.0004 -0.6135
 1893SOL    HW1 7686   8.859   0.397   3.448  0.6037  2.6070  1.7514
 1893SOL    HW2 7687   8.812   0.307   3.560 -0.2292  1.6510  0.6606
 1894SOL     OW 7688  10.683   4.585   6.717  0.2471  0.1578  0.2159
 1894SOL    HW1 7689  10.680   4.534   6.798 -1.1474 -0.4816 -0.2017
 1894SOL    HW2 7690  10.711   4.522   6.650  0.7872  0.5259  0.0929
 1895SOL     OW 7691   5.760   4.284   8.642  0.3494 -0.6052 -0.0576
 1895SOL    HW1 7692   5.679   4.336   8.640  0.2388 -0.7709 -1.4659
 1895SOL    HW2 7693   5.816   4.331   8.703  1.3302  2.9980 -3.2614
 1896SOL     OW 7694   1.844   8.633   9.410  1.2984  0.1933 -0.1753
 1896SOL    HW1 7695   1.853   8.636   9.315 -0.3703 -0.2549 -0.3847
 1896SOL    HW2 7696   1.794   8.553   9.427 -1.0982  1.7687  0.7789
 1897SOL     OW 7697   3.242   2.869   0.132  0.0115  0.0686  0.0548
 1897SOL    HW1 7698   3.152   2.845   0.109  0.1557  0.4582 -0.9590
 1897SOL    HW2 7699   3.232   2.937   0.198 -0.4087 -1.8226  2.0667
 1898SOL     OW 7700   4.056   7.143   2.291  0.1043 -0.2885  0.5635
 1898SOL    HW1 7701   3.974   7.115   2.250  1.3966 -2.5756 -0.6145
 1898SOL    HW2 7702   4.092   7.208   2.230 -0.3270 -0.0276  0.5812
 1899SOL     OW 7703   2.124   5.543   6.689 -0.1542  0.4886 -0.1499
 1899SOL    HW1 7704   2.057   5.475   6.695  0.1732  0.1786 -0.0031
 1899SOL    HW2 7705   2.201   5.498   6.654  0.0050  0.8246 -0.2374
 1900SOL     OW 7706   2.096   9.037   5.663 -0.2895  0.4724 -0.2568
 1900SOL    HW1 7707   2.061   8.990   5.738 -1.3034 -0.3367 -1.2027
 1900SOL    HW2 7708   2.155   8.975   5.620 -0.9315  0.3480 -0.9945
 1901SOL     OW 7709  11.023   4.451   7.869 -0.0508  0.0997 -0.8303
 1901SOL    HW1 7710  11.114   4.462   7.896  0.1639  0.9603 -1.8733
 1901SOL    HW2 7711  10.978   4.422   7.949  1.0836 -0.1276 -0.2549
 1902SOL     OW 7712   5.087   9.959   8.782  0.1987  0.1044  0.4298
 1902SOL    HW1 7713   5.135   9.877   8.778 -1.2956 -0.7660 -2.3778
 1902SOL    HW2 7714   4.996   9.933   8.795 -0.2302  1.3612  0.0871
 1903SOL     OW 7715   7.186   2.628   5.082 -0.2688 -0.4110 -0.2729
 1903SOL    HW1 7716   7.139   2.552   5.116 -0.6439 -0.2262 -0.3830
 1903SOL    HW2 7717   7.121   2.697   5.077  0.0442 -0.1145 -0.2936
 1904SOL     OW 7718   2.329   0.398   1.308 -0.0953 -0.0318  0.4692
 1904SOL    HW1 7719   2.310   0.478   1.356 -1.8657 -0.3335  0.3599
 1904SOL    HW2 7720   2.293   0.413   1.221 -1.1905 -1.2123  0.6901
 1905SOL     OW 7721   1.162   4.083   7.139 -0.1530 -0.4287 -0.2666
 1905SOL    HW1 7722   1.126   4.140   7.206  1.4209  1.7658 -1.1512
 1905SOL    HW2 7723   1.233   4.134   7.100 -0.1963 -2.0836 -2.7572
 1906SOL     OW 7724   0.316   0.595   0.328  0.1576 -0.2938 -0.4286
 1906SOL    HW1 7725   0.374   0.563   0.259  0.9689 -1.0218  0.5524
 1906SOL    HW2 7726   0.245   0.639   0.282 -0.3734 -2.4808 -1.7990
 1907SOL     OW 7727   4.963  10.981   6.992 -0.0183  0.1243 -0.2600
 1907SOL    HW1 7728   4.992  11.066   6.958  2.9482 -0.9500 -0.7722
 1907SOL    HW2 7729   4.979  10.986   7.086 -0.7923  0.4633 -0.1451
 1908SOL     OW 7730   6.335   7.845   4.044  0.2943  0.3304 -0.3197
 1908SOL    HW1 7731   6.416   7.892   4.023  0.3978 -0.0512 -0.8075
 1908SOL    HW2 7732   6.296   7.825   3.959 -0.2506  0.3970 -0.0903
 1909SOL     OW 7733   1.702   5.568   1.101 -1.2689 -0.0021  0.2119
 1909SOL    HW1 7734   1.637   5.638   1.102 -1.1088  0.1799  2.4994
 1909SOL    HW2 7735   1.659   5.494   1.144 -0.3624 -0.2554  0.7042
 1910SOL     OW 7736   5.216   1.257   6.948 -0.6672  0.2280  0.2203
 1910SOL    HW1 7737   5.133   1.213   6.930 -0.9749  0.0346  1.9534
 1910SOL    HW2 7738   5.200   1.349   6.929 -1.2612  0.1800  0.4846
 1911SOL     OW 7739   4.561   0.101   2.365  0.6338  0.4351 -0.6281
 1911SOL    HW1 7740   4.576   0.046   2.441 -0.5821  1.9116  0.7452
 1911SOL    HW2 7741   4.615   0.179   2.381 -2.0865  2.2674  0.5030
 1912SOL     OW 7742   8.307   3.075   9.600  0.7121 -0.0909 -0.7820
 1912SOL    HW1 7743   8.313   3.078   9.505  1.4371 -2.6540 -0.8894
 1912SOL    HW2 7744   8.250   3.001   9.619 -0.3666  1.0729  0.8164
 1913SOL     OW 7745   4.628   2.177   9.199  0.1845  0.3990  0.2093
 1913SOL    HW1 7746   4.714   2.214   9.180  0.6206 -1.2968 -1.4467
 1913SOL    HW2 7747   4.644   2.113   9.269  0.0571  0.8529  0.6595
 1914SOL     OW 7748   0.459   9.363   2.820 -0.2109 -0.1027 -0.1690
 1914SOL    HW1 7749   0.494   9.329   2.738 -0.5373 -0.6747 -0.0749
 1914SOL    HW2 7750   0.418   9.447   2.796 -3.2109 -1.7426 -1.2702
 1915SOL     OW 7751   8.952   4.575   6.608  0.4595 -0.1237  0.5275
 1915SOL    HW1 7752   8.908   4.617   6.534  0.2476  0.5854  1.0455
 1915SOL    HW2 7753   9.025   4.633   6.628  2.3521 -1.8128 -1.0129
 1916SOL     OW 7754   5.308   9.650   1.565  0.0811 -0.0970 -0.0401
 1916SOL    HW1 7755   5.251   9.591   1.515 -1.4476 -2.1510  3.6484
 1916SOL    HW2 7756   5.265   9.735   1.559 -0.6800 -0.5390 -1.2302
 1917SOL     OW 7757   6.956   0.279   5.856 -0.0733 -0.2637 -0.3603
 1917SOL    HW1 7758   6.970   0.326   5.939  2.3507 -1.3616 -0.0541
 1917SOL    HW2 7759   6.896   0.334   5.807  1.1656  2.2158  0.7377
 1918SOL     OW 7760   7.024   1.097   5.986  0.5307 -0.1636 -0.2169
 1918SOL    HW1 7761   6.984   1.123   5.904 -1.0393  1.3949  0.9645
 1918SOL    HW2 7762   7.055   1.179   6.025 -0.1005 -0.6372  1.4024
 1919SOL     OW 7763   0.329   3.134   4.478  0.1514 -0.3034 -0.1405
 1919SOL    HW1 7764   0.402   3.193   4.463 -0.6977  1.2682  1.4918
 1919SOL    HW2 7765   0.281   3.133   4.395 -0.2424  2.0046 -0.0112
 1920SOL     OW 7766   6.338  10.954  10.047  1.0373  0.7464  0.1325
 1920SOL    HW1 7767   6.281  10.995   9.982  2.4071  3.2783  0.3962
 1920SOL    HW2 7768   6.424  10.949  10.005  1.0673 -1.4345  0.3385
 1921SOL     OW 7769   3.264   0.271   7.408  0.0931  0.0749 -0.3434
 1921SOL    HW1 7770   3.331   0.319   7.457  1.4969 -0.3597 -1.7174
 1921SOL    HW2 7771   3.211   0.228   7.475  1.1450  0.5034  0.8119
 1922SOL     OW 7772   7.231   4.375   4.554 -0.2972  0.0726 -0.0628
 1922SOL    HW1 7773   7.155   4.429   4.574 -0.9429 -1.4289  1.9451
 1922SOL    HW2 7774   7.305   4.424   4.590 -0.6851  0.2707  0.4791
 1923SOL     OW 7775   9.265  10.254   0.971  0.5523 -0.0537 -0.3926
 1923SOL    HW1 7776   9.248  10.329   0.914 -0.6878 -0.5823 -0.7524
 1923SOL    HW2 7777   9.254  10.178   0.914  0.1330 -0.5646  0.3545
 1924SOL     OW 7778   8.667  10.328   8.630 -0.2693 -0.1967 -0.5835
 1924SOL    HW1 7779   8.666  10.412   8.676  1.0188 -1.1756  1.3780
 1924SOL    HW2 7780   8.760  10.304   8.628 -0.5217 -1.1220 -1.9958
 1925SOL     OW 7781   1.040   6.453   1.121 -0.0428 -1.0869  0.1372
 1925SOL    HW1 7782   1.075   6.453   1.210 -1.5152 -1.8419  0.7617
 1925SOL    HW2 7783   1.012   6.363   1.106  1.4412 -1.3096 -1.6570
 1926SOL     OW 7784  10.450   2.437  10.556 -0.4084 -0.2508  0.1391
 1926SOL    HW1 7785  10.516   2.379  10.594 -0.2421 -0.9966 -1.2477
 1926SOL    HW2 7786  10.370   2.385  10.556 -0.3276 -0.3874 -0.8319
 1927SOL     OW 7787   6.648   9.992   5.882  0.0161 -0.9263  0.1606
 1927SOL    HW1 7788   6.581  10.058   5.900 -0.2490 -0.9571 -0.6685
 1927SOL    HW2 7789   6.630   9.962   5.793  0.3666 -1.8473  0.3795
 1928SOL     OW 7790   9.300   4.612   1.955  0.2690 -0.4711  0.1425
 1928SOL    HW1 7791   9.247   4.606   2.035  0.3639 -2.5911  0.0990
 1928SOL    HW2 7792   9.386   4.582   1.982  0.6703  0.1096 -0.4743
 1929SOL     OW 7793   9.225  10.056   9.888 -0.1171  0.2126 -0.0296
 1929SOL    HW1 7794   9.243  10.145   9.917  1.4518  0.1636 -0.7692
 1929SOL    HW2 7795   9.249  10.056   9.795 -0.1544 -0.9686 -0.0535
 1930SOL     OW 7796   1.516   3.037   3.045  0.0910  0.1263  0.2488
 1930SOL    HW1 7797   1.598   3.002   3.081 -0.2846  0.8926  1.9288
 1930SOL    HW2 7798   1.540   3.069   2.958  1.6494  0.5362  0.7953
 1931SOL     OW 7799   8.368   7.798   4.836  0.0774 -0.3279  0.4949
 1931SOL    HW1 7800   8.323   7.817   4.918  0.4855  0.1596  0.6127
 1931SOL    HW2 7801   8.436   7.735   4.861  2.1974  2.0609  1.1651
 1932SOL     OW 7802   1.135   4.070  10.141 -0.1756  0.2637  0.0013
 1932SOL    HW1 7803   1.087   3.994  10.108 -0.0662  0.0793  0.2545
 1932SOL    HW2 7804   1.082   4.146  10.116 -2.0064 -0.0450  2.4865
 1933SOL     OW 7805   0.174  10.778   5.129  0.2700  0.2473  0.1216
 1933SOL    HW1 7806   0.207  10.712   5.189 -1.3814 -0.4060  0.3616
 1933SOL    HW2 7807   0.143  10.849   5.185  0.0789  0.2800 -0.0221
 1934SOL     OW 7808   8.982   9.206   1.871  0.4719  0.2793  0.0555
 1934SOL    HW1 7809   8.928   9.284   1.880 -0.4739 -0.1852 -1.3111
 1934SOL    HW2 7810   9.068   9.232   1.906 -0.0086  1.7062  0.2269
 1935SOL     OW 7811   6.913   1.022   3.171 -0.1810  0.0400  0.3935
 1935SOL    HW1 7812   6.996   0.976   3.185  0.1980  0.2969 -0.8830
 1935SOL    HW2 7813   6.846   0.956   3.188  0.3275 -0.5829  0.0293
 1936SOL     OW 7814   6.851   0.259   8.611  0.2306 -0.6813  0.1784
 1936SOL    HW1 7815   6.924   0.265   8.550  1.2104 -0.5227  1.3498
 1936SOL    HW2 7816   6.795   0.334   8.590  1.6102  0.5619  0.8088
 1937SOL     OW 7817   3.246   6.674   8.729 -0.4525 -0.2637  0.2795
 1937SOL    HW1 7818   3.270   6.669   8.821  0.9791 -0.3582 -0.0872
 1937SOL    HW2 7819   3.223   6.766   8.715  1.6614  0.2952  0.1967
 1938SOL     OW 7820   7.098   2.351   7.865 -0.3453  0.9161 -0.6882
 1938SOL    HW1 7821   7.098   2.282   7.931  0.2104  2.7315  1.3155
 1938SOL    HW2 7822   7.121   2.306   7.783 -1.4317 -1.4763  0.2336
 1939SOL     OW 7823   1.945   6.210   0.445 -0.6555 -0.7599 -0.3934
 1939SOL    HW1 7824   2.022   6.252   0.484 -0.7289 -0.4450 -0.5819
 1939SOL    HW2 7825   1.882   6.204   0.517  0.5063 -3.5671  0.5318
 1940SOL     OW 7826  10.751   3.584   0.042 -0.4812  0.4928  0.2766
 1940SOL    HW1 7827  10.788   3.585   0.130 -1.2707  0.7707  0.6158
 1940SOL    HW2 7828  10.787   3.505   0.002 -0.9823 -0.2380  1.2341
 1941SOL     OW 7829  10.287   1.097   6.994  0.4740 -0.0875 -0.7054
 1941SOL    HW1 7830  10.230   1.084   6.918  0.7028 -0.8078 -0.7649
 1941SOL    HW2 7831  10.324   1.010   7.011  0.3531  0.0379  0.2855
 1942SOL     OW 7832  10.958   5.918   9.414 -0.4525  0.0970 -0.9876
 1942SOL    HW1 7833  10.902   5.871   9.475 -0.1644 -1.5179 -1.9152
 1942SOL    HW2 7834  10.935   6.010   9.426 -1.6272 -0.3365  0.2922
 1943SOL     OW 7835   2.577   6.801   5.426  0.9239 -0.7131  0.3965
 1943SOL    HW1 7836   2.656   6.828   5.473 -0.2571  1.1880  1.3806
 1943SOL    HW2 7837   2.570   6.862   5.353 -1.0093  0.8615  1.8220
 1944SOL     OW 7838   7.094   4.918  10.406 -0.0438  0.5534 -0.4263
 1944SOL    HW1 7839   7.149   4.991  10.435  1.5873 -0.7560 -0.0933
 1944SOL    HW2 7840   7.065   4.876  10.487  2.4628 -1.6082 -0.5313
 1945SOL     OW 7841   9.936   7.185   6.008  0.2489 -0.8583 -0.3532
 1945SOL    HW1 7842   9.900   7.210   6.094  0.9086  0.8363 -0.5183
 1945SOL    HW2 7843   9.931   7.090   6.007 -1.3803 -0.8433  0.8617
 1946SOL     OW 7844   3.177   8.452  10.659 -0.0663  0.1547  0.7771
 1946SOL    HW1 7845   3.153   8.543  10.644 -0.2452  0.0861  0.6532
 1946SOL    HW2 7846   3.114   8.401  10.608  0.2528 -0.0271  0.5587
 1947SOL     OW 7847   5.061   1.866   8.027 -0.1170  0.1902 -0.3941
 1947SOL    HW1 7848   4.997   1.870   8.098  1.0603 -0.1221  0.7124
 1947SOL    HW2 7849   5.034   1.791   7.974 -0.9114  0.3340 -0.2068
 1948SOL     OW 7850   5.634   5.356   1.369  0.5458  0.4420 -0.3292
 1948SOL    HW1 7851   5.667   5.364   1.279 -0.8580  0.5720 -0.8632
 1948SOL    HW2 7852   5.711   5.368   1.424  1.5961 -0.5046 -1.5273
 1949SOL     OW 7853   1.374   2.479   4.725  0.2335 -0.2306 -0.1665
 1949SOL    HW1 7854   1.348   2.392   4.697 -1.0165  0.3437 -0.8613
 1949SOL    HW2 7855   1.384   2.529   4.644  2.0901 -0.0141  0.1545
 1950SOL     OW 7856   1.927   7.701   1.807 -0.0809 -0.5659  0.0731
 1950SOL    HW1 7857   1.833   7.701   1.788 -0.3529  0.6649  1.2893
 1950SOL    HW2 7858   1.947   7.609   1.824 -0.9235 -0.9301 -0.7960
 1951SOL     OW 7859  10.186   9.494   4.178 -0.4427  0.1813 -0.0649
 1951SOL    HW1 7860  10.258   9.435   4.196 -1.2053 -0.5718  0.6374
 1951SOL    HW2 7861  10.192   9.513   4.085 -0.2711 -1.1300 -0.3378
 1952SOL     OW 7862   9.136   1.371   4.042  0.4092  0.2978  0.4798
 1952SOL    HW1 7863   9.076   1.310   4.085 -0.2357  0.6905  0.1539
 1952SOL    HW2 7864   9.177   1.319   3.972 -1.6278  0.7136 -1.1094
 1953SOL     OW 7865  10.366   4.679   8.803 -1.0274  0.3609  0.2193
 1953SOL    HW1 7866  10.407   4.662   8.888 -0.5664  2.2244  0.4182
 1953SOL    HW2 7867  10.298   4.612   8.796  0.5903 -1.4700  0.8510
 1954SOL     OW 7868   3.828   7.595   5.937 -0.2290  0.0318 -0.1453
 1954SOL    HW1 7869   3.904   7.572   5.884 -0.3888  2.1886 -1.4055
 1954SOL    HW2 7870   3.793   7.510   5.967  1.7644 -1.0663 -0.7659
 1955SOL     OW 7871   4.279   8.423   1.467  0.1834  0.0762 -0.1852
 1955SOL    HW1 7872   4.234   8.451   1.388 -0.3938 -2.9605 -1.0889
 1955SOL    HW2 7873   4.368   8.401   1.438 -0.3155 -2.0190 -0.3228
 1956SOL     OW 7874   2.297   7.796   9.716 -0.2485 -0.0418 -0.6800
 1956SOL    HW1 7875   2.368   7.850   9.751  0.3724 -1.2839  0.0517
 1956SOL    HW2 7876   2.225   7.809   9.778 -0.2915  0.3725 -0.8146
 1957SOL     OW 7877   2.758   5.962   0.074  0.1053 -0.3359  0.3477
 1957SOL    HW1 7878   2.777   5.877   0.114  0.7909 -0.6505 -0.6114
 1957SOL    HW2 7879   2.674   5.988   0.112  0.6797 -0.6469  1.9031
 1958SOL     OW 7880   2.932   7.001  10.566  0.4313 -0.2125  0.0791
 1958SOL    HW1 7881   2.902   7.092  10.564  4.6772  1.3964 -1.6979
 1958SOL    HW2 7882   2.965   6.990  10.655  0.1375  0.0861  0.2298
 1959SOL     OW 7883   9.182   4.537   0.396 -0.3661 -0.2848  0.0561
 1959SOL    HW1 7884   9.164   4.443   0.395  0.7237 -0.5293  1.1152
 1959SOL    HW2 7885   9.109   4.575   0.446  0.7177 -0.9761  2.3103
 1960SOL     OW 7886   5.881   8.968  10.302  0.6512  0.4361 -0.2680
 1960SOL    HW1 7887   5.787   8.964  10.285  0.7935  0.2814 -1.0457
 1960SOL    HW2 7888   5.917   9.018  10.228  1.3707 -0.8139 -0.7916
 1961SOL     OW 7889   9.979   1.526   1.024  0.0862  0.1046 -0.4756
 1961SOL    HW1 7890  10.011   1.593   0.964 -0.2000  0.8031  0.1273
 1961SOL    HW2 7891  10.040   1.529   1.098 -0.7541  0.7380  0.2213
 1962SOL     OW 7892  10.173   5.717   6.458  0.1441 -0.7536  0.9420
 1962SOL    HW1 7893  10.243   5.746   6.399 -0.0182 -2.5228 -0.2053
 1962SOL    HW2 7894  10.209   5.640   6.503 -0.9984 -1.6501  0.3887
 1963SOL     OW 7895   3.200   3.542   5.554  0.0563 -0.9368  0.5876
 1963SOL    HW1 7896   3.269   3.512   5.613 -0.5123 -0.6718  1.4086
 1963SOL    HW2 7897   3.158   3.614   5.601  0.5689  0.3133 -0.7907
 1964SOL     OW 7898   7.694  10.712  10.821 -0.1995  0.3403  0.0021
 1964SOL    HW1 7899   7.725  10.802  10.837  1.5261 -0.0782 -0.7093
 1964SOL    HW2 7900   7.711  10.697  10.728  1.8322 -1.4788  0.5654
 1965SOL     OW 7901   3.544   9.554  10.929 -0.0536 -0.2358  0.3484
 1965SOL    HW1 7902   3.482   9.576  10.999 -1.3450 -1.8562 -0.2340
 1965SOL    HW2 7903   3.607   9.626  10.930 -1.6470  1.2154  1.3095
 1966SOL     OW 7904   2.574   0.836   5.695  0.0602 -0.5508  0.9365
 1966SOL    HW1 7905   2.666   0.854   5.676 -0.3152  0.0728 -0.4173
 1966SOL    HW2 7906   2.568   0.741   5.693  0.2096 -0.5705 -1.5749
 1967SOL     OW 7907   4.176   6.257   8.939  0.3521  0.2447  0.7411
 1967SOL    HW1 7908   4.229   6.238   8.862  1.2798 -0.8506  1.6161
 1967SOL    HW2 7909   4.131   6.339   8.917  0.3471 -0.1898 -1.0743
 1968SOL     OW 7910   5.258   2.208   6.803  0.1328  0.2829 -0.5338
 1968SOL    HW1 7911   5.257   2.274   6.872  0.1192 -0.8915  0.6222
 1968SOL    HW2 7912   5.196   2.241   6.737 -0.4415  1.0467  0.3640
 1969SOL     OW 7913   4.335  10.088   1.279  0.1396 -0.6875  0.1300
 1969SOL    HW1 7914   4.363  10.158   1.220 -0.6154  0.2476  0.8586
 1969SOL    HW2 7915   4.338  10.127   1.367  0.2766 -1.7508  0.6216
 1970SOL     OW 7916  10.414   7.319   3.166 -0.6396  0.3012 -0.0468
 1970SOL    HW1 7917  10.345   7.254   3.177 -1.1577  0.7403 -0.6504
 1970SOL    HW2 7918  10.368   7.401   3.150  0.0155  0.3689 -1.7875
 1971SOL     OW 7919   9.188   4.308   3.869 -0.3984 -0.2892  0.0852
 1971SOL    HW1 7920   9.229   4.377   3.920  1.0314 -1.6563  0.8700
 1971SOL    HW2 7921   9.130   4.263   3.930  1.2976 -1.9157  0.5799
 1972SOL     OW 7922   9.093   3.019   3.767 -0.3138  0.1620 -0.5391
 1972SOL    HW1 7923   9.005   3.058   3.765 -0.5505 -0.3758 -1.7429
 1972SOL    HW2 7924   9.128   3.037   3.680  0.7783  0.3592 -0.0695
 1973SOL     OW 7925   4.408  10.539   5.023 -0.5475  0.2845  0.1494
 1973SOL    HW1 7926   4.469  10.491   5.080 -0.6335  1.3860  1.2025
 1973SOL    HW2 7927   4.428  10.507   4.935  1.6805  0.7145  0.4397
 1974SOL     OW 7928   5.648   3.760   5.993  0.4415  0.3025 -0.0869
 1974SOL    HW1 7929   5.632   3.813   5.915  1.8359  0.9773  0.0632
 1974SOL    HW2 7930   5.596   3.680   5.979 -2.2610  1.9246 -0.0092
 1975SOL     OW 7931   9.586   2.891   2.784 -0.2106 -0.7066 -0.1439
 1975SOL    HW1 7932   9.523   2.863   2.850 -1.1247 -0.0757 -0.7312
 1975SOL    HW2 7933   9.668   2.900   2.833 -0.8204 -0.4529  0.8717
 1976SOL     OW 7934  10.074   4.354   6.343  0.1519  0.0383  0.5684
 1976SOL    HW1 7935  10.083   4.439   6.387 -1.6459  0.2007  0.6878
 1976SOL    HW2 7936   9.986   4.356   6.306  0.5369 -1.3155 -0.4592
 1977SOL     OW 7937   0.015  10.858   5.852 -0.1648 -0.0429 -0.6450
 1977SOL    HW1 7938   0.028  10.946   5.887  1.4801 -0.3357 -0.4233
 1977SOL    HW2 7939  -0.032  10.871   5.770  1.2506  1.1924 -1.3138
 1978SOL     OW 7940  10.774   3.234   4.233 -0.3221  0.5096  0.1338
 1978SOL    HW1 7941  10.828   3.313   4.221 -1.9074  1.7524  0.7292
 1978SOL    HW2 7942  10.800   3.199   4.317 -1.3306  1.9116  1.0871
 1979SOL     OW 7943   7.768   2.863   4.458 -0.1754 -0.3364 -0.1748
 1979SOL    HW1 7944   7.779   2.904   4.372  1.0230 -0.0284  0.1090
 1979SOL    HW2 7945   7.777   2.769   4.440  1.3743 -0.2071 -0.2296
 1980SOL     OW 7946   1.004  10.109   0.523  0.7899 -0.1159  0.3404
 1980SOL    HW1 7947   0.919  10.150   0.537  0.2979 -0.8339 -0.4886
 1980SOL    HW2 7948   0.989  10.015   0.539  1.3601 -0.2848 -0.0790
 1981SOL     OW 7949   9.901  10.592   1.835 -0.0266  0.3754  0.5001
 1981SOL    HW1 7950   9.839  10.583   1.763  0.6098 -1.8041  0.1394
 1981SOL    HW2 7951   9.848  10.580   1.914 -0.1409 -1.5251  0.1971
 1982SOL     OW 7952   1.991   2.642   4.022  0.1853  0.3999  0.4863
 1982SOL    HW1 7953   1.946   2.700   4.083 -1.8281  0.9562 -1.3879
 1982SOL    HW2 7954   1.967   2.675   3.935  4.7060  1.0923 -0.7965
 1983SOL     OW 7955   0.891  10.249   4.426  0.0599  0.6757 -0.1751
 1983SOL    HW1 7956   0.824  10.181   4.420  0.9239 -0.2866  0.6977
 1983SOL    HW2 7957   0.973  10.201   4.439  0.9272  1.8325 -1.1877
 1984SOL     OW 7958   8.441   5.622   6.452 -0.1610 -0.2557  0.0412
 1984SOL    HW1 7959   8.361   5.655   6.411  0.3116  0.2409 -0.5020
 1984SOL    HW2 7960   8.469   5.692   6.510  0.4754  0.0453 -0.6074
 1985SOL     OW 7961   3.765  10.910   6.944  0.2617 -0.8684  0.5402
 1985SOL    HW1 7962   3.761  10.872   7.032 -0.6049  0.1027  0.9402
 1985SOL    HW2 7963   3.731  10.841   6.887 -2.9637 -0.1969  1.4558
 1986SOL     OW 7964   7.722  10.756   3.610  0.1379  0.0215 -0.1947
 1986SOL    HW1 7965   7.768  10.794   3.535  1.4349  1.6058  1.3036
 1986SOL    HW2 7966   7.680  10.678   3.575  0.9333  0.5239 -2.4892
 1987SOL     OW 7967   9.233   9.780   0.852  0.1417  0.2789 -0.0457
 1987SOL    HW1 7968   9.242   9.704   0.910  0.2437  1.0521  0.9844
 1987SOL    HW2 7969   9.318   9.788   0.810 -0.0926 -0.6010 -0.7142
 1988SOL     OW 7970   6.137   6.071  10.126 -0.3236  0.5893 -0.0833
 1988SOL    HW1 7971   6.142   6.101  10.035 -0.3716  0.3731 -0.1592
 1988SOL    HW2 7972   6.220   6.025  10.140 -0.7288 -0.2342 -0.3323
 1989SOL     OW 7973  10.723   0.252   0.055  0.1064  0.0075  0.0328
 1989SOL    HW1 7974  10.715   0.275  -0.037  3.6680  1.4949 -0.0848
 1989SOL    HW2 7975  10.763   0.166   0.055 -2.5701 -1.3362  0.3445
 1990SOL     OW 7976   5.351   2.387  10.980  0.2317  0.0686  0.2085
 1990SOL    HW1 7977   5.369   2.297  10.955  2.3300  0.8081 -1.2054
 1990SOL    HW2 7978   5.371   2.439  10.902  0.5469  1.8909  1.4214
 1991SOL     OW 7979   4.244   8.370   6.998  0.3502 -0.3044  0.1764
 1991SOL    HW1 7980   4.201   8.299   6.951 -1.8753 -0.1463  1.7821
 1991SOL    HW2 7981   4.282   8.329   7.076  0.0325  0.0543  0.5333
 1992SOL     OW 7982  10.884   9.634  10.592 -0.3767 -0.3007 -0.2877
 1992SOL    HW1 7983  10.857   9.601  10.678 -1.7631  0.3564 -0.4394
 1992SOL    HW2 7984  10.851   9.569  10.531  0.1384 -0.4964 -0.3587
 1993SOL     OW 7985   3.586   5.428   3.028  0.6554  0.6382  0.2722
 1993SOL    HW1 7986   3.650   5.478   3.080 -0.8005  2.8985  0.0266
 1993SOL    HW2 7987   3.519   5.492   3.005  0.5923 -0.5192 -3.4136
 1994SOL     OW 7988   5.856   8.523   4.590  0.3443  0.1516  0.8832
 1994SOL    HW1 7989   5.785   8.533   4.527  1.8988  1.1938 -0.7766
 1994SOL    HW2 7990   5.921   8.469   4.545  0.3084 -1.4946  2.6806
 1995SOL     OW 7991   7.847   5.428  10.192 -0.0151 -0.0834  0.0786
 1995SOL    HW1 7992   7.858   5.488  10.119 -0.1405 -0.4885 -0.2791
 1995SOL    HW2 7993   7.884   5.345  10.161  1.1991  0.0987  0.9715
 1996SOL     OW 7994   8.173   2.474   3.255 -0.0652 -0.2581  0.6165
 1996SOL    HW1 7995   8.231   2.457   3.182 -0.3596 -0.8603  0.5069
 1996SOL    HW2 7996   8.086   2.449   3.223 -0.1509 -0.8361  1.2650
 1997SOL     OW 7997   0.994   2.750   2.599  0.4633  0.2227 -0.1298
 1997SOL    HW1 7998   1.011   2.656   2.599  0.5287  0.2133  1.2859
 1997SOL    HW2 7999   0.996   2.775   2.507 -0.0166 -1.2388 -0.5535
 1998SOL     OW 8000   2.047   8.237   5.536 -0.0573 -0.3593  0.3587
 1998SOL    HW1 8001   2.074   8.181   5.608  2.7595 -2.0847 -1.8484
 1998SOL    HW2 8002   2.018   8.177   5.467  1.1372  0.9158 -1.3622
 1999SOL     OW 8003   7.664   3.512   6.452 -0.4303 -0.4263  0.4603
 1999SOL    HW1 8004   7.584   3.526   6.503 -0.3474  0.3923  0.3909
 1999SOL    HW2 8005   7.735   3.527   6.514 -0.3319 -1.0398  0.4937
 2000SOL     OW 8006  10.809   8.460   8.412 -0.3325 -0.2654  0.1473
 2000SOL    HW1 8007  10.785   8.553   8.417  1.0203  0.1311 -0.3340
 2000SOL    HW2 8008  10.894   8.460   8.369 -0.2934 -1.7411  0.1927
 2001SOL     OW 8009   5.897   5.504   3.239  0.7066  0.0575 -0.4101
 2001SOL    HW1 8010   5.945   5.437   3.190 -2.6347 -1.1068 -2.4217
 2001SOL    HW2 8011   5.913   5.585   3.191  2.4024  0.1939  0.3132
 2002SOL     OW 8012   0.085   2.233   2.649 -0.3839  0.3497 -0.2196
 2002SOL    HW1 8013   0.055   2.309   2.599  0.5525  1.0728  0.2682
 2002SOL    HW2 8014   0.009   2.176   2.654 -0.5801  0.3502 -2.2535
 2003SOL     OW 8015   5.376   5.396   9.508 -0.3790  0.0881 -0.5695
 2003SOL    HW1 8016   5.284   5.415   9.529 -0.4628 -2.4865  1.9957
 2003SOL    HW2 8017   5.424   5.417   9.588  0.9066 -0.8263 -1.0703
 2004SOL     OW 8018   1.004  10.766   2.616  0.3023 -0.0773 -0.0702
 2004SOL    HW1 8019   0.992  10.753   2.522 -2.0055  0.4328  0.0935
 2004SOL    HW2 8020   0.932  10.718   2.656  1.2324 -0.2601  1.4496
 2005SOL     OW 8021   1.886   5.871  10.363 -0.1134  0.3277 -0.4829
 2005SOL    HW1 8022   1.809   5.924  10.347 -0.7994 -1.3363 -3.4067
 2005SOL    HW2 8023   1.960   5.927  10.340 -0.2830  2.0701  2.7358
 2006SOL     OW 8024   1.093   0.624   3.106 -0.4126 -0.1182  0.1532
 2006SOL    HW1 8025   1.099   0.712   3.142 -1.2594  0.6551 -1.4765
 2006SOL    HW2 8026   1.144   0.627   3.025 -0.3521 -1.1581  0.1376
 2007SOL     OW 8027   1.148   1.286  10.406 -0.0147 -1.1054 -0.3203
 2007SOL    HW1 8028   1.140   1.354  10.340 -1.4062 -1.3431 -0.4325
 2007SOL    HW2 8029   1.222   1.233  10.378 -0.0947 -0.7392 -1.2412
 2008SOL     OW 8030   2.253   9.309   6.546  0.3727 -0.0442 -0.1273
 2008SOL    HW1 8031   2.191   9.312   6.619 -0.1020  1.6840 -0.5432
 2008SOL    HW2 8032   2.252   9.218   6.517 -2.2512 -0.0412 -0.3273
 2009SOL     OW 8033  10.352  10.729   1.277 -0.1316  0.1081 -0.0380
 2009SOL    HW1 8034  10.310  10.797   1.330 -2.2576 -1.3007  0.2322
 2009SOL    HW2 8035  10.349  10.762   1.188 -2.6732 -0.2019 -0.1630
 2010SOL     OW 8036   5.140   2.522   1.414  0.3345  0.3412  0.1572
 2010SOL    HW1 8037   5.213   2.469   1.444  0.0038 -0.0123  0.3417
 2010SOL    HW2 8038   5.085   2.534   1.491 -2.9094 -4.3254 -1.0125
 2011SOL     OW 8039   1.161   9.979   8.062 -0.2772  0.0220 -0.3916
 2011SOL    HW1 8040   1.113   9.997   8.143  0.3458 -0.3250  0.0636
 2011SOL    HW2 8041   1.108   9.914   8.017 -0.5261  0.0669 -0.1675
 2012SOL     OW 8042   9.816   3.008   7.127  0.5000 -0.0968  0.2528
 2012SOL    HW1 8043   9.897   3.055   7.104  2.1544 -0.9177  3.7711
 2012SOL    HW2 8044   9.841   2.916   7.127 -1.1446 -0.5799 -0.9083
 2013SOL     OW 8045   7.087   3.189   0.185 -0.3385 -0.1851  0.6341
 2013SOL    HW1 8046   7.100   3.113   0.241  0.0030  0.6502  1.7426
 2013SOL    HW2 8047   6.993   3.188   0.164 -0.2143 -1.2472  0.1045
 2014SOL     OW 8048   7.364   7.727  10.493 -0.1310 -0.5668 -0.1438
 2014SOL    HW1 8049   7.408   7.652  10.452 -0.8132 -0.7986 -0.4847
 2014SOL    HW2 8050   7.272   7.701  10.496 -0.2181 -0.1852  0.7491
 2015SOL     OW 8051   0.960   8.200   2.250  0.3282  0.3824 -0.3126
 2015SOL    HW1 8052   0.879   8.240   2.217 -0.8307 -1.0357  0.7088
 2015SOL    HW2 8053   0.999   8.267   2.305 -0.5920  0.7960 -0.1465
 2016SOL     OW 8054   2.313   0.293   5.289 -0.1245  0.2290  0.0437
 2016SOL    HW1 8055   2.330   0.265   5.199 -0.8973  0.3427 -0.1480
 2016SOL    HW2 8056   2.390   0.266   5.338  0.5650  0.6854 -0.7637
 2017SOL     OW 8057   8.343  10.502   4.122  0.8994 -0.1449  0.1632
 2017SOL    HW1 8058   8.349  10.579   4.178 -1.2386 -1.2738  2.0746
 2017SOL    HW2 8059   8.279  10.525   4.056  0.3680 -0.2175  0.6486
 2018SOL     OW 8060   8.873   1.807   4.987  0.1695 -0.0884 -0.0477
 2018SOL    HW1 8061   8.938   1.876   4.973  0.7894  0.1706  3.2589
 2018SOL    HW2 8062   8.789   1.852   4.990  0.2380  0.0901 -0.8335
 2019SOL     OW 8063   0.730   0.304   4.379  0.0866  0.4266 -0.0070
 2019SOL    HW1 8064   0.688   0.240   4.438 -0.6343  1.6236  0.8228
 2019SOL    HW2 8065   0.660   0.331   4.320  0.7572 -0.6064 -1.3020
 2020SOL     OW 8066   7.747   4.481   5.961  0.3732 -0.2267  0.4322
 2020SOL    HW1 8067   7.718   4.395   5.929  0.0025 -0.1895  0.6689
 2020SOL    HW2 8068   7.748   4.472   6.056  0.9493 -0.1637  0.4381
 2021SOL     OW 8069  11.023   4.078   1.696 -0.2906  0.1354 -0.0848
 2021SOL    HW1 8070  11.040   3.987   1.674  2.7141  0.9751 -1.8694
 2021SOL    HW2 8071  11.009   4.121   1.611 -2.7176  1.2335  0.7748
 2022SOL     OW 8072   7.423   3.026   3.610  0.4222 -0.2877  0.1641
 2022SOL    HW1 8073   7.499   3.082   3.622  1.1877 -1.0865 -0.7250
 2022SOL    HW2 8074   7.452   2.961   3.546 -1.4520  0.2132 -1.2719
 2023SOL     OW 8075   6.683   2.440   6.678  0.2279 -0.2494 -0.2397
 2023SOL    HW1 8076   6.769   2.481   6.687 -0.0594  0.1035  1.2358
 2023SOL    HW2 8077   6.647   2.441   6.767 -1.9938  1.1706 -1.0593
 2024SOL     OW 8078   6.009   6.393   3.226 -0.3253 -0.5191 -0.1993
 2024SOL    HW1 8079   6.079   6.450   3.256 -1.9777  2.7670 -1.9864
 2024SOL    HW2 8080   5.948   6.388   3.300 -0.2246  0.1497 -0.0713
 2025SOL     OW 8081   4.339   3.935   5.856  0.3566  0.1687 -0.6117
 2025SOL    HW1 8082   4.304   3.846   5.861 -0.4099  0.4247 -1.2097
 2025SOL    HW2 8083   4.429   3.923   5.827  1.0978 -0.5526  1.7122
 2026SOL     OW 8084   9.564   0.023   7.885 -0.5404 -0.0955  0.5302
 2026SOL    HW1 8085   9.605  -0.020   7.810 -0.6615  2.3544 -1.0332
 2026SOL    HW2 8086   9.633   0.023   7.952 -0.1187 -1.4994  0.1540
 2027SOL     OW 8087   6.628   1.951   9.708 -0.0667  0.1574  0.0415
 2027SOL    HW1 8088   6.577   1.914   9.780  0.2484 -0.6001 -0.1169
 2027SOL    HW2 8089   6.701   1.890   9.697 -1.3327 -1.0161 -2.4327
 2028SOL     OW 8090   0.441   7.554   8.163 -0.0837  0.0858 -0.1825
 2028SOL    HW1 8091   0.497   7.484   8.129  0.6944  0.4923  0.2295
 2028SOL    HW2 8092   0.464   7.630   8.110  1.8733  0.9876  1.7972
 2029SOL     OW 8093   6.277   8.871   9.842 -0.3352 -0.0648 -0.1146
 2029SOL    HW1 8094   6.223   8.947   9.862  1.0005  0.4543  1.7761
 2029SOL    HW2 8095   6.215   8.804   9.815 -1.9355  0.5183  1.8564
 2030SOL     OW 8096   0.011   6.195   1.867 -0.6998  0.5598 -0.0585
 2030SOL    HW1 8097  -0.025   6.150   1.790  1.8169 -0.3019 -0.8368
 2030SOL    HW2 8098   0.020   6.126   1.933  2.4998 -0.1495 -1.0211
 2031SOL     OW 8099   2.047   0.850   5.988  0.5522  0.3593 -1.2061
 2031SOL    HW1 8100   2.056   0.814   6.077 -0.7059 -0.5640 -1.4206
 2031SOL    HW2 8101   2.128   0.898   5.974 -0.7629  4.0919  2.0001
 2032SOL     OW 8102  10.290   4.574   7.083 -0.6666 -0.4570 -0.5110
 2032SOL    HW1 8103  10.321   4.490   7.119  1.8956  0.4225 -0.4562
 2032SOL    HW2 8104  10.247   4.617   7.157 -1.9585 -1.6493 -0.5231
 2033SOL     OW 8105   1.096  10.859   6.835  0.0639  1.0059 -0.0361
 2033SOL    HW1 8106   1.050  10.777   6.853  0.7847  0.7947  0.9317
 2033SOL    HW2 8107   1.104  10.862   6.740 -1.1695  0.6283 -0.1626
 2034SOL     OW 8108   4.112   7.884   5.711  0.4137  0.5804 -0.4183
 2034SOL    HW1 8109   4.170   7.894   5.787  0.1794  0.5060 -0.2279
 2034SOL    HW2 8110   4.109   7.789   5.696 -3.0889  0.0611  2.3032
 2035SOL     OW 8111   0.179   5.729  10.418  0.0625 -0.2961  0.7404
 2035SOL    HW1 8112   0.190   5.811  10.466  0.6157  0.3089 -0.3660
 2035SOL    HW2 8113   0.185   5.661  10.485  1.4091  0.4832  1.4686
 2036SOL     OW 8114   1.278  10.556   4.927  0.5636 -0.3001 -0.2791
 2036SOL    HW1 8115   1.291  10.580   4.835  2.0946  0.4507  0.0978
 2036SOL    HW2 8116   1.363  10.573   4.968 -0.3272  0.1709  1.4533
 2037SOL     OW 8117   0.048   4.680   8.563 -0.1705  0.2804  0.3270
 2037SOL    HW1 8118  -0.005   4.605   8.535  0.3619  0.6263 -1.7869
 2037SOL    HW2 8119  -0.015   4.747   8.588 -0.8576  0.7724 -2.3614
 2038SOL     OW 8120  10.317   8.407   3.663 -0.1526  0.2455 -0.7403
 2038SOL    HW1 8121  10.289   8.381   3.575 -0.2233 -0.6844 -0.4570
 2038SOL    HW2 8122  10.238   8.442   3.704 -0.7186 -1.4886 -0.2684
 2039SOL     OW 8123  10.013   3.993  11.054 -0.5212  0.2412  0.5638
 2039SOL    HW1 8124  10.010   3.903  11.021  0.2224  0.5429 -0.4020
 2039SOL    HW2 8125   9.930   4.032  11.027 -0.9574 -0.2207  1.2155
 2040SOL     OW 8126   4.554   2.495   8.626  0.6825 -0.2447 -0.2454
 2040SOL    HW1 8127   4.505   2.466   8.550  1.2894 -1.5453 -0.1655
 2040SOL    HW2 8128   4.615   2.561   8.592 -1.7293  2.1578 -0.1749
 2041SOL     OW 8129  10.644   3.843   7.011  0.2092  0.0480 -0.2318
 2041SOL    HW1 8130  10.617   3.934   7.002 -1.4266 -0.3181  0.5622
 2041SOL    HW2 8131  10.704   3.829   6.938 -0.4498  1.4236 -1.0951
 2042SOL     OW 8132   0.362   4.517   5.913  0.6128  0.0204 -0.2638
 2042SOL    HW1 8133   0.377   4.438   5.965  0.8241 -0.3085 -0.8132
 2042SOL    HW2 8134   0.268   4.515   5.893  0.8742 -0.8960 -1.5241
 2043SOL     OW 8135  10.660   3.497   7.561 -0.4059  0.0595 -0.0514
 2043SOL    HW1 8136  10.678   3.448   7.641 -1.5415  0.7893  0.6768
 2043SOL    HW2 8137  10.579   3.460   7.527  0.8142 -1.2573 -1.7297
 2044SOL     OW 8138   0.453   2.330   7.655 -0.5349  0.0221 -0.2783
 2044SOL    HW1 8139   0.500   2.413   7.660 -1.4318  0.4726  1.0010
 2044SOL    HW2 8140   0.366   2.353   7.623 -0.6654 -0.4790 -0.2980
 2045SOL     OW 8141   5.017   5.654   8.048 -0.4143 -0.2218  0.7807
 2045SOL    HW1 8142   5.064   5.725   8.004  1.8596 -1.2015  1.4521
 2045SOL    HW2 8143   4.926   5.681   8.048 -0.2480  0.7968 -2.6454
 2046SOL     OW 8144   9.099   0.982   1.872 -0.2962 -0.6235  0.3742
 2046SOL    HW1 8145   9.148   0.953   1.949  0.0582 -1.2187 -0.0653
 2046SOL    HW2 8146   9.031   0.916   1.860 -0.0907 -0.7639 -0.0586
 2047SOL     OW 8147  10.304   6.314   6.290  0.4609 -0.0189 -0.3636
 2047SOL    HW1 8148  10.311   6.368   6.211  1.8586  1.3324  0.6002
 2047SOL    HW2 8149  10.212   6.320   6.315  0.3071  0.8189 -1.0527
 2048SOL     OW 8150   2.435   9.308   2.847 -0.1052 -0.2890 -0.3594
 2048SOL    HW1 8151   2.430   9.220   2.808  6.5943 -1.1586 -0.4222
 2048SOL    HW2 8152   2.461   9.364   2.774 -0.8512  1.0126  0.3576
 2049SOL     OW 8153   4.170   1.484   0.845  0.1565  0.2266 -0.5913
 2049SOL    HW1 8154   4.249   1.437   0.818 -0.2716  0.5443 -2.5979
 2049SOL    HW2 8155   4.108   1.468   0.774 -0.9150  1.5710 -0.0036
 2050SOL     OW 8156   7.681   1.567   3.250 -0.6320 -0.2857  0.3758
 2050SOL    HW1 8157   7.683   1.625   3.173  1.6901 -0.2479  0.3932
 2050SOL    HW2 8158   7.765   1.522   3.248 -0.8477 -0.8789  2.4691
 2051SOL     OW 8159   5.320   6.773   3.168 -0.5234 -0.1025 -0.1643
 2051SOL    HW1 8160   5.283   6.855   3.200 -2.4007 -0.7592 -0.5298
 2051SOL    HW2 8161   5.370   6.798   3.091 -0.5259  0.7729  0.1029
 2052SOL     OW 8162   8.178   1.528   7.320  0.8024 -0.0884  0.1270
 2052SOL    HW1 8163   8.169   1.514   7.226 -0.1046 -3.1910  0.5848
 2052SOL    HW2 8164   8.251   1.473   7.346  1.0988  0.7989  1.2670
 2053SOL     OW 8165   7.792   6.099   0.917 -0.0314  0.4806 -0.9905
 2053SOL    HW1 8166   7.807   6.192   0.905  1.2570  0.3065 -0.8656
 2053SOL    HW2 8167   7.817   6.082   1.008 -3.0911  0.5302 -0.0216
 2054SOL     OW 8168   9.216   7.024   3.556  0.8836 -0.7992 -0.1999
 2054SOL    HW1 8169   9.257   7.087   3.498 -1.1384 -0.2622 -1.1340
 2054SOL    HW2 8170   9.204   7.071   3.639 -1.0366  0.2838 -1.0297
 2055SOL     OW 8171   0.727   8.127   5.314 -0.0387 -0.6444  0.7083
 2055SOL    HW1 8172   0.663   8.060   5.336 -0.5320 -0.8625 -1.2204
 2055SOL    HW2 8173   0.811   8.080   5.312 -0.4907 -1.4593 -1.4733
 2056SOL     OW 8174   8.585   2.762   2.848 -0.0476  0.5372  0.4970
 2056SOL    HW1 8175   8.639   2.767   2.926 -2.2343  2.3512  2.0312
 2056SOL    HW2 8176   8.600   2.844   2.801 -1.4846  1.1228  1.0099
 2057SOL     OW 8177   3.436   7.249  10.094 -0.1895  0.3266  1.2313
 2057SOL    HW1 8178   3.486   7.314  10.145 -1.9072  2.3667  0.4616
 2057SOL    HW2 8179   3.459   7.268  10.003 -1.3807  0.4844  0.9463
 2058SOL     OW 8180   5.812   6.266   1.710 -0.7620 -0.0332 -0.1284
 2058SOL    HW1 8181   5.884   6.314   1.669 -1.6086  1.1715 -0.2703
 2058SOL    HW2 8182   5.739   6.275   1.649 -1.5258  0.2499  0.7976
 2059SOL     OW 8183   6.733   7.132   3.192  0.2339  0.0754 -0.1659
 2059SOL    HW1 8184   6.752   7.093   3.278  0.4527 -0.1089 -0.2977
 2059SOL    HW2 8185   6.811   7.113   3.140  0.1296  0.2511 -0.3846
 2060SOL     OW 8186  11.007  10.910   8.006  0.9924 -0.3969  0.3913
 2060SOL    HW1 8187  11.054  10.830   7.983 -2.0873 -2.6429  1.3411
 2060SOL    HW2 8188  11.017  10.918   8.100  1.8735  0.8063  0.2183
 2061SOL     OW 8189   0.551   2.939   0.436  0.1487  0.6312 -0.1199
 2061SOL    HW1 8190   0.590   2.942   0.523 -1.9480  0.5508  0.8645
 2061SOL    HW2 8191   0.602   3.002   0.385  1.9921  0.0304  0.8675
 2062SOL     OW 8192   0.366   5.854   1.923 -0.0460  0.5379  0.0061
 2062SOL    HW1 8193   0.454   5.859   1.884 -0.1150  1.8233 -0.0387
 2062SOL    HW2 8194   0.358   5.764   1.953  1.6846  0.6453  0.9102
 2063SOL     OW 8195   7.964   3.842   3.134  0.3525 -0.2902 -0.7247
 2063SOL    HW1 8196   7.971   3.935   3.110  2.9477  0.5177  2.4843
 2063SOL    HW2 8197   7.872   3.830   3.158 -0.5187  0.7859 -3.1443
 2064SOL     OW 8198   5.185   1.177   1.369 -0.1951 -0.3926  0.5009
 2064SOL    HW1 8199   5.203   1.253   1.313 -0.2628  0.7080  1.9264
 2064SOL    HW2 8200   5.124   1.124   1.318 -2.1229  1.7379  0.4367
 2065SOL     OW 8201   9.465   5.957  10.826  0.2978  0.7670 -0.5266
 2065SOL    HW1 8202   9.486   6.014  10.752  0.8942 -1.2852 -2.0495
 2065SOL    HW2 8203   9.528   5.886  10.820  0.0240  0.2587  1.6950
 2066SOL     OW 8204   3.574   5.794   4.749 -0.1275 -0.6958 -0.1355
 2066SOL    HW1 8205   3.654   5.743   4.763 -0.8758 -1.5833  1.2408
 2066SOL    HW2 8206   3.604   5.883   4.732  1.1638 -0.9606  0.6182
 2067SOL     OW 8207   6.316  10.464   2.949  0.1448 -0.2699  0.4292
 2067SOL    HW1 8208   6.272  10.534   2.901  0.9418  0.5363  0.8391
 2067SOL    HW2 8209   6.404  10.499   2.966  0.3304 -1.1049  1.2357
 2068SOL     OW 8210   0.047   7.330   5.891 -0.1456  0.8013  0.2322
 2068SOL    HW1 8211   0.080   7.417   5.868 -1.0451  0.2525 -3.9934
 2068SOL    HW2 8212   0.084   7.273   5.824 -2.8765 -1.3261  0.3846
 2069SOL     OW 8213   0.100   6.959   6.368 -0.3384 -0.1191 -0.3887
 2069SOL    HW1 8214   0.127   6.999   6.285 -0.0534  0.6363  0.0556
 2069SOL    HW2 8215   0.019   7.004   6.390 -0.7296 -0.7383 -0.5489
 2070SOL     OW 8216   3.617   3.492  10.065  0.2674 -0.1453  0.0437
 2070SOL    HW1 8217   3.579   3.407  10.042  0.8034 -0.5368  0.5826
 2070SOL    HW2 8218   3.658   3.477  10.150  0.2645  0.6900  0.1923
 2071SOL     OW 8219   4.077   1.586  10.588  0.5031  0.0963  0.1260
 2071SOL    HW1 8220   4.142   1.606  10.521  2.2318  0.4436  1.8047
 2071SOL    HW2 8221   4.082   1.491  10.600 -0.2205 -0.0426 -0.6101
 2072SOL     OW 8222   4.836   8.557   8.277 -0.2519  0.1843 -0.0757
 2072SOL    HW1 8223   4.869   8.543   8.188 -0.9754 -0.8579 -0.1987
 2072SOL    HW2 8224   4.819   8.651   8.281 -0.9933  0.1364 -1.3406
 2073SOL     OW 8225   1.327   8.783   6.793 -0.1690 -0.0969 -0.1197
 2073SOL    HW1 8226   1.359   8.804   6.881 -1.1648 -1.7105  0.6751
 2073SOL    HW2 8227   1.387   8.716   6.761 -0.2343 -0.0388 -0.3626
 2074SOL     OW 8228   4.203   3.191   7.233  0.0029 -0.5075 -0.2274
 2074SOL    HW1 8229   4.268   3.242   7.186 -0.4773  0.5743  0.2433
 2074SOL    HW2 8230   4.119   3.215   7.192 -0.3195 -0.2627  0.5624
 2075SOL     OW 8231   5.961   1.039   4.596 -0.0990  0.0571  0.2070
 2075SOL    HW1 8232   5.878   1.077   4.624 -0.1830 -0.9121  1.3628
 2075SOL    HW2 8233   6.017   1.042   4.674  1.1672  1.2017 -0.6904
 2076SOL     OW 8234   2.597   2.970   7.879 -0.5524  0.4950 -0.5872
 2076SOL    HW1 8235   2.604   2.958   7.973  1.0236 -0.8091 -0.8055
 2076SOL    HW2 8236   2.543   2.896   7.849 -2.6584  1.9533 -0.5520
 2077SOL     OW 8237   6.889   6.433   9.292  0.2155 -0.0889  0.3316
 2077SOL    HW1 8238   6.796   6.441   9.272  0.2411 -0.1586  0.1885
 2077SOL    HW2 8239   6.893   6.434   9.388  0.0021 -0.8558  0.3492
 2078SOL     OW 8240   5.961  10.319   3.863  0.2445  0.2529 -0.2037
 2078SOL    HW1 8241   6.024  10.353   3.928  1.0549 -1.6389  0.0521
 2078SOL    HW2 8242   5.962  10.384   3.793  2.4537  0.3229 -0.1652
 2079SOL     OW 8243   5.408   6.462   0.999 -0.4450 -0.3991  0.2000
 2079SOL    HW1 8244   5.445   6.378   1.027 -0.3386 -0.4612 -0.1202
 2079SOL    HW2 8245   5.475   6.499   0.942  0.1433  0.5645  1.4507
 2080SOL     OW 8246   4.315   2.814   3.388  0.7423 -0.0446 -0.0461
 2080SOL    HW1 8247   4.362   2.760   3.325 -1.1667  0.5308 -2.0578
 2080SOL    HW2 8248   4.384   2.865   3.431  2.1993 -1.2744 -0.8111
 2081SOL     OW 8249   0.942   5.960   2.641 -0.0307  0.3933 -0.2512
 2081SOL    HW1 8250   0.853   5.993   2.652 -0.5008 -1.1562  1.0521
 2081SOL    HW2 8251   0.998   6.034   2.663 -1.0146  0.9242  0.5759
 2082SOL     OW 8252   4.152   9.485   3.175  0.8998 -0.4981 -0.1856
 2082SOL    HW1 8253   4.207   9.479   3.097  1.5645  0.1513  0.2212
 2082SOL    HW2 8254   4.065   9.506   3.141  1.4121  0.9428 -0.7058
 2083SOL     OW 8255   1.838   5.298   7.363  0.6097  0.4900 -0.7134
 2083SOL    HW1 8256   1.794   5.216   7.342  0.3520 -0.3167  2.4982
 2083SOL    HW2 8257   1.874   5.328   7.279 -1.2875 -1.6395 -2.4225
 2084SOL     OW 8258   2.505   9.989   8.123 -0.4366 -0.2737 -0.0281
 2084SOL    HW1 8259   2.473   9.911   8.077 -1.0953 -1.4851  2.3144
 2084SOL    HW2 8260   2.456   9.990   8.205  1.9689  0.6703  1.5131
 2085SOL     OW 8261   4.717   3.440   5.466 -0.6361  0.4007  0.5199
 2085SOL    HW1 8262   4.802   3.436   5.510 -0.6727  0.1047  0.5620
 2085SOL    HW2 8263   4.709   3.356   5.421 -1.2623  0.1016  1.1636
 2086SOL     OW 8264   1.041   5.962   4.735  0.1558  0.3501  0.6555
 2086SOL    HW1 8265   0.946   5.967   4.744 -0.2558 -1.0618 -1.9036
 2086SOL    HW2 8266   1.056   5.881   4.686  2.6780  0.6891  0.7400
 2087SOL     OW 8267   9.300  10.767   1.509  0.7041  0.3357 -0.4792
 2087SOL    HW1 8268   9.291  10.677   1.541 -0.7790  1.2006  1.7173
 2087SOL    HW2 8269   9.220  10.783   1.459  1.4238  0.1407 -1.7252
 2088SOL     OW 8270   9.345   3.763   1.323  0.9453  0.2992  0.3336
 2088SOL    HW1 8271   9.345   3.831   1.391  0.7300  0.6981 -0.0584
 2088SOL    HW2 8272   9.282   3.795   1.258 -1.0569 -1.4662  1.3125
 2089SOL     OW 8273   8.187   7.464   3.755 -0.1278  0.5315  0.8284
 2089SOL    HW1 8274   8.267   7.417   3.778 -0.2421  0.4190  0.9952
 2089SOL    HW2 8275   8.173   7.525   3.827 -0.4731  0.1905  1.0561
 2090SOL     OW 8276   9.173   8.489   0.409  0.2583  0.6715 -0.4828
 2090SOL    HW1 8277   9.196   8.434   0.334  0.5395  1.2535 -0.8296
 2090SOL    HW2 8278   9.180   8.579   0.376 -0.8876  0.9098 -0.1274
 2091SOL     OW 8279   6.791   6.219   0.813 -0.1420 -0.4084 -0.4177
 2091SOL    HW1 8280   6.819   6.129   0.792  1.3477  0.3301 -1.7799
 2091SOL    HW2 8281   6.760   6.213   0.903 -1.0556 -2.5021 -0.8029
 2092SOL     OW 8282   5.265   3.306   0.963  0.2323 -0.2247  0.6283
 2092SOL    HW1 8283   5.316   3.360   1.023  0.8120  0.6349 -0.5979
 2092SOL    HW2 8284   5.269   3.218   1.001  1.5765  0.0643  1.2217
 2093SOL     OW 8285   1.209   5.012   7.138 -0.6671 -0.2069 -0.2895
 2093SOL    HW1 8286   1.131   4.957   7.150 -0.4949 -0.4591 -0.3265
 2093SOL    HW2 8287   1.191   5.091   7.189  0.9628 -2.0943  3.5247
 2094SOL     OW 8288  10.249   4.080   6.770  1.0357 -0.3352 -1.1653
 2094SOL    HW1 8289  10.327   4.041   6.731  0.5225  0.6936 -3.4003
 2094SOL    HW2 8290  10.203   4.120   6.696 -1.7567 -1.1292  0.0051
 2095SOL     OW 8291   9.694   5.820   4.520  0.6107 -1.1176 -0.0040
 2095SOL    HW1 8292   9.657   5.895   4.473 -0.8051 -0.8093  1.4983
 2095SOL    HW2 8293   9.786   5.843   4.533  1.0313 -1.1759 -2.4481
 2096SOL     OW 8294   6.543  10.527   4.542  0.0251 -0.4899 -0.4697
 2096SOL    HW1 8295   6.521  10.585   4.470  0.1254 -0.2656 -0.3214
 2096SOL    HW2 8296   6.490  10.448   4.527 -1.3852  0.2881  0.2493
 2097SOL     OW 8297   5.697   5.134   1.048 -0.1888 -0.3079  0.0860
 2097SOL    HW1 8298   5.735   5.221   1.036  0.7817 -0.8123 -0.6643
 2097SOL    HW2 8299   5.608   5.142   1.013 -1.6679  1.4489  3.7651
 2098SOL     OW 8300   5.465   4.971   5.507 -0.1180  0.6792  0.5372
 2098SOL    HW1 8301   5.418   5.054   5.499 -0.4837  0.9268  3.8414
 2098SOL    HW2 8302   5.427   4.929   5.584  2.4474 -0.9223  1.0576
 2099SOL     OW 8303   6.401   9.587   8.607 -0.0298  0.8063 -0.3579
 2099SOL    HW1 8304   6.450   9.576   8.688  0.7349 -1.6400 -1.0578
 2099SOL    HW2 8305   6.389   9.682   8.598 -1.2994  1.1200  3.2210
 2100SOL     OW 8306   1.241  10.789  10.712  0.6481  0.3223  0.4202
 2100SOL    HW1 8307   1.167  10.753  10.761 -0.4128  0.4081 -1.0656
 2100SOL    HW2 8308   1.212  10.788  10.621  2.2990  0.8249 -0.1386
 2101SOL     OW 8309   2.622  10.377   8.861  0.4221 -0.0492  0.2314
 2101SOL    HW1 8310   2.615  10.405   8.952  1.0739  2.5877 -0.4518
 2101SOL    HW2 8311   2.543  10.412   8.819  0.8212 -0.0127 -0.5043
 2102SOL     OW 8312   2.563   3.674   5.651 -0.0561  0.0325 -0.3164
 2102SOL    HW1 8313   2.639   3.626   5.685  0.8860  0.5601 -1.5800
 2102SOL    HW2 8314   2.591   3.703   5.564 -1.6729  0.3518 -0.7553
 2103SOL     OW 8315   4.721   7.360   2.702  0.2126 -0.3540 -0.4951
 2103SOL    HW1 8316   4.746   7.425   2.767 -0.5301  0.8782 -1.3874
 2103SOL    HW2 8317   4.643   7.319   2.738  0.3256 -0.3171 -0.2040
 2104SOL     OW 8318   6.388   1.191   7.771 -0.2253 -0.2189  0.7529
 2104SOL    HW1 8319   6.475   1.222   7.745 -1.4160  2.1705 -0.6940
 2104SOL    HW2 8320   6.360   1.133   7.700 -1.0550  1.5787 -0.4577
 2105SOL     OW 8321   0.158   6.572   9.143  1.0112 -0.4440  0.1457
 2105SOL    HW1 8322   0.186   6.562   9.234  0.4232  0.9167  0.4908
 2105SOL    HW2 8323   0.074   6.526   9.138  1.6185 -1.5781 -0.0413
 2106SOL     OW 8324   2.095   5.465   4.430 -0.1606 -0.5871  0.1564
 2106SOL    HW1 8325   2.114   5.553   4.462  2.0394 -1.3312  1.1724
 2106SOL    HW2 8326   2.106   5.470   4.335  0.3248  0.1698  0.2465
 2107SOL     OW 8327   6.863   6.295   6.154 -0.5412  0.0361  0.1700
 2107SOL    HW1 8328   6.908   6.370   6.117 -0.4231  0.0357  0.3140
 2107SOL    HW2 8329   6.809   6.261   6.082 -0.7479  0.3799  0.1626
 2108SOL     OW 8330   8.532   4.949   9.232 -0.7127 -0.0538  0.2879
 2108SOL    HW1 8331   8.523   4.886   9.161 -1.3216 -0.2008  0.4901
 2108SOL    HW2 8332   8.470   4.918   9.299  1.0060 -0.8809  1.5846
 2109SOL     OW 8333  10.236   0.418   0.150  0.2956  0.0951 -0.5876
 2109SOL    HW1 8334  10.166   0.483   0.145 -1.6677 -1.7451  0.7379
 2109SOL    HW2 8335  10.273   0.415   0.061 -1.6352  0.8267 -1.4759
 2110SOL     OW 8336   5.716   2.274   0.327 -0.2098  0.4523 -0.6607
 2110SOL    HW1 8337   5.643   2.308   0.275 -1.1667  1.8967  1.4816
 2110SOL    HW2 8338   5.675   2.211   0.387  0.4825  0.4103 -0.2254
 2111SOL     OW 8339   8.913  10.804   3.104 -0.3022 -0.0978  0.4886
 2111SOL    HW1 8340   8.915  10.834   3.195  1.9799 -0.8095  0.7279
 2111SOL    HW2 8341   8.943  10.880   3.053 -0.0531 -0.1908  0.4963
 2112SOL     OW 8342   1.564   9.238   3.777  0.1174 -0.0502  0.5216
 2112SOL    HW1 8343   1.615   9.310   3.739  1.5513  0.1834  2.7210
 2112SOL    HW2 8344   1.576   9.166   3.716  2.2377  0.3375  0.4168
 2113SOL     OW 8345   7.867   2.063   7.809  0.1281 -0.0516 -0.1542
 2113SOL    HW1 8346   7.912   2.147   7.816  0.1736 -0.1908  1.6811
 2113SOL    HW2 8347   7.937   1.999   7.796  0.1492  0.0825 -0.7711
 2114SOL     OW 8348   3.311   9.629   9.098 -0.0148  0.5444  0.3465
 2114SOL    HW1 8349   3.401   9.650   9.123  0.0267 -0.6423  1.2778
 2114SOL    HW2 8350   3.294   9.544   9.138 -0.4434 -0.8424 -2.4797
 2115SOL     OW 8351   2.180   4.502  10.300  0.1758  0.4195 -0.4881
 2115SOL    HW1 8352   2.153   4.543  10.383 -1.6386  1.2470 -1.4306
 2115SOL    HW2 8353   2.261   4.456  10.322 -1.0798 -0.7766  2.1599
 2116SOL     OW 8354   1.525   8.943   3.891  0.0343 -0.8233  0.1873
 2116SOL    HW1 8355   1.574   8.933   3.809  0.6327 -1.7991  0.6428
 2116SOL    HW2 8356   1.531   9.036   3.911 -1.6832 -0.2132 -1.8069
 2117SOL     OW 8357  10.218   4.174   7.857 -1.3291 -0.0113 -0.4350
 2117SOL    HW1 8358  10.187   4.260   7.887  2.1624  0.7825  1.4681
 2117SOL    HW2 8359  10.286   4.195   7.792 -0.3658 -1.2628  0.1245
 2118SOL     OW 8360   1.656   7.319   7.738 -0.3995  0.1087 -0.0622
 2118SOL    HW1 8361   1.729   7.351   7.791 -1.7292  3.5622 -0.0002
 2118SOL    HW2 8362   1.665   7.365   7.655 -1.4401 -0.9056 -0.7623
 2119SOL     OW 8363   5.987   6.449   5.092 -0.3643 -0.4908  0.6165
 2119SOL    HW1 8364   5.938   6.386   5.039  0.9529 -0.7602 -0.3159
 2119SOL    HW2 8365   6.055   6.398   5.134  2.0994  0.5142 -1.8292
 2120SOL     OW 8366  10.238   9.618   9.009  0.1869  0.5620 -0.0806
 2120SOL    HW1 8367  10.159   9.663   9.039  0.5594  1.3372 -0.2278
 2120SOL    HW2 8368  10.300   9.689   8.991  0.4441  0.0484 -1.3209
 2121SOL     OW 8369   6.509   7.530   2.452 -0.3559  0.7784  0.2920
 2121SOL    HW1 8370   6.470   7.614   2.474 -6.9609 -1.7785  0.5624
 2121SOL    HW2 8371   6.533   7.537   2.360 -0.0841  3.0460  0.4947
 2122SOL     OW 8372   5.881  11.064   3.974 -0.1822 -0.2836  0.2879
 2122SOL    HW1 8373   5.944  11.103   4.035  1.0126 -1.9180  0.1796
 2122SOL    HW2 8374   5.878  11.125   3.900  2.5664 -0.8906 -0.4371
 2123SOL     OW 8375  10.891   7.581   4.719 -0.1259 -0.2737 -0.2211
 2123SOL    HW1 8376  10.863   7.537   4.639  1.5945 -1.5604 -0.1792
 2123SOL    HW2 8377  10.925   7.665   4.689  2.7083 -1.6463 -1.2751
 2124SOL     OW 8378   6.412   3.797   1.767  0.0109  0.1856 -0.4236
 2124SOL    HW1 8379   6.437   3.704   1.768 -1.5584 -0.3577 -2.9458
 2124SOL    HW2 8380   6.414   3.821   1.675 -1.6994  2.0475 -0.0311
 2125SOL     OW 8381   2.367   3.718   6.083 -0.7127  0.7413 -0.6567
 2125SOL    HW1 8382   2.403   3.732   5.995 -0.7473 -0.7767 -0.9462
 2125SOL    HW2 8383   2.276   3.694   6.068 -1.0104  1.5041 -0.1206
 2126SOL     OW 8384   4.152   1.322   2.208  0.2071  0.0459 -1.5793
 2126SOL    HW1 8385   4.119   1.247   2.158 -0.3805 -1.6208  1.1146
 2126SOL    HW2 8386   4.075   1.355   2.254  0.9123  0.8127 -0.9225
 2127SOL     OW 8387   4.648   1.344   6.802 -0.0596  0.1174 -0.5843
 2127SOL    HW1 8388   4.694   1.352   6.718  1.1610  0.9669  0.1350
 2127SOL    HW2 8389   4.576   1.407   6.795 -1.3247 -1.3721 -1.7993
 2128SOL     OW 8390   7.860   2.174   6.362 -0.5076 -0.7514 -0.1900
 2128SOL    HW1 8391   7.912   2.145   6.437  1.1591 -0.1245 -1.0451
 2128SOL    HW2 8392   7.770   2.153   6.386  0.0102 -0.9326  1.8026
 2129SOL     OW 8393   0.444   6.646   0.315 -0.5692  0.3135 -0.1237
 2129SOL    HW1 8394   0.386   6.696   0.374 -0.3661  1.9423 -1.2491
 2129SOL    HW2 8395   0.525   6.637   0.365 -0.8882  0.3748  0.4254
 2130SOL     OW 8396   9.058   1.206  10.879  0.4588 -0.1339 -0.0336
 2130SOL    HW1 8397   9.126   1.273  10.885  0.8776 -0.6698  1.5060
 2130SOL    HW2 8398   9.091   1.133  10.930 -1.1853 -0.4888  0.5731
 2131SOL     OW 8399   8.812   1.939   2.401 -0.2753 -0.6963  0.1819
 2131SOL    HW1 8400   8.744   1.973   2.344  0.1225 -1.1715 -0.5861
 2131SOL    HW2 8401   8.859   1.874   2.348  1.1985  0.0960  0.4425
 2132SOL     OW 8402   2.093   8.325   9.155  0.8037 -0.0016 -0.0642
 2132SOL    HW1 8403   2.080   8.234   9.183  0.1940 -0.2505 -1.0980
 2132SOL    HW2 8404   2.106   8.373   9.236 -2.9022 -0.3447  0.9325
 2133SOL     OW 8405  11.080   5.890   3.442  0.2815 -0.5372  0.3586
 2133SOL    HW1 8406  11.095   5.984   3.433  0.9988 -0.7234 -0.5061
 2133SOL    HW2 8407  10.985   5.882   3.446  0.1927  0.1866 -0.0599
 2134SOL     OW 8408   2.701   8.494  10.235  0.2797  0.1626 -0.1923
 2134SOL    HW1 8409   2.751   8.484  10.316  0.8443  1.6611 -0.3322
 2134SOL    HW2 8410   2.764   8.527  10.172 -0.4229  0.0705 -0.9517
 2135SOL     OW 8411   1.638   1.326   4.017 -0.1925  0.4864 -0.0761
 2135SOL    HW1 8412   1.644   1.400   4.078 -4.2538  1.7222 -0.8832
 2135SOL    HW2 8413   1.556   1.283   4.040  0.5821 -1.9892 -1.6011
 2136SOL     OW 8414   8.542   7.675   3.972 -0.3130 -0.4441 -0.5146
 2136SOL    HW1 8415   8.615   7.730   3.999  0.7625 -1.8998 -0.3467
 2136SOL    HW2 8416   8.484   7.734   3.923  0.8579  0.7770 -0.4834
 2137SOL     OW 8417   8.428   3.999   1.133  0.2527 -0.6728  0.4730
 2137SOL    HW1 8418   8.487   3.945   1.186  0.2234 -2.8502 -1.5244
 2137SOL    HW2 8419   8.487   4.050   1.077  0.2463  0.0390  1.0931
 2138SOL     OW 8420   7.955   2.754   3.580 -0.0371 -0.8168  0.5720
 2138SOL    HW1 8421   7.978   2.770   3.489  0.1902 -2.1591  0.3666
 2138SOL    HW2 8422   7.933   2.661   3.583 -2.3526 -0.3018  1.4302
 2139SOL     OW 8423   9.312   2.695   0.758  0.4412 -0.0096 -0.4436
 2139SOL    HW1 8424   9.356   2.664   0.837 -0.2617 -2.0455 -0.7900
 2139SOL    HW2 8425   9.273   2.779   0.783  2.7867  0.8948  0.4284
 2140SOL     OW 8426   7.977   7.733   3.791 -0.1498  0.2654  0.2842
 2140SOL    HW1 8427   8.062   7.777   3.797 -0.3692  0.9452 -1.1343
 2140SOL    HW2 8428   7.977   7.694   3.703 -0.5417 -1.4026  0.9824
 2141SOL     OW 8429   6.335   4.747   8.533  0.1137 -0.0534 -0.2195
 2141SOL    HW1 8430   6.382   4.723   8.453  2.2861  2.0116  0.3371
 2141SOL    HW2 8431   6.276   4.817   8.506 -0.0032 -0.1551 -0.2284
 2142SOL     OW 8432   2.050  11.059   5.561 -0.4430 -0.4455  0.1789
 2142SOL    HW1 8433   2.129  11.109   5.581  0.8132 -1.6623 -1.4139
 2142SOL    HW2 8434   2.052  11.048   5.466 -2.4100 -0.7528  0.1272
 2143SOL     OW 8435   3.223   7.880   7.791  0.3161 -0.1305  0.7783
 2143SOL    HW1 8436   3.199   7.967   7.761  2.1478  0.0528 -0.3261
 2143SOL    HW2 8437   3.152   7.823   7.761  0.0002  0.7121 -0.1167
 2144SOL     OW 8438   4.534   8.449   1.345  0.5215  0.3283 -0.3873
 2144SOL    HW1 8439   4.531   8.533   1.299  0.7325  0.2877 -0.4770
 2144SOL    HW2 8440   4.624   8.418   1.333  1.4050  1.5427  2.2889
 2145SOL     OW 8441  10.142   1.546   4.468  0.4457 -1.0379  0.4942
 2145SOL    HW1 8442  10.107   1.505   4.390  0.0686  1.8148 -0.9597
 2145SOL    HW2 8443  10.236   1.556   4.451  0.2628  0.1547  0.0676
 2146SOL     OW 8444   1.458   9.115   8.468  0.2740  0.3373 -0.1772
 2146SOL    HW1 8445   1.385   9.177   8.466 -1.3884 -1.5220 -1.3680
 2146SOL    HW2 8446   1.416   9.029   8.470  2.3958 -0.8578 -2.0203
 2147SOL     OW 8447   0.492   2.236   7.951  0.0897 -0.0029 -0.0303
 2147SOL    HW1 8448   0.556   2.299   7.987  0.7686 -0.7239  0.0476
 2147SOL    HW2 8449   0.468   2.273   7.866  0.5319  0.3427 -0.0115
 2148SOL     OW 8450   5.737   6.009   2.169 -0.2726  1.0335  0.2657
 2148SOL    HW1 8451   5.731   5.929   2.117  0.7958  0.4282  1.0491
 2148SOL    HW2 8452   5.723   6.079   2.106  0.6469  0.3002 -0.7894
 2149SOL     OW 8453   8.426   0.055   2.918 -0.4221 -0.2139  0.3330
 2149SOL    HW1 8454   8.375   0.106   2.855 -1.4876  0.4528  1.7043
 2149SOL    HW2 8455   8.470   0.120   2.972 -0.3091 -0.7781  0.9315
 2150SOL     OW 8456   9.099   7.015   7.048 -0.1571  0.0440  0.6316
 2150SOL    HW1 8457   9.189   7.044   7.032  0.0827 -0.9986 -0.0071
 2150SOL    HW2 8458   9.068   6.984   6.963 -2.1406  2.9464  0.1633
 2151SOL     OW 8459   6.180   6.476   9.788 -0.3998  0.0032 -0.3749
 2151SOL    HW1 8460   6.263   6.498   9.746 -0.9207  0.0359 -1.4269
 2151SOL    HW2 8461   6.114   6.514   9.731 -1.1312  0.8805  0.9877
 2152SOL     OW 8462   8.986   2.119   0.888  0.7911 -0.5790  0.0059
 2152SOL    HW1 8463   9.052   2.115   0.957 -0.2838 -1.5074  1.0255
 2152SOL    HW2 8464   8.978   2.028   0.858 -0.1545 -0.5126  0.0330
 2153SOL     OW 8465   6.755   7.271  10.000 -0.2476  0.6445 -0.3450
 2153SOL    HW1 8466   6.687   7.210   9.969  0.1072 -0.3735  0.7987
 2153SOL    HW2 8467   6.789   7.230  10.080  0.5640  1.9679  0.0128
 2154SOL     OW 8468   3.911  10.412   1.028 -0.1309  0.0697  0.4354
 2154SOL    HW1 8469   3.937  10.339   0.970 -0.0721  0.4986 -0.0884
 2154SOL    HW2 8470   3.923  10.378   1.116 -2.0611 -1.2907  0.2549
 2155SOL     OW 8471   1.418   0.625   1.748 -0.2295  0.1919  0.6571
 2155SOL    HW1 8472   1.341   0.603   1.800 -0.5044  0.6673  0.4584
 2155SOL    HW2 8473   1.408   0.575   1.667  1.5784 -2.7710  2.0879
 2156SOL     OW 8474   9.159   9.017   8.230  0.0914 -0.2997 -0.5074
 2156SOL    HW1 8475   9.171   8.998   8.137 -0.9858  1.7963 -1.1200
 2156SOL    HW2 8476   9.137   8.932   8.269 -0.6262 -1.0169 -2.3725
 2157SOL     OW 8477   3.940   4.984   7.156 -0.1887  0.2663  0.0510
 2157SOL    HW1 8478   3.921   5.074   7.181 -1.1453  0.1101 -0.0547
 2157SOL    HW2 8479   3.897   4.973   7.071  1.1109  0.1242 -0.6202
 2158SOL     OW 8480   5.659   5.647   5.753 -0.2143  0.0415  0.4495
 2158SOL    HW1 8481   5.609   5.719   5.714  1.2195  0.6790 -0.2452
 2158SOL    HW2 8482   5.714   5.689   5.819  1.9712 -0.0882 -1.1868
 2159SOL     OW 8483   2.240   2.923  10.207  0.3284  0.2832  0.0968
 2159SOL    HW1 8484   2.198   2.838  10.219  1.1602 -0.4045 -1.5667
 2159SOL    HW2 8485   2.234   2.965  10.292  1.4955 -2.1683  1.5062
 2160SOL     OW 8486   9.275   6.721   5.393  0.0539  0.5856  0.1367
 2160SOL    HW1 8487   9.194   6.767   5.416 -2.0200 -2.4301 -0.4737
 2160SOL    HW2 8488   9.266   6.635   5.434  2.4208 -0.2842 -0.9972
 2161SOL     OW 8489   2.416  10.536   7.405  0.2680  0.5490  0.1054
 2161SOL    HW1 8490   2.496  10.502   7.446  1.4322 -2.1962 -3.9109
 2161SOL    HW2 8491   2.352  10.467   7.419  0.4122  0.0127 -1.7156
 2162SOL     OW 8492   0.365   3.794   5.637  0.0241  0.0216  0.0739
 2162SOL    HW1 8493   0.332   3.800   5.547 -0.2580  0.6411  0.2130
 2162SOL    HW2 8494   0.377   3.700   5.652  2.2118 -0.0280 -1.3746
 2163SOL     OW 8495   8.065   7.435   4.148  0.9276 -0.1820  0.1434
 2163SOL    HW1 8496   8.130   7.365   4.148  2.1600  0.9438  0.4249
 2163SOL    HW2 8497   8.111   7.512   4.115  0.0819  0.9423  1.4650
 2164SOL     OW 8498   8.610   9.244   5.211  0.0855 -0.2273 -0.5696
 2164SOL    HW1 8499   8.545   9.247   5.140  0.0691  1.3141 -0.5388
 2164SOL    HW2 8500   8.667   9.319   5.193  1.1693 -0.8809  0.0564
 2165SOL     OW 8501   0.885   3.936   2.588 -0.2957  0.3222  0.0288
 2165SOL    HW1 8502   0.967   3.895   2.557 -0.5627  0.8139 -1.4334
 2165SOL    HW2 8503   0.913   4.000   2.653  0.3034 -0.7902  0.8960
 2166SOL     OW 8504   6.625   5.244   4.072  0.3314 -0.5506  0.5048
 2166SOL    HW1 8505   6.647   5.157   4.040 -0.2572 -1.0648  1.4618
 2166SOL    HW2 8506   6.552   5.273   4.017  0.1825 -0.8829  0.5270
 2167SOL     OW 8507   4.896   4.548   3.548  0.0977  0.0300 -0.9172
 2167SOL    HW1 8508   4.940   4.516   3.469 -1.2696 -0.9610 -1.3004
 2167SOL    HW2 8509   4.941   4.631   3.568 -1.3939  1.9256 -4.4565
 2168SOL     OW 8510   3.532   2.774   5.253  0.0280  0.3563  0.1617
 2168SOL    HW1 8511   3.493   2.693   5.286  0.1730 -0.2400 -1.0526
 2168SOL    HW2 8512   3.461   2.838   5.258 -0.7464 -0.3880 -0.7840
 2169SOL     OW 8513   4.740   4.146   9.705  0.4299 -0.1431 -0.4633
 2169SOL    HW1 8514   4.657   4.100   9.712 -1.2909  2.7265 -0.6211
 2169SOL    HW2 8515   4.753   4.157   9.611  2.4874 -2.8616 -0.6430
 2170SOL     OW 8516   2.564   3.214   3.428 -0.0789  0.0738  0.3277
 2170SOL    HW1 8517   2.499   3.283   3.443 -0.6034 -0.3601  0.0651
 2170SOL    HW2 8518   2.648   3.258   3.441 -0.4371  0.3770  1.8161
 2171SOL     OW 8519  10.598   8.991   8.103 -0.0181  0.1694  0.5005
 2171SOL    HW1 8520  10.569   9.077   8.134 -0.2144  1.2229 -2.3006
 2171SOL    HW2 8521  10.583   8.932   8.177 -0.5886  2.3937  2.2529
 2172SOL     OW 8522   8.728   2.078   5.171 -0.0159 -0.3071  0.6620
 2172SOL    HW1 8523   8.710   1.991   5.204  2.2137 -0.8337  0.6715
 2172SOL    HW2 8524   8.788   2.064   5.098 -0.1960  1.1779  0.1907
 2173SOL     OW 8525   4.740   1.894  10.870 -0.0130 -0.5770  0.2964
 2173SOL    HW1 8526   4.736   1.948  10.948 -0.9206 -0.2523  0.0434
 2173SOL    HW2 8527   4.704   1.950  10.800  0.4066 -0.9968 -0.2656
 2174SOL     OW 8528   6.063   2.562   5.288 -0.3436 -0.2809  0.1485
 2174SOL    HW1 8529   6.102   2.550   5.375  2.9351  0.9667 -0.9998
 2174SOL    HW2 8530   6.067   2.476   5.248 -0.8687 -0.6344  0.8309
 2175SOL     OW 8531   8.343   3.002   1.866 -0.3890  0.4600  0.4443
 2175SOL    HW1 8532   8.431   2.967   1.848 -0.4338  1.3165 -1.6575
 2175SOL    HW2 8533   8.337   3.001   1.962  1.5032 -0.5890  0.6127
 2176SOL     OW 8534   4.935   3.091   5.838 -0.1109 -0.1914  0.4692
 2176SOL    HW1 8535   4.849   3.086   5.881 -0.9227  2.0481 -0.7370
 2176SOL    HW2 8536   4.915   3.097   5.745  1.5395 -2.9974 -0.1850
 2177SOL     OW 8537   9.366  10.935   3.298  0.0675  0.3085 -0.3498
 2177SOL    HW1 8538   9.435  10.936   3.231 -1.4669 -1.5858 -2.1177
 2177SOL    HW2 8539   9.335  10.845   3.299  0.2652  0.1309  3.3289
 2178SOL     OW 8540   8.607   5.826   7.486  0.0369 -1.0531 -0.1313
 2178SOL    HW1 8541   8.648   5.858   7.566  1.0145 -1.6447 -0.3793
 2178SOL    HW2 8542   8.619   5.897   7.423  0.0307 -0.9387 -0.0057
 2179SOL     OW 8543   0.902   4.412   6.377  0.3404 -0.1491  1.0489
 2179SOL    HW1 8544   0.831   4.464   6.339  1.7125 -0.8176 -2.8316
 2179SOL    HW2 8545   0.972   4.476   6.393  1.8579 -0.3915 -3.2953
 2180SOL     OW 8546  10.699   6.878   9.205  0.6216  0.4172 -0.2493
 2180SOL    HW1 8547  10.670   6.952   9.151 -0.0441  0.2620 -0.1193
 2180SOL    HW2 8548  10.692   6.910   9.295  1.4267  0.5715 -0.2398
 2181SOL     OW 8549   6.224   1.766   9.382 -0.4387 -0.0292 -0.0096
 2181SOL    HW1 8550   6.239   1.860   9.396 -2.7135  0.2986  0.5659
 2181SOL    HW2 8551   6.198   1.734   9.468  0.3100 -1.2172 -0.2081
 2182SOL     OW 8552   6.542   4.585  10.298  0.3310 -0.0363 -0.3904
 2182SOL    HW1 8553   6.614   4.522  10.298  0.4104  0.0132  1.2173
 2182SOL    HW2 8554   6.578   4.662  10.253  1.1498 -0.1731  0.0026
 2183SOL     OW 8555   7.278   6.201   8.750  0.4373 -0.1859 -0.0446
 2183SOL    HW1 8556   7.371   6.204   8.725  0.5230  0.8815  0.3678
 2183SOL    HW2 8557   7.260   6.287   8.787 -0.2324 -0.9987  1.6366
 2184SOL     OW 8558   2.034   1.310   9.910  0.4600 -0.1867 -0.0162
 2184SOL    HW1 8559   1.952   1.357   9.924  0.2749 -0.7756  0.9548
 2184SOL    HW2 8560   2.044   1.255   9.987  2.3261  0.6653  0.4200
 2185SOL     OW 8561   2.595   5.318   5.709 -0.2278  0.3398  0.1409
 2185SOL    HW1 8562   2.585   5.406   5.672 -0.8723  0.7601  1.2578
 2185SOL    HW2 8563   2.658   5.275   5.652  2.7734  2.6312  1.4365
 2186SOL     OW 8564   9.138   3.613   6.426  0.9935 -0.1108  0.4850
 2186SOL    HW1 8565   9.155   3.532   6.377  0.4084 -0.2792  0.5588
 2186SOL    HW2 8566   9.225   3.641   6.455  1.6789  1.2122 -2.5146
 2187SOL     OW 8567   3.824   9.567   6.597 -0.7478 -0.7120  0.5486
 2187SOL    HW1 8568   3.818   9.514   6.517 -1.8861 -0.5276  0.4953
 2187SOL    HW2 8569   3.893   9.631   6.578 -1.6259 -0.0711 -0.6687
 2188SOL     OW 8570  10.018  10.861   4.472 -0.3610 -0.5750 -0.1780
 2188SOL    HW1 8571  10.030  10.921   4.546 -0.3112  0.4572 -1.0079
 2188SOL    HW2 8572   9.958  10.907   4.414 -0.0988 -1.2134 -0.9668
 2189SOL     OW 8573   3.428   2.522   7.311 -0.5422  0.4601 -0.5341
 2189SOL    HW1 8574   3.345   2.475   7.316 -0.5251  0.3537 -1.1646
 2189SOL    HW2 8575   3.490   2.458   7.278  0.7573 -0.6882  3.4861
 2190SOL     OW 8576   6.470   2.854   0.148 -0.3152 -0.0224  0.4158
 2190SOL    HW1 8577   6.402   2.911   0.114  1.0604  1.7612  0.4705
 2190SOL    HW2 8578   6.529   2.840   0.074  0.6644  0.7175  1.0272
 2191SOL     OW 8579   9.268  10.308   9.901  0.0005  0.8018 -0.6429
 2191SOL    HW1 8580   9.291  10.316   9.809  0.1668 -0.7458 -0.7503
 2191SOL    HW2 8581   9.213  10.385   9.919 -0.0712  1.0869 -2.0341
 2192SOL     OW 8582   2.436   0.326   2.127 -0.2231  0.2648  0.4669
 2192SOL    HW1 8583   2.510   0.358   2.075 -0.2176 -1.2379 -0.4919
 2192SOL    HW2 8584   2.360   0.373   2.092 -0.1512 -0.3951 -0.6385
 2193SOL     OW 8585   4.717   5.225   0.497  0.4593 -0.5723 -0.4725
 2193SOL    HW1 8586   4.644   5.162   0.495 -0.0624  0.0325 -1.0774
 2193SOL    HW2 8587   4.794   5.174   0.475  0.6169 -1.7049  2.2974
 2194SOL     OW 8588   9.448   2.764   1.254  0.2051 -0.6889  0.7570
 2194SOL    HW1 8589   9.379   2.830   1.247 -0.0502 -0.5220  3.5325
 2194SOL    HW2 8590   9.402   2.681   1.253  0.5418 -0.9807 -2.9248
 2195SOL     OW 8591   5.964   6.704  10.357 -0.1630 -0.3299  0.2398
 2195SOL    HW1 8592   6.007   6.698  10.272  1.4766  0.0655  1.0180
 2195SOL    HW2 8593   6.025   6.663  10.418 -0.2460  1.4879  1.6013
 2196SOL     OW 8594   9.943   1.626   5.156 -0.1979  0.3332  0.6631
 2196SOL    HW1 8595  10.033   1.651   5.176  0.3668 -1.5792  0.6552
 2196SOL    HW2 8596   9.913   1.693   5.094  0.8315  1.6004  1.4958
 2197SOL     OW 8597   3.909   7.018   9.746  0.2168  0.1510  0.6076
 2197SOL    HW1 8598   3.929   6.940   9.696 -0.7022  1.0057 -1.1801
 2197SOL    HW2 8599   3.832   6.994   9.798 -0.3728 -0.0186 -0.3131
 2198SOL     OW 8600   2.818   0.215   1.036  0.2224 -0.4057  0.2433
 2198SOL    HW1 8601   2.816   0.304   1.001  1.5214 -0.9078 -1.2076
 2198SOL    HW2 8602   2.728   0.198   1.064 -0.6734  0.4285 -1.9208
 2199SOL     OW 8603   7.411   2.624   6.479  0.0401 -0.9292 -0.2058
 2199SOL    HW1 8604   7.355   2.667   6.543  0.2557  2.1997 -1.9035
 2199SOL    HW2 8605   7.483   2.686   6.464  0.5825 -1.9952 -2.5867
 2200SOL     OW 8606  11.054   9.670   8.625  0.8991 -0.1225 -0.1867
 2200SOL    HW1 8607  10.997   9.602   8.588 -0.6915  1.6705 -1.1569
 2200SOL    HW2 8608  11.113   9.621   8.682 -1.9470 -2.0557  1.3805
 2201SOL     OW 8609   4.572  11.043  10.582  0.1983 -0.9312  0.9727
 2201SOL    HW1 8610   4.600  11.053  10.491 -0.6697  1.9717  0.9361
 2201SOL    HW2 8611   4.653  11.051  10.633  0.2605  1.7092  0.5867
 2202SOL     OW 8612   4.275   8.054   8.582 -0.8237  0.0718 -0.0945
 2202SOL    HW1 8613   4.352   7.999   8.565  1.6440  3.6134 -1.4609
 2202SOL    HW2 8614   4.231   8.060   8.497 -2.0762 -1.0512  0.4375
 2203SOL     OW 8615   2.003   2.996   6.189  0.3052  0.2757  0.0810
 2203SOL    HW1 8616   2.080   2.957   6.146  1.1097  1.4146  0.4336
 2203SOL    HW2 8617   1.998   3.084   6.153 -1.1623  0.0651 -0.3023
 2204SOL     OW 8618   5.627   3.811  10.350 -0.3959 -0.1928 -0.0294
 2204SOL    HW1 8619   5.615   3.809  10.445  1.1043  2.6300  0.3040
 2204SOL    HW2 8620   5.563   3.747  10.317 -2.9269  0.7366  2.6606
 2205SOL     OW 8621   6.889   0.557   9.105 -0.0128  0.0118 -0.0182
 2205SOL    HW1 8622   6.831   0.596   9.169  0.4911 -1.7251  1.5855
 2205SOL    HW2 8623   6.977   0.579   9.135  0.2461 -1.2872  0.2410
 2206SOL     OW 8624   0.250   6.216   9.024  0.8130 -0.6753 -0.4746
 2206SOL    HW1 8625   0.283   6.260   9.102  1.5219 -0.7878 -0.7070
 2206SOL    HW2 8626   0.157   6.203   9.042  0.3281  1.8043 -0.7874
 2207SOL     OW 8627   1.368   6.267   3.644  0.2169 -0.1457 -0.2698
 2207SOL    HW1 8628   1.372   6.215   3.724 -2.1011 -0.4874 -0.3083
 2207SOL    HW2 8629   1.441   6.234   3.591 -0.4268 -2.5424  0.1996
 2208SOL     OW 8630   9.771   9.767  10.413  0.5297 -0.6209  0.3540
 2208SOL    HW1 8631   9.834   9.785  10.482  1.7358 -0.9571 -0.6283
 2208SOL    HW2 8632   9.824   9.748  10.336 -0.7618 -2.1912 -0.1984
 2209SOL     OW 8633   4.832   7.069   0.806  0.6935  0.4485  0.3663
 2209SOL    HW1 8634   4.756   7.071   0.747  0.3552  0.4739  0.7969
 2209SOL    HW2 8635   4.838   7.159   0.839  1.8845  0.8565 -0.8785
 2210SOL     OW 8636   3.102   4.110   0.411 -0.2342 -0.2516 -0.3724
 2210SOL    HW1 8637   3.124   4.197   0.446 -0.9671 -0.0972 -0.2634
 2210SOL    HW2 8638   3.184   4.076   0.376 -0.1124  0.9013 -1.2974
 2211SOL     OW 8639   8.671   6.481   7.108  0.4704 -0.4874  0.0137
 2211SOL    HW1 8640   8.585   6.485   7.066  1.0076 -2.2440 -1.4158
 2211SOL    HW2 8641   8.652   6.460   7.199 -0.6189 -1.8718 -0.4929
 2212SOL     OW 8642  11.023   0.699   0.436  0.2159 -0.2897 -0.8069
 2212SOL    HW1 8643  10.928   0.696   0.448  0.1638  0.6873 -0.8768
 2212SOL    HW2 8644  11.041   0.637   0.366 -0.3229 -0.7344 -0.5656
 2213SOL     OW 8645   2.513   2.466   8.615 -1.3133 -0.5148 -0.0926
 2213SOL    HW1 8646   2.552   2.482   8.530 -1.3894  0.5726  0.0674
 2213SOL    HW2 8647   2.582   2.422   8.665 -0.1565  1.5919  0.2666
 2214SOL     OW 8648   3.813   2.880   1.522  0.3913 -0.1125  0.3816
 2214SOL    HW1 8649   3.733   2.832   1.499  0.0875 -1.0891  3.1612
 2214SOL    HW2 8650   3.788   2.972   1.514 -0.6975 -0.4054  0.2250
 2215SOL     OW 8651   8.037   4.448   0.049  0.1888 -0.0483  0.2756
 2215SOL    HW1 8652   8.000   4.525   0.093 -1.2823 -0.0955 -0.8186
 2215SOL    HW2 8653   8.108   4.420   0.107  0.3760  1.7661  1.0046
 2216SOL     OW 8654   1.573   1.228   5.242  0.5166 -0.2573 -0.0151
 2216SOL    HW1 8655   1.608   1.237   5.154 -0.2251  1.0098 -0.1970
 2216SOL    HW2 8656   1.534   1.140   5.244  0.5556 -0.2997 -0.9428
 2217SOL     OW 8657   0.993   1.904   0.361 -0.0420  0.4092  0.0499
 2217SOL    HW1 8658   0.985   1.857   0.444  0.9370  1.2082  0.6248
 2217SOL    HW2 8659   0.994   1.835   0.294  1.9982 -0.4915  0.9114
 2218SOL     OW 8660   1.300   8.028   9.477  0.5084  0.2979  0.3153
 2218SOL    HW1 8661   1.227   8.057   9.532 -0.5367 -0.4650 -0.6195
 2218SOL    HW2 8662   1.307   8.096   9.410  0.6958  0.3961  0.4334
 2219SOL     OW 8663   9.308   7.151  10.653 -0.3925  0.0935 -0.2505
 2219SOL    HW1 8664   9.264   7.235  10.650 -0.9791 -0.2290 -1.9434
 2219SOL    HW2 8665   9.365   7.156  10.729 -1.4393  1.4879  0.4814
 2220SOL     OW 8666   2.611   2.698   4.158  0.7662  0.3410  0.3124
 2220SOL    HW1 8667   2.688   2.659   4.201  1.9812 -0.4042 -2.2961
 2220SOL    HW2 8668   2.635   2.699   4.065 -2.7127 -0.6866 -0.7295
 2221SOL     OW 8669   0.051   4.698   9.486  0.0042  0.1125  0.1383
 2221SOL    HW1 8670  -0.008   4.624   9.497  0.2141 -0.4663 -2.0936
 2221SOL    HW2 8671  -0.002   4.765   9.442  0.2742  0.6518  0.6150
 2222SOL     OW 8672   9.951  10.233   0.535  0.0384 -0.3985 -0.5554
 2222SOL    HW1 8673  10.017  10.246   0.466 -1.1526  1.8443 -1.3895
 2222SOL    HW2 8674   9.906  10.317   0.540  0.0575 -0.4676  3.0156
 2223SOL     OW 8675   9.434   3.743   7.296  0.0972  0.4989  0.2560
 2223SOL    HW1 8676   9.385   3.680   7.244 -0.0539  0.3811  0.5365
 2223SOL    HW2 8677   9.522   3.706   7.302 -0.5336 -0.8688  2.3172
 2224SOL     OW 8678   2.233  10.710   2.226  0.3961  0.3383 -0.1644
 2224SOL    HW1 8679   2.262  10.650   2.294  0.1296  1.4876  0.9987
 2224SOL    HW2 8680   2.152  10.672   2.193  0.3001 -0.0135  0.4638
 2225SOL     OW 8681   0.289   7.592  11.032  0.4215 -0.9140 -0.3564
 2225SOL    HW1 8682   0.319   7.634  10.951 -2.5280  0.0818 -1.0417
 2225SOL    HW2 8683   0.246   7.662  11.081 -0.8615 -2.2457  0.4748
 2226SOL     OW 8684  11.079   8.618   6.494 -0.8129 -0.0309  0.4343
 2226SOL    HW1 8685  11.005   8.665   6.455 -0.4082 -0.3482 -0.7773
 2226SOL    HW2 8686  11.155   8.647   6.443 -0.5270 -1.8586 -0.2543
 2227SOL     OW 8687   2.710   8.442   1.177  0.2226 -1.2005  0.2743
 2227SOL    HW1 8688   2.738   8.518   1.228 -0.5662 -1.4405  1.0972
 2227SOL    HW2 8689   2.617   8.458   1.158  0.7454 -0.6235 -2.0187
 2228SOL     OW 8690   7.383   3.156  10.345 -0.0848 -0.1195  0.1734
 2228SOL    HW1 8691   7.392   3.154  10.440 -1.0253  1.5154  0.3548
 2228SOL    HW2 8692   7.304   3.209  10.330  0.3773  0.1557 -1.5277
 2229SOL     OW 8693   8.568   3.943   4.022  0.4911 -0.0852  0.6386
 2229SOL    HW1 8694   8.600   3.922   4.109  2.1193  0.6961  0.2722
 2229SOL    HW2 8695   8.637   3.912   3.963 -0.9571 -1.3841 -0.4597
 2230SOL     OW 8696   5.966   0.647   9.931 -0.0853 -1.1486 -0.5271
 2230SOL    HW1 8697   6.052   0.667   9.895  0.0424  1.0206  0.7858
 2230SOL    HW2 8698   5.955   0.554   9.916  1.7001 -1.1419 -2.3492
 2231SOL     OW 8699   9.807   0.074   0.120 -0.4842  0.6883  0.0575
 2231SOL    HW1 8700   9.714   0.096   0.126 -0.2983  1.4566  0.2450
 2231SOL    HW2 8701   9.821   0.056   0.027 -0.6825  1.2206 -0.0792
 2232SOL     OW 8702   1.314   7.174   4.179  0.3387 -0.2424  0.7200
 2232SOL    HW1 8703   1.225   7.197   4.207  0.7151  1.4705  0.6121
 2232SOL    HW2 8704   1.303   7.136   4.092 -0.2576  0.3715  0.5217
 2233SOL     OW 8705   1.580   1.598   5.912  0.1225  0.0549 -0.3712
 2233SOL    HW1 8706   1.517   1.536   5.875  0.6465 -0.9588  0.3808
 2233SOL    HW2 8707   1.632   1.545   5.973 -0.5330  1.5873  1.6231
 2234SOL     OW 8708   4.866   6.283   1.639  0.3894  0.0400  0.0768
 2234SOL    HW1 8709   4.939   6.234   1.677 -0.0633  0.1711  1.1576
 2234SOL    HW2 8710   4.822   6.220   1.581 -1.8342 -1.8743  3.4611
 2235SOL     OW 8711   3.136   3.745   1.782  0.2697  0.1857  0.2037
 2235SOL    HW1 8712   3.116   3.814   1.845 -0.8594  0.0600 -0.0089
 2235SOL    HW2 8713   3.223   3.715   1.807  1.1090  2.1686 -0.1323
 2236SOL     OW 8714   0.532   2.892   8.967 -0.6422  0.0839 -0.5738
 2236SOL    HW1 8715   0.585   2.969   8.950 -2.1697  1.3005 -0.0723
 2236SOL    HW2 8716   0.442   2.922   8.955 -1.2393 -2.1182 -2.2775
 2237SOL     OW 8717   4.772   1.734   2.411 -0.0710  0.6643 -0.4113
 2237SOL    HW1 8718   4.806   1.813   2.453  0.3926 -1.0853  2.8055
 2237SOL    HW2 8719   4.846   1.674   2.408 -1.0777 -0.6307 -0.1571
 2238SOL     OW 8720   7.883   0.500   4.426  0.4764 -0.5678 -0.1144
 2238SOL    HW1 8721   7.856   0.585   4.390 -0.3566  0.3965  2.5199
 2238SOL    HW2 8722   7.818   0.438   4.393 -0.7159  0.4130  0.2887
 2239SOL     OW 8723   8.124   1.683   8.814 -0.7641  0.4408 -0.9339
 2239SOL    HW1 8724   8.169   1.757   8.774 -0.0060 -0.5567 -2.0157
 2239SOL    HW2 8725   8.147   1.608   8.757 -2.7443 -0.3395 -0.7745
 2240SOL     OW 8726   2.194   7.424   1.455 -0.6186 -0.1482 -0.1749
 2240SOL    HW1 8727   2.148   7.357   1.405 -0.9150 -1.3933  1.6430
 2240SOL    HW2 8728   2.126   7.487   1.479 -0.5705  0.1836 -0.9050
 2241SOL     OW 8729   7.174  10.163   1.676 -0.3019 -0.0448 -0.4056
 2241SOL    HW1 8730   7.129  10.116   1.746 -2.8890  4.2715  1.2084
 2241SOL    HW2 8731   7.132  10.132   1.596  0.4858 -2.7717  0.1420
 2242SOL     OW 8732   4.837  10.991   5.554  0.4030  0.8991  0.3002
 2242SOL    HW1 8733   4.916  11.032   5.589  0.8966  0.7414 -0.5757
 2242SOL    HW2 8734   4.825  11.033   5.469 -0.6596  1.1582  0.5690
 2243SOL     OW 8735   9.776   2.963   9.456 -0.1571  0.7854 -0.3766
 2243SOL    HW1 8736   9.720   2.885   9.451  1.5708 -0.5233 -0.0354
 2243SOL    HW2 8737   9.719   3.030   9.493 -1.7352 -0.2595 -0.8087
 2244SOL     OW 8738   9.870   2.560  10.151  0.0213 -0.2843 -0.0733
 2244SOL    HW1 8739   9.884   2.650  10.122  0.6442 -0.3995 -0.1322
 2244SOL    HW2 8740   9.830   2.517  10.075  1.0044 -0.4058 -0.5298
 2245SOL     OW 8741  10.805  10.065   4.617  0.2198  0.1032  0.1145
 2245SOL    HW1 8742  10.817  10.158   4.596  2.2443 -0.4683 -1.6663
 2245SOL    HW2 8743  10.894  10.032   4.631 -0.4702 -1.5352  0.8768
 2246SOL     OW 8744   4.386  10.679   4.252  0.9876 -0.5090  0.5475
 2246SOL    HW1 8745   4.300  10.641   4.235  0.8233 -0.3519  1.0101
 2246SOL    HW2 8746   4.447  10.620   4.208  0.4998  0.7309 -1.9297
 2247SOL     OW 8747   9.847   8.082   0.910 -0.0232 -0.6885  0.3310
 2247SOL    HW1 8748   9.777   8.046   0.966 -0.3665 -1.9442 -0.8271
 2247SOL    HW2 8749   9.859   8.015   0.842  0.6042  0.6220 -0.9003
 2248SOL     OW 8750   5.003   2.479  10.247 -0.6374 -0.4297  0.5439
 2248SOL    HW1 8751   5.048   2.564  10.243  0.4143 -0.9938 -0.2836
 2248SOL    HW2 8752   4.918   2.495  10.204 -0.8175  0.4079  1.1945
 2249SOL     OW 8753   7.416   1.519   6.187 -0.7934 -0.2150 -0.1029
 2249SOL    HW1 8754   7.405   1.444   6.245  0.7504 -0.5020 -0.1391
 2249SOL    HW2 8755   7.460   1.484   6.109 -0.8362  0.5691 -0.4960
 2250SOL     OW 8756   8.241   0.825   0.312 -0.7962 -0.3350 -0.5224
 2250SOL    HW1 8757   8.210   0.843   0.401 -0.6085  0.6687 -0.6514
 2250SOL    HW2 8758   8.160   0.821   0.260 -0.8646 -0.2915 -0.4206
 2251SOL     OW 8759   3.306   3.216   9.351  0.6890  0.0322 -0.5193
 2251SOL    HW1 8760   3.318   3.121   9.350  1.7410  0.1402 -2.5596
 2251SOL    HW2 8761   3.342   3.246   9.268 -1.5455  2.0097 -0.8975
 2252SOL     OW 8762   4.162   7.087   3.028 -0.5977 -0.3749 -0.1154
 2252SOL    HW1 8763   4.255   7.083   3.003 -0.9219 -0.0544 -1.4609
 2252SOL    HW2 8764   4.118   7.030   2.966 -1.7067  2.0655 -1.7364
 2253SOL     OW 8765   8.394   7.270   3.464 -0.3426 -0.1232 -0.0005
 2253SOL    HW1 8766   8.393   7.318   3.381  2.3747 -0.1599 -0.1433
 2253SOL    HW2 8767   8.458   7.316   3.518 -1.6130 -0.4677  1.9022
 2254SOL     OW 8768   5.702   2.215   3.905 -0.4558  0.0514 -0.4662
 2254SOL    HW1 8769   5.769   2.244   3.843 -0.4867 -0.8114 -0.9344
 2254SOL    HW2 8770   5.629   2.188   3.849 -0.4646 -0.8001 -0.0658
 2255SOL     OW 8771   0.672   4.936   1.135 -0.5410 -0.4722 -0.1746
 2255SOL    HW1 8772   0.706   4.905   1.051  0.9962  1.0633 -0.1701
 2255SOL    HW2 8773   0.580   4.910   1.134  0.0131 -2.6710 -1.2357
 2256SOL     OW 8774   8.925  11.075   3.004 -0.3557  0.1739 -0.2646
 2256SOL    HW1 8775   8.840  11.036   2.983 -0.2557  0.7031 -1.7885
 2256SOL    HW2 8776   8.976  11.065   2.923  1.1385 -0.3920  0.7187
 2257SOL     OW 8777   2.287   8.872   2.345 -0.6792  0.3111  0.3042
 2257SOL    HW1 8778   2.324   8.908   2.425  0.7188  0.3589 -0.3454
 2257SOL    HW2 8779   2.192   8.879   2.357 -0.4705  1.8457  1.2477
 2258SOL     OW 8780   6.381   9.301   4.478 -0.8815  0.1427  0.3349
 2258SOL    HW1 8781   6.460   9.314   4.530 -0.3558 -0.4700 -0.2884
 2258SOL    HW2 8782   6.336   9.386   4.481 -0.3957  0.3826  1.0056
 2259SOL     OW 8783   2.478   2.716   7.326  0.0818 -0.1976 -0.4268
 2259SOL    HW1 8784   2.475   2.669   7.409 -0.5468 -0.3231 -0.5191
 2259SOL    HW2 8785   2.449   2.652   7.261 -2.4832  0.7789 -0.3406
 2260SOL     OW 8786   6.549   6.804   3.943 -0.4291  0.3237 -0.7581
 2260SOL    HW1 8787   6.629   6.755   3.925 -0.8846 -1.0387  0.6590
 2260SOL    HW2 8788   6.510   6.759   4.018 -1.6087  2.0329 -0.2756
 2261SOL     OW 8789   8.587   2.870   7.699 -0.4520  0.7132 -0.3911
 2261SOL    HW1 8790   8.503   2.824   7.700 -0.4989  0.7990 -0.2919
 2261SOL    HW2 8791   8.649   2.808   7.737 -0.0853 -0.0633 -2.1566
 2262SOL     OW 8792   3.070   0.784   9.591 -0.2883 -0.1858  0.6740
 2262SOL    HW1 8793   3.120   0.778   9.510  0.6700  3.0067  0.8728
 2262SOL    HW2 8794   3.013   0.860   9.578 -0.2934  0.2471  2.8571
 2263SOL     OW 8795   4.504   9.748   4.162 -0.1728  0.5082 -0.5700
 2263SOL    HW1 8796   4.579   9.795   4.127 -0.9105 -0.0148 -3.0271
 2263SOL    HW2 8797   4.495   9.671   4.105 -1.9910  0.0465  0.2683
 2264SOL     OW 8798   3.839   5.887   6.329 -0.4344 -0.0597  0.8516
 2264SOL    HW1 8799   3.765   5.828   6.347 -2.1265  2.2671  2.1817
 2264SOL    HW2 8800   3.799   5.974   6.323  2.0499  1.1229  0.0210
 2265SOL     OW 8801   4.660   1.466   3.853  0.0959  0.0638  0.1002
 2265SOL    HW1 8802   4.568   1.442   3.865 -0.4475  1.4536 -0.9971
 2265SOL    HW2 8803   4.663   1.505   3.766  2.1564 -1.8728 -0.7876
 2266SOL     OW 8804   7.938   0.195   0.062  0.3137 -0.6938 -0.3671
 2266SOL    HW1 8805   7.922   0.274   0.114 -0.2942  0.7632 -2.6079
 2266SOL    HW2 8806   8.030   0.173   0.077  0.1190 -0.4153  1.3651
 2267SOL     OW 8807   5.506   2.191   7.005 -0.1717  0.1573 -0.8998
 2267SOL    HW1 8808   5.588   2.210   7.050 -1.2018  0.2717  1.0132
 2267SOL    HW2 8809   5.515   2.100   6.976  1.3486  0.7479 -2.4188
 2268SOL     OW 8810   6.930   1.608   6.251  0.7667 -0.0602  0.0767
 2268SOL    HW1 8811   6.926   1.678   6.187  1.8450 -1.5351 -1.6817
 2268SOL    HW2 8812   6.988   1.542   6.212 -0.6940 -2.2230  1.3324
 2269SOL     OW 8813   0.432   4.444   4.845 -0.2147 -0.2055  0.4958
 2269SOL    HW1 8814   0.368   4.459   4.915  1.3083 -0.4549  2.0093
 2269SOL    HW2 8815   0.472   4.360   4.867  0.2938 -0.2902 -0.7033
 2270SOL     OW 8816   5.545   2.947   5.785 -0.1137  0.7034  0.0182
 2270SOL    HW1 8817   5.579   2.971   5.699 -0.3224  2.4391  0.3923
 2270SOL    HW2 8818   5.518   2.856   5.775 -1.8691  1.3770 -2.3187
 2271SOL     OW 8819   9.263   7.258   0.241 -0.2628  0.2559  0.1989
 2271SOL    HW1 8820   9.330   7.262   0.308  0.8838  2.4483 -0.9357
 2271SOL    HW2 8821   9.193   7.315   0.274 -0.2321  0.3586  0.0904
 2272SOL     OW 8822  10.499   5.249   1.160  1.5568  0.2195 -0.1091
 2272SOL    HW1 8823  10.420   5.204   1.192  0.8852  2.6873  2.0668
 2272SOL    HW2 8824  10.467   5.307   1.091  2.1033 -1.1733 -1.5877
 2273SOL     OW 8825   5.357   6.780   9.757 -0.0308  1.2231  0.7135
 2273SOL    HW1 8826   5.437   6.830   9.743 -0.8546  1.7365 -3.2405
 2273SOL    HW2 8827   5.386   6.689   9.760  0.7082  1.3624 -1.2050
 2274SOL     OW 8828  10.235   2.236   5.676 -0.0759 -0.3853  0.2445
 2274SOL    HW1 8829  10.178   2.292   5.623 -0.9093 -0.2618  1.2236
 2274SOL    HW2 8830  10.177   2.199   5.743  1.0584  0.1100  1.5648
 2275SOL     OW 8831  10.025   4.858  10.222  0.1286  0.1901  0.3613
 2275SOL    HW1 8832  10.049   4.872  10.131 -0.0960  0.3519  0.3261
 2275SOL    HW2 8833  10.054   4.768  10.241 -0.5408 -0.1329 -0.1023
 2276SOL     OW 8834  10.751   9.301   9.091  0.5710 -0.3760 -0.5563
 2276SOL    HW1 8835  10.734   9.316   9.184  0.4431  3.4923 -1.0494
 2276SOL    HW2 8836  10.732   9.208   9.078  0.3528 -1.0163  3.1810
 2277SOL     OW 8837   4.041   2.648   8.617 -0.1381 -0.1897  0.5123
 2277SOL    HW1 8838   4.104   2.668   8.687  0.2800 -0.1762  0.1397
 2277SOL    HW2 8839   4.059   2.715   8.550  0.1479 -0.8061 -0.0369
 2278SOL     OW 8840   9.855   0.309   3.817  0.2781 -0.8322 -0.5436
 2278SOL    HW1 8841   9.950   0.323   3.822  0.5228 -2.4090 -0.3382
 2278SOL    HW2 8842   9.831   0.343   3.731  1.0530 -0.5126 -0.6435
 2279SOL     OW 8843   7.825   7.112   7.688 -0.3149  0.3621  0.4984
 2279SOL    HW1 8844   7.736   7.140   7.667 -0.6091 -0.9852 -0.2141
 2279SOL    HW2 8845   7.868   7.190   7.720 -2.3715  0.6323  2.9404
 2280SOL     OW 8846   1.861   3.153   8.244  0.0728 -0.4540  0.0190
 2280SOL    HW1 8847   1.904   3.237   8.233  1.6719 -1.4152 -1.4347
 2280SOL    HW2 8848   1.906   3.112   8.318  1.8080 -1.4664 -1.5123
 2281SOL     OW 8849   0.251   9.948   8.558  0.2062 -0.2398 -0.5630
 2281SOL    HW1 8850   0.342   9.976   8.546 -0.1906  2.0571  1.0342
 2281SOL    HW2 8851   0.229   9.978   8.647 -2.6132  0.9106 -1.5394
 2282SOL     OW 8852   0.169   3.523   5.024  0.3756  0.3772  0.3043
 2282SOL    HW1 8853   0.170   3.478   4.940 -0.2413 -0.2002  0.5941
 2282SOL    HW2 8854   0.081   3.562   5.029 -0.3318 -1.2564  1.5156
 2283SOL     OW 8855   8.346   1.534   3.402 -0.1523  0.2851 -0.4581
 2283SOL    HW1 8856   8.360   1.595   3.330 -0.5376  0.3989 -0.4383
 2283SOL    HW2 8857   8.434   1.508   3.429  0.0447  1.4831  0.0980
 2284SOL     OW 8858   6.070   6.297   0.364  0.3424  0.6775 -0.3596
 2284SOL    HW1 8859   6.058   6.336   0.451 -0.4445 -1.1750  0.4133
 2284SOL    HW2 8860   6.164   6.278   0.358  0.2168 -0.3564  0.6431
 2285SOL     OW 8861  10.974   9.258   7.296  0.2846  0.1411 -0.4992
 2285SOL    HW1 8862  11.056   9.251   7.248 -0.1048 -0.8933 -1.0580
 2285SOL    HW2 8863  10.961   9.171   7.333  1.0385  1.1216  2.3373
 2286SOL     OW 8864   2.929  11.094   1.387 -0.2371 -0.6742  0.1060
 2286SOL    HW1 8865   2.958  11.065   1.473  1.1263 -2.9894 -1.0427
 2286SOL    HW2 8866   2.868  11.026   1.357 -2.3093  1.1113  0.0008
 2287SOL     OW 8867   8.999   7.233   5.195 -0.0512 -0.3093 -0.2694
 2287SOL    HW1 8868   8.982   7.261   5.285 -0.2803 -3.7157  0.8999
 2287SOL    HW2 8869   9.041   7.309   5.154  2.0118  0.7333  3.2845
 2288SOL     OW 8870   5.122   2.973   1.327 -0.9135  0.3208 -1.4597
 2288SOL    HW1 8871   5.067   2.899   1.351 -0.5976  0.2773 -0.8614
 2288SOL    HW2 8872   5.082   3.048   1.370  0.0596  0.1300 -0.1526
 2289SOL     OW 8873   0.056   5.227   7.364 -0.2404 -0.0274  0.1164
 2289SOL    HW1 8874   0.045   5.316   7.333 -0.9761 -0.2919 -0.4072
 2289SOL    HW2 8875  -0.014   5.178   7.322  0.2080 -0.8710  0.3267
 2290SOL     OW 8876  10.877   3.487   9.495 -0.2514 -0.0332  0.2281
 2290SOL    HW1 8877  10.931   3.488   9.416 -2.4081 -0.5312 -1.3272
 2290SOL    HW2 8878  10.888   3.399   9.530  0.6217  0.1504  0.4447
 2291SOL     OW 8879   9.600   0.430   8.578 -0.1770  0.7445 -0.0616
 2291SOL    HW1 8880   9.567   0.374   8.508  1.2959  0.2504 -0.4012
 2291SOL    HW2 8881   9.564   0.393   8.658 -1.3571  0.9263 -0.4887
 2292SOL     OW 8882  10.027   3.758   4.209  0.4985  0.0486 -0.1271
 2292SOL    HW1 8883  10.037   3.676   4.162 -2.8962 -0.5630 -0.0147
 2292SOL    HW2 8884  10.037   3.734   4.301  0.2538 -0.1270 -0.1437
 2293SOL     OW 8885   3.716   5.649  10.075 -0.3960 -0.3119  0.1801
 2293SOL    HW1 8886   3.766   5.731  10.074 -1.0722  0.1528 -2.0639
 2293SOL    HW2 8887   3.644   5.664  10.013 -0.7856 -2.4601  0.0243
 2294SOL     OW 8888   2.022   5.054   8.472  0.2273  0.3476  0.1697
 2294SOL    HW1 8889   2.051   5.045   8.563  1.2660  1.9267  0.0312
 2294SOL    HW2 8890   1.954   4.988   8.462  0.0298  0.1955  2.1289
 2295SOL     OW 8891   5.893  11.047   5.483 -0.1711 -0.3932  0.0394
 2295SOL    HW1 8892   5.929  11.134   5.468 -0.5332  0.1036  1.8002
 2295SOL    HW2 8893   5.969  10.991   5.495  0.0519 -0.0597  0.2047
 2296SOL     OW 8894   7.038   6.574   3.292  0.3451  0.2106 -0.7885
 2296SOL    HW1 8895   7.048   6.480   3.308 -0.0479  0.2353 -0.3864
 2296SOL    HW2 8896   6.950   6.594   3.324 -0.7815  0.1203 -3.5361
 2297SOL     OW 8897   3.304   5.984   8.913  0.5199  0.0524 -0.4316
 2297SOL    HW1 8898   3.377   5.931   8.946  0.1263 -1.9927 -2.6293
 2297SOL    HW2 8899   3.235   5.972   8.978  0.2293 -2.7704 -1.1289
 2298SOL     OW 8900   5.869   8.539   1.651  0.1786 -0.0876 -0.2387
 2298SOL    HW1 8901   5.832   8.522   1.564  0.3313 -2.0401  0.0235
 2298SOL    HW2 8902   5.806   8.598   1.693 -1.8397 -1.9960 -0.4096
 2299SOL     OW 8903   8.962   0.318   4.080  0.4970 -0.4744  0.4495
 2299SOL    HW1 8904   9.041   0.311   4.027  0.0899 -1.9697 -0.0067
 2299SOL    HW2 8905   8.926   0.404   4.058  0.4098 -0.9881 -1.6543
 2300SOL     OW 8906   5.884   0.450   6.597 -0.4316 -0.1980 -0.0119
 2300SOL    HW1 8907   5.818   0.439   6.529  0.0641 -0.2579 -0.4949
 2300SOL    HW2 8908   5.887   0.365   6.642  0.9330 -0.9815 -1.4849
 2301SOL     OW 8909   1.127   1.466   2.882 -0.1335 -0.0112  0.3115
 2301SOL    HW1 8910   1.149   1.517   2.803 -0.7580 -0.6008 -0.2519
 2301SOL    HW2 8911   1.203   1.409   2.895  0.9308  1.5555  1.4015
 2302SOL     OW 8912   4.420   2.848   7.942  0.2462  0.2097 -0.5221
 2302SOL    HW1 8913   4.352   2.830   8.007  0.8376 -0.9541 -0.2019
 2302SOL    HW2 8914   4.406   2.783   7.874 -0.4127  1.4598 -1.6372
 2303SOL     OW 8915   1.317   6.481   4.682  0.1200 -0.6769  0.4420
 2303SOL    HW1 8916   1.404   6.503   4.715 -0.0703 -1.7407  1.7703
 2303SOL    HW2 8917   1.314   6.518   4.594  1.2046  1.0475  1.0770
 2304SOL     OW 8918   1.429   2.016   0.372  0.1063 -0.5855 -0.0849
 2304SOL    HW1 8919   1.431   1.941   0.432 -2.0837  0.4996  1.4664
 2304SOL    HW2 8920   1.511   2.062   0.390  1.5942 -2.6350 -1.2117
 2305SOL     OW 8921  11.079   6.658   8.046  0.2680 -0.2623 -0.3930
 2305SOL    HW1 8922  10.996   6.622   8.076  0.2711 -2.1055 -2.2906
 2305SOL    HW2 8923  11.145   6.596   8.080  0.8883  1.0523  0.9046
 2306SOL     OW 8924   2.492   1.801   0.199 -0.1677 -0.6811  0.1842
 2306SOL    HW1 8925   2.543   1.751   0.263  0.8132  1.0263  0.8156
 2306SOL    HW2 8926   2.411   1.751   0.188  0.1536 -1.6427  1.8668
 2307SOL     OW 8927   2.606  10.382   1.388 -0.5032 -0.2642  0.1874
 2307SOL    HW1 8928   2.570  10.343   1.467 -0.4603 -0.3439  0.1672
 2307SOL    HW2 8929   2.540  10.446   1.360 -1.4509 -1.6370 -0.8454
 2308SOL     OW 8930   4.635   0.015   8.978 -0.4033 -0.2122  0.6337
 2308SOL    HW1 8931   4.600   0.019   9.067  1.7425 -0.3356  1.5361
 2308SOL    HW2 8932   4.653  -0.077   8.963  2.3562  0.1246  1.4158
 2309SOL     OW 8933   5.997  10.649   5.736 -0.9052  0.1647  0.2114
 2309SOL    HW1 8934   5.999  10.741   5.763 -0.2056  0.3572 -0.4360
 2309SOL    HW2 8935   5.905  10.631   5.717 -0.8995  1.0958 -0.8224
 2310SOL     OW 8936   0.164   0.013   9.240 -0.3229 -0.5340 -0.0899
 2310SOL    HW1 8937   0.147   0.056   9.157 -2.8707  1.7246  1.4222
 2310SOL    HW2 8938   0.250   0.044   9.267  0.1218 -0.5710 -1.4187
 2311SOL     OW 8939   2.216   2.003   3.009 -0.1597  0.0159  0.4360
 2311SOL    HW1 8940   2.143   1.969   3.062 -0.7609 -1.8515 -1.4298
 2311SOL    HW2 8941   2.195   1.975   2.920  2.2757  0.4389 -0.3340
 2312SOL     OW 8942   8.839   1.099   9.025 -0.2349 -0.2029 -0.3298
 2312SOL    HW1 8943   8.896   1.166   9.064 -1.2566 -0.2063  1.2737
 2312SOL    HW2 8944   8.899   1.035   8.987  0.7901  0.6639 -0.2266
 2313SOL     OW 8945   2.604   7.065   5.772  0.5188 -0.6933  0.1779
 2313SOL    HW1 8946   2.517   7.095   5.798  0.6766 -0.2401  0.1852
 2313SOL    HW2 8947   2.654   7.062   5.854  0.9203  0.4127 -0.0131
 2314SOL     OW 8948   8.371   1.509   7.760  0.5041  0.6005 -0.6241
 2314SOL    HW1 8949   8.314   1.575   7.720  0.6083  0.5577 -0.8440
 2314SOL    HW2 8950   8.339   1.426   7.725  1.6212  0.6845 -1.8860
 2315SOL     OW 8951   9.288   3.006  10.315  0.1675  0.5982  0.1442
 2315SOL    HW1 8952   9.380   2.998  10.337  0.1772 -2.1687 -0.5021
 2315SOL    HW2 8953   9.250   2.922  10.340 -1.8654  1.0966 -1.0232
 2316SOL     OW 8954   3.167   1.112   3.637  0.3903 -0.2186  1.1012
 2316SOL    HW1 8955   3.217   1.031   3.648  1.0081 -0.0649 -0.3450
 2316SOL    HW2 8956   3.131   1.130   3.724  1.0714 -1.4979  1.6771
 2317SOL     OW 8957   3.320   2.130   1.399 -0.1304 -0.5045 -0.8410
 2317SOL    HW1 8958   3.267   2.208   1.383 -1.7589 -1.0478  1.3831
 2317SOL    HW2 8959   3.259   2.066   1.435  1.6569 -1.8802 -0.0874
 2318SOL     OW 8960   8.091   6.894   7.156 -0.2796  0.6735 -0.0539
 2318SOL    HW1 8961   8.086   6.910   7.250  2.8982 -1.4516  0.6428
 2318SOL    HW2 8962   8.018   6.835   7.138  1.0914 -1.8929  1.9917
 2319SOL     OW 8963   5.119   6.790  10.318  0.6339 -0.1586 -0.8113
 2319SOL    HW1 8964   5.074   6.823  10.240 -0.6211  0.5336  0.1700
 2319SOL    HW2 8965   5.130   6.868  10.374 -0.3901 -0.9732  0.5943
 2320SOL     OW 8966   0.738   1.720   1.439  0.0362  0.1157  0.3059
 2320SOL    HW1 8967   0.796   1.655   1.478 -0.0157 -1.8079 -2.4784
 2320SOL    HW2 8968   0.778   1.804   1.460  1.6733 -0.9492  1.7079
 2321SOL     OW 8969   7.203   1.331   7.542  0.9533 -0.0642 -0.8047
 2321SOL    HW1 8970   7.240   1.253   7.584  1.7696  1.5979  1.8559
 2321SOL    HW2 8971   7.274   1.362   7.485  0.7505 -1.0378 -1.6143
 2322SOL     OW 8972   2.992   0.685   3.545  0.4079  0.4120 -0.3104
 2322SOL    HW1 8973   2.898   0.670   3.547  0.2052  1.4873 -1.0890
 2322SOL    HW2 8974   3.010   0.718   3.457  1.1800  2.2365  0.4760
 2323SOL     OW 8975   6.493   4.750   1.853  0.4807 -0.5585  0.5079
 2323SOL    HW1 8976   6.493   4.828   1.799 -2.9023 -0.0625  1.0402
 2323SOL    HW2 8977   6.514   4.678   1.793 -0.2073  0.3189 -0.8034
 2324SOL     OW 8978   4.432   1.149   1.773 -0.3046  0.6450  0.4233
 2324SOL    HW1 8979   4.443   1.232   1.819 -2.6112  1.7851 -0.9216
 2324SOL    HW2 8980   4.345   1.154   1.734  0.2831 -1.5723 -1.3991
 2325SOL     OW 8981   5.746   1.674   0.867 -0.0260 -0.1967  0.2013
 2325SOL    HW1 8982   5.810   1.717   0.923  0.1876  0.4071 -0.4931
 2325SOL    HW2 8983   5.673   1.735   0.863 -0.8483 -1.0478  1.3057
 2326SOL     OW 8984   8.081  10.408   8.253 -0.2657 -0.4674  0.7034
 2326SOL    HW1 8985   8.155  10.362   8.293  1.3807  1.1105 -0.3968
 2326SOL    HW2 8986   8.043  10.458   8.326  0.8955  0.1170  0.9328
 2327SOL     OW 8987   9.459   4.724   4.438 -0.2063  0.1238 -0.2015
 2327SOL    HW1 8988   9.373   4.690   4.413 -0.5897 -0.4014  1.6403
 2327SOL    HW2 8989   9.444   4.817   4.457  0.4210  0.9572 -3.2589
 2328SOL     OW 8990   0.176   4.482   5.580 -0.0303  0.7291 -0.3361
 2328SOL    HW1 8991   0.130   4.405   5.547  1.4640 -0.8747  1.1172
 2328SOL    HW2 8992   0.162   4.481   5.674  0.5569  1.8867 -0.2077
 2329SOL     OW 8993   8.918   6.557   2.143 -1.0044  0.1979  0.0439
 2329SOL    HW1 8994   8.839   6.518   2.182 -1.0350 -0.6334 -0.7897
 2329SOL    HW2 8995   8.890   6.583   2.055 -0.4466  0.2491 -0.1195
 2330SOL     OW 8996   7.253   6.324  10.365 -0.3168  0.3246  0.1118
 2330SOL    HW1 8997   7.221   6.293  10.450 -0.2827 -1.2440 -0.4134
 2330SOL    HW2 8998   7.224   6.257  10.303  0.3705  1.0245 -0.9895
 2331SOL     OW 8999   4.617   6.163   5.530 -0.3519  0.6012  0.6785
 2331SOL    HW1 9000   4.677   6.088   5.529 -1.4579 -0.3000 -0.3149
 2331SOL    HW2 9001   4.531   6.126   5.509 -1.2975  1.8537  2.1311
 2332SOL     OW 9002   0.289   0.930   0.059 -0.0109 -0.0802  0.0671
 2332SOL    HW1 9003   0.339   0.975   0.127 -1.4731  2.6532 -0.5332
 2332SOL    HW2 9004   0.284   0.839   0.089  1.2112  0.5832  2.5105
 2333SOL     OW 9005   0.153   0.213   6.050  0.3648 -0.6428  0.1673
 2333SOL    HW1 9006   0.193   0.215   6.137  0.5750 -1.9965  0.1292
 2333SOL    HW2 9007   0.218   0.171   5.994 -0.4117 -1.3042 -0.2768
 2334SOL     OW 9008   0.135   6.788   2.960 -0.3591 -0.3548 -0.3068
 2334SOL    HW1 9009   0.203   6.853   2.943 -0.5716 -0.0855 -0.1400
 2334SOL    HW2 9010   0.180   6.715   3.002 -0.3036  0.1641  0.5546
 2335SOL     OW 9011   0.507   7.906   4.794 -0.2573  0.6853 -0.1300
 2335SOL    HW1 9012   0.533   7.988   4.835 -1.2515  1.6510 -1.3651
 2335SOL    HW2 9013   0.472   7.931   4.708 -2.0900 -0.8479  0.0936
 2336SOL     OW 9014  10.742  10.094   7.707 -0.5308  0.3421 -0.2902
 2336SOL    HW1 9015  10.662  10.136   7.739  0.0869  0.0077  1.8434
 2336SOL    HW2 9016  10.712  10.035   7.637 -2.3778 -0.7436  1.3113
 2337SOL     OW 9017   5.507   3.401  10.090  0.6903  0.0836 -0.2395
 2337SOL    HW1 9018   5.484   3.331  10.151  2.2634  0.8077  1.2779
 2337SOL    HW2 9019   5.456   3.477  10.119  0.1708 -0.0063 -0.8954
 2338SOL     OW 9020   5.740   4.913   6.629 -0.2726  0.2478 -0.2342
 2338SOL    HW1 9021   5.770   4.988   6.679 -1.3891  0.1711  0.5896
 2338SOL    HW2 9022   5.811   4.849   6.635 -0.0254  0.5920  0.4862
 2339SOL     OW 9023   8.229   8.654   2.949 -0.6497 -0.1619  0.8817
 2339SOL    HW1 9024   8.281   8.673   2.870  2.9024 -3.0264  2.2491
 2339SOL    HW2 9025   8.267   8.709   3.017 -1.1564 -0.4186  1.3788
 2340SOL     OW 9026   0.827   2.905   6.274  0.5681 -0.2961 -0.2252
 2340SOL    HW1 9027   0.782   2.852   6.340 -1.0422  2.2079  0.8623
 2340SOL    HW2 9028   0.758   2.926   6.211  0.9854  0.9807 -0.2694
 2341SOL     OW 9029   9.611   2.957  10.644 -0.2964 -0.2026  0.0532
 2341SOL    HW1 9030   9.678   2.927  10.706  0.6589  0.9570 -0.3637
 2341SOL    HW2 9031   9.567   3.029  10.690 -0.1632  0.0934 -0.2780
 2342SOL     OW 9032   2.283   1.890   1.771  1.2990 -0.4066 -0.3944
 2342SOL    HW1 9033   2.338   1.895   1.692  1.0510 -1.1044 -0.6147
 2342SOL    HW2 9034   2.339   1.849   1.837  1.3709 -0.1928 -0.3196
 2343SOL     OW 9035   1.940   6.944   8.901 -0.5798  0.2334  0.6718
 2343SOL    HW1 9036   1.846   6.947   8.918 -0.6794  0.2740  0.1496
 2343SOL    HW2 9037   1.966   6.855   8.927 -0.7241  0.2841  0.9949
 2344SOL     OW 9038   1.667   8.653   4.274 -0.0195 -0.3803  0.2718
 2344SOL    HW1 9039   1.635   8.608   4.196 -3.0852 -0.3188  1.3944
 2344SOL    HW2 9040   1.661   8.587   4.344  2.5261 -0.3851  0.6159
 2345SOL     OW 9041   6.473   9.541   1.549  0.2144  0.3807 -0.8959
 2345SOL    HW1 9042   6.562   9.569   1.529  1.5782 -1.7967  1.4353
 2345SOL    HW2 9043   6.471   9.448   1.523 -0.3357 -0.4201  1.7116
 2346SOL     OW 9044   0.998   6.488   1.601  0.2109 -0.0167  0.0971
 2346SOL    HW1 9045   0.921   6.452   1.556  0.8694 -1.2149 -0.1188
 2346SOL    HW2 9046   1.048   6.531   1.532 -2.1784  4.5450  0.8010
 2347SOL     OW 9047   0.869   3.017   9.228 -0.4547  0.3313  0.0573
 2347SOL    HW1 9048   0.942   3.064   9.186 -1.5157  2.0361  0.0008
 2347SOL    HW2 9049   0.800   3.083   9.235 -0.9073 -0.3234  3.0007
 2348SOL     OW 9050   8.201   1.665  10.825 -0.1252  0.6640 -0.0026
 2348SOL    HW1 9051   8.180   1.697  10.737 -1.6296  1.1290  0.4954
 2348SOL    HW2 9052   8.128   1.609  10.849  0.0388  0.8996  1.1317
 2349SOL     OW 9053   5.441   8.254   2.010 -0.7130 -0.3644  0.1688
 2349SOL    HW1 9054   5.520   8.200   2.007 -0.5009 -0.1041  0.8073
 2349SOL    HW2 9055   5.441   8.302   1.928 -0.6739 -1.0115 -0.2201
 2350SOL     OW 9056   9.485   0.354  10.346  0.6252 -0.0541  0.4766
 2350SOL    HW1 9057   9.534   0.398  10.277 -0.6798 -1.2552 -1.2939
 2350SOL    HW2 9058   9.417   0.304  10.300 -2.6101  1.8316  2.7793
 2351SOL     OW 9059   8.019   7.324   7.787 -0.3464  0.0016  0.1026
 2351SOL    HW1 9060   7.973   7.400   7.751  0.5488  0.0239 -1.0599
 2351SOL    HW2 9061   8.072   7.361   7.859  0.4892  0.5987 -0.7936
 2352SOL     OW 9062   7.835   0.043   7.754  0.3188 -0.6199 -0.3789
 2352SOL    HW1 9063   7.888  -0.032   7.781 -1.6956 -1.6776  0.9016
 2352SOL    HW2 9064   7.745   0.010   7.755 -0.6867  1.9172  0.6089
 2353SOL     OW 9065   5.022   2.083   5.741  0.1292 -0.1937 -0.0437
 2353SOL    HW1 9066   5.053   2.077   5.650  0.4170  0.4211  0.0085
 2353SOL    HW2 9067   4.931   2.053   5.737 -0.1338  0.6394 -0.6919
 2354SOL     OW 9068   6.552   4.486   8.351  0.0239 -0.1252 -0.5612
 2354SOL    HW1 9069   6.578   4.578   8.346  0.3203 -0.2569 -1.9874
 2354SOL    HW2 9070   6.458   4.487   8.330 -0.0242 -0.1276 -0.3467
 2355SOL     OW 9071   0.182   4.227   9.226 -0.4668 -0.1877  0.5419
 2355SOL    HW1 9072   0.230   4.246   9.307 -2.3283 -1.4434  2.0281
 2355SOL    HW2 9073   0.138   4.144   9.243 -0.9440 -0.4721 -1.7818
 2356SOL     OW 9074   7.768  10.239   5.968  0.5454  0.4146 -0.9721
 2356SOL    HW1 9075   7.768  10.167   5.905  0.6028 -1.3852  0.9852
 2356SOL    HW2 9076   7.675  10.257   5.984  0.2556 -2.8051  2.2435
 2357SOL     OW 9077  10.801   4.091  10.560 -1.0865 -0.3945 -0.2016
 2357SOL    HW1 9078  10.843   4.054  10.638 -1.1764  0.7897  0.4297
 2357SOL    HW2 9079  10.719   4.042  10.552  0.3229 -2.7335 -1.4440
 2358SOL     OW 9080   1.215   9.741   3.382 -0.0389 -0.3230 -0.1046
 2358SOL    HW1 9081   1.301   9.718   3.348 -0.1130  1.2044 -1.4616
 2358SOL    HW2 9082   1.161   9.754   3.304 -0.7748  1.2554  0.6087
 2359SOL     OW 9083   2.068   8.062   9.760  0.3299  0.0311 -0.3848
 2359SOL    HW1 9084   2.107   8.025   9.840 -0.1075  1.8414  0.7240
 2359SOL    HW2 9085   2.063   8.156   9.777  0.4508  0.5077 -2.6784
 2360SOL     OW 9086   3.050   1.290   8.276  0.1929  0.0099  0.5643
 2360SOL    HW1 9087   3.058   1.386   8.283  2.3296 -0.0985  0.3308
 2360SOL    HW2 9088   3.046   1.274   8.182 -1.6546 -0.0885  0.6214
 2361SOL     OW 9089   3.597   6.406   9.510  0.6661  0.5404  0.4995
 2361SOL    HW1 9090   3.524   6.425   9.450  0.4880  2.6537  1.2830
 2361SOL    HW2 9091   3.641   6.331   9.470 -0.4725  0.7621 -1.3347
 2362SOL     OW 9092   7.004   5.717   8.578 -0.1628 -0.2102  0.4229
 2362SOL    HW1 9093   6.924   5.769   8.570  0.4616  0.8448  0.8164
 2362SOL    HW2 9094   7.048   5.754   8.654 -0.0557 -1.8385  1.1925
 2363SOL     OW 9095   9.356   7.994  10.034  0.0554  0.0038 -0.2921
 2363SOL    HW1 9096   9.424   8.061  10.029  0.5663 -0.3083  1.6539
 2363SOL    HW2 9097   9.394   7.919   9.989  0.6409  0.1349 -0.0306
 2364SOL     OW 9098   4.500   5.075   0.445 -0.1256 -0.4757 -0.8082
 2364SOL    HW1 9099   4.455   5.030   0.517 -0.5525 -0.3888 -1.0198
 2364SOL    HW2 9100   4.464   5.164   0.446  0.6362 -0.1625 -0.4602
 2365SOL     OW 9101   9.889   5.841  10.287 -0.2497 -0.2437 -0.0133
 2365SOL    HW1 9102   9.882   5.836  10.383  1.3071  1.2005  0.2129
 2365SOL    HW2 9103   9.800   5.826  10.256 -1.2488  1.4350  1.7893
 2366SOL     OW 9104  10.536   1.356  10.559  0.0702  0.3448 -0.6769
 2366SOL    HW1 9105  10.536   1.263  10.534 -1.0967  0.2221 -0.3060
 2366SOL    HW2 9106  10.579   1.401  10.487 -0.5369 -0.3426 -1.4856
 2367SOL     OW 9107   6.747   7.294   5.671  0.8878 -0.2926  0.0674
 2367SOL    HW1 9108   6.769   7.206   5.639  0.3038 -1.0034  1.5656
 2367SOL    HW2 9109   6.653   7.291   5.688  0.4135  1.2928 -1.8211
 2368SOL     OW 9110   0.391   4.968   9.734  0.2490  0.0240  0.4892
 2368SOL    HW1 9111   0.393   5.058   9.703  1.1678 -0.5554 -1.2366
 2368SOL    HW2 9112   0.424   4.974   9.824 -0.2485  1.4577  0.6123
 2369SOL     OW 9113   8.459   7.457  10.012  0.0323  0.2931 -0.2556
 2369SOL    HW1 9114   8.527   7.416  10.066 -0.6987  1.1446  1.3868
 2369SOL    HW2 9115   8.482   7.550  10.012  0.3548  0.2353 -1.9713
 2370SOL     OW 9116   3.919   7.900   8.797 -0.1659  0.5300 -0.0544
 2370SOL    HW1 9117   3.873   7.837   8.741 -0.2445  0.6010 -0.0699
 2370SOL    HW2 9118   4.011   7.874   8.792 -0.0955  0.8858 -0.6599
 2371SOL     OW 9119   4.424   1.543   4.058 -0.2638  0.7419 -0.2139
 2371SOL    HW1 9120   4.453   1.635   4.061  0.0155  0.6820 -0.8096
 2371SOL    HW2 9121   4.328   1.548   4.055 -0.3108  0.9649  1.1237
 2372SOL     OW 9122   4.181   6.498   5.855  0.0721  0.2615 -0.2591
 2372SOL    HW1 9123   4.153   6.409   5.879  0.1823  0.8488  2.2832
 2372SOL    HW2 9124   4.270   6.505   5.890 -1.0665  2.3766  2.6063
 2373SOL     OW 9125   1.884   8.032   5.445 -0.2688  0.2672  0.3169
 2373SOL    HW1 9126   1.796   8.048   5.479 -0.0070  0.0879  1.1071
 2373SOL    HW2 9127   1.931   7.991   5.518  0.6746  1.0120  0.1604
 2374SOL     OW 9128   0.605   8.440   4.630 -0.1539  0.0225 -0.2151
 2374SOL    HW1 9129   0.520   8.456   4.588 -0.1837 -0.1499 -0.2194
 2374SOL    HW2 9130   0.584   8.416   4.720 -0.1752 -1.1653 -0.5230
 2375SOL     OW 9131   7.673   4.229  10.365 -0.8760 -0.3902 -0.3705
 2375SOL    HW1 9132   7.591   4.279  10.361 -0.1037  0.8649 -0.9290
 2375SOL    HW2 9133   7.672   4.176  10.286 -0.7388  0.3038 -0.8480
 2376SOL     OW 9134   7.585   9.611   9.376 -0.1372 -0.0138 -0.3090
 2376SOL    HW1 9135   7.615   9.674   9.310 -2.5703  1.1249 -0.4526
 2376SOL    HW2 9136   7.628   9.639   9.457  1.3798 -0.2510 -0.9938
 2377SOL     OW 9137   5.776   1.831   6.769 -0.0287 -0.2786  0.1370
 2377SOL    HW1 9138   5.736   1.770   6.707 -1.5777  0.3924  0.4416
 2377SOL    HW2 9139   5.734   1.812   6.853  1.4125 -0.5741  0.8236
 2378SOL     OW 9140   8.985   4.409  10.939  0.1575 -0.1014 -0.1109
 2378SOL    HW1 9141   9.076   4.380  10.930  0.0096 -1.1323  1.3991
 2378SOL    HW2 9142   8.977   4.434  11.031 -1.2634 -0.6626 -0.0594
 2379SOL     OW 9143   6.566   8.808   4.327 -0.6135  0.1380  0.8093
 2379SOL    HW1 9144   6.558   8.750   4.402 -2.6589 -0.5029  0.1802
 2379SOL    HW2 9145   6.523   8.889   4.354  0.3736  0.6173  0.9739
 2380SOL     OW 9146   4.160   1.194   1.683  0.1057 -0.2592  0.2822
 2380SOL    HW1 9147   4.155   1.241   1.600  0.9750 -0.4818  0.0880
 2380SOL    HW2 9148   4.089   1.130   1.679 -0.4325  0.3420  0.1076
 2381SOL     OW 9149   8.646  10.668   8.436 -0.1019 -0.2738  0.2513
 2381SOL    HW1 9150   8.632  10.659   8.341 -3.3964 -0.5422  0.6349
 2381SOL    HW2 9151   8.710  10.739   8.444 -1.4853  1.4265 -2.1938
 2382SOL     OW 9152   1.287  10.543   6.960 -0.3073 -0.4227  0.1635
 2382SOL    HW1 9153   1.203  10.546   6.914 -0.3710 -1.6374  0.1690
 2382SOL    HW2 9154   1.302  10.450   6.977  0.3773 -0.1127  1.3947
 2383SOL     OW 9155   5.087   3.721   9.758  0.0154  0.2146  0.4471
 2383SOL    HW1 9156   5.046   3.650   9.709 -2.6773  1.1803  1.1740
 2383SOL    HW2 9157   5.156   3.678   9.809 -0.5881 -1.6162 -0.2045
 2384SOL     OW 9158   3.222   5.978   5.196  0.6824 -0.5543 -0.3102
 2384SOL    HW1 9159   3.230   6.073   5.204  0.6800 -0.5834  0.0173
 2384SOL    HW2 9160   3.167   5.965   5.118  0.9423 -0.2952 -0.5420
 2385SOL     OW 9161   7.397   0.163  10.762 -0.7057 -0.4851 -0.1412
 2385SOL    HW1 9162   7.491   0.170  10.779 -0.6312  0.2220 -0.7750
 2385SOL    HW2 9163   7.355   0.209  10.834 -0.5004  0.3139 -0.5154
 2386SOL     OW 9164   7.514   9.982   3.617  0.0743 -0.3449  0.7219
 2386SOL    HW1 9165   7.595   9.978   3.668  1.7561 -0.8255 -1.8025
 2386SOL    HW2 9166   7.502   9.892   3.586 -1.0373 -0.1147  0.4760
 2387SOL     OW 9167   6.341   2.702   3.264 -0.2625  0.1715  0.2412
 2387SOL    HW1 9168   6.315   2.704   3.172 -0.3254 -0.0654  0.2519
 2387SOL    HW2 9169   6.430   2.666   3.264  0.9568  2.9028  0.0215
 2388SOL     OW 9170   9.148   3.428  11.072  0.0992  0.6961 -0.3404
 2388SOL    HW1 9171   9.086   3.475  11.016  0.4680  0.1781 -1.2031
 2388SOL    HW2 9172   9.151   3.340  11.035 -1.6425 -0.4792  2.0845
 2389SOL     OW 9173   2.573   8.401   7.009  0.2041  0.4520 -0.6285
 2389SOL    HW1 9174   2.547   8.449   6.931 -0.6234 -2.9874 -2.6909
 2389SOL    HW2 9175   2.503   8.416   7.072 -0.6508  0.9300 -1.6696
 2390SOL     OW 9176  10.124   3.344   8.726 -0.1668  0.2134 -0.1670
 2390SOL    HW1 9177  10.166   3.290   8.793  0.4615 -0.0165 -0.7324
 2390SOL    HW2 9178  10.055   3.390   8.772  0.3977  0.2201  0.6943
 2391SOL     OW 9179   9.996   4.054   3.113 -0.2129 -0.5405 -0.3402
 2391SOL    HW1 9180   9.989   4.103   3.195  3.6280 -0.1475 -0.0264
 2391SOL    HW2 9181  10.034   3.970   3.139 -2.8361 -2.1538 -1.3568
 2392SOL     OW 9182   8.422   4.498   9.546  0.4472 -0.2547  0.9342
 2392SOL    HW1 9183   8.341   4.451   9.565  0.9189 -1.2204  0.6340
 2392SOL    HW2 9184   8.439   4.480   9.454  0.5304  0.6970  0.7539
 2393SOL     OW 9185   0.736   1.136  10.572  0.1805 -0.1187 -0.5581
 2393SOL    HW1 9186   0.784   1.200  10.520  1.5818 -1.3962 -0.8810
 2393SOL    HW2 9187   0.793   1.118  10.647 -0.5038 -0.4932 -0.1165
 2394SOL     OW 9188   8.053   0.128  10.229 -0.5101  0.3261  0.3033
 2394SOL    HW1 9189   8.145   0.105  10.212 -1.5295 -2.6326 -1.9786
 2394SOL    HW2 9190   8.021   0.159  10.144 -1.8451  0.6056  0.8919
 2395SOL     OW 9191   0.806   6.147   7.219  0.1005 -0.2394  0.0533
 2395SOL    HW1 9192   0.732   6.195   7.181  0.0591  0.1189  0.5706
 2395SOL    HW2 9193   0.818   6.072   7.161  0.3289  0.5260 -0.9229
 2396SOL     OW 9194   9.552   2.455  10.366  0.3480 -0.0650 -0.0660
 2396SOL    HW1 9195   9.555   2.544  10.403 -1.1766 -0.1540  0.3359
 2396SOL    HW2 9196   9.462   2.445  10.335  0.7029 -1.2220 -0.7764
 2397SOL     OW 9197   0.889   5.272   3.567 -0.3317  0.2887  0.0806
 2397SOL    HW1 9198   0.875   5.213   3.493 -1.2256  0.8590 -0.2202
 2397SOL    HW2 9199   0.979   5.303   3.556 -0.3925  0.2185 -0.6610
 2398SOL     OW 9200   9.037   5.738   4.106 -0.5776  0.0697  0.0227
 2398SOL    HW1 9201   9.109   5.685   4.072  0.1387 -0.0246  1.5933
 2398SOL    HW2 9202   9.003   5.687   4.180 -1.9775  0.3223 -0.4289
 2399SOL     OW 9203   2.700  10.226   3.942 -0.4940 -0.4140  0.0483
 2399SOL    HW1 9204   2.771  10.183   3.895  1.2918  2.6969 -0.3630
 2399SOL    HW2 9205   2.629  10.233   3.878 -0.1856 -1.2224 -0.3846
 2400SOL     OW 9206   2.527   4.658   9.303 -0.2345  0.6548 -0.3031
 2400SOL    HW1 9207   2.589   4.588   9.326 -1.0449  0.1991  0.6075
 2400SOL    HW2 9208   2.564   4.736   9.343 -0.7444  0.1899  1.1380
 2401SOL     OW 9209   2.087  10.405  10.331  0.0871 -0.3332 -0.3339
 2401SOL    HW1 9210   2.158  10.348  10.359  0.2370 -0.5420 -1.1005
 2401SOL    HW2 9211   2.062  10.453  10.410  1.8600  0.5928 -0.2738
 2402SOL     OW 9212   0.799   5.826   2.994  0.4496  0.1102 -0.2327
 2402SOL    HW1 9213   0.833   5.784   2.915  0.3704 -0.4657  0.0321
 2402SOL    HW2 9214   0.821   5.765   3.064 -0.2525  0.2028  0.0750
 2403SOL     OW 9215   8.663  10.222   4.641  0.3019 -0.4888 -0.0584
 2403SOL    HW1 9216   8.645  10.303   4.688 -0.5077 -0.2434 -0.7713
 2403SOL    HW2 9217   8.757  10.225   4.623  0.1404  0.6906 -0.7978
 2404SOL     OW 9218   4.554  10.103   5.397  0.0900 -0.2072 -0.5735
 2404SOL    HW1 9219   4.503  10.093   5.316 -0.1493  2.0020 -0.7502
 2404SOL    HW2 9220   4.603  10.184   5.384 -0.8342  0.8413  1.9511
 2405SOL     OW 9221   8.011   2.524   1.318 -0.4159  0.4373  0.0625
 2405SOL    HW1 9222   8.080   2.501   1.381 -1.2135 -0.8905  0.4903
 2405SOL    HW2 9223   7.949   2.577   1.368 -1.4118 -1.2061  0.6369
 2406SOL     OW 9224   8.576   5.199   0.479 -0.2050  0.4979  0.0794
 2406SOL    HW1 9225   8.609   5.195   0.569  0.3308  1.1282 -0.0825
 2406SOL    HW2 9226   8.520   5.276   0.477 -0.6060  0.2085 -0.0080
 2407SOL     OW 9227   6.674   7.828   8.599 -0.1191 -0.0471  0.3325
 2407SOL    HW1 9228   6.625   7.751   8.574  0.1990 -0.6473  1.4922
 2407SOL    HW2 9229   6.638   7.854   8.683 -1.1883  1.9371 -0.6599
 2408SOL     OW 9230   4.903   1.283   7.870 -0.2401  0.2312  0.3827
 2408SOL    HW1 9231   4.874   1.201   7.909  0.7974  0.4475  1.6474
 2408SOL    HW2 9232   4.862   1.351   7.923 -0.0986  0.5380  0.1037
 2409SOL     OW 9233   1.971   2.325   8.613  0.4325  0.0124 -0.2887
 2409SOL    HW1 9234   2.009   2.412   8.597 -1.5117  0.7506 -1.0958
 2409SOL    HW2 9235   1.878   2.341   8.628 -0.4935 -2.1097 -2.9037
 2410SOL     OW 9236   5.425   5.994   3.786  0.2915 -0.0427 -0.6067
 2410SOL    HW1 9237   5.499   6.054   3.789 -0.1771  0.5009  2.2842
 2410SOL    HW2 9238   5.462   5.907   3.800  0.5518 -0.0212 -1.1200
 2411SOL     OW 9239  10.936   0.733   2.618  0.2606 -0.3417 -0.4207
 2411SOL    HW1 9240  11.030   0.732   2.634  0.2711 -1.8141 -0.4761
 2411SOL    HW2 9241  10.911   0.825   2.627  1.4426 -0.1402  1.0723
 2412SOL     OW 9242   0.565   7.770   8.035 -0.0712 -0.0284  0.0214
 2412SOL    HW1 9243   0.559   7.799   7.944  1.5937 -1.1243 -0.4873
 2412SOL    HW2 9244   0.567   7.850   8.086  1.1145  0.6834 -1.0860
 2413SOL     OW 9245   2.767   1.152   7.554 -0.5101  0.1496 -0.1984
 2413SOL    HW1 9246   2.683   1.107   7.547 -0.1960 -0.3060 -1.3946
 2413SOL    HW2 9247   2.748   1.242   7.527 -0.1158 -0.6427 -3.6578
 2414SOL     OW 9248   9.383   0.596   8.851  0.1544  1.4038  0.5346
 2414SOL    HW1 9249   9.361   0.602   8.758  0.8936 -0.8540  0.1489
 2414SOL    HW2 9250   9.406   0.685   8.876  0.1542  2.0263 -1.5095
 2415SOL     OW 9251   5.597   3.815   6.630  0.6151 -0.6309 -0.6034
 2415SOL    HW1 9252   5.513   3.827   6.674  2.0462  2.4010  1.6997
 2415SOL    HW2 9253   5.658   3.793   6.700  2.3962  1.0008 -1.5423
 2416SOL     OW 9254   8.510   4.730  10.747  0.1078 -0.3496  0.0968
 2416SOL    HW1 9255   8.600   4.744  10.718 -0.3621 -1.4965 -2.1544
 2416SOL    HW2 9256   8.474   4.669  10.683 -2.6659  1.0731  0.1441
 2417SOL     OW 9257   3.781   5.536   6.130  0.2615  0.4268  0.0825
 2417SOL    HW1 9258   3.732   5.611   6.097 -1.0755 -0.3677  0.1838
 2417SOL    HW2 9259   3.784   5.475   6.056  1.7137  0.7322 -0.1353
 2418SOL     OW 9260  10.531   8.634   1.413  0.3249 -0.1374 -0.6032
 2418SOL    HW1 9261  10.440   8.629   1.384  0.8516  0.0380 -2.4229
 2418SOL    HW2 9262  10.533   8.706   1.475 -1.1455 -1.4253  1.0605
 2419SOL     OW 9263   6.645   2.966   3.829  0.5947  0.4375  0.8051
 2419SOL    HW1 9264   6.585   2.907   3.875  0.6409  0.5740  1.0448
 2419SOL    HW2 9265   6.723   2.913   3.813  0.2180  0.1107  0.0414
 2420SOL     OW 9266   2.214   2.788   9.049 -0.7754 -0.3837 -0.2129
 2420SOL    HW1 9267   2.176   2.876   9.050 -0.3098 -0.1819  0.0317
 2420SOL    HW2 9268   2.308   2.803   9.033 -0.9467 -0.9215 -2.0497
 2421SOL     OW 9269   7.523   2.440   9.688 -0.8839  0.1692  1.1130
 2421SOL    HW1 9270   7.456   2.374   9.674  1.2124 -1.9847  0.4403
 2421SOL    HW2 9271   7.568   2.447   9.604  0.9781  0.0185  2.0367
 2422SOL     OW 9272   0.140   7.579   5.862  0.2566 -0.0906  0.3424
 2422SOL    HW1 9273   0.200   7.646   5.830 -0.2131 -0.3036 -1.0721
 2422SOL    HW2 9274   0.073   7.627   5.910  0.6598  0.3114  0.5050
 2423SOL     OW 9275   3.453   0.633   9.116 -0.0570  0.3697  0.0536
 2423SOL    HW1 9276   3.474   0.584   9.196  0.4348  0.0470 -0.2624
 2423SOL    HW2 9277   3.517   0.601   9.052 -0.8683  0.1416 -0.6518
 2424SOL     OW 9278   9.800   7.293   3.507  0.1196 -0.3452 -0.0091
 2424SOL    HW1 9279   9.856   7.277   3.431  1.4203 -0.4836  0.9345
 2424SOL    HW2 9280   9.845   7.249   3.579 -1.3209 -0.6213  0.7686
 2425SOL     OW 9281   9.212   9.277   9.901  0.3410 -0.1794  0.1170
 2425SOL    HW1 9282   9.142   9.271   9.966 -1.1101 -0.9139 -1.4448
 2425SOL    HW2 9283   9.290   9.301   9.952 -1.2448  1.8673  1.7697
 2426SOL     OW 9284   1.143   4.592   3.867  0.1498 -0.2589  0.7767
 2426SOL    HW1 9285   1.198   4.615   3.792  0.3329 -0.7531  0.7501
 2426SOL    HW2 9286   1.106   4.675   3.896 -1.5776 -0.2910 -1.1272
 2427SOL     OW 9287   4.996   9.042   2.656  0.0227 -0.1970  0.2861
 2427SOL    HW1 9288   4.951   8.971   2.610 -0.5654  1.2166 -1.4317
 2427SOL    HW2 9289   4.926   9.089   2.701  0.1579  0.3214 -0.0359
 2428SOL     OW 9290   7.610   4.157   0.832 -0.1745  0.4049 -0.9169
 2428SOL    HW1 9291   7.526   4.192   0.861  0.4271  1.1629 -0.0545
 2428SOL    HW2 9292   7.653   4.127   0.912  0.3582 -0.0261 -1.3589
 2429SOL     OW 9293   1.891   2.934   4.162 -0.2503  0.2167 -0.2950
 2429SOL    HW1 9294   1.981   2.941   4.130 -0.1535 -2.0007 -0.6628
 2429SOL    HW2 9295   1.861   3.025   4.171  1.6328  0.9747 -1.2466
 2430SOL     OW 9296  11.040   3.780   2.215 -0.2649 -0.1178  0.3196
 2430SOL    HW1 9297  10.995   3.800   2.133 -2.1197  0.6360  1.4622
 2430SOL    HW2 9298  11.059   3.687   2.209 -2.3574 -0.5841 -0.0864
 2431SOL     OW 9299   3.806   3.303   6.399  0.3117  0.0534  0.4652
 2431SOL    HW1 9300   3.789   3.272   6.310 -0.8700 -0.7974  0.9625
 2431SOL    HW2 9301   3.745   3.375   6.412  0.9799  0.6489  0.3506
 2432SOL     OW 9302   4.358   8.317   1.193  0.4450  0.2058 -0.0270
 2432SOL    HW1 9303   4.405   8.235   1.179  0.3427 -0.1501  1.5443
 2432SOL    HW2 9304   4.420   8.373   1.239  0.4903  1.0058 -1.0290
 2433SOL     OW 9305   8.465   0.485  10.543  0.7963  0.2188  0.8883
 2433SOL    HW1 9306   8.541   0.543  10.534  1.3114 -0.7375 -1.5911
 2433SOL    HW2 9307   8.486   0.431  10.619  1.3715  1.6587  1.8126
 2434SOL     OW 9308   6.746   4.621   6.634 -0.3388  0.3466 -0.0318
 2434SOL    HW1 9309   6.701   4.569   6.701 -1.8358  0.1280 -1.1449
 2434SOL    HW2 9310   6.820   4.566   6.607 -1.4453 -0.9213 -0.6263
 2435SOL     OW 9311   5.500   2.350   9.719 -0.2160  0.3649 -0.3281
 2435SOL    HW1 9312   5.485   2.445   9.722 -0.2056  0.3476  0.8894
 2435SOL    HW2 9313   5.550   2.336   9.639  1.0215  1.5942  0.1876
 2436SOL     OW 9314   8.483   0.920   7.256 -0.0479 -0.1454  0.1372
 2436SOL    HW1 9315   8.528   0.838   7.237 -0.1347 -0.6160  1.8124
 2436SOL    HW2 9316   8.457   0.913   7.348  1.9824  2.6831  1.0896
 2437SOL     OW 9317   5.878   3.969   2.444 -0.6580  0.6270 -0.5730
 2437SOL    HW1 9318   5.907   3.908   2.512  1.8549  2.1207 -0.1594
 2437SOL    HW2 9319   5.783   3.962   2.444 -0.5946 -1.3113  1.2849
 2438SOL     OW 9320   4.056   8.429  10.201 -0.5586  0.1595 -0.1161
 2438SOL    HW1 9321   4.106   8.347  10.191  0.5004  0.8219 -0.3859
 2438SOL    HW2 9322   4.031   8.430  10.294 -1.1472 -0.7714 -0.2457
 2439SOL     OW 9323   5.583   3.075   8.191  0.1315  1.4670  0.4617
 2439SOL    HW1 9324   5.559   2.992   8.150 -1.3183  2.4647 -0.8181
 2439SOL    HW2 9325   5.678   3.069   8.205  0.2682  0.1321 -0.8505
 2440SOL     OW 9326   5.144  10.707   7.775 -0.1412  0.2780  0.1675
 2440SOL    HW1 9327   5.105  10.668   7.696  0.1177  0.6450 -0.1477
 2440SOL    HW2 9328   5.150  10.634   7.837 -1.2811  0.1982  0.2093
 2441SOL     OW 9329   1.028   7.143   4.451 -0.8132 -0.3635  0.1132
 2441SOL    HW1 9330   1.050   7.130   4.359  0.6520  0.9171  0.2521
 2441SOL    HW2 9331   0.938   7.176   4.450 -1.0003 -0.8746 -0.8014
 2442SOL     OW 9332   5.255   2.732   4.305  0.6323  0.3262  0.1272
 2442SOL    HW1 9333   5.245   2.701   4.215  0.2732 -2.0315  0.9229
 2442SOL    HW2 9334   5.321   2.801   4.299 -1.4538  2.3538 -2.3346
 2443SOL     OW 9335   1.853  10.856   2.854 -0.0979  0.1135 -0.1844
 2443SOL    HW1 9336   1.781  10.792   2.851 -0.4498  0.4443  0.9289
 2443SOL    HW2 9337   1.847  10.895   2.941  0.9525  0.7109 -0.3683
 2444SOL     OW 9338  10.454   7.556   0.250 -0.4858 -0.2741  0.3544
 2444SOL    HW1 9339  10.510   7.482   0.224  3.2309  2.2603  0.4394
 2444SOL    HW2 9340  10.434   7.600   0.167  0.0743  0.3698  0.5505
 2445SOL     OW 9341   2.717   7.510   1.954  0.0347  0.3298 -0.3460
 2445SOL    HW1 9342   2.735   7.426   1.910  2.4953 -0.2018  1.4591
 2445SOL    HW2 9343   2.706   7.572   1.882  0.4555 -1.1125 -1.7321
 2446SOL     OW 9344  10.273  10.849   3.273  0.1365 -0.6001 -0.3984
 2446SOL    HW1 9345  10.263  10.768   3.322  2.8848 -1.5783 -1.2734
 2446SOL    HW2 9346  10.276  10.822   3.182  0.7007  0.5287 -0.7337
 2447SOL     OW 9347   0.019   7.422   2.109 -0.4322  0.5156 -0.5258
 2447SOL    HW1 9348  -0.041   7.357   2.073  1.0210 -0.3466 -1.4736
 2447SOL    HW2 9349   0.037   7.481   2.036  0.6463  0.1723 -0.5485
 2448SOL     OW 9350   6.558  10.999   0.710  0.0564  0.7522 -0.7909
 2448SOL    HW1 9351   6.510  10.930   0.755 -1.9335  1.3517 -1.8698
 2448SOL    HW2 9352   6.622  10.953   0.655 -2.0115 -0.3836 -2.3902
 2449SOL     OW 9353   1.741   6.585   9.562 -0.1813 -0.5799  1.0842
 2449SOL    HW1 9354   1.790   6.541   9.493 -1.1591  1.3368 -0.9485
 2449SOL    HW2 9355   1.791   6.664   9.581  1.0580 -1.9102  4.0147
 2450SOL     OW 9356   8.157   0.968  11.046 -0.2346 -0.7773 -0.4165
 2450SOL    HW1 9357   8.235   0.972  10.990  0.4492  1.2342  0.5736
 2450SOL    HW2 9358   8.088   1.010  10.994  0.0040 -0.2946 -0.3465
 2451SOL     OW 9359   7.154   1.958   8.964 -0.0125  0.5977 -0.0599
 2451SOL    HW1 9360   7.093   1.973   8.892  0.3802  1.7468 -0.1601
 2451SOL    HW2 9361   7.235   2.000   8.937  0.3324  0.5015  0.7900
 2452SOL     OW 9362  10.019   8.993   0.087  0.2931 -0.0510  0.3733
 2452SOL    HW1 9363  10.103   8.962   0.120 -0.3971 -2.1360  0.3317
 2452SOL    HW2 9364   9.956   8.966   0.154 -0.7438 -1.6694 -1.1491
 2453SOL     OW 9365   0.563   3.590   5.622 -0.5550 -0.4397  0.2390
 2453SOL    HW1 9366   0.630   3.537   5.666  0.7257 -1.5806 -2.8159
 2453SOL    HW2 9367   0.605   3.676   5.611 -0.3565 -0.5547  0.0858
 2454SOL     OW 9368  10.274   9.343   9.199 -0.0055  0.4109 -0.0377
 2454SOL    HW1 9369  10.280   9.363   9.105 -1.5999  1.9744  0.1232
 2454SOL    HW2 9370  10.357   9.374   9.236  2.2834 -3.5127 -1.3202
 2455SOL     OW 9371   0.912  10.810   3.930  0.3334 -0.3874  0.0542
 2455SOL    HW1 9372   0.830  10.800   3.882 -0.8397  0.8057  1.6962
 2455SOL    HW2 9373   0.903  10.750   4.005  0.3198  0.7979  1.0215
 2456SOL     OW 9374  10.880   9.939   9.089  0.0905  0.2776 -0.2142
 2456SOL    HW1 9375  10.786   9.953   9.102 -0.0541  0.3184 -1.2277
 2456SOL    HW2 9376  10.915   9.923   9.177 -0.8802  0.1623  0.1557
 2457SOL     OW 9377   6.652  10.276   1.796 -0.4327  0.4502  0.0230
 2457SOL    HW1 9378   6.609  10.228   1.725 -0.6560  0.0530  0.4221
 2457SOL    HW2 9379   6.580  10.312   1.848 -0.2656  2.0706 -0.8347
 2458SOL     OW 9380   9.957   5.661   6.962  0.5281 -0.5219 -0.4052
 2458SOL    HW1 9381   9.892   5.598   6.931  1.2834 -4.0842  4.1932
 2458SOL    HW2 9382  10.024   5.661   6.893 -2.3971  0.4718 -3.5627
 2459SOL     OW 9383   4.463   2.487   9.091  0.5685 -0.3186  0.0431
 2459SOL    HW1 9384   4.418   2.457   9.170 -0.3197 -2.5546 -1.1956
 2459SOL    HW2 9385   4.497   2.407   9.051  0.0787  0.5608 -2.3438
 2460SOL     OW 9386   7.547   6.701   9.424  0.7161 -0.2414  0.3141
 2460SOL    HW1 9387   7.534   6.668   9.513 -0.0996 -0.2251  0.2060
 2460SOL    HW2 9388   7.460   6.697   9.383  0.6481  1.6283  0.1577
 2461SOL     OW 9389   3.136   1.612   5.675 -0.3166 -0.7582 -0.0024
 2461SOL    HW1 9390   3.154   1.697   5.714 -0.6489 -0.3376 -0.7413
 2461SOL    HW2 9391   3.194   1.609   5.598  1.2572 -2.0869  1.1545
 2462SOL     OW 9392   1.031   1.018   6.156 -0.0998 -0.5871 -0.4536
 2462SOL    HW1 9393   1.053   0.926   6.166  1.4654 -0.3157 -1.1156
 2462SOL    HW2 9394   1.114   1.061   6.136 -0.8022  0.9659 -0.2206
 2463SOL     OW 9395   1.487   4.772   4.500  0.6862 -0.9809  0.1565
 2463SOL    HW1 9396   1.465   4.844   4.559  0.9400 -1.2331  0.5650
 2463SOL    HW2 9397   1.461   4.803   4.413  0.5133 -0.5192  0.3698
 2464SOL     OW 9398   5.423   7.607   4.921  0.5686 -0.2859 -0.1347
 2464SOL    HW1 9399   5.516   7.600   4.898  0.3341 -1.2832 -0.8565
 2464SOL    HW2 9400   5.415   7.561   5.004  0.9291  0.8822  0.5600
 2465SOL     OW 9401   8.497   8.340   2.138 -0.7469  0.4053 -0.0852
 2465SOL    HW1 9402   8.483   8.292   2.219  0.5007  1.1396  0.5946
 2465SOL    HW2 9403   8.588   8.322   2.114 -1.4131 -0.7595 -1.9957
 2466SOL     OW 9404   0.433   7.962   1.602  0.4647  0.5793  0.4822
 2466SOL    HW1 9405   0.364   7.939   1.663 -1.5359 -2.0785 -2.4817
 2466SOL    HW2 9406   0.494   7.889   1.606 -0.5662 -0.4934 -1.7324
 2467SOL     OW 9407   5.924   6.714   9.901 -0.1143  0.0040 -0.2875
 2467SOL    HW1 9408   5.936   6.641   9.840  2.3068  0.4445 -0.4525
 2467SOL    HW2 9409   5.923   6.673   9.988  1.4696 -0.2494 -0.3656
 2468SOL     OW 9410   4.218   2.726   9.634  0.4188  0.2564  0.1531
 2468SOL    HW1 9411   4.276   2.650   9.628  2.3112  1.6330 -0.0036
 2468SOL    HW2 9412   4.268   2.797   9.592  0.0958  2.3520  3.0489
 2469SOL     OW 9413  11.025  10.577   8.182  0.2813  0.4953  0.1516
 2469SOL    HW1 9414  11.044  10.621   8.099 -0.3348  0.9990  0.2698
 2469SOL    HW2 9415  10.930  10.570   8.184  0.3563 -0.7806  0.1765
 2470SOL     OW 9416   7.273   1.717  10.292  0.7739 -0.4963 -0.8920
 2470SOL    HW1 9417   7.308   1.805  10.278  2.0242 -0.8425 -0.1082
 2470SOL    HW2 9418   7.208   1.728  10.362  0.4958 -0.0984 -1.2127
 2471SOL     OW 9419   0.437   1.247   6.661 -0.2730 -0.0455 -0.0067
 2471SOL    HW1 9420   0.520   1.274   6.621  0.2295 -1.3480  0.1037
 2471SOL    HW2 9421   0.416   1.318   6.722  2.1122 -0.7979  1.8728
 2472SOL     OW 9422  10.307   1.654   8.916  0.7086  0.6575  0.1640
 2472SOL    HW1 9423  10.263   1.579   8.877 -0.1636  0.9170  0.6200
 2472SOL    HW2 9424  10.373   1.615   8.974  1.1885  0.2680 -0.6198
 2473SOL     OW 9425   9.306   7.737   0.573  0.6656 -0.1688  0.4104
 2473SOL    HW1 9426   9.273   7.657   0.614  0.7553  0.4037  1.6401
 2473SOL    HW2 9427   9.341   7.708   0.489 -1.8156 -1.0016 -0.4239
 2474SOL     OW 9428   7.868   6.927   9.131  0.4389  0.5459  0.5025
 2474SOL    HW1 9429   7.848   6.942   9.038 -1.1137 -2.0759  0.3148
 2474SOL    HW2 9430   7.816   6.993   9.177  0.0194  0.8949 -0.4345
 2475SOL     OW 9431   6.899   6.799  10.188  0.0096 -0.4233  0.3923
 2475SOL    HW1 9432   6.826   6.813  10.127  1.0651  2.1147 -0.4444
 2475SOL    HW2 9433   6.953   6.733  10.145  0.2649  0.6685 -1.0696
 2476SOL     OW 9434   6.250   4.220   3.913 -0.6539  0.0254 -0.2130
 2476SOL    HW1 9435   6.308   4.296   3.918 -1.3737  0.5036  2.9947
 2476SOL    HW2 9436   6.170   4.253   3.873 -1.0907  1.1193  1.4682
 2477SOL     OW 9437   8.960   9.008   8.616 -0.3299 -0.2354  0.2740
 2477SOL    HW1 9438   8.928   9.081   8.670 -1.7962  0.9712 -2.0416
 2477SOL    HW2 9439   8.904   8.934   8.639 -1.0558  0.3147  0.3167
 2478SOL     OW 9440   3.134   4.362   4.112  0.8578 -0.5787 -0.6094
 2478SOL    HW1 9441   3.140   4.436   4.052  2.0613 -1.3022 -1.4197
 2478SOL    HW2 9442   3.055   4.315   4.085 -0.2461  0.6780  0.2822
 2479SOL     OW 9443   0.878   6.043   0.176 -0.1180 -0.4337 -0.4610
 2479SOL    HW1 9444   0.876   5.963   0.229  0.1517  1.4518  2.6856
 2479SOL    HW2 9445   0.788   6.075   0.177 -0.1996 -0.5808 -1.5872
 2480SOL     OW 9446   9.456   8.184   0.947  0.8781 -0.1536 -0.8414
 2480SOL    HW1 9447   9.454   8.240   0.870  0.7398  0.3350 -0.4829
 2480SOL    HW2 9448   9.367   8.188   0.983  1.2984  0.7466  0.1407
 2481SOL     OW 9449   3.367   6.863   0.163 -0.6614 -0.0997  0.5406
 2481SOL    HW1 9450   3.355   6.958   0.169  1.7037  0.2380  0.8931
 2481SOL    HW2 9451   3.388   6.836   0.253  1.5926 -0.4347 -0.0318
 2482SOL     OW 9452   4.824   2.689   5.266  0.7156  0.7391 -0.0860
 2482SOL    HW1 9453   4.778   2.692   5.182 -2.0378  3.1514  1.3231
 2482SOL    HW2 9454   4.772   2.629   5.320  1.0933  1.0019  0.5862
 2483SOL     OW 9455   4.069   3.614   8.421 -0.5423 -0.4498  0.3348
 2483SOL    HW1 9456   4.003   3.680   8.400  1.3482  1.6322  0.6061
 2483SOL    HW2 9457   4.116   3.650   8.496  0.3801 -2.2623  0.6818
 2484SOL     OW 9458   4.044   2.110   7.216  0.1363 -0.6142  0.3218
 2484SOL    HW1 9459   3.984   2.098   7.142 -1.4223 -1.4655  1.6251
 2484SOL    HW2 9460   4.126   2.137   7.177 -0.3430 -1.9607 -1.8092
 2485SOL     OW 9461   4.877   7.737   5.657  0.0254 -0.3885  0.1279
 2485SOL    HW1 9462   4.914   7.708   5.573 -1.1395 -2.7090  0.3232
 2485SOL    HW2 9463   4.921   7.682   5.722 -1.4287 -0.9436  0.6703
 2486SOL     OW 9464   3.438   5.856  10.942  0.1590  0.6466 -0.7157
 2486SOL    HW1 9465   3.374   5.807  10.890  0.1682  0.4945 -0.5858
 2486SOL    HW2 9466   3.494   5.899  10.878  0.2352  0.3760 -0.8323
 2487SOL     OW 9467  10.615   4.031   7.401 -0.0803  0.1979  0.4554
 2487SOL    HW1 9468  10.590   3.994   7.317  1.3371 -0.0163  0.0996
 2487SOL    HW2 9469  10.671   3.964   7.440 -2.5560 -0.7853  2.6669
 2488SOL     OW 9470   1.476   4.875   2.304 -0.4624 -0.1920 -0.8797
 2488SOL    HW1 9471   1.394   4.904   2.343  1.0063  1.5309  1.2098
 2488SOL    HW2 9472   1.479   4.781   2.321 -1.5848 -0.1225 -0.1633
 2489SOL     OW 9473   5.567   6.770   3.345  0.2488  0.4684 -0.3286
 2489SOL    HW1 9474   5.570   6.844   3.285  2.7298  0.5618 -0.1972
 2489SOL    HW2 9475   5.613   6.700   3.299  0.9966  0.1161  0.9211
 2490SOL     OW 9476   1.714   2.194   1.070 -0.3223  0.4410  0.9983
 2490SOL    HW1 9477   1.767   2.160   1.142  0.6705  3.3009  1.7460
 2490SOL    HW2 9478   1.776   2.206   0.998 -0.5765  0.9603  0.8634
 2491SOL     OW 9479   7.505   0.857   2.689 -0.0544  0.1942  0.3815
 2491SOL    HW1 9480   7.559   0.913   2.744  1.6204  0.0318 -1.0067
 2491SOL    HW2 9481   7.536   0.874   2.600 -3.0417  0.8996 -0.6674
 2492SOL     OW 9482   4.967   7.850   8.366 -0.4715  0.5555  0.0310
 2492SOL    HW1 9483   5.041   7.860   8.305 -0.1840  1.5473  0.5154
 2492SOL    HW2 9484   4.997   7.786   8.430  0.1819  1.3546  0.5310
 2493SOL     OW 9485   1.510   0.537   2.046 -0.1418 -0.2067  0.1431
 2493SOL    HW1 9486   1.590   0.541   2.098  0.3079 -0.8946 -0.4719
 2493SOL    HW2 9487   1.448   0.592   2.093  0.9813  1.1305  0.1133
 2494SOL     OW 9488   5.070   3.419   3.229 -0.1064 -0.3591  0.5311
 2494SOL    HW1 9489   4.985   3.395   3.193  0.4752 -1.9038  0.1100
 2494SOL    HW2 9490   5.133   3.366   3.180  1.1823  1.3074  0.3049
 2495SOL     OW 9491   0.079   8.800   8.943 -0.5135  0.1027  0.8710
 2495SOL    HW1 9492   0.092   8.723   8.998 -1.0267 -1.8186 -1.5188
 2495SOL    HW2 9493   0.167   8.837   8.933  0.3274 -2.0448 -0.3983
 2496SOL     OW 9494   5.049   8.647   8.554  0.4295  0.0509  0.0778
 2496SOL    HW1 9495   4.958   8.625   8.574  0.3913 -1.0667 -1.1857
 2496SOL    HW2 9496   5.046   8.680   8.464  1.4989 -1.9701 -0.7759
 2497SOL     OW 9497   6.539   0.138   4.571 -0.2241 -0.6238 -0.6599
 2497SOL    HW1 9498   6.528   0.179   4.485  0.1486 -0.9669 -0.8735
 2497SOL    HW2 9499   6.626   0.167   4.600 -0.4717 -0.2576 -0.2550
 2498SOL     OW 9500   0.848   1.516   8.754 -0.8467 -0.1608 -0.2950
 2498SOL    HW1 9501   0.809   1.600   8.777 -0.5411 -0.5810  2.0485
 2498SOL    HW2 9502   0.875   1.479   8.838  0.3720 -1.9462 -1.4124
 2499SOL     OW 9503   7.395   8.409   3.058  0.2455 -0.0329  0.2884
 2499SOL    HW1 9504   7.460   8.447   2.999 -2.4896  2.3988 -1.4155
 2499SOL    HW2 9505   7.355   8.338   3.007 -1.5542  1.5379 -0.5964
 2500SOL     OW 9506   9.645   9.730  10.106 -0.2768 -0.1829  0.2021
 2500SOL    HW1 9507   9.653   9.664  10.175  0.0716 -0.0915  0.2495
 2500SOL    HW2 9508   9.682   9.688  10.028  0.6270  0.2132  0.4050
 2501SOL     OW 9509   5.719   2.064   3.512 -0.3489  0.0620  0.0582
 2501SOL    HW1 9510   5.795   2.008   3.493 -0.1716  0.5386 -0.6859
 2501SOL    HW2 9511   5.674   2.072   3.428 -0.2741  1.1774  0.1160
 2502SOL     OW 9512   5.464   2.147   1.365 -0.5074 -0.2717 -0.3749
 2502SOL    HW1 9513   5.490   2.233   1.398 -0.6677 -0.1890 -0.4619
 2502SOL    HW2 9514   5.542   2.093   1.375  0.3501  0.4688 -2.4054
 2503SOL     OW 9515   7.217   8.198   3.397  0.6663  0.1921  0.2627
 2503SOL    HW1 9516   7.151   8.250   3.352  1.2467  0.3877 -0.3764
 2503SOL    HW2 9517   7.297   8.250   3.392  1.0764 -0.4209  0.2703
 2504SOL     OW 9518   7.265  10.705   2.503  0.1878 -0.5716  0.3953
 2504SOL    HW1 9519   7.185  10.653   2.496  1.0126 -1.6426 -2.0357
 2504SOL    HW2 9520   7.270  10.728   2.596 -1.7004 -2.4266  1.0434
 2505SOL     OW 9521   0.717   1.404   7.734 -0.0786  0.6255  0.1991
 2505SOL    HW1 9522   0.666   1.452   7.800  1.8222  0.3452  1.9874
 2505SOL    HW2 9523   0.808   1.424   7.755  0.7645 -2.5453  0.0966
 2506SOL     OW 9524   2.390   6.824   1.027  0.7063  0.1914 -0.0714
 2506SOL    HW1 9525   2.365   6.786   0.943  1.2838 -0.9601  0.2486
 2506SOL    HW2 9526   2.475   6.784   1.047  0.4494  0.2284  1.1885
 2507SOL     OW 9527   9.917   2.042   6.652  0.3592  0.0711  0.6109
 2507SOL    HW1 9528   9.911   2.059   6.746  0.1929  1.7658  0.3365
 2507SOL    HW2 9529   9.834   2.000   6.630 -0.6512  1.8427  0.8533
 2508SOL     OW 9530   5.329   7.431   9.931 -0.4147  0.1315 -0.4870
 2508SOL    HW1 9531   5.292   7.517   9.952 -3.1686 -0.9690 -0.4189
 2508SOL    HW2 9532   5.345   7.390  10.017 -0.3776  0.0690 -0.5239
 2509SOL     OW 9533   8.785   1.885   8.579  0.5940  0.8363  0.3409
 2509SOL    HW1 9534   8.867   1.880   8.628  0.8005  2.4303  0.1982
 2509SOL    HW2 9535   8.806   1.938   8.502 -0.6960  1.7756  0.5947
 2510SOL     OW 9536   2.929   8.746   6.824  0.3277  0.0783  0.3598
 2510SOL    HW1 9537   2.833   8.751   6.820  0.2027 -2.3807 -1.0638
 2510SOL    HW2 9538   2.959   8.804   6.754 -0.3265 -2.0134 -1.7870
 2511SOL     OW 9539   0.654   0.428   2.855  0.1620  0.5645 -0.2060
 2511SOL    HW1 9540   0.599   0.426   2.933 -1.5424 -0.8489 -1.3411
 2511SOL    HW2 9541   0.743   0.434   2.888 -0.2517 -2.7949  2.0786
 2512SOL     OW 9542   9.994   3.186   0.465 -0.1035 -0.3639  0.4322
 2512SOL    HW1 9543  10.077   3.201   0.510 -0.3207  0.6446  0.5228
 2512SOL    HW2 9544   9.947   3.125   0.522 -0.3983  0.9480  1.6381
 2513SOL     OW 9545   2.594  10.823   5.136  0.3252 -0.2335 -0.1642
 2513SOL    HW1 9546   2.649  10.748   5.116 -0.8552 -0.9972 -0.6389
 2513SOL    HW2 9547   2.620  10.889   5.071  1.5213 -0.1233  0.3996
 2514SOL     OW 9548   9.871   0.681   1.486  0.3029  0.5100  0.6119
 2514SOL    HW1 9549   9.956   0.726   1.485  0.7802 -0.3501  1.0955
 2514SOL    HW2 9550   9.829   0.712   1.566  0.1826  0.9069  0.3931
 2515SOL     OW 9551   1.075   7.728   6.585 -0.1673  0.1588 -0.4975
 2515SOL    HW1 9552   1.040   7.804   6.539  0.6845 -0.1112 -1.6413
 2515SOL    HW2 9553   1.075   7.754   6.677  0.5343  1.7255 -0.9011
 2516SOL     OW 9554   5.810   2.797   0.928  0.4118 -0.4291 -0.1781
 2516SOL    HW1 9555   5.748   2.739   0.973  0.5071 -1.5358 -1.4146
 2516SOL    HW2 9556   5.777   2.885   0.946  0.1485 -0.8374  1.5815
 2517SOL     OW 9557   3.827   2.627   9.266 -0.3625 -0.1484  0.0303
 2517SOL    HW1 9558   3.751   2.627   9.325 -0.1745 -2.8570  0.3841
 2517SOL    HW2 9559   3.903   2.622   9.323 -0.0008  0.4388 -0.3834
 2518SOL     OW 9560   6.815   8.938   0.515 -0.4172  0.4881  0.3585
 2518SOL    HW1 9561   6.738   8.995   0.513  0.1758  1.2890 -0.1009
 2518SOL    HW2 9562   6.797   8.870   0.451 -3.3719 -2.9337  4.2454
 2519SOL     OW 9563   6.959   6.241  10.097  0.2591  0.3381  0.0500
 2519SOL    HW1 9564   6.865   6.223  10.090  0.4582 -0.1287 -2.1370
 2519SOL    HW2 9565   6.966   6.336  10.095 -0.1308  0.3571 -0.9391
 2520SOL     OW 9566   2.560   2.602   0.959  0.5304  0.1316  0.1798
 2520SOL    HW1 9567   2.469   2.575   0.950  0.2945  0.7404  0.6736
 2520SOL    HW2 9568   2.575   2.603   1.053  2.1072 -3.4136  0.1438
 2521SOL     OW 9569   1.857   1.355   2.147 -0.2307  0.0942  0.8511
 2521SOL    HW1 9570   1.922   1.421   2.172  0.0247 -0.0357  0.5466
 2521SOL    HW2 9571   1.836   1.376   2.056  0.0464 -0.3992  0.6693
 2522SOL     OW 9572   9.441   3.244  11.096 -1.0130 -0.2855  0.1038
 2522SOL    HW1 9573   9.456   3.169  11.153  1.7097 -0.0728 -0.1742
 2522SOL    HW2 9574   9.468   3.320  11.148 -1.3388  0.2358 -0.4659
 2523SOL     OW 9575   0.840   7.761   0.489  0.4114 -0.2595 -0.2300
 2523SOL    HW1 9576   0.835   7.788   0.580 -2.6307  1.3866 -0.7678
 2523SOL    HW2 9577   0.767   7.700   0.477 -0.0316  0.5413 -1.8448
 2524SOL     OW 9578   8.283   7.483   4.736 -0.2767 -0.2547  0.0504
 2524SOL    HW1 9579   8.221   7.555   4.748 -0.1677 -0.2327  0.4996
 2524SOL    HW2 9580   8.279   7.434   4.819 -1.0463 -1.3142 -0.5885
 2525SOL     OW 9581   7.084   8.064   4.177  0.6287  0.2091 -0.1176
 2525SOL    HW1 9582   7.000   8.018   4.187  0.8317 -0.1875 -0.2112
 2525SOL    HW2 9583   7.098   8.106   4.262 -0.2428  1.2886 -0.4725
 2526SOL     OW 9584   7.919   9.591  10.664  0.3665  0.0781  0.5847
 2526SOL    HW1 9585   7.965   9.590  10.581 -0.8169  2.6197 -0.2099
 2526SOL    HW2 9586   7.843   9.534  10.650  0.1440  0.5323 -0.1341
 2527SOL     OW 9587   1.065   5.026   0.258  0.2649  0.5640  0.2254
 2527SOL    HW1 9588   1.003   5.097   0.240  1.9684  2.7623  2.3152
 2527SOL    HW2 9589   1.122   5.024   0.181 -0.4340  0.7229 -0.3057
 2528SOL     OW 9590   7.982   9.275   6.585 -0.3606 -0.0539 -0.5569
 2528SOL    HW1 9591   8.055   9.216   6.603  1.0524  2.1514  1.7292
 2528SOL    HW2 9592   7.904   9.225   6.607  0.8476 -0.6859  3.0098
 2529SOL     OW 9593   3.810   5.208  10.692  0.2905  0.7078 -0.5036
 2529SOL    HW1 9594   3.726   5.165  10.677  0.7711 -0.1013 -0.9443
 2529SOL    HW2 9595   3.838   5.179  10.779  0.5259  0.2616 -0.7237
 2530SOL     OW 9596   3.416   7.778  10.281 -0.8345 -0.4645 -0.6850
 2530SOL    HW1 9597   3.474   7.791  10.207 -0.9422  2.2223 -0.3855
 2530SOL    HW2 9598   3.332   7.815  10.253 -1.1691 -0.3544  0.4017
 2531SOL     OW 9599  10.622   4.680   7.728 -0.6520  0.7385 -0.0353
 2531SOL    HW1 9600  10.592   4.769   7.708  1.7579  0.8466 -4.2121
 2531SOL    HW2 9601  10.583   4.625   7.661 -0.3692 -1.0122  1.1661
 2532SOL     OW 9602   3.621   2.184   0.592  0.0684 -0.4469  0.6339
 2532SOL    HW1 9603   3.658   2.164   0.506  0.7248  0.1628  0.7653
 2532SOL    HW2 9604   3.568   2.262   0.578 -0.0669 -0.5238  0.7197
 2533SOL     OW 9605   1.973   8.602   5.233  0.3665  1.1492 -0.1962
 2533SOL    HW1 9606   1.965   8.572   5.323  1.7854 -1.3761 -0.8120
 2533SOL    HW2 9607   1.883   8.620   5.206 -0.2615  0.3157  1.2306
 2534SOL     OW 9608   6.300   9.151  10.107  0.1408 -0.1518  0.2039
 2534SOL    HW1 9609   6.362   9.100  10.056  0.2245  0.0837  0.0662
 2534SOL    HW2 9610   6.280   9.097  10.183  0.6342 -0.1606  0.3277
 2535SOL     OW 9611   0.912   2.830  10.045  0.3946 -0.7975 -0.0078
 2535SOL    HW1 9612   0.927   2.911   9.995 -0.3088 -0.1473  0.8002
 2535SOL    HW2 9613   0.819   2.833  10.067 -0.1714 -2.9143 -1.7845
 2536SOL     OW 9614   8.058   1.603   5.589  0.0301 -0.3860  0.1329
 2536SOL    HW1 9615   8.120   1.614   5.517 -1.8657  0.1777 -1.5087
 2536SOL    HW2 9616   8.070   1.513   5.618  2.7967  0.2098  1.0954
 2537SOL     OW 9617   8.398   3.368   4.868  0.0270 -0.0815 -0.2056
 2537SOL    HW1 9618   8.478   3.315   4.870  0.2791  0.3126  0.7199
 2537SOL    HW2 9619   8.341   3.323   4.806 -0.0215 -1.8075  1.0064
 2538SOL     OW 9620   2.410   7.925   7.976 -0.1849 -0.1024 -0.5045
 2538SOL    HW1 9621   2.442   8.014   7.966  0.0660 -0.0795  0.4562
 2538SOL    HW2 9622   2.456   7.876   7.907  3.2286 -0.3884  1.7438
 2539SOL     OW 9623   5.641   4.286   2.233  0.3290  0.3208 -0.0657
 2539SOL    HW1 9624   5.579   4.231   2.282 -3.8294  2.7320 -2.0609
 2539SOL    HW2 9625   5.675   4.348   2.297  0.0089 -0.5315  0.9468
 2540SOL     OW 9626  10.680   0.655   5.545  0.7227  0.1517 -0.7216
 2540SOL    HW1 9627  10.761   0.620   5.510  0.8933 -0.0413 -0.1489
 2540SOL    HW2 9628  10.672   0.742   5.506  0.1278 -0.6105 -2.4102
 2541SOL     OW 9629   4.252   0.148   0.677 -0.1839 -0.1195  0.8805
 2541SOL    HW1 9630   4.289   0.225   0.634  0.3134 -0.0122  1.4878
 2541SOL    HW2 9631   4.281   0.155   0.768  1.0571 -1.7618  0.6476
 2542SOL     OW 9632   3.615   1.706   0.647  0.5644  0.3280  0.3786
 2542SOL    HW1 9633   3.580   1.652   0.718 -0.4996 -0.8569 -0.9833
 2542SOL    HW2 9634   3.686   1.756   0.687  0.8151 -1.2355  1.9746
 2543SOL     OW 9635   8.336   0.324   4.280  0.6228  0.6444 -0.3359
 2543SOL    HW1 9636   8.283   0.390   4.324 -1.8518  0.1573 -2.3427
 2543SOL    HW2 9637   8.336   0.250   4.340 -1.1024  0.6325 -0.2850
 2544SOL     OW 9638   5.446   7.072   9.000 -1.3002  0.9124 -0.9606
 2544SOL    HW1 9639   5.502   7.136   8.956 -0.7989  1.3055  0.2208
 2544SOL    HW2 9640   5.357   7.096   8.975 -1.0980  1.8877 -0.7723
 2545SOL     OW 9641  10.277   0.595   5.179  0.0104 -0.2875 -0.1900
 2545SOL    HW1 9642  10.223   0.671   5.197  1.3428  0.3412  1.3557
 2545SOL    HW2 9643  10.337   0.625   5.110  0.1493 -0.1324 -0.0011
 2546SOL     OW 9644   7.645  11.022   9.652  0.0836 -0.3199  0.0007
 2546SOL    HW1 9645   7.584  10.957   9.615  0.1132 -0.4530  0.1822
 2546SOL    HW2 9646   7.630  11.017   9.747  0.3644 -0.3419  0.0446
 2547SOL     OW 9647   0.151   8.785   4.487 -0.0805 -0.4414  0.2415
 2547SOL    HW1 9648   0.196   8.744   4.413 -0.0442 -0.9728  0.5558
 2547SOL    HW2 9649   0.064   8.807   4.452  0.8952  2.0327 -0.8517
 2548SOL     OW 9650   6.781   4.503   5.402 -0.0664 -0.2367 -0.3839
 2548SOL    HW1 9651   6.756   4.567   5.336 -1.2843 -1.3436 -1.0366
 2548SOL    HW2 9652   6.799   4.555   5.480  1.0066  1.0670 -1.4356
 2549SOL     OW 9653   1.191   2.168   2.607  0.2398  0.1494  0.1128
 2549SOL    HW1 9654   1.195   2.135   2.697 -1.7425 -1.2770 -0.2520
 2549SOL    HW2 9655   1.187   2.090   2.552 -0.7007  0.9685 -1.0522
 2550SOL     OW 9656   0.328   1.396   8.237  0.2206  0.2475 -0.0219
 2550SOL    HW1 9657   0.282   1.368   8.157  0.7192 -0.3229 -0.1094
 2550SOL    HW2 9658   0.328   1.319   8.293  4.4723 -1.0982 -1.5409
 2551SOL     OW 9659  10.640   9.813   3.972 -0.2963 -0.6491 -0.0442
 2551SOL    HW1 9660  10.696   9.799   4.049 -1.2736  2.8964  1.5642
 2551SOL    HW2 9661  10.696   9.793   3.897  1.1537 -2.9202  1.5175
 2552SOL     OW 9662   1.189   7.404   5.534 -0.5988  0.2736 -0.3450
 2552SOL    HW1 9663   1.177   7.400   5.439 -1.5284 -0.3948 -0.2164
 2552SOL    HW2 9664   1.165   7.494   5.557 -2.5412 -0.1623 -0.4981
 2553SOL     OW 9665   6.017   9.529   1.464  0.7076  0.9627 -0.3767
 2553SOL    HW1 9666   6.026   9.624   1.461 -0.9891  1.2031  0.7215
 2553SOL    HW2 9667   5.982   9.506   1.378 -1.3646  1.6972  0.2120
 2554SOL     OW 9668   7.840   3.297   7.161  0.3205 -0.6155 -0.3097
 2554SOL    HW1 9669   7.920   3.336   7.126 -0.1408  0.4233 -0.2568
 2554SOL    HW2 9670   7.871   3.226   7.218  1.1200 -1.4761 -1.7435
 2555SOL     OW 9671   0.480   9.770   8.324  0.2127 -0.2824 -0.2346
 2555SOL    HW1 9672   0.478   9.833   8.396  1.0881 -2.3546  1.6887
 2555SOL    HW2 9673   0.389   9.766   8.294  0.1479  1.9235 -0.5045
 2556SOL     OW 9674   0.258   5.824   9.748 -0.0841 -0.4282  0.0106
 2556SOL    HW1 9675   0.204   5.821   9.827  1.0224 -1.0804  0.7528
 2556SOL    HW2 9676   0.242   5.911   9.711  0.2806  0.3170  1.5715
 2557SOL     OW 9677   9.591   4.724   9.281  0.4441 -0.0232  0.6564
 2557SOL    HW1 9678   9.504   4.762   9.289  0.3877  0.2996 -1.0962
 2557SOL    HW2 9679   9.580   4.632   9.307  0.3723  0.7930  3.9292
 2558SOL     OW 9680   0.985   1.611   7.519 -0.3189  0.0797  0.4685
 2558SOL    HW1 9681   0.891   1.604   7.504 -0.5462  1.6836  0.9957
 2558SOL    HW2 9682   0.999   1.701   7.549  1.3755 -0.1405  0.4766
 2559SOL     OW 9683   9.364   4.526   7.705  0.0722 -0.9906  0.0141
 2559SOL    HW1 9684   9.439   4.568   7.663  0.2480 -2.7762 -1.5682
 2559SOL    HW2 9685   9.297   4.522   7.637  0.0395 -3.1195  0.1005
 2560SOL     OW 9686   7.066   1.828   5.540 -0.3645  0.0375  0.5443
 2560SOL    HW1 9687   7.136   1.856   5.482 -2.2824 -0.5905 -2.2567
 2560SOL    HW2 9688   7.031   1.909   5.577  1.2489  0.4006  1.3697
 2561SOL     OW 9689  10.889   5.271   9.192 -0.3085 -0.0797 -0.1175
 2561SOL    HW1 9690  10.814   5.240   9.142 -0.2095 -0.7989  0.1555
 2561SOL    HW2 9691  10.957   5.205   9.176  0.9994  1.6215 -2.0576
 2562SOL     OW 9692   9.945  10.044   7.441  0.9187  0.1913 -0.2565
 2562SOL    HW1 9693   9.961  10.037   7.347  0.4793  0.0716 -0.3229
 2562SOL    HW2 9694   9.880   9.976   7.460 -0.7690  1.7089 -0.2902
 2563SOL     OW 9695   9.314   3.116   5.532 -0.1317  0.0347 -0.3249
 2563SOL    HW1 9696   9.380   3.079   5.474  0.9792  1.0767  0.2270
 2563SOL    HW2 9697   9.281   3.041   5.581  1.8787 -0.3269  0.5863
 2564SOL     OW 9698   3.178   0.267   0.713  0.4613 -0.8079  0.3504
 2564SOL    HW1 9699   3.137   0.206   0.775  0.2162 -2.1768 -1.0933
 2564SOL    HW2 9700   3.105   0.309   0.669  0.6145 -0.8276  0.0731
 2565SOL     OW 9701   4.319   5.396   9.088 -0.4937 -0.4694 -0.1084
 2565SOL    HW1 9702   4.237   5.443   9.074 -0.9416 -1.5008 -1.0676
 2565SOL    HW2 9703   4.298   5.330   9.154  0.2748  0.9673  1.6587
 2566SOL     OW 9704   0.614   0.955   2.647  0.1124 -0.4688 -0.2314
 2566SOL    HW1 9705   0.681   0.953   2.578 -1.7643 -1.4298 -2.1822
 2566SOL    HW2 9706   0.557   1.028   2.623 -1.8765 -2.1929 -1.1707
 2567SOL     OW 9707   1.946   4.280   1.174 -0.3263  0.3843 -0.1195
 2567SOL    HW1 9708   1.919   4.371   1.166 -0.1237  0.4346 -0.2311
 2567SOL    HW2 9709   1.997   4.277   1.256  0.6545  0.6131 -0.7089
 2568SOL     OW 9710  10.772   9.357  10.084  0.1335  0.3872  0.3460
 2568SOL    HW1 9711  10.861   9.370  10.050  0.3777 -0.0019  0.8243
 2568SOL    HW2 9712  10.778   9.277  10.135 -0.3883  0.6152  0.7680
 2569SOL     OW 9713   8.977   2.404   3.300 -0.5946  0.2912 -0.2689
 2569SOL    HW1 9714   8.993   2.315   3.331  0.2377  0.5072 -0.0451
 2569SOL    HW2 9715   9.062   2.434   3.266 -0.5774  1.3642  0.6366
 2570SOL     OW 9716   4.394   5.106   7.629 -0.3239  0.1614 -0.7811
 2570SOL    HW1 9717   4.300   5.117   7.615 -0.2731  0.1700 -1.1075
 2570SOL    HW2 9718   4.400   5.043   7.701 -0.6080  1.6730  0.6430
 2571SOL     OW 9719   6.411   9.421  10.108  0.2904  0.0594 -0.2332
 2571SOL    HW1 9720   6.330   9.371  10.123  0.1774  0.3581  0.1670
 2571SOL    HW2 9721   6.480   9.355  10.107  0.3833  0.0441  2.1542
 2572SOL     OW 9722   2.520   8.785  10.015  0.2458  0.1461  1.5471
 2572SOL    HW1 9723   2.551   8.813   9.929 -2.4072 -1.1534  0.0412
 2572SOL    HW2 9724   2.570   8.838  10.078  2.1901  1.2125 -0.7651
 2573SOL     OW 9725   0.446   9.554   8.860 -0.0172 -0.3534 -0.0750
 2573SOL    HW1 9726   0.459   9.612   8.785  1.1679 -1.5442 -0.8405
 2573SOL    HW2 9727   0.385   9.601   8.917 -1.2217  0.4595 -1.9276
 2574SOL     OW 9728   3.168   4.232   2.654  0.0274 -0.3836 -0.2034
 2574SOL    HW1 9729   3.087   4.281   2.664  2.1340  3.2462  0.8829
 2574SOL    HW2 9730   3.190   4.240   2.561 -1.1770 -2.1758 -0.7063
 2575SOL     OW 9731  10.484   8.339   8.434  0.0366  0.3624  0.2313
 2575SOL    HW1 9732  10.572   8.305   8.448  0.0304  0.5023  0.6351
 2575SOL    HW2 9733  10.492   8.433   8.450 -0.0065  0.5083 -0.5907
 2576SOL     OW 9734   0.831   6.511  10.984 -0.5102  0.2238  0.3255
 2576SOL    HW1 9735   0.834   6.605  10.997 -2.1752  0.0915  2.0811
 2576SOL    HW2 9736   0.739   6.487  10.997  0.0401 -1.7608  1.0640
 2577SOL     OW 9737  11.052   6.051  10.722  0.2083 -0.2317 -0.4004
 2577SOL    HW1 9738  11.127   6.013  10.676  0.3570 -2.7914  1.7061
 2577SOL    HW2 9739  10.977   6.025  10.669  0.6628  1.3855 -1.9211
 2578SOL     OW 9740   5.896   8.225  10.143 -0.0500 -0.4160 -0.1478
 2578SOL    HW1 9741   5.874   8.318  10.156 -0.5394 -0.4826 -0.4974
 2578SOL    HW2 9742   5.825   8.178  10.186  1.1778 -0.6569  1.7652
 2579SOL     OW 9743   5.398   4.492   0.776 -0.1469 -0.3707 -0.5206
 2579SOL    HW1 9744   5.452   4.566   0.804 -0.5969  0.1605 -1.0368
 2579SOL    HW2 9745   5.338   4.529   0.712  2.4382 -1.8901 -4.2073
 2580SOL     OW 9746   0.235   5.856   2.514 -0.0946  0.1615 -0.1011
 2580SOL    HW1 9747   0.194   5.938   2.486  0.3272 -0.1518 -1.7268
 2580SOL    HW2 9748   0.195   5.837   2.599 -0.7410  1.6586 -0.0387
 2581SOL     OW 9749  10.878   8.430   9.021 -0.2324 -0.5298 -0.8893
 2581SOL    HW1 9750  10.906   8.339   9.034  0.2237 -0.3537 -0.6074
 2581SOL    HW2 9751  10.940   8.464   8.957  2.5335  0.9033  2.2687
 2582SOL     OW 9752  10.861   4.064  11.049 -0.5498 -0.2325  0.5729
 2582SOL    HW1 9753  10.790   4.070  11.114  0.1529 -3.2793  1.8078
 2582SOL    HW2 9754  10.936   4.104  11.092 -1.3362  2.9353 -0.7091
 2583SOL     OW 9755   8.847  11.079   6.112 -0.1269 -0.1250  0.3544
 2583SOL    HW1 9756   8.891  10.996   6.094  1.0527  0.5781 -0.0941
 2583SOL    HW2 9757   8.887  11.110   6.193 -0.3345  0.1533  0.3505
 2584SOL     OW 9758  10.151   8.920   0.432 -0.6021 -0.0997  0.4982
 2584SOL    HW1 9759  10.182   8.962   0.512  1.4451 -1.4138  0.4715
 2584SOL    HW2 9760  10.207   8.955   0.362 -0.6549 -0.8378  0.0641
 2585SOL     OW 9761   4.149   7.415   8.794  0.1511 -0.3282 -0.4216
 2585SOL    HW1 9762   4.064   7.446   8.763  1.0811  1.3951 -1.4156
 2585SOL    HW2 9763   4.146   7.428   8.889 -0.5250  0.2065 -0.5089
 2586SOL     OW 9764   5.357  10.277   2.615  0.0728  0.4004 -0.2561
 2586SOL    HW1 9765   5.345  10.372   2.622  1.1756  0.6223 -1.0215
 2586SOL    HW2 9766   5.420  10.256   2.685 -2.7904 -0.3938  2.2976
 2587SOL     OW 9767   2.070   0.510   2.900 -0.6654  0.1286 -0.3206
 2587SOL    HW1 9768   2.062   0.469   2.814  1.0109  0.5816 -0.7161
 2587SOL    HW2 9769   2.159   0.544   2.903 -1.2117  1.5841  0.9576
 2588SOL     OW 9770   7.674   2.596   9.860  0.2033 -0.3619 -0.1360
 2588SOL    HW1 9771   7.759   2.554   9.849  0.9898  0.5700  1.8234
 2588SOL    HW2 9772   7.618   2.555   9.795  1.6066 -2.5166 -0.0711
 2589SOL     OW 9773   7.212   4.479  10.911 -0.7103 -0.1115  0.1284
 2589SOL    HW1 9774   7.180   4.468  11.000 -1.6086  0.6006 -0.0936
 2589SOL    HW2 9775   7.261   4.398  10.893 -0.9679 -0.4884  1.0658
 2590SOL     OW 9776   6.656   5.375   2.192 -0.5112 -0.2753 -0.7068
 2590SOL    HW1 9777   6.742   5.403   2.223 -0.7190 -0.8326  0.4270
 2590SOL    HW2 9778   6.664   5.374   2.097  1.0238 -1.2217 -0.5983
 2591SOL     OW 9779   9.787   9.105  10.488  0.4871 -0.0913 -0.1540
 2591SOL    HW1 9780   9.764   9.013  10.473 -0.8352  0.2870 -0.5081
 2591SOL    HW2 9781   9.872   9.100  10.533  2.0866 -1.3995 -2.9815
 2592SOL     OW 9782   4.332   9.361   2.041 -0.2622 -0.1129 -0.4857
 2592SOL    HW1 9783   4.398   9.318   2.095 -0.2692 -1.8906 -1.7996
 2592SOL    HW2 9784   4.264   9.294   2.029 -2.5938  1.7743  1.1780
 2593SOL     OW 9785   9.162  10.814   2.291  1.0425 -0.2040 -0.8058
 2593SOL    HW1 9786   9.139  10.733   2.335  1.2909  0.3509  0.3994
 2593SOL    HW2 9787   9.211  10.864   2.357  2.7709  0.0319 -2.2050
 2594SOL     OW 9788   5.908  10.497  10.087 -0.2966 -0.3981  0.1382
 2594SOL    HW1 9789   5.984  10.514  10.032 -0.1639 -2.1438 -0.3070
 2594SOL    HW2 9790   5.839  10.553  10.052  0.5219  0.4955 -0.0607
 2595SOL     OW 9791   8.854   7.372   1.619 -0.1919  0.0622  0.1753
 2595SOL    HW1 9792   8.904   7.292   1.636  1.3208  1.4297  2.7646
 2595SOL    HW2 9793   8.821   7.360   1.529  2.3363 -2.2089 -0.6124
 2596SOL     OW 9794   5.701   3.641   9.085 -0.0879  0.0323  0.4040
 2596SOL    HW1 9795   5.747   3.574   9.034  1.1352  0.8545  0.3771
 2596SOL    HW2 9796   5.628   3.595   9.125 -0.1665 -0.9810 -0.8346
 2597SOL     OW 9797   5.524   9.713   7.510  0.3985 -0.5346 -0.2693
 2597SOL    HW1 9798   5.508   9.619   7.504 -0.3385 -0.4376  0.1466
 2597SOL    HW2 9799   5.545   9.739   7.420  2.8559 -1.4718 -0.0575
 2598SOL     OW 9800   5.299   1.651   0.576 -0.1388  0.3604 -0.3601
 2598SOL    HW1 9801   5.326   1.736   0.541 -0.4273  0.7798  0.4155
 2598SOL    HW2 9802   5.264   1.604   0.501 -0.9349  1.3225 -0.6093
 2599SOL     OW 9803   7.515   1.067   8.033 -0.2577  0.2412  0.3290
 2599SOL    HW1 9804   7.433   1.031   8.067 -0.1155 -1.2476 -0.7994
 2599SOL    HW2 9805   7.576   0.993   8.033  0.5567  0.8825 -0.5459
 2600SOL     OW 9806  10.170   6.702   7.993  0.6984  0.1339  0.2439
 2600SOL    HW1 9807  10.181   6.773   7.929  1.2573 -0.5690 -0.4586
 2600SOL    HW2 9808  10.259   6.672   8.011  0.3852 -3.0838 -2.5738
 2601SOL     OW 9809   1.094   4.730   2.399  0.5741 -0.2924  0.2826
 2601SOL    HW1 9810   1.118   4.787   2.473  0.2588 -0.4451  0.5039
 2601SOL    HW2 9811   0.999   4.724   2.404  0.3705  1.0342 -1.1154
 2602SOL     OW 9812   2.574   1.049   9.869  0.4017 -0.7724  0.4631
 2602SOL    HW1 9813   2.547   1.097   9.791  0.0938 -0.2247  0.9069
 2602SOL    HW2 9814   2.511   0.977   9.876 -0.4544  0.0118  1.0153
 2603SOL     OW 9815   2.360   3.542   5.537 -0.4648  0.3545  0.2492
 2603SOL    HW1 9816   2.432   3.594   5.573  0.9525 -1.6765  0.5390
 2603SOL    HW2 9817   2.319   3.501   5.614 -2.3036  1.8164  0.1372
 2604SOL     OW 9818   6.288   9.444   2.066 -0.0304  0.8919  0.4393
 2604SOL    HW1 9819   6.376   9.425   2.098 -0.7026  0.6233  2.2457
 2604SOL    HW2 9820   6.231   9.391   2.122 -1.2794  0.1079 -1.4994
 2605SOL     OW 9821   5.957   3.997   7.022 -0.2196  0.2205  0.1862
 2605SOL    HW1 9822   6.052   4.006   7.026 -0.1703 -0.4436  0.4809
 2605SOL    HW2 9823   5.940   3.956   6.937 -0.0919 -1.6134  1.0219
 2606SOL     OW 9824   9.134  10.797   4.141 -0.3178 -0.3413  0.0476
 2606SOL    HW1 9825   9.089  10.835   4.217 -0.2097  0.7934 -0.4397
 2606SOL    HW2 9826   9.192  10.730   4.178  1.6709  1.9294  1.2890
 2607SOL     OW 9827   0.106   2.905   2.328 -0.0220  0.5086  0.8669
 2607SOL    HW1 9828   0.169   2.835   2.309 -0.1770  0.4414  0.6057
 2607SOL    HW2 9829   0.030   2.860   2.364 -0.6745  0.3968 -0.5937
 2608SOL     OW 9830   7.459   0.282   5.880  0.3556 -0.5156 -0.6213
 2608SOL    HW1 9831   7.482   0.192   5.860 -0.6380 -1.5623  2.4617
 2608SOL    HW2 9832   7.380   0.299   5.827  0.6048 -1.3929 -1.2937
 2609SOL     OW 9833   2.118   1.753   7.914  0.2476 -0.2282  0.1294
 2609SOL    HW1 9834   2.060   1.728   7.986  0.0943 -1.0018 -0.2600
 2609SOL    HW2 9835   2.069   1.820   7.867 -1.2520 -2.2860 -1.3902
 2610SOL     OW 9836  10.575   5.360   9.683 -0.4324  0.2972  0.5594
 2610SOL    HW1 9837  10.669   5.377   9.684 -0.1324 -1.1518 -0.3490
 2610SOL    HW2 9838  10.561   5.305   9.606 -2.1634  1.1696  0.2093
 2611SOL     OW 9839   7.746   0.030   8.437 -0.6484  0.2977 -0.0036
 2611SOL    HW1 9840   7.820   0.071   8.392 -0.1805 -0.4640  0.0532
 2611SOL    HW2 9841   7.713   0.097   8.497  1.0334  0.1335  1.1657
 2612SOL     OW 9842   7.820   2.661   4.227  0.0253  0.0774 -0.0760
 2612SOL    HW1 9843   7.797   2.635   4.138 -0.1683 -1.5280  0.4162
 2612SOL    HW2 9844   7.765   2.607   4.283  0.4523  0.7561  1.0325
 2613SOL     OW 9845   1.927   8.003   0.450  0.0527  0.0306  0.5493
 2613SOL    HW1 9846   1.904   8.094   0.432  0.1611 -0.1849 -0.7206
 2613SOL    HW2 9847   1.917   7.995   0.545  1.7381  1.8350  0.9299
 2614SOL     OW 9848   1.858   9.505   9.178  0.0535  0.5889 -0.3188
 2614SOL    HW1 9849   1.861   9.596   9.208  2.2966  0.3849  0.2599
 2614SOL    HW2 9850   1.934   9.496   9.120  0.0653 -0.9901 -0.1102
 2615SOL     OW 9851   3.524   3.994  10.093  0.3557 -0.0402  0.1639
 2615SOL    HW1 9852   3.469   4.056  10.045  1.9995  0.7155 -0.8334
 2615SOL    HW2 9853   3.504   3.909  10.054  1.1248  0.4629 -1.4261
 2616SOL     OW 9854  10.606   4.518   1.021 -0.8120  0.4096  0.2273
 2616SOL    HW1 9855  10.621   4.567   0.941 -1.9589  1.4123  0.5840
 2616SOL    HW2 9856  10.604   4.426   0.994  1.4158  0.5054 -0.4506
 2617SOL     OW 9857   5.197   1.496   7.907 -0.6041  0.1095 -0.3468
 2617SOL    HW1 9858   5.279   1.520   7.951 -0.3811 -0.9119 -0.1786
 2617SOL    HW2 9859   5.133   1.491   7.978 -0.1291 -2.0541 -0.0168
 2618SOL     OW 9860   6.343   9.006   2.572 -0.1556 -0.0026 -0.0584
 2618SOL    HW1 9861   6.393   8.928   2.550  0.8020 -0.1488  2.3989
 2618SOL    HW2 9862   6.407   9.068   2.607 -1.2134  1.0359  0.1261
 2619SOL     OW 9863   4.231   8.812   8.164  0.5020  0.3318  0.1381
 2619SOL    HW1 9864   4.282   8.750   8.216  2.3952  1.5064 -0.2361
 2619SOL    HW2 9865   4.201   8.877   8.228 -0.9758 -0.5819  0.4295
 2620SOL     OW 9866   3.860   8.021   0.526 -0.4112 -0.4143 -0.4238
 2620SOL    HW1 9867   3.903   8.025   0.441 -0.3876 -1.9273 -0.5091
 2620SOL    HW2 9868   3.914   8.076   0.583  0.1808 -0.2475 -1.1400
 2621SOL     OW 9869   8.218   0.011   9.205 -0.6397  0.5334  0.1685
 2621SOL    HW1 9870   8.233   0.074   9.134  3.1945 -0.7293 -0.3344
 2621SOL    HW2 9871   8.195  -0.070   9.161  0.4699  0.0752  0.4088
 2622SOL     OW 9872   4.589   8.353   7.859  0.3458 -0.2041 -0.6462
 2622SOL    HW1 9873   4.534   8.380   7.786 -1.2422  0.5632  0.7639
 2622SOL    HW2 9874   4.562   8.263   7.878  0.7788 -0.4138 -0.9928
 2623SOL     OW 9875   9.042   0.437   7.847 -0.3820  0.3165  0.2392
 2623SOL    HW1 9876   9.099   0.421   7.772  2.4803  1.3012  2.0233
 2623SOL    HW2 9877   9.007   0.524   7.833  0.4523  0.6549  0.1708
 2624SOL     OW 9878   7.035   2.939   9.407  0.1892  0.2479  0.8496
 2624SOL    HW1 9879   7.121   2.979   9.417 -0.2476  1.2723  0.5958
 2624SOL    HW2 9880   7.052   2.845   9.410  1.3717  0.4285  0.3392
 2625SOL     OW 9881   7.987   5.501   1.315  0.3577 -0.6795  0.4023
 2625SOL    HW1 9882   8.006   5.496   1.222  0.2022 -0.6696  0.3692
 2625SOL    HW2 9883   7.896   5.471   1.322  0.0740  0.1728  0.4412
 2626SOL     OW 9884   6.304   1.036   3.251 -0.1040  0.2449  0.1931
 2626SOL    HW1 9885   6.236   0.997   3.306  0.2925  1.1598  1.3687
 2626SOL    HW2 9886   6.261   1.049   3.166 -0.9485 -0.5161  0.4799
 2627SOL     OW 9887   7.188   8.741   8.871  0.5970  0.4712 -0.2474
 2627SOL    HW1 9888   7.101   8.701   8.876  1.0798 -0.6214 -0.1821
 2627SOL    HW2 9889   7.174   8.832   8.897 -0.5908  0.4213 -0.6456
 2628SOL     OW 9890  10.323   6.587   5.326  0.3883  0.5373 -0.1592
 2628SOL    HW1 9891  10.287   6.665   5.283 -0.4543  0.5538  0.5566
 2628SOL    HW2 9892  10.389   6.622   5.386 -0.1138  0.7294  0.2935
 2629SOL     OW 9893   0.212   4.156   5.140 -0.3653  0.1439  0.0870
 2629SOL    HW1 9894   0.133   4.172   5.089 -0.6029 -0.8381  0.1406
 2629SOL    HW2 9895   0.271   4.110   5.081 -1.5808 -3.2947  1.3387
 2630SOL     OW 9896   1.494   7.614   1.305  0.0158 -0.3982 -0.1662
 2630SOL    HW1 9897   1.469   7.692   1.256  2.0565  0.0318 -0.6222
 2630SOL    HW2 9898   1.546   7.562   1.243  1.6520 -0.4030  1.1474
 2631SOL     OW 9899   4.950   5.637   2.195  0.0962 -0.4334  0.0697
 2631SOL    HW1 9900   5.012   5.628   2.123 -0.7118  0.4706 -0.7834
 2631SOL    HW2 9901   4.976   5.718   2.239  1.4369 -1.6695  1.7120
 2632SOL     OW 9902   4.715  10.461   8.562  0.2685 -0.7116  0.1141
 2632SOL    HW1 9903   4.761  10.388   8.521  1.1899  0.4264 -0.9781
 2632SOL    HW2 9904   4.702  10.524   8.491 -2.7267 -0.8158  0.4498
 2633SOL     OW 9905   8.999   5.714   9.407  0.0960 -0.4749 -0.1079
 2633SOL    HW1 9906   9.031   5.770   9.335  0.4323  0.1035  0.4794
 2633SOL    HW2 9907   8.904   5.720   9.400  0.1230  0.2322 -0.0251
 2634SOL     OW 9908   3.579   1.120   7.698  0.6857 -0.2638  0.3819
 2634SOL    HW1 9909   3.670   1.137   7.723  0.5243 -1.5075  1.9679
 2634SOL    HW2 9910   3.573   1.149   7.607  1.5894  3.5952  1.3964
 2635SOL     OW 9911   4.400   0.788   3.647 -0.0954  0.0088 -0.3893
 2635SOL    HW1 9912   4.430   0.879   3.655 -2.5224  1.0553 -2.0920
 2635SOL    HW2 9913   4.384   0.760   3.737  1.1753  1.0740  0.1974
 2636SOL     OW 9914   4.221   4.067   0.072 -0.0667 -0.0383 -0.3059
 2636SOL    HW1 9915   4.210   3.996   0.134  2.5850  0.4969  0.9364
 2636SOL    HW2 9916   4.139   4.116   0.075 -0.0074  0.0705  2.9890
 2637SOL     OW 9917   7.359   6.995   3.205 -0.2241  0.1256 -0.2373
 2637SOL    HW1 9918   7.407   7.022   3.126 -0.5185 -0.3016 -0.5658
 2637SOL    HW2 9919   7.345   7.077   3.253 -1.1704  0.5805 -1.2532
 2638SOL     OW 9920   6.794  10.937   2.965 -1.0150 -0.1243  0.0130
 2638SOL    HW1 9921   6.761  10.974   3.047 -2.8407 -1.1665 -0.2060
 2638SOL    HW2 9922   6.759  10.994   2.897  0.9990  1.1018 -0.0928
 2639SOL     OW 9923   1.066   4.265   1.679 -0.5203 -0.3350 -0.5180
 2639SOL    HW1 9924   1.067   4.319   1.758 -2.0211 -0.0495 -0.6622
 2639SOL    HW2 9925   1.157   4.263   1.651 -0.1278  0.4925  0.5883
 2640SOL     OW 9926   2.740   9.398   7.014  0.0681 -0.5557  0.1842
 2640SOL    HW1 9927   2.708   9.343   6.942 -0.4689 -0.2844  0.2131
 2640SOL    HW2 9928   2.688   9.478   7.008 -0.5065 -0.8286  1.3302
 2641SOL     OW 9929   4.324   3.391   0.275 -0.6774  0.9698 -0.3533
 2641SOL    HW1 9930   4.404   3.443   0.267  1.1924 -1.7809 -1.0335
 2641SOL    HW2 9931   4.316   3.373   0.368  0.1217  0.3959 -0.3876
 2642SOL     OW 9932   0.853   3.396   2.001  0.2710  0.8279  0.5211
 2642SOL    HW1 9933   0.794   3.405   2.076 -0.5657  0.8303 -0.1192
 2642SOL    HW2 9934   0.911   3.471   2.006  0.5373  0.5681  1.4362
 2643SOL     OW 9935   6.069   2.223   8.676 -0.2923  0.4112 -0.0916
 2643SOL    HW1 9936   6.142   2.276   8.644 -1.7919  2.1039 -0.8537
 2643SOL    HW2 9937   6.016   2.205   8.598 -0.5515 -1.0703  0.3896
 2644SOL     OW 9938  10.871   9.901   9.681  0.0465  0.6103 -0.1288
 2644SOL    HW1 9939  10.844   9.953   9.757 -1.5709 -0.2437 -0.0639
 2644SOL    HW2 9940  10.864   9.962   9.608 -1.2898  0.6902  0.0268
 2645SOL     OW 9941   9.814   9.038   8.522 -0.2286  0.4172 -0.4709
 2645SOL    HW1 9942   9.893   9.086   8.546 -0.6098  0.8582 -0.0992
 2645SOL    HW2 9943   9.745   9.074   8.577 -0.5874 -0.3404 -0.4074
 2646SOL     OW 9944  10.103   1.876  10.572  0.9293 -0.4892 -0.6457
 2646SOL    HW1 9945  10.180   1.894  10.627  0.1640  0.8127  0.0510
 2646SOL    HW2 9946  10.068   1.962  10.551 -1.2166 -1.0423  0.3431
 2647SOL     OW 9947   7.080   6.312   2.491  0.0595 -0.2247  0.1806
 2647SOL    HW1 9948   7.157   6.321   2.546  0.9662 -1.7378 -0.7710
 2647SOL    HW2 9949   7.099   6.367   2.415  0.7873 -1.5500 -0.6267
 2648SOL     OW 9950   4.177   9.698   0.101  0.4582  0.3756  0.2932
 2648SOL    HW1 9951   4.243   9.660   0.043 -1.7328 -1.2502 -1.3306
 2648SOL    HW2 9952   4.214   9.690   0.189  0.7773 -4.6984  0.0348
 2649SOL     OW 9953   2.717   2.506   6.456 -0.0738 -0.1599  0.0545
 2649SOL    HW1 9954   2.806   2.472   6.452 -0.4519 -1.4021  1.2700
 2649SOL    HW2 9955   2.716   2.559   6.536 -0.5924 -0.7249  0.4307
 2650SOL     OW 9956   8.660   2.768   2.426  0.0760 -0.2113  0.4641
 2650SOL    HW1 9957   8.590   2.740   2.367  0.1560 -0.6943  0.5975
 2650SOL    HW2 9958   8.631   2.854   2.458 -0.8599 -0.7616  1.1537
 2651SOL     OW 9959   1.823   9.417   8.571  0.4136  0.4119  0.0323
 2651SOL    HW1 9960   1.778   9.453   8.494 -0.6841  0.0566  0.4858
 2651SOL    HW2 9961   1.799   9.324   8.571  0.8320  0.3008  0.5182
 2652SOL     OW 9962   6.892   9.891  10.003 -0.1402 -0.1967 -0.1215
 2652SOL    HW1 9963   6.846   9.904  10.086 -0.1712  1.8557 -0.4155
 2652SOL    HW2 9964   6.824   9.903   9.936  0.6166  2.3102 -0.5379
 2653SOL     OW 9965   8.205   6.610   0.523 -0.5088 -0.0838  0.3357
 2653SOL    HW1 9966   8.180   6.520   0.541 -2.5020  0.0148 -1.4655
 2653SOL    HW2 9967   8.299   6.608   0.510 -0.5228 -1.9098  0.3626
 2654SOL     OW 9968   8.812   1.901   5.732 -0.4267  0.4430 -0.5499
 2654SOL    HW1 9969   8.858   1.874   5.653  0.1747  1.9526 -0.7440
 2654SOL    HW2 9970   8.725   1.926   5.702 -0.0420  1.4921 -0.8448
 2655SOL     OW 9971  10.672  10.709   3.232  0.2066 -1.2976 -0.0296
 2655SOL    HW1 9972  10.753  10.758   3.244 -0.0912 -0.6235 -0.7193
 2655SOL    HW2 9973  10.604  10.765   3.269  0.0551 -1.9208  0.6661
 2656SOL     OW 9974   3.238   0.467   4.836  0.3308 -0.9354  0.1976
 2656SOL    HW1 9975   3.268   0.386   4.876 -1.3931 -1.0215  1.4409
 2656SOL    HW2 9976   3.195   0.440   4.756 -1.0127 -1.3977  1.0372
 2657SOL     OW 9977   3.638  10.989   0.761 -0.9286 -0.1730  0.1358
 2657SOL    HW1 9978   3.684  11.053   0.816 -0.3464 -1.4705  1.2244
 2657SOL    HW2 9979   3.589  10.935   0.822 -1.0627 -1.0486 -0.7149
 2658SOL     OW 9980  10.345   9.054   8.876 -0.4174 -0.0602 -0.4120
 2658SOL    HW1 9981  10.376   9.142   8.895 -0.5836  0.1280 -0.9779
 2658SOL    HW2 9982  10.387   8.998   8.941  1.2378  0.1657 -1.2333
 2659SOL     OW 9983   3.957   7.819   8.214  0.4746 -0.4137 -0.4588
 2659SOL    HW1 9984   3.861   7.821   8.211  0.4122 -2.0930 -1.8270
 2659SOL    HW2 9985   3.982   7.899   8.259 -1.5862 -0.1597  0.3497
 2660SOL     OW 9986   4.890  10.434   6.406 -0.6939  0.5378  0.3416
 2660SOL    HW1 9987   4.881  10.529   6.397 -1.7923  0.4724  0.5400
 2660SOL    HW2 9988   4.861  10.399   6.322  2.7218  0.4570 -0.9280
 2661SOL     OW 9989   4.399  10.894   1.087 -0.5333 -0.2833  0.1607
 2661SOL    HW1 9990   4.310  10.876   1.056 -0.6598  0.4559  0.0747
 2661SOL    HW2 9991   4.453  10.889   1.008 -1.1059  3.4048 -0.6510
 2662SOL     OW 9992  10.559   6.124   6.812  0.0383  0.7971  0.4609
 2662SOL    HW1 9993  10.606   6.071   6.748  1.2048  0.8959  1.2109
 2662SOL    HW2 9994  10.575   6.080   6.896 -0.9532  1.0135  0.7788
 2663SOL     OW 9995   7.580   9.852   6.510  0.1383  0.3290  0.1650
 2663SOL    HW1 9996   7.496   9.876   6.548  0.5255  0.7280  0.7879
 2663SOL    HW2 9997   7.565   9.854   6.416 -1.0349 -1.4072  0.2660
 2664SOL     OW 9998   0.471   7.297   1.146  0.8847 -0.6997 -0.4137
 2664SOL    HW1 9999   0.491   7.270   1.057  2.1636  0.4244 -0.5169
 2664SOL    HW210000   0.553   7.334   1.178 -0.3107  1.6232  0.1930
 2665SOL     OW10001   8.882   1.638   0.625 -0.3264 -0.0318 -0.4572
 2665SOL    HW110002   8.915   1.613   0.712  0.0612  0.0441 -0.5788
 2665SOL    HW210003   8.860   1.554   0.584  3.5181 -0.5499 -1.8867
 2666SOL     OW10004   5.856   7.002   0.370  0.4981 -0.1137  0.0184
 2666SOL    HW110005   5.785   6.939   0.382 -0.7677  1.7267  3.8074
 2666SOL    HW210006   5.815   7.074   0.322  0.0019  0.5029  1.3107
 2667SOL     OW10007   4.597   5.531   8.569 -0.6672  1.0673 -0.2337
 2667SOL    HW110008   4.554   5.515   8.654  0.3472  2.2896  0.5447
 2667SOL    HW210009   4.572   5.620   8.546  0.0808  1.1952 -0.5889
 2668SOL     OW10010   0.428   0.591   8.615 -0.7094  0.2389 -0.3204
 2668SOL    HW110011   0.464   0.515   8.660 -1.5968 -0.0499 -0.0721
 2668SOL    HW210012   0.497   0.657   8.621 -0.4444 -0.1046  0.6379
 2669SOL     OW10013  10.477   1.145   3.717  0.9652 -0.0624 -0.2845
 2669SOL    HW110014  10.399   1.187   3.753  1.0149 -1.7842  1.9994
 2669SOL    HW210015  10.452   1.054   3.706  1.5170  0.0219 -3.2140
 2670SOL     OW10016   8.928   4.914   3.594  0.2259  0.3601 -0.1025
 2670SOL    HW110017   8.987   4.889   3.524 -2.6804  0.1691 -2.7170
 2670SOL    HW210018   8.859   4.965   3.551 -1.9305 -0.0757  2.5285
 2671SOL     OW10019   8.070   6.288   9.340 -0.5960  0.2499 -0.4147
 2671SOL    HW110020   8.006   6.359   9.338 -1.5338 -0.5401 -3.2277
 2671SOL    HW210021   8.021   6.213   9.375  0.4958  0.9241  2.9214
 2672SOL     OW10022   1.212   6.582  10.641  0.6386  0.6277  0.0060
 2672SOL    HW110023   1.225   6.500  10.689  0.6956  0.5821 -0.0859
 2672SOL    HW210024   1.300   6.620  10.634  0.7738  0.1797 -0.8642
 2673SOL     OW10025   5.197   9.658   2.057  0.2039  0.5499 -0.4071
 2673SOL    HW110026   5.132   9.681   2.124  1.0830  1.5912  0.1261
 2673SOL    HW210027   5.159   9.687   1.975 -0.5028  0.0901 -0.2445
 2674SOL     OW10028   3.211   9.236   5.794 -0.1616  0.0561  0.8233
 2674SOL    HW110029   3.224   9.290   5.716 -4.3073  0.3576  0.1227
 2674SOL    HW210030   3.236   9.292   5.867  0.7418  0.9095 -0.0982
 2675SOL     OW10031   1.312   6.514   6.739  0.7710 -0.1309 -0.7489
 2675SOL    HW110032   1.379   6.453   6.707 -0.1146 -0.8877 -1.2294
 2675SOL    HW210033   1.356   6.565   6.806  2.1440  0.1559 -1.8203
 2676SOL     OW10034   6.032  10.806   3.793  0.0996 -0.3262  0.0347
 2676SOL    HW110035   6.102  10.794   3.857 -0.7961 -1.2283  0.8690
 2676SOL    HW210036   5.971  10.735   3.809 -1.0774  0.4957 -0.6069
 2677SOL     OW10037   6.721   4.724   4.673 -0.1221 -0.1765 -0.0112
 2677SOL    HW110038   6.647   4.785   4.681 -0.7943 -0.7614 -1.4212
 2677SOL    HW210039   6.795   4.771   4.710 -1.2754  0.2651  1.8603
 2678SOL     OW10040   9.352   3.391   3.822 -0.4193 -0.1281  0.6861
 2678SOL    HW110041   9.361   3.486   3.821  0.7796 -0.2248  1.0347
 2678SOL    HW210042   9.382   3.363   3.736  0.3405 -0.2615  0.9817
 2679SOL     OW10043   4.746   2.139  11.056 -0.5208 -0.2586  0.4077
 2679SOL    HW110044   4.795   2.220  11.052  0.9472 -1.0838  1.1678
 2679SOL    HW210045   4.658   2.163  11.026  0.3628  1.2058 -1.2090
 2680SOL     OW10046  10.105   0.438   6.545 -0.3177  0.0147  0.5528
 2680SOL    HW110047  10.072   0.479   6.625  1.4420 -0.3264  1.5047
 2680SOL    HW210048  10.027   0.406   6.501 -1.4507  1.3872  1.4577
 2681SOL     OW10049   5.457   7.886   3.546  0.1406  0.5584  0.3550
 2681SOL    HW110050   5.444   7.979   3.561  0.2348  0.8586 -1.2240
 2681SOL    HW210051   5.485   7.880   3.455  0.0684 -1.0201  0.4028
 2682SOL     OW10052   9.793   8.974   2.721 -1.3764  0.0989  0.2572
 2682SOL    HW110053   9.713   9.004   2.678 -1.0859  0.4759 -0.0295
 2682SOL    HW210054   9.845   9.054   2.734 -1.5036  0.0085  1.4129
 2683SOL     OW10055   5.985   8.660   5.709 -0.8509  0.4540  0.2027
 2683SOL    HW110056   6.076   8.649   5.738 -0.4256  1.2798 -0.7473
 2683SOL    HW210057   5.991   8.719   5.634 -2.2554  1.1160  0.5811
 2684SOL     OW10058   5.966   6.175  10.303 -0.0200  1.0797 -0.1668
 2684SOL    HW110059   6.007   6.121  10.236  0.7005 -1.0084  1.8205
 2684SOL    HW210060   5.888   6.211  10.261 -0.5478 -1.5295 -1.6206
 2685SOL     OW10061  10.347   0.357   7.672  0.2521 -0.4290 -0.2185
 2685SOL    HW110062  10.260   0.343   7.635 -0.4917  1.3152  0.7132
 2685SOL    HW210063  10.346   0.449   7.700  2.8389  0.0162 -1.3061
 2686SOL     OW10064   9.216   9.167  10.306 -0.2822  0.2612 -0.1669
 2686SOL    HW110065   9.235   9.088  10.256 -3.1307 -0.6202 -0.0719
 2686SOL    HW210066   9.250   9.238  10.252 -2.1196 -0.7389 -2.8693
 2687SOL     OW10067   5.167   5.259   6.850  0.1502  0.4928 -0.3639
 2687SOL    HW110068   5.223   5.190   6.884 -0.3259  0.0379 -0.4880
 2687SOL    HW210069   5.103   5.274   6.920  0.4921  1.0878 -0.1755
 2688SOL     OW10070   3.323  10.108   0.802  0.8044 -0.3615  1.0670
 2688SOL    HW110071   3.301  10.201   0.797 -0.0440 -0.5694  0.7414
 2688SOL    HW210072   3.358  10.087   0.715  1.7111 -0.1804  1.3795
 2689SOL     OW10073   0.305   2.621   3.304 -0.2965  0.5575  0.6457
 2689SOL    HW110074   0.370   2.599   3.237  0.2995  0.6481  1.1902
 2689SOL    HW210075   0.354   2.625   3.386 -0.8322  1.4612  0.9417
 2690SOL     OW10076   9.816   0.128   8.961  1.0110 -0.2515 -0.2316
 2690SOL    HW110077   9.807   0.045   9.009  3.1686 -1.0614 -1.0989
 2690SOL    HW210078   9.776   0.193   9.018  1.0249 -1.5899  1.3890
 2691SOL     OW10079   1.888   5.060   4.435  0.3352  0.1785  0.2595
 2691SOL    HW110080   1.942   5.138   4.442 -0.5977  0.7928  0.9292
 2691SOL    HW210081   1.902   5.013   4.517  1.2378 -0.6009 -0.3292
 2692SOL     OW10082   5.458   2.908   0.708  0.3377  0.0873 -0.4469
 2692SOL    HW110083   5.531   2.931   0.651  1.3410  1.8313  1.4363
 2692SOL    HW210084   5.382   2.950   0.667  1.1868  2.0632 -0.1077
 2693SOL     OW10085   7.962   2.485   9.895  0.2066 -0.3942 -0.2278
 2693SOL    HW110086   8.044   2.490   9.944 -1.0045  0.1079  1.8544
 2693SOL    HW210087   7.907   2.424   9.946 -0.7306 -0.7371 -1.5759
 2694SOL     OW10088   0.820   6.947   8.083  0.4628  0.1751 -0.1131
 2694SOL    HW110089   0.738   6.990   8.108  1.8255  1.9293  1.6677
 2694SOL    HW210090   0.793   6.864   8.044 -2.1503  0.7827  0.2207
 2695SOL     OW10091   1.732  10.438   8.938  0.6460 -0.4084  0.4643
 2695SOL    HW110092   1.795  10.508   8.950 -0.9577  1.1605  0.1839
 2695SOL    HW210093   1.662  10.458   9.001 -0.4646 -0.9839 -0.5487
 2696SOL     OW10094   5.931   5.253   9.128  0.0908 -0.4370  0.6612
 2696SOL    HW110095   5.962   5.242   9.038 -0.6945 -0.6219  0.4028
 2696SOL    HW210096   5.836   5.250   9.121 -0.0763  1.8884  1.1841
 2697SOL     OW10097   0.973   1.362  10.644 -0.2878  0.4596 -0.4459
 2697SOL    HW110098   0.984   1.375  10.738  2.4921 -0.9978 -0.4400
 2697SOL    HW210099   0.903   1.421  10.618  0.4641  2.6382  2.1334
 2698SOL     OW10100   8.371   7.871   1.649 -0.1527 -1.0112  1.1703
 2698SOL    HW110101   8.282   7.857   1.683 -1.5425 -1.8587 -2.3621
 2698SOL    HW210102   8.380   7.966   1.645 -0.6104 -0.9077  2.1549
 2699SOL     OW10103  10.498   8.316   7.988  0.5329 -0.3558 -0.1230
 2699SOL    HW110104  10.429   8.372   8.023 -0.1526 -0.6150 -1.0200
 2699SOL    HW210105  10.552   8.375   7.935  2.7577  0.4753  2.8293
 2700SOL     OW10106   2.601   5.223   0.897 -0.0438 -0.3523  0.5830
 2700SOL    HW110107   2.681   5.183   0.863 -0.3143 -0.9098  0.5863
 2700SOL    HW210108   2.560   5.263   0.821  0.7429  0.8390  0.7558
 2701SOL     OW10109   5.544   3.459   4.707  0.7172 -1.0078  0.5661
 2701SOL    HW110110   5.598   3.523   4.659  2.4388 -2.4535  0.4785
 2701SOL    HW210111   5.529   3.501   4.792  2.9695 -0.9630  1.0191
 2702SOL     OW10112   9.506   6.621   6.051 -0.7762  0.2362  0.0181
 2702SOL    HW110113   9.526   6.691   5.989  0.1468  1.2230  1.3759
 2702SOL    HW210114   9.473   6.549   5.997  0.7108  0.7774 -1.6769
 2703SOL     OW10115   3.509   3.389   8.882  0.1018 -0.1002  0.5323
 2703SOL    HW110116   3.509   3.342   8.799 -3.2432  1.5722 -0.6239
 2703SOL    HW210117   3.548   3.474   8.862 -1.4088  0.5975  0.3767
 2704SOL     OW10118   7.254   3.330   4.871 -0.0518  0.5860  0.3708
 2704SOL    HW110119   7.310   3.286   4.808 -1.1294  0.6957 -0.6935
 2704SOL    HW210120   7.289   3.419   4.877 -1.2911  1.2858 -1.8545
 2705SOL     OW10121   4.503   7.089   2.616  0.0972  1.2223 -0.4033
 2705SOL    HW110122   4.546   7.099   2.531 -0.6961  3.1115 -0.6269
 2705SOL    HW210123   4.410   7.081   2.595  0.0606 -0.1207  0.2088
 2706SOL     OW10124   0.078   1.031   0.945  0.8601  0.2742 -0.2061
 2706SOL    HW110125   0.002   0.972   0.945  1.3095 -0.3164  0.1750
 2706SOL    HW210126   0.120   1.016   0.861  0.7995  0.2875 -0.2394
 2707SOL     OW10127   5.628   6.821   8.903  0.3854  0.2851  0.7120
 2707SOL    HW110128   5.569   6.751   8.932  0.0878  0.6294  0.9382
 2707SOL    HW210129   5.591   6.901   8.939  1.2901  0.4445  1.3315
 2708SOL     OW10130  10.750   1.626   8.268  0.1191  0.4448 -0.0137
 2708SOL    HW110131  10.707   1.678   8.336  1.5321  0.6855  0.7491
 2708SOL    HW210132  10.828   1.677   8.245 -1.1392  1.1913 -3.0595
 2709SOL     OW10133   7.222  10.817   2.774  0.6554  0.4494  0.0851
 2709SOL    HW110134   7.223  10.779   2.861  0.8541  0.8333  0.2503
 2709SOL    HW210135   7.129  10.835   2.757  0.6205  0.4081  0.2330
 2710SOL     OW10136   0.128   3.504   6.668  0.2104  0.4369 -0.6338
 2710SOL    HW110137   0.112   3.595   6.643  0.1315  0.7634  0.5610
 2710SOL    HW210138   0.119   3.455   6.586 -1.7198  1.2409 -0.9558
 2711SOL     OW10139   6.988   4.839   0.218 -0.0984  0.7871  0.5115
 2711SOL    HW110140   6.992   4.851   0.123  1.5321  0.1004  0.4558
 2711SOL    HW210141   6.938   4.914   0.250 -2.4164  0.0020 -1.0322
 2712SOL     OW10142   1.427   5.253   3.097 -0.4830 -0.2394 -0.5657
 2712SOL    HW110143   1.497   5.295   3.048 -1.7386  1.0491 -1.3243
 2712SOL    HW210144   1.427   5.297   3.182 -0.2722 -0.3482 -0.5098
 2713SOL     OW10145   1.218   0.460   9.828  0.1489 -0.0470 -0.3710
 2713SOL    HW110146   1.226   0.550   9.860  0.7351  0.4310 -1.7834
 2713SOL    HW210147   1.212   0.469   9.732 -1.8666 -1.3763 -0.4342
 2714SOL     OW10148   4.451   1.898   1.864 -0.5304 -1.1439 -0.0346
 2714SOL    HW110149   4.452   1.802   1.862  1.5745 -1.2250  1.5752
 2714SOL    HW210150   4.544   1.923   1.859 -1.0622  0.8617 -1.0992
 2715SOL     OW10151   7.255   4.914   8.287  0.4248 -0.1264  0.1782
 2715SOL    HW110152   7.222   4.825   8.285 -0.8175  0.3203 -0.5201
 2715SOL    HW210153   7.177   4.969   8.286  1.1555  0.9760  1.0200
 2716SOL     OW10154   4.386   4.655   9.354  0.4299  0.5962 -0.0442
 2716SOL    HW110155   4.309   4.712   9.354 -0.8035 -0.9462  2.2207
 2716SOL    HW210156   4.358   4.575   9.311  0.8835  0.1537  0.4645
 2717SOL     OW10157   4.416   2.517   7.426  0.3534 -0.1940  0.6586
 2717SOL    HW110158   4.440   2.469   7.347 -1.7856 -5.7234  2.8478
 2717SOL    HW210159   4.332   2.558   7.405 -0.7484 -2.5357  0.1824
 2718SOL     OW10160  10.063  10.131   5.418 -0.2059 -0.2538 -0.3254
 2718SOL    HW110161  10.078  10.141   5.324 -0.7854 -2.6402 -0.7296
 2718SOL    HW210162   9.968  10.145   5.428 -0.2652 -0.7392 -0.2102
 2719SOL     OW10163   2.141   4.017   8.249 -0.5891  0.7997 -0.0980
 2719SOL    HW110164   2.081   3.946   8.228  0.9022 -1.1548  1.7576
 2719SOL    HW210165   2.097   4.096   8.218 -2.6879 -0.8132 -1.5351
 2720SOL     OW10166   9.596   5.116   1.427  0.2133 -0.2237  0.0407
 2720SOL    HW110167   9.587   5.151   1.515  0.4957 -1.0234  0.4010
 2720SOL    HW210168   9.540   5.039   1.426  2.0569 -1.6620  0.3408
 2721SOL     OW10169   4.483   1.896   2.862  0.0509 -0.3298  0.4518
 2721SOL    HW110170   4.488   1.990   2.881 -1.7247 -0.1186  0.0530
 2721SOL    HW210171   4.390   1.875   2.870  0.4057 -2.0437  0.4190
 2722SOL     OW10172   4.250   2.489   8.894  0.4019 -0.1872  0.2483
 2722SOL    HW110173   4.176   2.453   8.943 -0.1913  3.1452  2.1768
 2722SOL    HW210174   4.317   2.506   8.960  1.7224 -0.3465 -0.9914
 2723SOL     OW10175   9.219   6.265   4.549  0.0577 -0.2923  0.2507
 2723SOL    HW110176   9.128   6.258   4.578 -0.5023  1.0320 -1.0526
 2723SOL    HW210177   9.228   6.197   4.482 -0.3338  0.3327 -0.4465
 2724SOL     OW10178  10.443   0.547   0.307 -0.0758 -0.0495  0.2567
 2724SOL    HW110179  10.417   0.620   0.251  0.5588 -0.3503 -0.4584
 2724SOL    HW210180  10.533   0.568   0.333 -0.5270  0.3234  1.5780
 2725SOL     OW10181   5.457   4.088   0.904 -0.2434  0.2378  0.0665
 2725SOL    HW110182   5.472   4.000   0.938 -1.0308  0.2713  0.5343
 2725SOL    HW210183   5.482   4.146   0.975 -0.4140  0.3636  0.0256
 2726SOL     OW10184   0.756   5.101   2.716 -0.4335 -0.0309 -0.5568
 2726SOL    HW110185   0.732   5.178   2.767  1.6283  0.7290 -0.6736
 2726SOL    HW210186   0.770   5.133   2.627  0.0050 -0.6210 -0.7084
 2727SOL     OW10187   4.917   4.972   3.319 -0.4821  0.0149  0.0807
 2727SOL    HW110188   5.000   4.944   3.280 -0.5333  0.7286 -0.5448
 2727SOL    HW210189   4.941   4.998   3.408 -0.0260  0.2501 -0.1064
 2728SOL     OW10190   6.123   2.720   0.120  0.5501 -0.1009 -0.0176
 2728SOL    HW110191   6.130   2.683   0.032  3.9777 -0.3589  0.2244
 2728SOL    HW210192   6.167   2.805   0.113 -0.0238  0.3252  1.2471
 2729SOL     OW10193   3.436   4.687   7.509  0.1647  0.4247  0.1330
 2729SOL    HW110194   3.467   4.677   7.599 -1.5785  1.0246  0.8416
 2729SOL    HW210195   3.444   4.600   7.471 -1.1770 -0.3836  1.6017
 2730SOL     OW10196   5.869   8.876   1.453 -0.3731  0.5428 -0.2838
 2730SOL    HW110197   5.913   8.802   1.496 -1.0301 -1.1130 -2.2724
 2730SOL    HW210198   5.802   8.903   1.516  1.3874  1.0474  1.4712
 2731SOL     OW10199   0.135   3.946   1.950 -0.3170 -0.2672  0.6928
 2731SOL    HW110200   0.048   3.922   1.982 -1.6233  2.0435 -0.8593
 2731SOL    HW210201   0.142   4.040   1.968  2.4190 -0.5912  1.8571
 2732SOL     OW10202   8.612   2.453  10.016  0.2009  0.5111  0.3498
 2732SOL    HW110203   8.686   2.436  10.074 -0.2333 -0.7698  0.5539
 2732SOL    HW210204   8.641   2.422   9.930 -0.3376 -0.6955  0.5791
 2733SOL     OW10205   6.528   3.806   0.216  0.5860 -0.0211  0.2835
 2733SOL    HW110206   6.602   3.856   0.181  0.6605  0.7881  1.5353
 2733SOL    HW210207   6.460   3.871   0.230  0.1530 -0.5170  0.5223
 2734SOL     OW10208   0.608   4.126   4.002 -0.4330 -0.6052 -0.0445
 2734SOL    HW110209   0.659   4.150   3.925  1.4288  0.1746  1.3521
 2734SOL    HW210210   0.570   4.041   3.980  0.7545 -0.7996 -1.5087
 2735SOL     OW10211   5.297   5.153   8.916 -0.2267  0.0182 -0.5481
 2735SOL    HW110212   5.325   5.075   8.965  1.8123  1.0478  0.0335
 2735SOL    HW210213   5.285   5.220   8.983  1.0841  1.0287 -1.2811
 2736SOL     OW10214   2.679   8.407   7.970 -0.2444 -0.6080 -0.1261
 2736SOL    HW110215   2.767   8.376   7.947  0.1325  1.7690 -2.3683
 2736SOL    HW210216   2.695   8.477   8.034 -0.2749  0.8644 -1.6445
 2737SOL     OW10217  10.167   0.988  10.915  0.1856 -0.0568  0.3163
 2737SOL    HW110218  10.242   1.030  10.958 -0.5015  0.6621  0.8332
 2737SOL    HW210219  10.200   0.963  10.829  0.7523  1.0873  0.1869
 2738SOL     OW10220   9.482  10.914  10.943  0.0440 -0.4148  0.4266
 2738SOL    HW110221   9.503  10.877  10.858 -1.0101 -2.0544  0.8350
 2738SOL    HW210222   9.425  10.989  10.923  0.8060 -0.0279 -0.3408
 2739SOL     OW10223   5.329   8.222   0.058 -0.1488  0.3782  0.4024
 2739SOL    HW110224   5.343   8.131   0.082 -1.9271  0.1528  0.6933
 2739SOL    HW210225   5.348   8.225  -0.035 -0.8423 -0.4717  0.2222
 2740SOL     OW10226   3.357   3.981  10.890  0.2263 -0.1128 -0.2073
 2740SOL    HW110227   3.391   4.046  10.828 -0.1042 -0.1449 -0.4243
 2740SOL    HW210228   3.420   3.909  10.885 -0.1139 -0.3684 -0.9531
 2741SOL     OW10229   0.967   1.269   4.955  0.8638  0.3867 -0.5233
 2741SOL    HW110230   0.971   1.313   4.870  0.5763  1.4094 -0.0247
 2741SOL    HW210231   1.052   1.225   4.963  0.2343 -1.2426 -2.1113
 2742SOL     OW10232   8.706   4.212   7.424  0.1948 -0.8077 -0.0233
 2742SOL    HW110233   8.695   4.182   7.514  1.1770 -0.3209  0.2806
 2742SOL    HW210234   8.794   4.182   7.399  0.6421  0.5590 -0.1899
 2743SOL     OW10235   4.910   4.390   0.417 -0.2711  0.0891 -0.5703
 2743SOL    HW110236   4.845   4.320   0.409 -0.3768  0.0037  0.7425
 2743SOL    HW210237   4.859   4.470   0.406 -0.4271 -0.0018 -0.5142
 2744SOL     OW10238   7.289   9.446   2.542 -0.1596 -0.5491  0.2996
 2744SOL    HW110239   7.271   9.521   2.486 -0.3012 -1.5088 -0.9802
 2744SOL    HW210240   7.384   9.435   2.538 -0.1839 -0.6977  0.1536
 2745SOL     OW10241   3.451   3.498   4.674 -0.2470  0.3977  1.0171
 2745SOL    HW110242   3.511   3.571   4.661  0.3875 -0.1833  0.6095
 2745SOL    HW210243   3.428   3.502   4.767  0.9627  0.2252  1.3346
 2746SOL     OW10244   7.377   4.516   2.996 -0.2780  0.4696  1.0512
 2746SOL    HW110245   7.414   4.599   3.028 -0.2575  0.3347  1.3811
 2746SOL    HW210246   7.375   4.459   3.073  1.4544 -0.4666  0.4700
 2747SOL     OW10247   9.470   7.449   6.321 -0.2700 -0.4444  0.1771
 2747SOL    HW110248   9.528   7.522   6.300 -1.7023  0.0190 -2.5463
 2747SOL    HW210249   9.482   7.436   6.415  1.4216  2.0433  0.4050
 2748SOL     OW10250   9.183   2.439   5.697 -0.4091  0.3948 -0.1767
 2748SOL    HW110251   9.206   2.347   5.714  0.4915  0.5147 -0.7025
 2748SOL    HW210252   9.105   2.454   5.751 -0.3705 -0.5792  0.1770
 2749SOL     OW10253   1.084   1.147   2.335 -0.4465 -0.6272 -0.1341
 2749SOL    HW110254   1.152   1.182   2.278 -0.7646  0.2560  0.0197
 2749SOL    HW210255   1.075   1.055   2.308 -0.4869 -0.2642 -1.4163
 2750SOL     OW10256   7.175   3.969   5.372  0.2135 -0.1656  0.6380
 2750SOL    HW110257   7.193   3.876   5.378 -0.2104 -0.3663 -0.7557
 2750SOL    HW210258   7.212   3.995   5.287 -0.6784  0.6835  0.4918
 2751SOL     OW10259  10.972   7.505   7.595  0.0451 -0.0564  0.0855
 2751SOL    HW110260  10.971   7.446   7.520 -2.0900 -1.2891  0.9942
 2751SOL    HW210261  10.887   7.493   7.637 -0.0108  2.7965  1.0484
 2752SOL     OW10262   7.593   4.393   1.217  0.4275  0.8552 -0.0195
 2752SOL    HW110263   7.542   4.442   1.281  0.0221  1.4033 -0.7440
 2752SOL    HW210264   7.656   4.457   1.183  0.4366  0.6492 -0.3899
 2753SOL     OW10265   4.755   7.318   2.417 -0.3136 -0.2576 -0.3359
 2753SOL    HW110266   4.764   7.291   2.508 -0.2154 -0.0801 -0.2940
 2753SOL    HW210267   4.698   7.251   2.378 -1.4485  0.3908  0.1640
 2754SOL     OW10268   2.248   4.482   1.983 -0.0285  0.5318 -0.1500
 2754SOL    HW110269   2.204   4.402   2.011  0.9097 -0.1580 -0.5732
 2754SOL    HW210270   2.297   4.457   1.904 -0.4447  1.7540 -0.8382
 2755SOL     OW10271   7.476   6.216   0.416  0.1422 -0.1523 -0.3817
 2755SOL    HW110272   7.454   6.211   0.509 -0.6514 -1.4961 -0.6172
 2755SOL    HW210273   7.556   6.269   0.413 -0.3902  0.7818  0.9575
 2756SOL     OW10274   5.050   7.096   3.473 -0.5006 -1.1240 -0.3661
 2756SOL    HW110275   4.966   7.140   3.482  0.0985 -0.2620  1.3654
 2756SOL    HW210276   5.071   7.065   3.560  1.9878  0.6420 -0.2054
 2757SOL     OW10277   4.803   0.705   8.893 -0.3533  0.6627  0.3514
 2757SOL    HW110278   4.746   0.632   8.916  0.0863  0.1991  0.0161
 2757SOL    HW210279   4.798   0.709   8.797  0.2676  0.5333  0.3099
 2758SOL     OW10280   8.546   4.644  10.405 -0.1885 -0.1119 -0.1633
 2758SOL    HW110281   8.617   4.707  10.393 -0.8382  0.3816 -1.6925
 2758SOL    HW210282   8.580   4.562  10.370  0.0848 -0.2071  0.3225
 2759SOL     OW10283   1.710   2.503   9.317  0.0806 -0.2394 -0.4095
 2759SOL    HW110284   1.651   2.456   9.375 -0.8997  1.3219 -0.0765
 2759SOL    HW210285   1.747   2.436   9.260 -3.7127 -1.0964 -2.1873
 2760SOL     OW10286   7.239   6.883   3.867  0.5894 -0.4381  0.0643
 2760SOL    HW110287   7.220   6.967   3.909 -0.1414 -0.6883  0.2544
 2760SOL    HW210288   7.167   6.871   3.806  1.4002 -0.3012 -0.9456
 2761SOL     OW10289  10.311   7.435   0.440 -0.3644 -0.6023  0.5839
 2761SOL    HW110290  10.356   7.483   0.369  0.1135 -1.8391  0.0264
 2761SOL    HW210291  10.305   7.345   0.408 -0.7455 -1.0431  1.8464
 2762SOL     OW10292   1.411  10.807   3.442  0.5564 -0.0500  0.7081
 2762SOL    HW110293   1.493  10.768   3.411  0.9550 -0.0559  1.7189
 2762SOL    HW210294   1.360  10.824   3.363  1.2875 -0.6050  0.1097
 2763SOL     OW10295   3.965   5.286   9.098 -0.8379 -0.2480  0.0083
 2763SOL    HW110296   3.991   5.353   9.161 -0.9669  1.1713 -1.3855
 2763SOL    HW210297   3.928   5.216   9.152 -0.4995  0.6969  1.5356
 2764SOL     OW10298   1.494   1.913   0.683  0.4179  0.1082  0.3333
 2764SOL    HW110299   1.515   1.873   0.768  0.1919 -1.5261 -0.3480
 2764SOL    HW210300   1.578   1.950   0.654  0.5762  0.3884  1.1000
 2765SOL     OW10301   7.441   3.059   2.497 -0.0786 -0.1804  0.5713
 2765SOL    HW110302   7.477   3.076   2.584 -1.0813 -0.5214  1.0612
 2765SOL    HW210303   7.383   3.134   2.479  0.0551 -0.1547  0.2307
 2766SOL     OW10304  10.155   1.783   4.749  1.0671  0.6229  0.5058
 2766SOL    HW110305  10.152   1.756   4.657  0.8909  1.5647  0.2204
 2766SOL    HW210306  10.123   1.707   4.797  0.3579  0.4014 -0.2810
 2767SOL     OW10307   9.864   9.221   0.079  0.0538  0.7619  0.5524
 2767SOL    HW110308   9.885   9.127   0.079  0.6388  0.8630 -0.9569
 2767SOL    HW210309   9.922   9.259   0.145  1.5334  0.3805 -0.4749
 2768SOL     OW10310   8.454   0.661  10.092 -0.0414 -0.4230  0.2801
 2768SOL    HW110311   8.428   0.671  10.001  0.2555 -1.7779  0.0299
 2768SOL    HW210312   8.474   0.750  10.121  0.7377 -0.0771 -1.2292
 2769SOL     OW10313   1.977   8.879   4.941  0.1312 -0.0198 -0.4016
 2769SOL    HW110314   2.037   8.811   4.972 -1.1334 -0.7469  0.5377
 2769SOL    HW210315   1.913   8.889   5.011 -1.0534  0.4806 -1.5091
 2770SOL     OW10316   6.844   0.698   1.348  0.1509 -0.2168 -0.1480
 2770SOL    HW110317   6.906   0.732   1.283 -0.2346 -0.1896 -0.5040
 2770SOL    HW210318   6.816   0.775   1.396 -0.6716 -0.0182 -0.9119
 2771SOL     OW10319   3.781   4.814   3.950  0.2992 -1.0629  0.5402
 2771SOL    HW110320   3.839   4.755   3.902  1.0079  1.1377 -1.5134
 2771SOL    HW210321   3.693   4.791   3.920  0.7367  0.3923 -2.1904
 2772SOL     OW10322   2.021   6.128   9.111 -0.2295 -0.3646 -0.5110
 2772SOL    HW110323   1.928   6.135   9.088 -0.6416  1.5129  1.4733
 2772SOL    HW210324   2.050   6.218   9.120  1.6723 -0.9404 -0.5182
 2773SOL     OW10325   3.010   7.323   5.223 -0.0671  0.3177  0.3598
 2773SOL    HW110326   3.012   7.410   5.184  1.8041  0.1352 -0.0287
 2773SOL    HW210327   2.946   7.275   5.169 -1.0883  1.4050  0.5555
 2774SOL     OW10328   7.591   3.607   3.155 -0.4449 -0.0889 -0.0546
 2774SOL    HW110329   7.636   3.621   3.238  1.6826 -0.5679 -1.0452
 2774SOL    HW210330   7.568   3.514   3.155  1.2451 -0.5493 -0.7160
 2775SOL     OW10331   2.487   8.615   6.786  0.0911 -0.0382  0.2227
 2775SOL    HW110332   2.402   8.657   6.777 -0.1513 -0.3192  1.1022
 2775SOL    HW210333   2.496   8.560   6.708 -0.5246  0.0022  0.1207
 2776SOL     OW10334   2.072  11.062   1.271  0.0603 -0.4210  0.4102
 2776SOL    HW110335   2.135  10.991   1.281 -0.6231 -1.0335  0.4902
 2776SOL    HW210336   2.122  11.142   1.287  1.1457 -0.7779 -0.9872
 2777SOL     OW10337   5.053   9.762  10.154  0.5532  0.8990 -0.3616
 2777SOL    HW110338   5.147   9.768  10.137  0.5764 -1.9703 -1.7759
 2777SOL    HW210339   5.013   9.781  10.069 -0.1356  1.2384  0.0291
 2778SOL     OW10340   6.132   8.256   8.854  0.2912 -0.3854  0.1112
 2778SOL    HW110341   6.135   8.345   8.821  0.2786 -0.3021  0.3302
 2778SOL    HW210342   6.222   8.223   8.845  0.7799  0.3403  1.8852
 2779SOL     OW10343   4.427   3.294   0.864  0.0160  0.1005  0.8117
 2779SOL    HW110344   4.483   3.362   0.902 -0.2121  0.6684  0.1375
 2779SOL    HW210345   4.481   3.215   0.868  1.7856  1.0560 -1.8350
 2780SOL     OW10346   7.608   6.616   9.931 -0.6722  0.1439 -0.1419
 2780SOL    HW110347   7.689   6.647   9.972 -0.4147  1.1350 -1.3367
 2780SOL    HW210348   7.538   6.652   9.985 -0.3361 -1.5447  1.4839
 2781SOL     OW10349   9.525   8.544   1.158  0.3014  0.1067  0.5314
 2781SOL    HW110350   9.475   8.509   1.232 -1.8263  1.8698  0.0191
 2781SOL    HW210351   9.525   8.638   1.171 -1.6435  0.6683 -2.5387
 2782SOL     OW10352   3.481   5.866   0.376 -0.1711  0.2205 -0.3094
 2782SOL    HW110353   3.458   5.788   0.326  1.3284 -0.1756 -0.4232
 2782SOL    HW210354   3.554   5.905   0.328  1.0218  0.0690  1.2932
 2783SOL     OW10355   2.186   4.051   6.888  0.1820 -0.1489 -0.0334
 2783SOL    HW110356   2.224   4.014   6.968  0.0832  2.2387  1.1863
 2783SOL    HW210357   2.261   4.064   6.830  0.7791  1.1620  0.9761
 2784SOL     OW10358   7.025   4.939   2.089 -0.1715 -0.2580  0.0447
 2784SOL    HW110359   7.074   4.877   2.034  0.7620  0.0812  0.4617
 2784SOL    HW210360   7.039   4.908   2.178  0.2837  0.5295  0.2564
 2785SOL     OW10361   4.425   7.178   9.531  0.2689 -0.0935 -0.9142
 2785SOL    HW110362   4.342   7.155   9.489  0.0445 -3.5792  1.0459
 2785SOL    HW210363   4.424   7.274   9.535 -3.9799  0.0323 -0.4374
 2786SOL     OW10364  10.199   8.234  10.558  0.9938  0.0439 -0.0939
 2786SOL    HW110365  10.168   8.175  10.489  0.7845 -1.8610  1.5313
 2786SOL    HW210366  10.121   8.252  10.611  1.2509  1.0515 -0.0346
 2787SOL     OW10367   8.080   8.692   0.642  0.3521  0.5499 -0.0092
 2787SOL    HW110368   8.071   8.599   0.625  1.4683  0.6538 -1.4108
 2787SOL    HW210369   8.065   8.702   0.736  1.4776 -1.2200  0.4019
 2788SOL     OW10370   7.127   7.182   5.029  0.0330  0.0825  0.0639
 2788SOL    HW110371   7.208   7.185   4.978  0.0256 -1.8692 -0.1357
 2788SOL    HW210372   7.122   7.093   5.061 -1.3272  0.5644  1.2937
 2789SOL     OW10373   2.613   9.117  10.818  0.2926  0.2456 -0.1843
 2789SOL    HW110374   2.660   9.200  10.815 -0.4437  0.7650  1.4019
 2789SOL    HW210375   2.682   9.051  10.812  1.0107  0.9756 -0.2070
 2790SOL     OW10376   2.586   9.115   0.548  0.7398  0.1200  0.2724
 2790SOL    HW110377   2.641   9.166   0.607  1.1792  0.9429 -0.8032
 2790SOL    HW210378   2.496   9.142   0.569  0.8568  0.0010  0.9237
 2791SOL     OW10379   3.434   4.175   5.431 -0.5593  0.6114 -0.0953
 2791SOL    HW110380   3.525   4.152   5.452 -0.5639  0.9130  0.2709
 2791SOL    HW210381   3.408   4.111   5.365 -0.7796 -0.8598  1.3468
 2792SOL     OW10382  11.097   6.427   6.568 -0.0307  0.0358 -0.3602
 2792SOL    HW110383  11.016   6.434   6.619 -0.2567 -0.2654 -0.6667
 2792SOL    HW210384  11.078   6.359   6.503  1.4391 -2.1707  1.3729
 2793SOL     OW10385   4.144   5.130   1.151 -0.0779  1.4584 -0.2476
 2793SOL    HW110386   4.188   5.195   1.206  0.5934  0.5502  0.3022
 2793SOL    HW210387   4.184   5.139   1.065 -0.7673  2.5247 -0.4801
 2794SOL     OW10388   8.943   9.865   7.343  0.8628 -0.6642 -0.1584
 2794SOL    HW110389   8.952   9.959   7.359  0.3902 -0.7307  0.5374
 2794SOL    HW210390   8.999   9.848   7.267 -1.3185  0.6897 -2.2020
 2795SOL     OW10391   2.427   3.791   2.924 -0.3818  0.3875 -0.7430
 2795SOL    HW110392   2.503   3.777   2.867 -0.4852 -1.0856 -0.5561
 2795SOL    HW210393   2.352   3.762   2.873 -0.8990  2.2042 -1.0706
 2796SOL     OW10394   7.966   6.034   3.530  0.3095 -0.2697  0.7653
 2796SOL    HW110395   7.879   6.065   3.553  0.3606 -0.3780  1.1081
 2796SOL    HW210396   8.020   6.052   3.607  0.5115 -0.5121  0.6841
 2797SOL     OW10397   5.113   0.069   7.679  0.3973 -0.5879  0.0561
 2797SOL    HW110398   5.141   0.001   7.741  0.0352 -1.9717 -1.2160
 2797SOL    HW210399   5.172   0.058   7.604  0.1383  0.3271 -0.2862
 2798SOL     OW10400   9.093   6.596   8.443  0.1107 -0.1882 -0.0991
 2798SOL    HW110401   9.122   6.684   8.421 -0.8596  0.3336  0.6183
 2798SOL    HW210402   8.997   6.600   8.439  0.0603 -1.9100 -2.6028
 2799SOL     OW10403   1.509   0.641   3.335 -0.3218 -0.2113  0.1397
 2799SOL    HW110404   1.432   0.687   3.369 -0.4387  1.0688 -1.6965
 2799SOL    HW210405   1.583   0.683   3.378 -0.5178  0.6728 -0.3623
 2800SOL     OW10406   8.186   2.823   9.643  0.0225 -0.1492 -0.9778
 2800SOL    HW110407   8.115   2.759   9.645  2.3313 -2.9058 -0.9345
 2800SOL    HW210408   8.265   2.771   9.631  2.1398  2.7101 -0.4974
 2801SOL     OW10409   9.266   4.773   5.554  0.1017 -0.1742  0.2720
 2801SOL    HW110410   9.244   4.808   5.641 -1.5260 -0.5933  0.0571
 2801SOL    HW210411   9.207   4.818   5.495 -0.9400 -2.0972 -0.2216
 2802SOL     OW10412  10.491   2.968   1.558  0.1357 -0.3339  0.1141
 2802SOL    HW110413  10.586   2.959   1.563 -0.0222 -1.6671  1.6274
 2802SOL    HW210414  10.473   3.054   1.595  0.7177 -0.3582  0.4661
 2803SOL     OW10415   0.185   2.921   2.779  0.3192  0.2122  0.7162
 2803SOL    HW110416   0.277   2.899   2.761  0.2767 -1.0123  1.8448
 2803SOL    HW210417   0.152   2.955   2.696  1.6107  0.0430  0.1029
 2804SOL     OW10418   2.665   3.275   8.237 -0.5223  0.3039 -0.6178
 2804SOL    HW110419   2.625   3.232   8.313 -1.0935  1.5687 -0.1877
 2804SOL    HW210420   2.594   3.325   8.197 -0.0445  0.2685 -1.5462
 2805SOL     OW10421   9.139   3.115   1.338  1.1367 -0.0041 -0.5405
 2805SOL    HW110422   9.067   3.163   1.379  0.8075  1.3038 -2.5005
 2805SOL    HW210423   9.185   3.073   1.411 -0.5352  0.5981  0.9304
 2806SOL     OW10424   1.577   0.910   8.785  0.1117 -0.4678  0.5434
 2806SOL    HW110425   1.520   0.834   8.795  1.6945 -2.0773 -1.5086
 2806SOL    HW210426   1.539   0.959   8.712 -1.9887  1.9087  3.0540
 2807SOL     OW10427   7.120   8.961   9.994  0.2102  0.5809  0.5363
 2807SOL    HW110428   7.165   8.944   9.912 -1.1333  2.0136 -0.5657
 2807SOL    HW210429   7.099   8.875  10.029  0.5252 -0.0529 -0.8050
 2808SOL     OW10430   6.857  10.631   0.458  0.6809  0.0841 -0.2938
 2808SOL    HW110431   6.909  10.552   0.469 -1.1781 -1.1034  0.2806
 2808SOL    HW210432   6.825  10.626   0.368 -2.2928 -1.7467  0.7028
 2809SOL     OW10433   0.993   2.461   2.227  0.5483 -0.3451  0.1754
 2809SOL    HW110434   1.064   2.524   2.242 -0.1287  0.9156 -1.5902
 2809SOL    HW210435   1.002   2.398   2.298  3.9906 -0.7566 -0.4495
 2810SOL     OW10436   5.342   2.581   9.643 -0.7561  0.5147  0.0887
 2810SOL    HW110437   5.364   2.572   9.550  0.5030 -0.6617  0.4649
 2810SOL    HW210438   5.416   2.631   9.679  0.7277 -2.2220  1.1113
 2811SOL     OW10439   7.149  10.087   8.680 -0.3614 -0.2121 -0.5482
 2811SOL    HW110440   7.145  10.164   8.623 -0.0590  1.3416  1.3778
 2811SOL    HW210441   7.099  10.020   8.635  0.0360  0.8464 -2.6931
 2812SOL     OW10442   5.427   5.031   4.444  0.5274 -0.1471  0.1516
 2812SOL    HW110443   5.332   5.022   4.436  0.0938  0.6212  3.1524
 2812SOL    HW210444   5.449   4.984   4.525  2.4449  0.9608  0.3340
 2813SOL     OW10445   9.207   5.945   8.860  0.4844  0.3586  0.7328
 2813SOL    HW110446   9.179   5.901   8.780  0.5312 -3.0119  2.4158
 2813SOL    HW210447   9.257   6.021   8.829 -1.9787  0.9316 -2.3561
 2814SOL     OW10448   7.115   6.317   0.899 -0.0614  0.4294  0.7753
 2814SOL    HW110449   7.031   6.274   0.910 -0.7770  1.9713  1.7652
 2814SOL    HW210450   7.149   6.327   0.988  0.7540  0.5974  0.4574
 2815SOL     OW10451   3.391   4.117   0.289  0.1257 -0.0000 -0.0449
 2815SOL    HW110452   3.482   4.119   0.320 -0.0332  0.1488  0.4185
 2815SOL    HW210453   3.392   4.057   0.214  0.1707 -1.8489  1.3664
 2816SOL     OW10454  10.232  10.611   9.059 -0.0996 -0.1138  0.2259
 2816SOL    HW110455  10.316  10.647   9.031 -0.9235  2.8902  1.1755
 2816SOL    HW210456  10.227  10.634   9.152 -1.8975 -0.3200  0.2081
 2817SOL     OW10457   5.865   8.778   7.966 -0.3638  0.0412 -0.0820
 2817SOL    HW110458   5.793   8.735   7.921 -0.2221  1.6653 -1.9964
 2817SOL    HW210459   5.833   8.792   8.055 -1.3588 -1.6527 -0.1339
 2818SOL     OW10460   0.923  10.198   0.139  0.3903 -0.1885 -0.8955
 2818SOL    HW110461   0.828  10.196   0.124  0.2275 -1.0038  0.1493
 2818SOL    HW210462   0.948  10.289   0.124 -0.5182 -0.0062 -1.3742
 2819SOL     OW10463  10.051   2.473   0.463  0.1096  0.4809 -0.3409
 2819SOL    HW110464  10.019   2.560   0.440 -1.0124 -0.3415 -2.0776
 2819SOL    HW210465  10.060   2.474   0.558  0.2681  2.5231 -0.3480
 2820SOL     OW10466   7.176   0.292   0.952 -0.1109 -0.6247  0.0492
 2820SOL    HW110467   7.264   0.270   0.982  0.1463 -2.4470 -1.8318
 2820SOL    HW210468   7.119   0.230   0.996 -0.2703 -0.4193  0.1332
 2821SOL     OW10469   5.545   1.735   5.685  0.7371 -0.5525 -0.3676
 2821SOL    HW110470   5.505   1.786   5.615  0.6589 -0.0048  0.0717
 2821SOL    HW210471   5.636   1.765   5.688  0.2140  1.0369  1.2044
 2822SOL     OW10472   8.965   5.639   4.369  0.6292  0.5071  0.5247
 2822SOL    HW110473   9.019   5.633   4.448 -1.1757  0.8823  1.8536
 2822SOL    HW210474   8.961   5.549   4.336 -0.1210 -0.0207  1.9575
 2823SOL     OW10475   7.428   5.070   1.203 -0.3086  0.3000 -0.3226
 2823SOL    HW110476   7.360   5.137   1.216 -0.7126 -0.2362  0.4132
 2823SOL    HW210477   7.458   5.049   1.292 -1.1468 -1.4548 -0.4115
 2824SOL     OW10478   3.584   8.696   2.623  0.2339  0.1218 -0.0810
 2824SOL    HW110479   3.529   8.651   2.687 -0.4343  0.2254 -0.5740
 2824SOL    HW210480   3.525   8.754   2.576  0.4995 -0.6491 -1.4525
 2825SOL     OW10481   0.964   5.818   3.415 -0.4599 -0.4220  0.0644
 2825SOL    HW110482   1.009   5.790   3.495 -0.8446 -2.5232 -0.3863
 2825SOL    HW210483   1.028   5.873   3.370  1.5093 -2.7964 -0.2549
 2826SOL     OW10484   3.770   8.118   1.029  0.2607  0.0565  0.2814
 2826SOL    HW110485   3.703   8.183   1.006 -0.5004 -0.2421  1.5799
 2826SOL    HW210486   3.783   8.130   1.123  1.7133 -0.2127  0.1414
 2827SOL     OW10487   7.403   5.316   2.939 -0.4815 -0.5768 -0.2917
 2827SOL    HW110488   7.335   5.376   2.971 -0.5842 -0.7427 -0.1962
 2827SOL    HW210489   7.364   5.229   2.948 -0.7751 -0.5907 -1.5251
 2828SOL     OW10490   0.897   9.481   2.691  0.2730 -0.4820 -0.2526
 2828SOL    HW110491   0.896   9.408   2.753 -3.4162 -0.8633 -0.5722
 2828SOL    HW210492   0.901   9.440   2.605  1.2659 -0.1352 -0.3814
 2829SOL     OW10493  10.848   6.846   7.080 -0.0640 -0.4711 -0.3463
 2829SOL    HW110494  10.932   6.802   7.065 -0.5002 -0.7716 -2.1469
 2829SOL    HW210495  10.848   6.919   7.018 -0.7614  0.0841  0.2885
 2830SOL     OW10496   1.743   5.226   8.907 -0.7662 -0.0111  0.3683
 2830SOL    HW110497   1.824   5.245   8.861 -2.3654  0.1413 -2.6504
 2830SOL    HW210498   1.713   5.311   8.939  0.0277 -0.0051  1.1135
 2831SOL     OW10499   6.546   0.738   2.874  0.2721 -0.1197  0.1017
 2831SOL    HW110500   6.532   0.810   2.812 -0.5193  1.2271  1.7590
 2831SOL    HW210501   6.507   0.662   2.832 -0.0465  0.6964 -1.1372
 2832SOL     OW10502   2.492   7.964   4.928 -0.5573 -0.4142  0.5156
 2832SOL    HW110503   2.587   7.950   4.928 -0.7509 -1.8329  0.2304
 2832SOL    HW210504   2.460   7.908   4.857 -1.6650 -0.3232  0.9379
 2833SOL     OW10505   6.831   9.327  10.216 -0.1210  0.9576 -0.6225
 2833SOL    HW110506   6.924   9.317  10.199  0.4365 -2.8505  3.1222
 2833SOL    HW210507   6.822   9.416  10.250  1.9257  1.6921 -1.8171
 2834SOL     OW10508   8.676   3.178   9.286 -0.0312  0.1617 -0.0510
 2834SOL    HW110509   8.626   3.172   9.205  0.9954  0.8160 -0.7417
 2834SOL    HW210510   8.656   3.096   9.332  0.1570 -0.6754 -1.4120
 2835SOL     OW10511   0.008   9.307   6.429  0.0849 -0.0785 -0.0809
 2835SOL    HW110512   0.070   9.376   6.406 -0.4495  0.4980  0.1675
 2835SOL    HW210513  -0.047   9.346   6.497 -0.1662 -0.7830  0.1315
 2836SOL     OW10514  10.358   6.716   9.611  0.6003 -0.4409 -0.4316
 2836SOL    HW110515  10.363   6.811   9.620  0.3043 -0.5308  0.9153
 2836SOL    HW210516  10.382   6.699   9.520 -0.6788  1.0213 -1.0756
 2837SOL     OW10517   8.438   6.109   8.330  0.0241 -0.4938  0.4499
 2837SOL    HW110518   8.499   6.123   8.403  0.4488 -1.0775  0.2043
 2837SOL    HW210519   8.383   6.036   8.358 -0.7829  0.2170  0.8016
 2838SOL     OW10520   1.044   0.752   1.567  0.1509 -0.2897 -0.1401
 2838SOL    HW110521   1.080   0.676   1.612  1.2559  1.3463  1.9206
 2838SOL    HW210522   0.953   0.757   1.596  0.9380  0.9468  2.3714
 2839SOL     OW10523   7.489   3.382   2.400  0.0142  0.5516 -0.3117
 2839SOL    HW110524   7.502   3.467   2.358  1.8938  0.2475 -0.4297
 2839SOL    HW210525   7.536   3.320   2.344 -0.9633 -0.5090  0.0141
 2840SOL     OW10526   2.433   2.722   3.607 -0.2001 -0.2035  0.4701
 2840SOL    HW110527   2.449   2.806   3.563  0.2769  0.4967  1.9086
 2840SOL    HW210528   2.403   2.664   3.538 -2.3493  1.6620 -0.2706
 2841SOL     OW10529   0.854   5.996   1.725  0.0205 -0.3279  0.0416
 2841SOL    HW110530   0.812   6.064   1.778  0.6108  0.6393 -0.7104
 2841SOL    HW210531   0.920   5.958   1.782  1.1847  1.2360 -0.2038
 2842SOL     OW10532   3.324   7.161   2.367  0.0273 -0.1076  1.0692
 2842SOL    HW110533   3.396   7.160   2.304  1.8359  1.0227  2.9973
 2842SOL    HW210534   3.365   7.139   2.450 -2.2352 -1.2863  1.9385
 2843SOL     OW10535   5.237  11.002   7.824  0.0573  0.0900  0.2879
 2843SOL    HW110536   5.216  10.909   7.812  0.9454 -0.4189  2.2029
 2843SOL    HW210537   5.319  11.014   7.775 -0.4931  0.0991 -0.6595
 2844SOL     OW10538   5.460   0.852   2.384 -0.0587  0.5345 -0.3165
 2844SOL    HW110539   5.431   0.870   2.295 -1.7050 -0.7458 -0.0772
 2844SOL    HW210540   5.556   0.852   2.378 -0.0974 -1.9405 -2.6344
 2845SOL     OW10541  10.074   5.479   9.626  0.0885 -0.0233 -0.3805
 2845SOL    HW110542  10.125   5.430   9.562  0.8469 -0.2642  0.3793
 2845SOL    HW210543  10.087   5.431   9.708 -2.3013 -0.7741 -0.3580
 2846SOL     OW10544   1.307   0.997   2.903  0.5590 -0.1611  0.0629
 2846SOL    HW110545   1.299   1.032   2.992 -0.0629  0.4239 -0.2131
 2846SOL    HW210546   1.394   0.957   2.901  1.1150  0.9840  0.5316
 2847SOL     OW10547   6.262   9.813   9.315 -0.3523  0.0829 -0.3784
 2847SOL    HW110548   6.320   9.751   9.361 -1.0082  0.0928  0.4854
 2847SOL    HW210549   6.322   9.863   9.259  0.6214  0.6297  1.0794
 2848SOL     OW10550   0.865   9.909   1.396 -0.2431  0.6421 -1.4251
 2848SOL    HW110551   0.925   9.975   1.432 -0.4998  0.0382  0.1941
 2848SOL    HW210552   0.922   9.836   1.371 -0.1698  0.6257 -1.2103
 2849SOL     OW10553   3.198   4.898   7.598 -0.2714 -0.4914  0.1584
 2849SOL    HW110554   3.220   4.963   7.665 -0.0418  0.9458 -1.2580
 2849SOL    HW210555   3.268   4.905   7.533 -1.6795 -0.1954 -1.3827
 2850SOL     OW10556   7.716   1.999   7.277  0.1786 -0.0172 -0.0432
 2850SOL    HW110557   7.756   1.965   7.357  1.4516  1.0315 -0.2091
 2850SOL    HW210558   7.653   2.064   7.309  2.4323  2.2323  0.1132
 2851SOL     OW10559   3.173   2.946   1.587  0.4703 -0.0531  0.3535
 2851SOL    HW110560   3.186   2.988   1.502 -1.4750  0.6601  0.3638
 2851SOL    HW210561   3.184   3.016   1.651 -2.7854  0.6188  0.3712
 2852SOL     OW10562   4.359   3.356   7.628 -0.0349  0.9887  0.7703
 2852SOL    HW110563   4.310   3.276   7.644 -1.3032  1.3542 -0.9719
 2852SOL    HW210564   4.399   3.378   7.712 -4.4950  1.7716  2.9368
 2853SOL     OW10565  10.707   1.254   1.496  0.0539  0.0187 -0.3470
 2853SOL    HW110566  10.648   1.197   1.545 -0.9398 -1.0024 -2.5681
 2853SOL    HW210567  10.768   1.287   1.561 -1.2823 -1.0867  1.5733
 2854SOL     OW10568   1.080   7.515   4.013 -0.4650  0.0292  0.0358
 2854SOL    HW110569   1.139   7.476   4.078  0.2599  0.2329 -0.4835
 2854SOL    HW210570   1.035   7.584   4.061  0.7951  0.8464  0.0990
 2855SOL     OW10571   4.013   7.479   0.792  0.7252  0.6850  0.0408
 2855SOL    HW110572   4.070   7.506   0.864 -0.6114  0.9413  1.0332
 2855SOL    HW210573   3.975   7.561   0.760 -1.6527  0.3022  1.6244
 2856SOL     OW10574   4.308   0.570   7.271 -0.1502  0.0681  0.7725
 2856SOL    HW110575   4.324   0.536   7.182  0.8214  0.7393  0.6722
 2856SOL    HW210576   4.295   0.491   7.324  1.3554 -0.4653  0.4135
 2857SOL     OW10577   1.315   8.525   7.660 -0.4163 -0.0137 -0.3778
 2857SOL    HW110578   1.266   8.607   7.662 -1.4128 -0.6006  0.7500
 2857SOL    HW210579   1.247   8.457   7.662  0.2691 -0.9402 -3.6332
 2858SOL     OW10580   4.820   4.840   1.615  0.0201  0.8322 -0.4668
 2858SOL    HW110581   4.832   4.918   1.668  0.7232  1.4264 -1.4756
 2858SOL    HW210582   4.779   4.871   1.534  0.5099  0.1995 -0.9742
 2859SOL     OW10583   4.723   9.774   5.372  0.1192 -0.1838  0.4637
 2859SOL    HW110584   4.698   9.775   5.465 -1.2004  2.2582  0.1804
 2859SOL    HW210585   4.653   9.823   5.329  0.3348 -1.8414 -1.9718
 2860SOL     OW10586   2.386   5.374   5.900  0.0054  0.3989 -0.2174
 2860SOL    HW110587   2.450   5.322   5.852  1.1619  1.5055  0.0652
 2860SOL    HW210588   2.354   5.315   5.969 -0.4947 -0.6811 -1.3415
 2861SOL     OW10589  10.324   3.679   6.112  0.0358 -0.3152  0.4781
 2861SOL    HW110590  10.296   3.626   6.038 -0.5798  2.6165 -1.5312
 2861SOL    HW210591  10.242   3.706   6.155  0.0317  2.2009 -0.9589
 2862SOL     OW10592   0.789   3.623  10.144 -0.7294  0.2376  0.0311
 2862SOL    HW110593   0.867   3.589  10.100 -2.1140 -1.3228 -1.3669
 2862SOL    HW210594   0.720   3.619  10.078 -2.3857 -0.0212  1.6877
 2863SOL     OW10595   7.672   5.141   2.763 -0.2176  0.1860 -0.5738
 2863SOL    HW110596   7.577   5.130   2.756 -0.1192 -0.5112 -0.9309
 2863SOL    HW210597   7.686   5.236   2.755 -0.9057  0.3297 -0.1689
 2864SOL     OW10598   2.028   6.994   1.609  0.2926 -0.2103 -0.0476
 2864SOL    HW110599   2.075   7.008   1.526 -1.8498  2.9358 -0.8746
 2864SOL    HW210600   1.970   6.920   1.591 -1.1513  1.2716 -1.9577
 2865SOL     OW10601   5.473   5.862   6.116 -0.1747 -0.0165 -0.4959
 2865SOL    HW110602   5.400   5.801   6.128  1.2819 -1.7488  0.1862
 2865SOL    HW210603   5.457   5.932   6.179 -0.8531 -0.7776  0.2015
 2866SOL     OW10604  10.846   9.425  10.390 -0.4203  0.0112 -0.2990
 2866SOL    HW110605  10.798   9.497  10.349  0.5937  0.2705 -1.0902
 2866SOL    HW210606  10.867   9.366  10.317 -0.0862 -0.4090  0.1318
 2867SOL     OW10607   4.959   7.011   5.383  0.0858 -0.5727 -0.2509
 2867SOL    HW110608   4.891   6.986   5.446  1.5934  1.5245  2.4554
 2867SOL    HW210609   4.911   7.058   5.314 -1.3138  0.6448  1.4383
 2868SOL     OW10610   2.051   7.223   6.535 -0.4935 -0.0041 -0.2531
 2868SOL    HW110611   2.124   7.285   6.531 -0.5059  0.0816  0.7470
 2868SOL    HW210612   1.974   7.277   6.552 -0.5913 -0.2320  0.0410
 2869SOL     OW10613   0.104   2.642   6.462  0.1634  0.1346  0.0698
 2869SOL    HW110614   0.071   2.557   6.434  2.4277 -0.7472 -0.1473
 2869SOL    HW210615   0.118   2.691   6.380  0.3265  0.1153  0.0845
 2870SOL     OW10616   1.137  10.804   7.690  0.1602 -0.7292 -0.2372
 2870SOL    HW110617   1.140  10.852   7.608 -1.3701  0.7547  0.5042
 2870SOL    HW210618   1.054  10.757   7.687 -0.8683  0.8644  1.1928
 2871SOL     OW10619   0.335  10.685   7.364  0.3852  0.0194 -1.0479
 2871SOL    HW110620   0.428  10.703   7.378  0.2662  0.1291 -0.3763
 2871SOL    HW210621   0.312  10.622   7.433  0.6526 -2.2982 -2.9315
 2872SOL     OW10622   8.906   5.203   0.338 -0.3606  0.0364  0.5854
 2872SOL    HW110623   8.832   5.206   0.399 -0.8737 -2.4274  0.1664
 2872SOL    HW210624   8.965   5.137   0.374  1.2996  1.3645  0.4638
 2873SOL     OW10625   5.503   6.389   0.201  0.3565 -0.1232 -0.4616
 2873SOL    HW110626   5.503   6.294   0.215  2.2178  0.0808  1.3377
 2873SOL    HW210627   5.414   6.416   0.226  0.3377 -1.1944  0.7389
 2874SOL     OW10628   0.491   6.352   5.916  0.3225 -0.4423  0.3802
 2874SOL    HW110629   0.514   6.424   5.975  1.7937  0.6478 -1.4041
 2874SOL    HW210630   0.571   6.337   5.864 -0.6369 -1.8935 -0.7647
 2875SOL     OW10631  10.908   5.437   8.283  0.1432  0.6755  0.0115
 2875SOL    HW110632  10.869   5.429   8.370  1.1262  1.2143  0.5211
 2875SOL    HW210633  10.879   5.522   8.250  0.7679  1.0234  0.3410
 2876SOL     OW10634   1.738   0.835   5.873 -0.0271 -0.0976 -0.4451
 2876SOL    HW110635   1.664   0.863   5.926  0.3832  1.6923 -0.7299
 2876SOL    HW210636   1.722   0.875   5.787  1.1858  0.2118 -0.5421
 2877SOL     OW10637   8.325  10.544   4.883  0.1235 -0.0478  0.8501
 2877SOL    HW110638   8.396  10.586   4.932  2.4395 -2.0650 -0.4807
 2877SOL    HW210639   8.368  10.512   4.802 -2.2793 -1.4992  0.0458
 2878SOL     OW10640   9.365  10.281   4.475  0.3308 -0.4352 -0.1758
 2878SOL    HW110641   9.332  10.311   4.559 -0.5525  2.8918 -1.5537
 2878SOL    HW210642   9.289  10.238   4.433 -0.9173  2.5774 -1.2535
 2879SOL     OW10643   3.148   9.897   4.409  0.0030  0.4604  0.8508
 2879SOL    HW110644   3.115   9.840   4.478 -0.1573 -0.1078  0.3195
 2879SOL    HW210645   3.130   9.985   4.440 -1.1746  0.1831  0.9944
 2880SOL     OW10646   3.349   6.726   2.790  0.5909  0.2645 -0.0305
 2880SOL    HW110647   3.357   6.654   2.729  1.2044  1.2863 -1.2102
 2880SOL    HW210648   3.369   6.804   2.738  1.3764  1.1530  1.5221
 2881SOL     OW10649   8.169   2.872   6.398 -0.1927  0.0201  0.3064
 2881SOL    HW110650   8.247   2.827   6.366 -0.7454 -0.4622 -0.3864
 2881SOL    HW210651   8.201   2.955   6.432  0.4172  0.5848 -1.5724
 2882SOL     OW10652  10.000   8.228   5.881 -0.4727  0.5016 -0.2851
 2882SOL    HW110653  10.043   8.221   5.796  3.1799  2.8516  1.1672
 2882SOL    HW210654   9.974   8.320   5.888  1.6977  1.0541  2.0352
 2883SOL     OW10655   8.894   0.152   0.535  0.1320  0.1851 -0.5870
 2883SOL    HW110656   8.852   0.180   0.454  1.6635  2.3209 -0.7279
 2883SOL    HW210657   8.986   0.141   0.511  0.5594  0.5934  0.7940
 2884SOL     OW10658   5.954   1.050   2.397  0.4057 -0.1987 -0.0779
 2884SOL    HW110659   5.928   1.141   2.416 -0.5872 -0.4835  0.0067
 2884SOL    HW210660   5.971   1.011   2.483  0.5920 -0.1638 -0.0982
 2885SOL     OW10661   3.279   9.403   5.571  0.3322  0.7881 -0.8742
 2885SOL    HW110662   3.248   9.390   5.481 -1.1968  1.7639 -0.5179
 2885SOL    HW210663   3.374   9.410   5.562  0.1244  2.2675 -2.6361
 2886SOL     OW10664   7.894  10.610   1.918  0.5358  0.5839 -0.3023
 2886SOL    HW110665   7.827  10.603   1.850 -0.2779  0.6588  0.4702
 2886SOL    HW210666   7.900  10.704   1.935  0.5112  0.5374 -0.0451
 2887SOL     OW10667   3.830  10.662   1.227  0.1431  0.3067  0.0942
 2887SOL    HW110668   3.898  10.726   1.209  1.5352 -0.8851  0.9519
 2887SOL    HW210669   3.855  10.623   1.311 -1.4493 -0.3524  0.3036
 2888SOL     OW10670  10.241   5.060   6.398 -0.0385 -0.3653  0.1835
 2888SOL    HW110671  10.176   5.011   6.348  0.1191 -2.5913  1.9782
 2888SOL    HW210672  10.324   5.019   6.376  0.1510 -0.7001  1.4374
 2889SOL     OW10673   4.401   1.297  10.525 -0.3693  0.2743 -0.7449
 2889SOL    HW110674   4.490   1.331  10.537 -0.3089 -0.1069 -0.0423
 2889SOL    HW210675   4.409   1.204  10.543 -1.4745  0.6904  2.5910
 2890SOL     OW10676  10.445   3.047   3.305 -0.0533 -0.1131 -0.2121
 2890SOL    HW110677  10.425   3.027   3.396  0.3343 -0.0122 -0.1054
 2890SOL    HW210678  10.445   3.143   3.301  0.7776 -0.1065 -0.1302
 2891SOL     OW10679   3.329   8.706   5.333  0.3615 -0.1461 -0.0856
 2891SOL    HW110680   3.410   8.750   5.357 -0.3495  1.8435 -1.1059
 2891SOL    HW210681   3.295   8.672   5.415  1.2637  0.6784  0.6535
 2892SOL     OW10682   4.243   1.104  10.742 -0.1554  0.6144 -0.1809
 2892SOL    HW110683   4.186   1.027  10.745 -2.1720  1.9864 -0.8088
 2892SOL    HW210684   4.304   1.086  10.671  0.2521 -0.9204  0.5154
 2893SOL     OW10685   1.465   7.830   3.440  0.9534 -0.2233  0.1510
 2893SOL    HW110686   1.525   7.900   3.412 -0.1138  1.1116  1.0996
 2893SOL    HW210687   1.398   7.875   3.490 -1.0952 -1.6243 -1.1977
 2894SOL     OW10688   6.161   1.426   5.422  0.0232 -0.5576  0.1297
 2894SOL    HW110689   6.173   1.495   5.357  2.2021 -0.8770  0.1366
 2894SOL    HW210690   6.193   1.464   5.504 -0.1964 -1.0567  0.4526
 2895SOL     OW10691   8.714   5.711  10.105 -0.2523  0.0941 -0.1305
 2895SOL    HW110692   8.721   5.807  10.104 -0.6014  0.1721  1.9334
 2895SOL    HW210693   8.621   5.694  10.117 -0.0172 -0.4721  0.9534
 2896SOL     OW10694   1.404   0.287   6.634 -0.5380 -0.2581  0.8328
 2896SOL    HW110695   1.365   0.278   6.721  0.9773 -0.7997  1.4905
 2896SOL    HW210696   1.495   0.261   6.646 -0.6816 -1.9697 -1.2565
 2897SOL     OW10697  10.106   4.240  10.839 -0.7057 -0.2147 -0.4450
 2897SOL    HW110698  10.136   4.258  10.928 -0.9761  0.9559 -0.5732
 2897SOL    HW210699  10.105   4.144  10.832  1.0658 -0.3018  0.2025
 2898SOL     OW10700   2.032   8.028  10.854  0.2190  0.2266 -0.4664
 2898SOL    HW110701   2.031   8.035  10.758 -0.7576  0.1434 -0.4687
 2898SOL    HW210702   1.940   8.035  10.880  0.4342 -0.1362  0.4396
 2899SOL     OW10703   1.971   9.831   0.895 -0.3319  0.0063 -0.1676
 2899SOL    HW110704   1.964   9.736   0.907  0.3356  0.0965  1.0568
 2899SOL    HW210705   2.052   9.855   0.938  0.8066  0.8145 -2.5700
 2900SOL     OW10706   9.703   5.471   1.930  0.2190  0.2453  0.0231
 2900SOL    HW110707   9.726   5.561   1.954 -0.1109  0.3384 -0.0108
 2900SOL    HW210708   9.769   5.447   1.864 -0.0631  0.6779 -0.4258
 2901SOL     OW10709   1.229   3.598   5.181 -0.3547  0.1700 -0.0071
 2901SOL    HW110710   1.219   3.652   5.102 -0.0271  0.9251  0.4628
 2901SOL    HW210711   1.260   3.514   5.148  1.8134  1.1087 -0.5334
 2902SOL     OW10712  10.108   4.145   1.276 -0.2793  0.4678 -0.2735
 2902SOL    HW110713  10.184   4.169   1.329 -0.4282 -0.0609  0.1887
 2902SOL    HW210714  10.040   4.123   1.340 -0.0309 -1.5741 -0.6333
 2903SOL     OW10715   7.765   0.326   8.835 -0.0403  0.2337  0.0001
 2903SOL    HW110716   7.820   0.269   8.781 -0.1433 -0.1341  0.2821
 2903SOL    HW210717   7.707   0.266   8.882 -0.0470  0.5612  0.4144
 2904SOL     OW10718   1.575   2.147   9.976 -0.4467 -0.0673  0.0962
 2904SOL    HW110719   1.504   2.185   9.925  1.7663  0.4274 -2.9161
 2904SOL    HW210720   1.590   2.060   9.936  2.2025  0.8614 -1.2230
 2905SOL     OW10721   8.035   3.726   5.949  0.4617 -0.6249  0.7827
 2905SOL    HW110722   8.130   3.722   5.961  0.5055  0.0929  0.7174
 2905SOL    HW210723   8.006   3.793   6.010  0.1338 -0.0813  0.0441
 2906SOL     OW10724   0.788   2.772   0.460 -0.4416  0.1497  0.6247
 2906SOL    HW110725   0.774   2.807   0.372  0.6042  0.0533  0.4048
 2906SOL    HW210726   0.866   2.717   0.451 -0.7709 -0.4696  1.4512
 2907SOL     OW10727   3.317   6.831   9.142 -1.0945  0.1594 -0.3047
 2907SOL    HW110728   3.294   6.863   9.230 -1.6965  0.2171 -0.4751
 2907SOL    HW210729   3.387   6.889   9.114  1.2575 -1.7211  1.3181
 2908SOL     OW10730   7.745  10.914   4.105  0.4380 -0.1470 -0.5540
 2908SOL    HW110731   7.824  10.962   4.081 -0.3484  1.5607  0.1479
 2908SOL    HW210732   7.708  10.885   4.022  0.5190  1.1637 -1.0689
 2909SOL     OW10733   4.056   0.775   3.638  0.7183 -0.0539 -0.1004
 2909SOL    HW110734   4.101   0.767   3.722 -0.8378  0.7234  0.8488
 2909SOL    HW210735   4.124   0.762   3.573  2.0829 -0.0614  1.2793
 2910SOL     OW10736   1.084   9.473   1.928  0.0534 -0.3464 -0.2415
 2910SOL    HW110737   1.151   9.433   1.874  0.2286  0.1493 -0.3933
 2910SOL    HW210738   1.071   9.411   2.000 -1.4738 -1.9022 -1.7774
 2911SOL     OW10739   6.200   2.626   2.273  0.2178 -0.1015 -0.0084
 2911SOL    HW110740   6.151   2.607   2.193 -1.9881  3.0274  0.4282
 2911SOL    HW210741   6.274   2.680   2.243  0.1862 -0.1052 -0.0930
 2912SOL     OW10742   5.424   8.084   3.930 -0.1141 -0.6161  0.5295
 2912SOL    HW110743   5.514   8.110   3.951 -0.4468  0.7190  0.3898
 2912SOL    HW210744   5.419   8.091   3.834 -1.2049  2.3769  0.7077
 2913SOL     OW10745   3.779   6.001   7.703  0.5097 -0.5430  1.0364
 2913SOL    HW110746   3.744   6.000   7.793  2.0716 -0.9212  1.6634
 2913SOL    HW210747   3.701   6.006   7.648 -0.4797 -0.0316  2.4145
 2914SOL     OW10748   3.945   9.835   0.370 -0.0017 -0.1101 -0.6642
 2914SOL    HW110749   4.011   9.876   0.316 -1.2773  0.9938 -1.4505
 2914SOL    HW210750   3.875   9.811   0.309  0.4006 -2.9349 -0.1496
 2915SOL     OW10751   4.325   6.513   6.577  0.5110 -0.1660 -0.0242
 2915SOL    HW110752   4.251   6.462   6.609  1.7150 -0.1832  3.0612
 2915SOL    HW210753   4.402   6.462   6.602  1.6968 -0.5495 -3.8303
 2916SOL     OW10754   9.417   6.238   6.570 -0.3464 -0.4437  0.3637
 2916SOL    HW110755   9.455   6.261   6.485 -1.1425  0.5517  0.2611
 2916SOL    HW210756   9.397   6.322   6.611 -0.6384 -0.9240  1.2284
 2917SOL     OW10757   5.936   2.576   4.152  0.0521 -0.4678 -0.1390
 2917SOL    HW110758   5.882   2.642   4.108 -0.0200  0.3421  1.1106
 2917SOL    HW210759   5.883   2.550   4.228  0.7878 -0.7507  0.2835
 2918SOL     OW10760  10.414   8.008   4.029 -0.3305  1.2743 -0.1555
 2918SOL    HW110761  10.499   8.014   3.986  0.3210  0.7494  1.0246
 2918SOL    HW210762  10.351   8.026   3.959  0.7443  1.8699 -1.0074
 2919SOL     OW10763   7.118   8.604   6.179 -0.0975  0.2182 -0.0301
 2919SOL    HW110764   7.182   8.545   6.139 -0.9005  0.5393 -1.9009
 2919SOL    HW210765   7.137   8.599   6.273  1.2566 -1.3310 -0.3235
 2920SOL     OW10766   6.588   7.400   3.626 -0.1789 -0.2178  1.1523
 2920SOL    HW110767   6.672   7.437   3.654  1.7915 -2.2797 -1.4854
 2920SOL    HW210768   6.587   7.312   3.664  0.7418 -1.5979 -1.6981
 2921SOL     OW10769   1.537   9.500  11.045  0.3953 -0.4577 -0.0570
 2921SOL    HW110770   1.578   9.587  11.042 -1.3388  0.4081  0.1143
 2921SOL    HW210771   1.444   9.517  11.027 -0.5069 -1.9180  2.6845
 2922SOL     OW10772   2.593   5.426   1.127  0.3512  0.2503 -0.2996
 2922SOL    HW110773   2.596   5.521   1.115  3.3526  0.7691  2.9428
 2922SOL    HW210774   2.595   5.391   1.038  2.4359  3.2291 -1.6078
 2923SOL     OW10775  10.910   9.806   3.171  0.1728 -0.0839 -0.3965
 2923SOL    HW110776  10.958   9.838   3.095  1.6134 -0.7138  0.2056
 2923SOL    HW210777  10.882   9.717   3.146 -0.4889  0.1829 -0.6457
 2924SOL     OW10778   5.453   2.265   6.603  0.3836  0.5476  0.3556
 2924SOL    HW110779   5.408   2.199   6.550  0.1570  0.0652  1.1268
 2924SOL    HW210780   5.413   2.258   6.689  3.1870 -1.3186  1.6826
 2925SOL     OW10781   8.349   2.226   2.282  0.2398 -0.5808 -0.2743
 2925SOL    HW110782   8.356   2.223   2.377  1.8097 -0.7078 -0.3757
 2925SOL    HW210783   8.269   2.276   2.266 -0.3541 -1.0238  1.0967
 2926SOL     OW10784   3.360   3.035   7.555  0.2323  0.0510 -0.0850
 2926SOL    HW110785   3.448   3.068   7.536 -0.2052  1.8157  0.8147
 2926SOL    HW210786   3.366   2.941   7.535  1.8313  0.4324 -1.6633
 2927SOL     OW10787   9.357  10.771   8.472  0.3864 -0.1648 -0.4376
 2927SOL    HW110788   9.427  10.735   8.526 -0.3336  3.5457  3.4627
 2927SOL    HW210789   9.396  10.848   8.430 -0.4743  0.0082 -0.9592
 2928SOL     OW10790   2.489   0.243   2.723  0.0317  0.3843 -0.2623
 2928SOL    HW110791   2.558   0.201   2.774 -0.2786  0.6338  0.3736
 2928SOL    HW210792   2.456   0.313   2.780  0.4530  1.4219 -1.2335
 2929SOL     OW10793   8.502   7.781   8.981 -0.5386  0.0666  0.3569
 2929SOL    HW110794   8.531   7.828   8.903  0.3073  1.0073  1.1869
 2929SOL    HW210795   8.409   7.766   8.967 -0.1150 -1.1895 -1.4940
 2930SOL     OW10796   6.816   3.083  10.671 -0.6708  0.3753  0.3721
 2930SOL    HW110797   6.792   3.175  10.679  1.3565  0.8330  2.2259
 2930SOL    HW210798   6.854   3.061  10.756 -0.1540 -1.8916 -0.3761
 2931SOL     OW10799   0.477   0.312   9.879  0.7515 -0.0571  0.6710
 2931SOL    HW110800   0.392   0.333   9.919  0.3105  0.1396 -0.3507
 2931SOL    HW210801   0.495   0.386   9.820 -0.2520 -1.8617 -2.0839
 2932SOL     OW10802   2.252  10.376   0.500  0.2508 -0.0450  0.3251
 2932SOL    HW110803   2.246  10.305   0.438 -1.1340  1.2756 -1.1410
 2932SOL    HW210804   2.315  10.437   0.461 -0.2060  0.5339  0.4762
 2933SOL     OW10805   7.427   3.641   5.847 -0.7108  0.3067 -0.6576
 2933SOL    HW110806   7.347   3.685   5.819 -0.7380 -0.7882 -2.4296
 2933SOL    HW210807   7.464   3.699   5.914 -2.8638  0.9344  0.0858
 2934SOL     OW10808   1.164   5.866   0.798 -0.2090 -0.6153  0.9280
 2934SOL    HW110809   1.228   5.937   0.806 -0.7174 -0.2465  1.8823
 2934SOL    HW210810   1.172   5.837   0.707  0.3471  0.3399  0.6562
 2935SOL     OW10811   1.347   4.947   9.384 -0.3851 -0.0715  0.2638
 2935SOL    HW110812   1.341   4.867   9.437 -0.5942  1.8323  3.3319
 2935SOL    HW210813   1.403   4.923   9.310 -1.9489 -3.5226 -0.0000
 2936SOL     OW10814   7.509   3.141   4.612  0.0121  0.1486 -0.4376
 2936SOL    HW110815   7.500   3.055   4.652  2.7777  0.2019  0.4753
 2936SOL    HW210816   7.521   3.123   4.519  1.2342 -0.5225 -0.1646
 2937SOL     OW10817   1.619   4.661  11.081 -0.1890  0.0203 -0.8505
 2937SOL    HW110818   1.700   4.646  11.130  1.4662  1.3914 -2.9389
 2937SOL    HW210819   1.630   4.611  11.000 -1.5023  0.1418 -1.1260
 2938SOL     OW10820   6.834   6.995   2.209 -0.1659  0.0478 -0.1353
 2938SOL    HW110821   6.847   7.045   2.290 -1.3586  0.3827 -0.1337
 2938SOL    HW210822   6.906   6.933   2.208  0.1818  0.4038  0.9133
 2939SOL     OW10823   2.778  10.264   4.238  0.8341  0.5701  0.3017
 2939SOL    HW110824   2.772  10.348   4.191  0.2838 -0.4426 -1.5516
 2939SOL    HW210825   2.839  10.212   4.185  1.4418 -0.0922  1.6270
 2940SOL     OW10826  10.160   2.398   3.018  0.1768 -0.5361 -0.1647
 2940SOL    HW110827  10.195   2.470   3.071  1.1930 -0.0264 -1.4616
 2940SOL    HW210828  10.205   2.320   3.051 -0.7983 -0.5797  1.1303
 2941SOL     OW10829   3.760   1.080   6.032 -0.4154  0.3160 -0.7292
 2941SOL    HW110830   3.676   1.125   6.044  1.0322  2.5715  2.3868
 2941SOL    HW210831   3.793   1.067   6.121  2.7290 -0.0450 -1.8371
 2942SOL     OW10832  10.099   7.046   3.910  0.2560 -0.4611 -0.1974
 2942SOL    HW110833  10.191   7.060   3.930  0.3614  0.3846 -1.1944
 2942SOL    HW210834  10.052   7.096   3.977  0.5268 -0.4645 -0.0035
 2943SOL     OW10835   1.020   7.125   7.160  0.2819  0.2491 -0.1188
 2943SOL    HW110836   1.089   7.164   7.214  0.0431  0.7213 -0.1460
 2943SOL    HW210837   0.939   7.168   7.190  0.2572  1.1527 -1.4285
 2944SOL     OW10838   7.949   1.528  10.894 -0.2600  0.3024  0.1973
 2944SOL    HW110839   7.956   1.482  10.810  0.1815  0.2294  0.2710
 2944SOL    HW210840   7.973   1.462  10.959  1.2880  0.8612  0.2429
 2945SOL     OW10841   7.140  11.076   9.132  0.0253 -0.7148  0.1536
 2945SOL    HW110842   7.228  11.114   9.138 -0.3288  0.1818 -0.1435
 2945SOL    HW210843   7.097  11.125   9.061 -0.7138 -1.1291  0.3028
 2946SOL     OW10844   0.657   0.392   3.354  0.0731  0.6306 -0.1413
 2946SOL    HW110845   0.648   0.402   3.449  1.6850  1.2529 -0.0115
 2946SOL    HW210846   0.707   0.311   3.343 -1.6960 -0.4487 -0.5838
 2947SOL     OW10847   1.458   1.423   1.495 -0.3644  0.2707 -0.2316
 2947SOL    HW110848   1.463   1.504   1.546  0.1245  0.3711 -0.4336
 2947SOL    HW210849   1.372   1.388   1.515 -1.2229  1.6211 -1.3101
 2948SOL     OW10850   4.948   7.723   4.932 -0.0517  0.1628 -0.1878
 2948SOL    HW110851   4.864   7.767   4.941  0.1590  0.5699 -0.1937
 2948SOL    HW210852   4.938   7.667   4.856  0.3840  1.8211 -1.5143
 2949SOL     OW10853   6.865   2.630  10.863  0.2391  0.3573 -0.2182
 2949SOL    HW110854   6.881   2.544  10.824  1.2180  0.1943  0.5090
 2949SOL    HW210855   6.937   2.685  10.833  0.3982  0.5258  0.4448
 2950SOL     OW10856   2.444   3.921   2.363  0.3785  0.7297  0.0026
 2950SOL    HW110857   2.469   3.832   2.341 -0.5212 -0.0815  1.9803
 2950SOL    HW210858   2.512   3.951   2.424 -1.1284 -0.0083  2.1945
 2951SOL     OW10859  10.461  10.486   2.232 -0.8323 -0.3999  0.6952
 2951SOL    HW110860  10.523  10.511   2.163 -0.1739 -0.4083  1.2694
 2951SOL    HW210861  10.380  10.464   2.185 -0.3745 -0.4782 -0.0752
 2952SOL     OW10862   3.106   5.279   6.035 -0.3337 -0.1639 -0.2264
 2952SOL    HW110863   3.141   5.239   6.114 -0.0873  0.0782 -0.2121
 2952SOL    HW210864   3.015   5.301   6.058 -1.7950 -4.0605 -1.3939
 2953SOL     OW10865   5.774   2.794  11.076  0.0511  0.3193  0.4644
 2953SOL    HW110866   5.822   2.711  11.082  1.4415  1.1832  2.4089
 2953SOL    HW210867   5.757   2.818  11.166 -1.1006  1.7544 -0.1031
 2954SOL     OW10868   4.066  10.851   1.481  0.0433 -0.6103  0.0439
 2954SOL    HW110869   4.029  10.878   1.565  0.1467 -1.2868  0.3128
 2954SOL    HW210870   4.017  10.901   1.416 -1.7377 -1.8630  0.3425
 2955SOL     OW10871   3.465   7.951   8.062 -0.1664 -0.0463 -0.1334
 2955SOL    HW110872   3.371   7.960   8.078  0.3813  1.7969  3.1029
 2955SOL    HW210873   3.485   8.019   7.998 -0.6547  1.7664  1.5430
 2956SOL     OW10874   6.015  11.089   4.688 -0.8649  0.1972 -0.1383
 2956SOL    HW110875   5.957  11.014   4.702 -0.6054 -0.2681 -1.3914
 2956SOL    HW210876   5.984  11.128   4.606  0.6207 -0.1295 -0.9004
 2957SOL     OW10877   6.638   9.486   0.156  0.2222 -0.3738  0.0065
 2957SOL    HW110878   6.609   9.434   0.081 -0.2697  0.6937 -0.5621
 2957SOL    HW210879   6.728   9.456   0.172 -0.5354 -2.4596  0.6676
 2958SOL     OW10880   7.283   2.899   8.116 -0.0496 -0.6119  0.1659
 2958SOL    HW110881   7.245   2.841   8.050  0.4533 -0.1545 -0.5423
 2958SOL    HW210882   7.212   2.957   8.142 -0.2577 -0.8169  0.0569
 2959SOL     OW10883   5.925   9.098   1.307 -0.2217 -0.1753  0.4688
 2959SOL    HW110884   5.842   9.140   1.286  0.0571 -0.0764 -0.4785
 2959SOL    HW210885   5.900   9.022   1.360 -0.8809  0.0482  0.4910
 2960SOL     OW10886   0.324   9.431   4.046 -0.4588 -0.5337 -0.0227
 2960SOL    HW110887   0.300   9.512   4.090  0.1369 -0.0304 -0.5967
 2960SOL    HW210888   0.292   9.441   3.957 -0.1820 -0.8282 -0.1609
 2961SOL     OW10889   7.662   3.196   1.734 -0.2198 -0.6389  0.0609
 2961SOL    HW110890   7.630   3.248   1.808 -0.2629 -1.1048  0.3784
 2961SOL    HW210891   7.756   3.212   1.733 -0.5526  1.6220 -1.5726
 2962SOL     OW10892   1.144   3.589   5.986  0.5473  0.1136 -0.1439
 2962SOL    HW110893   1.078   3.600   5.918 -0.5516  1.5457  1.0730
 2962SOL    HW210894   1.110   3.520   6.042  0.7970 -0.1440 -0.3085
 2963SOL     OW10895   7.977   8.635   1.120 -0.6204  0.2569  0.2624
 2963SOL    HW110896   7.937   8.590   1.194 -0.2804 -1.2623 -0.4280
 2963SOL    HW210897   8.046   8.689   1.158 -1.0653  0.2182  1.1322
 2964SOL     OW10898   6.226   1.803   3.153  0.7314 -0.2654 -0.0440
 2964SOL    HW110899   6.194   1.818   3.064 -1.0660  0.0320  0.6272
 2964SOL    HW210900   6.216   1.708   3.166  3.2025 -0.7361 -0.9258
 2965SOL     OW10901  10.674   6.792   6.804  0.2728  0.1527 -0.3193
 2965SOL    HW110902  10.688   6.719   6.864 -0.5206 -0.2330 -0.5885
 2965SOL    HW210903  10.621   6.755   6.733  0.0785  0.9256 -0.5890
 2966SOL     OW10904   7.429   4.406   1.460  0.3523 -0.0660 -0.2245
 2966SOL    HW110905   7.500   4.411   1.524  0.2414  1.3234 -0.1744
 2966SOL    HW210906   7.372   4.336   1.492  1.1788 -0.5189  0.2730
 2967SOL     OW10907   5.357   8.449   1.024  0.4504 -0.3804  0.8905
 2967SOL    HW110908   5.388   8.487   1.107  1.2878 -1.3640  1.0485
 2967SOL    HW210909   5.402   8.498   0.956 -1.3601  1.4454  0.9142
 2968SOL     OW10910   1.322   4.951   0.730 -0.3071  0.0760 -0.0486
 2968SOL    HW110911   1.385   5.002   0.679  0.7098 -1.4206 -0.3249
 2968SOL    HW210912   1.242   4.952   0.677  0.4597 -0.6931 -1.2452
 2969SOL     OW10913   5.538   1.445  11.096  0.5950 -0.9847 -0.0980
 2969SOL    HW110914   5.599   1.385  11.139  1.4014 -0.3910 -0.3955
 2969SOL    HW210915   5.594   1.508  11.050 -0.2232  0.0231  0.2462
 2970SOL     OW10916   3.549   6.804   7.446  0.2564 -0.5175 -0.4333
 2970SOL    HW110917   3.504   6.722   7.466 -1.9463  0.2467 -1.9615
 2970SOL    HW210918   3.497   6.872   7.488  1.2386  0.2493 -0.4058
 2971SOL     OW10919   0.198   8.073   9.703 -0.0119 -0.6740  0.3573
 2971SOL    HW110920   0.124   8.024   9.668 -1.6353  0.8334  1.4630
 2971SOL    HW210921   0.217   8.138   9.636 -0.0553 -0.7342  0.2866
 2972SOL     OW10922  10.064   5.344   4.526 -0.5090 -0.4631 -0.5715
 2972SOL    HW110923  10.021   5.430   4.533 -1.2945 -0.8756 -0.1397
 2972SOL    HW210924  10.087   5.322   4.616  1.3159  0.0793 -0.8747
 2973SOL     OW10925   8.232   9.461   0.046  0.2059 -0.3733 -0.2961
 2973SOL    HW110926   8.203   9.549   0.069 -2.9591 -1.2793 -0.2680
 2973SOL    HW210927   8.180   9.440  -0.032 -0.5143 -2.8315  0.7620
 2974SOL     OW10928  10.768   2.745  11.018  0.4528  0.0347 -0.1236
 2974SOL    HW110929  10.809   2.812  10.964  1.2356 -1.8606 -2.0084
 2974SOL    HW210930  10.675   2.746  10.994  0.1399  1.4476  1.0204
 2975SOL     OW10931   4.700   5.671   9.111  0.2392  0.7526  0.2475
 2975SOL    HW110932   4.633   5.736   9.087 -2.1823 -0.8757  2.1273
 2975SOL    HW210933   4.663   5.588   9.083  0.4589 -0.4336  3.1810
 2976SOL     OW10934   2.409   7.814   7.576 -0.7794 -0.1462  0.4608
 2976SOL    HW110935   2.500   7.833   7.596 -1.2504  1.3171  1.3517
 2976SOL    HW210936   2.393   7.860   7.493  0.1931 -3.3194 -1.7109
 2977SOL     OW10937   1.707   4.513  10.230  0.4906  0.0614 -0.0826
 2977SOL    HW110938   1.665   4.487  10.148  1.8265  0.2563 -0.8512
 2977SOL    HW210939   1.789   4.465  10.232 -0.4552 -1.6386  2.2446
 2978SOL     OW10940   0.761   1.777   9.860  0.3818 -0.0322 -0.5365
 2978SOL    HW110941   0.721   1.835   9.795  0.1248 -1.7794 -2.0215
 2978SOL    HW210942   0.688   1.724   9.893  0.7190 -0.0033  0.2668
 2979SOL     OW10943   1.237   0.154   4.923 -0.3042 -0.2761  0.3061
 2979SOL    HW110944   1.326   0.175   4.893 -0.6359  0.0166 -0.5130
 2979SOL    HW210945   1.249   0.081   4.984  0.4954 -0.3016  0.1360
 2980SOL     OW10946   7.310   8.820   7.143 -0.5876 -0.1038  0.2819
 2980SOL    HW110947   7.377   8.802   7.208 -0.0531  2.0900  0.3985
 2980SOL    HW210948   7.257   8.890   7.181 -0.9245  0.4709 -1.1760
 2981SOL     OW10949   8.553   9.399   4.564 -0.0193  0.0150 -0.1981
 2981SOL    HW110950   8.473   9.450   4.578  1.4000  2.4285 -0.2478
 2981SOL    HW210951   8.525   9.308   4.573 -2.6927  0.7611  0.0791
 2982SOL     OW10952   1.186   5.311   2.994  0.5807  0.0474  0.6421
 2982SOL    HW110953   1.128   5.258   3.050  0.6069  1.5121  2.1409
 2982SOL    HW210954   1.274   5.281   3.015  0.4824 -1.3603 -0.7653
 2983SOL     OW10955   7.266   4.592   6.785  0.6890  0.3259 -0.6194
 2983SOL    HW110956   7.297   4.549   6.705 -1.2270 -0.3359 -1.0589
 2983SOL    HW210957   7.193   4.647   6.756  0.2208  0.3857  0.6061
 2984SOL     OW10958   1.265   8.455   8.318  0.1525 -0.1436  0.7240
 2984SOL    HW110959   1.174   8.426   8.309  0.8038 -1.8940 -0.7465
 2984SOL    HW210960   1.313   8.376   8.341  1.4425  0.5870  0.6434
 2985SOL     OW10961   1.477   1.604   9.049  0.0357  0.0443 -0.0130
 2985SOL    HW110962   1.565   1.618   9.081 -0.4730  0.7882  1.1270
 2985SOL    HW210963   1.466   1.669   8.979  0.1033  0.5367  0.4299
 2986SOL     OW10964   0.928   6.208   1.322  0.5964 -0.3647 -0.0673
 2986SOL    HW110965   0.967   6.221   1.408  1.1654 -2.2519  0.0141
 2986SOL    HW210966   0.863   6.277   1.314  0.3803 -0.2769  1.9680
 2987SOL     OW10967  10.152   0.949   6.553 -0.9331  0.6596  0.1498
 2987SOL    HW110968  10.211   0.879   6.581 -2.3587 -0.2337  1.0586
 2987SOL    HW210969  10.203   1.000   6.491  0.6746 -0.2674  0.6531
 2988SOL     OW10970  10.280   8.428   7.206 -0.4367 -0.6813 -0.3236
 2988SOL    HW110971  10.244   8.360   7.263  2.0797 -0.8106  1.2689
 2988SOL    HW210972  10.302   8.382   7.124  0.8314 -1.7722  0.5829
 2989SOL     OW10973  10.543   3.428   3.474 -0.2291  0.8099  0.2705
 2989SOL    HW110974  10.588   3.509   3.448  1.5526 -0.7033 -1.7437
 2989SOL    HW210975  10.520   3.386   3.391 -1.0869 -0.7839  1.2600
 2990SOL     OW10976   5.659   5.044   0.250 -0.3225  0.0973 -0.6865
 2990SOL    HW110977   5.753   5.030   0.240 -0.3623  0.6947 -1.9863
 2990SOL    HW210978   5.651   5.132   0.286 -0.3962  0.1737 -0.8895
 2991SOL     OW10979   7.247   2.046   6.326 -0.1768  0.3193 -0.1946
 2991SOL    HW110980   7.165   2.047   6.276  0.7751  0.3503 -1.8254
 2991SOL    HW210981   7.259   1.955   6.351 -0.4198  0.2140 -0.4565
 2992SOL     OW10982   1.474   8.688   8.930 -0.1865  0.7811 -0.6045
 2992SOL    HW110983   1.462   8.722   8.841 -0.2338  1.3942 -0.3747
 2992SOL    HW210984   1.546   8.626   8.923 -1.1346 -0.2796 -1.3392
 2993SOL     OW10985   1.916   2.239   2.980  0.3908 -0.4966  0.6842
 2993SOL    HW110986   2.012   2.236   2.973  0.4314 -0.3848  1.1583
 2993SOL    HW210987   1.885   2.207   2.895  0.8395  1.0083 -0.0691
 2994SOL     OW10988   8.118   7.149  10.830  0.0168 -0.2999 -0.2293
 2994SOL    HW110989   8.171   7.223  10.862  1.4633 -0.9673 -0.9679
 2994SOL    HW210990   8.028   7.182  10.829  0.5528  1.2527  0.0446
 2995SOL     OW10991   4.795   7.628   1.614 -0.8039  0.7084 -0.3319
 2995SOL    HW110992   4.809   7.658   1.704  0.7744  0.2767 -0.4114
 2995SOL    HW210993   4.702   7.643   1.598 -1.1473  0.6458  1.4284
 2996SOL     OW10994   6.996   2.195   5.049 -0.2350 -0.5626  0.1512
 2996SOL    HW110995   7.048   2.211   4.970 -1.8532 -0.5724 -0.9673
 2996SOL    HW210996   7.024   2.263   5.110  0.5436 -0.1076 -0.6781
 2997SOL     OW10997  10.468  11.066   3.091 -0.2613 -0.5039  0.4025
 2997SOL    HW110998  10.459  10.989   3.036  1.2080 -0.6768  0.3639
 2997SOL    HW210999  10.385  11.113   3.081 -0.0724 -0.5677 -1.8759
 2998SOL     OW11000   4.759   1.128   0.951  0.0345  0.2361  0.0492
 2998SOL    HW111001   4.694   1.193   0.927  0.2719  0.0420 -1.1855
 2998SOL    HW211002   4.816   1.172   1.013 -0.4064  0.8779  0.0025
 2999SOL     OW11003   1.523   1.779   6.787  0.1886 -0.4777 -0.3992
 2999SOL    HW111004   1.578   1.732   6.723 -0.7615 -2.8383  0.3969
 2999SOL    HW211005   1.532   1.871   6.763  2.3429 -0.9982 -1.9610
 3000SOL     OW11006   7.441   9.681   7.506 -0.5965 -0.0248 -0.2961
 3000SOL    HW111007   7.392   9.731   7.572  2.3331  1.6632  0.8026
 3000SOL    HW211008   7.493   9.619   7.558  0.3859  0.0418 -1.1861
 3001SOL     OW11009   7.109   5.981   8.403 -0.0554 -0.9103  0.6800
 3001SOL    HW111010   7.172   5.950   8.468  0.4010 -0.8404  0.2849
 3001SOL    HW211011   7.149   6.060   8.367 -0.6935 -0.4879  0.8965
 3002SOL     OW11012   5.968   6.922   4.336  0.0405  0.0004 -0.1863
 3002SOL    HW111013   5.989   6.831   4.314  0.9563 -0.0215  0.7193
 3002SOL    HW211014   6.013   6.974   4.270  2.1200 -0.0956  1.0845
 3003SOL     OW11015   0.305   2.748   8.317  0.6308  0.0275 -0.4989
 3003SOL    HW111016   0.249   2.754   8.395  0.8974 -1.1036 -0.1968
 3003SOL    HW211017   0.394   2.746   8.352  0.7169 -1.4097 -0.7487
 3004SOL     OW11018   1.104   6.990   2.552 -0.2444 -0.2074  0.6727
 3004SOL    HW111019   1.042   7.057   2.523  2.4073  2.2182  0.1492
 3004SOL    HW211020   1.105   6.997   2.647 -0.2320  0.2703  0.6386
 3005SOL     OW11021   1.501   3.029   6.070 -0.2124  0.5308 -0.2732
 3005SOL    HW111022   1.428   2.977   6.104  0.5371  0.6226  1.6016
 3005SOL    HW211023   1.474   3.120   6.082  0.1450  0.5639  0.3613
 3006SOL     OW11024   3.842   7.223   3.886 -0.6436  0.2531 -1.4466
 3006SOL    HW111025   3.841   7.202   3.792 -0.2666 -0.5314 -1.2814
 3006SOL    HW211026   3.810   7.144   3.928  0.2581  0.2013 -0.8383
 3007SOL     OW11027   6.109   8.495   8.368 -0.1612  0.4681  0.4267
 3007SOL    HW111028   6.049   8.548   8.421 -0.5015 -0.3693  0.9024
 3007SOL    HW211029   6.191   8.545   8.367 -0.2826  0.7064  1.3840
 3008SOL     OW11030   1.247   2.668   5.572  0.5195 -0.0770 -0.0763
 3008SOL    HW111031   1.284   2.580   5.576  1.5681  0.3567  0.1192
 3008SOL    HW211032   1.153   2.655   5.587  0.7750 -1.0762  0.8672
 3009SOL     OW11033   8.065   7.575   7.470 -0.3913 -0.1858 -0.0053
 3009SOL    HW111034   8.019   7.573   7.555  2.2325 -0.6671  1.5060
 3009SOL    HW211035   8.087   7.484   7.453 -1.0801 -0.1137 -1.3558
 3010SOL     OW11036   8.593   2.844   3.766 -0.1849  0.1555  0.4356
 3010SOL    HW111037   8.680   2.812   3.744 -0.6956 -0.3479 -0.9915
 3010SOL    HW211038   8.580   2.919   3.708 -0.8721 -0.0524  0.3104
 3011SOL     OW11039   9.047   2.538   0.983  0.5096  0.2408 -0.4427
 3011SOL    HW111040   9.089   2.472   0.928  1.1227 -0.7962  1.2013
 3011SOL    HW211041   9.070   2.514   1.073  0.7594  2.7122  0.2371
 3012SOL     OW11042   0.321   7.416   0.134  0.2831 -0.6131  0.3349
 3012SOL    HW111043   0.286   7.476   0.200 -0.2578 -2.0151  1.3660
 3012SOL    HW211044   0.293   7.453   0.050 -0.4584  0.3031  0.9703
 3013SOL     OW11045   9.172   8.439   2.716  0.3877  0.2549  0.3729
 3013SOL    HW111046   9.079   8.425   2.734 -0.0052  0.4721 -1.3449
 3013SOL    HW211047   9.215   8.363   2.756 -0.7367 -0.9457 -0.5900
 3014SOL     OW11048   7.023   6.354  10.668 -0.9482 -0.3960 -0.7492
 3014SOL    HW111049   7.005   6.373  10.576  0.5628 -1.4687 -1.3042
 3014SOL    HW211050   7.082   6.279  10.666  0.9232  0.9055  0.9775
 3015SOL     OW11051   8.769   4.895   2.199  0.4584  0.2538  0.3540
 3015SOL    HW111052   8.778   4.830   2.129  1.3699  0.8953 -0.1487
 3015SOL    HW211053   8.728   4.971   2.156 -2.4401 -0.5958  1.3497
 3016SOL     OW11054   7.669   8.293   3.913  0.7219 -0.2551  0.5657
 3016SOL    HW111055   7.741   8.230   3.913  1.6545  0.7705  0.7447
 3016SOL    HW211056   7.607   8.259   3.849  3.1845  0.7822 -2.6384
 3017SOL     OW11057   2.779  11.009   0.766  0.0292  0.1207  0.4204
 3017SOL    HW111058   2.781  10.965   0.681  2.6279 -0.3136  0.6148
 3017SOL    HW211059   2.806  10.942   0.828  1.0102  1.1655  1.1656
 3018SOL     OW11060   9.805   6.595   5.582 -0.1927 -0.1573 -0.0644
 3018SOL    HW111061   9.812   6.691   5.589 -1.5621 -0.0856  0.6908
 3018SOL    HW211062   9.711   6.578   5.580 -0.0024 -1.3672 -2.3867
 3019SOL     OW11063   4.483   1.939   5.914  0.4704 -0.1507 -0.4457
 3019SOL    HW111064   4.481   1.865   5.853  1.3628 -0.9770  0.4791
 3019SOL    HW211065   4.552   1.916   5.976 -0.3772  0.6897  0.8420
 3020SOL     OW11066   3.197   0.523   9.063 -0.3994  0.2353 -0.8856
 3020SOL    HW111067   3.283   0.564   9.057 -1.0119  1.8630  0.6069
 3020SOL    HW211068   3.214   0.429   9.057  1.4646  0.5333 -0.6996
 3021SOL     OW11069   6.470   0.855   1.034 -0.3761 -0.4047 -0.2328
 3021SOL    HW111070   6.540   0.872   0.970  0.3042 -0.5444  0.4552
 3021SOL    HW211071   6.409   0.797   0.988 -0.2650  0.0715 -0.9911
 3022SOL     OW11072   2.808   4.078   9.558 -0.1037 -0.3678 -0.4034
 3022SOL    HW111073   2.755   4.026   9.498  0.1097 -0.7317 -0.2806
 3022SOL    HW211074   2.857   4.014   9.609  0.3370 -0.0422 -0.4095
 3023SOL     OW11075   2.783   3.942   3.513 -0.1723  0.6190  0.6780
 3023SOL    HW111076   2.753   3.852   3.496 -0.5628  0.9230 -0.2909
 3023SOL    HW211077   2.879   3.935   3.517 -0.1143  0.3605 -0.7248
 3024SOL     OW11078   6.428   2.346   2.166 -0.3275  0.9667 -0.0329
 3024SOL    HW111079   6.478   2.337   2.248 -0.3210 -1.1416 -0.2053
 3024SOL    HW211080   6.377   2.425   2.178  0.9213  1.6278  1.3311
 3025SOL     OW11081   9.520   4.170   6.452 -0.2819 -0.0269  0.0655
 3025SOL    HW111082   9.590   4.212   6.502 -0.7125 -1.7537  2.2670
 3025SOL    HW211083   9.449   4.235   6.450 -0.0046  0.3153  1.1060
 3026SOL     OW11084   0.745   4.774   8.072 -0.0459  1.0556 -0.3128
 3026SOL    HW111085   0.802   4.713   8.118 -1.2141  0.2732  0.1372
 3026SOL    HW211086   0.771   4.766   7.980 -1.1323 -1.2614 -0.4975
 3027SOL     OW11087  10.397  10.630   3.876  0.4138  0.1255  0.4026
 3027SOL    HW111088  10.450  10.599   3.950 -2.0279 -0.6877  1.9250
 3027SOL    HW211089  10.424  10.721   3.864  2.9404 -0.5386  0.2996
 3028SOL     OW11090   0.046  10.009   6.415  0.1176  0.3451 -0.6297
 3028SOL    HW111091   0.011  10.092   6.448 -1.0130 -0.1701 -0.4515
 3028SOL    HW211092   0.103   9.978   6.485 -1.3186 -0.1551  0.3768
 3029SOL     OW11093  10.991   5.964   0.775  0.6730  0.3247 -0.9866
 3029SOL    HW111094  10.992   5.988   0.683  0.3416  1.4392 -0.7133
 3029SOL    HW211095  10.994   6.047   0.822 -1.0199 -0.1129  0.0082
 3030SOL     OW11096   1.621   2.864   5.286 -0.2954 -0.2218  0.0633
 3030SOL    HW111097   1.580   2.806   5.222 -0.0006 -0.6548  0.2627
 3030SOL    HW211098   1.568   2.851   5.365 -0.6424  0.2918 -0.0808
 3031SOL     OW11099   5.039   7.308   9.739 -0.1128  0.7707 -0.4425
 3031SOL    HW111100   4.965   7.368   9.742 -0.6046  0.1987 -0.7879
 3031SOL    HW211101   5.004   7.230   9.696 -0.0568 -0.5380  1.7488
 3032SOL     OW11102   5.535   6.797   8.322 -0.0761 -0.2379 -0.5354
 3032SOL    HW111103   5.605   6.852   8.355  0.2769  1.0326 -3.1235
 3032SOL    HW211104   5.539   6.807   8.227 -4.5669  0.9750 -0.8413
 3033SOL     OW11105  10.392   7.777   5.717 -0.1556 -0.1685  0.6269
 3033SOL    HW111106  10.345   7.757   5.636  1.7931 -0.1843 -0.5756
 3033SOL    HW211107  10.363   7.865   5.740 -1.0479 -0.3238  0.1651
 3034SOL     OW11108   7.828   2.546   5.076 -0.4149  0.9385 -0.6878
 3034SOL    HW111109   7.886   2.538   5.152 -1.1054 -0.9399 -0.2968
 3034SOL    HW211110   7.868   2.489   5.010 -2.4696 -1.5784  0.0865
 3035SOL     OW11111   8.077   5.400   2.127  0.4710 -0.1111  0.0334
 3035SOL    HW111112   8.071   5.489   2.091 -0.5266 -0.2381 -0.1646
 3035SOL    HW211113   8.079   5.344   2.049 -0.7078 -0.3396  0.1509
 3036SOL     OW11114   1.870   9.039   9.531 -0.1492  0.1999 -0.1876
 3036SOL    HW111115   1.872   9.053   9.625  2.1786 -1.5306  0.0937
 3036SOL    HW211116   1.960   9.057   9.502 -1.0398  1.6894 -2.2756
 3037SOL     OW11117   0.385   7.066   8.659 -0.0630 -0.8092 -0.0310
 3037SOL    HW111118   0.428   6.983   8.638 -0.8602 -0.8075 -1.7497
 3037SOL    HW211119   0.312   7.041   8.716  1.2031 -0.9766  1.5946
 3038SOL     OW11120   9.955   5.085   8.636  0.3344  0.2736 -0.2534
 3038SOL    HW111121  10.028   5.049   8.688 -0.0103  1.1232  0.8452
 3038SOL    HW211122   9.951   5.177   8.660 -1.5208  0.1115  0.2208
 3039SOL     OW11123   1.252   2.243   0.070 -0.6435  0.1198 -0.8572
 3039SOL    HW111124   1.265   2.264   0.162  1.0043  0.0501 -1.0438
 3039SOL    HW211125   1.210   2.321   0.033 -0.4583  0.5219 -0.2366
 3040SOL     OW11126   1.431   7.596   3.318 -0.1460  0.2168  0.1676
 3040SOL    HW111127   1.431   7.684   3.355  2.1204  1.0653 -1.6123
 3040SOL    HW211128   1.395   7.607   3.230  1.3495 -0.3474 -0.5524
 3041SOL     OW11129  10.297   3.422   9.342 -0.4380 -0.9247 -0.2612
 3041SOL    HW111130  10.352   3.446   9.416 -3.1407  0.1071  1.5825
 3041SOL    HW211131  10.241   3.498   9.328 -0.8954 -1.6150 -2.5366
 3042SOL     OW11132   4.525   4.925   7.464  0.4679 -0.2215  0.2122
 3042SOL    HW111133   4.597   4.914   7.527 -0.2593  0.1724  1.1550
 3042SOL    HW211134   4.471   4.995   7.502  2.0628  2.9180 -2.7864
 3043SOL     OW11135   0.241   0.320   4.430  0.4935 -0.1408  0.8916
 3043SOL    HW111136   0.217   0.410   4.406  1.6256 -0.7821 -3.5623
 3043SOL    HW211137   0.336   0.319   4.426  0.4702 -1.6781  0.1689
 3044SOL     OW11138   1.406  10.016   9.132  0.4050  0.3066 -0.1684
 3044SOL    HW111139   1.370   9.930   9.154  2.4313 -0.0372  2.2511
 3044SOL    HW211140   1.457  10.001   9.052 -1.9000  0.0964 -1.7076
 3045SOL     OW11141   5.628   3.783   3.582 -0.7768  0.4762  0.3126
 3045SOL    HW111142   5.667   3.864   3.548  0.3466 -0.3383 -0.4023
 3045SOL    HW211143   5.622   3.726   3.506 -0.5776 -0.4867  1.0020
 3046SOL     OW11144   1.577   1.774   5.204  0.2518 -0.2385 -0.0321
 3046SOL    HW111145   1.610   1.853   5.248 -2.9427 -1.1337  4.8024
 3046SOL    HW211146   1.601   1.702   5.262 -2.3098 -1.9261 -0.8694
 3047SOL     OW11147   3.253   1.709   9.330 -0.5366  0.7393  0.2197
 3047SOL    HW111148   3.184   1.766   9.297  0.5057  1.3339 -1.0543
 3047SOL    HW211149   3.334   1.747   9.294  0.3089 -0.7972  0.4253
 3048SOL     OW11150   0.153   1.108  10.999 -0.0674 -0.1955 -0.3354
 3048SOL    HW111151   0.191   1.047  11.063  1.0767  1.0487  0.2332
 3048SOL    HW211152   0.162   1.063  10.915 -2.6259 -2.3507  0.4194
 3049SOL     OW11153   2.160   8.152   6.039 -0.1909 -0.0406 -0.6099
 3049SOL    HW111154   2.092   8.087   6.057 -0.9294  0.9467  0.3202
 3049SOL    HW211155   2.136   8.190   5.954  0.8964 -1.7306 -1.7463
 3050SOL     OW11156   6.875   9.420   7.781 -0.3780  0.5230 -0.1063
 3050SOL    HW111157   6.933   9.454   7.850  1.6225  1.2620 -2.0187
 3050SOL    HW211158   6.793   9.468   7.793  0.2596  1.3812  1.1128
 3051SOL     OW11159   4.400   4.648  10.280 -0.2580  0.2777 -0.2179
 3051SOL    HW111160   4.321   4.693  10.252 -0.5844 -2.0201 -3.4756
 3051SOL    HW211161   4.374   4.556  10.287  2.1567 -0.6202 -1.8720
 3052SOL     OW11162   2.864   5.394   0.676 -0.4350  0.0665  0.7210
 3052SOL    HW111163   2.869   5.463   0.743 -1.6690  2.5557 -1.5688
 3052SOL    HW211164   2.772   5.392   0.651  0.1567  0.0872 -1.6919
 3053SOL     OW11165   3.223   0.441  11.049 -0.2526 -0.4946 -0.2512
 3053SOL    HW111166   3.317   0.428  11.035 -0.2593 -0.6861 -0.1330
 3053SOL    HW211167   3.184   0.355  11.029 -0.3636 -0.5113  0.0372
 3054SOL     OW11168  11.070   5.825   2.280  0.1127  0.5176 -0.8990
 3054SOL    HW111169  10.984   5.784   2.272  0.1296  0.1536  0.4694
 3054SOL    HW211170  11.116   5.771   2.344  2.0840 -0.4382 -2.9987
 3055SOL     OW11171   7.046   2.216  10.495  0.1779 -0.2859  0.1198
 3055SOL    HW111172   7.000   2.292  10.460  0.2746 -0.6003 -0.7125
 3055SOL    HW211173   7.010   2.141  10.446  0.1679 -0.7597  0.8389
 3056SOL     OW11174   0.869   9.791   3.009  0.5514  0.5458  0.0928
 3056SOL    HW111175   0.834   9.804   3.097  0.9607 -1.5832  0.6128
 3056SOL    HW211176   0.865   9.878   2.968 -1.3295  1.2001  1.5728
 3057SOL     OW11177   7.734   8.459   9.865  0.4273  0.2169  0.3717
 3057SOL    HW111178   7.771   8.412   9.940 -0.1918  1.5497  1.5637
 3057SOL    HW211179   7.705   8.390   9.805  1.7744 -0.8734  0.9209
 3058SOL     OW11180   8.824   6.709  10.631  0.2473  0.3420  0.1193
 3058SOL    HW111181   8.830   6.618  10.604  2.7717  0.9087 -1.5875
 3058SOL    HW211182   8.750   6.745  10.581  1.2904 -0.0255 -1.7713
 3059SOL     OW11183   0.689   0.285   7.767  0.3831  0.0671  0.0923
 3059SOL    HW111184   0.688   0.298   7.672 -0.1571  1.5974  0.2868
 3059SOL    HW211185   0.666   0.193   7.779  1.3458 -0.3823 -1.2847
 3060SOL     OW11186   8.646   9.046   3.164  0.6535  0.0865  0.0592
 3060SOL    HW111187   8.635   9.126   3.113  0.6582 -0.2830 -0.5222
 3060SOL    HW211188   8.610   9.068   3.250 -1.0519  0.1240 -0.6364
 3061SOL     OW11189   5.458   2.767   3.794 -0.0777 -0.2714  0.3084
 3061SOL    HW111190   5.473   2.730   3.881  3.7135 -2.0931 -0.8707
 3061SOL    HW211191   5.546   2.792   3.764 -1.6880  4.4956 -1.3838
 3062SOL     OW11192   7.345   4.596   8.305 -0.1558 -0.1671 -0.8032
 3062SOL    HW111193   7.349   4.512   8.260  0.9641 -0.1453 -0.7732
 3062SOL    HW211194   7.355   4.661   8.236 -1.2464 -0.0421 -0.8543
 3063SOL     OW11195  10.303   5.075   0.664 -0.3161  0.1038 -0.3505
 3063SOL    HW111196  10.349   5.105   0.586 -0.4999  1.4149  0.0248
 3063SOL    HW211197  10.350   4.995   0.690 -0.7152 -0.7977 -2.1998
 3064SOL     OW11198   6.070   1.624   9.754 -0.4183  0.0659  0.1691
 3064SOL    HW111199   6.062   1.564   9.828 -0.3612  0.1165  0.2154
 3064SOL    HW211200   6.164   1.633   9.740 -0.3513  1.7351  1.4575
 3065SOL     OW11201   1.583   8.014   7.681 -0.0572  0.1341 -0.6433
 3065SOL    HW111202   1.510   8.074   7.694 -0.1890  0.5879 -3.0611
 3065SOL    HW211203   1.580   7.956   7.757 -1.7339  1.3278  0.2710
 3066SOL     OW11204   6.103   0.335   7.717 -0.4321 -0.0264 -0.2931
 3066SOL    HW111205   6.173   0.273   7.698  0.0031  0.9935 -2.2152
 3066SOL    HW211206   6.045   0.330   7.640 -2.3010 -0.5695  1.0646
 3067SOL     OW11207   2.060   6.482   2.772 -0.5242 -0.2257 -0.2912
 3067SOL    HW111208   2.076   6.417   2.704 -0.2026 -0.4077 -0.0497
 3067SOL    HW211209   1.992   6.539   2.737 -1.1401 -0.9633 -0.3188
 3068SOL     OW11210   5.133   8.759   2.860 -0.4399  0.0142  0.0112
 3068SOL    HW111211   5.186   8.798   2.929 -1.1170 -0.8218  1.0285
 3068SOL    HW211212   5.196   8.739   2.790  0.0921  1.7674 -0.0415
 3069SOL     OW11213   1.719   6.250  10.979  0.0264 -0.0758 -0.3288
 3069SOL    HW111214   1.747   6.234  10.889 -0.8968  0.9616 -0.8318
 3069SOL    HW211215   1.741   6.342  10.994 -1.1483  0.1685 -0.0161
 3070SOL     OW11216   3.760   8.815   8.356  0.4605 -0.1149 -0.1270
 3070SOL    HW111217   3.851   8.844   8.350  1.0045 -1.7086 -0.1000
 3070SOL    HW211218   3.745   8.801   8.449 -0.1111  0.9645 -0.0389
 3071SOL     OW11219   5.406   6.370   8.917 -0.1932  0.0604 -0.5106
 3071SOL    HW111220   5.319   6.409   8.907  0.3905  1.5760  0.0371
 3071SOL    HW211221   5.390   6.289   8.966 -1.3908 -0.2054 -1.2945
 3072SOL     OW11222   9.154   2.312   9.048 -0.2946  0.3784 -0.2016
 3072SOL    HW111223   9.080   2.316   8.987  0.0306  1.5387 -0.5398
 3072SOL    HW211224   9.229   2.341   8.997  0.1587  0.4517  0.4908
 3073SOL     OW11225   1.393   3.303   8.176  0.0069 -0.2029  0.5529
 3073SOL    HW111226   1.344   3.222   8.165 -1.1198  0.5887 -0.4474
 3073SOL    HW211227   1.432   3.319   8.090  0.2665  0.2970  0.7611
 3074SOL     OW11228   8.239   8.105   4.875  0.4612 -0.9004  0.4392
 3074SOL    HW111229   8.171   8.039   4.861 -0.9341  0.6071 -0.1744
 3074SOL    HW211230   8.231   8.128   4.968  0.3187 -0.9284  0.4340
 3075SOL     OW11231   1.299   5.843   5.308 -0.4643 -0.2232 -0.1046
 3075SOL    HW111232   1.208   5.830   5.335 -2.0836  0.6704 -4.3322
 3075SOL    HW211233   1.296   5.914   5.244  2.8280 -1.5191 -2.0163
 3076SOL     OW11234   0.458   7.635   3.308  0.0104 -0.1656  0.2780
 3076SOL    HW111235   0.416   7.552   3.332 -0.2345 -0.4788 -1.1405
 3076SOL    HW211236   0.407   7.666   3.233  2.2023 -0.4980 -1.4421
 3077SOL     OW11237   9.316   9.752   1.758 -0.2386  0.3091 -0.2400
 3077SOL    HW111238   9.346   9.839   1.783  1.5307 -0.1019 -0.7635
 3077SOL    HW211239   9.397   9.703   1.741 -1.2239 -1.0064 -1.3880
 3078SOL     OW11240   2.684   8.989   2.024  0.5258  0.2294  0.2156
 3078SOL    HW111241   2.641   8.906   2.046 -1.1874  0.8247 -0.7445
 3078SOL    HW211242   2.764   8.963   1.979  0.0256 -0.8975 -0.0577
 3079SOL     OW11243   9.014  10.493   9.604  0.4577 -0.4651 -0.0382
 3079SOL    HW111244   9.004  10.429   9.675  0.6123  0.4399  0.8168
 3079SOL    HW211245   9.106  10.488   9.580  0.8305  0.5470  1.1182
 3080SOL     OW11246   4.592   0.977   3.200 -0.8445 -0.3087  0.5912
 3080SOL    HW111247   4.525   0.966   3.267 -1.5850  0.7761  0.0447
 3080SOL    HW211248   4.560   0.927   3.125 -2.1384  1.8866 -0.4130
 3081SOL     OW11249   0.109   8.784   6.253  0.2078  0.3328  0.5631
 3081SOL    HW111250   0.058   8.863   6.270 -0.6517 -0.1732  0.4149
 3081SOL    HW211251   0.119   8.782   6.158 -0.6323 -0.2402  0.4735
 3082SOL     OW11252   7.028   0.353   2.684  0.2464 -0.5656  0.3699
 3082SOL    HW111253   7.079   0.389   2.611  1.2671 -1.1462  0.7715
 3082SOL    HW211254   7.082   0.368   2.761 -0.6696 -0.2706  0.9629
 3083SOL     OW11255   9.147   7.220   1.020  0.1206  0.1007 -0.6993
 3083SOL    HW111256   9.119   7.266   1.099  1.0614 -1.8073  0.8088
 3083SOL    HW211257   9.237   7.249   1.006 -0.2502  0.9326 -1.5009
 3084SOL     OW11258   8.128   1.496   0.267 -0.2161  0.5422  0.2198
 3084SOL    HW111259   8.170   1.577   0.238  0.2310  0.5356  0.8256
 3084SOL    HW211260   8.038   1.522   0.285 -0.4765  0.5717 -1.0202
 3085SOL     OW11261   1.588   2.966   9.681 -0.5776 -0.3305  0.4085
 3085SOL    HW111262   1.596   2.979   9.587 -0.8558  0.8770  0.5371
 3085SOL    HW211263   1.576   3.054   9.717 -1.6384 -0.8692  1.4572
 3086SOL     OW11264   4.920  10.111   1.070 -0.1870  0.3681 -0.0737
 3086SOL    HW111265   4.846  10.092   1.127 -0.5193  0.1375 -0.5694
 3086SOL    HW211266   4.968  10.028   1.063  0.8763  0.8312  1.2904
 3087SOL     OW11267   6.894   2.162   7.641 -0.1956  0.0134 -0.3312
 3087SOL    HW111268   6.803   2.147   7.667 -0.2329  0.8392  0.0640
 3087SOL    HW211269   6.901   2.257   7.632  0.5737 -0.0571 -0.5607
 3088SOL     OW11270   0.042   3.666   8.862 -0.5541 -0.1153 -0.3104
 3088SOL    HW111271   0.106   3.634   8.799 -0.0856 -1.2308  0.7071
 3088SOL    HW211272  -0.001   3.739   8.817  0.4312 -0.2630 -1.5434
 3089SOL     OW11273   7.731   7.973   1.583  0.0692  0.1767  0.3431
 3089SOL    HW111274   7.671   7.907   1.618 -1.1996  0.0015 -1.9665
 3089SOL    HW211275   7.690   8.057   1.603 -1.3011  0.0508 -1.5973
 3090SOL     OW11276   3.207   4.356   1.776  0.9070  0.4357 -0.3263
 3090SOL    HW111277   3.178   4.406   1.700  0.0489 -0.2436 -0.4636
 3090SOL    HW211278   3.141   4.287   1.786  1.6433 -0.1959  0.3207
 3091SOL     OW11279   8.418   2.833   0.499 -0.1824 -0.2008  0.0090
 3091SOL    HW111280   8.396   2.837   0.592 -0.8603  1.4281 -0.1979
 3091SOL    HW211281   8.514   2.833   0.496 -0.1578  0.3246  0.6968
 3092SOL     OW11282   6.146   7.612   0.454  0.3011  0.3869  1.3155
 3092SOL    HW111283   6.203   7.680   0.488  2.0362 -1.1071  1.5101
 3092SOL    HW211284   6.204   7.541   0.427 -1.2518 -0.1055 -1.1508
 3093SOL     OW11285   8.216   4.320   5.343 -0.5910 -0.2286 -0.1139
 3093SOL    HW111286   8.253   4.397   5.299 -1.6194  1.2892  1.5117
 3093SOL    HW211287   8.291   4.264   5.362  0.1773  0.3133 -1.4035
 3094SOL     OW11288   4.701   3.572   3.527 -0.2927 -0.0193  0.2425
 3094SOL    HW111289   4.654   3.530   3.455 -0.2294  1.9641 -1.0378
 3094SOL    HW211290   4.632   3.605   3.585 -0.5532  1.7558 -0.9729
 3095SOL     OW11291   1.363   3.961   1.456  0.1407 -0.3689 -0.2583
 3095SOL    HW111292   1.424   4.028   1.485 -1.6460  1.4004 -0.3954
 3095SOL    HW211293   1.350   3.979   1.363  0.4254 -1.5938 -0.5601
 3096SOL     OW11294   7.399   3.858   9.880  0.3532 -0.1367  0.6274
 3096SOL    HW111295   7.305   3.873   9.874  0.5723  0.9326 -4.6692
 3096SOL    HW211296   7.411   3.767   9.853  0.8763 -0.4795  1.9314
 3097SOL     OW11297   1.478  11.010   7.452  0.2223 -0.5797  0.4091
 3097SOL    HW111298   1.505  10.961   7.375  1.7261  0.4793  0.2164
 3097SOL    HW211299   1.494  10.951   7.526  0.9856 -0.7765  0.0932
 3098SOL     OW11300   0.955   7.023   0.262 -0.1581 -0.1826  0.3106
 3098SOL    HW111301   0.927   7.061   0.179 -0.0938 -0.0505  0.3482
 3098SOL    HW211302   0.879   6.974   0.294 -0.0262 -0.6375 -0.0633
 3099SOL     OW11303   1.378   4.554   6.598  0.4896 -0.2155 -0.4051
 3099SOL    HW111304   1.368   4.475   6.652 -2.0902 -0.5631 -1.2443
 3099SOL    HW211305   1.328   4.621   6.644  0.6088  0.2389 -0.9333
 3100SOL     OW11306   7.675   1.180   4.981  0.2755 -0.2510 -0.0693
 3100SOL    HW111307   7.740   1.110   4.986 -0.2349 -0.7489 -0.3775
 3100SOL    HW211308   7.657   1.189   4.887 -1.1463 -1.0857  0.1075
 3101SOL     OW11309  10.428   4.162   2.872  0.5296  0.0852  0.1245
 3101SOL    HW111310  10.448   4.083   2.823 -1.4174  0.6448 -1.6919
 3101SOL    HW211311  10.363   4.134   2.937  2.8524 -0.5786  2.3832
 3102SOL     OW11312   9.797   3.278  10.736  0.3953 -0.1916  0.1727
 3102SOL    HW111313   9.735   3.307  10.803  1.0008  0.0674  0.6352
 3102SOL    HW211314   9.746   3.273  10.656 -0.9021 -2.5387  1.0294
 3103SOL     OW11315   0.501   6.336   6.886  0.2848 -0.0290  0.5578
 3103SOL    HW111316   0.510   6.312   6.979 -1.8746  0.5793  0.9854
 3103SOL    HW211317   0.408   6.357   6.876 -0.0709 -2.3081 -2.2879
 3104SOL     OW11318   0.475   8.543   5.705  0.6010 -0.2326 -0.0790
 3104SOL    HW111319   0.569   8.544   5.724  0.7330  2.0658 -0.5085
 3104SOL    HW211320   0.469   8.508   5.616  1.1065  0.0108 -0.2141
 3105SOL     OW11321   4.725   7.847   7.804 -0.7112 -0.9712  0.8613
 3105SOL    HW111322   4.815   7.821   7.784 -0.4583 -0.4131  1.2570
 3105SOL    HW211323   4.697   7.896   7.727  0.5077  1.7988  2.0310
 3106SOL     OW11324   1.286  10.908   2.090 -0.1460  0.1594 -0.4062
 3106SOL    HW111325   1.215  10.931   2.031 -1.1786  0.3434  0.8625
 3106SOL    HW211326   1.361  10.890   2.033 -1.1491  0.1748 -1.7534
 3107SOL     OW11327   6.459   6.019  10.079  0.5847 -0.0145 -0.3647
 3107SOL    HW111328   6.475   6.088  10.015  2.0542 -0.9896 -1.1012
 3107SOL    HW211329   6.539   6.018  10.132  0.1881 -0.5394  0.2282
 3108SOL     OW11330   4.778   1.169  10.175  0.3651 -0.5614 -0.0122
 3108SOL    HW111331   4.740   1.087  10.204 -0.0412 -1.0031 -1.6603
 3108SOL    HW211332   4.856   1.143  10.126  1.2191  0.1610  0.9282
 3109SOL     OW11333   9.988   0.165   3.409  0.8595 -0.3951  0.6011
 3109SOL    HW111334  10.077   0.148   3.442  1.1718  0.3438  0.1570
 3109SOL    HW211335   9.936   0.093   3.444  1.5721 -0.6722  1.1262
 3110SOL     OW11336   9.653   0.103   1.902 -0.2525  0.2181 -0.1358
 3110SOL    HW111337   9.565   0.137   1.886 -1.4412 -3.2597 -2.2200
 3110SOL    HW211338   9.638   0.019   1.946  2.3286  1.1513  2.8759
 3111SOL     OW11339   8.455   0.306   5.559  0.0471 -0.1026 -0.3547
 3111SOL    HW111340   8.384   0.296   5.496 -0.8615  1.5448  0.3515
 3111SOL    HW211341   8.480   0.398   5.553  2.4080 -0.7023 -0.8424
 3112SOL     OW11342   1.042   9.493   6.258  0.3403  0.7443 -0.5514
 3112SOL    HW111343   1.008   9.434   6.325 -0.3077  1.3276 -0.3507
 3112SOL    HW211344   1.131   9.515   6.287  0.3336  0.4040 -0.2741
 3113SOL     OW11345   8.763   9.477   5.238 -0.3431 -0.1788  0.3494
 3113SOL    HW111346   8.749   9.564   5.274  0.0870  0.9875 -2.1245
 3113SOL    HW211347   8.855   9.476   5.211 -1.0029 -0.3392 -2.1316
 3114SOL     OW11348   6.030   5.872  10.638  0.2264  0.2211 -0.0162
 3114SOL    HW111349   6.029   5.968  10.633  1.7133  0.2946  0.7434
 3114SOL    HW211350   6.094   5.846  10.572 -2.1767 -0.4798 -2.2984
 3115SOL     OW11351   8.649   9.411   0.724 -0.7054 -0.5148  0.1348
 3115SOL    HW111352   8.663   9.361   0.805  1.2459  0.1371  0.2609
 3115SOL    HW211353   8.608   9.493   0.754 -0.1166 -0.3335  0.4737
 3116SOL     OW11354   6.142   0.526   3.906 -0.1875  0.6379  0.4133
 3116SOL    HW111355   6.145   0.620   3.922 -1.2506  0.8523 -0.5312
 3116SOL    HW211356   6.049   0.507   3.892  0.0879 -0.4354 -0.0744
 3117SOL     OW11357   9.963   0.113   4.736  0.0889 -0.0256  0.2548
 3117SOL    HW111358   9.894   0.054   4.767  0.7816 -2.1373 -1.9247
 3117SOL    HW211359   9.924   0.200   4.742 -1.3078 -0.7029  2.7510
 3118SOL     OW11360   4.919   3.145   2.240  0.4629  0.0130  0.5317
 3118SOL    HW111361   4.927   3.054   2.269  1.1905 -0.2252 -0.3462
 3118SOL    HW211362   4.846   3.144   2.179  1.2543 -0.2702 -0.4488
 3119SOL     OW11363  10.732   8.133   1.708 -0.9238 -0.4274 -0.2459
 3119SOL    HW111364  10.779   8.098   1.632 -1.0371  0.6502 -0.8308
 3119SOL    HW211365  10.649   8.085   1.708 -1.6297  0.7003 -1.8224
 3120SOL     OW11366   1.686  11.067   3.813 -0.3666 -0.2818 -0.0177
 3120SOL    HW111367   1.778  11.047   3.831 -0.5239 -1.0286  0.0234
 3120SOL    HW211368   1.644  11.069   3.899 -0.7594 -1.9783 -0.1217
 3121SOL     OW11369  10.032   2.832   1.547  0.4846 -0.5064 -0.2292
 3121SOL    HW111370   9.942   2.860   1.531  1.2457  0.9804 -2.2987
 3121SOL    HW211371  10.025   2.737   1.559 -1.2465 -0.5916 -1.5038
 3122SOL     OW11372   6.296   0.461   1.985 -0.0332  0.5155  0.3117
 3122SOL    HW111373   6.383   0.501   1.985  0.3790 -0.3560 -0.6318
 3122SOL    HW211374   6.252   0.501   2.060  1.0582  1.2184  0.6035
 3123SOL     OW11375   0.723   1.811   3.486  0.0467 -0.0468 -0.2863
 3123SOL    HW111376   0.770   1.800   3.569 -0.2189 -1.3086 -0.2898
 3123SOL    HW211377   0.708   1.905   3.479  1.3540  0.2353  0.3894
 3124SOL     OW11378   4.056   6.501   8.873 -0.0785  0.5234  0.1205
 3124SOL    HW111379   3.963   6.505   8.894 -0.5526  2.1351 -2.0026
 3124SOL    HW211380   4.061   6.518   8.779  2.2045 -2.0697 -0.3780
 3125SOL     OW11381   7.944   7.360   1.133  0.6141  0.2800 -1.1857
 3125SOL    HW111382   7.972   7.439   1.088 -2.3955  1.1953 -1.6382
 3125SOL    HW211383   7.983   7.368   1.221 -2.5604  4.3415  0.1640
 3126SOL     OW11384   0.774   1.332   2.565 -0.0061 -0.5140 -0.6003
 3126SOL    HW111385   0.789   1.279   2.487 -0.4423 -2.3578  0.5079
 3126SOL    HW211386   0.813   1.282   2.636  0.9326  1.4342  0.3062
 3127SOL     OW11387   5.573   8.619   2.927 -0.1947  0.5000 -0.2746
 3127SOL    HW111388   5.591   8.692   2.868 -0.0956 -0.1794 -1.1101
 3127SOL    HW211389   5.633   8.550   2.900 -3.1703 -1.4875 -2.5041
 3128SOL     OW11390   7.054   5.147   3.581  0.2462 -0.2337 -0.3218
 3128SOL    HW111391   6.989   5.201   3.537  0.0144  0.9661  1.3613
 3128SOL    HW211392   7.115   5.121   3.512 -0.8316  0.3976 -1.5590
 3129SOL     OW11393   4.902  10.117   4.459 -1.3774 -0.0322 -0.7450
 3129SOL    HW111394   4.942  10.182   4.402 -1.9128  0.8611 -0.1372
 3129SOL    HW211395   4.887  10.041   4.402 -1.0890  0.5089 -1.5632
 3130SOL     OW11396   7.334   7.215   6.876 -0.0491  0.4774 -0.4997
 3130SOL    HW111397   7.315   7.127   6.910 -1.4805  0.9372 -0.0149
 3130SOL    HW211398   7.354   7.267   6.954 -0.9166  0.9660 -0.5872
 3131SOL     OW11399   6.018   3.615   6.804  0.3181  0.4253 -0.1795
 3131SOL    HW111400   6.059   3.628   6.718 -0.5611  1.1173 -0.5057
 3131SOL    HW211401   6.092   3.611   6.865  0.8860  2.2115 -0.6860
 3132SOL     OW11402   8.506   7.168   2.681 -0.2905 -0.3140 -0.0431
 3132SOL    HW111403   8.588   7.176   2.633 -1.0393 -0.4403 -1.3897
 3132SOL    HW211404   8.446   7.127   2.619 -2.1182  2.1078 -0.0325
 3133SOL     OW11405   3.628   0.609   4.493  0.2935 -0.3528 -0.0941
 3133SOL    HW111406   3.673   0.672   4.437 -0.0081 -0.7154 -0.7536
 3133SOL    HW211407   3.695   0.544   4.516  0.4334 -0.1667  0.0249
 3134SOL     OW11408   4.111   2.091   1.137  0.8890 -0.3803 -0.3786
 3134SOL    HW111409   4.107   2.151   1.211  1.7255 -0.2759 -0.4085
 3134SOL    HW211410   4.203   2.092   1.109  0.7683 -1.0976 -0.8557
 3135SOL     OW11411   1.584   2.297   2.660 -0.1213  0.4440  0.2872
 3135SOL    HW111412   1.677   2.282   2.679  0.2515  0.7925 -1.1496
 3135SOL    HW211413   1.541   2.217   2.690  0.4457  0.7820  2.1317
 3136SOL     OW11414   8.784   6.512  10.339  0.0853  0.2436  0.0471
 3136SOL    HW111415   8.854   6.495  10.402  0.8263  1.2638 -0.4776
 3136SOL    HW211416   8.758   6.426  10.308 -0.0628 -0.2613  1.4869
 3137SOL     OW11417   1.438   4.093  10.777 -0.3181  0.5411  0.1782
 3137SOL    HW111418   1.508   4.062  10.720  0.4773 -1.9471  2.2861
 3137SOL    HW211419   1.360   4.047  10.746  0.4120 -2.0370  1.8758
 3138SOL     OW11420   1.370   4.662   3.704  0.1330 -0.1179 -0.4156
 3138SOL    HW111421   1.349   4.684   3.613  0.1320 -0.0888 -0.4080
 3138SOL    HW211422   1.420   4.737   3.736 -0.4000  0.1532 -0.1973
 3139SOL     OW11423   4.593  10.439   3.697  0.4561  0.2788  0.9410
 3139SOL    HW111424   4.616  10.371   3.634  1.4345  0.6339  0.8922
 3139SOL    HW211425   4.500  10.423   3.717  1.0101 -2.0152  2.0862
 3140SOL     OW11426   5.838   1.432   4.626  0.1712 -0.2780 -0.2521
 3140SOL    HW111427   5.839   1.457   4.534 -2.5797 -1.0180 -0.5506
 3140SOL    HW211428   5.901   1.361   4.633  1.0001  0.3221 -1.3600
 3141SOL     OW11429   6.708   2.022   6.113  0.3613 -0.5622 -0.2112
 3141SOL    HW111430   6.638   2.068   6.158  0.6146  0.0862 -0.4730
 3141SOL    HW211431   6.708   2.058   6.024 -0.7576 -2.4757 -1.0606
 3142SOL     OW11432   8.426   1.549   6.449  0.1158 -0.2082 -0.2239
 3142SOL    HW111433   8.492   1.482   6.467  0.4757  0.0568 -0.5287
 3142SOL    HW211434   8.453   1.587   6.365  0.6965  1.2304  0.5817
 3143SOL     OW11435   0.728   1.997   1.191  1.0424 -0.3524  0.0549
 3143SOL    HW111436   0.681   1.919   1.218  0.5207  0.0894  0.4510
 3143SOL    HW211437   0.721   1.997   1.095  1.2341 -0.9014  0.0405
 3144SOL     OW11438   0.681   7.368   9.048 -0.3764  0.0684 -0.4976
 3144SOL    HW111439   0.740   7.338   9.117 -1.8371 -0.8354  0.4277
 3144SOL    HW211440   0.736   7.416   8.988  1.3573 -1.0201  0.1481
 3145SOL     OW11441   1.818   9.958   3.536  0.1788 -0.5542 -0.0106
 3145SOL    HW111442   1.733   9.958   3.492  0.0980 -0.9236  0.1472
 3145SOL    HW211443   1.860   9.877   3.507  2.3857  1.6359 -3.7863
 3146SOL     OW11444   3.172  10.464   3.692  0.4665  0.2894  0.3500
 3146SOL    HW111445   3.200  10.550   3.662  0.4649  0.7405  1.5724
 3146SOL    HW211446   3.243  10.405   3.667  0.5740  0.6847 -0.2890
 3147SOL     OW11447   8.719   0.776   8.989 -0.4148  0.1804  0.0929
 3147SOL    HW111448   8.624   0.780   8.977 -0.4455  0.9609  0.5033
 3147SOL    HW211449   8.755   0.782   8.900 -0.7633 -1.1242 -0.1474
 3148SOL     OW11450   0.982   0.550   7.120 -0.0183  0.0387 -0.4412
 3148SOL    HW111451   1.032   0.602   7.058  0.4431 -0.6080 -0.6228
 3148SOL    HW211452   1.040   0.477   7.143 -0.6193 -0.3571 -0.1405
 3149SOL     OW11453   8.947  11.078   3.551 -0.2049 -0.1675  0.1206
 3149SOL    HW111454   8.885  11.101   3.482 -0.9180 -1.5458  0.2411
 3149SOL    HW211455   8.891  11.056   3.626  0.2295 -3.1849 -0.2878
 3150SOL     OW11456   1.733   5.878   4.267 -0.5863  0.2643  0.0202
 3150SOL    HW111457   1.644   5.871   4.234 -0.3669  0.9472 -0.7464
 3150SOL    HW211458   1.740   5.968   4.299 -0.4073 -0.0158  0.8037
 3151SOL     OW11459   3.204   9.553   2.461  0.4501  0.7426  0.4243
 3151SOL    HW111460   3.122   9.505   2.454  0.8039  0.2734 -0.7296
 3151SOL    HW211461   3.263   9.510   2.398  1.8702  0.4937  1.8513
 3152SOL     OW11462   2.222   3.662   8.738 -0.3303  0.0578  0.6505
 3152SOL    HW111463   2.218   3.692   8.647 -0.8661  0.7259  0.8917
 3152SOL    HW211464   2.304   3.698   8.772 -1.6508  2.5730  1.3767
 3153SOL     OW11465   5.658   8.113  10.787 -0.0741 -0.4911 -0.6782
 3153SOL    HW111466   5.685   8.021  10.788 -0.5712 -0.6527 -1.4059
 3153SOL    HW211467   5.599   8.121  10.862  0.6620 -0.5420 -0.0866
 3154SOL     OW11468   3.019   3.243  10.923 -0.1210 -0.5753  0.4477
 3154SOL    HW111469   3.086   3.192  10.970  1.3443  0.4970 -0.3618
 3154SOL    HW211470   3.052   3.249  10.834 -0.9646  0.5781  0.1955
 3155SOL     OW11471   1.012   6.730   6.844 -0.1347 -0.4377 -0.5892
 3155SOL    HW111472   1.070   6.768   6.778 -0.0190  1.8407  0.7396
 3155SOL    HW211473   1.064   6.731   6.925 -1.9098  1.6232  0.6297
 3156SOL     OW11474   5.314   2.268   7.585 -0.1289  1.0861 -0.1892
 3156SOL    HW111475   5.303   2.218   7.666  0.7573  2.3867  0.7805
 3156SOL    HW211476   5.359   2.208   7.526  0.2507  0.4839  0.6890
 3157SOL     OW11477   4.174   7.779   2.374  0.5022 -0.0297  0.2101
 3157SOL    HW111478   4.269   7.783   2.389  0.5502 -1.5445  0.4777
 3157SOL    HW211479   4.164   7.722   2.297 -0.2324 -0.8664  0.9030
 3158SOL     OW11480   7.370   9.994   2.535 -0.4831 -0.3417  0.4850
 3158SOL    HW111481   7.383   9.900   2.522  2.0773 -0.1340  1.0833
 3158SOL    HW211482   7.457  10.028   2.554 -1.6685  1.7721  2.7489
 3159SOL     OW11483   8.441   2.592   1.212  0.1400 -0.2248  0.3237
 3159SOL    HW111484   8.498   2.624   1.142 -0.3793  1.9107  0.8193
 3159SOL    HW211485   8.356   2.579   1.169 -0.7300  2.9926  0.8265
 3160SOL     OW11486   4.686   5.329   2.679 -0.1374 -0.6183  0.1765
 3160SOL    HW111487   4.606   5.306   2.726 -0.5384  2.3415  1.1635
 3160SOL    HW211488   4.658   5.390   2.612  1.1741 -0.3652 -0.1701
 3161SOL     OW11489   5.710   2.135   8.885 -0.5693  0.4819  0.1476
 3161SOL    HW111490   5.675   2.062   8.936 -0.0634 -0.5929 -1.0026
 3161SOL    HW211491   5.687   2.115   8.795  0.4003  1.2819 -0.2979
 3162SOL     OW11492   9.945   1.082   4.322 -0.3972 -0.3619  0.0290
 3162SOL    HW111493   9.971   1.125   4.403 -2.0185 -1.0179  0.9371
 3162SOL    HW211494  10.011   1.111   4.258  0.2301  1.1208  1.2683
 3163SOL     OW11495   4.689   1.309   1.648  0.8856  0.0865  0.1613
 3163SOL    HW111496   4.743   1.326   1.725  3.2068 -2.0043 -0.8439
 3163SOL    HW211497   4.660   1.218   1.658 -1.8349  0.8614  0.2107
 3164SOL     OW11498   2.219   2.588   3.290 -0.6248  0.5777 -0.0905
 3164SOL    HW111499   2.291   2.646   3.264 -1.1633  0.7328 -1.2546
 3164SOL    HW211500   2.257   2.534   3.360  1.0377 -0.2659 -1.5827
 3165SOL     OW11501   0.436   0.703   1.568 -0.3626  0.2583  0.3721
 3165SOL    HW111502   0.507   0.685   1.507  0.2442  0.2877  1.0548
 3165SOL    HW211503   0.414   0.795   1.554 -0.3884  0.1978  0.0292
 3166SOL     OW11504   0.734   7.399   6.642  0.1392  0.1617 -0.7129
 3166SOL    HW111505   0.824   7.431   6.646 -0.5174  2.0069  0.9713
 3166SOL    HW211506   0.690   7.460   6.581 -0.3713  0.4256 -0.0861
 3167SOL     OW11507   9.745   3.560   1.120  0.3078 -0.1342  0.1762
 3167SOL    HW111508   9.690   3.510   1.059 -0.7322  1.8432 -0.6180
 3167SOL    HW211509   9.816   3.594   1.066  0.5268 -0.0755  0.5026
 3168SOL     OW11510   4.618   2.125   5.569  0.1032 -0.2462  0.7775
 3168SOL    HW111511   4.688   2.173   5.612  0.0339  0.5308  0.0445
 3168SOL    HW211512   4.649   2.034   5.567  1.1461  0.1092  0.3376
 3169SOL     OW11513   1.967   1.920   7.048 -0.0381  0.4897 -0.1756
 3169SOL    HW111514   2.055   1.928   7.012  0.3249 -1.1561  0.2447
 3169SOL    HW211515   1.934   1.837   7.012 -0.7883  0.2840  0.9344
 3170SOL     OW11516   1.583   7.356   3.346  0.0210  0.2204 -0.3336
 3170SOL    HW111517   1.496   7.381   3.379  0.3082  1.1748 -0.2832
 3170SOL    HW211518   1.618   7.436   3.308  0.8212 -0.2010 -0.4944
 3171SOL     OW11519   3.315   1.198   6.206 -1.0753 -0.0719 -0.2112
 3171SOL    HW111520   3.245   1.194   6.272 -0.7479  0.0442  0.1499
 3171SOL    HW211521   3.347   1.108   6.200 -0.3118  0.1248  0.6680
 3172SOL     OW11522  10.194   1.874   8.793  0.6855 -0.6748  0.5355
 3172SOL    HW111523  10.112   1.831   8.771  0.3936 -0.1653  0.5950
 3172SOL    HW211524  10.251   1.804   8.826  0.0919 -0.9460  0.9922
 3173SOL     OW11525  10.769   1.599   9.762  0.7809 -0.3316 -0.4990
 3173SOL    HW111526  10.727   1.672   9.807  1.5793  0.3203 -0.8053
 3173SOL    HW211527  10.696   1.545   9.731  0.2021 -0.1289  0.4768
 3174SOL     OW11528   4.301  10.507   9.902 -0.0708 -0.1408 -0.0817
 3174SOL    HW111529   4.251  10.526   9.823 -0.2383 -0.3167 -0.0179
 3174SOL    HW211530   4.343  10.590   9.924  0.2522 -0.1751 -0.5499
 3175SOL     OW11531  10.371   7.784   9.607  0.1939  0.2204  0.4618
 3175SOL    HW111532  10.401   7.855   9.549  0.2617  0.9208  1.3315
 3175SOL    HW211533  10.300   7.743   9.558  0.1994  0.8410 -0.0978
 3176SOL     OW11534   4.670   4.821   0.990 -0.3194  0.0001  0.0727
 3176SOL    HW111535   4.627   4.743   0.954  0.3820 -0.0400 -0.7032
 3176SOL    HW211536   4.638   4.893   0.936  0.1207  0.0509 -0.1256
 3177SOL     OW11537   3.429   0.192   6.774 -0.0403  0.6083  0.2888
 3177SOL    HW111538   3.511   0.241   6.773 -1.1446  2.5584  1.0574
 3177SOL    HW211539   3.420   0.163   6.865  0.4887 -0.9031 -0.1090
 3178SOL     OW11540   9.405   3.758   0.686 -0.3387 -0.4916 -0.1295
 3178SOL    HW111541   9.356   3.744   0.605  0.4899  0.1861 -0.7749
 3178SOL    HW211542   9.433   3.850   0.682 -2.1773  0.2563  2.0137
 3179SOL     OW11543  10.777   1.821   4.981  0.8640  0.1953 -0.9259
 3179SOL    HW111544  10.862   1.855   5.008 -0.2124  2.0284  0.3413
 3179SOL    HW211545  10.719   1.896   4.983 -1.5599 -1.5442  1.5386
 3180SOL     OW11546   0.594   6.678   7.226 -0.3939 -0.0175  0.3617
 3180SOL    HW111547   0.585   6.667   7.132  0.9985  0.6618  0.1229
 3180SOL    HW211548   0.688   6.689   7.241 -0.2057 -3.0382  2.1881
 3181SOL     OW11549   2.753   9.553   2.962 -0.4970 -0.6340 -0.8702
 3181SOL    HW111550   2.801   9.588   3.038 -1.9500 -0.7748  0.1399
 3181SOL    HW211551   2.815   9.561   2.890  0.6836  0.1636  0.1826
 3182SOL     OW11552   8.098   6.350   6.476  0.4486  0.4141 -0.0656
 3182SOL    HW111553   8.179   6.301   6.464  0.4787  0.4763 -0.1146
 3182SOL    HW211554   8.034   6.284   6.503  0.5062  0.3590 -0.0633
 3183SOL     OW11555   7.750   5.620  10.891  0.1674  0.8447 -0.2018
 3183SOL    HW111556   7.706   5.560  10.830 -0.8616  0.5949  0.7512
 3183SOL    HW211557   7.789   5.687  10.835  0.0154  0.1348 -1.1891
 3184SOL     OW11558   2.494  10.690   9.458 -0.1656 -0.6051  0.0314
 3184SOL    HW111559   2.509  10.737   9.540 -2.6072  0.4624 -0.0537
 3184SOL    HW211560   2.470  10.601   9.484  0.8484 -0.7969  0.3562
 3185SOL     OW11561   9.886   0.575   3.250 -0.1579 -0.1154  0.1131
 3185SOL    HW111562   9.954   0.635   3.220  0.5041 -1.0576 -0.3530
 3185SOL    HW211563   9.904   0.494   3.202 -2.3887 -0.0130 -0.9934
 3186SOL     OW11564   3.725   1.490   3.952  0.1256  0.3328  0.4111
 3186SOL    HW111565   3.819   1.477   3.960  0.3246 -0.0129 -1.8257
 3186SOL    HW211566   3.715   1.584   3.936  0.3225  0.0958 -1.3366
 3187SOL     OW11567   5.582   7.968   3.124 -0.1308 -0.3163 -0.4062
 3187SOL    HW111568   5.637   8.008   3.057  0.1331  0.4282  0.2345
 3187SOL    HW211569   5.501   8.020   3.122  0.4416  0.7052  0.8453
 3188SOL     OW11570   2.551   9.061   0.058  0.7521 -0.3382  0.1205
 3188SOL    HW111571   2.573   9.112  -0.020 -2.0644  0.2202 -0.3924
 3188SOL    HW211572   2.545   9.126   0.128  3.0509 -0.8113  0.8410
 3189SOL     OW11573   0.404   8.442   3.508 -0.3459  0.1851  0.0846
 3189SOL    HW111574   0.324   8.453   3.456 -0.6472  2.3323  0.9056
 3189SOL    HW211575   0.382   8.477   3.594  1.3507  0.3621  0.4770
 3190SOL     OW11576   3.386   9.926   4.690 -0.2947  0.2750 -0.0733
 3190SOL    HW111577   3.303   9.892   4.725 -0.5095  1.6453  0.8517
 3190SOL    HW211578   3.428   9.968   4.765 -0.3926  2.6451 -1.2632
 3191SOL     OW11579   9.193   0.349   7.661  0.2192 -0.5906 -0.0270
 3191SOL    HW111580   9.252   0.298   7.716  1.0186  0.4758  0.1445
 3191SOL    HW211581   9.221   0.330   7.572  1.4508  0.5883  0.0758
 3192SOL     OW11582  10.331  10.364   6.618  0.2195 -0.0301  0.4628
 3192SOL    HW111583  10.251  10.312   6.626  0.8550 -1.1197 -0.0677
 3192SOL    HW211584  10.313  10.424   6.545 -1.5346  2.4697  2.7669
 3193SOL     OW11585   2.861   8.112   2.555 -0.2473  0.3247 -0.5130
 3193SOL    HW111586   2.943   8.068   2.578 -0.0195  1.5971  1.4236
 3193SOL    HW211587   2.815   8.122   2.639 -2.4341 -0.3844 -1.5474
 3194SOL     OW11588   3.941   2.729  10.873  0.1678 -0.1007  0.3854
 3194SOL    HW111589   3.957   2.670  10.946  0.2222  0.4574  0.8307
 3194SOL    HW211590   3.965   2.678  10.795  1.0831 -0.3614  0.8247
 3195SOL     OW11591   1.150   7.194   0.386 -0.6094  0.1277  0.0301
 3195SOL    HW111592   1.175   7.119   0.441  0.2030  2.6201  3.4388
 3195SOL    HW211593   1.080   7.161   0.330  0.7258 -3.5140  0.2645
 3196SOL     OW11594   5.511   2.550   6.548 -0.1850 -0.3333  0.1980
 3196SOL    HW111595   5.521   2.501   6.467  0.8071 -1.4935  0.9774
 3196SOL    HW211596   5.444   2.502   6.597 -0.4844  0.1213  0.2408
 3197SOL     OW11597   9.155   5.648   8.197 -0.0913  0.3145  0.3645
 3197SOL    HW111598   9.070   5.620   8.232  0.5560 -2.3382 -0.0211
 3197SOL    HW211599   9.153   5.624   8.105  0.8936  0.6849  0.2319
 3198SOL     OW11600  10.566   0.192   2.587 -0.3407 -0.3376  0.4617
 3198SOL    HW111601  10.570   0.153   2.674 -2.4108 -0.9493  0.3318
 3198SOL    HW211602  10.618   0.134   2.532 -0.2080 -0.7550  1.0246
 3199SOL     OW11603   4.641   2.562   8.020  0.6865  0.3256 -0.5382
 3199SOL    HW111604   4.696   2.567   7.941  0.5066 -0.5151 -0.7190
 3199SOL    HW211605   4.656   2.474   8.054 -1.4768 -0.3964 -1.2931
 3200SOL     OW11606  10.498   0.339   7.944 -0.1423 -0.2909  0.6369
 3200SOL    HW111607  10.588   0.306   7.944  0.4938  1.2010 -1.7049
 3200SOL    HW211608  10.502   0.420   7.893 -2.2513  1.5813  3.1974
 3201SOL     OW11609   2.403   4.892   6.110  0.2020 -0.1560 -0.2489
 3201SOL    HW111610   2.452   4.809   6.105  0.6621  0.0585  0.5656
 3201SOL    HW211611   2.320   4.868   6.151 -1.5682 -1.0189 -3.9170
 3202SOL     OW11612  10.347   0.978   2.404  0.0940  0.5208  0.7171
 3202SOL    HW111613  10.411   1.019   2.345  1.2324 -2.2777 -0.1332
 3202SOL    HW211614  10.268   0.969   2.350  1.2292 -2.3369 -0.7093
 3203SOL     OW11615   0.064   0.874   7.524 -0.3711 -0.4495  0.3536
 3203SOL    HW111616   0.011   0.880   7.445  0.2314 -0.5362 -0.0667
 3203SOL    HW211617   0.154   0.877   7.493 -0.0971  1.7544  1.2002
 3204SOL     OW11618   3.019   3.681   5.747  0.4018 -0.3931  0.2569
 3204SOL    HW111619   3.033   3.775   5.732  1.2770 -0.3447  1.2949
 3204SOL    HW211620   3.005   3.673   5.841 -1.3425 -1.1224 -0.0226
 3205SOL     OW11621   3.452   2.832   4.582 -0.0864  0.0632  0.2668
 3205SOL    HW111622   3.406   2.858   4.661 -1.9122 -3.3078  0.4968
 3205SOL    HW211623   3.408   2.879   4.511 -0.4443  0.7866  0.9559
 3206SOL     OW11624   4.200   3.322  10.227 -0.1433  0.3119 -0.0802
 3206SOL    HW111625   4.292   3.309  10.252 -0.2902 -1.5752 -0.4176
 3206SOL    HW211626   4.160   3.361  10.305  0.8545  0.8362  0.1882
 3207SOL     OW11627   3.324   4.485   8.337  0.0637  0.1101 -0.4845
 3207SOL    HW111628   3.265   4.450   8.270  0.6416 -0.5176 -0.6765
 3207SOL    HW211629   3.406   4.437   8.324 -0.3349 -1.3601  1.8066
 3208SOL     OW11630   3.513   7.787   0.436  0.0529 -0.7029 -0.6019
 3208SOL    HW111631   3.590   7.751   0.479 -1.6940 -1.0936  2.4781
 3208SOL    HW211632   3.455   7.712   0.422 -0.7693 -0.0869 -0.6242
 3209SOL     OW11633   6.218   0.849  10.046  0.0024  0.0279  0.1770
 3209SOL    HW111634   6.147   0.811  10.098 -0.8127  1.6166  0.2621
 3209SOL    HW211635   6.249   0.776   9.991  0.4611 -1.5478  2.3640
 3210SOL     OW11636   1.869   1.069   3.558  0.6450  0.0107  0.4049
 3210SOL    HW111637   1.914   1.153   3.567 -0.1668  0.3276  1.8378
 3210SOL    HW211638   1.830   1.054   3.644  0.5377 -1.7079  0.0784
 3211SOL     OW11639   0.788   4.194   3.026 -0.0790 -0.4353 -0.1777
 3211SOL    HW111640   0.707   4.146   3.044 -0.2978  0.1308  0.3995
 3211SOL    HW211641   0.765   4.254   2.955  0.8493 -2.8408 -2.6917
 3212SOL     OW11642   9.618   1.751   5.971  0.6055  0.7101  0.1832
 3212SOL    HW111643   9.589   1.822   5.914 -0.5347  0.0752 -0.0633
 3212SOL    HW211644   9.709   1.735   5.947  0.0511  0.2190 -1.7219
 3213SOL     OW11645   2.686   2.992   8.143  0.0085 -0.0909 -0.1041
 3213SOL    HW111646   2.696   2.911   8.193 -0.2185  0.5707  1.0198
 3213SOL    HW211647   2.595   3.018   8.156 -0.1201 -0.0077 -1.0431
 3214SOL     OW11648   0.028   1.729   8.683 -0.1707 -0.8463  0.1951
 3214SOL    HW111649  -0.027   1.747   8.759 -1.0649 -1.8121 -0.1887
 3214SOL    HW211650  -0.008   1.784   8.613 -0.9244 -1.7463 -0.1537
 3215SOL     OW11651   5.089   2.572   4.044 -0.1297 -0.9579  0.2067
 3215SOL    HW111652   5.051   2.660   4.042  0.4851 -0.6660  0.8326
 3215SOL    HW211653   5.146   2.569   3.967 -1.9093 -1.6551 -1.1608
 3216SOL     OW11654   6.067   7.184   9.827 -0.2778  0.6596 -0.6915
 3216SOL    HW111655   6.057   7.265   9.778 -2.5555 -0.7334 -2.8046
 3216SOL    HW211656   6.054   7.209   9.919  2.6128  3.1212 -0.8074
 3217SOL     OW11657   5.078   4.445  10.239 -0.0091  0.2505 -0.2259
 3217SOL    HW111658   5.025   4.445  10.160 -0.2369 -2.8255 -0.1955
 3217SOL    HW211659   5.167   4.424  10.208  0.4070  1.4419  0.1187
 3218SOL     OW11660   7.688   9.391   2.938  0.3761  0.4360 -0.7451
 3218SOL    HW111661   7.685   9.456   3.008 -0.1505 -0.3380 -0.0262
 3218SOL    HW211662   7.734   9.316   2.977 -3.4538 -1.6263  0.2417
 3219SOL     OW11663   0.893   1.790   0.598 -0.1722 -0.4413  0.4181
 3219SOL    HW111664   0.816   1.846   0.584 -1.2055 -2.0040 -0.3462
 3219SOL    HW211665   0.861   1.701   0.587  1.1747 -1.3131  2.7173
 3220SOL     OW11666   9.907   9.098   6.573 -0.0793 -0.5899 -0.8330
 3220SOL    HW111667   9.947   9.014   6.595 -0.7569 -1.2202 -1.9390
 3220SOL    HW211668   9.837   9.109   6.638  2.1424  0.8323  1.5445
 3221SOL     OW11669  10.851   3.183  10.998  0.1729  0.1734  0.1539
 3221SOL    HW111670  10.799   3.152  10.924 -0.2448  2.4780 -0.5939
 3221SOL    HW211671  10.857   3.108  11.056  1.7214 -2.2022 -2.8170
 3222SOL     OW11672   7.239   9.655   2.332  0.6319  0.3153 -0.8321
 3222SOL    HW111673   7.309   9.721   2.322  0.9903 -0.1401 -1.4246
 3222SOL    HW211674   7.164   9.693   2.286  0.6656  0.5587 -0.6878
 3223SOL     OW11675   1.757   7.322   5.004 -0.1009  0.1381  0.8261
 3223SOL    HW111676   1.789   7.321   5.094  3.5040  2.8422 -0.2078
 3223SOL    HW211677   1.814   7.261   4.957 -3.9286 -3.8291  0.6172
 3224SOL     OW11678   6.522   0.808   8.547  0.0265  0.0429  0.3078
 3224SOL    HW111679   6.532   0.805   8.452 -0.9683 -1.3472  0.2040
 3224SOL    HW211680   6.442   0.758   8.563 -0.6590  1.5334  1.7686
 3225SOL     OW11681   4.544   2.433   3.002  0.1649 -0.3671  0.3356
 3225SOL    HW111682   4.609   2.500   3.021 -1.4615  0.6513  2.9942
 3225SOL    HW211683   4.526   2.393   3.087 -2.4517 -0.7821 -0.3227
 3226SOL     OW11684   0.864   7.884   4.980  0.2336  0.7894  0.4367
 3226SOL    HW111685   0.921   7.925   5.045 -2.0873  0.2975  2.9213
 3226SOL    HW211686   0.805   7.954   4.953 -0.2273  0.4338  0.5271
 3227SOL     OW11687   9.227   4.089   5.616 -0.6770 -0.2778  0.3433
 3227SOL    HW111688   9.290   4.048   5.676 -1.1334 -1.2095  0.2062
 3227SOL    HW211689   9.180   4.151   5.670  0.2851  0.3680  0.4727
 3228SOL     OW11690  10.248   7.627   9.998 -0.5794  0.0105 -0.5705
 3228SOL    HW111691  10.215   7.646   9.910 -1.5518 -2.1369 -0.7567
 3228SOL    HW211692  10.169   7.621  10.052 -0.3624 -2.3361 -0.3940
 3229SOL     OW11693   6.921   5.780   5.380  0.3415  0.4044 -0.6094
 3229SOL    HW111694   6.993   5.783   5.443 -0.7432 -0.9743  0.7652
 3229SOL    HW211695   6.963   5.755   5.298  1.6696  1.3824 -0.2734
 3230SOL     OW11696   5.208   4.261   5.970 -0.1846  0.3437 -0.4656
 3230SOL    HW111697   5.224   4.350   5.938  2.4626 -0.6673 -2.3156
 3230SOL    HW211698   5.237   4.263   6.061 -2.1811  1.8099  0.2179
 3231SOL     OW11699   8.665   6.744   4.859  0.5743  0.3825 -0.4734
 3231SOL    HW111700   8.695   6.814   4.800  1.8658 -1.0078 -1.5562
 3231SOL    HW211701   8.650   6.669   4.802 -0.3447 -0.3713  0.7124
 3232SOL     OW11702   0.132   8.121   6.975 -0.4124 -0.4725  0.0275
 3232SOL    HW111703   0.177   8.057   7.031  0.6752  1.1143  1.0689
 3232SOL    HW211704   0.058   8.073   6.939  0.3289 -2.3014  0.7816
 3233SOL     OW11705   1.773   0.045   4.621  0.2261 -0.0178 -0.0070
 3233SOL    HW111706   1.810   0.074   4.704  0.3979 -0.8018  0.1943
 3233SOL    HW211707   1.849   0.021   4.568  0.1757  1.2270 -0.6960
 3234SOL     OW11708   5.634   5.993   6.412  0.1111 -0.8044 -0.2054
 3234SOL    HW111709   5.700   5.998   6.343  1.7419 -0.8438  1.2936
 3234SOL    HW211710   5.580   6.071   6.399  0.6385 -0.6055 -1.2838
 3235SOL     OW11711   1.207   0.677   9.135 -0.1078 -0.7489  0.5328
 3235SOL    HW111712   1.186   0.678   9.042 -1.1982 -1.5874  0.7603
 3235SOL    HW211713   1.268   0.604   9.146 -1.8167 -2.1968  0.8265
 3236SOL     OW11714   1.796   8.025   1.263 -0.9846  0.2152  0.2045
 3236SOL    HW111715   1.777   8.030   1.169 -1.3207 -1.3590  0.1601
 3236SOL    HW211716   1.839   8.108   1.283  1.0773 -0.2517 -1.8165
 3237SOL     OW11717  10.325   1.940   8.576  0.0642  0.0396 -0.6162
 3237SOL    HW111718  10.266   1.924   8.502  0.3865 -2.0561 -0.4777
 3237SOL    HW211719  10.271   1.921   8.653  0.2543  0.4463 -0.3819
 3238SOL     OW11720   1.043   6.139   4.060  0.3898 -0.3289  0.2182
 3238SOL    HW111721   0.967   6.133   4.117  1.0536 -0.3292  1.1184
 3238SOL    HW211722   1.118   6.135   4.119  1.0817  1.2185 -0.4945
 3239SOL     OW11723   4.203   1.183   4.640 -0.2908 -0.1460 -0.7845
 3239SOL    HW111724   4.123   1.169   4.590 -1.7115  2.1964  0.6085
 3239SOL    HW211725   4.266   1.216   4.576 -1.4469  0.9168 -1.4290
 3240SOL     OW11726   7.928   8.333   6.864  0.5499  0.1352  0.1075
 3240SOL    HW111727   7.986   8.314   6.791 -0.4751  2.1102 -1.3101
 3240SOL    HW211728   7.986   8.371   6.931  0.9724  2.1324 -1.3073
 3241SOL     OW11729   4.036   4.970   9.128 -0.3542 -0.5068  0.4196
 3241SOL    HW111730   3.949   4.979   9.091 -0.5128  2.1013  1.2308
 3241SOL    HW211731   4.093   4.952   9.052 -1.1632  1.0321 -0.5892
 3242SOL     OW11732   0.982   8.837   8.856  0.0332  0.2340 -0.0236
 3242SOL    HW111733   0.970   8.930   8.836 -1.3256  0.2265  0.6369
 3242SOL    HW211734   0.922   8.793   8.796  0.4754 -0.2102 -0.1429
 3243SOL     OW11735   3.233   7.511   0.053  0.3225  0.4149 -0.3412
 3243SOL    HW111736   3.310   7.561   0.025 -0.1391  0.5592 -1.3973
 3243SOL    HW211737   3.209   7.460  -0.024 -0.5140  0.2001  0.0525
 3244SOL     OW11738   5.616   6.503   7.300  0.5146 -0.4695  0.1104
 3244SOL    HW111739   5.648   6.418   7.268  2.2414  0.3130 -0.3232
 3244SOL    HW211740   5.691   6.561   7.292 -0.6943  1.1576  0.2531
 3245SOL     OW11741   7.662   8.884   2.750  0.4836 -0.0365 -0.1352
 3245SOL    HW111742   7.702   8.968   2.726 -0.0633  0.0574 -0.7702
 3245SOL    HW211743   7.659   8.885   2.846 -0.0209  0.9282 -0.1470
 3246SOL     OW11744  10.173   4.617   9.483 -0.0920  0.1235  0.2791
 3246SOL    HW111745  10.232   4.689   9.505 -1.4633  1.0678  1.0855
 3246SOL    HW211746  10.161   4.624   9.388 -0.1263  0.9200  0.3309
 3247SOL     OW11747   7.551   1.051   2.218  0.7024  0.3598  0.5801
 3247SOL    HW111748   7.478   1.030   2.277 -0.6878  1.4816 -0.6477
 3247SOL    HW211749   7.588   0.965   2.195 -0.0517 -0.2205  1.4252
 3248SOL     OW11750   5.411   1.467   5.975 -0.0676 -0.5491 -0.8020
 3248SOL    HW111751   5.477   1.418   5.927  1.1230 -0.0284  0.2549
 3248SOL    HW211752   5.460   1.527   6.030 -1.4342  0.1221 -0.2565
 3249SOL     OW11753   2.049   6.941   2.914 -0.2393 -0.1264  0.4107
 3249SOL    HW111754   2.134   6.978   2.890  0.4270 -2.2368 -0.7702
 3249SOL    HW211755   2.054   6.932   3.009  0.5201  0.5400  0.4520
 3250SOL     OW11756  10.450   7.710   6.183 -0.6603 -0.6098  0.2762
 3250SOL    HW111757  10.451   7.731   6.089 -0.0139  0.0014  0.4132
 3250SOL    HW211758  10.362   7.677   6.199  0.0324 -3.6028 -1.1860
 3251SOL     OW11759   8.090   5.180   6.531 -1.0712 -0.2585  0.1457
 3251SOL    HW111760   8.027   5.107   6.531  0.5092 -1.7649 -2.1916
 3251SOL    HW211761   8.043   5.252   6.574 -3.1613 -2.2496  1.4499
 3252SOL     OW11762   5.030   6.152   2.414  0.3156 -0.3755 -0.5436
 3252SOL    HW111763   5.048   6.118   2.502 -2.4276 -0.6609 -0.0259
 3252SOL    HW211764   5.073   6.238   2.412  3.4222 -1.7924 -0.2479
 3253SOL     OW11765   8.782   3.472   0.464 -0.5563  0.3167 -0.1554
 3253SOL    HW111766   8.803   3.533   0.534 -0.7952 -1.3340  1.4360
 3253SOL    HW211767   8.860   3.470   0.409 -0.2083  1.3544  0.2877
 3254SOL     OW11768   7.693   1.308  10.410 -0.5968  0.0545 -0.0959
 3254SOL    HW111769   7.762   1.311  10.477 -0.7309  2.0876  0.0211
 3254SOL    HW211770   7.642   1.230  10.431  0.5066 -0.4038  0.9998
 3255SOL     OW11771   2.576   2.599   4.716 -0.0663  0.0066 -0.1183
 3255SOL    HW111772   2.613   2.544   4.785  0.6464  0.5434 -0.0667
 3255SOL    HW211773   2.595   2.551   4.635  1.0584  0.4187 -0.1240
 3256SOL     OW11774   2.990   5.487   4.000  0.7184 -0.0158  0.1536
 3256SOL    HW111775   3.014   5.400   4.033 -0.7512  0.2499  2.1584
 3256SOL    HW211776   2.937   5.469   3.922  1.3364 -0.8608 -0.0853
 3257SOL     OW11777   5.694   4.171   7.724  0.3186  0.1880 -0.7809
 3257SOL    HW111778   5.695   4.229   7.800 -0.6804  0.2494 -0.8098
 3257SOL    HW211779   5.709   4.228   7.649  2.2029  0.0178 -0.5890
 3258SOL     OW11780   5.289  10.085   3.484  0.1106 -0.7941 -0.5028
 3258SOL    HW111781   5.242  10.072   3.401 -0.7659 -1.7086  0.1193
 3258SOL    HW211782   5.376  10.048   3.468 -0.2313 -1.4679 -0.8462
 3259SOL     OW11783  10.875   6.078   6.224  0.4795 -0.4211 -0.0234
 3259SOL    HW111784  10.828   6.148   6.178 -0.1997 -0.0378  1.2249
 3259SOL    HW211785  10.872   6.004   6.163 -1.0608 -0.1582 -0.3085
 3260SOL     OW11786   9.872   0.977   9.404 -0.2545 -0.4581 -0.8409
 3260SOL    HW111787   9.785   0.936   9.409 -0.0153 -1.0006 -1.0350
 3260SOL    HW211788   9.918   0.926   9.337  0.7953 -1.2863  0.4440
 3261SOL     OW11789   3.446   7.628   2.445 -0.0231  0.0160  0.0616
 3261SOL    HW111790   3.371   7.586   2.403 -0.6557  1.6111 -0.4840
 3261SOL    HW211791   3.481   7.687   2.379  1.0086  0.1442  0.7037
 3262SOL     OW11792  10.548   9.202   0.943 -0.5945  0.6534 -0.2756
 3262SOL    HW111793  10.586   9.280   0.903 -0.5157  0.1070 -1.2979
 3262SOL    HW211794  10.541   9.223   1.036 -0.2373  1.7365 -0.4874
 3263SOL     OW11795   3.552   0.731   7.027  0.5221  0.0712 -0.0903
 3263SOL    HW111796   3.643   0.715   7.051  0.1251 -1.9465  0.2332
 3263SOL    HW211797   3.550   0.823   7.002  2.2487  0.6699  1.6937
 3264SOL     OW11798   2.101   4.427   4.001  0.3289  0.0893 -0.1124
 3264SOL    HW111799   2.028   4.472   4.044  1.9585  1.8513  0.9389
 3264SOL    HW211800   2.059   4.368   3.938 -2.0055  0.5331  0.9370
 3265SOL     OW11801   6.381   7.531   5.204  0.2247  0.1313 -0.4112
 3265SOL    HW111802   6.349   7.483   5.280  0.4311 -0.7225 -0.8559
 3265SOL    HW211803   6.306   7.536   5.145  0.7872 -1.6192 -1.3286
 3266SOL     OW11804   0.074   0.811   7.844 -0.5052 -0.5511  0.7395
 3266SOL    HW111805   0.017   0.881   7.877  0.7501  0.5775  0.6037
 3266SOL    HW211806   0.068   0.818   7.749  0.3992  0.0511  0.7174
 3267SOL     OW11807   4.068   7.518   2.147 -1.2579 -0.0002  0.1613
 3267SOL    HW111808   4.054   7.494   2.238  0.3947  1.8893  0.9902
 3267SOL    HW211809   4.148   7.473   2.122 -0.6501  0.9664  0.2947
 3268SOL     OW11810   8.536   7.115   4.975 -0.0661  0.0711 -1.6275
 3268SOL    HW111811   8.562   7.023   4.977  1.8714  0.5898 -1.0110
 3268SOL    HW211812   8.590   7.154   4.906  0.4723  1.0885 -0.6664
 3269SOL     OW11813  10.651   2.578   7.758  0.0471  0.2192  0.1832
 3269SOL    HW111814  10.557   2.571   7.778 -0.3307  1.2346 -1.0629
 3269SOL    HW211815  10.676   2.490   7.732 -0.7563  0.0774 -0.1562
 3270SOL     OW11816   6.137   2.052   5.712  0.3526 -0.0591  0.0120
 3270SOL    HW111817   6.146   2.063   5.617  0.9735  1.4275  0.2103
 3270SOL    HW211818   6.150   2.140   5.747  0.1753 -0.5997  1.4891
 3271SOL     OW11819   5.702   8.167   6.579 -1.4636 -0.5682  0.4799
 3271SOL    HW111820   5.706   8.196   6.488 -0.4285  0.3688  0.7913
 3271SOL    HW211821   5.627   8.214   6.616  0.0561  1.6868  0.9196
 3272SOL     OW11822   2.438   8.248   4.988 -0.2793  0.7707 -0.0467
 3272SOL    HW111823   2.412   8.165   4.949  0.3751  0.1153  0.8752
 3272SOL    HW211824   2.358   8.280   5.031  0.1030 -0.7401  1.9149
 3273SOL     OW11825   1.604   0.684  10.773  0.1220  0.3340  0.1097
 3273SOL    HW111826   1.631   0.667  10.864 -0.8966  1.3058  0.6162
 3273SOL    HW211827   1.686   0.689  10.724  0.6963 -0.0540  0.9978
 3274SOL     OW11828   6.758   5.541   5.377 -0.3622  0.0168  0.0313
 3274SOL    HW111829   6.791   5.631   5.381 -1.0877  0.2594  1.2523
 3274SOL    HW211830   6.837   5.487   5.370  0.1467  0.7051  0.2829
 3275SOL     OW11831   8.393  10.448   0.989 -0.0580 -0.7572  0.3437
 3275SOL    HW111832   8.475  10.495   1.007 -1.5293  2.4293 -0.5768
 3275SOL    HW211833   8.325  10.504   1.026 -2.1636 -0.8074 -3.0816
 3276SOL     OW11834   3.303   9.907   8.984  0.5126  0.3102  0.0368
 3276SOL    HW111835   3.319   9.817   9.014 -1.2821  0.2023  0.7838
 3276SOL    HW211836   3.387   9.952   8.998  1.0534 -0.9104  0.8998
 3277SOL     OW11837   3.554   6.293   8.755 -0.4756  0.0046  0.1500
 3277SOL    HW111838   3.534   6.386   8.765 -0.5536  0.2141 -1.6751
 3277SOL    HW211839   3.525   6.254   8.838 -0.9978  1.5044  0.7139
 3278SOL     OW11840   5.194   5.003   9.571 -0.2089  0.4342 -0.2579
 3278SOL    HW111841   5.265   4.988   9.633  0.3331  0.4563 -0.8684
 3278SOL    HW211842   5.227   5.069   9.510 -0.9809  0.9051 -0.1867
 3279SOL     OW11843   3.825   1.111   0.045  0.3504 -0.2899 -0.3701
 3279SOL    HW111844   3.855   1.128   0.135 -0.6222 -0.6408  0.0335
 3279SOL    HW211845   3.776   1.030   0.051 -0.3414  0.0599 -1.0835
 3280SOL     OW11846   7.027   5.887   8.816 -0.0268 -0.0164 -0.0937
 3280SOL    HW111847   7.076   5.910   8.895 -0.1880  0.8384 -0.2299
 3280SOL    HW211848   7.037   5.963   8.759 -1.7484  0.3194 -0.0066
 3281SOL     OW11849   5.444   1.143   3.785 -0.0466 -0.2580  0.9685
 3281SOL    HW111850   5.378   1.079   3.811  0.9726 -1.4768  0.6603
 3281SOL    HW211851   5.437   1.213   3.850  0.4946 -1.8545  2.8522
 3282SOL     OW11852   5.891   4.634   9.771  0.3209 -0.0904  0.3754
 3282SOL    HW111853   5.917   4.570   9.836  1.1489 -0.5460 -0.3836
 3282SOL    HW211854   5.822   4.590   9.720  1.2824 -0.6206 -0.5069
 3283SOL     OW11855   7.221  10.386   9.174 -0.0119 -0.1484  0.2381
 3283SOL    HW111856   7.261  10.299   9.165  1.1933  0.3761  0.2974
 3283SOL    HW211857   7.167  10.396   9.096  0.5191 -0.6045 -0.1969
 3284SOL     OW11858   1.008  10.388   6.598 -0.1635  0.1692  0.4872
 3284SOL    HW111859   1.026  10.359   6.688  1.9335  2.1735  0.8239
 3284SOL    HW211860   1.094  10.388   6.556 -1.3065 -2.7432 -2.3001
 3285SOL     OW11861   1.535   3.481   5.124 -0.7360  0.5564 -0.2222
 3285SOL    HW111862   1.505   3.452   5.038 -1.1113 -0.1830  0.1442
 3285SOL    HW211863   1.619   3.524   5.107 -0.7510  0.3224 -0.9401
 3286SOL     OW11864   1.060   0.283   0.340 -0.0183  1.2783  0.3957
 3286SOL    HW111865   1.135   0.343   0.339  1.8397 -0.9071 -0.4051
 3286SOL    HW211866   1.049   0.259   0.432 -0.6751  2.6418  0.7018
 3287SOL     OW11867   9.263   3.576   8.836 -0.6832 -0.2314  0.0148
 3287SOL    HW111868   9.323   3.558   8.763 -1.9557  0.7070 -1.3147
 3287SOL    HW211869   9.285   3.665   8.863 -0.3245 -0.5187  0.6955
 3288SOL     OW11870  10.983   0.332   0.037  0.0799 -0.4875  0.0755
 3288SOL    HW111871  10.980   0.378  -0.047  0.4824 -2.6931 -1.2249
 3288SOL    HW211872  10.891   0.315   0.058 -0.1358  1.4081  0.9506
 3289SOL     OW11873   0.096   4.666   9.951 -0.4387  0.0997 -0.2628
 3289SOL    HW111874   0.021   4.700   9.999 -1.3622  0.0974 -1.6484
 3289SOL    HW211875   0.118   4.736   9.889  1.3329  0.5023  0.7384
 3290SOL     OW11876   4.331   6.590   8.267  0.0862  0.1153 -0.9348
 3290SOL    HW111877   4.298   6.546   8.188  0.7460  0.4842 -1.4232
 3290SOL    HW211878   4.289   6.676   8.265  0.6495  0.3885 -1.2733
 3291SOL     OW11879   1.236   4.751   6.747  0.6169 -0.6204 -0.1597
 3291SOL    HW111880   1.187   4.804   6.684  1.6377 -0.7535 -1.0970
 3291SOL    HW211881   1.174   4.684   6.775  0.2948 -0.8975 -1.4546
 3292SOL     OW11882   3.106   9.789   3.631  0.5849  0.5333 -0.1243
 3292SOL    HW111883   3.097   9.719   3.566 -0.1101  0.1082  0.4162
 3292SOL    HW211884   3.198   9.785   3.657  0.8906  0.7598 -1.1240
 3293SOL     OW11885   2.568   3.838   0.701 -0.1122  0.0335 -0.8517
 3293SOL    HW111886   2.575   3.925   0.741 -0.3000 -0.7284  0.9269
 3293SOL    HW211887   2.650   3.794   0.724  0.2217 -0.1042 -2.2082
 3294SOL     OW11888   9.840   4.039   1.236 -0.1733 -0.8533  0.2759
 3294SOL    HW111889   9.924   4.004   1.208 -1.0614 -1.2762 -2.1391
 3294SOL    HW211890   9.790   3.962   1.263  0.2703 -0.5670  2.0663
 3295SOL     OW11891   8.786   5.875   8.727  0.2399  0.3015 -0.3316
 3295SOL    HW111892   8.792   5.781   8.744 -1.2437  0.3723  0.7544
 3295SOL    HW211893   8.704   5.886   8.680 -0.5257  1.2246  1.1331
 3296SOL     OW11894   2.943   1.551   7.643 -0.1813 -0.5578  0.3294
 3296SOL    HW111895   2.969   1.474   7.593  0.3025  0.8618 -1.7233
 3296SOL    HW211896   2.891   1.604   7.582 -0.4584  0.7757  1.6513
 3297SOL     OW11897   6.157   9.965   3.756 -0.3410 -0.5414  0.9172
 3297SOL    HW111898   6.203   9.946   3.675 -1.7855  0.9066 -0.3054
 3297SOL    HW211899   6.185   9.896   3.816  0.3088 -2.0182 -0.9909
 3298SOL     OW11900   2.189   4.320   5.362 -0.3229 -0.1685  0.7713
 3298SOL    HW111901   2.110   4.373   5.358  0.0864  0.7512  3.2899
 3298SOL    HW211902   2.217   4.312   5.270 -2.8107  0.1973 -0.0878
 3299SOL     OW11903   3.473   3.271   6.087 -0.4289  0.3573 -0.6639
 3299SOL    HW111904   3.493   3.290   6.178  0.2497  1.1076 -0.9584
 3299SOL    HW211905   3.377   3.274   6.082 -0.4217  2.1605 -0.3463
 3300SOL     OW11906   3.592   4.403   4.216 -0.2706  0.0529  0.7707
 3300SOL    HW111907   3.497   4.399   4.227 -0.2091  2.8168  3.5401
 3300SOL    HW211908   3.627   4.403   4.305  2.4158 -1.1806 -0.1693
 3301SOL     OW11909   3.033   1.868   7.448  0.0239  0.0421 -0.4047
 3301SOL    HW111910   3.095   1.805   7.485 -0.2634  1.3643  2.6225
 3301SOL    HW211911   2.951   1.849   7.492 -0.9077  0.4809 -1.8833
 3302SOL     OW11912   5.303   8.882   3.006  0.3142 -0.5019 -0.0780
 3302SOL    HW111913   5.334   8.972   2.996 -0.3158 -0.4411 -1.6473
 3302SOL    HW211914   5.383   8.829   3.005  0.5837 -0.0912 -0.7785
 3303SOL     OW11915   1.360   1.783   1.144  0.2016  0.2341  0.3807
 3303SOL    HW111916   1.401   1.733   1.214  0.4263  0.5290  0.4662
 3303SOL    HW211917   1.413   1.863   1.139  2.5917 -1.3599 -2.6767
 3304SOL     OW11918   1.245   2.406   4.238  0.0292  0.0431  0.2946
 3304SOL    HW111919   1.334   2.436   4.222  0.5396 -2.0850 -1.2466
 3304SOL    HW211920   1.191   2.459   4.179  0.3230  0.9168  0.7936
 3305SOL     OW11921   6.718   4.414   6.242 -0.3424  0.2292  0.1461
 3305SOL    HW111922   6.631   4.378   6.223 -0.3311  0.8283 -1.1420
 3305SOL    HW211923   6.720   4.421   6.337 -2.4443  1.9569  0.1416
 3306SOL     OW11924   3.402   3.753   7.513 -0.3356 -0.4866 -0.7070
 3306SOL    HW111925   3.366   3.839   7.493  0.3832  0.3927  1.4770
 3306SOL    HW211926   3.328   3.692   7.501 -0.5391  0.1771 -3.4872
 3307SOL     OW11927   6.856   7.154   7.674  0.4698  0.0019  0.1461
 3307SOL    HW111928   6.845   7.060   7.684  1.1036 -0.1291 -0.3527
 3307SOL    HW211929   6.872   7.185   7.764  1.4009 -0.5243  0.1690
 3308SOL     OW11930   8.252   6.553   0.066  0.2478  0.4763  0.5768
 3308SOL    HW111931   8.323   6.558   0.131  0.8149  0.7339 -0.0450
 3308SOL    HW211932   8.222   6.643   0.056  1.6042  0.7969 -1.0535
 3309SOL     OW11933   0.008   2.513   2.110  0.8059  0.4512  0.1715
 3309SOL    HW111934   0.089   2.496   2.159  0.8735  0.8666  0.2142
 3309SOL    HW211935  -0.007   2.434   2.058  0.6988 -0.0279  0.9108
 3310SOL     OW11936   0.603   1.567   3.004 -0.4672 -0.0840 -0.3261
 3310SOL    HW111937   0.550   1.628   2.952  0.9389  1.4528 -0.0327
 3310SOL    HW211938   0.614   1.491   2.948 -0.4525  0.8174 -1.5883
 3311SOL     OW11939   9.121   5.164   8.482  0.7170  0.1135  0.2825
 3311SOL    HW111940   9.156   5.185   8.395  0.7717 -0.7327  0.0888
 3311SOL    HW211941   9.162   5.080   8.505 -0.4452 -0.4315  0.4542
 3312SOL     OW11942   0.435   2.444   8.565 -0.3389  0.3745  0.3357
 3312SOL    HW111943   0.494   2.424   8.638  0.2192 -1.1179 -0.4713
 3312SOL    HW211944   0.490   2.440   8.487 -1.3903 -0.6883 -0.4064
 3313SOL     OW11945   8.648   1.959  11.080 -0.2649  0.2858  0.0281
 3313SOL    HW111946   8.601   1.942  10.999 -0.4154  1.1076 -0.0722
 3313SOL    HW211947   8.735   1.988  11.052  0.3174 -1.2271  0.2114
 3314SOL     OW11948   3.664   7.363   4.814  0.1526 -0.2780  0.0628
 3314SOL    HW111949   3.690   7.287   4.762  0.2647 -0.3253  0.1879
 3314SOL    HW211950   3.571   7.349   4.833 -0.4225  0.6753 -1.7465
 3315SOL     OW11951   0.791   0.996   2.439  0.2484  0.2547 -0.4910
 3315SOL    HW111952   0.718   0.991   2.378  0.8497  1.2482 -1.3334
 3315SOL    HW211953   0.865   0.957   2.391  0.3165 -0.6294  0.3003
 3316SOL     OW11954   7.607   5.222   6.151  0.8347  0.3392  0.6730
 3316SOL    HW111955   7.533   5.271   6.189 -0.5926 -0.4670 -0.9279
 3316SOL    HW211956   7.596   5.133   6.183  0.5572  0.0129 -0.3033
 3317SOL     OW11957   5.666   1.602   9.721 -0.3839 -0.3046  0.2318
 3317SOL    HW111958   5.704   1.684   9.751  0.4709 -0.9658  0.9948
 3317SOL    HW211959   5.632   1.622   9.633  0.2676  0.7196  0.1994
 3318SOL     OW11960   3.002   1.342   4.460  0.3957  0.5487  0.2695
 3318SOL    HW111961   3.038   1.362   4.546  0.9446  0.1451  0.1454
 3318SOL    HW211962   3.070   1.289   4.418 -0.8517 -1.3046  0.4733
 3319SOL     OW11963   6.239   8.524   8.918 -0.6375 -0.2190 -0.3861
 3319SOL    HW111964   6.160   8.557   8.960 -0.9005 -0.0958 -0.9724
 3319SOL    HW211965   6.283   8.473   8.986 -1.0357  0.0120  0.0493
 3320SOL     OW11966   4.538   8.120   1.153 -0.5495  0.6889 -0.3701
 3320SOL    HW111967   4.620   8.100   1.199 -1.1726 -0.2044  0.3888
 3320SOL    HW211968   4.520   8.041   1.102 -2.6502 -0.5224  2.0629
 3321SOL     OW11969   3.563   5.226   5.084  0.3330 -0.1521 -0.0236
 3321SOL    HW111970   3.510   5.283   5.029 -1.6487  0.1664  2.0773
 3321SOL    HW211971   3.628   5.188   5.024 -1.8751 -0.1043 -2.6319
 3322SOL     OW11972   0.148  10.967   9.925 -0.0188 -0.3785 -0.1469
 3322SOL    HW111973   0.231  10.953   9.878 -0.7723  0.9561 -2.0103
 3322SOL    HW211974   0.110  11.043   9.882 -1.9157 -0.5782  1.1141
 3323SOL     OW11975   2.049   5.729   4.461  0.1609  0.1867 -0.1684
 3323SOL    HW111976   2.003   5.681   4.392  0.3002  0.3232 -0.3593
 3323SOL    HW211977   2.046   5.820   4.432  1.0211  0.1318 -0.4602
 3324SOL     OW11978   7.835   8.901   7.246 -0.4140  0.2903  0.0095
 3324SOL    HW111979   7.927   8.873   7.246 -0.6282 -0.7519  2.9453
 3324SOL    HW211980   7.785   8.820   7.246 -1.5183  0.8124 -3.3611
 3325SOL     OW11981   8.358  10.129   5.787 -0.0122 -0.5197 -0.5038
 3325SOL    HW111982   8.279  10.131   5.732 -0.4311  0.3552  0.1105
 3325SOL    HW211983   8.378  10.036   5.796 -0.4207 -0.7181 -1.4440
 3326SOL     OW11984   0.252   9.432   6.585  0.5088  0.4252  0.0421
 3326SOL    HW111985   0.264   9.345   6.623 -0.3111 -0.4485 -1.6149
 3326SOL    HW211986   0.337   9.452   6.545  0.0498 -0.6539 -1.5607
 3327SOL     OW11987   7.059   4.028   7.201 -0.5652  0.2149 -0.2299
 3327SOL    HW111988   7.126   4.092   7.223 -0.6622  0.8563 -1.6962
 3327SOL    HW211989   7.043   4.041   7.108 -1.0195 -1.5504 -0.4258
 3328SOL     OW11990  10.857   4.020   9.092 -0.1254  0.1645  0.2368
 3328SOL    HW111991  10.784   3.958   9.086 -0.8043  1.0030 -0.3839
 3328SOL    HW211992  10.922   3.987   9.030  0.4121 -1.0435  1.3763
 3329SOL     OW11993   7.682   5.229   9.634  0.1385 -0.2949 -0.2573
 3329SOL    HW111994   7.632   5.294   9.683  0.7497 -0.8874  1.2241
 3329SOL    HW211995   7.667   5.251   9.542  0.1699  1.7930  0.1917
 3330SOL     OW11996   2.543  10.471   6.411 -0.6739 -0.1137 -0.2537
 3330SOL    HW111997   2.488  10.441   6.483 -1.2915 -0.5227 -0.8848
 3330SOL    HW211998   2.482  10.502   6.345 -0.0693  1.8936  0.0784
 3331SOL     OW11999   2.781   2.154  10.471  0.0104 -0.0571 -0.3790
 3331SOL    HW112000   2.858   2.132  10.418 -0.6109 -2.7426 -0.3386
 3331SOL    HW212001   2.803   2.124  10.559  0.6375  3.4513  0.8118
 3332SOL     OW12002   3.860   4.449   6.634 -0.0631  0.8137  0.0679
 3332SOL    HW112003   3.822   4.389   6.698  1.3351  1.5023  1.6100
 3332SOL    HW212004   3.849   4.536   6.673  1.3763  1.1955 -0.3335
 3333SOL     OW12005   9.061   7.099   4.361 -0.4330 -0.0302 -0.1470
 3333SOL    HW112006   9.018   7.025   4.404 -0.9423 -0.4231 -1.2738
 3333SOL    HW212007   9.006   7.174   4.383  0.5110  0.1824  1.6360
 3334SOL     OW12008   2.343   0.053   0.663 -0.0366  0.1079 -0.5532
 3334SOL    HW112009   2.258   0.014   0.644 -0.0082 -0.6294  0.7648
 3334SOL    HW212010   2.391  -0.014   0.711 -0.6027  2.2465  3.3777
 3335SOL     OW12011   1.069   8.883   3.006  0.3702 -0.1748 -0.4342
 3335SOL    HW112012   1.100   8.834   3.083 -3.0711 -0.3708  1.0256
 3335SOL    HW212013   1.059   8.817   2.938  0.3713 -0.6225 -0.0094
 3336SOL     OW12014   4.800   5.730   4.150 -0.6961 -0.5232 -0.8583
 3336SOL    HW112015   4.860   5.729   4.224  0.3975 -0.3255 -1.7271
 3336SOL    HW212016   4.743   5.654   4.163 -0.7913 -0.2506  0.3968
 3337SOL     OW12017  10.672   9.531   8.552 -0.7919 -0.9741 -0.2717
 3337SOL    HW112018  10.705   9.484   8.627  2.5501  1.5537  0.0516
 3337SOL    HW212019  10.719   9.494   8.477  1.3060  1.1229 -0.1009
 3338SOL     OW12020   4.150   3.911   5.244  0.1521 -0.0139 -0.0540
 3338SOL    HW112021   4.073   3.952   5.205 -0.8207  0.6652  2.4147
 3338SOL    HW212022   4.185   3.855   5.174 -1.7863  0.6743 -1.6745
 3339SOL     OW12023   8.496   2.196   2.694  0.2113 -0.1402  0.0726
 3339SOL    HW112024   8.502   2.104   2.718 -1.0738  0.1965  1.9136
 3339SOL    HW212025   8.587   2.226   2.692  0.5939 -1.2045  0.5154
 3340SOL     OW12026   8.284   1.425   8.068  0.1075  0.0997  0.0345
 3340SOL    HW112027   8.219   1.382   8.123  1.1587 -0.1521  1.1291
 3340SOL    HW212028   8.365   1.377   8.085  0.3098 -0.5763 -2.4540
 3341SOL     OW12029   3.417   2.786   3.907 -0.0252  0.3396 -0.3454
 3341SOL    HW112030   3.338   2.746   3.871 -0.4628  1.3864 -0.5799
 3341SOL    HW212031   3.386   2.842   3.978  0.6139  0.0088  0.2031
 3342SOL     OW12032   2.359   5.125   0.283 -0.2877  0.2769 -0.0141
 3342SOL    HW112033   2.295   5.190   0.254  0.9949  1.0610 -1.2348
 3342SOL    HW212034   2.374   5.071   0.205  2.3811  1.7163 -0.6359
 3343SOL     OW12035   0.758   9.023   5.927  0.0305  0.4026 -0.0875
 3343SOL    HW112036   0.666   9.003   5.949 -0.2718  0.8820 -0.8720
 3343SOL    HW212037   0.802   9.027   6.012 -1.0952  2.1557  0.4744
 3344SOL     OW12038   2.767   1.434   9.298 -0.1170  0.1347  0.1788
 3344SOL    HW112039   2.752   1.339   9.300  2.3161 -0.2941  1.9019
 3344SOL    HW212040   2.817   1.448   9.218 -2.3053  0.3815 -1.2462
 3345SOL     OW12041  10.558   5.705   7.677 -0.4271  0.5372 -0.7487
 3345SOL    HW112042  10.641   5.750   7.691  0.0526 -0.2439 -1.0010
 3345SOL    HW212043  10.532   5.673   7.763 -0.1218  0.2146 -0.7727
 3346SOL     OW12044   2.965   8.935   1.506  0.4223  0.1717  1.1083
 3346SOL    HW112045   2.985   8.937   1.600  2.7594 -0.1614  0.6820
 3346SOL    HW212046   3.031   8.992   1.467 -0.9027  0.8012 -0.3083
 3347SOL     OW12047   2.632   3.435   5.893 -0.3576  0.5154  0.1131
 3347SOL    HW112048   2.633   3.409   5.801  1.3580 -0.5221  0.3740
 3347SOL    HW212049   2.541   3.422   5.921 -0.3839 -1.6293 -0.7886
 3348SOL     OW12050  11.000   7.775   5.130  0.4210  0.1219  0.3422
 3348SOL    HW112051  10.969   7.700   5.080 -1.0739 -0.5607  2.1857
 3348SOL    HW212052  11.011   7.742   5.219 -1.2051  2.2788  1.4405
 3349SOL     OW12053   2.439   3.969  10.814  0.2354 -0.3916  0.0751
 3349SOL    HW112054   2.435   4.050  10.764  0.2763 -0.4925 -0.0945
 3349SOL    HW212055   2.353   3.961  10.855 -0.4253 -1.2045 -1.4051
 3350SOL     OW12056   5.710   9.178   8.498  0.5658  0.8454  0.0852
 3350SOL    HW112057   5.702   9.123   8.576  0.0699  1.6198  0.5860
 3350SOL    HW212058   5.804   9.199   8.493  0.8100 -0.2885 -0.2864
 3351SOL     OW12059   8.322   5.696   1.128  0.1983  0.5448  0.1160
 3351SOL    HW112060   8.300   5.604   1.122  0.7087  0.4796 -1.0026
 3351SOL    HW212061   8.268   5.739   1.061  1.5181  0.7355 -0.8679
 3352SOL     OW12062   5.814   2.445  10.198  0.2191  0.2791 -0.1908
 3352SOL    HW112063   5.750   2.384  10.235 -0.7565  0.5224 -1.4114
 3352SOL    HW212064   5.850   2.491  10.274 -0.2091 -0.6671  0.6078
 3353SOL     OW12065   4.855   9.228   3.083 -0.0040 -0.4568 -0.0131
 3353SOL    HW112066   4.798   9.153   3.098 -0.3062 -0.0085  1.1891
 3353SOL    HW212067   4.935   9.190   3.047  0.3939 -1.5533  1.8922
 3354SOL     OW12068   4.231   4.858   4.703  0.3302 -0.4737  0.3273
 3354SOL    HW112069   4.225   4.862   4.799  1.4055 -1.4376  0.4615
 3354SOL    HW212070   4.322   4.883   4.684  1.6770 -4.7242 -0.0077
 3355SOL     OW12071   9.415   5.571   5.378 -0.0809  0.0892 -0.0118
 3355SOL    HW112072   9.394   5.664   5.375 -0.9891 -0.0975  0.0882
 3355SOL    HW212073   9.357   5.536   5.446 -1.3355 -0.9189 -1.5207
 3356SOL     OW12074   9.402   9.692   3.301 -0.1725  0.7695 -0.1088
 3356SOL    HW112075   9.352   9.734   3.371  1.0861  0.6703  0.8915
 3356SOL    HW212076   9.492   9.693   3.332  0.2145 -0.5952 -1.0871
 3357SOL     OW12077   7.621   1.415   2.906  0.1030 -0.3107 -0.7428
 3357SOL    HW112078   7.614   1.337   2.851  0.8708 -0.8079 -0.1620
 3357SOL    HW212079   7.708   1.449   2.889 -0.4723  0.8420 -1.5088
 3358SOL     OW12080   3.388   2.627   4.838 -0.7667 -0.2699  0.1390
 3358SOL    HW112081   3.353   2.714   4.856  0.5866 -0.2321  2.9910
 3358SOL    HW212082   3.466   2.643   4.785 -0.5372  0.2401  0.6277
 3359SOL     OW12083   0.089   3.807   5.230  0.0384 -0.3768 -0.2467
 3359SOL    HW112084   0.088   3.777   5.321  2.2060  1.6283  0.5189
 3359SOL    HW212085  -0.002   3.832   5.213 -0.4241 -0.7967  1.3510
 3360SOL     OW12086   0.175  10.092   4.316  0.5075  0.3849 -0.1832
 3360SOL    HW112087   0.239  10.105   4.246 -0.8306  0.5004 -1.4446
 3360SOL    HW212088   0.226  10.058   4.390  1.6370 -2.1323 -1.9762
 3361SOL     OW12089   1.117   6.922   5.128  0.9896 -0.1241 -0.7036
 3361SOL    HW112090   1.149   6.982   5.195  2.4809 -1.6180  0.0074
 3361SOL    HW212091   1.188   6.919   5.063 -0.1303  0.7584 -2.0264
 3362SOL     OW12092   6.697   8.528   3.047 -0.8657 -0.2305  0.1243
 3362SOL    HW112093   6.655   8.559   2.967  1.1312 -0.4652 -1.0689
 3362SOL    HW212094   6.702   8.433   3.037  1.8098 -0.0738 -0.8065
 3363SOL     OW12095   8.788   7.856   7.159  0.8866 -0.2627  0.3779
 3363SOL    HW112096   8.863   7.906   7.189  0.4586  2.0268 -2.0572
 3363SOL    HW212097   8.715   7.886   7.213  0.9391  0.6802 -0.0542
 3364SOL     OW12098   0.152   0.657   2.505  0.1864  0.0596 -0.6592
 3364SOL    HW112099   0.075   0.602   2.491  0.2051  0.0132 -0.5759
 3364SOL    HW212100   0.219   0.618   2.449  0.7509 -1.1106  0.7769
 3365SOL     OW12101   7.724   3.842   5.590  0.0753  0.0003  0.6993
 3365SOL    HW112102   7.630   3.859   5.581  0.1766  1.9948  2.5333
 3365SOL    HW212103   7.765   3.928   5.580  1.7499 -0.8343 -0.0654
 3366SOL     OW12104  10.031   2.687   2.261  0.2367 -0.3046  0.3980
 3366SOL    HW112105  10.011   2.779   2.274 -0.6349 -0.3385 -0.5632
 3366SOL    HW212106  10.097   2.667   2.328 -1.2197  0.4334  2.1457
 3367SOL     OW12107   1.320   7.322   8.064 -0.0043 -0.1388  0.2308
 3367SOL    HW112108   1.280   7.309   7.978  1.3766 -0.4444 -0.3966
 3367SOL    HW212109   1.409   7.289   8.054  1.0487  2.2525  0.9934
 3368SOL     OW12110   7.276   2.098   3.134  0.1814 -0.5379 -0.4884
 3368SOL    HW112111   7.199   2.071   3.084  0.8995 -3.3250 -0.3048
 3368SOL    HW212112   7.340   2.124   3.068 -0.3730  0.2022 -0.7369
 3369SOL     OW12113   4.808   6.106   7.464  0.2115 -0.6889 -0.5921
 3369SOL    HW112114   4.751   6.056   7.521  0.0774 -0.3155 -0.3968
 3369SOL    HW212115   4.876   6.141   7.522 -1.0251  1.3440 -0.2847
 3370SOL     OW12116   9.073   7.088   6.763  0.3838  0.0986 -0.1491
 3370SOL    HW112117   8.984   7.111   6.738  0.0992 -1.2134 -0.4019
 3370SOL    HW212118   9.099   7.020   6.701  1.3637  0.0909  0.2541
 3371SOL     OW12119   1.586   0.178   9.039  0.3706  0.1102  0.1339
 3371SOL    HW112120   1.534   0.154   9.116  1.1106  0.6697  0.8231
 3371SOL    HW212121   1.610   0.094   9.000 -0.1249 -0.1750  0.4229
 3372SOL     OW12122   5.505   2.703   6.864 -0.0987  0.1814 -0.3541
 3372SOL    HW112123   5.465   2.616   6.871  0.2738 -0.0459 -1.0339
 3372SOL    HW212124   5.490   2.730   6.774  2.8608 -0.7030 -1.2011
 3373SOL     OW12125   8.298   3.695   7.394 -0.3143 -0.5720 -0.6826
 3373SOL    HW112126   8.338   3.633   7.454 -0.3257 -1.8009 -1.9154
 3373SOL    HW212127   8.232   3.740   7.448 -0.6539 -1.9694  0.1298
 3374SOL     OW12128   3.581  10.819   8.011 -0.0388  0.2984 -0.2694
 3374SOL    HW112129   3.649  10.774   7.962 -0.8219 -1.2808  0.0303
 3374SOL    HW212130   3.546  10.884   7.950 -0.1793 -0.8044 -1.4041
 3375SOL     OW12131  10.935   1.901  11.082 -0.1619 -0.1324  0.4497
 3375SOL    HW112132  10.960   1.834  11.018 -0.6066  2.2660 -2.4409
 3375SOL    HW212133  10.977   1.981  11.051 -2.6367  1.7278  1.5744
 3376SOL     OW12134   0.064   9.581   7.741  0.3097  0.1741 -0.1960
 3376SOL    HW112135   0.096   9.614   7.825 -0.8307 -0.2097  0.4194
 3376SOL    HW212136   0.057   9.486   7.754  0.9338  0.0122 -1.0166
 3377SOL     OW12137  11.025   7.934   6.935 -0.3362 -0.3082  0.1061
 3377SOL    HW112138  10.937   7.925   6.971 -0.2354 -0.3388  0.3509
 3377SOL    HW212139  11.017   7.910   6.843 -0.8242  0.9142 -0.1817
 3378SOL     OW12140   4.537   9.542   1.259  0.3978 -0.0534  0.2326
 3378SOL    HW112141   4.500   9.621   1.221 -1.0893 -0.1401  1.4060
 3378SOL    HW212142   4.462   9.493   1.291  1.3983 -1.2229  0.8955
 3379SOL     OW12143   8.968   9.524   5.811 -0.2085  0.0751  0.0138
 3379SOL    HW112144   8.959   9.559   5.723 -0.7446  0.0524  0.0562
 3379SOL    HW212145   8.986   9.601   5.866  0.2091  0.0786 -0.1230
 3380SOL     OW12146   6.082   6.477  10.055 -0.3502  0.1737  0.4061
 3380SOL    HW112147   5.989   6.461  10.037 -0.3432  0.6535 -0.1005
 3380SOL    HW212148   6.125   6.466   9.971  0.1980 -0.9679  0.8183
 3381SOL     OW12149   1.811   5.816   6.544  0.3576  0.1673 -0.3899
 3381SOL    HW112150   1.900   5.812   6.578 -0.0803 -0.3397  0.7684
 3381SOL    HW212151   1.794   5.909   6.531  0.5786  0.3895  0.7652
 3382SOL     OW12152   4.909   1.119   2.497  0.3869  0.0307 -0.7160
 3382SOL    HW112153   4.855   1.195   2.521  1.4848  1.4066 -2.3275
 3382SOL    HW212154   4.855   1.070   2.435 -0.5514 -0.8637  0.7631
 3383SOL     OW12155   7.759   9.075   7.433  0.7964  0.1744  0.1264
 3383SOL    HW112156   7.674   9.103   7.400 -0.0107 -1.5570  0.6075
 3383SOL    HW212157   7.794   9.019   7.364  0.8892 -0.2611  0.5219
 3384SOL     OW12158   3.331   7.496   6.911  0.5789 -0.2672 -0.0339
 3384SOL    HW112159   3.272   7.497   6.986  1.3922 -0.7133  0.6322
 3384SOL    HW212160   3.297   7.564   6.853  1.1581  1.6256  1.7218
 3385SOL     OW12161   1.964   2.278   4.616 -0.5388 -0.0241  0.0207
 3385SOL    HW112162   1.975   2.302   4.524 -1.2044 -0.2972 -0.1350
 3385SOL    HW212163   2.052   2.254   4.645  0.7323  4.4813  0.7818
 3386SOL     OW12164   8.876  10.139   5.240  0.5560 -1.1352  0.3175
 3386SOL    HW112165   8.853  10.124   5.331 -0.2433 -1.0630  0.1353
 3386SOL    HW212166   8.805  10.193   5.206  1.3621 -0.2804 -0.0764
 3387SOL     OW12167   8.561   5.847   0.935 -0.2679 -0.4922  0.5889
 3387SOL    HW112168   8.535   5.876   1.023  2.0668 -1.4427  1.6762
 3387SOL    HW212169   8.655   5.833   0.941  0.7021  2.8271 -3.0840
 3388SOL     OW12170   0.805  11.032   4.572 -0.6682  0.7090 -0.6342
 3388SOL    HW112171   0.875  11.011   4.634 -2.3183 -1.1632  0.7546
 3388SOL    HW212172   0.788  11.125   4.586  1.8662  1.3773 -1.4562
 3389SOL     OW12173   2.828   2.976   8.599  0.4075  0.9155  0.2344
 3389SOL    HW112174   2.863   3.004   8.515 -0.4161  2.0682  0.2489
 3389SOL    HW212175   2.903   2.975   8.658  1.2842 -1.3291 -0.8133
 3390SOL     OW12176   1.619   3.762  10.249 -0.3917 -0.0837  0.1752
 3390SOL    HW112177   1.587   3.732  10.334  0.3212 -1.8293 -0.1315
 3390SOL    HW212178   1.714   3.768  10.259 -0.2331 -0.8808 -0.6352
 3391SOL     OW12179   1.546   4.231   3.489 -0.2867  0.3452  0.1151
 3391SOL    HW112180   1.487   4.282   3.434  0.7686 -0.6598 -2.0563
 3391SOL    HW212181   1.547   4.278   3.573 -2.0403  1.8778 -0.6586
 3392SOL     OW12182   9.315  10.282   5.092 -0.3194  0.1315 -0.0299
 3392SOL    HW112183   9.347  10.272   5.002  0.3267  0.6890  0.1278
 3392SOL    HW212184   9.328  10.374   5.112  1.0301 -0.2725  1.1748
 3393SOL     OW12185   4.377  10.181   4.921 -0.0236  0.7021  0.0076
 3393SOL    HW112186   4.391  10.272   4.896 -0.0530  1.0762  1.2634
 3393SOL    HW212187   4.430  10.130   4.860  1.9102  1.6989  0.7698
 3394SOL     OW12188   7.498   4.087   7.321 -0.3829  0.2948 -0.0452
 3394SOL    HW112189   7.585   4.095   7.283 -1.0557  1.6654 -1.4288
 3394SOL    HW212190   7.478   4.175   7.354 -0.9402 -0.1970  0.9690
 3395SOL     OW12191   6.570  11.008   9.501 -0.2741 -0.5976 -0.5538
 3395SOL    HW112192   6.489  10.968   9.470 -0.7983  0.7960 -1.0472
 3395SOL    HW212193   6.632  10.935   9.507 -2.2525 -2.2444  2.4619
 3396SOL     OW12194   2.511   1.149   4.207 -0.3052 -1.0507  0.5856
 3396SOL    HW112195   2.548   1.062   4.189 -1.7659 -1.6525  0.3760
 3396SOL    HW212196   2.433   1.131   4.259 -1.9667 -0.0680 -1.4365
 3397SOL     OW12197   3.822   6.034   4.380 -0.0761  0.6560 -0.8894
 3397SOL    HW112198   3.872   6.113   4.399 -0.2120  0.2573  1.4560
 3397SOL    HW212199   3.879   5.982   4.323  1.9637  0.5242  1.1131
 3398SOL     OW12200   9.789   2.018   8.926 -0.3389  0.1487 -0.4756
 3398SOL    HW112201   9.700   1.989   8.949 -0.7930  0.2809 -1.9359
 3398SOL    HW212202   9.845   1.946   8.955 -0.7577  0.5601  1.5262
 3399SOL     OW12203   7.232   1.340   9.926  0.2736 -0.2286 -0.2122
 3399SOL    HW112204   7.274   1.389   9.997  1.5787 -1.6127  0.0214
 3399SOL    HW212205   7.289   1.264   9.913 -0.6943 -0.7143 -1.8128
 3400SOL     OW12206   2.896   2.326   8.156  0.2399  0.0248 -0.6294
 3400SOL    HW112207   2.941   2.251   8.195  1.9745  1.2388 -0.1636
 3400SOL    HW212208   2.805   2.298   8.149  0.4668 -1.4357  1.2864
 3401SOL     OW12209   2.976   2.201   0.025 -0.0148 -0.4419  0.6696
 3401SOL    HW112210   2.912   2.201  -0.046  2.2089  0.9769 -1.5160
 3401SOL    HW212211   2.924   2.193   0.105 -3.2686  3.6212 -0.6851
 3402SOL     OW12212  10.133   8.433   7.561 -1.3131 -0.1642 -0.3498
 3402SOL    HW112213  10.211   8.395   7.602 -0.1274  0.6504 -1.7405
 3402SOL    HW212214  10.060   8.382   7.595 -0.2957 -0.2600  1.8543
 3403SOL     OW12215   2.975   6.000   3.010  0.0426 -0.2572  0.3726
 3403SOL    HW112216   2.904   6.048   3.051  1.1117  1.8641 -0.1433
 3403SOL    HW212217   2.953   5.908   3.025 -1.3241  0.3651  2.6976
 3404SOL     OW12218   6.596   0.516   7.241 -0.2614  1.0282 -0.0233
 3404SOL    HW112219   6.539   0.543   7.169  0.3155  1.1051 -0.4601
 3404SOL    HW212220   6.665   0.464   7.199 -1.3645 -1.2434  0.8058
 3405SOL     OW12221   4.501  11.011   2.591 -0.5554  0.3041 -0.3602
 3405SOL    HW112222   4.547  11.018   2.675  1.8178  0.6584 -1.5894
 3405SOL    HW212223   4.413  11.045   2.609 -0.4827 -0.6316  2.1955
 3406SOL     OW12224   2.302   7.818   5.450 -0.2307 -0.1818 -0.4169
 3406SOL    HW112225   2.349   7.822   5.534  1.3070 -1.1257 -1.1680
 3406SOL    HW212226   2.276   7.726   5.442 -0.7378 -0.0077 -0.7789
 3407SOL     OW12227   9.139   8.730   9.518 -0.1088 -0.5433 -0.2762
 3407SOL    HW112228   9.060   8.676   9.516  0.3954 -1.2930 -0.4592
 3407SOL    HW212229   9.211   8.667   9.524  0.5534  0.0538 -1.5396
 3408SOL     OW12230   2.171   9.850   3.331  0.7256 -0.0269  0.0512
 3408SOL    HW112231   2.120   9.872   3.253  0.9105 -0.0646 -0.0825
 3408SOL    HW212232   2.125   9.776   3.370 -0.1003  0.8034  0.6983
 3409SOL     OW12233   4.643   1.619   4.716  0.4630 -0.3460 -0.7853
 3409SOL    HW112234   4.550   1.639   4.707  0.2287 -0.5940  0.8356
 3409SOL    HW212235   4.661   1.558   4.644 -1.5495 -3.3139  1.0441
 3410SOL     OW12236   8.268   1.101   4.756  0.0831 -0.3884 -0.4186
 3410SOL    HW112237   8.278   1.194   4.778  0.6530 -0.3242 -0.9230
 3410SOL    HW212238   8.233   1.062   4.836  0.6806  0.1091  0.1023
 3411SOL     OW12239   9.941   9.515   3.026 -0.4727  0.0385  0.4783
 3411SOL    HW112240   9.943   9.423   3.000  0.1142 -0.0389  0.7659
 3411SOL    HW212241   9.971   9.514   3.117  1.0948  0.6518  0.0054
 3412SOL     OW12242   7.280   6.938   8.797  0.3636 -0.2049  0.8900
 3412SOL    HW112243   7.330   7.018   8.813 -0.1812  0.1477  0.8561
 3412SOL    HW212244   7.260   6.904   8.884  1.5117 -0.9000  0.9078
 3413SOL     OW12245   1.488   6.826   4.469 -0.4155  0.7476  0.4446
 3413SOL    HW112246   1.413   6.772   4.494 -0.3324  1.7140  3.0861
 3413SOL    HW212247   1.508   6.798   4.380 -2.5063 -1.1115  0.4504
 3414SOL     OW12248   7.995   4.858   7.729  0.2689  0.0590 -0.4229
 3414SOL    HW112249   7.916   4.804   7.727  0.1391  0.2143  0.1131
 3414SOL    HW212250   8.028   4.856   7.640 -0.1653 -0.2698 -0.5823
 3415SOL     OW12251   6.046   7.703   8.449 -0.1137 -0.2037 -0.6153
 3415SOL    HW112252   6.094   7.622   8.431 -0.2448 -0.0267 -1.9080
 3415SOL    HW212253   6.108   7.759   8.495 -0.3578 -1.4177  1.2869
 3416SOL     OW12254   3.028  10.347   2.992  0.1653 -0.3795 -0.0306
 3416SOL    HW112255   2.938  10.348   2.962  0.3165 -1.2471 -0.5584
 3416SOL    HW212256   3.039  10.429   3.041 -0.8721 -0.2324 -0.0350
 3417SOL     OW12257   1.901   7.049   5.097  0.0329 -0.0773 -0.3920
 3417SOL    HW112258   1.845   7.122   5.123  2.1062  1.8206 -0.9681
 3417SOL    HW212259   1.869   7.024   5.011  0.2570  1.2031 -0.8630
 3418SOL     OW12260   4.636   7.851   4.889  0.2035 -0.2293 -0.1097
 3418SOL    HW112261   4.662   7.769   4.847  0.7951 -0.5298  0.8159
 3418SOL    HW212262   4.688   7.918   4.845  0.2023 -0.4301 -0.4207
 3419SOL     OW12263   5.659   8.985   9.025  0.1536 -0.1682  0.7972
 3419SOL    HW112264   5.670   9.079   9.034  0.5260 -0.0542 -0.6588
 3419SOL    HW212265   5.582   8.965   9.078  0.3250  0.8824  1.4660
 3420SOL     OW12266   2.928   5.749   2.156  0.0252 -0.5044 -0.8521
 3420SOL    HW112267   2.876   5.763   2.236  0.5720 -1.5073 -0.2931
 3420SOL    HW212268   2.865   5.759   2.085 -0.6250 -0.2592 -0.2633
 3421SOL     OW12269   6.815   0.540   0.506 -0.2203 -0.2939  0.4409
 3421SOL    HW112270   6.726   0.510   0.523 -1.0704  1.8480  0.1741
 3421SOL    HW212271   6.817   0.630   0.539  2.2541 -0.6952  1.5947
 3422SOL     OW12272   1.912   0.689   0.976 -0.2739  0.3188 -0.2834
 3422SOL    HW112273   1.821   0.667   0.957 -0.1871  1.5888 -2.4246
 3422SOL    HW212274   1.907   0.756   1.044 -0.9311  0.5132 -0.5220
 3423SOL     OW12275   1.593   9.501   7.011 -0.4927 -0.6210  0.4694
 3423SOL    HW112276   1.670   9.468   7.058 -0.9715 -1.9629  0.3603
 3423SOL    HW212277   1.627   9.527   6.925  0.4328  2.0955  1.5855
 3424SOL     OW12278   0.570   6.880   2.450 -0.3267  0.5618  0.5218
 3424SOL    HW112279   0.512   6.909   2.379 -0.6977  0.1844  0.6636
 3424SOL    HW212280   0.658   6.895   2.417 -0.4584 -1.1218 -0.6768
 3425SOL     OW12281   2.871   9.491   7.646  0.5521 -0.8836 -0.8021
 3425SOL    HW112282   2.920   9.574   7.645  0.7395 -0.9824 -2.3985
 3425SOL    HW212283   2.798   9.506   7.586 -0.7791 -1.1161  0.7169
 3426SOL     OW12284   9.913   7.489   9.730  0.0854  0.4832  0.4893
 3426SOL    HW112285   9.865   7.473   9.649 -1.0175  3.5227  0.4148
 3426SOL    HW212286   9.847   7.520   9.791  1.3551  1.0241  1.6338
 3427SOL     OW12287   3.694  10.698   0.610 -0.7276  0.1633  0.0986
 3427SOL    HW112288   3.760  10.707   0.542 -0.1014 -0.3954  0.6277
 3427SOL    HW212289   3.687  10.785   0.649  2.8580 -0.5865  2.9388
 3428SOL     OW12290  10.332   3.328   4.310 -0.2796 -0.0175  0.4427
 3428SOL    HW112291  10.248   3.285   4.292  0.2388 -2.0070  2.3229
 3428SOL    HW212292  10.338   3.329   4.405  2.5769 -1.5607  0.3855
 3429SOL     OW12293   2.706   1.054   4.535  0.0156  0.2159  0.5606
 3429SOL    HW112294   2.755   1.119   4.485 -1.6789  1.8213  0.8725
 3429SOL    HW212295   2.711   1.085   4.625  0.3770 -0.9092  0.9460
 3430SOL     OW12296   2.962   9.011   2.959 -0.1030  0.8018  0.0497
 3430SOL    HW112297   2.888   9.042   2.906 -2.4881 -1.3974  1.8498
 3430SOL    HW212298   3.025   8.978   2.895 -1.2926  1.3918 -1.5057
 3431SOL     OW12299   1.865   4.965   5.430 -0.5602  0.5431 -0.2972
 3431SOL    HW112300   1.947   5.008   5.404 -0.6456  0.6056 -0.4659
 3431SOL    HW212301   1.819   4.950   5.348 -0.8737  0.8275 -0.1779
 3432SOL     OW12302   9.799   0.790   7.659  0.2691 -0.1099  0.1456
 3432SOL    HW112303   9.819   0.882   7.641 -1.4292  0.1933 -0.2845
 3432SOL    HW212304   9.813   0.746   7.575  1.7125 -0.3866  0.5042
 3433SOL     OW12305   1.822   8.745   4.767  0.2442 -0.3711 -0.0480
 3433SOL    HW112306   1.866   8.791   4.839 -1.5350  0.6711  0.4355
 3433SOL    HW212307   1.732   8.734   4.797 -0.0700 -1.6279 -1.3653
 3434SOL     OW12308   8.725   9.189   1.313  0.3911 -0.2476  0.6404
 3434SOL    HW112309   8.704   9.272   1.270 -0.2455 -0.9562 -0.4686
 3434SOL    HW212310   8.792   9.149   1.257  2.2122  0.4010  2.2554
 3435SOL     OW12311   0.193   4.226  10.770  0.3017  0.8149 -0.1745
 3435SOL    HW112312   0.197   4.141  10.813  1.5349  0.1530 -1.4927
 3435SOL    HW212313   0.280   4.264  10.784 -0.7582  2.7261  1.9587
 3436SOL     OW12314  10.088  11.006   0.029 -0.7229  0.2336 -0.3330
 3436SOL    HW112315  10.051  11.090   0.054  1.3197  1.1263 -0.0963
 3436SOL    HW212316  10.157  10.989   0.093 -1.4610 -1.9311 -0.0306
 3437SOL     OW12317   0.206   7.554   1.222 -0.3284 -0.4906  0.7008
 3437SOL    HW112318   0.293   7.529   1.252  1.4761  2.2534 -1.7014
 3437SOL    HW212319   0.213   7.556   1.127 -1.6184  3.7936  0.4670
 3438SOL     OW12320   2.721   9.040   8.290  0.5139 -0.2631  0.0551
 3438SOL    HW112321   2.720   9.136   8.299 -0.3994 -0.2812  0.2790
 3438SOL    HW212322   2.630   9.018   8.270  0.2630 -1.2964  2.1713
 3439SOL     OW12323   2.615   5.013  10.629 -0.1254  0.3523  0.5983
 3439SOL    HW112324   2.655   5.042  10.546 -0.5119 -0.9344 -0.0702
 3439SOL    HW212325   2.678   4.951  10.666 -0.4871  0.0102  0.6536
 3440SOL     OW12326   2.037   2.274   4.349  0.6194  0.2372 -0.1306
 3440SOL    HW112327   1.974   2.293   4.280  1.2244 -0.0261 -0.7585
 3440SOL    HW212328   2.042   2.179   4.353  2.6710  0.2186 -1.6789
 3441SOL     OW12329   5.387   3.562   2.329 -0.3439  0.0044 -0.7047
 3441SOL    HW112330   5.456   3.590   2.390 -1.0196 -1.8813  1.0781
 3441SOL    HW212331   5.329   3.638   2.322  1.1356  1.1457 -1.1251
 3442SOL     OW12332   1.034   0.139   7.568  0.0722  0.2657  0.1461
 3442SOL    HW112333   1.049   0.156   7.661  0.5834 -0.2963  0.1750
 3442SOL    HW212334   1.103   0.077   7.544 -0.1051  0.3455 -0.5896
 3443SOL     OW12335   0.818   6.964   6.490 -0.4131 -0.2818  0.0493
 3443SOL    HW112336   0.820   6.869   6.505  2.2271 -0.0571  1.9190
 3443SOL    HW212337   0.849   6.974   6.400 -0.7626 -1.1717 -0.1880
 3444SOL     OW12338   5.888   6.706   8.844  0.0535  0.0465 -0.0773
 3444SOL    HW112339   5.807   6.743   8.877 -0.2867  0.5571 -1.4174
 3444SOL    HW212340   5.884   6.613   8.869 -2.3869 -0.6649 -2.6200
 3445SOL     OW12341   1.226   7.564   6.134  0.1444 -0.3407 -0.1326
 3445SOL    HW112342   1.188   7.610   6.059  0.2294 -0.0054  0.0296
 3445SOL    HW212343   1.185   7.604   6.210  1.2449  0.4280  0.0735
 3446SOL     OW12344   2.117   3.367   9.017  0.2990  0.4089  0.1082
 3446SOL    HW112345   2.134   3.399   8.929 -0.0110  0.8966  0.2250
 3446SOL    HW212346   2.201   3.330   9.045 -0.1067 -1.5787 -1.1323
 3447SOL     OW12347   7.780   6.820   7.150 -0.1641 -0.2391 -0.1488
 3447SOL    HW112348   7.720   6.758   7.191 -0.5277 -0.4121 -0.9133
 3447SOL    HW212349   7.784   6.894   7.211 -2.2617  0.3968 -0.6819
 3448SOL     OW12350  10.430   8.349   1.034  0.2342  0.1705 -0.8021
 3448SOL    HW112351  10.367   8.376   0.966  0.8706  1.0522 -1.0654
 3448SOL    HW212352  10.503   8.411   1.024  1.4363 -1.2243 -0.9168
 3449SOL     OW12353  10.667   9.571   5.176 -0.9685  0.3147 -0.6569
 3449SOL    HW112354  10.618   9.626   5.114 -0.3905  0.2263 -1.2086
 3449SOL    HW212355  10.752   9.615   5.185 -0.9051  0.1069 -0.2457
 3450SOL     OW12356   1.723   0.916   9.121 -0.2927  0.1355 -0.5973
 3450SOL    HW112357   1.767   0.881   9.043 -1.3912 -3.1162  0.0620
 3450SOL    HW212358   1.631   0.896   9.107 -1.1283  3.3138 -0.2297
 3451SOL     OW12359   0.799   5.996   8.158  0.3732  0.4598  0.0181
 3451SOL    HW112360   0.849   6.021   8.235  0.0404  0.3457  0.2737
 3451SOL    HW212361   0.781   5.903   8.169  0.8183  0.3098 -0.4827
 3452SOL     OW12362   8.428   7.818   7.442  0.7159  0.6746  0.2443
 3452SOL    HW112363   8.487   7.743   7.447 -0.2741 -0.3874 -2.3260
 3452SOL    HW212364   8.450   7.861   7.360 -2.9795 -0.7235 -1.7479
 3453SOL     OW12365   1.193   2.581   2.354  0.2158 -0.0929 -0.0100
 3453SOL    HW112366   1.256   2.512   2.373  1.8760  1.5504  0.7765
 3453SOL    HW212367   1.223   2.656   2.406 -2.2776  0.8418  0.2190
 3454SOL     OW12368   5.150   8.210   6.285 -0.3022  0.0359 -0.2466
 3454SOL    HW112369   5.222   8.253   6.238  0.2520 -1.6813 -1.0982
 3454SOL    HW212370   5.194   8.149   6.344 -1.0494 -0.6322 -0.3644
 3455SOL     OW12371   4.530   4.470   6.247 -0.4660  0.2237 -0.4271
 3455SOL    HW112372   4.464   4.499   6.183 -0.5292  0.3380 -0.3108
 3455SOL    HW212373   4.538   4.376   6.233  2.4034  0.7341 -3.3395
 3456SOL     OW12374   7.400   3.433   3.257  0.2691  0.0307 -0.8311
 3456SOL    HW112375   7.327   3.375   3.279 -0.5550 -0.0966 -3.5276
 3456SOL    HW212376   7.476   3.393   3.300 -0.9826 -0.5789  0.9275
 3457SOL     OW12377   7.585   9.666   3.240  0.3232  0.0075  0.2242
 3457SOL    HW112378   7.616   9.667   3.331 -0.2496 -0.0297  0.4267
 3457SOL    HW212379   7.662   9.645   3.188  1.0883  1.8778  0.5210
 3458SOL     OW12380   3.519   8.240   6.057  0.1953 -0.2075  0.1578
 3458SOL    HW112381   3.539   8.157   6.102  0.5842 -1.2197 -1.7827
 3458SOL    HW212382   3.437   8.223   6.012  0.8392  0.0691 -1.1518
 3459SOL     OW12383   2.947   2.836   3.827 -0.1465 -0.1649 -0.1952
 3459SOL    HW112384   2.857   2.831   3.794  0.2663  0.2344 -1.4241
 3459SOL    HW212385   2.999   2.865   3.752  0.8488  0.6708  0.7861
 3460SOL     OW12386   9.299   0.543   5.499  1.0237 -0.5019  0.3786
 3460SOL    HW112387   9.248   0.514   5.574  0.6450 -0.9594 -0.0432
 3460SOL    HW212388   9.260   0.627   5.473  0.2346 -1.0264 -0.1646
 3461SOL     OW12389  10.702   6.674   8.060 -0.1456  0.4587 -0.5146
 3461SOL    HW112390  10.713   6.761   8.021  2.2814 -0.5031 -2.2052
 3461SOL    HW212391  10.710   6.614   7.986 -0.5056 -1.2854  0.8025
 3462SOL     OW12392   7.207   5.794   7.582 -0.1639 -0.3747 -0.3755
 3462SOL    HW112393   7.226   5.753   7.497  0.5972 -2.2701  0.6635
 3462SOL    HW212394   7.191   5.886   7.560  0.5233 -0.6950 -2.5124
 3463SOL     OW12395   5.170   5.620   3.553  0.2883  0.9132  0.4399
 3463SOL    HW112396   5.217   5.683   3.609  0.8313  1.7773 -0.9327
 3463SOL    HW212397   5.086   5.662   3.536  0.8717  1.5830 -0.9503
 3464SOL     OW12398   4.387   6.956   6.417  0.3286  0.3535  0.4725
 3464SOL    HW112399   4.343   7.039   6.399  0.7913  0.6077  0.5146
 3464SOL    HW212400   4.317   6.890   6.408 -0.1177  0.7738  0.7907
 3465SOL     OW12401   7.339   7.367   6.263  0.0765  0.3655 -0.0410
 3465SOL    HW112402   7.298   7.443   6.305  0.0629  1.1855 -1.4864
 3465SOL    HW212403   7.429   7.368   6.294 -0.0276  0.7521  0.2567
 3466SOL     OW12404   8.381  10.699   8.504 -0.2324  0.2949  0.1197
 3466SOL    HW112405   8.475  10.684   8.509  0.5704  3.7055 -1.8871
 3466SOL    HW212406   8.345  10.649   8.578  3.2277 -0.2967  1.5933
 3467SOL     OW12407   9.874   7.552   0.647  0.1510 -0.4671 -0.1448
 3467SOL    HW112408   9.963   7.517   0.646  0.7446  0.8321  1.7231
 3467SOL    HW212409   9.854   7.565   0.740 -0.3568  3.1057 -0.6003
 3468SOL     OW12410   4.138   1.291   3.878 -0.4402 -0.4141 -0.6751
 3468SOL    HW112411   4.051   1.280   3.915 -0.3526  1.7393  0.2826
 3468SOL    HW212412   4.190   1.221   3.918 -1.2469 -0.4445  0.3585
 3469SOL     OW12413   1.345   9.590   1.674 -0.3548 -0.0752  0.5323
 3469SOL    HW112414   1.390   9.587   1.759 -0.2849 -0.3907  0.4862
 3469SOL    HW212415   1.287   9.666   1.681  1.8392  1.8203 -0.2376
 3470SOL     OW12416   9.676   4.933   8.362  0.2113  0.3657 -0.0557
 3470SOL    HW112417   9.636   5.013   8.396  0.3491  0.2295  0.4463
 3470SOL    HW212418   9.612   4.864   8.384  0.5906  0.1843  0.5157
 3471SOL     OW12419   2.875   6.819   4.223 -0.4859 -0.6352  0.0374
 3471SOL    HW112420   2.967   6.829   4.247 -0.9911  0.6610  1.5800
 3471SOL    HW212421   2.872   6.736   4.176  1.4625 -0.7168 -0.0354
 3472SOL     OW12422   0.934   3.273   0.998  0.2718  0.1687  0.1735
 3472SOL    HW112423   0.935   3.275   1.094 -2.5530  2.3899  0.2881
 3472SOL    HW212424   0.856   3.224   0.976  0.1235  0.8917 -0.9595
 3473SOL     OW12425   0.541   0.706   6.223  0.0969 -0.3013  0.8407
 3473SOL    HW112426   0.460   0.752   6.200  1.4090  1.2271 -1.0280
 3473SOL    HW212427   0.515   0.614   6.230 -1.6572  0.0225 -0.5430
 3474SOL     OW12428   3.289   8.194   7.474  0.0546  0.8286  0.1443
 3474SOL    HW112429   3.371   8.152   7.448 -1.0581  0.8843 -4.1443
 3474SOL    HW212430   3.307   8.287   7.471  0.0506  0.8288  0.1381
 3475SOL     OW12431  10.538   6.924   3.097  0.5216 -0.1269 -0.5235
 3475SOL    HW112432  10.536   6.996   3.160 -2.5094 -0.7875  0.2965
 3475SOL    HW212433  10.555   6.846   3.149  2.4955 -0.2012 -1.2256
 3476SOL     OW12434   9.299   5.499   2.675  0.1053  0.0966  0.0920
 3476SOL    HW112435   9.309   5.538   2.762  1.2671  0.6360 -0.2654
 3476SOL    HW212436   9.204   5.489   2.664 -0.0086 -1.5821  2.0886
 3477SOL     OW12437   4.878   9.134   8.204 -0.5711  0.2063  0.2669
 3477SOL    HW112438   4.873   9.229   8.207 -0.9016  0.2050 -0.0997
 3477SOL    HW212439   4.942   9.111   8.272 -2.0002  0.5723  1.8249
 3478SOL     OW12440   5.666   0.056   6.054  0.1208 -0.0801 -0.5808
 3478SOL    HW112441   5.624  -0.029   6.068 -1.9003  1.1346  1.3425
 3478SOL    HW212442   5.724   0.066   6.130 -0.7150  0.8330 -0.0466
 3479SOL     OW12443   0.137   7.966   8.561 -0.1041  0.0685 -0.4511
 3479SOL    HW112444   0.128   7.923   8.476 -0.9472  1.3275 -1.0319
 3479SOL    HW212445   0.071   7.925   8.617 -1.9746  1.5884 -1.4438
 3480SOL     OW12446   0.204   1.938   7.091 -0.3468 -0.4406 -0.1549
 3480SOL    HW112447   0.223   1.882   7.016  4.2155  0.7354 -0.2122
 3480SOL    HW212448   0.125   1.987   7.066  0.3198 -0.9269 -3.7088
 3481SOL     OW12449   0.359   1.407   3.226 -0.0356 -0.0294  0.0182
 3481SOL    HW112450   0.411   1.331   3.198 -0.6624  0.0864 -1.5541
 3481SOL    HW212451   0.410   1.483   3.198 -1.1257  0.0838 -1.7985
 3482SOL     OW12452   7.641   9.009   6.820 -0.0629 -0.8549  0.3595
 3482SOL    HW112453   7.696   9.043   6.750 -1.3406  0.1794 -0.1789
 3482SOL    HW212454   7.614   8.922   6.789  0.2898 -0.8676  0.0850
 3483SOL     OW12455   9.399   2.564   9.007  0.1926  0.2817 -0.1030
 3483SOL    HW112456   9.402   2.566   9.102 -2.3299  0.1345  0.0311
 3483SOL    HW212457   9.446   2.484   8.983  0.2727 -0.0274  1.0437
 3484SOL     OW12458   9.748   1.818   3.071  0.2715 -1.1026 -0.7803
 3484SOL    HW112459   9.778   1.774   3.150 -3.4107 -1.9917  0.3247
 3484SOL    HW212460   9.653   1.817   3.078 -0.1374  1.7061 -3.7036
 3485SOL     OW12461   1.785   8.659   2.801  0.0475  0.4712  1.2046
 3485SOL    HW112462   1.797   8.744   2.759 -0.2691  1.0427  2.2312
 3485SOL    HW212463   1.870   8.616   2.794  0.5256  1.3222  1.6200
 3486SOL     OW12464   9.537   7.347   8.454  0.1020 -0.0674  0.0597
 3486SOL    HW112465   9.536   7.432   8.497 -0.8101  0.3341 -0.7375
 3486SOL    HW212466   9.492   7.288   8.514 -0.4894  0.3238  0.0017
 3487SOL     OW12467   8.443   4.778   0.861  0.1364 -0.2840 -0.7729
 3487SOL    HW112468   8.371   4.716   0.851  0.3295 -0.4983 -0.8454
 3487SOL    HW212469   8.489   4.775   0.777 -0.7311  1.0803 -1.3313
 3488SOL     OW12470   8.642   6.389   4.148  0.1931  0.4150 -0.1085
 3488SOL    HW112471   8.648   6.389   4.053 -1.0734 -1.9537 -0.2525
 3488SOL    HW212472   8.731   6.409   4.178  0.3269  2.5747 -1.7235
 3489SOL     OW12473   0.391   6.622   2.666  1.0435  0.1935  0.8251
 3489SOL    HW112474   0.357   6.693   2.612 -0.7884 -0.3217  1.2164
 3489SOL    HW212475   0.339   6.546   2.641  2.9314 -1.0333  0.4565
 3490SOL     OW12476   9.212   0.991   8.638 -0.1759  0.0712 -0.7845
 3490SOL    HW112477   9.148   0.926   8.610 -1.0111  0.4442  0.1761
 3490SOL    HW212478   9.163   1.073   8.644  0.7581  0.7172 -1.5513
 3491SOL     OW12479   9.031   6.715   4.631  0.3921 -0.2052 -0.8232
 3491SOL    HW112480   9.045   6.777   4.703 -0.8815 -0.8596  0.0414
 3491SOL    HW212481   9.109   6.723   4.577  1.2176  0.5974  0.4186
 3492SOL     OW12482   0.541   2.701   5.441 -0.4262 -0.8728 -0.0162
 3492SOL    HW112483   0.534   2.771   5.506  5.1612  0.1612 -0.0013
 3492SOL    HW212484   0.558   2.622   5.493  1.2157 -0.5811 -0.0490
 3493SOL     OW12485   6.687   6.501   0.023 -0.0088  0.1034 -0.5944
 3493SOL    HW112486   6.721   6.590   0.038  1.6390 -0.4934 -0.5782
 3493SOL    HW212487   6.677   6.497  -0.072 -1.9995  0.9323 -0.4695
 3494SOL     OW12488   0.159   1.539  10.692  0.0075  0.1714  0.0237
 3494SOL    HW112489   0.121   1.469  10.639  0.7917 -0.1374 -0.1553
 3494SOL    HW212490   0.138   1.515  10.782  2.1721 -1.5667  0.1666
 3495SOL     OW12491   4.232   3.440   8.786  0.5266  0.5728  0.8609
 3495SOL    HW112492   4.145   3.440   8.746  0.2350 -0.1995  1.4827
 3495SOL    HW212493   4.246   3.350   8.814  0.0832  1.3453  3.8494
 3496SOL     OW12494   3.333   5.661   5.880  0.2869  0.0961  0.0665
 3496SOL    HW112495   3.320   5.755   5.883  2.9812  0.5195  1.6227
 3496SOL    HW212496   3.339   5.634   5.972 -0.1818 -1.5562 -0.3469
 3497SOL     OW12497   2.154   7.465   8.692 -0.0085  0.4554 -1.1082
 3497SOL    HW112498   2.234   7.463   8.640 -0.8748 -1.7214 -2.5168
 3497SOL    HW212499   2.088   7.503   8.633 -0.0608  2.2445  0.0375
 3498SOL     OW12500   3.304   6.879   5.364 -0.2236 -0.0748 -0.1530
 3498SOL    HW112501   3.279   6.847   5.451 -0.0071 -0.8733 -0.3690
 3498SOL    HW212502   3.261   6.964   5.356 -0.2347  0.0162  0.7409
 3499SOL     OW12503   8.058   3.416   9.738 -0.3634 -0.6433  0.4781
 3499SOL    HW112504   8.114   3.398   9.662  0.2005 -0.0249  0.7343
 3499SOL    HW212505   8.039   3.330   9.775 -1.9109 -1.0916 -1.2431
 3500SOL     OW12506   7.628   0.553   4.627  0.5152 -0.3045  0.0362
 3500SOL    HW112507   7.716   0.538   4.661  1.4699  2.0228 -1.1975
 3500SOL    HW212508   7.640   0.572   4.534 -0.9885  2.1868  0.2558
 3501SOL     OW12509   9.339  10.998   1.730 -0.4912 -0.4485  0.1819
 3501SOL    HW112510   9.273  10.957   1.675 -0.2455 -0.9405  0.2482
 3501SOL    HW212511   9.412  11.015   1.671 -0.0088 -1.4857  0.4507
 3502SOL     OW12512   5.408   7.803   8.763 -0.1248  0.8825 -0.7856
 3502SOL    HW112513   5.455   7.779   8.843 -1.2408 -1.4609 -0.7636
 3502SOL    HW212514   5.478   7.824   8.700  0.8132  1.0895  0.2935
 3503SOL     OW12515   1.669   5.358  11.026 -0.5870  0.0156  0.0372
 3503SOL    HW112516   1.620   5.353  11.108 -1.2806 -0.3233 -0.3941
 3503SOL    HW212517   1.631   5.433  10.979  1.1803  1.5259  0.8902
 3504SOL     OW12518   4.524   5.905   5.108  0.5417  0.4028 -0.2143
 3504SOL    HW112519   4.576   5.861   5.175  0.9667  0.0984 -0.7439
 3504SOL    HW212520   4.584   5.969   5.069 -0.3453  2.2385  1.2623
 3505SOL     OW12521   5.835   7.028   9.098  0.2439 -0.7576  0.1208
 3505SOL    HW112522   5.747   6.993   9.107 -1.0695  1.0843 -3.6372
 3505SOL    HW212523   5.825   7.122   9.117  1.5374 -0.6031  0.1277
 3506SOL     OW12524   7.856   7.294  10.766 -0.2096  0.0184  0.1348
 3506SOL    HW112525   7.847   7.293  10.671 -1.2997  0.4881  0.2226
 3506SOL    HW212526   7.912   7.369  10.785 -2.0815  1.5007  0.0050
 3507SOL     OW12527   1.569   4.019   0.311  0.1410 -0.2489 -0.1572
 3507SOL    HW112528   1.495   4.021   0.250 -0.7183  0.3503  0.8554
 3507SOL    HW212529   1.558   4.098   0.364 -0.3120 -1.7168  2.0809
 3508SOL     OW12530   1.590   1.338   2.941 -0.1627  0.4311  0.7856
 3508SOL    HW112531   1.568   1.365   3.030 -1.0272  1.0052  0.4104
 3508SOL    HW212532   1.539   1.396   2.884 -1.2158 -1.2550 -0.0704
 3509SOL     OW12533   8.703   1.355  11.088 -0.0737  0.0782  0.3139
 3509SOL    HW112534   8.614   1.345  11.121 -0.5779 -1.8322 -1.4339
 3509SOL    HW212535   8.723   1.270  11.048  3.9515 -1.0241  3.8807
 3510SOL     OW12536   9.399   9.127   7.865  0.2823  0.2387 -0.2181
 3510SOL    HW112537   9.446   9.170   7.937  1.0934 -0.9183 -0.0239
 3510SOL    HW212538   9.314   9.171   7.863  0.6644  1.0762  0.6945
 3511SOL     OW12539   5.148  11.100   8.906 -0.0986  0.4603  0.5771
 3511SOL    HW112540   5.158  11.137   8.994 -0.6064 -0.0194  0.8458
 3511SOL    HW212541   5.056  11.114   8.885  0.2079  1.3546 -0.2448
 3512SOL     OW12542   1.608   5.162   7.262  0.2074  0.6672 -0.1889
 3512SOL    HW112543   1.556   5.217   7.321  0.9890  1.2793 -0.0512
 3512SOL    HW212544   1.636   5.088   7.317  3.9065  2.9231  1.4130
 3513SOL     OW12545   9.730   5.984   9.801 -0.1252  0.6015  0.6882
 3513SOL    HW112546   9.812   5.939   9.784  0.0087  0.3406  1.8894
 3513SOL    HW212547   9.741   6.023   9.888 -1.2244  0.6407  0.8324
 3514SOL     OW12548   8.070   0.598   2.550 -0.0888  0.1280 -0.5099
 3514SOL    HW112549   8.064   0.690   2.523 -0.6691  0.6729  1.3335
 3514SOL    HW212550   7.980   0.567   2.547 -0.1914  0.2424  0.8246
 3515SOL     OW12551   3.082   6.976   1.663 -0.3382 -0.4212 -0.4766
 3515SOL    HW112552   3.039   6.982   1.748  0.2393 -1.0529 -0.1319
 3515SOL    HW212553   3.126   6.891   1.664  1.7064  0.5741 -0.4333
 3516SOL     OW12554   0.534   0.423   5.679 -0.4802  0.0603 -0.1795
 3516SOL    HW112555   0.603   0.482   5.709 -1.6897  0.3527  2.2403
 3516SOL    HW212556   0.455   0.476   5.681 -1.5038 -1.4369  1.4908
 3517SOL     OW12557   2.388   9.761  10.449 -0.2653  0.3862 -0.0572
 3517SOL    HW112558   2.314   9.741  10.507  0.6234 -3.0733  0.1162
 3517SOL    HW212559   2.352   9.758  10.361 -0.0335 -5.1027 -0.3207
 3518SOL     OW12560   7.024   2.857   8.442 -0.1000  0.4255  0.0146
 3518SOL    HW112561   7.092   2.791   8.435 -0.2948  0.2739 -0.4804
 3518SOL    HW212562   6.942   2.809   8.427 -0.2198  0.8346 -0.6415
 3519SOL     OW12563   2.971   3.135   5.886 -0.0859  0.3302  0.7194
 3519SOL    HW112564   3.054   3.103   5.922 -0.4404  0.0274  1.2796
 3519SOL    HW212565   2.966   3.094   5.799 -0.3279 -0.8287  1.2558
 3520SOL     OW12566   5.097  10.209   3.159  0.2732 -0.4877 -0.5724
 3520SOL    HW112567   5.044  10.222   3.238 -0.8096  0.2897 -1.3992
 3520SOL    HW212568   5.043  10.153   3.103 -0.5660  1.7837 -2.1851
 3521SOL     OW12569   4.149   6.791   8.940  0.1748  0.4178 -0.3688
 3521SOL    HW112570   4.099   6.731   8.995  3.3347 -0.8352  1.4334
 3521SOL    HW212571   4.087   6.821   8.874 -2.0635 -3.5448 -0.3802
 3522SOL     OW12572   9.144  10.867   3.484 -0.7784  0.4217 -0.3677
 3522SOL    HW112573   9.049  10.861   3.486 -0.7309 -0.1694  0.2313
 3522SOL    HW212574   9.164  10.952   3.524 -0.9382 -0.7891  2.5124
 3523SOL     OW12575   3.191   2.525   5.173 -0.1845  0.0199 -0.4396
 3523SOL    HW112576   3.118   2.569   5.128 -1.0693 -1.8650 -0.9341
 3523SOL    HW212577   3.228   2.467   5.107  0.8206 -0.1446  0.2547
 3524SOL     OW12578   9.934   0.470   4.081 -0.0319  0.3921 -0.3146
 3524SOL    HW112579   9.942   0.526   4.004  0.2291  0.4747 -0.2296
 3524SOL    HW212580   9.921   0.382   4.046  0.4425  0.3789 -0.4561
 3525SOL     OW12581   9.128   1.491   6.151  0.5488 -0.7266  0.3240
 3525SOL    HW112582   9.190   1.555   6.186 -0.0055 -0.8597  1.6170
 3525SOL    HW212583   9.043   1.534   6.160 -0.0954 -2.3172  3.1103
 3526SOL     OW12584   3.984   3.973  10.534 -0.5912  0.1566  0.2833
 3526SOL    HW112585   3.946   3.906  10.591  0.0276  0.4545  1.0645
 3526SOL    HW212586   3.932   3.969  10.453 -1.9120  0.1742  1.1090
 3527SOL     OW12587   5.384   4.130   5.457  0.1038  0.0503  0.7264
 3527SOL    HW112588   5.388   4.221   5.429  1.8939 -0.2340 -0.0498
 3527SOL    HW212589   5.425   4.128   5.543  0.9356 -0.1614  0.3306
 3528SOL     OW12590   0.729   6.703   9.222 -0.4591 -0.0612 -0.3848
 3528SOL    HW112591   0.757   6.786   9.260 -2.6802  0.8701 -0.5929
 3528SOL    HW212592   0.745   6.712   9.128  2.0012 -1.0771 -0.1239
 3529SOL     OW12593   3.451  10.422   7.244 -0.5468 -0.2230  0.0107
 3529SOL    HW112594   3.402  10.349   7.206  1.2158 -1.8283  0.6640
 3529SOL    HW212595   3.492  10.385   7.322 -1.0305  1.9819  1.3873
 3530SOL     OW12596   0.345   1.733   8.836  0.2405 -0.4045 -0.2921
 3530SOL    HW112597   0.321   1.677   8.762 -2.9895  1.8804 -1.1535
 3530SOL    HW212598   0.279   1.715   8.903  0.6149  0.5744  0.3666
 3531SOL     OW12599   3.487   9.299   8.936  0.1355  0.2751 -0.3538
 3531SOL    HW112600   3.548   9.228   8.918  1.5936  1.9893 -2.7173
 3531SOL    HW212601   3.498   9.316   9.030  2.7229 -0.0657 -0.5155
 3532SOL     OW12602   2.348   3.095   6.671  0.6120  0.5276  1.0491
 3532SOL    HW112603   2.349   3.109   6.577 -0.9877  1.3648  1.1279
 3532SOL    HW212604   2.383   3.176   6.708  0.1732  0.6419  1.2146
 3533SOL     OW12605   5.232   0.647   6.572  0.2242  0.1289  0.5230
 3533SOL    HW112606   5.239   0.584   6.644  1.9035 -3.2261 -2.2513
 3533SOL    HW212607   5.152   0.621   6.526  0.6491  0.3432 -0.3564
 3534SOL     OW12608   5.326   2.193   1.145 -0.0762 -0.7904 -0.2996
 3534SOL    HW112609   5.364   2.164   1.228  1.1982 -2.9657 -1.5340
 3534SOL    HW212610   5.395   2.246   1.105 -0.1953 -0.7988 -0.5151
 3535SOL     OW12611   2.374   6.725   6.402 -0.5354  0.1899  0.0045
 3535SOL    HW112612   2.347   6.816   6.412 -1.4500  0.1637 -1.8614
 3535SOL    HW212613   2.324   6.678   6.469  0.3002  1.0698  1.3178
 3536SOL     OW12614   7.388   5.188   9.589 -0.4874 -0.0972  0.7825
 3536SOL    HW112615   7.329   5.253   9.550 -0.0370  0.2905  0.7482
 3536SOL    HW212616   7.418   5.136   9.514 -0.4320 -0.0103  0.7448
 3537SOL     OW12617   1.149   0.831   0.764 -0.3585 -0.4224 -0.3328
 3537SOL    HW112618   1.084   0.770   0.798  0.8989 -0.6530  1.7804
 3537SOL    HW212619   1.155   0.900   0.830 -0.1249  0.8373 -1.6152
 3538SOL     OW12620   4.141  10.549   5.011  0.6075  0.2319  1.2820
 3538SOL    HW112621   4.115  10.554   4.919  1.0622 -0.9134  1.0757
 3538SOL    HW212622   4.228  10.590   5.013  0.7098  0.0257  1.1476
 3539SOL     OW12623   0.343   0.821   5.198  0.5455  0.3880 -0.4444
 3539SOL    HW112624   0.344   0.842   5.104 -0.5579 -0.4350 -0.6667
 3539SOL    HW212625   0.401   0.886   5.238  1.0953  0.7058 -1.7033
 3540SOL     OW12626   1.518   5.971   4.705  0.2716 -0.1686 -0.3774
 3540SOL    HW112627   1.572   6.028   4.760  0.4467 -0.7925  0.1053
 3540SOL    HW212628   1.434   6.018   4.698  0.9628  0.9723 -1.4221
 3541SOL     OW12629   0.667   3.725   6.730  0.4591 -0.1557 -0.4474
 3541SOL    HW112630   0.646   3.780   6.655  0.2626  0.0606 -0.2356
 3541SOL    HW212631   0.754   3.754   6.758  0.0339  0.5700  0.1329
 3542SOL     OW12632   7.961   6.861   7.667 -0.2424  0.1132  0.4401
 3542SOL    HW112633   7.914   6.944   7.679 -1.9319 -0.2369 -2.7135
 3542SOL    HW212634   7.930   6.806   7.739 -0.2882  1.7088  1.6938
 3543SOL     OW12635  10.886  10.900   3.218  0.3100  0.6926 -0.0406
 3543SOL    HW112636  10.967  10.889   3.168 -0.5601 -1.3636 -1.1011
 3543SOL    HW212637  10.829  10.952   3.161 -0.1300 -0.3380 -0.5607
 3544SOL     OW12638   4.457   3.857   1.586  0.5518  0.4479  0.0172
 3544SOL    HW112639   4.506   3.879   1.665  2.1299 -0.0567 -0.7720
 3544SOL    HW212640   4.465   3.762   1.578  1.1250  0.5758 -1.1712
 3545SOL     OW12641   1.742   6.152   2.824 -0.2096  0.2499  0.2384
 3545SOL    HW112642   1.773   6.141   2.914  3.2057  0.2671 -0.7793
 3545SOL    HW212643   1.722   6.063   2.795  2.8484 -0.4209 -0.1831
 3546SOL     OW12644   3.895   2.899   3.819 -0.6636 -0.1002 -0.4926
 3546SOL    HW112645   3.801   2.897   3.804 -0.4897  0.6061 -1.8606
 3546SOL    HW212646   3.920   2.807   3.830 -1.9722 -0.1549  3.4991
 3547SOL     OW12647   1.870   4.711   7.033 -0.5599  0.7387  0.2998
 3547SOL    HW112648   1.784   4.749   7.011 -1.5140 -1.2922  0.3387
 3547SOL    HW212649   1.878   4.636   6.975  1.5936  1.3240 -0.2447
 3548SOL     OW12650   8.450   9.163   0.868  0.4853  0.0771 -0.4500
 3548SOL    HW112651   8.510   9.215   0.922  1.8245 -0.0860 -1.7445
 3548SOL    HW212652   8.471   9.072   0.891  0.9918  0.0104 -1.1387
 3549SOL     OW12653   5.624   0.384   1.282  0.4538  0.0997  0.0951
 3549SOL    HW112654   5.609   0.334   1.202 -1.6394 -1.1224  1.1518
 3549SOL    HW212655   5.670   0.323   1.340 -1.3859 -0.4165  1.0985
 3550SOL     OW12656   1.589   7.197   4.189 -0.6204 -0.1207  0.3024
 3550SOL    HW112657   1.586   7.244   4.106  0.2136 -1.2299 -0.3925
 3550SOL    HW212658   1.504   7.153   4.195 -0.8503  0.3143  0.2555
 3551SOL     OW12659   3.606   0.131   1.157 -0.0818 -0.3567  0.0080
 3551SOL    HW112660   3.514   0.117   1.133 -0.0478 -0.1879 -0.2170
 3551SOL    HW212661   3.607   0.217   1.199  0.1534  0.1082 -0.9414
 3552SOL     OW12662   9.387   5.019   8.786 -0.3491  0.2611 -0.1654
 3552SOL    HW112663   9.319   5.024   8.853  1.0976  2.1999  1.2510
 3552SOL    HW212664   9.362   5.084   8.721 -1.1730 -0.8669 -1.0342
 3553SOL     OW12665   1.783   6.208  10.716 -0.1314  0.1561  0.0770
 3553SOL    HW112666   1.799   6.303  10.722  0.6087 -0.0005  0.9026
 3553SOL    HW212667   1.833   6.180  10.640 -1.0914  0.5567 -0.7289
 3554SOL     OW12668   9.415   9.735   0.134  0.1709 -0.6045  0.4377
 3554SOL    HW112669   9.388   9.655   0.180 -0.1227  0.6587  2.6209
 3554SOL    HW212670   9.497   9.760   0.176  0.0178  0.4889  0.1247
 3555SOL     OW12671   1.510   9.863   6.596 -0.4566  0.1171  0.3154
 3555SOL    HW112672   1.508   9.945   6.547  0.3290  0.1770  0.3757
 3555SOL    HW212673   1.423   9.826   6.583  0.0193 -0.3363 -1.9076
 3556SOL     OW12674   1.909   7.340   3.954 -0.2953 -0.6208 -0.1866
 3556SOL    HW112675   1.964   7.270   3.917 -0.0134  0.0067 -0.9803
 3556SOL    HW212676   1.962   7.379   4.023  0.3661  0.1441 -1.1145
 3557SOL     OW12677   9.582   0.535   0.202 -0.0545  0.1411  0.3703
 3557SOL    HW112678   9.515   0.596   0.234 -1.4507 -1.5600  0.8785
 3557SOL    HW212679   9.599   0.563   0.112 -1.5620  0.5533  0.1848
 3558SOL     OW12680  10.185   9.516   3.866 -0.0125  0.8183  1.0492
 3558SOL    HW112681  10.132   9.581   3.821  1.2306  1.1822  0.0260
 3558SOL    HW212682  10.276   9.543   3.848  0.5529 -1.3981  0.2350
 3559SOL     OW12683   8.912   2.499   7.854 -0.6542 -0.2409 -0.2451
 3559SOL    HW112684   8.869   2.479   7.937  0.4091  0.7677  0.5768
 3559SOL    HW212685   9.001   2.523   7.878 -1.0957  3.0462 -1.2920
 3560SOL     OW12686   6.111   6.601   7.835 -0.5903  0.5117  0.2282
 3560SOL    HW112687   6.159   6.657   7.896 -2.7583 -0.2928  2.9081
 3560SOL    HW212688   6.020   6.631   7.841 -1.8272 -2.9916  1.6978
 3561SOL     OW12689   9.905   8.280   1.571  0.5357  0.4004 -0.8536
 3561SOL    HW112690   9.961   8.358   1.574  0.5011  0.3938  0.7798
 3561SOL    HW212691   9.953   8.219   1.515  2.3475  0.2983  0.6979
 3562SOL     OW12692   0.287   3.926   8.983  0.5751 -0.4777  0.1668
 3562SOL    HW112693   0.251   3.851   9.031  0.0273 -0.6194 -0.4376
 3562SOL    HW212694   0.369   3.893   8.945  0.6023 -0.6105  0.3394
 3563SOL     OW12695   2.160   4.946   3.629 -0.1701  0.2045  0.0331
 3563SOL    HW112696   2.155   4.850   3.633  0.7340  0.0720 -1.2549
 3563SOL    HW212697   2.071   4.974   3.609 -1.0582 -0.1346  3.0952
 3564SOL     OW12698   5.876   9.061   0.577 -0.2594  0.2654 -0.6846
 3564SOL    HW112699   5.971   9.049   0.575 -0.1760  0.6580  0.3963
 3564SOL    HW212700   5.862   9.141   0.626 -1.1646  0.1845 -0.7757
 3565SOL     OW12701   7.236   2.166   4.074 -0.3808  0.2765  0.4367
 3565SOL    HW112702   7.223   2.257   4.098 -1.6394  0.1701  0.1996
 3565SOL    HW212703   7.212   2.116   4.152  1.4172  0.1642  0.9657
 3566SOL     OW12704   9.444   4.402   8.052  0.7134 -0.6545  0.5242
 3566SOL    HW112705   9.520   4.349   8.026  1.2660  0.5489 -0.4141
 3566SOL    HW212706   9.386   4.400   7.976 -0.2633 -1.6210  1.2622
 3567SOL     OW12707   2.998   8.197   8.113 -0.0267 -0.6442  0.7431
 3567SOL    HW112708   3.073   8.138   8.113 -0.7751 -1.6178 -0.0500
 3567SOL    HW212709   2.937   8.159   8.176 -0.1090 -0.1691  0.9594
 3568SOL     OW12710   3.144   9.939   0.896  0.2253 -0.2755 -0.5824
 3568SOL    HW112711   3.183  10.023   0.876 -1.5245  0.6262 -0.4516
 3568SOL    HW212712   3.217   9.877   0.898  1.2885  0.7362 -3.2633
 3569SOL     OW12713   9.544   6.373   9.566  0.3788  0.2483 -0.5960
 3569SOL    HW112714   9.592   6.456   9.562 -0.4887  0.9822  2.2254
 3569SOL    HW212715   9.460   6.392   9.524 -0.4838  1.3665  1.5274
 3570SOL     OW12716   0.623   6.231   0.174 -0.0480  0.5066 -0.0112
 3570SOL    HW112717   0.689   6.274   0.228  0.7201 -0.0657 -0.4726
 3570SOL    HW212718   0.600   6.296   0.108 -1.5695  1.5072  1.4148
 3571SOL     OW12719   7.035  10.100   1.455 -0.0827  0.0334  0.6012
 3571SOL    HW112720   7.052  10.144   1.372  1.4666 -0.3159  0.6986
 3571SOL    HW212721   6.961  10.041   1.437 -0.3029  0.5760 -0.2877
 3572SOL     OW12722   3.093   3.303  10.660  0.2239 -0.0455 -0.1926
 3572SOL    HW112723   3.004   3.271  10.644  0.0212  0.1964  0.4356
 3572SOL    HW212724   3.121   3.339  10.576 -0.2438 -0.1872 -0.4110
 3573SOL     OW12725   0.067   0.363   8.466  0.1564 -0.6013  0.0130
 3573SOL    HW112726   0.080   0.394   8.556  2.4583  0.7373 -0.6934
 3573SOL    HW212727  -0.027   0.343   8.462 -0.3327  0.7290  2.2745
 3574SOL     OW12728  10.820   4.921   4.632 -0.6470  0.9413  0.1154
 3574SOL    HW112729  10.850   5.012   4.628 -0.6492  0.9041 -1.5230
 3574SOL    HW212730  10.858   4.880   4.554 -0.3227 -0.5714  1.0395
 3575SOL     OW12731   8.033   4.932   2.585  0.1248  0.5665  0.3372
 3575SOL    HW112732   7.984   5.005   2.623  0.2286  0.8574 -0.0767
 3575SOL    HW212733   8.067   4.884   2.661 -1.7533 -0.3256  0.6740
 3576SOL     OW12734   4.575   1.125   4.178 -0.2790  0.5107  0.1373
 3576SOL    HW112735   4.517   1.054   4.205 -1.7075  1.1506 -1.0952
 3576SOL    HW212736   4.654   1.082   4.148 -0.0165 -0.3833  1.9513
 3577SOL     OW12737   6.562   4.708   2.599 -0.1342  0.1233 -0.6628
 3577SOL    HW112738   6.631   4.746   2.654 -0.6190  0.4945 -0.3041
 3577SOL    HW212739   6.550   4.772   2.529 -0.7498  0.4984 -0.2184
 3578SOL     OW12740   7.176   5.653   0.199  0.7533 -0.1026  0.1275
 3578SOL    HW112741   7.107   5.693   0.252  0.5077 -0.2640 -0.0629
 3578SOL    HW212742   7.182   5.710   0.122  0.9740  0.0249  0.2412
 3579SOL     OW12743  10.210   6.906   4.370  0.5511  0.2415  0.9771
 3579SOL    HW112744  10.269   6.916   4.445 -1.9669  1.8424  2.8950
 3579SOL    HW212745  10.267   6.916   4.293  2.8599  0.9753  2.6750
 3580SOL     OW12746  10.657   4.563   8.529  0.0048  0.1333 -0.5658
 3580SOL    HW112747  10.640   4.499   8.599 -1.0606  1.4720  0.4465
 3580SOL    HW212748  10.571   4.599   8.508  0.7915  2.9889  0.6449
 3581SOL     OW12749   4.121   4.782   7.284  0.6173 -0.2311 -0.0789
 3581SOL    HW112750   4.083   4.861   7.244  3.0378  1.1477  0.1348
 3581SOL    HW212751   4.086   4.782   7.373  1.3012  1.2157  0.2344
 3582SOL     OW12752   9.149   4.694   3.673 -0.7647  1.0124 -0.3107
 3582SOL    HW112753   9.125   4.602   3.660 -0.1244  0.5299  1.5881
 3582SOL    HW212754   9.243   4.697   3.656 -0.1835  0.6419  2.4657
 3583SOL     OW12755   3.251   3.533   8.863  0.2199  0.4894 -0.5990
 3583SOL    HW112756   3.224   3.569   8.779  0.1809  2.3323  0.1658
 3583SOL    HW212757   3.346   3.524   8.856  0.3275  1.4762 -0.5560
 3584SOL     OW12758   7.505   9.592   2.795  0.2428 -0.2185 -0.2252
 3584SOL    HW112759   7.453   9.603   2.874  1.2857 -0.6758  0.5400
 3584SOL    HW212760   7.558   9.514   2.810 -0.9892 -1.5234 -2.1972
 3585SOL     OW12761   0.868   4.083   1.615  0.5102  0.1255  0.3777
 3585SOL    HW112762   0.859   4.010   1.676  1.2899  0.2867  0.7009
 3585SOL    HW212763   0.921   4.147   1.662  1.6618 -0.0080 -0.6801
 3586SOL     OW12764   4.786   1.220   3.663  0.1683 -0.5192 -0.0165
 3586SOL    HW112765   4.834   1.151   3.619 -0.8484  0.2799 -2.5360
 3586SOL    HW212766   4.701   1.223   3.619 -0.7574  0.6598  1.7163
 3587SOL     OW12767   5.678   5.214   6.280  0.5664 -0.4344  0.4357
 3587SOL    HW112768   5.598   5.192   6.234 -0.0215 -0.0482  1.2479
 3587SOL    HW212769   5.666   5.180   6.368  0.0690  2.0435  1.4211
 3588SOL     OW12770   7.196   4.887   0.592  0.5899  0.7325  0.0543
 3588SOL    HW112771   7.180   4.965   0.538 -1.9363  0.2787  0.0042
 3588SOL    HW212772   7.215   4.818   0.529 -3.1062  0.0226 -0.5367
 3589SOL     OW12773   4.013   9.443   4.090  0.0745  0.2719 -0.1593
 3589SOL    HW112774   4.017   9.354   4.124  0.1149 -0.7118 -2.5458
 3589SOL    HW212775   3.938   9.483   4.135 -3.0243 -2.5317 -2.3632
 3590SOL     OW12776   2.765   7.288   8.492  0.2294 -0.3065 -0.1251
 3590SOL    HW112777   2.688   7.232   8.485  0.4815 -0.6462 -0.1828
 3590SOL    HW212778   2.733   7.376   8.471  0.5944 -0.9845 -4.4020
 3591SOL     OW12779   9.252   4.053   0.389 -0.2304  0.0381 -0.0758
 3591SOL    HW112780   9.161   4.078   0.374 -0.4393  0.0927  1.1898
 3591SOL    HW212781   9.251   4.007   0.473  0.7384 -0.9620 -0.5816
 3592SOL     OW12782   2.504   1.988   8.802 -0.3165  0.0668 -0.4436
 3592SOL    HW112783   2.553   2.006   8.882 -1.1065  1.7423 -0.2937
 3592SOL    HW212784   2.443   2.062   8.794 -2.4366 -1.6198 -0.9080
 3593SOL     OW12785  10.063   4.611   1.945  0.5759 -0.0643 -0.0013
 3593SOL    HW112786  10.075   4.706   1.947 -2.1029  0.3313  1.8061
 3593SOL    HW212787   9.978   4.599   1.904  1.0432 -1.7545 -0.5479
 3594SOL     OW12788   8.359   2.014   1.060  0.6941 -0.2853 -0.0004
 3594SOL    HW112789   8.393   2.082   1.002 -0.5227  0.9913  0.7055
 3594SOL    HW212790   8.375   1.932   1.013  3.0376  0.3806 -0.4678
 3595SOL     OW12791   8.900   6.139   6.345  0.0809 -0.5532 -0.1288
 3595SOL    HW112792   8.848   6.183   6.278  0.8335  0.5033 -0.0416
 3595SOL    HW212793   8.919   6.207   6.410  1.1663 -1.0353  0.0785
 3596SOL     OW12794   8.521   3.532   4.400  0.1893  0.8141  0.2599
 3596SOL    HW112795   8.468   3.532   4.480  3.0965 -1.1547  2.4149
 3596SOL    HW212796   8.570   3.614   4.403  1.0737  0.2785  1.1604
 3597SOL     OW12797   5.045   5.772  10.406  0.5740 -0.4333 -0.3927
 3597SOL    HW112798   4.979   5.718  10.450  0.7463 -0.0607  0.3262
 3597SOL    HW212799   5.071   5.837  10.471  0.9459  0.0291 -0.9931
 3598SOL     OW12800   5.673  10.910   4.332  0.3454  0.0808 -0.4983
 3598SOL    HW112801   5.701  10.855   4.260  0.9939  0.0804 -0.2506
 3598SOL    HW212802   5.700  10.863   4.411  3.4050  1.9462 -0.2735
 3599SOL     OW12803   6.084   5.734   9.270 -0.3820  0.1473  0.6289
 3599SOL    HW112804   6.055   5.771   9.354 -2.6976  1.7806 -0.7658
 3599SOL    HW212805   6.004   5.703   9.229 -0.0345  2.9257 -2.5647
 3600SOL     OW12806   0.263   9.105   2.717 -0.8769  0.6358 -0.0776
 3600SOL    HW112807   0.241   9.169   2.785  0.2039  1.0067 -0.0606
 3600SOL    HW212808   0.301   9.031   2.765  0.8466  1.3175 -0.3204
 3601SOL     OW12809   1.908   9.017   9.830  0.4094 -0.2038  0.1085
 3601SOL    HW112810   1.873   8.965   9.902  0.5036 -2.1320 -1.1677
 3601SOL    HW212811   1.973   8.960   9.789  0.4805  0.9105 -1.3986
 3602SOL     OW12812   3.582   8.177   3.589 -0.2120  0.5071  0.2552
 3602SOL    HW112813   3.515   8.159   3.524  0.9590 -0.5504 -0.7238
 3602SOL    HW212814   3.547   8.249   3.641 -2.5204 -0.6539  0.4371
 3603SOL     OW12815   8.335   3.806   9.324 -0.8470  0.1915  0.2043
 3603SOL    HW112816   8.265   3.748   9.294 -0.5396 -0.5336  0.8600
 3603SOL    HW212817   8.367   3.765   9.404  0.3506  0.4952 -0.0986
 3604SOL     OW12818   5.700   8.485   3.965  0.3983 -0.7334  0.1056
 3604SOL    HW112819   5.794   8.490   3.950  0.3688 -1.3721 -0.3389
 3604SOL    HW212820   5.676   8.571   3.999  1.2622 -0.8109  0.9407
 3605SOL     OW12821  10.990   5.016   6.926 -0.2337 -1.0829  0.1409
 3605SOL    HW112822  10.918   4.955   6.911 -1.1531 -0.3370  1.3081
 3605SOL    HW212823  11.014   5.047   6.839 -3.4234  0.9723 -0.1574
 3606SOL     OW12824   9.021   7.902   9.969 -0.6234  0.0198 -0.0802
 3606SOL    HW112825   8.999   7.921  10.060  1.9760 -2.3110  1.1983
 3606SOL    HW212826   8.993   7.980   9.921 -3.0139  0.9397  2.4897
 3607SOL     OW12827   3.363   6.273   5.077 -0.6677  0.0061  0.3206
 3607SOL    HW112828   3.350   6.358   5.121  2.0596  1.2631 -1.0821
 3607SOL    HW212829   3.397   6.216   5.145 -0.9009  0.5286  0.8917
 3608SOL     OW12830   0.323   0.239   3.608  0.6430  0.3197  0.5089
 3608SOL    HW112831   0.252   0.187   3.645  0.7152  0.7993  1.3411
 3608SOL    HW212832   0.295   0.330   3.617  0.7477  0.4647 -0.4600
 3609SOL     OW12833   3.725   8.775  10.354  0.3005 -0.0446 -0.2749
 3609SOL    HW112834   3.788   8.787  10.283 -0.8853  0.4678 -1.2760
 3609SOL    HW212835   3.671   8.853  10.351  0.3474  0.1022  1.3659
 3610SOL     OW12836   7.063  10.853   0.994 -0.4007 -0.1370  0.3848
 3610SOL    HW112837   7.094  10.937   1.027 -0.9868  1.1033 -1.9921
 3610SOL    HW212838   6.978  10.873   0.955 -1.6665 -2.3329  1.8106
 3611SOL     OW12839   3.625  10.337   8.977  0.0420 -0.6241 -0.6015
 3611SOL    HW112840   3.532  10.332   8.955  0.2987  0.6857 -2.1127
 3611SOL    HW212841   3.669  10.287   8.909  0.5799  0.3346 -0.9682
 3612SOL     OW12842   1.140  10.855   7.366 -0.3774 -0.1868  0.5972
 3612SOL    HW112843   1.060  10.803   7.368 -0.0779 -0.7150 -0.3942
 3612SOL    HW212844   1.203  10.800   7.318  0.3124  0.5823  0.6012
 3613SOL     OW12845   8.668   0.753   3.010  0.0480 -0.1039 -0.1871
 3613SOL    HW112846   8.715   0.670   3.018 -0.2480 -0.3272 -0.7584
 3613SOL    HW212847   8.708   0.809   3.077 -1.3458 -1.4562  1.9405
 3614SOL     OW12848   8.519   1.972   5.770  0.2857 -0.1151 -0.1653
 3614SOL    HW112849   8.472   2.015   5.842  0.9737  3.5991 -1.7119
 3614SOL    HW212850   8.451   1.930   5.718 -0.3240 -1.9198  1.8963
 3615SOL     OW12851   2.500  10.681   4.828 -0.1367 -0.1434  0.3754
 3615SOL    HW112852   2.448  10.613   4.870 -0.4790  1.3137  2.4705
 3615SOL    HW212853   2.583  10.680   4.875  0.8343 -0.7441 -1.2585
 3616SOL     OW12854   4.980   5.755   2.677  0.4332  0.1850 -0.5142
 3616SOL    HW112855   5.031   5.677   2.655 -0.1955 -0.2218 -0.5441
 3616SOL    HW212856   5.038   5.806   2.734  1.5047  0.5355 -1.8679
 3617SOL     OW12857   1.261   1.512   0.413 -0.1543 -0.2454  0.5061
 3617SOL    HW112858   1.215   1.434   0.379 -2.6949  1.5919 -0.6011
 3617SOL    HW212859   1.232   1.518   0.504 -0.5348 -0.2010  0.3849
 3618SOL     OW12860   6.978   1.754  10.099  0.5731  0.1412  0.1091
 3618SOL    HW112861   6.962   1.780  10.008 -1.0186  4.8136  1.4257
 3618SOL    HW212862   7.073   1.737  10.102  0.5994 -0.6996 -2.4549
 3619SOL     OW12863  10.041  10.820  10.932 -0.1281 -0.6266  0.0416
 3619SOL    HW112864  10.020  10.750  10.993 -3.4328 -0.1418 -0.3271
 3619SOL    HW212865  10.060  10.896  10.988 -1.2853 -0.6592  0.5098
 3620SOL     OW12866   2.021   5.139   7.800 -0.7735 -0.0986 -0.4437
 3620SOL    HW112867   2.033   5.072   7.866  0.2250  1.0631  0.6096
 3620SOL    HW212868   2.016   5.091   7.717 -0.1543 -1.4610  0.2789
 3621SOL     OW12869   8.543   9.022   5.642  0.1682  0.0621  0.0630
 3621SOL    HW112870   8.535   9.018   5.546  1.7007  0.8260 -0.1190
 3621SOL    HW212871   8.629   8.984   5.660  0.0546  0.2859  1.1114
 3622SOL     OW12872   4.994   9.844   5.488 -0.2932 -0.4577 -0.3827
 3622SOL    HW112873   4.951   9.810   5.409 -0.3695  0.1395 -0.6015
 3622SOL    HW212874   4.927   9.840   5.555 -0.8513  0.9207 -0.8376
 3623SOL     OW12875   8.634   9.279   9.002 -0.2099  0.2488  0.1896
 3623SOL    HW112876   8.569   9.232   8.950  0.4830 -2.4153  1.5173
 3623SOL    HW212877   8.712   9.281   8.946  0.0872 -1.2763  0.5051
 3624SOL     OW12878   2.149   2.498   2.838  1.2247 -0.3974  0.1973
 3624SOL    HW112879   2.226   2.472   2.889  0.7157  1.0567  1.8021
 3624SOL    HW212880   2.090   2.538   2.902 -0.5588 -0.7903 -1.1286
 3625SOL     OW12881   8.014   3.866   9.283 -0.4588  0.0229 -0.4311
 3625SOL    HW112882   7.964   3.794   9.321 -1.4423  1.1499  0.4910
 3625SOL    HW212883   8.029   3.839   9.193  1.9619 -2.7546  0.6457
 3626SOL     OW12884   2.449   4.799   5.738  0.5491 -0.7109 -0.0443
 3626SOL    HW112885   2.416   4.887   5.719  0.7335 -0.7100 -0.3648
 3626SOL    HW212886   2.375   4.755   5.780  0.4345 -0.4240  0.0616
 3627SOL     OW12887   5.523   3.727   6.349  0.1870  0.8749 -0.3957
 3627SOL    HW112888   5.476   3.807   6.371  0.4955  0.6604  1.1040
 3627SOL    HW212889   5.582   3.753   6.278 -1.5884  1.3178 -1.7973
 3628SOL     OW12890   3.945   7.440   5.509  0.3063 -0.6487  0.2202
 3628SOL    HW112891   3.888   7.371   5.543 -1.0247  0.1214 -0.3670
 3628SOL    HW212892   3.895   7.478   5.436  1.4634  0.2362 -0.1320
 3629SOL     OW12893   1.427   8.102   8.194  0.5943 -0.9345  0.3409
 3629SOL    HW112894   1.493   8.034   8.188  0.4716 -0.9004 -2.1968
 3629SOL    HW212895   1.364   8.082   8.124  1.0622  2.2686 -1.1883
 3630SOL     OW12896   7.710   4.204   7.973  0.0657 -0.0362 -0.4122
 3630SOL    HW112897   7.626   4.213   7.930  0.3552  0.3876 -0.9037
 3630SOL    HW212898   7.766   4.161   7.909  0.6529  1.0955 -0.6938
 3631SOL     OW12899   7.528   6.321   3.441 -0.4977  0.7304 -0.6211
 3631SOL    HW112900   7.512   6.402   3.392 -1.0973  0.5125 -0.7940
 3631SOL    HW212901   7.604   6.281   3.398 -0.9289  0.6118 -1.2898
 3632SOL     OW12902   3.337   6.360   2.465 -0.5124 -0.3006  0.2904
 3632SOL    HW112903   3.265   6.308   2.430  0.3467 -0.4390 -1.3608
 3632SOL    HW212904   3.415   6.309   2.447  0.2759  1.1579 -0.6082
 3633SOL     OW12905   1.155   0.992   3.559  0.5136 -0.3480  0.1158
 3633SOL    HW112906   1.116   0.946   3.633  0.9831 -0.2471  0.4320
 3633SOL    HW212907   1.082   1.035   3.516  0.5460  2.1099  2.2738
 3634SOL     OW12908   7.683  10.832   7.343 -0.8153 -0.1747  0.3287
 3634SOL    HW112909   7.595  10.857   7.313 -0.0177 -0.7236 -2.8657
 3634SOL    HW212910   7.742  10.888   7.292  0.7311 -0.7807  1.3926
 3635SOL     OW12911  10.709   6.814   3.412 -0.3713 -0.8936  0.6086
 3635SOL    HW112912  10.709   6.877   3.339 -0.5189 -1.2401  0.3057
 3635SOL    HW212913  10.783   6.841   3.466  0.5422 -1.4117 -0.3508
 3636SOL     OW12914   5.665   6.420   5.575 -0.5081 -0.5017 -0.0766
 3636SOL    HW112915   5.701   6.444   5.489 -1.0298  0.5821 -0.0038
 3636SOL    HW212916   5.741   6.401   5.628 -0.1689 -1.0358 -0.7285
 3637SOL     OW12917   0.892  10.229   8.119  1.2641  0.0239  0.0385
 3637SOL    HW112918   0.938  10.313   8.112 -0.2494  0.8912  0.0873
 3637SOL    HW212919   0.896  10.192   8.031 -0.5111  1.5292 -0.7432
 3638SOL     OW12920   8.731   4.682   3.073  0.0772  0.1119  0.1132
 3638SOL    HW112921   8.680   4.752   3.112 -0.1507 -0.3067  0.5749
 3638SOL    HW212922   8.821   4.701   3.098  0.2059  1.0206 -0.9584
 3639SOL     OW12923   7.578   9.782   8.758 -0.0308 -1.2259 -0.0658
 3639SOL    HW112924   7.513   9.739   8.814 -0.1625 -1.3793 -0.3289
 3639SOL    HW212925   7.583   9.872   8.791  0.5959 -1.5604  0.7934
 3640SOL     OW12926   2.060   3.279   6.172 -0.5853  0.0040 -0.6622
 3640SOL    HW112927   1.982   3.299   6.122 -1.7832  1.0696  1.4817
 3640SOL    HW212928   2.041   3.310   6.260  1.9252 -0.5112  0.1610
 3641SOL     OW12929   9.316   4.260   4.468  0.5452 -0.4190  0.3369
 3641SOL    HW112930   9.233   4.216   4.487  0.3020 -0.2764 -0.3728
 3641SOL    HW212931   9.337   4.233   4.379  1.2032 -0.3502  0.4693
 3642SOL     OW12932   0.305  10.070   2.868 -0.1274 -0.0825  0.6579
 3642SOL    HW112933   0.295  10.109   2.781 -0.1012  0.5415  0.9329
 3642SOL    HW212934   0.393  10.031   2.866 -0.3542 -0.5892  0.2058
 3643SOL     OW12935   5.616   5.176  10.469  0.1869 -0.5014 -0.7383
 3643SOL    HW112936   5.702   5.141  10.492  0.4414  0.2229 -0.5454
 3643SOL    HW212937   5.606   5.252  10.527  0.1263  0.3892 -1.8901
 3644SOL     OW12938   3.917   4.869   5.421  0.2435 -0.9903 -0.2552
 3644SOL    HW112939   3.955   4.782   5.406  0.8268 -0.9760  0.9628
 3644SOL    HW212940   3.943   4.890   5.511  1.0598  0.9301 -0.9019
 3645SOL     OW12941   4.146   0.470   1.386  0.6101 -0.1343  0.5134
 3645SOL    HW112942   4.223   0.524   1.365 -0.5780  0.5677 -2.5388
 3645SOL    HW212943   4.107   0.513   1.462  0.7862  2.2274 -0.6458
 3646SOL     OW12944   7.232   3.646   4.100  0.1246 -0.1580 -0.2056
 3646SOL    HW112945   7.182   3.585   4.045  0.2466  0.4760 -1.0431
 3646SOL    HW212946   7.279   3.701   4.038 -1.8576  2.4249  0.3942
 3647SOL     OW12947  10.103   3.053   6.626  0.9068 -0.1349 -0.3422
 3647SOL    HW112948  10.037   3.061   6.695 -1.9327 -0.5186 -2.8412
 3647SOL    HW212949  10.169   3.119   6.649 -0.4547  0.5194  2.0875
 3648SOL     OW12950   0.750   9.415   0.245  0.2321 -0.0149  0.3261
 3648SOL    HW112951   0.660   9.444   0.260 -0.5797 -1.3428 -1.5490
 3648SOL    HW212952   0.743   9.319   0.236  1.5880 -0.0245 -1.1226
 3649SOL     OW12953  10.999   8.041   0.042 -0.0752 -0.0660 -0.1519
 3649SOL    HW112954  11.055   7.991   0.102 -1.7080 -0.8226  0.8093
 3649SOL    HW212955  11.053   8.116   0.016  0.6310  0.4497  2.4956
 3650SOL     OW12956   1.108   1.677   3.853 -0.2235  0.3267 -0.0656
 3650SOL    HW112957   1.118   1.746   3.919  0.5942  1.7745 -1.6035
 3650SOL    HW212958   1.058   1.719   3.783 -0.5207 -0.9621 -0.6447
 3651SOL     OW12959  10.378   3.771   1.868  0.3095 -0.2181  0.7849
 3651SOL    HW112960  10.320   3.833   1.825 -0.6906 -0.2070  2.0828
 3651SOL    HW212961  10.465   3.791   1.834 -0.5101 -0.7767 -1.8205
 3652SOL     OW12962   2.209   6.419   9.977  0.2206 -0.1052  0.3948
 3652SOL    HW112963   2.239   6.429  10.067 -0.1058 -0.1453  0.5073
 3652SOL    HW212964   2.266   6.478   9.927  0.0142  0.3632  0.7070
 3653SOL     OW12965   0.798   9.861  10.233  0.1427  0.5153 -0.5054
 3653SOL    HW112966   0.789   9.772  10.265  1.3304  0.3890 -0.4673
 3653SOL    HW212967   0.812   9.913  10.313 -0.1185  0.6694 -0.5601
 3654SOL     OW12968   3.551   4.314   8.308  0.6939  0.1971  0.0922
 3654SOL    HW112969   3.565   4.289   8.399 -1.1713  1.1286  0.6781
 3654SOL    HW212970   3.500   4.242   8.271  0.5107  0.3175  0.1060
 3655SOL     OW12971  10.360   5.534   0.928 -0.1823  0.2086  0.0273
 3655SOL    HW112972  10.265   5.523   0.929 -0.2088 -0.0598 -1.6866
 3655SOL    HW212973  10.378   5.576   0.844  1.1888  0.5757  0.4853
 3656SOL     OW12974   9.515   5.776   3.910 -0.6409  0.1847 -0.1675
 3656SOL    HW112975   9.478   5.845   3.856 -1.3356  0.1897  0.2967
 3656SOL    HW212976   9.471   5.696   3.880 -0.5507  0.0930 -0.0555
 3657SOL     OW12977   6.752   4.289   3.056 -0.2855 -0.0147  0.4464
 3657SOL    HW112978   6.805   4.317   2.981 -0.1605 -0.5049  0.3464
 3657SOL    HW212979   6.696   4.365   3.076  0.0383  0.2969  0.1796
 3658SOL     OW12980   4.416   0.926  11.048 -0.7554 -0.7455 -0.5047
 3658SOL    HW112981   4.489   0.985  11.034 -0.2982 -1.4929 -1.4181
 3658SOL    HW212982   4.357   0.973  11.106  1.0761 -0.6595  1.4012
 3659SOL     OW12983   3.256   8.065   0.342  0.0002  0.5394  0.2042
 3659SOL    HW112984   3.311   8.008   0.289 -0.9268  1.5703 -2.0245
 3659SOL    HW212985   3.312   8.140   0.363  0.3283  0.2010  0.5268
 3660SOL     OW12986  10.190   9.622   3.530 -0.2956 -0.5508 -0.1687
 3660SOL    HW112987  10.277   9.596   3.500  0.1632 -0.9232  1.3652
 3660SOL    HW212988  10.204   9.653   3.620 -0.8784  4.5665 -1.5380
 3661SOL     OW12989   8.829   3.224   6.797  0.6685  0.4470  0.7340
 3661SOL    HW112990   8.896   3.211   6.730  1.5113 -0.6162  1.7303
 3661SOL    HW212991   8.790   3.137   6.809  0.0719  0.7643  1.1678
 3662SOL     OW12992   1.950   5.986   3.466 -0.0396  0.9671  0.2965
 3662SOL    HW112993   2.016   6.025   3.409  0.5774  0.6106  0.7488
 3662SOL    HW212994   1.966   5.891   3.458 -0.8316  0.8471  0.0196
 3663SOL     OW12995   9.593   5.572   5.649  0.3302 -0.1998  0.5995
 3663SOL    HW112996   9.610   5.657   5.690 -0.9399  0.4721 -0.2365
 3663SOL    HW212997   9.498   5.566   5.644  0.4200 -0.6638 -1.3845
 3664SOL     OW12998   0.141   2.015  10.604 -0.4418 -0.2796 -0.1810
 3664SOL    HW112999   0.204   2.005  10.533  0.1246 -0.1509  0.2962
 3664SOL    HW213000   0.136   1.929  10.646  0.2198 -0.0242  0.4392
 3665SOL     OW13001   6.343   2.052   0.706  0.4249  0.0224  0.1567
 3665SOL    HW113002   6.269   2.086   0.756  0.2717  0.9450 -0.6579
 3665SOL    HW213003   6.370   1.973   0.753 -0.8337 -0.1190  0.6740
 3666SOL     OW13004   9.072   2.413   1.930 -0.1260  0.8324 -0.3416
 3666SOL    HW113005   9.070   2.373   1.843 -2.1419  1.5714 -0.6903
 3666SOL    HW213006   9.079   2.339   1.991 -1.9529  0.0163 -1.0454
 3667SOL     OW13007   0.404   2.146   6.248  0.1124  0.1781  0.9962
 3667SOL    HW113008   0.445   2.166   6.164  0.2171  1.8297  1.4218
 3667SOL    HW213009   0.397   2.050   6.248 -1.1179  0.1703 -1.4635
 3668SOL     OW13010   1.022   3.216   2.281  0.4930  0.3045 -0.0827
 3668SOL    HW113011   0.957   3.167   2.232  1.2363  0.5876 -1.4225
 3668SOL    HW213012   0.997   3.205   2.373 -0.3064 -1.1768 -0.4430
 3669SOL     OW13013   7.277  10.833   4.301 -0.3662 -0.0099 -0.3709
 3669SOL    HW113014   7.326  10.757   4.333 -0.3514 -1.7536 -4.0770
 3669SOL    HW213015   7.192  10.798   4.277 -0.2236  0.9975 -2.5254
 3670SOL     OW13016   4.377   9.968   3.459  0.4915  0.2108  0.4406
 3670SOL    HW113017   4.454   9.933   3.505  0.3442 -0.0678  0.4753
 3670SOL    HW213018   4.405   9.976   3.368  0.2024 -0.9932  0.2255
 3671SOL     OW13019   2.034   1.812   7.380 -0.1196 -0.3178  0.2044
 3671SOL    HW113020   2.122   1.825   7.415  0.4895  1.7803 -1.8364
 3671SOL    HW213021   2.042   1.734   7.325  0.2807 -0.5255  0.5473
 3672SOL     OW13022   8.187   4.327   6.580 -0.2571 -0.2673 -0.7752
 3672SOL    HW113023   8.236   4.255   6.540  0.1243  0.1040 -0.9842
 3672SOL    HW213024   8.107   4.334   6.528 -0.7177 -1.1188 -0.2034
 3673SOL     OW13025   0.114   0.065  11.087  0.5128 -0.3665  0.1355
 3673SOL    HW113026   0.144   0.126  11.154 -2.4553  0.3010  1.0067
 3673SOL    HW213027   0.065   0.120  11.025  0.0314 -1.4959 -0.5182
 3674SOL     OW13028   6.106   9.415   0.188 -0.2422 -0.5226 -0.0862
 3674SOL    HW113029   6.176   9.464   0.232 -1.4328  1.1778  0.0410
 3674SOL    HW213030   6.144   9.329   0.171  1.6497  0.1250  0.5459
 3675SOL     OW13031   1.241   6.103   2.739 -0.6557 -0.2741 -0.5717
 3675SOL    HW113032   1.183   6.179   2.745 -1.0177 -0.2002 -3.5605
 3675SOL    HW213033   1.329   6.139   2.749 -0.9263  0.0323  1.0644
 3676SOL     OW13034   1.679   9.774   0.961 -0.4322  0.2355 -0.2105
 3676SOL    HW113035   1.770   9.759   0.987 -0.1593  1.6027 -0.3004
 3676SOL    HW213036   1.682   9.855   0.911 -2.1568  2.2316  2.6614
 3677SOL     OW13037   0.530   4.199   8.787  0.4156 -0.3615  0.1252
 3677SOL    HW113038   0.608   4.245   8.757  1.2685  0.3057  3.0656
 3677SOL    HW213039   0.460   4.264   8.779  0.5355 -0.3244 -0.6981
 3678SOL     OW13040   0.587   5.344   7.001  0.0816 -0.5635  0.4212
 3678SOL    HW113041   0.580   5.439   6.990  0.6046 -0.5591  0.0992
 3678SOL    HW213042   0.617   5.312   6.916 -0.0016 -1.0083  0.5568
 3679SOL     OW13043   2.889   4.489   2.928 -0.2794  0.1173 -0.3998
 3679SOL    HW113044   2.978   4.509   2.958 -0.2716 -0.0475 -0.3085
 3679SOL    HW213045   2.833   4.518   2.999 -0.1284 -2.3358  0.8301
 3680SOL     OW13046   6.963   4.642  10.860 -0.7236  0.1808 -0.1248
 3680SOL    HW113047   6.935   4.554  10.837  0.5475 -0.4319  0.5280
 3680SOL    HW213048   7.059   4.637  10.863 -0.6492  1.4343  0.5157
 3681SOL     OW13049   7.768   6.530  10.709  0.6715 -0.4831 -0.3313
 3681SOL    HW113050   7.707   6.519  10.781 -0.1404  0.2932 -0.8787
 3681SOL    HW213051   7.823   6.451  10.712  0.1511 -0.8288  0.6386
 3682SOL     OW13052   5.286   4.042   4.842 -0.0311 -0.4985 -0.1276
 3682SOL    HW113053   5.211   3.998   4.803  1.0154 -1.2063 -1.4068
 3682SOL    HW213054   5.325   4.092   4.771  0.5061  0.1733  0.6137
 3683SOL     OW13055   9.385  10.678   0.493 -0.2221 -0.6308  0.1080
 3683SOL    HW113056   9.312  10.705   0.548 -0.4508  0.8206 -0.8557
 3683SOL    HW213057   9.427  10.607   0.542 -1.5771 -0.7145  1.2060
 3684SOL     OW13058  10.169   5.868   7.142  0.0876  0.6018 -0.1106
 3684SOL    HW113059  10.078   5.841   7.130  0.1784  1.1226 -2.5087
 3684SOL    HW213060  10.212   5.792   7.181 -1.3166  0.2902  0.8881
 3685SOL     OW13061   0.329   1.122   3.788 -0.0860 -0.2107  0.5194
 3685SOL    HW113062   0.254   1.129   3.729  0.8644  0.5609 -0.6361
 3685SOL    HW213063   0.356   1.213   3.804  1.5534 -0.5020 -0.3654
 3686SOL     OW13064   5.910   4.189   7.223  0.0360 -0.9006 -0.3818
 3686SOL    HW113065   5.959   4.271   7.211 -1.6248  0.1180 -0.6218
 3686SOL    HW213066   5.944   4.130   7.156  2.6541 -1.1546  1.0509
 3687SOL     OW13067   8.832   6.245   1.813 -0.5304 -0.2313  0.3054
 3687SOL    HW113068   8.740   6.271   1.808 -0.7099 -0.7187  0.9340
 3687SOL    HW213069   8.878   6.326   1.836 -0.6340  0.2823 -1.1592
 3688SOL     OW13070   5.575   3.254   1.722  0.8048  0.3039  0.3701
 3688SOL    HW113071   5.593   3.322   1.787  1.6770  0.1460  0.3135
 3688SOL    HW213072   5.629   3.180   1.749 -1.4470 -1.0508  1.4361
 3689SOL     OW13073   9.517   2.971   0.727  0.8980 -0.2651  0.0400
 3689SOL    HW113074   9.490   2.912   0.656  0.3470 -0.6389  0.5539
 3689SOL    HW213075   9.476   2.935   0.805 -0.9011  1.7876  0.1149
 3690SOL     OW13076   5.535   5.863   1.152 -0.1051  0.5885 -0.4921
 3690SOL    HW113077   5.564   5.934   1.210 -0.8154 -0.4904  1.2644
 3690SOL    HW213078   5.444   5.885   1.132 -0.5234 -0.1156  0.5680
 3691SOL     OW13079   8.827   5.814   3.853  0.3071  0.4250  0.0491
 3691SOL    HW113080   8.809   5.757   3.928  0.1736 -0.0593 -0.3495
 3691SOL    HW213081   8.789   5.769   3.778  1.2155  0.4668 -0.4593
 3692SOL     OW13082   9.651   8.084   9.065  0.1568 -0.2900  0.0624
 3692SOL    HW113083   9.702   8.022   9.012  0.5778 -0.1100  0.2516
 3692SOL    HW213084   9.563   8.046   9.068  0.1468 -0.3517 -0.6895
 3693SOL     OW13085   0.640  11.033   9.694  0.0978  0.0539  0.2312
 3693SOL    HW113086   0.589  11.016   9.614  1.5801 -0.3243 -0.6739
 3693SOL    HW213087   0.692  10.953   9.706 -0.0151  0.1560  1.5250
 3694SOL     OW13088   0.876   4.755  10.931 -0.7524  0.4134 -0.0475
 3694SOL    HW113089   0.896   4.772  11.023 -1.7406 -2.1458  0.7245
 3694SOL    HW213090   0.808   4.819  10.910  1.2696  2.7813  0.1345
 3695SOL     OW13091   4.265   6.279   9.692  0.1556 -0.2571  0.5318
 3695SOL    HW113092   4.245   6.237   9.776  0.6129  1.0419  1.3323
 3695SOL    HW213093   4.312   6.213   9.642 -1.8286 -1.7204  0.5018
 3696SOL     OW13094   4.752   8.956   0.763  0.1091  0.6315 -0.3274
 3696SOL    HW113095   4.667   8.998   0.747  0.3070  1.4019  0.5996
 3696SOL    HW213096   4.793   9.008   0.832  0.2325 -1.2454  1.1110
 3697SOL     OW13097   7.861   6.379   3.457 -0.6016 -0.2118 -0.0607
 3697SOL    HW113098   7.818   6.413   3.536  1.0917  1.0093  0.3810
 3697SOL    HW213099   7.911   6.303   3.488 -1.3329 -0.8150 -0.3229
 3698SOL     OW13100   1.177   8.487   4.229  0.5631  0.2809 -0.1769
 3698SOL    HW113101   1.256   8.532   4.202  1.7397 -0.6605  1.5089
 3698SOL    HW213102   1.196   8.456   4.318 -1.2830 -0.9136 -0.1372
 3699SOL     OW13103   2.628   9.308   9.692 -0.3139  0.4226 -0.7953
 3699SOL    HW113104   2.623   9.344   9.781  2.0295  0.2029 -0.5045
 3699SOL    HW213105   2.553   9.249   9.686  0.3157 -0.7668  1.6465
 3700SOL     OW13106   6.144  10.826   8.706  0.2573  0.3004  0.6529
 3700SOL    HW113107   6.171  10.735   8.693 -0.6399  0.3400 -2.2261
 3700SOL    HW213108   6.207  10.861   8.769  2.2784 -1.5953 -0.1676
 3701SOL     OW13109   4.867   1.535   8.598  0.1311 -0.3523 -0.1807
 3701SOL    HW113110   4.929   1.472   8.561  1.0701  0.0626  0.6399
 3701SOL    HW213111   4.863   1.514   8.691  1.1619  1.3444  0.2829
 3702SOL     OW13112   5.709   4.868   3.128  0.2002  0.2818  0.7749
 3702SOL    HW113113   5.717   4.779   3.162  2.9930  0.6824  1.4005
 3702SOL    HW213114   5.645   4.910   3.185  0.3913 -0.7561  1.7928
 3703SOL     OW13115   4.694   6.453   0.233  0.8580  0.1317 -0.0092
 3703SOL    HW113116   4.657   6.481   0.149 -0.7915  1.5447  1.1202
 3703SOL    HW213117   4.789   6.451   0.218  0.5358 -1.3077 -2.3469
 3704SOL     OW13118   1.050   5.944   3.820 -0.0646 -0.5293 -0.4211
 3704SOL    HW113119   1.058   6.008   3.891 -1.0931  1.5764 -2.0859
 3704SOL    HW213120   1.027   5.862   3.864  0.2412  0.4622  1.7188
 3705SOL     OW13121   2.041   4.515   0.786  0.4039  0.2346  0.1914
 3705SOL    HW113122   2.130   4.482   0.799  0.3909  0.7276  1.6851
 3705SOL    HW213123   2.017   4.553   0.870 -1.6122 -0.7834  0.1188
 3706SOL     OW13124   7.893   3.613  10.400 -0.7094 -0.1411  0.2614
 3706SOL    HW113125   7.864   3.619  10.491  0.4953  1.5303  0.5981
 3706SOL    HW213126   7.821   3.650  10.349 -1.3780 -1.0598  0.5138
 3707SOL     OW13127   0.305  10.620   8.681  0.0368  0.1001 -0.1532
 3707SOL    HW113128   0.245  10.622   8.756  1.3216 -1.9812  1.0183
 3707SOL    HW213129   0.391  10.600   8.719  1.0950  0.8436 -2.0073
 3708SOL     OW13130   9.801   0.681   5.974  0.0568 -0.0368 -0.3026
 3708SOL    HW113131   9.832   0.683   5.884 -0.8663  1.2375 -0.6070
 3708SOL    HW213132   9.731   0.745   5.978  1.2686  1.2945  1.7671
 3709SOL     OW13133   9.710   2.925   1.799  0.7584 -0.2641 -0.0765
 3709SOL    HW113134   9.780   2.978   1.838  0.5409  0.7020 -0.9735
 3709SOL    HW213135   9.720   2.937   1.705 -0.6268 -0.0863 -0.2212
 3710SOL     OW13136   7.192   9.966   1.874 -0.3471  0.3223 -0.1384
 3710SOL    HW113137   7.231   9.903   1.813  0.3790  0.2518  0.3809
 3710SOL    HW213138   7.140   9.912   1.934 -0.3946  0.3024 -0.1981
 3711SOL     OW13139   8.896   2.039   1.935 -0.4020  0.5491  0.0772
 3711SOL    HW113140   8.950   2.009   1.862  1.2985 -1.3271  1.9341
 3711SOL    HW213141   8.928   1.988   2.010 -1.7112  2.6966  2.2428
 3712SOL     OW13142   8.928   1.760   6.548  1.1841  0.5090 -0.2851
 3712SOL    HW113143   8.954   1.709   6.625  2.0076  1.1365 -0.1377
 3712SOL    HW213144   8.884   1.837   6.584 -2.4643 -1.2588 -0.5355
 3713SOL     OW13145   2.136   1.708   1.660  0.2801 -0.1682 -0.6122
 3713SOL    HW113146   2.189   1.775   1.703 -0.0874 -0.1923 -0.1128
 3713SOL    HW213147   2.111   1.648   1.730 -0.4177 -0.1422 -0.8294
 3714SOL     OW13148   1.687   9.229   7.575 -0.4472  0.2794  0.4477
 3714SOL    HW113149   1.712   9.308   7.623  0.1482  0.6491 -0.4450
 3714SOL    HW213150   1.611   9.195   7.622 -0.4399  1.1421  1.0982
 3715SOL     OW13151   1.923   8.384   3.814 -0.1060  0.4707 -0.4213
 3715SOL    HW113152   1.858   8.364   3.882 -0.6379 -2.5639 -1.6249
 3715SOL    HW213153   1.871   8.407   3.737 -0.0934 -3.4323 -1.8387
 3716SOL     OW13154   6.118   1.139   5.370 -0.0522  0.2277  0.2295
 3716SOL    HW113155   6.199   1.100   5.336 -0.5670  0.2372 -1.0849
 3716SOL    HW213156   6.116   1.227   5.332  0.4112  1.0667  2.0655
 3717SOL     OW13157   8.295   5.002   6.599 -0.0677  0.4297 -0.5592
 3717SOL    HW113158   8.369   5.049   6.560  0.0820  0.3532 -0.3675
 3717SOL    HW213159   8.218   5.046   6.563 -0.0028 -1.4375 -3.1975
 3718SOL     OW13160   6.300   5.238   3.655 -0.2999  0.9728 -0.2996
 3718SOL    HW113161   6.388   5.266   3.677  0.0950 -1.1703  1.2336
 3718SOL    HW213162   6.244   5.282   3.719  0.0562  0.0933  0.6619
 3719SOL     OW13163   4.371   1.719   7.140 -0.3809 -0.7346  0.3325
 3719SOL    HW113164   4.376   1.638   7.191 -1.1444 -2.1321 -1.6797
 3719SOL    HW213165   4.279   1.745   7.144 -0.6022 -1.2736 -0.8927
 3720SOL     OW13166   7.683   3.227   3.658 -0.3606 -0.0469  0.3400
 3720SOL    HW113167   7.638   3.203   3.739  0.3211  1.2202  1.1143
 3720SOL    HW213168   7.740   3.300   3.682 -0.6827  0.8513 -1.4286
 3721SOL     OW13169   8.378   0.660   6.384 -0.2763 -0.4799  0.1788
 3721SOL    HW113170   8.323   0.595   6.340  0.0872 -1.3777  1.0352
 3721SOL    HW213171   8.333   0.679   6.466 -0.5863  0.6734 -0.2285
 3722SOL     OW13172   0.918   5.566   2.252 -0.3806 -0.0159  0.2883
 3722SOL    HW113173   1.002   5.608   2.269 -0.5597  0.4696 -0.0043
 3722SOL    HW213174   0.927   5.479   2.290  0.6540 -0.3724 -0.6841
 3723SOL     OW13175   4.432  10.428   5.665 -0.8103  0.2077 -0.1749
 3723SOL    HW113176   4.513  10.439   5.715 -2.4534  0.2922  2.6989
 3723SOL    HW213177   4.431  10.335   5.642  0.0297  0.1740 -0.1078
 3724SOL     OW13178   6.133   1.189   5.698 -0.1703  0.1858  0.3053
 3724SOL    HW113179   6.152   1.282   5.715 -0.0381  0.6628 -2.1205
 3724SOL    HW213180   6.220   1.150   5.684 -0.3500  0.6389 -2.7240
 3725SOL     OW13181   8.546  10.184   9.279 -0.3340 -0.0054 -0.0758
 3725SOL    HW113182   8.512  10.116   9.338 -0.5589 -0.1445 -0.3671
 3725SOL    HW213183   8.537  10.265   9.329  1.1592 -0.3352  0.8144
 3726SOL     OW13184   9.536   6.970   7.568 -0.3409  0.0162  1.1577
 3726SOL    HW113185   9.593   6.900   7.599 -0.3958 -1.4637 -1.7113
 3726SOL    HW213186   9.454   6.926   7.546 -0.8660  1.2181  0.6274
 3727SOL     OW13187   1.870   2.682   7.121  0.6498  0.5903 -0.8222
 3727SOL    HW113188   1.819   2.682   7.041 -0.6034 -0.6049 -0.0488
 3727SOL    HW213189   1.922   2.763   7.116  0.0681  0.8905 -2.4792
 3728SOL     OW13190   5.679   5.105   5.599  0.2810 -0.5573  0.5553
 3728SOL    HW113191   5.721   5.032   5.644 -1.0063 -1.3978  0.4531
 3728SOL    HW213192   5.597   5.068   5.566  0.0859  0.6732 -0.4021
 3729SOL     OW13193   0.483  10.082  10.243  0.5522 -0.1638 -0.2858
 3729SOL    HW113194   0.459  10.124  10.160 -0.9700 -1.1083 -0.3597
 3729SOL    HW213195   0.405  10.032  10.268  1.7531 -1.7169  0.5641
 3730SOL     OW13196   6.185   3.168   1.547 -0.3857  0.4189  0.3955
 3730SOL    HW113197   6.091   3.165   1.564 -0.4268  0.2274  0.1373
 3730SOL    HW213198   6.217   3.083   1.575 -0.4712  0.0546 -0.5623
 3731SOL     OW13199   0.001   6.335   8.599  0.7256  0.3905 -0.0881
 3731SOL    HW113200  -0.075   6.347   8.655  0.9509 -0.6312  0.4789
 3731SOL    HW213201   0.070   6.305   8.659  2.0145  2.6587 -0.3411
 3732SOL     OW13202   7.179   1.087   7.748  0.8455 -0.6232  0.1159
 3732SOL    HW113203   7.155   1.009   7.798  1.4244 -1.4333 -0.8203
 3732SOL    HW213204   7.275   1.087   7.749  0.8559  0.5305  0.7589
 3733SOL     OW13205   4.145   5.596   5.177  0.0385 -0.0918  0.2634
 3733SOL    HW113206   4.126   5.524   5.237 -0.3850 -0.7409 -0.6221
 3733SOL    HW213207   4.075   5.592   5.112 -0.7369  1.9337  0.8867
 3734SOL     OW13208   0.620   3.652   6.357 -0.1280 -0.1794  0.2514
 3734SOL    HW113209   0.597   3.571   6.403 -0.8527 -0.5018 -0.6488
 3734SOL    HW213210   0.659   3.622   6.275 -0.2854  0.3787 -0.0305
 3735SOL     OW13211   6.619   4.996   9.197 -0.0445  0.0468 -0.1715
 3735SOL    HW113212   6.558   5.033   9.262  0.7414  0.3614  0.4143
 3735SOL    HW213213   6.616   5.057   9.124  1.0238  1.1903  0.6719
 3736SOL     OW13214   1.883   3.987   7.657 -0.0988 -0.3428  0.3512
 3736SOL    HW113215   1.917   4.044   7.589  0.3643 -0.9158  0.0934
 3736SOL    HW213216   1.801   4.029   7.685 -1.0339 -0.8089 -1.5401
 3737SOL     OW13217   9.203   4.609   4.348  0.5139  0.2211  0.2518
 3737SOL    HW113218   9.127   4.629   4.293  0.5847  0.6125  0.2940
 3737SOL    HW213219   9.170   4.611   4.438  0.2018 -1.2753  0.2000
 3738SOL     OW13220   9.166  10.750   1.063 -0.4029 -0.1869  0.2711
 3738SOL    HW113221   9.253  10.733   1.099 -0.1546 -0.5080 -0.4562
 3738SOL    HW213222   9.182  10.804   0.985 -0.9688  0.9464  0.9195
 3739SOL     OW13223   4.172   0.654   9.076 -0.1732  0.0902  0.5595
 3739SOL    HW113224   4.079   0.641   9.092 -0.5466 -3.1619 -2.9016
 3739SOL    HW213225   4.216   0.591   9.133 -0.3891 -0.7442 -0.1753
 3740SOL     OW13226   8.675  10.354   6.558 -0.2078  0.4208 -0.2349
 3740SOL    HW113227   8.683  10.421   6.489 -2.7547  2.6836  1.4483
 3740SOL    HW213228   8.663  10.405   6.639 -0.2520 -2.1262  1.4698
 3741SOL     OW13229   9.734  10.630   5.052  0.0880  0.2474 -0.0037
 3741SOL    HW113230   9.795  10.635   4.979 -2.6869 -0.3850 -2.5634
 3741SOL    HW213231   9.750  10.544   5.091  0.3568 -0.2043 -1.0759
 3742SOL     OW13232   3.853  10.695   5.071 -0.2750 -0.9086 -1.0295
 3742SOL    HW113233   3.893  10.608   5.079  1.9703  0.0930 -0.5946
 3742SOL    HW213234   3.913  10.754   5.117 -2.3001  0.7538 -0.3605
 3743SOL     OW13235   5.901   4.527  10.070  0.2971 -0.1661  0.4211
 3743SOL    HW113236   5.978   4.508  10.124  0.7490 -1.1576 -0.5393
 3743SOL    HW213237   5.843   4.577  10.128  1.6518  0.6098  1.1597
 3744SOL     OW13238   4.475   9.345   5.537  0.8623 -0.1621 -0.0830
 3744SOL    HW113239   4.485   9.256   5.505  0.7288 -0.4894  0.7537
 3744SOL    HW213240   4.457   9.335   5.631 -1.2650  0.6323 -0.3311
 3745SOL     OW13241   8.048   0.344   0.689 -0.0052 -0.2212 -0.3348
 3745SOL    HW113242   8.113   0.401   0.647  2.2816 -1.7934  0.8365
 3745SOL    HW213243   8.012   0.292   0.617 -1.8016  2.2415 -1.3478
 3746SOL     OW13244   4.227   8.465   3.262 -0.3342  0.1457 -0.0871
 3746SOL    HW113245   4.240   8.374   3.236  1.4219 -0.0021  1.1466
 3746SOL    HW213246   4.187   8.459   3.349  0.1816  0.5339  0.1810
 3747SOL     OW13247   6.140   4.619   2.764  0.2058 -0.6559  0.5795
 3747SOL    HW113248   6.126   4.538   2.715  0.7361  0.2598 -1.1818
 3747SOL    HW213249   6.056   4.637   2.806 -1.9073  0.7514 -3.5970
 3748SOL     OW13250   7.282   1.745   9.400  0.8298 -0.4275 -0.0516
 3748SOL    HW113251   7.264   1.651   9.397 -2.4332  0.1135 -0.9908
 3748SOL    HW213252   7.312   1.765   9.311  0.8039 -0.4615 -0.0684
 3749SOL     OW13253   4.477  10.285   7.297 -0.3963  0.0173  0.5640
 3749SOL    HW113254   4.564  10.322   7.313  0.5665 -2.0721  0.4611
 3749SOL    HW213255   4.486  10.192   7.319 -2.9432 -0.0267  1.7170
 3750SOL     OW13256   5.074   9.717   3.878  0.5285 -0.3653 -0.9278
 3750SOL    HW113257   5.062   9.645   3.941 -2.6718  0.2169 -0.6902
 3750SOL    HW213258   5.047   9.680   3.794 -1.3627  0.5239 -0.7652
 3751SOL     OW13259   8.637   8.539   8.245 -0.1170 -0.0560 -0.0104
 3751SOL    HW113260   8.714   8.507   8.291 -1.1507 -0.8586  1.2365
 3751SOL    HW213261   8.617   8.472   8.180  0.1952  0.1412 -0.3172
 3752SOL     OW13262   5.056  10.893   5.908  0.2878  0.6992  0.3433
 3752SOL    HW113263   5.125  10.852   5.855 -2.7372 -2.2342 -1.7385
 3752SOL    HW213264   5.021  10.961   5.851 -0.0547  0.5698  0.3996
 3753SOL     OW13265   2.757   9.562   8.784 -0.4411 -0.0610 -0.9772
 3753SOL    HW113266   2.726   9.557   8.875 -1.1448 -0.1535 -1.2187
 3753SOL    HW213267   2.846   9.597   8.791 -0.0840 -1.0907 -0.1669
 3754SOL     OW13268   1.416   0.143   7.809 -0.4594 -0.1566 -0.2167
 3754SOL    HW113269   1.485   0.091   7.851  0.4690  1.3888  0.2437
 3754SOL    HW213270   1.429   0.129   7.715 -0.6054 -1.2067 -0.0908
 3755SOL     OW13271   4.221   0.128   7.063 -0.3476  0.7886  0.3373
 3755SOL    HW113272   4.199   0.155   6.973  1.2235  0.3295 -0.2229
 3755SOL    HW213273   4.251   0.038   7.054  1.0301  1.1455  1.1293
 3756SOL     OW13274   3.390   5.062   3.222 -0.0034  0.6120 -0.0469
 3756SOL    HW113275   3.472   5.039   3.180 -0.8114 -0.5356 -1.0899
 3756SOL    HW213276   3.391   5.158   3.226  1.7304  0.5932  0.7454
 3757SOL     OW13277   8.422   9.995  10.459 -0.6519  0.3199  0.5189
 3757SOL    HW113278   8.466   9.961  10.381 -0.0857 -1.3154  1.5111
 3757SOL    HW213279   8.340   9.944  10.464 -0.3839 -0.0401  1.3348
 3758SOL     OW13280   0.571  10.707   6.289  0.0881 -0.3387 -0.7113
 3758SOL    HW113281   0.484  10.734   6.260  0.8663  1.2189 -1.8022
 3758SOL    HW213282   0.630  10.744   6.223  1.7460  0.7411  1.2486
 3759SOL     OW13283   7.060   8.889   9.530  0.3023  0.5214 -0.4338
 3759SOL    HW113284   6.984   8.924   9.483 -0.9666 -1.5099 -0.0585
 3759SOL    HW213285   7.033   8.890   9.623  1.8302  2.2620  0.0348
 3760SOL     OW13286   7.165   5.715   4.302 -0.1283 -0.0272  0.5491
 3760SOL    HW113287   7.259   5.729   4.315 -0.6915  1.1340  5.0090
 3760SOL    HW213288   7.157   5.621   4.285  1.8266  0.0103 -0.9506
 3761SOL     OW13289   3.275  10.689   4.705 -0.5255  0.1382  0.6234
 3761SOL    HW113290   3.370  10.696   4.701 -0.5564  1.1776  1.1780
 3761SOL    HW213291   3.258  10.628   4.777 -0.2735 -0.2613  0.3421
 3762SOL     OW13292   5.397   5.601   9.695 -0.3768 -0.2021  0.3554
 3762SOL    HW113293   5.480   5.647   9.684  0.8613 -2.5222 -0.5846
 3762SOL    HW213294   5.368   5.625   9.783  0.4009  1.9470  0.0941
 3763SOL     OW13295   1.093   9.301   8.170 -0.1852  0.3627  0.3825
 3763SOL    HW113296   1.153   9.301   8.095  0.9921  0.3964  1.2934
 3763SOL    HW213297   1.026   9.237   8.147  0.6440 -0.2764 -0.3219
 3764SOL     OW13298   5.544   2.961   2.578  0.3439  0.6032  0.1026
 3764SOL    HW113299   5.633   2.952   2.542  0.3698  1.7363 -0.1646
 3764SOL    HW213300   5.544   2.905   2.656  1.3031  0.6015  0.1154
 3765SOL     OW13301   2.830   8.950   7.980  0.7457  0.7452 -0.2010
 3765SOL    HW113302   2.852   8.872   7.930 -0.5857 -0.5199  1.0590
 3765SOL    HW213303   2.899   8.956   8.046  0.6363  0.3739 -0.0474
 3766SOL     OW13304   4.591   7.167   8.782  0.5089  0.7009 -0.4255
 3766SOL    HW113305   4.653   7.152   8.710  1.0765  0.8016  0.0394
 3766SOL    HW213306   4.522   7.221   8.743 -0.5966 -1.4384 -1.6251
 3767SOL     OW13307  10.671   9.738   3.696  0.3874  0.3559  0.6858
 3767SOL    HW113308  10.641   9.821   3.658 -2.9589 -1.1760 -0.5104
 3767SOL    HW213309  10.725   9.699   3.627 -0.2316  0.4356  0.1380
 3768SOL     OW13310   1.990   8.651   6.024 -0.5645  0.2097  0.2277
 3768SOL    HW113311   2.063   8.602   5.985 -1.0305 -0.7294  0.5126
 3768SOL    HW213312   1.994   8.737   5.981 -0.7682 -0.6293 -1.5773
 3769SOL     OW13313   3.790   2.940   5.804  0.6232 -0.4861  0.4146
 3769SOL    HW113314   3.866   2.997   5.820  1.0054 -1.0391  0.6136
 3769SOL    HW213315   3.714   2.996   5.820  0.9807 -0.4556  2.2692
 3770SOL     OW13316   4.852   6.981   8.624  0.0498 -0.2698 -0.3297
 3770SOL    HW113317   4.835   6.888   8.611  2.5056 -1.2499  2.4347
 3770SOL    HW213318   4.908   7.006   8.552 -0.6483 -0.8944 -1.1073
 3771SOL     OW13319   2.589   9.140  10.511 -0.3889  0.0897  0.5898
 3771SOL    HW113320   2.593   9.173  10.600  1.1444 -1.1507  1.0282
 3771SOL    HW213321   2.680   9.126  10.486 -0.8255 -0.4508 -0.8298
 3772SOL     OW13322   8.066   8.891   1.606  0.1533 -0.5088  0.4916
 3772SOL    HW113323   8.136   8.849   1.656  1.1351  0.7145  0.1873
 3772SOL    HW213324   8.111   8.935   1.534 -1.2352 -2.4203 -1.6600
 3773SOL     OW13325   3.479   2.584   2.970  0.3139  0.1142  0.3187
 3773SOL    HW113326   3.575   2.581   2.966  0.4391  2.9684 -1.4529
 3773SOL    HW213327   3.452   2.600   2.880 -1.8825 -0.8868  0.7509
 3774SOL     OW13328   8.049   0.873   6.145  0.4478 -0.1546 -0.0883
 3774SOL    HW113329   8.143   0.878   6.162  0.7468  1.7572 -1.8710
 3774SOL    HW213330   8.012   0.948   6.192  0.2015  0.5479 -1.3657
 3775SOL     OW13331  10.728   4.025   1.922 -0.0890  0.6725 -0.1543
 3775SOL    HW113332  10.701   4.116   1.915  0.6090  0.8448 -0.6540
 3775SOL    HW213333  10.738   4.010   2.017 -1.7002  0.6566  0.0333
 3776SOL     OW13334  10.806   4.116   0.464 -0.2203 -0.0058  0.4930
 3776SOL    HW113335  10.748   4.131   0.389 -0.1026 -0.4816  0.3028
 3776SOL    HW213336  10.889   4.157   0.439 -0.1988 -0.1139  0.3890
 3777SOL     OW13337   5.923   5.354   7.708 -0.5390  0.0112  0.5688
 3777SOL    HW113338   5.839   5.312   7.689 -0.0037 -0.2669 -1.2838
 3777SOL    HW213339   5.902   5.448   7.714 -1.2646 -0.2067  2.0184
 3778SOL     OW13340   2.188   1.488   6.034 -0.1520  0.5334  0.0567
 3778SOL    HW113341   2.265   1.536   6.063 -0.7099  2.0049 -0.8128
 3778SOL    HW213342   2.177   1.512   5.942  0.1853 -2.1707 -0.7645
 3779SOL     OW13343   3.798   9.379   3.715 -0.3617  0.0156  0.3030
 3779SOL    HW113344   3.714   9.411   3.683  0.1788  0.2267 -0.9456
 3779SOL    HW213345   3.818   9.434   3.791 -1.2252  0.1176  0.4606
 3780SOL     OW13346   4.302   3.188   4.543 -0.0984  0.0157  0.1056
 3780SOL    HW113347   4.342   3.110   4.582 -0.7325  0.3988  1.5885
 3780SOL    HW213348   4.209   3.166   4.535 -0.1957  0.4297  0.0718
 3781SOL     OW13349   7.651   9.668   4.589  0.5694  0.3978 -0.4747
 3781SOL    HW113350   7.571   9.707   4.555  0.8971  0.5674 -1.0684
 3781SOL    HW213351   7.720   9.730   4.563  1.0381 -0.3295 -1.0044
 3782SOL     OW13352   4.694   6.053   6.553 -0.4973 -0.0284 -0.4552
 3782SOL    HW113353   4.763   6.089   6.497  1.1690  0.1021  1.5859
 3782SOL    HW213354   4.633   6.012   6.491  0.5261  1.2682 -2.4430
 3783SOL     OW13355   7.654   1.627   9.276 -0.1510 -0.2184  0.1082
 3783SOL    HW113356   7.696   1.686   9.214 -1.0989  0.5036  0.1230
 3783SOL    HW213357   7.654   1.542   9.232 -2.0855  0.5551 -1.5698
 3784SOL     OW13358   4.358   8.239   7.207  0.6481 -0.1439 -0.5532
 3784SOL    HW113359   4.422   8.186   7.160  0.1030  0.6425 -2.2659
 3784SOL    HW213360   4.402   8.322   7.222  0.5476 -0.1205 -0.3870
 3785SOL     OW13361   1.352   2.221   4.047  0.0460 -0.0083 -0.5431
 3785SOL    HW113362   1.329   2.239   4.138  0.7511 -0.2983 -0.2996
 3785SOL    HW213363   1.438   2.181   4.052 -0.5844 -1.5063 -1.2321
 3786SOL     OW13364   1.235   9.116   2.338  0.2770  0.2073  0.4975
 3786SOL    HW113365   1.215   9.193   2.284  1.9013 -0.7528 -1.5783
 3786SOL    HW213366   1.299   9.148   2.401  1.8479  0.3566 -1.1055
 3787SOL     OW13367   1.280   8.619   4.506 -0.0370 -0.2802  0.4326
 3787SOL    HW113368   1.336   8.615   4.584  0.3042  0.7512  0.2537
 3787SOL    HW213369   1.277   8.711   4.484 -0.5026 -0.5179 -0.5233
 3788SOL     OW13370   9.600   1.548   9.390 -0.7789  0.4298  0.3854
 3788SOL    HW113371   9.578   1.501   9.470  2.9992 -0.7954  0.9255
 3788SOL    HW213372   9.536   1.619   9.384 -2.6298 -0.8500  3.1426
 3789SOL     OW13373   4.337   1.691  10.166 -0.2407  0.3988 -0.0853
 3789SOL    HW113374   4.281   1.616  10.146  0.3628 -0.3939  1.1253
 3789SOL    HW213375   4.280   1.767  10.154 -1.6825 -0.4007  1.3840
 3790SOL     OW13376   4.652   3.785   8.233 -0.1049  0.3842  0.3458
 3790SOL    HW113377   4.737   3.745   8.218 -1.0464 -1.2689 -0.9159
 3790SOL    HW213378   4.670   3.879   8.234  1.7986  0.0618  0.7236
 3791SOL     OW13379   2.459   1.792   8.177 -0.5349  0.2569 -0.1146
 3791SOL    HW113380   2.486   1.812   8.266 -0.3005 -0.8071  0.0683
 3791SOL    HW213381   2.443   1.877   8.136  1.0390  0.8324  0.4125
 3792SOL     OW13382   4.158   3.672   5.056 -0.3608 -0.5494  0.3002
 3792SOL    HW113383   4.137   3.580   5.045 -1.4441 -0.4930  1.6394
 3792SOL    HW213384   4.253   3.675   5.066 -0.2634 -1.4464 -0.2996
 3793SOL     OW13385   5.630   3.388  10.395  0.4781 -0.8717  0.7292
 3793SOL    HW113386   5.697   3.325  10.421 -0.3014 -1.2204  2.0106
 3793SOL    HW213387   5.575   3.339  10.333  1.8369 -0.3144 -1.0122
 3794SOL     OW13388   0.958   9.516  10.062  0.4611 -0.5257 -0.3888
 3794SOL    HW113389   0.982   9.605  10.090 -2.3151 -0.3935  2.0534
 3794SOL    HW213390   0.988   9.460  10.133 -2.2282 -0.8401  0.6096
 3795SOL     OW13391   2.963   2.722   2.727 -0.1067  0.0132 -0.2191
 3795SOL    HW113392   2.940   2.636   2.692 -0.1891  0.3056 -0.8942
 3795SOL    HW213393   3.003   2.703   2.812 -0.5269 -0.6609 -0.1645
 3796SOL     OW13394   7.808   4.148   5.978 -0.0085  0.0064  0.2161
 3796SOL    HW113395   7.757   4.174   5.901  0.0550  0.1472  0.2226
 3796SOL    HW213396   7.747   4.159   6.052  0.1373  0.4966  0.2647
 3797SOL     OW13397   3.697   4.629   3.417 -0.5927  0.7010  0.6307
 3797SOL    HW113398   3.673   4.549   3.370  2.3981 -1.0206  1.7262
 3797SOL    HW213399   3.700   4.603   3.509 -1.7115  2.7198  1.3068
 3798SOL     OW13400   2.017   4.763   9.149  0.1842 -0.3517 -0.7162
 3798SOL    HW113401   1.927   4.773   9.181  0.1459  2.3283 -1.4022
 3798SOL    HW213402   2.010   4.779   9.054  1.1422 -2.0911 -1.1192
 3799SOL     OW13403   6.672  10.004   8.719 -0.5217 -0.1631 -0.2990
 3799SOL    HW113404   6.748   9.960   8.681  0.1529  0.7937 -0.0835
 3799SOL    HW213405   6.701  10.030   8.807 -0.6183  1.4482 -0.7202
 3800SOL     OW13406   4.893  10.004   0.406  0.6143  0.1430 -0.6557
 3800SOL    HW113407   4.842  10.007   0.324  0.4213 -1.0000 -0.5928
 3800SOL    HW213408   4.918  10.095   0.422 -1.9392  0.8791 -0.3658
 3801SOL     OW13409   0.355   7.628   7.097 -0.1658 -0.2009  0.3718
 3801SOL    HW113410   0.305   7.687   7.040 -1.1799 -3.2112 -2.1294
 3801SOL    HW213411   0.446   7.641   7.072 -0.2801  0.8047  0.4256
 3802SOL     OW13412   0.503   9.560   3.746 -0.3973  0.3314 -0.0194
 3802SOL    HW113413   0.510   9.543   3.652 -1.1321  0.3233 -0.0772
 3802SOL    HW213414   0.529   9.477   3.787  0.8299  0.6184 -0.1836
 3803SOL     OW13415   3.914   5.565   9.123 -0.1904  0.0807 -0.2512
 3803SOL    HW113416   3.922   5.659   9.110  0.5700  0.0421 -0.1274
 3803SOL    HW213417   3.853   5.555   9.196  0.2013  0.4987  0.1351
 3804SOL     OW13418   0.125   4.345   7.199 -0.2599 -0.3577 -0.6085
 3804SOL    HW113419   0.191   4.406   7.232 -1.7177  0.9130  0.0608
 3804SOL    HW213420   0.125   4.273   7.262 -1.0934  0.7405  0.6836
 3805SOL     OW13421   1.078   7.288   7.710 -0.2102  0.2297 -0.0869
 3805SOL    HW113422   1.050   7.380   7.705 -0.2002  0.3517  1.4758
 3805SOL    HW213423   1.027   7.252   7.783  2.4051 -0.0052  1.7405
 3806SOL     OW13424  10.249   5.254   4.074 -0.2823  0.2323 -0.3382
 3806SOL    HW113425  10.216   5.332   4.029  0.2433  0.8235  0.2570
 3806SOL    HW213426  10.212   5.260   4.162  0.3756  0.2375 -0.0515
 3807SOL     OW13427   3.326  10.782  10.533  0.4144 -0.1444 -0.4475
 3807SOL    HW113428   3.297  10.873  10.539  0.5390 -0.1158 -0.2586
 3807SOL    HW213429   3.388  10.782  10.459  0.7662  0.0237 -0.1597
 3808SOL     OW13430   6.685   8.412   9.791  0.0735  0.0328 -0.1841
 3808SOL    HW113431   6.694   8.365   9.709 -1.8540  1.4434 -1.2793
 3808SOL    HW213432   6.616   8.366   9.838 -0.2563  0.4298 -0.2743
 3809SOL     OW13433   9.506   4.468   4.602 -0.6229  0.2848  0.2557
 3809SOL    HW113434   9.469   4.553   4.578 -0.8422 -0.1027 -0.8470
 3809SOL    HW213435   9.444   4.404   4.566 -1.1713 -0.3482  2.2467
 3810SOL     OW13436   2.770   2.786   0.529 -0.9922  0.2489 -0.2873
 3810SOL    HW113437   2.778   2.788   0.434 -0.8986 -1.0996 -0.3205
 3810SOL    HW213438   2.683   2.750   0.545 -0.9180  0.2577  0.1451
 3811SOL     OW13439   2.124   8.937   8.039  0.4605 -0.4099  0.1376
 3811SOL    HW113440   2.057   8.917   8.104  0.8186  0.9577  0.9786
 3811SOL    HW213441   2.098   8.888   7.961 -0.8784 -0.8093  0.8112
 3812SOL     OW13442   0.967   8.664   9.979  0.1196 -0.1415 -0.3834
 3812SOL    HW113443   0.961   8.753   9.945 -1.7047 -0.3906 -0.8012
 3812SOL    HW213444   0.991   8.611   9.903 -2.0142 -0.4251 -0.9069
 3813SOL     OW13445   7.321   6.118   3.120  0.6816  0.3433 -0.6255
 3813SOL    HW113446   7.260   6.053   3.155  0.9942 -0.7200 -1.9649
 3813SOL    HW213447   7.271   6.199   3.119 -0.8814 -0.5727 -2.0224
 3814SOL     OW13448   2.270   0.471   1.955 -0.5546 -0.0562  0.4113
 3814SOL    HW113449   2.290   0.431   1.871 -2.6215  1.0106 -0.6408
 3814SOL    HW213450   2.323   0.551   1.957 -0.8912  0.1841 -0.1244
 3815SOL     OW13451   7.318   1.188   8.938 -0.1243 -0.3595 -0.1433
 3815SOL    HW113452   7.233   1.184   8.981 -0.1118 -1.0347 -0.1709
 3815SOL    HW213453   7.373   1.128   8.988  0.1842 -0.3424 -0.4583
 3816SOL     OW13454   6.038  10.512   4.299 -0.4170 -0.3617 -0.6225
 3816SOL    HW113455   6.106  10.539   4.361 -0.6730  2.8375 -1.5556
 3816SOL    HW213456   5.956  10.542   4.338 -0.7396  0.2784 -1.7529
 3817SOL     OW13457   3.839   6.163   9.085  0.3645  0.2305 -0.3945
 3817SOL    HW113458   3.746   6.138   9.091  0.1189  0.2516 -3.0415
 3817SOL    HW213459   3.868   6.166   9.176 -1.9200 -0.9215  0.4715
 3818SOL     OW13460  10.476   4.747   0.440  0.5393  0.0997 -0.0043
 3818SOL    HW113461  10.433   4.665   0.418  0.0864  0.4331 -0.3819
 3818SOL    HW213462  10.503   4.784   0.356  0.8718  0.2672  0.1737
 3819SOL     OW13463   4.386   6.672   4.204  0.4349  0.2476 -0.2350
 3819SOL    HW113464   4.462   6.712   4.247 -0.4638  2.1758 -0.3466
 3819SOL    HW213465   4.312   6.727   4.230 -0.7218 -0.7942 -1.2097
 3820SOL     OW13466   6.823   7.938   1.071  0.2662  0.3464 -0.5480
 3820SOL    HW113467   6.909   7.899   1.055 -0.6661 -2.0281 -0.1452
 3820SOL    HW213468   6.775   7.872   1.120 -2.3510  0.8902 -2.1600
 3821SOL     OW13469   3.851   6.018   5.482  0.1042  0.3923 -0.4485
 3821SOL    HW113470   3.913   5.965   5.532  0.6055  1.0448 -0.3600
 3821SOL    HW213471   3.835   5.968   5.402 -2.1650 -1.6101  1.0839
 3822SOL     OW13472   4.393   6.925  10.809  0.6866 -0.2908  0.1336
 3822SOL    HW113473   4.399   6.920  10.713 -0.4571  0.5566  0.0015
 3822SOL    HW213474   4.304   6.893  10.829  0.3510  0.9964  0.7743
 3823SOL     OW13475   8.201   8.562   6.120  0.1938 -0.2309 -0.2487
 3823SOL    HW113476   8.223   8.469   6.112 -2.0442 -0.8351 -0.2056
 3823SOL    HW213477   8.222   8.599   6.035 -3.1396 -1.8640 -1.9885
 3824SOL     OW13478   6.650   1.742   2.745 -0.8256  0.4088 -0.6235
 3824SOL    HW113479   6.735   1.782   2.762 -1.5807  1.1742  1.7242
 3824SOL    HW213480   6.659   1.703   2.658  2.0596  0.0415 -0.2620
 3825SOL     OW13481   6.065   3.010   7.977  0.7961 -0.8669  0.2486
 3825SOL    HW113482   5.995   2.952   8.007 -0.8610  0.1401 -1.4441
 3825SOL    HW213483   6.085   2.980   7.888  1.1959  0.0324  0.0196
 3826SOL     OW13484   1.394   8.849   0.710  0.4567  0.2892 -0.6456
 3826SOL    HW113485   1.376   8.943   0.713 -0.1511  0.1873  2.3977
 3826SOL    HW213486   1.476   8.838   0.759 -1.1814 -0.9594  2.0756
 3827SOL     OW13487   7.602   2.492   5.185  0.7066  0.7382 -0.2562
 3827SOL    HW113488   7.684   2.517   5.141  1.2587 -1.0340 -0.3257
 3827SOL    HW213489   7.539   2.483   5.114  1.0289  0.0435 -0.4735
 3828SOL     OW13490   5.996   9.985   0.032  0.0208 -0.4451 -0.3950
 3828SOL    HW113491   5.910   9.994  -0.010 -0.8472 -0.3901  1.2889
 3828SOL    HW213492   6.059  10.008  -0.036 -1.1232 -3.0050 -2.5256
 3829SOL     OW13493   4.348   3.649   5.803 -0.0205  0.5844 -0.1291
 3829SOL    HW113494   4.420   3.618   5.748  0.2544  0.1349  0.4736
 3829SOL    HW213495   4.269   3.625   5.754  0.1690 -1.3046  0.4015
 3830SOL     OW13496  10.723   9.748   8.728  0.2597  0.1545 -0.1481
 3830SOL    HW113497  10.730   9.677   8.664  1.3350  1.3197 -1.3872
 3830SOL    HW213498  10.807   9.748   8.774 -0.7298 -1.0908  1.8059
 3831SOL     OW13499   3.941   6.050   1.086 -0.3569  0.9891  0.0482
 3831SOL    HW113500   4.032   6.077   1.100 -0.8183  2.3828  0.5672
 3831SOL    HW213501   3.935   5.962   1.124  0.7097  0.9820  0.2231
 3832SOL     OW13502   4.302   7.932   9.917  0.1941 -0.5177  1.1151
 3832SOL    HW113503   4.243   7.904   9.987 -0.2818 -0.1305  0.8740
 3832SOL    HW213504   4.333   7.850   9.878 -0.1972 -0.7270  1.2345
 3833SOL     OW13505   4.909   6.421   6.209  0.1569  0.3889 -0.5042
 3833SOL    HW113506   4.994   6.466   6.206  1.3838 -1.6313  1.1234
 3833SOL    HW213507   4.927   6.334   6.173 -1.4601  0.1955 -0.9180
 3834SOL     OW13508   0.002   9.774   4.878  0.2043 -0.7776  0.0825
 3834SOL    HW113509   0.021   9.704   4.815  0.8800  0.5705 -1.2802
 3834SOL    HW213510  -0.090   9.763   4.900 -0.2201 -0.9047 -1.6532
 3835SOL     OW13511   2.336   7.271   1.654  0.0873 -0.3337 -0.4691
 3835SOL    HW113512   2.286   7.323   1.591  1.5932 -0.5128 -1.8971
 3835SOL    HW213513   2.427   7.284   1.629  0.6428 -1.8219  0.5939
 3836SOL     OW13514   9.599   9.077   0.342  0.2737 -0.1180  0.5831
 3836SOL    HW113515   9.672   9.017   0.329  0.1214 -0.0765 -0.4996
 3836SOL    HW213516   9.578   9.110   0.255 -0.5038  0.5008  0.9887
 3837SOL     OW13517   2.565   7.099   8.531  0.0255 -0.4965  0.4019
 3837SOL    HW113518   2.471   7.089   8.516  0.1496 -0.0428 -0.8690
 3837SOL    HW213519   2.600   7.010   8.527 -0.2784 -0.6141  0.3084
 3838SOL     OW13520   2.079   3.019   3.418  0.3737 -0.6297 -0.2413
 3838SOL    HW113521   2.152   3.004   3.357  0.6391 -1.2310  0.2111
 3838SOL    HW213522   2.121   3.050   3.498  0.0913 -0.5450 -0.1277
 3839SOL     OW13523   2.223   4.090   1.164 -0.0775  0.6063 -0.5497
 3839SOL    HW113524   2.265   4.162   1.117  0.1372 -0.9317 -2.8570
 3839SOL    HW213525   2.235   4.014   1.108 -0.0671 -1.3380  1.9190
 3840SOL     OW13526   9.094   2.750   7.319  0.3496 -0.0376 -0.3894
 3840SOL    HW113527   9.086   2.709   7.405  0.6026  2.7164  1.0526
 3840SOL    HW213528   9.006   2.782   7.299 -0.0226 -1.8308 -1.8489
 3841SOL     OW13529   7.127   7.858   6.569 -0.1563  0.1682 -0.9121
 3841SOL    HW113530   7.191   7.890   6.633 -2.0998 -0.9178  1.7463
 3841SOL    HW213531   7.151   7.766   6.556 -0.3825  0.1194 -0.9767
 3842SOL     OW13532   7.346   9.885   6.629  0.4312 -0.1569  0.6203
 3842SOL    HW113533   7.329   9.888   6.723  0.1292 -4.8387  0.9519
 3842SOL    HW213534   7.274   9.832   6.593 -0.4863  2.9545 -2.6806
 3843SOL     OW13535   8.477   7.839   9.461 -0.2571 -0.6501 -0.1553
 3843SOL    HW113536   8.449   7.928   9.439  1.2990 -0.6895 -2.7547
 3843SOL    HW213537   8.451   7.786   9.386 -0.6460 -2.3125  1.0947
 3844SOL     OW13538   8.688   9.758  10.499 -0.0911 -0.3162  0.3662
 3844SOL    HW113539   8.645   9.678  10.528  0.8002 -0.2085  2.0786
 3844SOL    HW213540   8.677   9.820  10.571 -0.6672  1.0952 -0.8728
 3845SOL     OW13541   4.989   1.375   2.946 -0.2228 -0.6459  0.0070
 3845SOL    HW113542   4.905   1.362   2.990 -0.1116  0.4093  0.5661
 3845SOL    HW213543   4.995   1.470   2.934  1.9435 -0.4013  2.1863
 3846SOL     OW13544   3.439   1.981   0.969 -0.2173 -0.0003 -0.4969
 3846SOL    HW113545   3.522   2.007   0.928  0.8294  1.1997  2.1715
 3846SOL    HW213546   3.401   1.918   0.907  1.9050  0.5749 -2.5477
 3847SOL     OW13547   8.738   4.778   2.559 -0.6613 -0.3149  0.5523
 3847SOL    HW113548   8.748   4.700   2.613  1.2499  0.6752  1.7620
 3847SOL    HW213549   8.726   4.850   2.621  2.0690  0.9414 -0.1835
 3848SOL     OW13550   5.327   5.195   5.483 -0.7929 -0.2948 -0.8183
 3848SOL    HW113551   5.355   5.287   5.491 -1.6533 -0.0395 -0.6422
 3848SOL    HW213552   5.288   5.174   5.568 -0.4438 -0.8868 -0.7987
 3849SOL     OW13553  10.923   9.819   6.249  0.1538  0.2624 -0.8354
 3849SOL    HW113554  10.898   9.867   6.170  1.1219  0.1929 -1.1964
 3849SOL    HW213555  10.980   9.880   6.297  0.5203 -0.1229 -0.7729
 3850SOL     OW13556   0.015   6.017   5.391  0.2165  0.5623 -0.0493
 3850SOL    HW113557  -0.039   5.953   5.438 -1.2570  1.2967 -0.6851
 3850SOL    HW213558   0.079   6.046   5.456  0.5580 -1.1104  0.4141
 3851SOL     OW13559   8.596   9.648   2.470 -1.2763  0.3857  0.1221
 3851SOL    HW113560   8.528   9.706   2.504  0.5518  3.2894 -0.8605
 3851SOL    HW213561   8.678   9.684   2.504  0.1452  0.0013 -2.6132
 3852SOL     OW13562   2.794   2.151   6.263 -0.2451 -0.0186  0.4304
 3852SOL    HW113563   2.791   2.058   6.282  1.4734  0.2611  2.3910
 3852SOL    HW213564   2.885   2.177   6.278 -0.1148  1.5651 -2.3936
 3853SOL     OW13565   0.442   9.866   1.153 -0.3234  0.3038  0.4558
 3853SOL    HW113566   0.379   9.799   1.180  1.3303 -1.2059  0.8584
 3853SOL    HW213567   0.390   9.933   1.109 -1.9310 -2.0315 -1.4676
 3854SOL     OW13568   7.788   3.222   4.631 -0.3616 -0.8668  0.4429
 3854SOL    HW113569   7.707   3.172   4.633 -0.6409 -0.5206 -1.0818
 3854SOL    HW213570   7.776   3.286   4.561  0.4836  0.4977  1.4654
 3855SOL     OW13571   3.542   1.114   2.713 -0.5168 -0.1081  0.4358
 3855SOL    HW113572   3.485   1.183   2.682  0.2500  1.1989  1.8075
 3855SOL    HW213573   3.563   1.138   2.803  0.8887 -1.3876  0.4994
 3856SOL     OW13574   4.160   6.495   3.250 -0.2601 -0.0231 -0.4940
 3856SOL    HW113575   4.211   6.461   3.176 -2.5484 -0.1615 -2.1131
 3856SOL    HW213576   4.213   6.567   3.284  0.7305  0.2626 -2.4871
 3857SOL     OW13577  10.002   2.403  10.597 -0.1795 -0.7237  0.1775
 3857SOL    HW113578   9.963   2.377  10.513  0.5506  0.5411 -0.5907
 3857SOL    HW213579   9.986   2.329  10.655 -3.9496 -0.2421  0.0139
 3858SOL     OW13580   5.612   3.231   5.252  0.2392  0.0943 -0.6000
 3858SOL    HW113581   5.662   3.263   5.327  0.4474  0.4104 -0.8690
 3858SOL    HW213582   5.669   3.168   5.209 -1.3134 -3.1290  1.6869
 3859SOL     OW13583   7.204   8.083   8.838 -0.2202  0.1284 -0.6160
 3859SOL    HW113584   7.158   8.163   8.864 -2.0282 -1.2096  0.5388
 3859SOL    HW213585   7.248   8.053   8.917 -3.9865 -2.8039  0.6792
 3860SOL     OW13586   0.037   7.689   8.976  0.8048  0.2179 -0.1231
 3860SOL    HW113587   0.080   7.613   9.017  1.5562  1.3960  1.4142
 3860SOL    HW213588  -0.056   7.674   8.990  0.9316 -0.5355 -0.0389
 3861SOL     OW13589   3.000   5.030  10.389  0.3129 -0.3661 -0.4781
 3861SOL    HW113590   3.089   5.059  10.409  0.6236 -1.1589 -0.6989
 3861SOL    HW213591   3.006   4.991  10.302  0.0615 -1.7707  0.1043
 3862SOL     OW13592   9.607   8.467   4.268 -0.2786  0.0620 -0.3212
 3862SOL    HW113593   9.539   8.535   4.265  1.3893  2.0812  2.5535
 3862SOL    HW213594   9.617   8.447   4.361  1.7944 -1.5117 -0.8127
 3863SOL     OW13595   0.994   4.905  10.240 -0.3671  0.2191 -0.0631
 3863SOL    HW113596   0.959   4.832  10.291  0.9128  0.2282  0.8706
 3863SOL    HW213597   0.917   4.943  10.197 -1.3216 -0.5134  0.9360
 3864SOL     OW13598   7.675   6.110  11.056 -0.1028  0.3567  0.0107
 3864SOL    HW113599   7.652   6.194  11.095 -1.1372  0.1280 -0.0644
 3864SOL    HW213600   7.617   6.047  11.100 -0.6644 -0.0346 -1.2315
 3865SOL     OW13601   2.222  10.962   4.304 -0.1254  0.6973 -0.6432
 3865SOL    HW113602   2.162  10.968   4.379  2.8550 -1.8263  2.2755
 3865SOL    HW213603   2.295  11.020   4.328  1.0434 -0.4124 -1.3917
 3866SOL     OW13604   8.163   1.836   0.771 -0.0992  0.7294 -0.6340
 3866SOL    HW113605   8.162   1.831   0.867  2.0402  0.3301 -0.6004
 3866SOL    HW213606   8.091   1.896   0.750 -0.0929  1.4648  1.2633
 3867SOL     OW13607   1.109   3.255   8.012 -0.6142  0.2122  0.4409
 3867SOL    HW113608   1.167   3.179   8.011  0.8146  1.2364 -0.4656
 3867SOL    HW213609   1.162   3.325   7.973 -1.1936  2.1799  2.9313
 3868SOL     OW13610   9.547   2.021   8.325 -0.8864  0.3107 -0.1789
 3868SOL    HW113611   9.517   2.065   8.405  0.0700  2.4038 -0.9039
 3868SOL    HW213612   9.551   1.929   8.349 -4.0277  0.3736  1.1209
 3869SOL     OW13613   7.508   4.247   8.550  0.6454 -0.4687 -0.4361
 3869SOL    HW113614   7.554   4.287   8.624 -0.8178 -0.0724  0.2931
 3869SOL    HW213615   7.550   4.162   8.538  1.0715 -0.4286  0.6912
 3870SOL     OW13616   3.408  10.731   1.579  0.2926  0.6503 -0.2238
 3870SOL    HW113617   3.501  10.740   1.558  0.2058 -0.4033 -1.1459
 3870SOL    HW213618   3.391  10.799   1.644  1.5538  1.2789 -0.5331
 3871SOL     OW13619   0.755   4.363   5.170 -0.1189  0.2964 -0.0746
 3871SOL    HW113620   0.814   4.433   5.144  0.5835  0.1113  0.9777
 3871SOL    HW213621   0.668   4.403   5.170  0.1199  0.8243 -0.6932
 3872SOL     OW13622   8.780  10.895   2.457  1.0390  0.1762 -0.1860
 3872SOL    HW113623   8.724  10.823   2.486 -0.5448  1.1194 -0.7782
 3872SOL    HW213624   8.779  10.889   2.361  2.5051 -0.1637 -0.2108
 3873SOL     OW13625   6.712   1.674   4.473  0.3807 -0.0725 -0.1009
 3873SOL    HW113626   6.653   1.602   4.452 -3.1279  2.2129  1.1792
 3873SOL    HW213627   6.777   1.635   4.531  1.8466 -3.2425 -3.4215
 3874SOL     OW13628   5.117   2.144   1.422 -0.2295 -0.1496 -0.4132
 3874SOL    HW113629   5.174   2.197   1.477  0.3989 -0.4444 -0.7668
 3874SOL    HW213630   5.173   2.073   1.390 -0.3278  0.4819 -2.1048
 3875SOL     OW13631   4.679   4.059   4.271  0.0506  0.4558 -0.4811
 3875SOL    HW113632   4.664   4.149   4.243 -0.2535 -0.3348 -3.1730
 3875SOL    HW213633   4.597   4.013   4.249  0.7149 -0.7528 -0.5314
 3876SOL     OW13634   6.050   8.975   0.823  0.3833 -0.4052 -0.0460
 3876SOL    HW113635   5.956   8.991   0.816  0.5435  0.0559 -1.6406
 3876SOL    HW213636   6.060   8.881   0.816  0.1736 -0.3009 -2.5919
 3877SOL     OW13637   7.637   1.103   8.726  0.0554 -0.1502 -0.3450
 3877SOL    HW113638   7.668   1.038   8.790 -0.0630 -1.7970 -1.8640
 3877SOL    HW213639   7.615   1.180   8.779  4.2813  0.3234  1.1545
 3878SOL     OW13640   6.122   5.167   2.079 -0.1977  0.2138 -0.0672
 3878SOL    HW113641   6.104   5.168   1.985  1.3210  2.7182 -0.4297
 3878SOL    HW213642   6.103   5.077   2.106 -2.0698 -0.2145 -2.4459
 3879SOL     OW13643   9.827   2.727   9.714  0.3377 -0.0486  0.3272
 3879SOL    HW113644   9.844   2.722   9.620  0.2232  1.9137  0.1438
 3879SOL    HW213645   9.749   2.674   9.727  0.1600 -0.0888 -0.7609
 3880SOL     OW13646   3.660  10.479   9.247  0.4384  0.1703  0.3784
 3880SOL    HW113647   3.700  10.414   9.189  0.4706  1.5679 -1.2452
 3880SOL    HW213648   3.577  10.440   9.273  0.4972 -0.5605 -0.4916
 3881SOL     OW13649  10.929   0.413   7.921 -0.3721 -0.2378 -0.2399
 3881SOL    HW113650  10.998   0.376   7.866 -0.9885 -1.6834 -0.0857
 3881SOL    HW213651  10.897   0.488   7.872  0.1363 -0.5826 -1.1357
 3882SOL     OW13652   4.295   1.436   5.183 -0.2309  0.0334  0.4379
 3882SOL    HW113653   4.387   1.409   5.186 -0.2718 -0.6508 -2.1139
 3882SOL    HW213654   4.297   1.530   5.197  0.6880 -0.1511  1.7943
 3883SOL     OW13655   1.789   7.581   0.616  0.0654 -0.2381  0.7978
 3883SOL    HW113656   1.724   7.533   0.565 -0.6010  0.4801  0.9385
 3883SOL    HW213657   1.866   7.524   0.619 -0.4517 -0.9654  0.3563
 3884SOL     OW13658   6.081   9.248   6.577  0.9658  0.2584 -0.0452
 3884SOL    HW113659   6.005   9.301   6.553  1.7352  0.4462 -2.3353
 3884SOL    HW213660   6.147   9.311   6.606  0.9216  0.3005 -0.0364
 3885SOL     OW13661  10.322  10.404   8.379 -0.0743  0.3467  0.0456
 3885SOL    HW113662  10.389  10.473   8.377  1.4509 -1.0465  0.5116
 3885SOL    HW213663  10.372  10.323   8.372 -1.8565 -0.7188 -0.9533
 3886SOL     OW13664   0.622  10.838   3.895 -0.3217  0.4665 -0.1712
 3886SOL    HW113665   0.636  10.851   3.989  2.0415 -0.1703 -0.3709
 3886SOL    HW213666   0.589  10.749   3.888 -0.2187  0.4133  0.0143
 3887SOL     OW13667   7.271   4.871   0.206 -0.4929  0.3255  0.2678
 3887SOL    HW113668   7.192   4.822   0.225 -0.5014  0.3185  0.2150
 3887SOL    HW213669   7.245   4.963   0.214  0.2823  0.3505  3.5253
 3888SOL     OW13670   3.975   9.153   8.520 -0.0696 -0.3710 -1.1730
 3888SOL    HW113671   3.916   9.087   8.556  0.2054  0.4093  0.8415
 3888SOL    HW213672   3.945   9.235   8.558  1.1255  0.3039 -1.6298
 3889SOL     OW13673   9.704   2.939   2.130  0.6556 -0.1128 -0.1612
 3889SOL    HW113674   9.798   2.956   2.138  0.3049  1.6169  0.8990
 3889SOL    HW213675   9.663   3.019   2.161 -1.1965 -1.3276  0.6889
 3890SOL     OW13676  10.887   6.389   8.742 -0.3013 -0.1247 -0.3910
 3890SOL    HW113677  10.851   6.470   8.705  1.0455  0.0292 -1.4325
 3890SOL    HW213678  10.835   6.374   8.821 -2.4205  0.2393 -1.6234
 3891SOL     OW13679   1.458   6.918   7.756  0.7397 -0.5279  0.6000
 3891SOL    HW113680   1.542   6.876   7.774  1.4478  0.2423 -0.7534
 3891SOL    HW213681   1.423   6.869   7.681  1.6646  1.2979 -1.1234
 3892SOL     OW13682   5.918   7.778   4.719 -0.6265 -0.1997 -0.2004
 3892SOL    HW113683   5.852   7.843   4.694  0.3843  0.9462  0.0129
 3892SOL    HW213684   5.875   7.724   4.785 -1.1252  0.9914  0.4786
 3893SOL     OW13685  10.904   9.302   2.861  0.5698  0.4679 -0.6898
 3893SOL    HW113686  10.812   9.276   2.855 -0.3180  3.2223 -0.3954
 3893SOL    HW213687  10.944   9.266   2.781 -0.6554 -0.9652 -0.7127
 3894SOL     OW13688   4.892   8.719   1.094  0.1710 -0.0556 -1.1607
 3894SOL    HW113689   4.832   8.791   1.115  1.2485  0.9515 -1.4331
 3894SOL    HW213690   4.958   8.759   1.038  1.0620 -1.1593 -0.9280
 3895SOL     OW13691  10.834   0.252  10.502 -0.5210 -0.2740 -0.1554
 3895SOL    HW113692  10.893   0.180  10.524  0.3366  0.3974 -0.1964
 3895SOL    HW213693  10.758   0.210  10.462  0.1056 -1.1252 -0.4731
 3896SOL     OW13694   0.629   1.423   6.871 -0.7725 -0.4532 -0.0835
 3896SOL    HW113695   0.647   1.388   6.958 -0.9968  1.5189  0.8171
 3896SOL    HW213696   0.712   1.416   6.824 -0.6871 -1.6609  0.2247
 3897SOL     OW13697   3.769   7.067   2.533  0.1890 -0.1547 -0.4671
 3897SOL    HW113698   3.828   7.133   2.569  0.8211 -0.4997 -0.8613
 3897SOL    HW213699   3.825   7.009   2.481 -0.6737  0.2919 -1.9758
 3898SOL     OW13700   0.966   3.023   6.616 -0.0894 -0.3037 -0.3246
 3898SOL    HW113701   0.997   3.099   6.665  3.6015 -1.4128 -0.5951
 3898SOL    HW213702   1.039   2.961   6.620 -1.7172 -2.6039 -2.7534
 3899SOL     OW13703   6.823   0.647  10.550  0.4513 -0.1034  0.6155
 3899SOL    HW113704   6.880   0.586  10.598 -0.6694 -1.5916  0.1402
 3899SOL    HW213705   6.736   0.631  10.586  0.1156  1.2088  0.4274
 3900SOL     OW13706   6.781   3.981   3.230  0.1429  0.0469  0.5501
 3900SOL    HW113707   6.831   4.006   3.153 -0.0343 -2.1509 -0.3447
 3900SOL    HW213708   6.724   4.056   3.247 -0.0106  0.4796 -1.6272
 3901SOL     OW13709   7.922   7.462   3.673 -0.6048 -0.2769  0.4002
 3901SOL    HW113710   7.863   7.477   3.746  0.5773  2.1887  0.9399
 3901SOL    HW213711   8.005   7.436   3.713 -0.2657 -0.0154 -0.1157
 3902SOL     OW13712   1.251   5.102   1.885  0.0738  0.0112 -0.1080
 3902SOL    HW113713   1.347   5.103   1.888  0.0696  0.9262 -0.0458
 3902SOL    HW213714   1.227   5.012   1.907  0.8911 -0.0013  0.7889
 3903SOL     OW13715   2.147   2.140   1.867 -0.3809 -0.3075  0.1588
 3903SOL    HW113716   2.063   2.173   1.834 -1.1361 -1.3406  0.9620
 3903SOL    HW213717   2.168   2.067   1.809  0.2001  0.2224 -0.3087
 3904SOL     OW13718   4.162   0.969   7.464 -0.2954 -0.3858 -0.4534
 3904SOL    HW113719   4.245   0.970   7.417  0.0516 -0.8303  0.1384
 3904SOL    HW213720   4.182   1.006   7.550 -0.7699 -0.2435 -0.3971
 3905SOL     OW13721   1.833   7.578   8.025  0.5337 -0.0754  0.3180
 3905SOL    HW113722   1.853   7.670   8.044  2.3655 -0.2827 -0.4604
 3905SOL    HW213723   1.854   7.532   8.107 -1.3200  0.2765  1.0384
 3906SOL     OW13724   4.627   9.664   7.450 -0.4717 -0.1948  0.3701
 3906SOL    HW113725   4.632   9.738   7.510  0.8764 -0.8524  1.1186
 3906SOL    HW213726   4.640   9.702   7.363 -4.2629  1.0463  0.1530
 3907SOL     OW13727   4.521   3.063   0.958  0.6123  0.1060  0.0682
 3907SOL    HW113728   4.488   2.984   0.916 -0.0554  1.0483 -1.2577
 3907SOL    HW213729   4.612   3.042   0.981  0.1460 -1.3629  0.6787
 3908SOL     OW13730   9.363   2.709   9.349 -0.0512  0.6586  0.2312
 3908SOL    HW113731   9.325   2.764   9.280  1.0595 -0.6391 -1.4876
 3908SOL    HW213732   9.298   2.640   9.362  1.3097 -1.2692 -2.3439
 3909SOL     OW13733   6.421   4.164   1.438  0.1397 -0.4307 -0.4903
 3909SOL    HW113734   6.363   4.102   1.395 -0.3106 -0.1256 -0.3304
 3909SOL    HW213735   6.363   4.234   1.469  0.2941 -1.1070  1.4752
 3910SOL     OW13736   6.366   7.421   0.339  0.1975 -0.3670 -0.2598
 3910SOL    HW113737   6.377   7.349   0.277  0.6967 -1.0529  0.5931
 3910SOL    HW213738   6.448   7.470   0.333  1.4514 -2.0226  1.7802
 3911SOL     OW13739   6.953   8.024   6.136 -0.3966  0.0418 -0.5798
 3911SOL    HW113740   6.946   8.110   6.096 -1.3935  0.6619  0.8641
 3911SOL    HW213741   7.043   7.996   6.117 -0.0582  1.3863 -1.0426
 3912SOL     OW13742  10.925   9.372  11.096 -0.1564 -0.6793 -0.2700
 3912SOL    HW113743  10.909   9.286  11.135 -1.7419 -0.2669  0.0626
 3912SOL    HW213744  10.908   9.359  11.003 -3.5200 -0.1098  0.1424
 3913SOL     OW13745   6.136   6.886   9.765 -0.5239 -0.5903 -0.4053
 3913SOL    HW113746   6.114   6.978   9.776 -1.0806 -0.6650 -0.8496
 3913SOL    HW213747   6.106   6.844   9.846 -2.9362 -0.8382 -1.3466
 3914SOL     OW13748   6.218   5.152   3.254 -0.1596  0.0913 -0.1986
 3914SOL    HW113749   6.299   5.106   3.229 -1.1422 -2.2741  0.6403
 3914SOL    HW213750   6.218   5.147   3.350 -0.7879  1.0570 -0.1402
 3915SOL     OW13751   2.551   6.442   7.321  0.7137 -0.5596  0.1426
 3915SOL    HW113752   2.595   6.503   7.381  1.4633  1.4046 -2.2416
 3915SOL    HW213753   2.458   6.464   7.329  0.7199 -0.8108  1.0605
 3916SOL     OW13754   8.471   6.390   8.480 -0.3758  0.7567 -0.3360
 3916SOL    HW113755   8.544   6.448   8.503  0.7974 -0.9936  0.5964
 3916SOL    HW213756   8.466   6.395   8.385  2.3448 -0.5714 -0.6568
 3917SOL     OW13757   2.038  10.536   7.119 -0.3307  0.0961  0.4143
 3917SOL    HW113758   2.087  10.507   7.042 -0.7029 -2.1491  0.9427
 3917SOL    HW213759   1.984  10.609   7.087 -0.6614 -0.9343 -1.5372
 3918SOL     OW13760   4.534   4.067   3.176  0.1347 -0.0227 -0.8936
 3918SOL    HW113761   4.543   4.140   3.236  0.0151 -1.4141  0.9124
 3918SOL    HW213762   4.484   4.002   3.225  1.3879 -1.8430 -1.9087
 3919SOL     OW13763   7.984   5.936   2.829  0.2266  0.1037  0.0636
 3919SOL    HW113764   7.991   5.905   2.919  1.1077 -1.8356 -0.6332
 3919SOL    HW213765   8.074   5.959   2.804 -0.2129  2.1017  0.1242
 3920SOL     OW13766   5.671   4.445   2.459  0.1231 -0.2200  0.4071
 3920SOL    HW113767   5.582   4.470   2.434 -0.4169 -0.5522  1.8708
 3920SOL    HW213768   5.713   4.527   2.485  0.6078  0.0901 -1.2278
 3921SOL     OW13769   2.099   7.656   3.065  0.9375  0.2746 -0.5261
 3921SOL    HW113770   2.143   7.606   3.133  1.0302  0.4430 -0.4616
 3921SOL    HW213771   2.059   7.590   3.009  1.5086  0.1042 -0.7445
 3922SOL     OW13772   9.367   4.028   1.520  0.0062 -0.8303 -0.4906
 3922SOL    HW113773   9.280   3.990   1.522 -0.7726  0.8900 -0.0214
 3922SOL    HW213774   9.359   4.104   1.462  1.3576 -0.9989 -0.9379
 3923SOL     OW13775   3.153  10.146   1.651 -0.3277  0.2985 -0.3032
 3923SOL    HW113776   3.069  10.154   1.606  0.2048 -1.2737 -1.6672
 3923SOL    HW213777   3.215  10.120   1.582  0.8374 -0.6593  1.0563
 3924SOL     OW13778   8.912   0.595  10.732  0.2179  0.4753 -0.2830
 3924SOL    HW113779   8.936   0.505  10.753 -0.8522  0.1288 -0.4715
 3924SOL    HW213780   8.872   0.590  10.645 -2.3407  0.6514  0.7916
 3925SOL     OW13781   0.902   8.146   2.671 -0.0279  0.3219 -0.7196
 3925SOL    HW113782   0.983   8.171   2.717 -0.7062 -0.3713  0.9162
 3925SOL    HW213783   0.931   8.084   2.604  1.1380  2.2598 -2.1170
 3926SOL     OW13784   8.101   2.632   4.307  0.3348 -0.0810  0.2697
 3926SOL    HW113785   8.135   2.718   4.329 -1.0067  0.3740  0.6265
 3926SOL    HW213786   8.010   2.647   4.283  0.1102 -1.3822  0.2312
 3927SOL     OW13787   1.152   5.408   3.876  0.0666 -0.1203 -0.6214
 3927SOL    HW113788   1.099   5.328   3.876  0.0504 -0.1190  0.3306
 3927SOL    HW213789   1.103   5.469   3.931 -1.3609  1.5539 -3.5136
 3928SOL     OW13790   6.623   4.597   3.024 -0.3110 -0.2650 -0.2801
 3928SOL    HW113791   6.614   4.565   2.934  1.5144 -0.1765 -0.5409
 3928SOL    HW213792   6.544   4.649   3.039 -0.0487  0.8465 -2.3190
 3929SOL     OW13793   2.550   0.500  10.918  0.2516  0.0445  0.1319
 3929SOL    HW113794   2.536   0.581  10.869  1.5221  0.6067  0.6457
 3929SOL    HW213795   2.589   0.440  10.855  0.2420  0.1736  0.0043
 3930SOL     OW13796   4.525   1.373   2.416 -0.2093 -0.0063 -0.6024
 3930SOL    HW113797   4.468   1.447   2.437 -0.1323 -0.5904  1.9641
 3930SOL    HW213798   4.483   1.331   2.341 -1.4171  1.3937 -0.7593
 3931SOL     OW13799   8.420   2.029   9.153 -0.2906 -0.1077 -0.1022
 3931SOL    HW113800   8.326   2.016   9.163  0.1300 -2.2484  2.0967
 3931SOL    HW213801   8.447   1.965   9.087  0.1354 -2.7941  2.4686
 3932SOL     OW13802   9.089   9.910   6.167 -0.2185 -0.4515 -0.5705
 3932SOL    HW113803   9.094   9.877   6.256 -0.2903 -1.7374 -1.0161
 3932SOL    HW213804   9.152   9.857   6.118  0.0475  0.4466 -1.2199
 3933SOL     OW13805   5.327   5.281   2.692  0.7233  0.4380  0.0421
 3933SOL    HW113806   5.400   5.221   2.676  1.7567  1.4838  0.5732
 3933SOL    HW213807   5.318   5.282   2.788  1.2984  1.7231  0.1146
 3934SOL     OW13808   6.959   8.031   2.171 -0.1421  0.3919 -0.0830
 3934SOL    HW113809   7.000   8.018   2.085 -0.4636 -1.2065 -0.0216
 3934SOL    HW213810   6.935   8.124   2.172  3.3395  1.4353 -0.1591
 3935SOL     OW13811   9.349   8.443   5.121 -0.3306  0.1376 -0.2659
 3935SOL    HW113812   9.276   8.388   5.150 -1.2990  0.0508 -2.6949
 3935SOL    HW213813   9.312   8.499   5.054  1.4950  1.2320 -0.4228
 3936SOL     OW13814   8.163   9.099   2.854 -0.8047 -0.9341 -0.3637
 3936SOL    HW113815   8.209   9.138   2.927 -2.0556  0.3818 -0.2372
 3936SOL    HW213816   8.227   9.099   2.782  0.7127 -3.0292  0.8911
 3937SOL     OW13817   2.021   5.641  10.894  0.3982  0.8441 -0.5053
 3937SOL    HW113818   2.069   5.665  10.974  0.0419 -0.1260  0.0183
 3937SOL    HW213819   1.930   5.661  10.914  0.1148 -0.7116 -0.1194
 3938SOL     OW13820   4.954   3.640   5.525  0.3385  0.3935 -0.2295
 3938SOL    HW113821   4.912   3.718   5.489 -0.3439 -0.2512 -0.8786
 3938SOL    HW213822   4.959   3.656   5.619  0.2338  1.2280 -0.3629
 3939SOL     OW13823   2.065  10.622   8.590  0.2096 -0.1576  0.2742
 3939SOL    HW113824   1.976  10.634   8.626  0.8219  0.0944  1.7897
 3939SOL    HW213825   2.062  10.537   8.546 -0.4042 -0.8548  1.5940
 3940SOL     OW13826   3.152  10.783   0.918  0.1557  0.5017  0.2736
 3940SOL    HW113827   3.138  10.830   1.000  0.4408  1.0768 -0.0016
 3940SOL    HW213828   3.247  10.772   0.913  0.1373  0.4401  0.0420
 3941SOL     OW13829   0.287   0.761   4.529 -0.3714  0.0973  0.1955
 3941SOL    HW113830   0.352   0.749   4.461  0.2431  1.3797  0.5425
 3941SOL    HW213831   0.335   0.799   4.603 -0.3128 -3.8892  2.5421
 3942SOL     OW13832  10.367   4.956   8.462  0.7596  0.1236 -1.0196
 3942SOL    HW113833  10.414   4.994   8.387  1.0108  3.1598  0.5380
 3942SOL    HW213834  10.294   5.015   8.478  0.6766 -0.4705  1.1140
 3943SOL     OW13835   7.090   8.169   6.954 -0.4188  0.3191  0.4752
 3943SOL    HW113836   7.092   8.076   6.977  1.5862  0.2366  0.1486
 3943SOL    HW213837   7.089   8.214   7.039 -2.7983  0.0608  0.6566
 3944SOL     OW13838   8.785   8.546   2.191  0.0255  0.3330 -0.3749
 3944SOL    HW113839   8.803   8.527   2.283  0.1515 -1.2960 -0.7051
 3944SOL    HW213840   8.868   8.579   2.156  0.2784 -0.0397 -0.1376
 3945SOL     OW13841   8.190   3.859   4.583  0.4860  0.1391 -0.0660
 3945SOL    HW113842   8.146   3.776   4.564  1.5490 -0.5709  0.4901
 3945SOL    HW213843   8.163   3.917   4.512  1.6966 -1.4258 -1.8678
 3946SOL     OW13844   1.460   3.477   7.193 -0.2348  0.3625  0.4913
 3946SOL    HW113845   1.381   3.523   7.221 -1.3232 -1.1390  0.0322
 3946SOL    HW213846   1.439   3.445   7.105  0.5067 -0.8557  0.7297
 3947SOL     OW13847   3.312   7.667   9.660 -0.5662 -0.0966  0.0106
 3947SOL    HW113848   3.258   7.726   9.713 -0.4247  0.2729 -0.2509
 3947SOL    HW213849   3.287   7.687   9.570  1.3611  1.4819 -0.2474
 3948SOL     OW13850   0.969   0.657   7.400  0.0745 -0.1122  0.1003
 3948SOL    HW113851   0.955   0.649   7.306 -1.9889  0.5374  0.2969
 3948SOL    HW213852   0.949   0.570   7.435  0.0898 -0.1550  0.0031
 3949SOL     OW13853   8.735   6.678   0.666  1.0093  0.0263  0.7232
 3949SOL    HW113854   8.729   6.585   0.688  1.7080 -0.2323 -0.1047
 3949SOL    HW213855   8.829   6.695   0.662  0.9977 -0.0718 -2.3807
 3950SOL     OW13856   2.381   2.324   9.693  0.4140  0.1634  0.1219
 3950SOL    HW113857   2.472   2.332   9.722 -0.4907  1.7465  2.9483
 3950SOL    HW213858   2.339   2.405   9.722 -1.7602 -0.1947 -1.7474
 3951SOL     OW13859   8.393   2.795   8.082 -0.3115  0.6451  0.6725
 3951SOL    HW113860   8.310   2.843   8.081  0.3567  1.8529 -0.0364
 3951SOL    HW213861   8.408   2.773   7.990 -0.4556 -0.6910  0.9562
 3952SOL     OW13862   6.963   6.542   6.049  0.5233  0.4153  0.6545
 3952SOL    HW113863   7.035   6.605   6.055 -0.3024  1.2858  3.9365
 3952SOL    HW213864   6.894   6.588   6.002  0.7224  1.1398  1.0571
 3953SOL     OW13865   3.325   6.986   1.035  0.2574  1.0507 -0.4205
 3953SOL    HW113866   3.372   7.015   1.114 -2.1794  0.4207  1.3923
 3953SOL    HW213867   3.351   6.894   1.025  1.5376  1.4698 -1.1522
 3954SOL     OW13868   4.855   1.703   4.414  0.0252 -0.7255  0.5192
 3954SOL    HW113869   4.931   1.759   4.430  1.8821 -2.8826 -0.1666
 3954SOL    HW213870   4.830   1.722   4.323 -0.0316 -0.2602  0.6321
 3955SOL     OW13871   5.489   6.268   3.630 -0.4216  0.4676 -0.1405
 3955SOL    HW113872   5.529   6.310   3.555  1.3847 -2.5284 -1.0462
 3955SOL    HW213873   5.556   6.208   3.663 -2.2517 -0.6508  1.8921
 3956SOL     OW13874   1.548   2.190   9.273  1.0267 -0.5838  0.2799
 3956SOL    HW113875   1.478   2.128   9.295  0.8688 -0.2613  0.6822
 3956SOL    HW213876   1.502   2.270   9.248  1.2391 -0.5635 -0.0531
 3957SOL     OW13877   0.800   4.115   6.450 -0.1152  0.3989 -0.4646
 3957SOL    HW113878   0.819   4.209   6.446 -0.8110  0.6478  1.1414
 3957SOL    HW213879   0.798   4.095   6.543 -0.8442 -1.0373 -0.7542
 3958SOL     OW13880   8.038   0.495   7.632  0.1415  0.6763  0.1216
 3958SOL    HW113881   7.957   0.544   7.624 -0.1098  0.6312  1.8936
 3958SOL    HW213882   8.017   0.423   7.693  2.1974  2.4701  3.2275
 3959SOL     OW13883  10.935   6.744   8.633 -0.2749 -0.0729  0.3783
 3959SOL    HW113884  10.840   6.745   8.642 -0.4079 -0.3338 -0.7546
 3959SOL    HW213885  10.951   6.679   8.564  0.8021 -0.8146  1.3052
 3960SOL     OW13886   0.787   7.065   7.487  0.7267 -0.0005  0.3646
 3960SOL    HW113887   0.702   7.058   7.442  1.5849  0.6483 -1.4481
 3960SOL    HW213888   0.808   6.975   7.512 -1.1379 -0.0053  2.1826
 3961SOL     OW13889   7.984  10.965   1.687  0.0028 -0.4977  0.3701
 3961SOL    HW113890   7.954  10.986   1.599  1.7668  0.1181 -0.1254
 3961SOL    HW213891   8.060  10.908   1.674  1.4534  1.0935  1.3741
 3962SOL     OW13892   8.642   1.091   3.849 -0.4016 -0.0334  0.1144
 3962SOL    HW113893   8.618   1.135   3.767 -0.2256 -0.0661  0.0451
 3962SOL    HW213894   8.640   1.160   3.915 -0.0119  0.1045 -0.0145
 3963SOL     OW13895   9.322   2.736  10.347 -0.4439 -0.0092  0.6490
 3963SOL    HW113896   9.294   2.654  10.306  1.7197 -0.0333 -0.9439
 3963SOL    HW213897   9.401   2.713  10.396 -0.3260  0.9482  0.9312
 3964SOL     OW13898   6.628   5.363   7.599  0.6680 -0.2165 -0.2971
 3964SOL    HW113899   6.576   5.424   7.547 -1.4857 -1.4125  0.3118
 3964SOL    HW213900   6.696   5.417   7.638  0.1050  1.3894 -1.4176
 3965SOL     OW13901   0.974   5.247   9.957 -0.2944  0.4606  0.3034
 3965SOL    HW113902   1.036   5.187   9.916 -0.4348  0.8662 -0.5409
 3965SOL    HW213903   0.936   5.197  10.029 -0.2495 -0.3907 -0.2444
 3966SOL     OW13904   6.011   5.902  10.928  0.1153  1.0468 -0.3435
 3966SOL    HW113905   5.915   5.897  10.921  0.1960 -1.5035 -0.6220
 3966SOL    HW213906   6.043   5.867  10.845  1.2318 -1.2194  0.9427
 3967SOL     OW13907   6.330   4.139   3.135 -0.2947  0.7023  0.5013
 3967SOL    HW113908   6.345   4.062   3.190  0.6858 -0.7963 -1.7116
 3967SOL    HW213909   6.407   4.143   3.078 -1.4193  1.9139 -1.0231
 3968SOL     OW13910   5.155   4.316   9.109 -0.0751  0.2970  0.6357
 3968SOL    HW113911   5.156   4.260   9.032 -1.8569  1.5529 -0.3800
 3968SOL    HW213912   5.094   4.273   9.169  0.7552 -0.2960  1.0856
 3969SOL     OW13913   6.044  10.265   0.861 -0.1245  0.4297  0.9641
 3969SOL    HW113914   6.053  10.305   0.775  1.1707 -0.0749  0.8522
 3969SOL    HW213915   6.090  10.324   0.920 -2.3201  1.6033  1.6120
 3970SOL     OW13916   1.165   5.459  10.879  0.6052 -0.1577  0.1087
 3970SOL    HW113917   1.212   5.378  10.900  0.7658 -0.1764 -0.3106
 3970SOL    HW213918   1.204   5.488  10.797 -2.3945 -2.0531 -2.2254
 3971SOL     OW13919   9.572   6.238   8.044  0.0003  0.1474  0.0376
 3971SOL    HW113920   9.620   6.316   8.073 -0.8639  0.4679  0.6237
 3971SOL    HW213921   9.603   6.168   8.101  0.6513  0.0826 -0.3783
 3972SOL     OW13922  10.125   8.359   4.288  0.1697 -0.0047 -0.1412
 3972SOL    HW113923  10.176   8.280   4.307 -0.7680 -0.7006 -0.4284
 3972SOL    HW213924  10.170   8.429   4.335  1.3800 -0.5927 -0.3851
 3973SOL     OW13925   4.462   1.882   6.946 -0.9437 -0.1348  0.2469
 3973SOL    HW113926   4.417   1.901   6.864  0.2008  1.8566  0.0150
 3973SOL    HW213927   4.405   1.819   6.991 -2.5329  0.1802 -1.2323
 3974SOL     OW13928   8.422   1.550   0.342 -0.2359  0.2243 -0.4376
 3974SOL    HW113929   8.456   1.629   0.299 -0.7258  0.4261 -0.4546
 3974SOL    HW213930   8.350   1.581   0.396  0.4925 -0.0086  0.6822
 3975SOL     OW13931   0.093   3.820   3.529  0.3100 -0.2961 -0.0901
 3975SOL    HW113932   0.088   3.909   3.566 -1.7934 -0.3282 -0.1521
 3975SOL    HW213933   0.187   3.800   3.527  0.9418  2.3083 -1.0279
 3976SOL     OW13934   4.880  11.075   1.323  1.0090  0.5546 -0.2064
 3976SOL    HW113935   4.789  11.092   1.300  1.5080  1.1153 -1.9220
 3976SOL    HW213936   4.884  11.088   1.418 -0.2789  2.5634 -0.3666
 3977SOL     OW13937   5.073   9.873   9.709 -0.6306 -0.5597  0.1115
 3977SOL    HW113938   5.034   9.799   9.662  0.7458 -1.1966 -0.0968
 3977SOL    HW213939   5.161   9.881   9.671  0.4819 -0.9902  2.4368
 3978SOL     OW13940   6.613   9.120   3.890  0.5704 -1.0120 -0.1774
 3978SOL    HW113941   6.612   9.200   3.943  0.2838 -2.3072  1.8538
 3978SOL    HW213942   6.700   9.082   3.906 -0.0615 -2.1796  0.6161
 3979SOL     OW13943   4.253   2.677   1.430  0.1413  0.2534  0.0061
 3979SOL    HW113944   4.206   2.731   1.494  0.6601  1.2923 -0.4767
 3979SOL    HW213945   4.234   2.587   1.458  1.6949  0.6365  2.6670
 3980SOL     OW13946   7.459   9.622   9.678 -0.3542  0.2563  0.2289
 3980SOL    HW113947   7.524   9.552   9.681  0.5711  0.9120 -2.1051
 3980SOL    HW213948   7.388   9.592   9.734 -0.2026 -2.7870 -1.0250
 3981SOL     OW13949   5.185   5.301   2.984  0.1690  0.3077  0.3696
 3981SOL    HW113950   5.092   5.317   2.965 -0.4949 -0.8895  2.3009
 3981SOL    HW213951   5.210   5.372   3.043 -0.3804 -0.8767  2.1194
 3982SOL     OW13952   7.850   2.972   1.330  0.3957 -0.2727 -0.6220
 3982SOL    HW113953   7.820   2.978   1.240 -0.4105 -1.3027 -0.4410
 3982SOL    HW213954   7.776   3.001   1.383  0.6941 -0.1368 -0.2705
 3983SOL     OW13955   9.643   0.233   1.050  0.3107 -0.3335  0.4116
 3983SOL    HW113956   9.572   0.175   1.077 -0.2399 -0.2909 -0.8789
 3983SOL    HW213957   9.716   0.174   1.031  0.6335 -0.3805  1.7085
 3984SOL     OW13958   6.493   0.988   3.979  0.2451  0.2232 -0.5844
 3984SOL    HW113959   6.469   0.909   3.931 -2.5670 -0.8249  2.2070
 3984SOL    HW213960   6.539   0.957   4.057 -2.3787  1.0026  1.4333
 3985SOL     OW13961   1.052   2.134  11.024 -0.5913 -0.1112  0.2520
 3985SOL    HW113962   1.087   2.051  10.992 -0.6143  0.5723 -1.6760
 3985SOL    HW213963   1.126   2.173  11.071 -0.6769 -1.3258  1.4618
 3986SOL     OW13964   3.326   2.433   5.597  0.1207 -0.1237  0.2842
 3986SOL    HW113965   3.404   2.386   5.567 -0.6440 -0.6263 -0.9594
 3986SOL    HW213966   3.360   2.497   5.660  1.3732 -1.2435  0.8043
 3987SOL     OW13967   3.086   9.800   6.501 -0.0120 -0.5312 -0.6056
 3987SOL    HW113968   3.108   9.764   6.415  0.7076 -0.4461 -0.4639
 3987SOL    HW213969   3.160   9.858   6.522  0.2536 -1.2212  0.4559
 3988SOL     OW13970  10.205   9.241   8.425 -0.4219 -0.1262  0.0762
 3988SOL    HW113971  10.175   9.178   8.490 -0.5640  0.2445  0.3722
 3988SOL    HW213972  10.128   9.295   8.406 -1.0864 -1.6751 -2.1488
 3989SOL     OW13973  10.057   5.139  10.310  0.0754 -0.1395 -0.5623
 3989SOL    HW113974   9.970   5.156  10.347  0.8444  0.9932  0.8300
 3989SOL    HW213975  10.058   5.045  10.293 -0.7145 -0.5427  1.3682
 3990SOL     OW13976   6.073   4.426   6.587 -0.1342 -0.1250  0.3209
 3990SOL    HW113977   6.167   4.443   6.577  0.2659 -0.9422  2.2641
 3990SOL    HW213978   6.068   4.356   6.653 -1.9886 -2.5921 -2.2364
 3991SOL     OW13979   8.168   7.932   3.708  0.2779  0.3945 -0.5013
 3991SOL    HW113980   8.114   8.011   3.715  0.7855  0.5683  3.3281
 3991SOL    HW213981   8.181   7.920   3.614 -2.2103  3.1915 -1.3382
 3992SOL     OW13982   7.490   3.976   1.017 -0.0689  0.1265  0.2895
 3992SOL    HW113983   7.579   3.944   1.028 -0.0593  0.0372 -0.0564
 3992SOL    HW213984   7.457   3.930   0.940  0.6490  2.4547 -1.5167
 3993SOL     OW13985   9.189   4.788   8.880 -0.2334  0.4000  0.2422
 3993SOL    HW113986   9.231   4.713   8.838 -1.6195 -0.8465  0.9942
 3993SOL    HW213987   9.257   4.828   8.933  0.8218  0.3647 -1.0534
 3994SOL     OW13988   0.118   2.906   7.388 -0.3545 -0.0054  0.2493
 3994SOL    HW113989   0.162   2.991   7.377 -1.0937  0.6447  2.0514
 3994SOL    HW213990   0.025   2.927   7.393 -0.7902 -1.2034 -1.7245
 3995SOL     OW13991   0.234   9.185   6.899 -0.3595 -0.2551  0.0652
 3995SOL    HW113992   0.143   9.153   6.899 -0.4251 -0.2563 -2.4228
 3995SOL    HW213993   0.234   9.257   6.835  1.1534  0.5802  0.9513
 3996SOL     OW13994   3.275   4.458   7.589 -0.0689 -0.0190 -0.1310
 3996SOL    HW113995   3.335   4.408   7.534 -1.8166 -1.9170 -0.4556
 3996SOL    HW213996   3.313   4.453   7.677  0.6639 -0.4384 -0.4631
 3997SOL     OW13997   4.682   0.992   2.328  0.2954 -0.3410  0.7265
 3997SOL    HW113998   4.598   0.961   2.362  0.6726  0.3458  2.3337
 3997SOL    HW213999   4.685   0.957   2.239 -1.8793 -0.0165  0.4693
 3998SOL     OW14000   1.821   7.116  10.085 -0.0086 -0.3096  0.4475
 3998SOL    HW114001   1.914   7.091  10.088  0.1797  0.3314  0.1695
 3998SOL    HW214002   1.822   7.209  10.064 -0.7016 -0.1312  1.1430
 3999SOL     OW14003  10.923   7.252   8.689  0.1996 -0.1704  0.7855
 3999SOL    HW114004  10.834   7.239   8.657  0.3737  0.0203  0.2142
 3999SOL    HW214005  10.979   7.213   8.621  0.5030 -1.8226  1.9318
 4000SOL     OW14006   7.107   2.889   5.315 -0.7608  0.5660 -0.0650
 4000SOL    HW114007   7.123   2.981   5.337  0.9084  0.1578  0.6442
 4000SOL    HW214008   7.190   2.846   5.334 -1.6471 -1.1768  0.0419
 4001SOL     OW14009   3.082   4.143   0.127 -0.4873  0.0365 -0.7203
 4001SOL    HW114010   3.017   4.206   0.094 -1.3706 -1.0445 -1.1221
 4001SOL    HW214011   3.059   4.132   0.219 -0.9773 -0.4435 -0.8933
 4002SOL     OW14012   4.521   9.567   8.181 -0.3333 -0.4064  0.3829
 4002SOL    HW114013   4.574   9.488   8.188 -0.9434 -0.9867 -0.9878
 4002SOL    HW214014   4.514   9.582   8.087 -1.4202  0.4572  0.5821
 4003SOL     OW14015   2.374   3.269   9.964 -0.3553  0.1282 -0.2726
 4003SOL    HW114016   2.444   3.207   9.985 -0.4604  0.3586  0.8504
 4003SOL    HW214017   2.402   3.351  10.006 -0.2190  0.8550 -1.7180
 4004SOL     OW14018   6.984   2.371   3.115 -0.4533 -0.1860  0.0405
 4004SOL    HW114019   6.959   2.439   3.053 -1.1776  1.2807  1.8583
 4004SOL    HW214020   6.907   2.314   3.122 -0.5610 -0.0440  0.0041
 4005SOL     OW14021   6.449   2.269   9.335 -0.6441 -0.1512 -0.0296
 4005SOL    HW114022   6.493   2.306   9.258  0.2903  2.3229  1.5724
 4005SOL    HW214023   6.518   2.261   9.400 -0.9375 -4.3546 -0.0032
 4006SOL     OW14024   1.088   6.247   3.630 -0.0439  0.2052  0.1010
 4006SOL    HW114025   1.175   6.288   3.630 -1.0303  2.4642  0.3464
 4006SOL    HW214026   1.053   6.267   3.717  0.2250 -3.2093  1.1207
 4007SOL     OW14027   8.838   8.394   4.865 -0.1517 -0.1543 -0.3873
 4007SOL    HW114028   8.901   8.323   4.852  0.1808  0.0902 -0.1118
 4007SOL    HW214029   8.831   8.402   4.961 -1.3835 -0.8784 -0.3856
 4008SOL     OW14030   1.823   7.345   4.302  0.0046 -0.3269 -0.3554
 4008SOL    HW114031   1.830   7.440   4.300 -0.5133 -0.2556  0.5192
 4008SOL    HW214032   1.772   7.323   4.224  1.1331 -0.0056 -1.2093
 4009SOL     OW14033   3.166   1.449   3.863 -0.2990  0.4278 -1.1933
 4009SOL    HW114034   3.257   1.427   3.882  0.0583  0.3850 -2.7781
 4009SOL    HW214035   3.116   1.373   3.891  0.3205 -0.1311 -1.5836
 4010SOL     OW14036  10.104   2.781  10.409 -0.1682  0.0394 -0.7212
 4010SOL    HW114037  10.049   2.783  10.487 -0.4711 -0.4480 -0.9180
 4010SOL    HW214038  10.175   2.842  10.429  0.5054 -1.0756  0.5043
 4011SOL     OW14039  10.092   0.832   5.416  0.5455 -0.1123 -0.1222
 4011SOL    HW114040   9.998   0.827   5.436  0.5078  2.1445  0.5067
 4011SOL    HW214041  10.098   0.810   5.323 -0.6140 -0.2169 -0.1845
 4012SOL     OW14042   7.857   3.185   9.361  0.1224 -0.1984  0.6450
 4012SOL    HW114043   7.807   3.249   9.411  0.1224  0.1076  0.2560
 4012SOL    HW214044   7.818   3.187   9.273 -0.3520 -1.2459  0.8191
 4013SOL     OW14045   2.574   3.762  10.883 -0.2329  0.4375  0.0770
 4013SOL    HW114046   2.512   3.824  10.844  1.9555  3.0645  0.4624
 4013SOL    HW214047   2.640   3.748  10.815  0.6035  0.5621  0.8371
 4014SOL     OW14048   9.646   3.689   9.265  0.1248 -0.4354 -0.1681
 4014SOL    HW114049   9.615   3.624   9.202  1.9386 -0.6550 -0.8861
 4014SOL    HW214050   9.635   3.773   9.221 -0.3637 -0.4180 -0.0202
 4015SOL     OW14051   9.056   7.496   3.714  0.7174 -0.0648  0.2148
 4015SOL    HW114052   9.085   7.484   3.624  2.5841 -1.3149  0.9235
 4015SOL    HW214053   9.029   7.587   3.719  1.5703  0.2981 -1.3448
 4016SOL     OW14054   4.499   5.864   2.229  0.2978 -0.9669  0.4812
 4016SOL    HW114055   4.418   5.823   2.197 -0.8520  0.2539  1.6907
 4016SOL    HW214056   4.561   5.792   2.237 -2.1048 -2.9604  4.1747
 4017SOL     OW14057   4.922   2.968   8.419  0.1968  0.3730 -0.5235
 4017SOL    HW114058   4.885   2.894   8.467 -0.7773  1.7614  0.9806
 4017SOL    HW214059   4.968   2.928   8.346  1.8221 -1.9196  1.5546
 4018SOL     OW14060   0.258   5.435   9.044 -0.4704 -0.2401 -0.2673
 4018SOL    HW114061   0.337   5.466   9.088  0.2429 -2.2522 -0.0327
 4018SOL    HW214062   0.268   5.463   8.954  1.3329 -1.7835 -0.6117
 4019SOL     OW14063   8.186   7.389   2.836 -0.0462 -0.1069  0.4748
 4019SOL    HW114064   8.205   7.384   2.929 -1.6832 -2.1664  0.7791
 4019SOL    HW214065   8.250   7.451   2.801  0.0274  1.4294  3.0930
 4020SOL     OW14066   5.398  10.129   3.152  0.5652 -0.0894  0.1992
 4020SOL    HW114067   5.394  10.033   3.146  0.6660 -0.0755 -0.0890
 4020SOL    HW214068   5.307  10.156   3.162  0.5291 -0.2095  0.1986
 4021SOL     OW14069   6.304   3.676   9.290  0.1653  0.2820 -0.4060
 4021SOL    HW114070   6.286   3.598   9.342  1.0201  2.4240  3.4826
 4021SOL    HW214071   6.224   3.728   9.295  0.9864  1.4784  0.6813
 4022SOL     OW14072   8.566   6.863   4.018  0.3121  0.2180 -0.5218
 4022SOL    HW114073   8.566   6.793   3.952 -0.3381  0.7923 -1.1432
 4022SOL    HW214074   8.658   6.871   4.043  0.5346 -0.1964 -1.1684
 4023SOL     OW14075   2.781   4.985   8.786  0.3677 -0.1902 -0.2064
 4023SOL    HW114076   2.771   5.055   8.851 -0.4129 -0.5919  0.1231
 4023SOL    HW214077   2.875   4.978   8.773  0.4546  0.9680 -0.2904
 4024SOL     OW14078   2.891   7.284   5.467  0.4759 -0.6374 -0.0339
 4024SOL    HW114079   2.958   7.307   5.402 -0.2637 -1.9605 -1.3402
 4024SOL    HW214080   2.939   7.274   5.549  1.6496 -0.1552 -0.6385
 4025SOL     OW14081   4.144  10.947   4.545 -0.1341  0.6197  0.3925
 4025SOL    HW114082   4.121  10.886   4.475 -2.0835  2.1182 -0.3753
 4025SOL    HW214083   4.213  11.001   4.507  2.3089 -1.5932  1.4133
 4026SOL     OW14084   1.974   8.516   7.555  0.1458 -0.7097  0.0727
 4026SOL    HW114085   1.888   8.547   7.584 -0.5361 -1.8713 -0.5842
 4026SOL    HW214086   1.955   8.435   7.507  1.5319 -0.5614 -0.8051
 4027SOL     OW14087   8.226   7.750   8.936  0.2087  0.0016 -0.8998
 4027SOL    HW114088   8.145   7.699   8.940 -0.7272  1.3398 -1.7384
 4027SOL    HW214089   8.198   7.835   8.902  1.6806  1.1552  0.6501
 4028SOL     OW14090   5.875  10.519   7.641 -0.0254 -0.2741  0.0705
 4028SOL    HW114091   5.967  10.522   7.614  0.4292  0.9602  1.5737
 4028SOL    HW214092   5.840  10.440   7.600  1.5129 -0.3832 -1.1074
 4029SOL     OW14093   3.906   8.231   8.092  0.0095 -0.1781  0.5024
 4029SOL    HW114094   3.929   8.324   8.092 -0.0839 -0.1538  0.8300
 4029SOL    HW214095   3.881   8.213   8.183  1.1598 -0.7990  0.7092
 4030SOL     OW14096   2.524  10.378   4.243  0.0951  0.3907  0.0317
 4030SOL    HW114097   2.572  10.402   4.322  0.8308  2.0195 -0.8528
 4030SOL    HW214098   2.466  10.452   4.227 -1.4111 -0.7333  0.0420
 4031SOL     OW14099   5.860   6.339   5.786 -0.7377 -0.3553  1.1603
 4031SOL    HW114100   5.944   6.374   5.756 -1.9404  2.4410  0.7184
 4031SOL    HW214101   5.850   6.374   5.875 -0.6012 -2.3056  1.9802
 4032SOL     OW14102   5.216   3.729   5.043 -0.4360 -0.1981  0.8479
 4032SOL    HW114103   5.292   3.772   5.004 -0.7192 -0.5788 -0.1535
 4032SOL    HW214104   5.186   3.790   5.110  0.6082  0.0587  1.0977
 4033SOL     OW14105  10.763   0.416   9.954  0.1798 -0.0834 -0.6929
 4033SOL    HW114106  10.710   0.421  10.034  1.0557 -0.0587 -0.0976
 4033SOL    HW214107  10.805   0.502   9.948  1.4884 -0.6588 -0.1976
 4034SOL     OW14108   3.588   8.253   6.412 -0.6864  0.5789  0.3403
 4034SOL    HW114109   3.611   8.304   6.335  2.7972  0.3903  1.1056
 4034SOL    HW214110   3.602   8.312   6.486 -0.1497 -0.3977  1.0366
 4035SOL     OW14111   8.580   8.846   1.769  0.5198 -0.6423  0.6819
 4035SOL    HW114112   8.484   8.839   1.772  0.5008 -0.1123  1.6229
 4035SOL    HW214113   8.611   8.757   1.786  0.1966 -0.5902  1.6075
 4036SOL     OW14114   7.909   8.584   6.106 -0.2651 -0.0592 -0.1233
 4036SOL    HW114115   7.981   8.641   6.132  0.0080 -0.3105 -0.3254
 4036SOL    HW214116   7.937   8.496   6.130 -0.3858 -0.1918 -0.4526
 4037SOL     OW14117   2.748  11.037   4.141 -0.0197  0.5038  0.3617
 4037SOL    HW114118   2.798  11.104   4.094 -0.5863 -0.1647 -1.2445
 4037SOL    HW214119   2.814  10.975   4.172  0.2300 -1.8763 -4.0533
 4038SOL     OW14120   6.703   9.947   0.364 -0.6255  0.1345  0.1069
 4038SOL    HW114121   6.671   9.920   0.278 -0.1456 -0.3285  0.0680
 4038SOL    HW214122   6.628   9.933   0.423 -0.4979 -0.9919  0.0306
 4039SOL     OW14123  10.178   5.228  10.919  0.1272 -0.1776 -0.3174
 4039SOL    HW114124  10.270   5.251  10.907 -0.5473  2.6080 -0.8941
 4039SOL    HW214125  10.177   5.173  10.997  2.2960 -0.5947 -0.5164
 4040SOL     OW14126   6.125   8.236   9.951  0.6278  0.2211 -0.3982
 4040SOL    HW114127   6.082   8.210  10.032  1.7409  0.6083  0.3397
 4040SOL    HW214128   6.083   8.319   9.927  1.6869  1.1945  0.9427
 4041SOL     OW14129   3.933   6.667   2.889 -0.4439 -1.1495  0.5776
 4041SOL    HW114130   3.851   6.652   2.842 -0.8545  0.8178  0.5949
 4041SOL    HW214131   3.907   6.667   2.981 -0.7618  0.9943  0.5389
 4042SOL     OW14132  10.488   9.291   0.607  0.0248 -0.2331  0.2832
 4042SOL    HW114133  10.524   9.349   0.673  0.9184 -0.1000 -0.3068
 4042SOL    HW214134  10.505   9.335   0.524  0.0512 -0.9876 -0.1196
 4043SOL     OW14135   7.952   9.588   7.105 -0.4031 -0.5015  0.1575
 4043SOL    HW114136   8.026   9.528   7.093  0.0311  0.3594 -1.8515
 4043SOL    HW214137   7.963   9.653   7.036 -2.7786 -0.0663  0.1211
 4044SOL     OW14138   5.601   9.628   7.223  0.3558  0.0160  0.1252
 4044SOL    HW114139   5.686   9.587   7.202  1.5116  2.6349 -0.6594
 4044SOL    HW214140   5.539   9.584   7.165  0.9003 -2.6237  1.3707
 4045SOL     OW14141   1.066   4.838   5.701  0.0644  0.1777  0.0136
 4045SOL    HW114142   1.060   4.931   5.722 -1.1897  0.3879 -1.0692
 4045SOL    HW214143   0.975   4.809   5.695  0.3942 -0.7076 -1.2919
 4046SOL     OW14144   3.164   5.412   8.223  0.4075  0.2308  0.0785
 4046SOL    HW114145   3.105   5.471   8.176  2.5649  1.8932 -0.7179
 4046SOL    HW214146   3.107   5.364   8.283 -1.8828  0.9245 -1.3947
 4047SOL     OW14147   9.999  10.532   3.496  0.8779  0.4224  0.2167
 4047SOL    HW114148   9.947  10.586   3.437  1.0355 -0.2509 -0.5515
 4047SOL    HW214149   9.950  10.534   3.579  0.2402  0.7450 -0.1551
 4048SOL     OW14150   7.787   4.865   2.299 -0.6031 -0.1252  0.6389
 4048SOL    HW114151   7.779   4.870   2.394  0.3430 -0.5306  0.7443
 4048SOL    HW214152   7.732   4.937   2.267 -3.2749 -1.7112  1.3510
 4049SOL     OW14153   1.936  10.567   3.492  1.0738  0.2304 -0.2466
 4049SOL    HW114154   1.881  10.496   3.525 -1.3020  0.7581 -2.7384
 4049SOL    HW214155   1.943  10.628   3.565 -2.4535  0.5426 -0.0058
 4050SOL     OW14156   0.604   3.838   3.964 -0.0473 -0.3668 -0.9478
 4050SOL    HW114157   0.535   3.773   3.949 -0.6154 -0.1320  0.4980
 4050SOL    HW214158   0.647   3.847   3.879 -2.4366  0.2218 -2.2051
 4051SOL     OW14159   5.697  10.714   7.736  0.2841  0.3310  0.4200
 4051SOL    HW114160   5.719  10.717   7.829  1.2474  0.8024  0.1972
 4051SOL    HW214161   5.778  10.684   7.694 -0.6035 -1.3674 -0.1358
 4052SOL     OW14162  10.899  10.533   2.711  0.1186  0.0872 -0.0175
 4052SOL    HW114163  10.805  10.554   2.714 -0.4154 -1.7667 -1.6237
 4052SOL    HW214164  10.907  10.455   2.766  0.6994  0.1537 -0.0119
 4053SOL     OW14165   4.650   6.535  10.754  0.2458 -0.5320  0.4697
 4053SOL    HW114166   4.652   6.631  10.758 -2.7365 -0.4133  1.5255
 4053SOL    HW214167   4.631   6.507  10.843 -1.6219 -1.9060 -0.2887
 4054SOL     OW14168  11.096   9.515   0.822 -0.7277  0.0796 -0.9218
 4054SOL    HW114169  11.032   9.586   0.833 -0.0214  0.8814 -1.7878
 4054SOL    HW214170  11.177   9.550   0.858 -0.6365 -0.7412 -0.3087
 4055SOL     OW14171   1.122   6.903   8.162 -0.0670  0.2033  0.0072
 4055SOL    HW114172   1.030   6.923   8.177  0.1843  1.6867 -0.2782
 4055SOL    HW214173   1.155   6.879   8.249 -0.7321 -0.4486  0.0926
 4056SOL     OW14174   0.277   6.748   0.816 -0.3349  0.1566  0.4982
 4056SOL    HW114175   0.358   6.759   0.766 -0.4538 -0.0642  0.2525
 4056SOL    HW214176   0.266   6.831   0.862  0.0024  0.2081  0.4914
 4057SOL     OW14177   1.681   0.021   7.875 -0.6284 -0.1245 -0.3509
 4057SOL    HW114178   1.676   0.049   7.784  0.4163 -0.0419 -0.3868
 4057SOL    HW214179   1.757   0.066   7.911 -0.0092 -1.4500  0.0889
 4058SOL     OW14180   6.475   0.392   9.017 -0.1217 -0.1271  0.5547
 4058SOL    HW114181   6.456   0.485   9.009  0.3185 -0.1573 -1.3063
 4058SOL    HW214182   6.560   0.388   9.060  0.3595  0.3866 -0.3327
 4059SOL     OW14183  10.740   5.668   5.543  0.7056  0.7064 -0.2493
 4059SOL    HW114184  10.655   5.652   5.501  1.4639  0.2313 -1.6732
 4059SOL    HW214185  10.789   5.587   5.531  0.6450  0.1816  2.4921
 4060SOL     OW14186   7.419   1.090   4.861  0.1951  0.2984 -1.1476
 4060SOL    HW114187   7.467   1.007   4.855  0.4823  0.5096 -1.9913
 4060SOL    HW214188   7.459   1.136   4.935 -0.3793 -0.5604 -0.2847
 4061SOL     OW14189   3.721   5.853   8.320  0.5671 -0.4039  0.2247
 4061SOL    HW114190   3.762   5.772   8.351  0.6070 -0.6542 -0.4684
 4061SOL    HW214191   3.769   5.923   8.363  1.0083 -0.7277  0.2616
 4062SOL     OW14192   5.092   9.314   8.203  0.3056  0.6319  0.4456
 4062SOL    HW114193   5.048   9.381   8.151 -0.3157 -0.2019 -0.1449
 4062SOL    HW214194   5.136   9.259   8.138 -0.8760 -0.7025  0.7322
 4063SOL     OW14195   2.812   7.560   5.999 -0.0654  0.1153 -0.5847
 4063SOL    HW114196   2.869   7.529   6.070 -1.5905  1.6635  1.4398
 4063SOL    HW214197   2.740   7.497   5.997 -0.4920  0.5820 -0.1015
 4064SOL     OW14198   9.726   0.680   8.689 -0.3177 -0.6362 -0.2394
 4064SOL    HW114199   9.704   0.595   8.651 -1.0874 -0.5270 -0.0519
 4064SOL    HW214200   9.745   0.661   8.780  0.7092 -0.7783 -0.4784
 4065SOL     OW14201   4.464   8.429   7.622  0.5455  0.2486 -0.0404
 4065SOL    HW114202   4.494   8.518   7.602  0.1703  0.3367 -0.2194
 4065SOL    HW214203   4.525   8.373   7.574  0.6372  0.4150 -0.1216
 4066SOL     OW14204   3.358   9.062   2.950  0.5197  0.0722  0.1772
 4066SOL    HW114205   3.420   9.020   3.010 -0.0175  0.0955  0.7580
 4066SOL    HW214206   3.281   9.081   3.004 -0.5597 -1.2277 -0.8411
 4067SOL     OW14207  10.382   5.692   3.219  0.2956 -0.6249 -0.1146
 4067SOL    HW114208  10.347   5.718   3.134 -4.3328 -1.5963  1.1930
 4067SOL    HW214209  10.415   5.603   3.206  1.5381 -0.0357 -1.2297
 4068SOL     OW14210   6.099   8.851   6.564 -0.5667 -0.4464  0.3436
 4068SOL    HW114211   6.078   8.798   6.487 -2.3159 -0.4571  0.8020
 4068SOL    HW214212   6.069   8.799   6.638 -3.0585  1.4037  0.7831
 4069SOL     OW14213  10.547  11.045   2.186 -1.1302  0.7367  0.4158
 4069SOL    HW114214  10.488  11.032   2.112 -1.5008 -1.4840  1.0350
 4069SOL    HW214215  10.490  11.037   2.263 -0.4021  0.8716  0.9776
 4070SOL     OW14216   5.531   4.822  10.540  0.4674 -0.4019  0.0533
 4070SOL    HW114217   5.485   4.771  10.607  0.5337  0.7157  0.9823
 4070SOL    HW214218   5.623   4.795  10.548  0.5734  0.1527  0.8423
 4071SOL     OW14219   6.378   8.991   9.155  0.2200 -0.0766  0.1048
 4071SOL    HW114220   6.425   9.007   9.073 -0.0271  0.3480  0.0466
 4071SOL    HW214221   6.327   8.912   9.138 -1.7350  1.3340 -0.9942
 4072SOL     OW14222   2.411   9.057   2.809  0.1208  0.2507 -0.5096
 4072SOL    HW114223   2.349   9.041   2.880  2.3295 -0.3682  1.3780
 4072SOL    HW214224   2.376   9.006   2.735 -1.0476 -0.9265  0.8016
 4073SOL     OW14225   1.256   2.893   4.974  0.5023 -0.0394 -0.1244
 4073SOL    HW114226   1.269   2.818   5.033 -0.1168  0.4534  0.6560
 4073SOL    HW214227   1.294   2.967   5.021 -2.0509  0.7988  0.7328
 4074SOL     OW14228   7.418  10.661   0.880 -0.0619  0.2363  0.4537
 4074SOL    HW114229   7.432  10.633   0.790  0.0111 -2.2144  1.1510
 4074SOL    HW214230   7.346  10.606   0.911  0.2570  0.6561  2.0428
 4075SOL     OW14231   2.575   1.074   2.094 -0.0607  0.3549  0.5569
 4075SOL    HW114232   2.495   1.124   2.074  0.4614  0.5585 -1.2092
 4075SOL    HW214233   2.546   0.983   2.096 -0.5414  0.5130  1.1212
 4076SOL     OW14234   6.010   7.581   8.163 -0.1929  0.9008 -0.0554
 4076SOL    HW114235   5.971   7.624   8.239 -1.5644  0.0370 -0.2342
 4076SOL    HW214236   6.058   7.650   8.118 -0.2857  1.6667  0.9935
 4077SOL     OW14237   4.471   2.216   0.989  0.0448  0.1002  0.0238
 4077SOL    HW114238   4.562   2.210   0.960  0.4473  0.5049  1.1683
 4077SOL    HW214239   4.441   2.126   0.995  0.4687 -0.0423 -0.0333
 4078SOL     OW14240   8.392   2.970   6.959 -0.2577  0.2477 -0.2476
 4078SOL    HW114241   8.407   2.882   6.994  3.2390  1.5058  1.9914
 4078SOL    HW214242   8.351   3.017   7.032 -0.0181  1.0334 -0.6150
 4079SOL     OW14243   2.106   1.120   1.025 -0.2839  0.1480 -0.7404
 4079SOL    HW114244   2.123   1.084   0.938  2.8640  1.7416 -0.9626
 4079SOL    HW214245   2.036   1.184   1.012 -1.8315 -1.6305 -1.4676
 4080SOL     OW14246   8.288   0.866   9.396  0.6947 -0.3561 -0.5096
 4080SOL    HW114247   8.205   0.877   9.442  0.9213 -2.2000  0.4160
 4080SOL    HW214248   8.350   0.842   9.464  1.4480 -1.3704 -1.5161
 4081SOL     OW14249   1.809   7.785   2.830  0.2718  0.6900 -0.2795
 4081SOL    HW114250   1.850   7.798   2.745 -0.2120  1.5404 -0.3937
 4081SOL    HW214251   1.882   7.776   2.892  0.6763 -1.6980 -0.9890
 4082SOL     OW14252  10.264   6.123   1.474  0.0897  0.3996  0.0589
 4082SOL    HW114253  10.295   6.197   1.423  0.4253  1.3796  1.6186
 4082SOL    HW214254  10.224   6.163   1.552  0.7585 -1.0693  1.1944
 4083SOL     OW14255   4.568  10.675   9.594 -0.3081  0.0217 -0.4374
 4083SOL    HW114256   4.644  10.730   9.577  0.0751 -0.5756 -0.6710
 4083SOL    HW214257   4.500  10.709   9.537  0.8327 -1.7069 -3.0043
 4084SOL     OW14258   9.425   8.086   6.295 -0.1797 -0.4009 -0.1281
 4084SOL    HW114259   9.417   8.113   6.204 -0.7538  0.1566  0.0852
 4084SOL    HW214260   9.512   8.116   6.322 -0.6992  1.0190  0.0275
 4085SOL     OW14261   3.124   2.929   4.570 -0.0149 -0.3165  0.0709
 4085SOL    HW114262   3.130   3.014   4.525 -1.3812 -0.2187  0.0284
 4085SOL    HW214263   3.099   2.951   4.659  1.9344 -0.5641  0.7321
 4086SOL     OW14264   4.039   2.988   4.786 -0.3588  0.0536  0.1994
 4086SOL    HW114265   4.021   2.965   4.694  2.9672  1.4035 -0.9377
 4086SOL    HW214266   4.050   2.903   4.829  1.4005 -0.7046 -1.5315
 4087SOL     OW14267   2.915   0.059   7.026 -0.0119  0.1741 -0.3736
 4087SOL    HW114268   2.963   0.138   7.002  2.2160 -1.3601 -1.2515
 4087SOL    HW214269   2.972   0.015   7.089 -1.2945 -0.6726  0.2267
 4088SOL     OW14270   3.461   3.404   6.695 -0.0317  0.0272 -0.0711
 4088SOL    HW114271   3.533   3.364   6.744  0.3960  0.2931 -0.4733
 4088SOL    HW214272   3.405   3.444   6.761  0.5637  0.4226  0.2004
 4089SOL     OW14273   7.798   5.387   0.728 -0.2409  0.6475  0.2084
 4089SOL    HW114274   7.842   5.448   0.669 -0.3973  0.3903 -0.1814
 4089SOL    HW214275   7.805   5.303   0.684  1.5736  0.0124  1.5821
 4090SOL     OW14276   0.635   8.710   7.969  0.0426 -0.1562  0.7995
 4090SOL    HW114277   0.676   8.750   7.891 -0.5119 -2.5297 -0.8104
 4090SOL    HW214278   0.541   8.710   7.948  0.0205 -2.1735  0.7523
 4091SOL     OW14279   2.316   6.703   6.735 -0.4254 -0.2341  0.2776
 4091SOL    HW114280   2.274   6.772   6.785 -1.2574  0.2621 -1.0467
 4091SOL    HW214281   2.407   6.731   6.726 -0.5725  0.2897  0.4233
 4092SOL     OW14282   7.545   3.251   8.706  0.1839 -0.2506  0.2024
 4092SOL    HW114283   7.470   3.214   8.752  2.0420 -0.6583  3.1632
 4092SOL    HW214284   7.524   3.345   8.699 -1.1652 -0.5596 -0.3412
 4093SOL     OW14285   8.623  10.636   2.436  0.4968 -0.3661 -0.6936
 4093SOL    HW114286   8.655  10.611   2.349 -1.4018 -0.9649 -1.2885
 4093SOL    HW214287   8.534  10.669   2.420 -0.5637 -2.0841  1.1928
 4094SOL     OW14288   2.295   3.292   1.534 -0.1904  0.5052 -0.1318
 4094SOL    HW114289   2.288   3.385   1.510  0.3114  0.6511  0.2695
 4094SOL    HW214290   2.389   3.278   1.547 -0.3711  0.2280  0.9307
 4095SOL     OW14291   6.009   5.036   5.852  0.0336  0.2057  0.0456
 4095SOL    HW114292   6.037   5.101   5.918  0.5750  2.2923 -2.0837
 4095SOL    HW214293   6.088   4.983   5.837  0.4202  0.8101 -0.1105
 4096SOL     OW14294   7.336  10.044  10.982 -0.0560 -0.6402  0.1540
 4096SOL    HW114295   7.412  10.068  11.034 -0.7026 -1.0882  1.3315
 4096SOL    HW214296   7.370   9.983  10.916  0.6187 -0.7790  0.6220
 4097SOL     OW14297   6.601   9.092   1.751 -0.0875  0.4711 -0.2757
 4097SOL    HW114298   6.519   9.094   1.701 -0.1073 -0.2365 -0.2875
 4097SOL    HW214299   6.573   9.075   1.841  0.0553 -0.0368 -0.3229
 4098SOL     OW14300   9.806   9.503   2.087  0.3278  0.9306 -0.7174
 4098SOL    HW114301   9.807   9.515   1.992 -0.7484  2.0923 -0.6110
 4098SOL    HW214302   9.863   9.574   2.120 -0.2864  1.3051 -0.4447
 4099SOL     OW14303   2.334   6.308   5.187  0.2049  0.1779 -0.6181
 4099SOL    HW114304   2.407   6.324   5.248  1.0099  0.0576 -1.5266
 4099SOL    HW214305   2.347   6.218   5.158  0.6919  0.6888 -2.0677
 4100SOL     OW14306   5.132   5.487   5.398 -0.4174  0.2501 -0.0834
 4100SOL    HW114307   5.077   5.523   5.328 -0.6993  1.2017  0.6029
 4100SOL    HW214308   5.108   5.395   5.401 -1.3915  0.4779 -0.3404
 4101SOL     OW14309   3.548   6.735   1.588 -0.0752  0.3628  0.0320
 4101SOL    HW114310   3.583   6.817   1.554 -1.4439  0.5096 -1.1495
 4101SOL    HW214311   3.620   6.672   1.580 -0.1979  0.4561 -3.0325
 4102SOL     OW14312   1.153   0.996   8.639 -0.3906 -0.3880 -0.0463
 4102SOL    HW114313   1.097   0.994   8.561 -1.7457  0.2054  0.8791
 4102SOL    HW214314   1.165   1.089   8.658  1.9592 -0.4486 -0.9051
 4103SOL     OW14315   6.598   3.560   6.960 -0.0760 -0.2111  0.4390
 4103SOL    HW114316   6.688   3.565   6.928 -0.3166 -2.7771 -0.8479
 4103SOL    HW214317   6.544   3.587   6.885 -0.4377  0.4720  0.9303
 4104SOL     OW14318   5.487   3.858   8.965  0.0306 -0.3352 -0.5946
 4104SOL    HW114319   5.527   3.922   8.906 -0.1399 -0.0331 -0.3831
 4104SOL    HW214320   5.433   3.803   8.908 -0.5657  0.2958 -0.6514
 4105SOL     OW14321  10.477   7.031   2.808 -0.5829  0.5441 -1.1654
 4105SOL    HW114322  10.487   7.124   2.826 -1.4537  1.0316 -2.9419
 4105SOL    HW214323  10.475   6.990   2.894 -0.9889  2.2614 -0.3123
 4106SOL     OW14324   8.679   0.634   0.400  0.9088  0.0918  0.1673
 4106SOL    HW114325   8.625   0.571   0.352  0.8198 -0.7805  1.3725
 4106SOL    HW214326   8.652   0.720   0.365 -0.3967 -0.3991 -0.0989
 4107SOL     OW14327   3.838   4.047   0.094 -0.0981  0.2951 -0.4270
 4107SOL    HW114328   3.779   4.002   0.154  2.4378  0.3644  2.3732
 4107SOL    HW214329   3.804   4.027   0.007 -1.8422 -3.0570  0.8474
 4108SOL     OW14330  10.075   6.479   2.588 -0.3601  0.2540  1.0063
 4108SOL    HW114331  10.045   6.522   2.668 -0.8122 -2.8127  2.6596
 4108SOL    HW214332   9.995   6.462   2.538 -0.0454  2.4894 -0.3846
 4109SOL     OW14333   4.436  10.891   6.321  1.0888  0.1639 -0.7048
 4109SOL    HW114334   4.382  10.843   6.258  1.5854 -1.3534 -0.0177
 4109SOL    HW214335   4.520  10.904   6.276  0.6813  1.1373 -1.1957
 4110SOL     OW14336   1.661   1.498   1.271  0.1226 -0.0751 -0.6745
 4110SOL    HW114337   1.727   1.554   1.311 -0.9134  0.9250 -0.3337
 4110SOL    HW214338   1.606   1.470   1.344  0.0668 -0.8010 -0.9776
 4111SOL     OW14339   1.869  10.768   4.672  0.9056  0.7277  0.0197
 4111SOL    HW114340   1.775  10.779   4.660  0.3918 -2.6923 -0.0123
 4111SOL    HW214341   1.880  10.749   4.765  1.7971  2.4247  0.3068
 4112SOL     OW14342   4.795   4.959   0.327  0.0086 -0.1771  0.2776
 4112SOL    HW114343   4.831   4.885   0.278  0.1372 -1.3956  2.0967
 4112SOL    HW214344   4.869   4.990   0.381 -0.7537 -0.5323  1.5643
 4113SOL     OW14345   1.324   5.550   5.463  0.1421  0.7842 -0.2126
 4113SOL    HW114346   1.332   5.645   5.474  1.5731  0.4778  2.0518
 4113SOL    HW214347   1.400   5.526   5.410  0.0612  0.8400 -0.3542
 4114SOL     OW14348   0.236   6.021   6.164  0.1594 -0.2664  0.3167
 4114SOL    HW114349   0.322   6.051   6.192 -0.9044  2.8516  0.6514
 4114SOL    HW214350   0.198   5.980   6.242  0.2701  1.0530  1.0988
 4115SOL     OW14351   1.125   8.466   2.446  0.2351 -0.4860  0.0819
 4115SOL    HW114352   1.131   8.522   2.523  2.4118 -0.5526  0.0353
 4115SOL    HW214353   1.032   8.443   2.439 -0.3986  1.5464  1.1984
 4116SOL     OW14354   3.271   7.577   4.605  0.3802  0.8578  0.3889
 4116SOL    HW114355   3.272   7.541   4.516  0.4690  0.2950  0.6134
 4116SOL    HW214356   3.362   7.597   4.624  0.1824  2.6969 -0.3114
 4117SOL     OW14357   6.160   8.658   0.551 -0.0824  0.1990 -0.1698
 4117SOL    HW114358   6.115   8.574   0.552 -0.9856  0.6267 -1.4013
 4117SOL    HW214359   6.204   8.660   0.466 -1.3976  1.6056 -0.8572
 4118SOL     OW14360   8.897   6.473   6.749  0.2477  0.0215  0.2285
 4118SOL    HW114361   8.892   6.522   6.667  2.6567  2.5387  1.4234
 4118SOL    HW214362   8.816   6.495   6.795  0.8086  2.1607  0.2855
 4119SOL     OW14363   2.253   9.596   0.118 -0.7598  0.4301  0.4946
 4119SOL    HW114364   2.237   9.505   0.145 -0.3576  0.3418  0.4484
 4119SOL    HW214365   2.338   9.617   0.157 -1.0713  0.9462  0.8973
 4120SOL     OW14366   3.109   5.222   6.452 -0.1086 -0.1085  0.4488
 4120SOL    HW114367   3.189   5.192   6.408  0.0995  0.2281  0.5935
 4120SOL    HW214368   3.038   5.198   6.392  0.3135  2.0943 -1.0148
 4121SOL     OW14369   5.193   7.663   9.995 -0.2690  0.0941  0.6557
 4121SOL    HW114370   5.108   7.626   9.973  0.6076 -0.9638 -1.2160
 4121SOL    HW214371   5.179   7.758   9.993 -1.4284 -0.0640  0.4962
 4122SOL     OW14372   4.677   5.934   5.771 -0.0390 -0.4492 -0.6756
 4122SOL    HW114373   4.595   5.979   5.791 -0.2736 -0.9142 -0.5934
 4122SOL    HW214374   4.715   5.913   5.856  1.0997  1.4240 -0.6680
 4123SOL     OW14375   2.520   2.551   5.177 -0.2311  0.2092  0.1818
 4123SOL    HW114376   2.452   2.599   5.224 -1.6815 -3.0866  1.7706
 4123SOL    HW214377   2.491   2.552   5.086 -0.5025  1.8055  0.2615
 4124SOL     OW14378   3.599   3.146   4.506 -0.2884 -0.1241 -0.0454
 4124SOL    HW114379   3.577   3.130   4.598 -0.8523  1.2120  0.0877
 4124SOL    HW214380   3.517   3.130   4.459 -0.0058 -0.7858 -0.3139
 4125SOL     OW14381  11.042   2.141   7.786  0.5300 -0.0900  0.1492
 4125SOL    HW114382  11.001   2.058   7.810 -0.4920 -0.1846 -1.7037
 4125SOL    HW214383  11.057   2.134   7.692  0.4311  1.8147 -0.0489
 4126SOL     OW14384   5.045   4.961   1.898  0.7532  0.8312  0.0170
 4126SOL    HW114385   4.992   5.011   1.960  0.6560 -1.3404  1.8131
 4126SOL    HW214386   5.004   4.976   1.813 -0.0341  2.7079  0.6822
 4127SOL     OW14387   3.436   5.682   0.993 -0.3273  0.2609  0.0775
 4127SOL    HW114388   3.523   5.670   0.955  0.3395 -0.7041  1.7847
 4127SOL    HW214389   3.376   5.658   0.922  0.7101  1.8031 -1.4277
 4128SOL     OW14390   4.791   1.880   3.046  0.4599  0.3589 -0.4643
 4128SOL    HW114391   4.825   1.908   3.131 -2.7575  0.1832  1.0322
 4128SOL    HW214392   4.770   1.962   3.001 -1.0746  0.4966  0.4247
 4129SOL     OW14393   0.739   8.420   6.405  0.1539  0.3316 -0.3568
 4129SOL    HW114394   0.700   8.350   6.352 -0.3586 -0.6703  1.2780
 4129SOL    HW214395   0.804   8.375   6.458  0.5461  1.2900 -0.0194
 4130SOL     OW14396   4.209   5.953   6.630 -0.6523 -0.1233  0.2755
 4130SOL    HW114397   4.124   5.993   6.612 -0.1641  0.2701 -1.3136
 4130SOL    HW214398   4.268   5.992   6.565  0.1851 -2.2514 -0.3179
 4131SOL     OW14399   1.013   7.570  10.818  0.9450  0.4892  0.5097
 4131SOL    HW114400   1.004   7.491  10.765 -0.5527  1.1786 -0.3239
 4131SOL    HW214401   0.977   7.545  10.904  0.6534  0.2084  0.3078
 4132SOL     OW14402   8.075   2.396   2.198 -0.1708 -0.3362 -0.7843
 4132SOL    HW114403   7.981   2.383   2.208 -0.3853  0.5935 -1.5141
 4132SOL    HW214404   8.093   2.375   2.106 -0.0317  1.4308 -1.1974
 4133SOL     OW14405   3.038   6.691   1.959  0.7101  0.2281 -0.2623
 4133SOL    HW114406   3.096   6.754   2.001  1.2302 -1.6423  2.0159
 4133SOL    HW214407   2.950   6.728   1.972  0.8627 -0.1178  2.3952
 4134SOL     OW14408   5.074   6.618   6.048  0.0787  0.2716 -0.4393
 4134SOL    HW114409   5.032   6.701   6.073 -1.1670  0.2150 -2.1596
 4134SOL    HW214410   5.008   6.573   5.995  0.6683 -1.9224  0.5700
 4135SOL     OW14411   5.714   5.146   1.884 -0.1554  0.0649 -0.4550
 4135SOL    HW114412   5.701   5.052   1.874 -1.7320  0.1743  0.2459
 4135SOL    HW214413   5.655   5.171   1.954 -0.1718  1.6740 -0.9975
 4136SOL     OW14414   8.752   6.807   8.587 -0.0276  0.2361 -0.4458
 4136SOL    HW114415   8.780   6.737   8.528 -1.1627 -0.5603 -0.0749
 4136SOL    HW214416   8.659   6.821   8.565 -0.4711 -0.0759  1.1225
 4137SOL     OW14417   2.726   1.322   1.988  0.7585 -0.5686  0.1939
 4137SOL    HW114418   2.668   1.344   1.915  0.2698 -0.1575  0.7004
 4137SOL    HW214419   2.672   1.269   2.046  1.7670 -2.7579 -0.7638
 4138SOL     OW14420   5.784   7.325   1.753 -0.4438 -0.2816  0.0089
 4138SOL    HW114421   5.840   7.292   1.824 -2.3829 -0.6538  1.4374
 4138SOL    HW214422   5.825   7.409   1.729  0.3478 -0.1933  1.4899
 4139SOL     OW14423   0.886   0.393  10.265  1.2697 -0.3604  0.1121
 4139SOL    HW114424   0.791   0.404  10.263  1.0949 -1.2743  1.6530
 4139SOL    HW214425   0.920   0.483  10.259  0.2178  0.1974  1.7378
 4140SOL     OW14426   9.672   1.675   4.340  0.0436  0.6536 -0.6414
 4140SOL    HW114427   9.756   1.705   4.375  1.2296 -2.3011 -0.6903
 4140SOL    HW214428   9.610   1.743   4.366  2.6848  4.0499 -2.3622
 4141SOL     OW14429   8.494   3.842   0.654 -0.1485  0.9163  0.2621
 4141SOL    HW114430   8.448   3.926   0.655  0.5603  1.3158  0.8958
 4141SOL    HW214431   8.428   3.777   0.675  0.1983  1.8468  5.4824
 4142SOL     OW14432   3.997  10.205  10.239 -0.1651 -0.6199 -0.3681
 4142SOL    HW114433   4.069  10.198  10.177 -0.6881 -0.3422 -1.0170
 4142SOL    HW214434   3.948  10.123  10.230 -0.0271 -0.7384 -0.0488
 4143SOL     OW14435   4.039   5.913   5.312 -0.8989 -0.1131 -0.2210
 4143SOL    HW114436   4.119   5.875   5.274 -0.2955  1.2352 -0.3608
 4143SOL    HW214437   3.982   5.928   5.237 -0.0556  1.7331 -0.5356
 4144SOL     OW14438   0.460   8.884   9.472  0.0914  0.7159 -0.7209
 4144SOL    HW114439   0.522   8.831   9.421  1.7485  2.1889 -0.3416
 4144SOL    HW214440   0.501   8.970   9.476 -0.1406  0.7749  2.7940
 4145SOL     OW14441   7.898   3.252   3.218 -0.1361 -0.4178 -0.1145
 4145SOL    HW114442   7.813   3.291   3.201 -0.0371  0.2578  0.8745
 4145SOL    HW214443   7.890   3.212   3.305  1.3545  2.1436  1.3190
 4146SOL     OW14444  11.051   9.316   6.931 -0.4160 -0.0970 -0.2996
 4146SOL    HW114445  11.070   9.385   6.867  0.5546 -0.3722 -0.3230
 4146SOL    HW214446  11.007   9.248   6.880 -1.0449  0.3451 -0.3532
 4147SOL     OW14447   7.546   2.801   3.676 -0.4209 -0.1101 -0.3813
 4147SOL    HW114448   7.477   2.867   3.686  0.3546  0.5617  0.7859
 4147SOL    HW214449   7.501   2.717   3.685 -1.1833  0.3015 -0.3011
 4148SOL     OW14450   5.125  10.836   2.584 -0.2834  0.4104 -0.7691
 4148SOL    HW114451   5.041  10.840   2.538  0.9231  0.9005 -3.1355
 4148SOL    HW214452   5.143  10.926   2.609 -0.2338  0.3952 -0.7511
 4149SOL     OW14453   6.414   1.848   0.885  0.4091  0.0219  0.3414
 4149SOL    HW114454   6.475   1.894   0.943  0.5985 -1.2480  1.1813
 4149SOL    HW214455   6.356   1.800   0.944 -0.6359  0.2262 -0.4871
 4150SOL     OW14456   4.527   5.966   1.390  0.1555  0.0471  0.2385
 4150SOL    HW114457   4.471   5.960   1.467 -0.9106  0.6675 -0.4694
 4150SOL    HW214458   4.600   5.907   1.409 -1.1513 -1.4499  0.8244
 4151SOL     OW14459   1.589   2.710   3.115 -0.0741  0.0152  0.1697
 4151SOL    HW114460   1.633   2.625   3.120 -0.6131 -0.2744  0.0909
 4151SOL    HW214461   1.541   2.708   3.032 -1.8914 -0.5118  1.1813
 4152SOL     OW14462   8.750   8.167   7.765 -0.3711  0.0710  0.1780
 4152SOL    HW114463   8.789   8.226   7.701 -0.7553  0.8971  0.6945
 4152SOL    HW214464   8.672   8.132   7.721 -0.2569  0.1013 -0.0501
 4153SOL     OW14465   7.592   5.174   7.905  0.5298 -0.4588  0.1617
 4153SOL    HW114466   7.658   5.114   7.939  0.6547  0.0921  0.9187
 4153SOL    HW214467   7.584   5.242   7.972  2.6191  2.0753 -1.9416
 4154SOL     OW14468   3.797   1.815   7.617 -0.0396 -0.2287  0.0356
 4154SOL    HW114469   3.815   1.836   7.525  1.7983  1.6596  0.7296
 4154SOL    HW214470   3.704   1.796   7.619 -0.9331  3.0682 -1.7420
 4155SOL     OW14471  11.038   4.142  10.270  0.7458  0.3442 -0.1616
 4155SOL    HW114472  11.071   4.142  10.181 -0.9426  0.6559 -0.8326
 4155SOL    HW214473  10.950   4.104  10.263  1.0508 -0.8398  1.5674
 4156SOL     OW14474   0.301   6.245   1.023  0.1968  0.1043 -0.4344
 4156SOL    HW114475   0.383   6.294   1.027  0.2025  0.0152  1.2257
 4156SOL    HW214476   0.324   6.161   0.983  0.5000  0.8300 -1.8190
 4157SOL     OW14477  10.346   2.450   6.013 -0.9200 -0.6271 -0.6999
 4157SOL    HW114478  10.322   2.359   6.032 -1.7422 -0.9372 -3.0131
 4157SOL    HW214479  10.275   2.502   6.051 -0.5356 -0.9179  0.4755
 4158SOL     OW14480   5.656   4.550   8.973 -0.0243 -0.0164  0.5355
 4158SOL    HW114481   5.684   4.628   8.926  0.2575  1.6266  3.2022
 4158SOL    HW214482   5.716   4.481   8.944  0.2214  0.9367 -1.3085
 4159SOL     OW14483   9.576   1.411   0.487  0.1000  0.1610  0.2918
 4159SOL    HW114484   9.627   1.477   0.440  0.3648  0.7312  1.3609
 4159SOL    HW214485   9.638   1.372   0.549  0.5185 -2.4967 -1.6038
 4160SOL     OW14486   1.679   5.359   1.584 -0.0275 -0.6655  0.4194
 4160SOL    HW114487   1.622   5.306   1.528  0.4958 -0.4943 -0.3038
 4160SOL    HW214488   1.742   5.296   1.620  0.2092 -0.6462  0.0554
 4161SOL     OW14489   1.883   8.380   8.499  0.3149  0.2080 -0.1176
 4161SOL    HW114490   1.962   8.365   8.447  0.1850  0.3389 -0.3534
 4161SOL    HW214491   1.815   8.399   8.435  0.3086  1.0837  0.1363
 4162SOL     OW14492   3.997   8.728  10.183  0.6209  0.5539  0.2375
 4162SOL    HW114493   4.092   8.738  10.194  0.3903  1.0795  2.0352
 4162SOL    HW214494   3.982   8.634  10.196  1.2065 -0.1737 -3.2978
 4163SOL     OW14495   4.544   4.005   4.542  0.0080  0.1697  0.1536
 4163SOL    HW114496   4.611   4.023   4.476 -0.0627  0.3304  0.1242
 4163SOL    HW214497   4.484   3.944   4.500 -0.3893  0.7694 -0.1606
 4164SOL     OW14498   8.036   4.648   2.768 -0.1144  0.3541 -0.4287
 4164SOL    HW114499   8.085   4.727   2.791 -0.6527  0.7222 -0.5294
 4164SOL    HW214500   7.951   4.680   2.739  0.1708 -0.1540 -1.9458
 4165SOL     OW14501   9.982   8.790   8.939  0.6297 -0.0330  0.2975
 4165SOL    HW114502  10.072   8.806   8.963  0.5125  0.8827  0.1409
 4165SOL    HW214503   9.937   8.874   8.951  0.3907  0.2904 -2.2365
 4166SOL     OW14504  10.061   4.536   5.494  0.5951  0.2664 -0.2440
 4166SOL    HW114505   9.972   4.515   5.522 -0.6050  3.1879 -1.4574
 4166SOL    HW214506  10.084   4.615   5.543  3.0843 -1.0776  0.9525
 4167SOL     OW14507   0.511   4.077   9.343 -0.1152  0.1679 -0.1953
 4167SOL    HW114508   0.491   4.022   9.268  0.8501  0.1938 -0.4892
 4167SOL    HW214509   0.531   4.162   9.306  3.2157 -0.5056 -0.2656
 4168SOL     OW14510   5.464   9.344   2.345 -0.4747 -0.0585  0.0198
 4168SOL    HW114511   5.516   9.276   2.302  0.2510  0.5419 -0.0783
 4168SOL    HW214512   5.385   9.299   2.376  0.3667 -1.1112  0.6906
 4169SOL     OW14513   9.786  10.860   9.316 -0.4341 -0.7792 -0.6226
 4169SOL    HW114514   9.863  10.917   9.322 -0.7115 -0.4741  0.1681
 4169SOL    HW214515   9.760  10.846   9.407 -0.2277 -2.3879 -0.7893
 4170SOL     OW14516   1.190   1.465   0.855 -0.2777 -0.1512 -0.1957
 4170SOL    HW114517   1.117   1.481   0.796 -0.8228 -2.0107 -0.0756
 4170SOL    HW214518   1.150   1.455   0.941  0.3025  0.4025  0.1506
 4171SOL     OW14519   8.109   1.316   6.813  0.2552 -0.4971  0.2884
 4171SOL    HW114520   8.014   1.327   6.817  0.3961  0.9797  0.1471
 4171SOL    HW214521   8.134   1.358   6.731  0.8262 -2.7585 -0.7642
 4172SOL     OW14522   9.137   9.706   3.792 -0.5929  0.8084 -0.6728
 4172SOL    HW114523   9.231   9.698   3.775 -0.2850  1.1004  0.7313
 4172SOL    HW214524   9.105   9.616   3.797 -0.1970  0.6875 -0.2547
 4173SOL     OW14525   7.277   3.045   6.648  0.9905 -0.4824 -0.4146
 4173SOL    HW114526   7.356   3.039   6.595  1.0796 -1.1149 -0.2121
 4173SOL    HW214527   7.263   2.957   6.682 -0.4317 -0.6557 -1.3376
 4174SOL     OW14528   8.912   6.628   7.121  0.3016 -0.4475  0.5853
 4174SOL    HW114529   8.846   6.563   7.095 -0.1155  0.1716  0.0853
 4174SOL    HW214530   8.931   6.677   7.041  2.4788 -1.5630  0.3554
 4175SOL     OW14531  10.064   8.576   4.609 -0.0690  0.2437 -0.5147
 4175SOL    HW114532  10.144   8.525   4.595  1.2333  1.0014  3.0741
 4175SOL    HW214533   9.993   8.517   4.583  1.4535 -2.7409  1.5337
 4176SOL     OW14534   4.510   4.216  10.010 -0.4592  0.0425  0.6929
 4176SOL    HW114535   4.563   4.293   9.989  0.2952 -0.3738  1.0172
 4176SOL    HW214536   4.530   4.197  10.101 -1.7873  0.3403  1.0610
 4177SOL     OW14537   0.467   6.982   5.421 -0.4940 -0.0911 -0.2971
 4177SOL    HW114538   0.493   6.965   5.330 -0.5297  1.3584 -0.5955
 4177SOL    HW214539   0.501   7.069   5.440 -2.4515  0.6014  0.3092
 4178SOL     OW14540   7.121   0.578   8.640 -0.1161  0.0814  0.5675
 4178SOL    HW114541   7.130   0.664   8.679 -0.9550 -0.5417  2.2490
 4178SOL    HW214542   7.143   0.590   8.547 -1.5321  2.3618  0.4544
 4179SOL     OW14543   2.622   0.789   8.658  1.0006  0.4274  0.6268
 4179SOL    HW114544   2.632   0.876   8.619 -0.3049  2.0724  3.5856
 4179SOL    HW214545   2.665   0.796   8.743 -1.7247 -0.7672  2.2407
 4180SOL     OW14546   1.904   8.265   1.340 -0.0886 -0.2289 -0.3308
 4180SOL    HW114547   1.971   8.303   1.283 -0.9124  0.1414 -1.0804
 4180SOL    HW214548   1.951   8.242   1.420  1.0349 -0.4604 -1.0268
 4181SOL     OW14549   5.716  10.899   4.959  0.0105  0.0738 -0.4379
 4181SOL    HW114550   5.666  10.947   4.893 -0.1704  0.2779 -0.1511
 4181SOL    HW214551   5.650  10.861   5.016  0.1712  2.1287  1.2413
 4182SOL     OW14552   0.191   3.820   4.970  0.0894 -0.2392 -0.5797
 4182SOL    HW114553   0.139   3.764   5.027  0.4257 -0.4936 -0.5163
 4182SOL    HW214554   0.192   3.905   5.013  0.3848 -0.4420 -0.1726
 4183SOL     OW14555   2.114   8.644   2.296  0.2526 -0.6202 -0.2786
 4183SOL    HW114556   2.083   8.727   2.333 -0.9062 -0.5654 -1.3047
 4183SOL    HW214557   2.200   8.631   2.335 -0.8857 -0.5972  2.4221
 4184SOL     OW14558  10.839   8.754   9.064 -0.0550 -0.0510 -0.2654
 4184SOL    HW114559  10.852   8.659   9.057  0.4618  0.1428 -3.6152
 4184SOL    HW214560  10.913   8.785   9.116  0.3662 -1.3660 -0.0483
 4185SOL     OW14561   1.212   3.179   2.004  0.1363 -0.2493  0.1226
 4185SOL    HW114562   1.249   3.192   1.917 -2.0727 -0.5414 -0.9282
 4185SOL    HW214563   1.162   3.098   1.997 -0.2157 -0.1987  1.6456
 4186SOL     OW14564   5.189   1.726   4.151 -0.0010 -0.5238  0.5300
 4186SOL    HW114565   5.128   1.770   4.091 -0.5029  0.0334  1.4304
 4186SOL    HW214566   5.147   1.733   4.237  1.0093 -0.7578  1.0505
 4187SOL     OW14567   0.661  10.114   4.692  0.3984  0.0110  0.0268
 4187SOL    HW114568   0.717  10.047   4.732  0.0801  0.9983  2.3358
 4187SOL    HW214569   0.698  10.197   4.723 -1.3211  0.7358  0.2387
 4188SOL     OW14570  10.213   3.164   3.915 -0.2783 -0.3664 -0.1826
 4188SOL    HW114571  10.222   3.069   3.926 -0.5161 -0.3738 -0.0567
 4188SOL    HW214572  10.199   3.198   4.003  0.9357 -0.0872 -0.0772
 4189SOL     OW14573   5.826   8.003   7.989  0.5856 -0.5113  0.6284
 4189SOL    HW114574   5.823   8.062   8.065  1.3165 -0.6381  0.7630
 4189SOL    HW214575   5.780   7.924   8.018 -0.7490  0.1261  0.3168
 4190SOL     OW14576   2.229   2.405   7.563 -0.8698  0.2746 -0.0233
 4190SOL    HW114577   2.314   2.422   7.603 -1.2856 -0.6154  1.3406
 4190SOL    HW214578   2.197   2.491   7.537  0.7654  0.5430 -1.3218
 4191SOL     OW14579   4.214   0.010   0.167  0.1513 -0.2421 -0.4585
 4191SOL    HW114580   4.304   0.030   0.192 -0.0498 -1.1159  1.1108
 4191SOL    HW214581   4.204   0.048   0.079  2.9172 -2.5375 -1.9416
 4192SOL     OW14582   7.065   3.415   5.530  0.1116 -0.1075  0.0240
 4192SOL    HW114583   7.011   3.426   5.608 -0.2163 -1.0744 -0.0524
 4192SOL    HW214584   7.006   3.436   5.457 -0.0528 -0.7373 -0.0352
 4193SOL     OW14585   5.724   4.141  10.071 -0.7319  0.0135 -1.1641
 4193SOL    HW114586   5.645   4.089  10.056 -2.3503  1.0899  2.5039
 4193SOL    HW214587   5.783   4.082  10.118 -0.3153 -0.0763 -1.7908
 4194SOL     OW14588   6.538   2.396   6.076 -0.3439  0.9368  0.4701
 4194SOL    HW114589   6.490   2.324   6.035 -0.7848  2.0904 -1.1115
 4194SOL    HW214590   6.470   2.446   6.123 -0.1586  0.7706  0.9222
 4195SOL     OW14591   9.168   4.325   5.717  0.0273 -0.3636 -0.0484
 4195SOL    HW114592   9.224   4.353   5.645  1.2096 -0.5408  0.7643
 4195SOL    HW214593   9.093   4.384   5.715  0.4442  0.1417 -0.9205
 4196SOL     OW14594   1.476   1.950   3.055  0.3008  0.3141  0.1464
 4196SOL    HW114595   1.471   1.966   3.149  2.4713  2.1994  0.0192
 4196SOL    HW214596   1.569   1.958   3.034  0.2081 -2.3014 -1.8449
 4197SOL     OW14597   7.324   6.438   8.882 -0.1755  0.1874 -0.0864
 4197SOL    HW114598   7.417   6.417   8.892  0.1651  1.8044  0.5433
 4197SOL    HW214599   7.324   6.521   8.835 -1.1402  1.7532  2.4726
 4198SOL     OW14600   4.731   4.213   0.307 -0.2673 -0.3746  0.1237
 4198SOL    HW114601   4.758   4.156   0.235  1.8219 -1.0223  1.3354
 4198SOL    HW214602   4.730   4.155   0.384  0.9477  0.9869  1.2223
 4199SOL     OW14603   5.220   7.402   7.817 -0.4301  0.2952  0.6471
 4199SOL    HW114604   5.174   7.482   7.843 -0.8242 -0.2546  1.7065
 4199SOL    HW214605   5.306   7.433   7.788 -0.4597  1.0836  1.3385
 4200SOL     OW14606   1.214   6.250   5.350  0.1737 -0.0311 -0.4396
 4200SOL    HW114607   1.220   6.163   5.309  0.7845 -0.1041 -0.1957
 4200SOL    HW214608   1.132   6.286   5.315 -0.6488 -1.1286  0.2584
 4201SOL     OW14609   2.300   8.446   9.386  0.7244  0.8986 -0.4437
 4201SOL    HW114610   2.239   8.496   9.439 -1.0016  0.4250 -1.8813
 4201SOL    HW214611   2.285   8.355   9.412  0.7027  0.7682 -0.9101
 4202SOL     OW14612   1.288   8.007   3.089  0.2465  0.1749  0.0100
 4202SOL    HW114613   1.206   7.962   3.109 -0.6418  2.0643  0.9343
 4202SOL    HW214614   1.279   8.034   2.998  0.7881 -1.4395 -0.5520
 4203SOL     OW14615  10.620  10.165   3.384 -0.3043 -0.0618  0.0418
 4203SOL    HW114616  10.610  10.253   3.348 -1.1859 -0.3664 -0.4814
 4203SOL    HW214617  10.627  10.108   3.308 -0.2587 -0.5061  0.3729
 4204SOL     OW14618   9.274   7.693   5.760  0.2991 -0.4350 -0.5034
 4204SOL    HW114619   9.355   7.742   5.744  0.3700 -0.0149  1.0002
 4204SOL    HW214620   9.266   7.691   5.856 -0.0774 -2.7374 -0.5175
 4205SOL     OW14621   1.683   7.578  10.554  0.3508  0.2246  0.4372
 4205SOL    HW114622   1.699   7.623  10.636  1.2374 -2.5157  1.9017
 4205SOL    HW214623   1.761   7.525  10.540 -0.9486 -1.5113 -0.6620
 4206SOL     OW14624  10.250   7.488   6.684 -0.3241  0.1207  0.7083
 4206SOL    HW114625  10.205   7.570   6.706  0.1685  1.0431 -1.4373
 4206SOL    HW214626  10.295   7.463   6.765 -3.0844  0.1544  2.3920
 4207SOL     OW14627   3.720   1.938   6.079 -0.1026 -0.4208 -0.2960
 4207SOL    HW114628   3.784   1.998   6.118  0.5670  0.4390 -2.5408
 4207SOL    HW214629   3.774   1.875   6.031 -0.8929 -0.1519 -1.5750
 4208SOL     OW14630   6.007   6.938   1.169  0.0237 -0.1053 -0.6444
 4208SOL    HW114631   5.965   6.898   1.094  1.2306 -0.3172 -1.2254
 4208SOL    HW214632   6.020   6.866   1.231 -1.7154  0.2093  0.1653
 4209SOL     OW14633   9.553   4.831   1.408 -0.3704 -0.0506  1.1535
 4209SOL    HW114634   9.548   4.794   1.496 -0.5020 -0.8238  0.8238
 4209SOL    HW214635   9.492   4.779   1.357 -0.4351  0.5203  0.6439
 4210SOL     OW14636   4.556   8.746   2.437  0.6276 -0.1097 -0.1513
 4210SOL    HW114637   4.538   8.667   2.386  3.2489  0.9739 -3.0431
 4210SOL    HW214638   4.547   8.717   2.528 -1.3869 -2.9321 -1.0989
 4211SOL     OW14639   7.602  10.882   6.736  0.5370 -0.4643  0.1993
 4211SOL    HW114640   7.592  10.792   6.768 -0.2821  0.4099  2.5737
 4211SOL    HW214641   7.583  10.876   6.642 -2.9118 -2.2590  0.8615
 4212SOL     OW14642   3.679   4.000   8.699 -0.6188 -0.6626 -0.4794
 4212SOL    HW114643   3.766   4.015   8.660 -0.6631 -1.7816 -1.0560
 4212SOL    HW214644   3.625   3.972   8.625 -1.5133  0.1360 -0.1386
 4213SOL     OW14645   1.611   6.958   6.878  0.0084 -0.6897  0.2366
 4213SOL    HW114646   1.583   7.037   6.923  0.8367 -0.9293  1.2032
 4213SOL    HW214647   1.559   6.888   6.918 -1.5847 -0.5509 -1.4117
 4214SOL     OW14648   1.208  10.732  10.445 -0.0952  0.2220  0.0625
 4214SOL    HW114649   1.141  10.710  10.380  0.5376  0.4579 -0.6880
 4214SOL    HW214650   1.291  10.711  10.401  0.4171  1.8441  0.2070
 4215SOL     OW14651   5.834   7.556   3.867  0.3521  0.3775  0.3064
 4215SOL    HW114652   5.887   7.620   3.819  0.7818 -1.7909 -2.3696
 4215SOL    HW214653   5.897   7.495   3.905 -0.0914  0.8596  1.9068
 4216SOL     OW14654   3.378   5.521   1.791 -0.2075 -0.3366  0.2000
 4216SOL    HW114655   3.353   5.609   1.762 -0.7708 -0.5131  0.1410
 4216SOL    HW214656   3.316   5.463   1.748  0.1006 -0.7593  0.3172
 4217SOL     OW14657   3.927   2.559   7.251 -0.6713  0.9286  0.1327
 4217SOL    HW114658   3.962   2.471   7.271 -0.9272  0.6668 -0.5532
 4217SOL    HW214659   3.928   2.604   7.336 -0.3827  0.3180  0.4662
 4218SOL     OW14660   4.278   0.058   1.305  0.4225 -0.7882  0.5004
 4218SOL    HW114661   4.278   0.140   1.255 -0.1065 -1.9431 -1.5296
 4218SOL    HW214662   4.190   0.023   1.294  0.6374 -1.6241  1.3321
 4219SOL     OW14663   2.657   5.568  10.853 -0.2713  0.1760 -0.2477
 4219SOL    HW114664   2.618   5.483  10.834 -0.2859  0.2296 -0.4561
 4219SOL    HW214665   2.582   5.626  10.869 -0.2503  0.0593  0.2735
 4220SOL     OW14666   6.095   9.596   0.761  0.3058  0.7720  0.2760
 4220SOL    HW114667   6.164   9.568   0.700 -0.3892 -0.0233 -0.1673
 4220SOL    HW214668   6.021   9.617   0.705  0.7257  3.4792  0.5959
 4221SOL     OW14669   7.418   2.885   4.717  0.6125  0.4659 -0.2135
 4221SOL    HW114670   7.355   2.817   4.693  1.2260  0.3735 -1.7014
 4221SOL    HW214671   7.374   2.937   4.785 -0.2264 -0.8374  0.2646
 4222SOL     OW14672   0.080   0.767   5.684 -0.1509  0.3092  0.0241
 4222SOL    HW114673  -0.006   0.726   5.674 -0.1995  0.5483 -0.5810
 4222SOL    HW214674   0.081   0.836   5.617  0.1283  0.9586  0.6885
 4223SOL     OW14675   8.172   9.307   1.291  0.2358  0.5257 -0.5240
 4223SOL    HW114676   8.165   9.239   1.224  0.1153  0.9054 -0.8999
 4223SOL    HW214677   8.266   9.310   1.311  0.0966 -0.6333  0.4284
 4224SOL     OW14678   2.165   9.127   1.735 -0.3627 -0.2007 -0.0668
 4224SOL    HW114679   2.116   9.068   1.793  2.0581 -2.0647  0.2723
 4224SOL    HW214680   2.156   9.213   1.775 -1.7813 -0.7895  0.9829
 4225SOL     OW14681   0.258   9.119   3.228 -0.4763 -0.5089  0.1284
 4225SOL    HW114682   0.226   9.165   3.306 -2.1862 -0.4397 -0.5699
 4225SOL    HW214683   0.242   9.181   3.157  2.0792 -0.1240 -0.1823
 4226SOL     OW14684   8.391  10.454   9.656  0.1454 -0.3196  0.4060
 4226SOL    HW114685   8.451  10.398   9.703  0.1215 -0.5682  0.1407
 4226SOL    HW214686   8.417  10.543   9.680  0.2561 -0.4419  0.7323
 4227SOL     OW14687   7.849   9.640   3.066 -0.3434  0.0600 -0.0759
 4227SOL    HW114688   7.891   9.681   2.990  0.9027 -1.7354 -0.4223
 4227SOL    HW214689   7.898   9.674   3.141  1.0266 -1.1215 -0.3956
 4228SOL     OW14690   0.952   5.844   7.329 -1.0461 -0.0663  0.9639
 4228SOL    HW114691   0.904   5.867   7.249  0.4055 -0.9218 -0.2135
 4228SOL    HW214692   1.032   5.895   7.324 -0.0740 -1.5451  0.8786
 4229SOL     OW14693   3.242   1.009   0.427 -0.2685 -0.7906  1.0594
 4229SOL    HW114694   3.219   1.048   0.342  1.6121  0.2881  0.9933
 4229SOL    HW214695   3.159   1.009   0.475 -1.2555 -0.8391 -0.5334
 4230SOL     OW14696   5.221   0.260   3.278 -0.0023 -0.2234  0.3004
 4230SOL    HW114697   5.163   0.195   3.236  0.2475  0.3757 -1.0339
 4230SOL    HW214698   5.270   0.298   3.205  1.4054 -0.0511  1.3119
 4231SOL     OW14699   9.517  10.585   7.039 -0.0660  0.3242  0.3419
 4231SOL    HW114700   9.591  10.551   6.988  0.8784  1.7338  0.7362
 4231SOL    HW214701   9.479  10.507   7.080  0.2326 -0.6123 -1.1076
 4232SOL     OW14702   8.713   9.981   3.372  0.2602  0.1865 -0.3071
 4232SOL    HW114703   8.689   9.904   3.425  0.4757 -0.0296 -0.5204
 4232SOL    HW214704   8.797   9.958   3.332  0.4720  0.6529 -0.1392
 4233SOL     OW14705   2.017   3.722   6.447 -0.2548 -0.5247  0.3813
 4233SOL    HW114706   2.032   3.745   6.538  0.9925 -0.5367  0.1911
 4233SOL    HW214707   2.057   3.636   6.436  1.6128  0.3964 -0.6788
 4234SOL     OW14708  10.603   3.679  10.675 -0.1203 -0.7741 -0.3782
 4234SOL    HW114709  10.587   3.584  10.678  1.5084 -1.1429  3.4957
 4234SOL    HW214710  10.659   3.695  10.751 -1.9073  3.6086  0.2541
 4235SOL     OW14711  10.763   1.884   0.493 -0.8052  0.6737 -0.3921
 4235SOL    HW114712  10.854   1.878   0.523 -1.1316  0.5353  0.6062
 4235SOL    HW214713  10.754   1.974   0.462 -0.0696  0.4197 -1.3762
 4236SOL     OW14714  10.537   6.964   2.392 -0.0442 -0.1593  0.0125
 4236SOL    HW114715  10.455   6.993   2.433 -1.4183 -2.2751 -1.0775
 4236SOL    HW214716  10.592   7.043   2.392 -1.3863  0.9099  2.3461
 4237SOL     OW14717   2.594   3.825   8.261 -0.5624 -0.5307 -0.2888
 4237SOL    HW114718   2.651   3.841   8.186  0.6761  2.9178  1.1782
 4237SOL    HW214719   2.653   3.799   8.332 -1.0579  0.6402  0.6009
 4238SOL     OW14720   3.886   2.906   5.133 -1.0347 -0.1745  0.0285
 4238SOL    HW114721   3.888   2.994   5.097  1.5393  0.9599  2.5319
 4238SOL    HW214722   3.952   2.858   5.082  0.7077  0.6690  1.4096
 4239SOL     OW14723   3.764   1.934   6.617  0.0313 -0.5199 -0.5464
 4239SOL    HW114724   3.702   1.985   6.668  1.9124 -0.4539  1.8517
 4239SOL    HW214725   3.807   1.997   6.560 -0.8853 -0.2863 -0.9966
 4240SOL     OW14726   2.146   8.216   0.987  0.4503  0.0347 -0.7836
 4240SOL    HW114727   2.131   8.230   1.080 -1.4876 -0.9590 -0.8926
 4240SOL    HW214728   2.235   8.246   0.972  0.1574  2.0030  0.9965
 4241SOL     OW14729   9.621  10.990   1.682  0.1037 -0.0783  0.1749
 4241SOL    HW114730   9.606  11.084   1.679 -0.4849 -0.0995  1.7576
 4241SOL    HW214731   9.685  10.977   1.752 -1.1980 -0.9771  1.2464
 4242SOL     OW14732   7.465  11.067   7.522 -0.5450 -0.5249 -0.3777
 4242SOL    HW114733   7.440  10.975   7.531 -1.7274 -0.2409 -0.6769
 4242SOL    HW214734   7.414  11.099   7.448  2.6244 -0.5954 -2.8415
 4243SOL     OW14735   2.799   7.525   1.468  0.4510  0.1594  0.3747
 4243SOL    HW114736   2.843   7.457   1.417  0.8807 -1.1595  2.3937
 4243SOL    HW214737   2.752   7.577   1.403  0.2950 -1.9292 -1.2810
 4244SOL     OW14738   9.579   2.161   4.584 -0.7755 -0.8324 -0.4028
 4244SOL    HW114739   9.640   2.096   4.550  0.7103  0.0514  0.4716
 4244SOL    HW214740   9.634   2.227   4.625 -2.2821  0.4819 -0.3780
 4245SOL     OW14741   4.053  10.205   9.178  0.2093 -0.3290  0.5418
 4245SOL    HW114742   4.045  10.197   9.273  0.8094  2.1950  0.8920
 4245SOL    HW214743   4.022  10.294   9.160  0.0384 -0.7969 -1.6472
 4246SOL     OW14744   2.507   2.789   9.037  0.6426 -0.4761  0.3662
 4246SOL    HW114745   2.574   2.737   9.082 -0.4169 -2.7409 -0.4849
 4246SOL    HW214746   2.556   2.852   8.985  2.2247 -2.5784 -0.8430
 4247SOL     OW14747   0.877   8.140  10.401  0.1538  0.0647 -0.3494
 4247SOL    HW114748   0.866   8.046  10.389 -2.0255  0.2902 -0.5290
 4247SOL    HW214749   0.792   8.171  10.430  1.0656  1.8788  0.5864
 4248SOL     OW14750   3.630   2.437   6.900  0.0617 -0.4157  0.3453
 4248SOL    HW114751   3.691   2.506   6.926  2.2451 -1.8672 -0.6045
 4248SOL    HW214752   3.566   2.481   6.844  0.6847  1.0444  0.7376
 4249SOL     OW14753   6.958   1.027   4.592 -0.4058 -0.4778  0.0634
 4249SOL    HW114754   6.971   0.932   4.596  0.8915 -0.3159  0.0523
 4249SOL    HW214755   7.038   1.060   4.552 -0.8532  0.6309  0.0618
 4250SOL     OW14756   0.653  10.232   0.057 -0.5051 -0.8011  0.5819
 4250SOL    HW114757   0.560  10.237   0.039 -0.1924 -0.9506 -1.2387
 4250SOL    HW214758   0.691  10.304   0.008  0.2519 -0.0968  2.1320
 4251SOL     OW14759   3.304   3.808   0.650 -0.0058  0.1307  0.5580
 4251SOL    HW114760   3.397   3.819   0.632  0.3305  1.8981  2.8250
 4251SOL    HW214761   3.299   3.735   0.712 -0.4371 -1.5076 -1.3230
 4252SOL     OW14762   0.766   9.612  10.373 -0.7801 -0.5098 -0.2815
 4252SOL    HW114763   0.861   9.617  10.378 -0.8041  0.0774 -0.3475
 4252SOL    HW214764   0.743   9.531  10.418 -0.2141 -0.8891 -0.6680
 4253SOL     OW14765   1.002   6.577   2.554 -0.3808  0.4062  0.4958
 4253SOL    HW114766   0.980   6.522   2.628  0.7676  0.6187  1.0225
 4253SOL    HW214767   1.067   6.639   2.588  1.8127 -0.8347 -1.1331
 4254SOL     OW14768   3.070   0.721   2.076  0.6974 -0.1063 -0.1923
 4254SOL    HW114769   3.096   0.783   2.145  0.0138 -1.0824  0.9980
 4254SOL    HW214770   2.975   0.718   2.080  0.6922 -0.8562 -0.5564
 4255SOL     OW14771  10.177   2.483   1.842  0.2851  0.7230  0.6001
 4255SOL    HW114772  10.161   2.420   1.912  0.0406  2.2444  1.9623
 4255SOL    HW214773  10.235   2.437   1.781 -0.1073 -0.8908  1.4144
 4256SOL     OW14774  10.351   8.593   6.048  0.2311  0.1633  0.0656
 4256SOL    HW114775  10.309   8.643   5.978  3.8819  0.3695 -2.2382
 4256SOL    HW214776  10.337   8.501   6.025 -0.9334  0.1649  0.6899
 4257SOL     OW14777   0.367   7.410   9.874 -0.2026  0.2523 -0.3884
 4257SOL    HW114778   0.366   7.500   9.906 -1.0304  0.0895  0.0533
 4257SOL    HW214779   0.279   7.395   9.840  0.0456 -0.2662 -0.8214
 4258SOL     OW14780   4.040   3.263   9.889 -0.1628  0.2850  0.0850
 4258SOL    HW114781   3.990   3.198   9.839 -2.0448  0.7059  1.3059
 4258SOL    HW214782   4.043   3.228   9.978  1.6999  0.3397  0.0872
 4259SOL     OW14783   5.796   3.940   7.876  0.2655 -0.5561 -0.5213
 4259SOL    HW114784   5.745   3.996   7.818 -0.6758 -1.8135 -0.9655
 4259SOL    HW214785   5.885   3.974   7.872  0.1936 -0.5223 -2.5890
 4260SOL     OW14786   4.278   4.005   5.587  0.3717 -0.4058  0.4373
 4260SOL    HW114787   4.225   3.939   5.541  1.6351  0.3137 -2.2535
 4260SOL    HW214788   4.295   3.966   5.673 -1.3953 -2.2539  0.0231
 4261SOL     OW14789   0.291   8.612   2.835 -0.1555 -0.0124  0.0327
 4261SOL    HW114790   0.301   8.686   2.896  2.2697 -0.3004  0.0972
 4261SOL    HW214791   0.247   8.545   2.885  0.0890  0.4415  0.8788
 4262SOL     OW14792   0.768   4.535   7.005  0.3748  0.4331  0.0878
 4262SOL    HW114793   0.810   4.460   6.962  0.8696  0.6116  0.2485
 4262SOL    HW214794   0.800   4.532   7.095  0.3053  0.7658  0.1251
 4263SOL     OW14795   3.021   9.817  10.477  0.2386  0.1851 -0.3729
 4263SOL    HW114796   3.019   9.905  10.440  4.1957  1.3413  1.5985
 4263SOL    HW214797   3.114   9.792  10.475 -0.4339 -2.9910  1.2663
 4264SOL     OW14798   1.070   5.384   9.103  0.3878  0.5290 -0.2812
 4264SOL    HW114799   1.033   5.379   9.191 -1.2100  1.7429 -0.8281
 4264SOL    HW214800   1.086   5.293   9.078 -2.3184 -0.1034  0.0242
 4265SOL     OW14801   2.314   2.616   1.318  0.7558  0.4726  0.3307
 4265SOL    HW114802   2.300   2.710   1.311  0.9353  0.4244 -0.9196
 4265SOL    HW214803   2.276   2.592   1.402 -0.3774  1.4770  0.1345
 4266SOL     OW14804   2.665  10.380   8.309 -0.1467  0.9213 -0.0206
 4266SOL    HW114805   2.598  10.360   8.374 -0.8384 -0.8036 -1.2080
 4266SOL    HW214806   2.734  10.426   8.358 -1.7379  1.8789  1.4069
 4267SOL     OW14807   9.836   0.225   7.647 -0.4504 -0.3121  0.2387
 4267SOL    HW114808   9.760   0.282   7.648  0.6034  1.4870  4.9682
 4267SOL    HW214809   9.800   0.137   7.661 -1.7353  0.1470 -0.0445
 4268SOL     OW14810   1.792  10.855   0.981  0.5513  0.3482  0.0553
 4268SOL    HW114811   1.872  10.885   1.025  1.3540  0.1214 -1.1773
 4268SOL    HW214812   1.809  10.763   0.962 -1.2365 -0.5396  2.3742
 4269SOL     OW14813   1.368   7.671   8.722  0.1829  0.2213  0.2910
 4269SOL    HW114814   1.307   7.603   8.750 -0.2964  0.2373 -0.6930
 4269SOL    HW214815   1.320   7.753   8.734  0.5822  0.3558  1.0065
 4270SOL     OW14816   3.953   3.198   3.074 -0.2107  0.0019  0.7102
 4270SOL    HW114817   3.924   3.234   2.990  0.4016  0.6822  0.7785
 4270SOL    HW214818   3.882   3.141   3.101 -1.2514  1.2074  0.6127
 4271SOL     OW14819   6.049   4.812   9.894  0.4268  0.0584 -0.0512
 4271SOL    HW114820   6.124   4.812   9.835 -0.5491 -0.6425 -1.3367
 4271SOL    HW214821   5.983   4.760   9.849 -0.8058  0.5701  1.1018
 4272SOL     OW14822   8.551   2.641   1.452 -0.2921  0.1499 -0.2173
 4272SOL    HW114823   8.538   2.616   1.360  0.5315  0.2765 -0.3830
 4272SOL    HW214824   8.567   2.736   1.448  0.0112  0.1115  0.0189
 4273SOL     OW14825   9.469   8.621   0.912  0.0704  0.2045 -0.7209
 4273SOL    HW114826   9.489   8.598   1.003  1.3501  0.3394 -0.9415
 4273SOL    HW214827   9.403   8.557   0.885 -0.0240 -0.0921  0.1818
 4274SOL     OW14828  10.970   1.019   2.709 -1.1243 -0.1605  0.4475
 4274SOL    HW114829  11.014   1.019   2.624 -0.2934 -2.2732  0.8162
 4274SOL    HW214830  11.036   1.054   2.769 -0.5667 -1.5854  0.6971
 4275SOL     OW14831   0.959   4.730   0.885  0.1721 -0.0861  0.0576
 4275SOL    HW114832   0.868   4.711   0.908  0.4014 -0.2926  0.8582
 4275SOL    HW214833   0.987   4.794   0.950  0.8788 -0.7571  0.4374
 4276SOL     OW14834   5.691   7.647   3.191 -0.6797 -0.1596 -0.3833
 4276SOL    HW114835   5.610   7.596   3.195 -1.5028  1.0181 -1.2538
 4276SOL    HW214836   5.662   7.737   3.181  0.7275  0.1540 -2.2077
 4277SOL     OW14837   9.247   7.933   3.326 -0.2786 -0.5498  0.5673
 4277SOL    HW114838   9.298   7.948   3.405 -1.2655 -0.5228  1.2152
 4277SOL    HW214839   9.230   8.021   3.292 -1.6398 -0.4236  1.5031
 4278SOL     OW14840   0.153   8.929   2.535 -0.3236 -0.2140  0.6729
 4278SOL    HW114841   0.097   8.944   2.611 -1.4590 -0.5342 -0.0698
 4278SOL    HW214842   0.179   9.017   2.507 -1.4990  0.0315  0.2870
 4279SOL     OW14843   4.410   3.842   0.577  0.5500  0.3291 -0.0530
 4279SOL    HW114844   4.454   3.837   0.661  1.2018 -0.3040 -0.4247
 4279SOL    HW214845   4.332   3.787   0.587  1.4060 -0.9717 -0.3174
 4280SOL     OW14846   3.581   9.401   9.179 -0.0816 -0.3084  0.0612
 4280SOL    HW114847   3.509   9.437   9.231 -0.5221  0.1013 -0.8017
 4280SOL    HW214848   3.631   9.478   9.151 -0.4294 -0.4230 -0.9358
 4281SOL     OW14849   3.053   9.662   4.208 -0.2826 -0.2193  0.9125
 4281SOL    HW114850   3.131   9.645   4.261  0.9624  1.7994 -0.1493
 4281SOL    HW214851   3.085   9.710   4.133 -2.6307  1.0956  0.6556
 4282SOL     OW14852   8.284   9.204   5.589 -0.5064  0.9886  0.5330
 4282SOL    HW114853   8.227   9.244   5.655 -1.4518  0.4675  0.0541
 4282SOL    HW214854   8.371   9.205   5.629 -0.5932  2.9749  0.7487
 4283SOL     OW14855   8.958   3.669   8.768  0.2661 -0.7371 -0.3334
 4283SOL    HW114856   8.966   3.762   8.744 -3.0509 -0.1389  0.2901
 4283SOL    HW214857   9.046   3.642   8.791  1.3247  2.3503 -0.2641
 4284SOL     OW14858   0.027   3.748   7.843  0.5153 -0.5014 -0.1154
 4284SOL    HW114859   0.063   3.761   7.756  0.4807 -1.4398 -0.2855
 4284SOL    HW214860  -0.053   3.698   7.829  0.9469 -1.3987  0.5020
 4285SOL     OW14861   1.762   1.502  10.233  0.1200 -0.5991  0.2024
 4285SOL    HW114862   1.791   1.489  10.324  1.1651  0.4195  0.0449
 4285SOL    HW214863   1.828   1.560  10.196 -1.9167  1.5209 -0.3352
 4286SOL     OW14864   1.615   1.518  10.793 -0.2142 -0.3909 -0.6710
 4286SOL    HW114865   1.687   1.541  10.851  0.3196 -1.0311 -1.0616
 4286SOL    HW214866   1.597   1.598  10.744 -0.1729 -0.0579 -0.1449
 4287SOL     OW14867   9.584   4.384   0.409  0.1700 -0.4158  0.2438
 4287SOL    HW114868   9.617   4.335   0.484  0.2335 -3.2276 -1.4936
 4287SOL    HW214869   9.662   4.410   0.361  0.0740 -0.2038  0.1987
 4288SOL     OW14870   2.795   1.380   4.095 -0.1494 -0.2313  0.1028
 4288SOL    HW114871   2.761   1.382   4.184 -0.5990 -0.1544 -0.0661
 4288SOL    HW214872   2.717   1.388   4.040  0.1349 -0.1838 -0.2943
 4289SOL     OW14873   4.852   7.970   3.832  0.3099 -0.2779  0.1340
 4289SOL    HW114874   4.872   8.017   3.912 -0.4698 -0.6305  0.5555
 4289SOL    HW214875   4.831   7.881   3.861  0.5232 -0.5476 -0.5139
 4290SOL     OW14876  10.497   8.916   3.402  0.3164 -0.4883  0.4621
 4290SOL    HW114877  10.546   8.835   3.417  0.9433 -0.6875 -2.1896
 4290SOL    HW214878  10.558   8.986   3.424  0.4010 -0.7226  0.9908
 4291SOL     OW14879   7.958   1.807   2.521 -0.2969 -0.2415 -1.0125
 4291SOL    HW114880   7.927   1.717   2.511 -0.4587 -0.0769 -2.1050
 4291SOL    HW214881   7.892   1.860   2.476  0.0307  0.3877 -0.7651
 4292SOL     OW14882   0.807   4.932   4.386  0.6211 -0.0866  0.0061
 4292SOL    HW114883   0.741   4.994   4.355 -0.1329  0.7747  3.0237
 4292SOL    HW214884   0.778   4.847   4.354 -1.7686  0.3355  0.8743
 4293SOL     OW14885   2.041   3.858   1.572  0.3362  0.0954  0.9495
 4293SOL    HW114886   1.946   3.864   1.569  0.2594 -0.6870  1.6088
 4293SOL    HW214887   2.062   3.866   1.665  0.9306  0.4775  0.7852
 4294SOL     OW14888   2.222   2.853   6.738 -0.1282 -0.0819 -0.0270
 4294SOL    HW114889   2.188   2.818   6.655  3.1860 -3.8230 -0.0561
 4294SOL    HW214890   2.261   2.937   6.713  2.3839 -1.8612 -2.8791
 4295SOL     OW14891   9.811   4.871   4.985 -0.0677 -0.1359  0.1614
 4295SOL    HW114892   9.739   4.928   4.958 -0.1224  0.1231  0.8398
 4295SOL    HW214893   9.773   4.813   5.051 -0.4249 -2.0272 -1.5793
 4296SOL     OW14894   4.187   6.638  10.443 -0.6114  0.1553  0.6364
 4296SOL    HW114895   4.105   6.593  10.464 -0.7388 -0.2664 -0.6752
 4296SOL    HW214896   4.225   6.586  10.372 -1.2165  2.6262 -1.6455
 4297SOL     OW14897   0.541   2.959   5.561 -0.0774 -0.1538  0.7129
 4297SOL    HW114898   0.634   2.969   5.537 -0.7246  1.1486 -1.5341
 4297SOL    HW214899   0.543   2.934   5.653  2.5014  0.3566  0.8742
 4298SOL     OW14900   0.760  10.391   7.798 -0.6989  0.3465  0.2697
 4298SOL    HW114901   0.754  10.460   7.863  0.6007  0.1217  0.6561
 4298SOL    HW214902   0.849  10.356   7.808 -0.9233 -0.5655 -0.7325
 4299SOL     OW14903   9.872   2.294   9.889  0.0082  0.2890 -0.1435
 4299SOL    HW114904   9.901   2.209   9.921 -3.3317 -1.2271 -0.7041
 4299SOL    HW214905   9.854   2.279   9.796 -1.2105  1.4188 -0.1176
 4300SOL     OW14906   7.969   3.273  10.902 -0.5574  0.2544 -0.0410
 4300SOL    HW114907   7.964   3.291  10.808  1.4262  0.9217 -0.0611
 4300SOL    HW214908   7.945   3.181  10.910  0.3051 -0.1074 -1.3533
 4301SOL     OW14909   6.584   7.257   7.811 -0.0002 -0.2750 -0.4368
 4301SOL    HW114910   6.672   7.259   7.849 -0.2657  2.3783  0.2316
 4301SOL    HW214911   6.567   7.165   7.794  2.5676 -0.9402  0.2069
 4302SOL     OW14912   4.818   8.265   8.847  0.7003  0.3279 -0.1133
 4302SOL    HW114913   4.811   8.334   8.913  2.1507  0.6432 -0.2582
 4302SOL    HW214914   4.729   8.255   8.813  0.6714  3.2492 -1.2029
 4303SOL     OW14915  10.109   4.979   7.681  0.0666  0.5521  0.0159
 4303SOL    HW114916  10.132   4.966   7.773  0.1307 -0.4497 -0.1304
 4303SOL    HW214917  10.093   4.890   7.648  3.4217  0.4861 -1.8587
 4304SOL     OW14918   9.610   9.883   8.825  0.1046  0.4461 -0.7240
 4304SOL    HW114919   9.599   9.890   8.730 -1.1466 -1.1846 -0.7431
 4304SOL    HW214920   9.649   9.966   8.851 -1.6013  1.8478 -2.3750
 4305SOL     OW14921   6.653   8.827   9.170 -0.2350  0.8573 -0.4997
 4305SOL    HW114922   6.563   8.803   9.192 -0.3773  0.5458 -1.3701
 4305SOL    HW214923   6.665   8.914   9.207 -0.7060  0.6606  0.1191
 4306SOL     OW14924   4.144   9.445   2.232 -0.3575 -0.2628 -0.1570
 4306SOL    HW114925   4.222   9.481   2.273  1.0126 -2.8199 -0.3378
 4306SOL    HW214926   4.174   9.415   2.146 -1.4532 -1.5340 -0.1204
 4307SOL     OW14927   4.490   2.771   5.271  0.0601  0.3476  0.4426
 4307SOL    HW114928   4.429   2.833   5.310 -2.8012 -2.4017  0.8502
 4307SOL    HW214929   4.530   2.726   5.346  0.6093  0.3725  0.1682
 4308SOL     OW14930  10.955  10.144   3.383 -0.2001  0.3730 -0.9679
 4308SOL    HW114931  10.908  10.188   3.454  2.4152  0.5520  0.8022
 4308SOL    HW214932  10.963  10.211   3.315 -2.5457  0.2770 -1.4212
 4309SOL     OW14933   6.209   5.769   2.293  0.1677 -0.0604  0.0255
 4309SOL    HW114934   6.269   5.739   2.361 -0.5458  1.7516  1.5247
 4309SOL    HW214935   6.248   5.850   2.260  0.4026 -0.8037 -1.6536
 4310SOL     OW14936  11.056   8.447   8.828  0.3326 -0.2933  0.0858
 4310SOL    HW114937  11.145   8.414   8.819  0.7405  0.4553  1.1484
 4310SOL    HW214938  11.051   8.520   8.766  1.2655  1.1990  1.6976
 4311SOL     OW14939   6.175   2.544   4.063  0.0661  0.4615  0.7251
 4311SOL    HW114940   6.199   2.622   4.013 -1.9030 -1.1511 -3.2253
 4311SOL    HW214941   6.090   2.566   4.101 -1.1314  0.0138 -1.4754
 4312SOL     OW14942   7.397   0.610  10.765  0.3134 -0.0220 -0.4017
 4312SOL    HW114943   7.381   0.700  10.736  1.4527  0.1759 -0.4659
 4312SOL    HW214944   7.343   0.556  10.708 -0.3314  0.6164 -0.4090
 4313SOL     OW14945   4.798   8.024   1.501  0.2714 -0.1185  0.2520
 4313SOL    HW114946   4.883   8.037   1.543  0.7410  3.0518 -1.3983
 4313SOL    HW214947   4.734   8.056   1.565  0.6129  0.6257  0.2265
 4314SOL     OW14948   1.915   7.609   5.696 -0.2721  0.7188  0.1708
 4314SOL    HW114949   1.861   7.578   5.624 -0.0726  1.2256 -0.2013
 4314SOL    HW214950   1.965   7.532   5.724 -0.4600  0.4884 -0.1256
 4315SOL     OW14951   7.065   3.756   1.289 -0.1630  0.4122 -0.2874
 4315SOL    HW114952   7.128   3.747   1.217 -0.5251 -2.8991 -0.3554
 4315SOL    HW214953   6.981   3.771   1.245 -0.2422 -0.7080 -0.5487
 4316SOL     OW14954   5.796   4.896   5.754  0.4067 -0.3454 -0.3976
 4316SOL    HW114955   5.859   4.965   5.771 -1.0368  1.5163 -2.0159
 4316SOL    HW214956   5.741   4.893   5.832 -0.1993  1.2149 -0.7162
 4317SOL     OW14957   8.554  10.545   4.704 -0.0563 -0.3032 -0.6926
 4317SOL    HW114958   8.618  10.553   4.774  1.2043 -2.9731 -1.3903
 4317SOL    HW214959   8.585  10.603   4.635 -2.4301  4.0111  1.4878
 4318SOL     OW14960   1.718   9.068   2.482 -0.7076 -0.0554  0.2043
 4318SOL    HW114961   1.736   9.062   2.388  2.0052  1.1276  0.5390
 4318SOL    HW214962   1.754   9.152   2.508  0.6486 -1.2745  2.6512
 4319SOL     OW14963   2.795   8.910   0.005  0.5774  0.1657  0.4821
 4319SOL    HW114964   2.719   8.964   0.025 -1.2359 -2.2447  0.5325
 4319SOL    HW214965   2.794   8.901  -0.090  1.4102  0.9091  0.3896
 4320SOL     OW14966   0.878   7.317   9.256  0.8681  0.2027 -0.6645
 4320SOL    HW114967   0.907   7.306   9.347 -1.0074 -0.9046 -0.1498
 4320SOL    HW214968   0.895   7.410   9.237 -0.7570  1.0507  1.6169
 4321SOL     OW14969   4.596   4.279   8.080 -0.7382  0.7757  0.5947
 4321SOL    HW114970   4.661   4.291   8.011 -0.7546 -0.0729  0.4202
 4321SOL    HW214971   4.519   4.244   8.035 -0.5092 -0.4857  1.1153
 4322SOL     OW14972   4.356   2.093   1.321 -0.5072  0.5211  0.5265
 4322SOL    HW114973   4.298   2.167   1.336  1.8078  2.8914 -1.4177
 4322SOL    HW214974   4.394   2.074   1.407 -1.3085  1.4443  1.0921
 4323SOL     OW14975   0.793   0.133   5.734  0.4788  0.4497 -0.3254
 4323SOL    HW114976   0.844   0.056   5.760 -0.7974 -0.2545  0.1489
 4323SOL    HW214977   0.805   0.138   5.639 -0.1795 -0.9204 -0.5108
 4324SOL     OW14978  10.475  10.181   8.360 -0.5152 -0.9508 -0.4014
 4324SOL    HW114979  10.422  10.181   8.280  0.9072  0.4237 -1.3986
 4324SOL    HW214980  10.565  10.193   8.329 -0.0983  1.6438  1.4750
 4325SOL     OW14981   8.563   7.119   4.312 -0.8557 -1.1009 -0.3753
 4325SOL    HW114982   8.544   7.212   4.300  0.9775 -0.8423 -1.7668
 4325SOL    HW214983   8.597   7.113   4.401 -1.0709 -0.4698 -0.2419
 4326SOL     OW14984   4.086   4.247   2.175  0.1105  0.5034 -0.2941
 4326SOL    HW114985   4.107   4.340   2.180 -0.1691  0.6117 -0.9037
 4326SOL    HW214986   4.077   4.230   2.081  2.8450 -0.7620 -0.4074
 4327SOL     OW14987   0.706   3.211   3.498  0.1285 -0.1595 -0.2439
 4327SOL    HW114988   0.714   3.134   3.443 -1.8455 -0.9637  0.5051
 4327SOL    HW214989   0.681   3.177   3.584  0.9453  1.2164  0.5941
 4328SOL     OW14990   6.336   3.974   7.512  0.0408 -0.1764 -0.3908
 4328SOL    HW114991   6.410   4.002   7.458  0.2957 -2.3528 -1.2824
 4328SOL    HW214992   6.263   4.027   7.482  0.5111 -0.3381 -1.9287
 4329SOL     OW14993   4.907   9.072   8.514 -0.5678  0.4079  0.1799
 4329SOL    HW114994   4.922   9.014   8.440  0.3346  1.0301 -0.1556
 4329SOL    HW214995   4.832   9.036   8.559 -0.8902 -0.2052 -0.8251
 4330SOL     OW14996   3.732  11.095   1.437  0.5074  0.0624 -0.0511
 4330SOL    HW114997   3.768  11.143   1.363  0.4719 -0.2633 -0.2795
 4330SOL    HW214998   3.805  11.090   1.499  0.0521  1.8467  0.6978
 4331SOL     OW14999   8.203   3.321   3.012  0.3830  0.4721 -0.0528
 4331SOL    HW115000   8.208   3.382   2.939 -3.1165 -0.3001 -1.1441
 4331SOL    HW215001   8.227   3.236   2.973 -0.8896  0.1640 -0.2121
 4332SOL     OW15002  11.071   8.845   8.328 -0.2235  0.8169  0.1828
 4332SOL    HW115003  11.065   8.891   8.244  1.3383  0.9375  0.1157
 4332SOL    HW215004  11.047   8.755   8.307  0.8665  0.6785 -0.5700
 4333SOL     OW15005   5.695   8.925   5.150 -0.0062  0.3159 -0.4118
 4333SOL    HW115006   5.743   8.989   5.202 -1.0041  1.1921 -0.5258
 4333SOL    HW215007   5.607   8.925   5.187 -0.2920 -0.2511 -1.0626
 4334SOL     OW15008   1.553   4.798   5.848  0.4815  0.5611  0.1866
 4334SOL    HW115009   1.551   4.821   5.755  0.4028  0.6945  0.2209
 4334SOL    HW215010   1.462   4.782   5.871  0.2873  2.1209  0.6331
 4335SOL     OW15011   9.298   2.789   2.272 -0.2502  0.4726 -0.0753
 4335SOL    HW115012   9.279   2.781   2.366  0.9213 -0.2417  0.1237
 4335SOL    HW215013   9.215   2.767   2.229 -0.2682 -1.2857  0.7656
 4336SOL     OW15014   3.706   5.145   1.128 -0.2843 -0.2040  0.3489
 4336SOL    HW115015   3.694   5.200   1.051 -1.7783  0.4136  0.9901
 4336SOL    HW215016   3.793   5.169   1.161  0.6940 -1.0178 -1.5314
 4337SOL     OW15017   5.718   7.925   5.708  0.0012 -0.2243  0.2564
 4337SOL    HW115018   5.649   7.866   5.676  0.4281 -1.0063  0.7527
 4337SOL    HW215019   5.682   7.961   5.790 -0.2066  0.1199  0.0186
 4338SOL     OW15020   0.120   2.346   6.706  0.2640 -0.0677 -0.6590
 4338SOL    HW115021   0.155   2.285   6.772 -1.3384  1.4585  1.7769
 4338SOL    HW215022   0.198   2.391   6.672  1.1944 -1.3262 -0.3066
 4339SOL     OW15023   2.747   4.046   0.310 -0.3882 -0.0625 -0.4746
 4339SOL    HW115024   2.778   4.027   0.398 -0.6215 -0.5616 -0.4991
 4339SOL    HW215025   2.820   4.022   0.253 -0.1147  0.5632 -0.4046
 4340SOL     OW15026   6.336   8.687   9.160  0.2321 -0.4704 -0.1515
 4340SOL    HW115027   6.244   8.697   9.182  0.6147  1.6147  0.6678
 4340SOL    HW215028   6.336   8.668   9.066 -1.0071  0.0552 -0.2815
 4341SOL     OW15029   4.013   6.248   4.531 -0.4019 -0.0413 -0.0778
 4341SOL    HW115030   4.020   6.233   4.625 -1.1020  0.4338  0.0599
 4341SOL    HW215031   4.103   6.242   4.499  0.3729  3.1383  1.1219
 4342SOL     OW15032   0.159   7.304   1.688 -0.1820  0.2255  0.6511
 4342SOL    HW115033   0.184   7.393   1.712  0.8076 -0.1574  1.0847
 4342SOL    HW215034   0.077   7.315   1.640 -0.5675  1.2863  1.4976
 4343SOL     OW15035   8.588   3.953   7.373 -0.1650  0.7089 -0.3228
 4343SOL    HW115036   8.654   3.913   7.316  1.9916 -2.9340  4.0494
 4343SOL    HW215037   8.638   4.013   7.429 -1.4961  1.4570  0.0929
 4344SOL     OW15038   5.137   4.297   0.332  0.3099 -0.1128 -0.1865
 4344SOL    HW115039   5.195   4.372   0.345 -0.5339  0.4746  0.2681
 4344SOL    HW215040   5.049   4.331   0.350 -0.0456 -1.3216  0.4384
 4345SOL     OW15041   7.438   1.340   8.093 -1.0353 -0.4629 -0.2872
 4345SOL    HW115042   7.405   1.396   8.023  2.5739  0.9451 -1.0899
 4345SOL    HW215043   7.490   1.274   8.048  0.0435 -0.5033  0.9407
 4346SOL     OW15044   6.836   8.929   1.860 -0.5052  0.2267  0.6351
 4346SOL    HW115045   6.794   8.969   1.783  0.3812  0.3656  0.2191
 4346SOL    HW215046   6.904   8.991   1.885  2.5029 -1.9903 -1.4479
 4347SOL     OW15047   0.372   0.693   7.877 -0.0270  0.2254 -0.1707
 4347SOL    HW115048   0.284   0.715   7.845 -0.4253 -1.1602 -0.1237
 4347SOL    HW215049   0.383   0.600   7.854  0.4429 -0.2987  1.9711
 4348SOL     OW15050   9.290   3.004   5.779 -0.1726  0.2605  0.4055
 4348SOL    HW115051   9.218   3.063   5.801 -0.3783 -0.2057  0.9991
 4348SOL    HW215052   9.363   3.063   5.757 -0.3563  0.7434  1.0476
 4349SOL     OW15053  10.731   9.824   0.931 -0.1790  0.3676  0.0898
 4349SOL    HW115054  10.642   9.790   0.926  0.6996 -2.0195 -0.4613
 4349SOL    HW215055  10.720   9.914   0.963 -2.8588  0.6377 -1.2788
 4350SOL     OW15056   0.566   1.045   4.440 -0.8484 -0.1467 -0.3905
 4350SOL    HW115057   0.608   0.972   4.484 -0.0025  0.3180 -0.4073
 4350SOL    HW215058   0.504   1.079   4.505 -1.0990 -0.7450 -0.3114
 4351SOL     OW15059   2.625   5.057   2.252 -0.1495 -0.0978  0.1899
 4351SOL    HW115060   2.535   5.028   2.267 -0.1898 -0.0335  0.0740
 4351SOL    HW215061   2.617   5.127   2.186  0.1005 -0.8652 -0.6730
 4352SOL     OW15062   9.340   6.579   4.026 -0.2147  0.0159  1.2243
 4352SOL    HW115063   9.376   6.617   4.106  0.0104  2.1628  0.1954
 4352SOL    HW215064   9.251   6.614   4.021  0.5778  2.0549 -0.6458
 4353SOL     OW15065   2.352   6.277   1.539 -0.1972 -0.7204 -0.1845
 4353SOL    HW115066   2.321   6.187   1.548  1.5963 -1.2077  1.8775
 4353SOL    HW215067   2.447   6.269   1.526  0.0417  0.8623  0.3367
 4354SOL     OW15068   3.816   0.202   4.113  0.4949  0.1190  0.0802
 4354SOL    HW115069   3.742   0.243   4.158 -0.7321 -0.5672 -1.2220
 4354SOL    HW215070   3.884   0.197   4.179  0.1628  2.7396  0.7704
 4355SOL     OW15071   2.746   2.440   3.086  0.5681  0.1875  0.0243
 4355SOL    HW115072   2.709   2.507   3.029 -1.3994 -0.0860  0.8763
 4355SOL    HW215073   2.685   2.367   3.079  0.8456 -0.2347  1.6697
 4356SOL     OW15074   5.520   0.753   0.036  0.4722  0.0361  0.7216
 4356SOL    HW115075   5.427   0.767   0.054  0.1742 -0.8807 -0.0375
 4356SOL    HW215076   5.565   0.817   0.092 -0.6906  2.3708 -0.8030
 4357SOL     OW15077   6.526   5.843   6.818  0.6696  0.6723  0.2250
 4357SOL    HW115078   6.574   5.810   6.894 -0.4649  0.0579  0.7029
 4357SOL    HW215079   6.482   5.766   6.782 -2.4512  1.6083  1.6524
 4358SOL     OW15080   9.931   6.916   6.081  0.8272  0.4896 -0.5435
 4358SOL    HW115081   9.953   6.916   6.174  1.7987  0.6371 -0.7702
 4358SOL    HW215082  10.012   6.891   6.036 -0.0241 -1.1803 -1.2591
 4359SOL     OW15083   5.644   4.665   5.934 -0.0800 -0.1009  0.5395
 4359SOL    HW115084   5.734   4.643   5.910 -0.5538 -0.5265 -0.9779
 4359SOL    HW215085   5.595   4.584   5.921 -0.8636  0.4020  0.2536
 4360SOL     OW15086   7.460   6.009   7.595  0.1361 -0.1420 -0.1967
 4360SOL    HW115087   7.513   5.950   7.541  2.6676  0.7591  1.1042
 4360SOL    HW215088   7.427   5.954   7.666  0.9625 -0.3822  0.0170
 4361SOL     OW15089   4.599   7.089   0.216  0.1192 -0.4430  0.1411
 4361SOL    HW115090   4.621   7.123   0.303 -0.2482 -2.1912  0.9689
 4361SOL    HW215091   4.671   7.031   0.194 -0.2748 -0.7826 -0.2710
 4362SOL     OW15092   2.872   0.193   9.147  0.9187 -0.2437 -0.2620
 4362SOL    HW115093   2.831   0.146   9.075  0.4768  0.3325 -0.3919
 4362SOL    HW215094   2.870   0.132   9.220 -0.4475 -0.1262 -0.1836
 4363SOL     OW15095   4.159   0.067  10.985 -0.0111 -0.1164  0.1888
 4363SOL    HW115096   4.092   0.006  10.954  0.7105 -1.1314  0.5700
 4363SOL    HW215097   4.230   0.058  10.921  0.6467 -0.6974  0.9775
 4364SOL     OW15098   8.529   5.918   2.556  0.3244  0.4259 -0.7616
 4364SOL    HW115099   8.496   5.830   2.572  1.5305  0.3742  2.1130
 4364SOL    HW215100   8.608   5.906   2.504 -0.2117 -0.0607 -1.4701
 4365SOL     OW15101   8.374   7.834   3.847  0.1021  0.0117 -1.1174
 4365SOL    HW115102   8.406   7.834   3.756  0.7518 -0.1320 -0.8943
 4365SOL    HW215103   8.286   7.872   3.841  0.2062  0.1734 -1.7815
 4366SOL     OW15104   3.617   2.665   7.165  0.1471  0.4645 -0.1567
 4366SOL    HW115105   3.694   2.616   7.137  0.2862  1.0858 -0.8956
 4366SOL    HW215106   3.585   2.619   7.243 -0.4311 -1.4835 -1.4946
 4367SOL     OW15107  10.999   9.596   2.711 -0.2923 -1.0334  0.2641
 4367SOL    HW115108  11.048   9.664   2.665 -0.2228 -1.0952  0.2448
 4367SOL    HW215109  10.914   9.635   2.729 -0.8930 -1.5125 -1.3005
 4368SOL     OW15110   2.229   2.024   6.067  0.6206  0.6684  0.4002
 4368SOL    HW115111   2.139   1.995   6.075  0.8206 -0.4794 -1.1351
 4368SOL    HW215112   2.274   1.952   6.022  0.9687  3.5368 -4.5085
 4369SOL     OW15113   1.256   4.400   7.861  1.0073  0.4131 -0.6693
 4369SOL    HW115114   1.198   4.365   7.929 -1.0017  1.3768 -1.8169
 4369SOL    HW215115   1.262   4.329   7.797 -1.3757  1.2543 -1.9676
 4370SOL     OW15116   7.902   9.817   4.497  0.1991 -0.0621  0.8096
 4370SOL    HW115117   7.987   9.786   4.530  0.9658  0.9302 -0.1876
 4370SOL    HW215118   7.919   9.906   4.468 -0.5615 -0.6944 -1.7543
 4371SOL     OW15119   3.216   5.937   3.604 -0.2068  0.6775 -0.3782
 4371SOL    HW115120   3.148   5.990   3.561 -0.2367 -0.2647 -1.5335
 4371SOL    HW215121   3.237   5.869   3.540 -0.4201 -0.9282  1.1906
 4372SOL     OW15122   8.970   9.834   4.491  0.4243  0.0005 -0.0867
 4372SOL    HW115123   9.064   9.834   4.504  0.1849  0.3781  1.9006
 4372SOL    HW215124   8.935   9.784   4.565 -0.8512 -1.8370 -1.7879
 4373SOL     OW15125   1.332   8.826   9.134  0.0663 -0.3393 -0.1762
 4373SOL    HW115126   1.349   8.836   9.041  0.7347  1.5793  0.1138
 4373SOL    HW215127   1.412   8.788   9.170  1.3893  2.4894  0.1453
 4374SOL     OW15128   8.506   5.519   0.018 -0.7636 -0.0937  0.3168
 4374SOL    HW115129   8.450   5.596   0.014 -1.0625 -0.3031  0.3954
 4374SOL    HW215130   8.504   5.492   0.110  0.2550  0.4665  0.5143
 4375SOL     OW15131   0.819  10.751   9.733  0.2417 -0.3683  0.2471
 4375SOL    HW115132   0.819  10.802   9.814 -3.2577 -1.1715  0.8927
 4375SOL    HW215133   0.798  10.662   9.760  3.3946 -1.7227 -1.1910
 4376SOL     OW15134   3.431   0.605   0.424 -0.1252 -0.2247 -0.2366
 4376SOL    HW115135   3.475   0.561   0.351 -1.6532  0.4622 -1.6320
 4376SOL    HW215136   3.492   0.596   0.497  1.2977 -1.2744 -1.4806
 4377SOL     OW15137   6.815   1.750   7.221  0.1704  0.3733 -0.1100
 4377SOL    HW115138   6.760   1.674   7.204 -0.0231  0.7084 -1.0419
 4377SOL    HW215139   6.850   1.774   7.135  0.0374  1.4812  0.1286
 4378SOL     OW15140   1.842   3.949   9.462 -0.4123 -0.3813  0.0201
 4378SOL    HW115141   1.907   3.920   9.398  0.9288 -0.4337  1.3545
 4378SOL    HW215142   1.849   3.887   9.534 -1.2067  0.2249  0.6453
 4379SOL     OW15143  10.995   9.003   0.798 -0.1446 -0.0738 -0.2530
 4379SOL    HW115144  10.999   8.950   0.718 -0.0504  0.2733 -0.4825
 4379SOL    HW215145  10.966   8.942   0.866 -0.2186 -0.3748 -0.5507
 4380SOL     OW15146  10.288   9.829   1.852 -0.3341 -0.0278 -0.1082
 4380SOL    HW115147  10.368   9.779   1.836  0.8142  1.5153  0.5754
 4380SOL    HW215148  10.316   9.901   1.909 -2.3305  0.2205  0.6210
 4381SOL     OW15149   0.566   3.322   1.406  0.2286 -0.2304  0.4027
 4381SOL    HW115150   0.526   3.348   1.489  1.6316  1.2695  0.6618
 4381SOL    HW215151   0.584   3.404   1.361  0.2569 -0.9898 -1.0291
 4382SOL     OW15152   6.622   5.031   1.767 -0.5103 -0.2002  0.2270
 4382SOL    HW115153   6.663   4.980   1.837  0.8622 -0.4346 -0.6864
 4382SOL    HW215154   6.670   5.005   1.688 -3.0296 -1.1064 -1.0948
 4383SOL     OW15155   2.811   1.220   5.857  0.1591 -0.4191  0.1367
 4383SOL    HW115156   2.754   1.267   5.917 -0.2284 -1.5242  0.6556
 4383SOL    HW215157   2.811   1.129   5.889  0.1908 -0.9719 -1.3229
 4384SOL     OW15158  10.935   5.962   7.474 -0.1499 -0.4385  0.0644
 4384SOL    HW115159  10.923   5.965   7.379  0.8395 -1.5773 -0.1219
 4384SOL    HW215160  10.938   5.868   7.495 -2.0493 -0.2359  1.4726
 4385SOL     OW15161   2.758   3.772   1.559  0.1713  0.1196 -0.1650
 4385SOL    HW115162   2.681   3.802   1.510  0.8188 -0.0133 -1.2917
 4385SOL    HW215163   2.738   3.794   1.650 -0.2393  2.1421 -0.6951
 4386SOL     OW15164   2.214   4.260   4.181  1.0689  0.4658  0.2570
 4386SOL    HW115165   2.145   4.300   4.129  0.5398 -1.3225 -0.5177
 4386SOL    HW215166   2.272   4.219   4.117  1.1818 -0.5793  0.9906
 4387SOL     OW15167   6.689  10.349   8.455  0.6299  0.6591 -0.2735
 4387SOL    HW115168   6.719  10.345   8.546 -1.7429  2.2457  0.6833
 4387SOL    HW215169   6.757  10.399   8.410  0.4793  2.4290  1.3328
 4388SOL     OW15170   8.113   7.885  10.160 -0.1525 -0.0647  0.4142
 4388SOL    HW115171   8.185   7.940  10.192  0.7163  0.4082 -2.1459
 4388SOL    HW215172   8.155   7.802  10.137 -0.9605 -0.8016  1.4957
 4389SOL     OW15173   3.564   6.972   8.853 -0.1818  0.1617 -0.5809
 4389SOL    HW115174   3.581   6.959   8.759  0.0882 -1.7361 -0.3094
 4389SOL    HW215175   3.609   6.899   8.895 -1.9314 -0.1114  0.8750
 4390SOL     OW15176   6.790   0.254   9.188 -0.2322 -0.1113  0.2609
 4390SOL    HW115177   6.733   0.237   9.263  0.3835 -1.2207  0.4926
 4390SOL    HW215178   6.769   0.344   9.162 -1.4107 -0.1839  0.9188
 4391SOL     OW15179  10.896   9.046   8.489 -0.0398  0.4202 -0.2498
 4391SOL    HW115180  10.887   9.122   8.432 -2.9362 -0.6044 -1.3134
 4391SOL    HW215181  10.978   9.005   8.462 -0.2658  1.1611 -2.1680
 4392SOL     OW15182   3.875   2.248   8.818  0.4427 -0.3396 -0.5316
 4392SOL    HW115183   3.925   2.225   8.740 -0.9493 -0.2143 -1.4929
 4392SOL    HW215184   3.881   2.170   8.874 -0.4203 -1.3242 -1.7660
 4393SOL     OW15185   6.989   1.921   3.201  0.5969  0.0087 -0.3803
 4393SOL    HW115186   6.989   1.829   3.225 -0.8462  0.6983  2.8967
 4393SOL    HW215187   7.026   1.966   3.277 -2.2762  2.3460 -0.1349
 4394SOL     OW15188   7.838   6.556   3.263 -0.8976  0.2963 -0.4615
 4394SOL    HW115189   7.859   6.476   3.311 -2.2805  0.2912  0.1908
 4394SOL    HW215190   7.919   6.580   3.219 -0.0790 -0.6977  0.4488
 4395SOL     OW15191   3.599   9.740   9.479 -0.4837 -0.4088 -0.5086
 4395SOL    HW115192   3.515   9.705   9.508 -1.3944  0.0575 -2.4329
 4395SOL    HW215193   3.599   9.831   9.510 -0.2147 -0.7076  0.3871
 4396SOL     OW15194   0.177   6.090   0.304 -0.5217 -0.1382  1.0733
 4396SOL    HW115195   0.249   6.136   0.260 -0.0879 -0.3293  1.5686
 4396SOL    HW215196   0.213   6.066   0.390 -0.9031 -0.9517  1.0202
 4397SOL     OW15197  10.669   8.511   6.052 -0.0252  0.0293  0.5074
 4397SOL    HW115198  10.576   8.528   6.033 -0.4301 -0.4866  1.8939
 4397SOL    HW215199  10.671   8.420   6.080  0.8312  0.1879  0.9655
 4398SOL     OW15200   0.998  10.115   2.021  0.5191  0.8167 -0.6117
 4398SOL    HW115201   0.910  10.149   2.038 -0.4706 -0.7522 -2.3399
 4398SOL    HW215202   1.024  10.074   2.104 -0.7280  0.5771 -0.3190
 4399SOL     OW15203   8.768   1.537   9.859  0.2971 -0.0354 -0.4518
 4399SOL    HW115204   8.742   1.526   9.767  0.8584 -0.5810 -0.5464
 4399SOL    HW215205   8.779   1.448   9.892  2.4675  0.1356 -0.5463
 4400SOL     OW15206   2.483   2.114   6.231 -0.3121  0.2120  0.2177
 4400SOL    HW115207   2.560   2.112   6.175  2.2555 -2.6417  3.3898
 4400SOL    HW215208   2.416   2.064   6.184  0.5345  0.7235 -1.5991
 4401SOL     OW15209   1.868   7.597   2.260 -0.0189  0.2200  0.2656
 4401SOL    HW115210   1.934   7.651   2.302  0.4787  1.5404 -2.0677
 4401SOL    HW215211   1.918   7.531   2.212 -0.3495  1.1249 -1.3795
 4402SOL     OW15212  10.590   0.228   1.664  0.9188 -0.0341 -0.2163
 4402SOL    HW115213  10.647   0.186   1.729 -0.5468 -1.3918  0.2368
 4402SOL    HW215214  10.557   0.156   1.610 -1.0309  0.5798  0.0709
 4403SOL     OW15215   8.964   6.082   6.750  0.6410  0.0897  0.1866
 4403SOL    HW115216   8.876   6.118   6.750  0.3823 -0.5364  0.9332
 4403SOL    HW215217   9.007   6.125   6.676 -0.3007  0.3563 -0.2192
 4404SOL     OW15218   1.497   3.582   4.092  0.0843 -0.3257 -0.2553
 4404SOL    HW115219   1.513   3.577   4.187 -0.3703 -2.3862 -0.2473
 4404SOL    HW215220   1.407   3.613   4.085 -0.3983 -1.6390  0.0369
 4405SOL     OW15221   4.325   4.716   2.680  0.5477 -0.2244  0.4319
 4405SOL    HW115222   4.337   4.799   2.633 -0.9240  0.1283  0.6273
 4405SOL    HW215223   4.281   4.740   2.761 -1.3725 -1.3347 -0.2122
 4406SOL     OW15224   4.136   8.370   6.307 -0.8799  0.4531 -0.8463
 4406SOL    HW115225   4.105   8.281   6.294  0.1970 -0.1958  0.7302
 4406SOL    HW215226   4.211   8.361   6.365 -1.9006  2.5262  0.9581
 4407SOL     OW15227   1.952   2.503   1.227  0.1911 -0.3728 -0.0229
 4407SOL    HW115228   2.002   2.477   1.149 -1.4716 -1.5841 -0.7396
 4407SOL    HW215229   1.900   2.578   1.198  2.0858  1.4468  0.9599
 4408SOL     OW15230   3.070   9.636   3.415 -0.0468 -0.0573 -0.0900
 4408SOL    HW115231   3.028   9.566   3.366 -1.7077 -0.0497  1.2552
 4408SOL    HW215232   3.077   9.708   3.352 -0.9662 -0.4642 -0.6783
 4409SOL     OW15233   7.451   7.200   2.041 -0.6365  0.6024  0.7353
 4409SOL    HW115234   7.370   7.170   2.083 -1.1094  0.8382  0.0106
 4409SOL    HW215235   7.507   7.122   2.039 -1.2329  0.1727  0.3497
 4410SOL     OW15236   0.079   3.866   9.529 -0.0991  0.2091 -0.0442
 4410SOL    HW115237   0.067   3.855   9.623 -1.2616  0.0543 -0.1981
 4410SOL    HW215238   0.141   3.797   9.505  2.3608  1.8944  1.0075
 4411SOL     OW15239   8.445   9.167   1.285  0.1694  0.0421  0.0237
 4411SOL    HW115240   8.535   9.160   1.319  0.0569  1.3464  0.6446
 4411SOL    HW215241   8.454   9.151   1.191  0.8181 -1.3748  0.2904
 4412SOL     OW15242   0.530  10.430   5.697 -0.3030 -0.2771  0.3039
 4412SOL    HW115243   0.543  10.521   5.724  1.1366 -0.1752 -0.5972
 4412SOL    HW215244   0.491  10.388   5.773 -1.1530  1.1278  0.6743
 4413SOL     OW15245   0.114   9.194   9.214  0.1037 -0.4216 -0.6773
 4413SOL    HW115246   0.195   9.151   9.185  0.9821  1.0961 -0.6040
 4413SOL    HW215247   0.127   9.286   9.190 -1.3243 -0.0387 -0.0323
 4414SOL     OW15248   8.860   4.808   8.488  0.4587  0.5393  0.3001
 4414SOL    HW115249   8.817   4.893   8.491 -0.7609 -0.0333 -0.4150
 4414SOL    HW215250   8.889   4.798   8.397  1.5897  0.6441  0.6245
 4415SOL     OW15251   1.537   5.662   6.356  0.3098 -0.2993  0.1605
 4415SOL    HW115252   1.588   5.625   6.284 -1.5852 -0.7925 -1.0047
 4415SOL    HW215253   1.487   5.587   6.390  1.0560 -0.0442  1.9405
 4416SOL     OW15254   2.130  10.425   3.180  0.3252  0.0541  0.2829
 4416SOL    HW115255   2.076  10.492   3.138  1.1447  0.5697  0.0308
 4416SOL    HW215256   2.211  10.470   3.203  1.0555 -0.9402 -0.2423
 4417SOL     OW15257   5.218   6.266  11.065  0.0853  0.3478 -0.3804
 4417SOL    HW115258   5.204   6.277  11.159 -1.6345  0.2823 -0.5947
 4417SOL    HW215259   5.284   6.332  11.043  1.8269 -0.8193  1.1494
 4418SOL     OW15260  10.361   0.803   5.561 -0.2601  0.4367  0.5808
 4418SOL    HW115261  10.451   0.823   5.536  0.9192 -3.7949  0.6837
 4418SOL    HW215262  10.309   0.823   5.483  1.3539 -0.2068 -0.7187
 4419SOL     OW15263   0.408  10.603   5.492 -0.0667  0.6330 -0.1797
 4419SOL    HW115264   0.352  10.669   5.531 -0.4990  0.9872 -1.3725
 4419SOL    HW215265   0.496  10.640   5.496 -0.4071  1.6458 -1.5593
 4420SOL     OW15266   1.119   7.554   9.433  0.1956 -0.1365  0.5492
 4420SOL    HW115267   1.155   7.496   9.367  0.8316 -0.9870  1.6249
 4420SOL    HW215268   1.145   7.642   9.405  0.6955 -0.5121 -0.1750
 4421SOL     OW15269   0.990   4.085   3.882 -0.0591  0.3723  0.0120
 4421SOL    HW115270   0.966   4.085   3.975 -2.3515  1.2396 -0.5122
 4421SOL    HW215271   0.971   3.995   3.853 -0.5701  0.4443  0.1141
 4422SOL     OW15272   4.538   2.243  10.430  0.0422 -0.3111  0.7107
 4422SOL    HW115273   4.481   2.167  10.439 -0.4150  0.0935  1.2697
 4422SOL    HW215274   4.577   2.233  10.343  0.1562 -1.2895  0.8601
 4423SOL     OW15275   8.906   6.005   8.933 -0.0408 -0.2628 -0.0404
 4423SOL    HW115276   8.996   5.972   8.939  0.5122  1.3093  0.8623
 4423SOL    HW215277   8.878   5.983   8.844  1.4422 -0.2722 -0.5242
 4424SOL     OW15278   4.458   2.387   1.814  0.0129 -0.2336  0.1069
 4424SOL    HW115279   4.540   2.371   1.767  1.1032  1.1149  1.4611
 4424SOL    HW215280   4.407   2.441   1.754  0.5406 -0.2135 -0.3368
 4425SOL     OW15281   3.637   6.194   4.927  0.4899 -0.4469  0.3724
 4425SOL    HW115282   3.615   6.101   4.923 -0.5189 -0.2408  0.7801
 4425SOL    HW215283   3.607   6.221   5.014  1.3706  0.1174  0.5090
 4426SOL     OW15284   7.334   6.037   2.404 -0.0059  0.1948 -0.7399
 4426SOL    HW115285   7.339   5.962   2.463 -1.0242  0.9094  0.2883
 4426SOL    HW215286   7.330   6.113   2.461 -0.5257  0.9447 -1.7332
 4427SOL     OW15287   2.910   6.326   3.995 -0.0096  0.1138 -0.3192
 4427SOL    HW115288   2.978   6.294   3.936  0.5690  2.2678 -0.8821
 4427SOL    HW215289   2.874   6.246   4.035  2.6209 -1.1169 -0.2102
 4428SOL     OW15290  10.560   4.426  10.403 -0.3724  0.0055 -0.6833
 4428SOL    HW115291  10.653   4.407  10.414 -0.1455  0.4011 -1.8089
 4428SOL    HW215292  10.519   4.340  10.398 -0.0269 -0.1718 -0.5271
 4429SOL     OW15293   8.145   7.655   6.983  0.4967 -0.1808 -0.3895
 4429SOL    HW115294   8.139   7.569   7.026 -1.7497 -0.3590 -0.9752
 4429SOL    HW215295   8.086   7.711   7.033 -0.6661  0.1113 -2.0216
 4430SOL     OW15296   7.628   1.021   2.993  0.5983  0.6771  0.5099
 4430SOL    HW115297   7.679   1.101   2.982  1.3901  0.3452  1.5388
 4430SOL    HW215298   7.693   0.955   3.020  0.3432 -0.8536 -2.2225
 4431SOL     OW15299   7.910   9.045   1.801 -0.1227  0.0517 -0.2268
 4431SOL    HW115300   7.979   9.058   1.865  0.9605 -0.5115 -1.2391
 4431SOL    HW215301   7.950   8.991   1.733 -1.6335 -0.5054 -0.7271
 4432SOL     OW15302   5.713   6.761   1.415 -0.0868 -0.1416  0.9071
 4432SOL    HW115303   5.621   6.786   1.404 -0.1837  0.4409  2.5926
 4432SOL    HW215304   5.741   6.811   1.492  1.6143 -0.3984  0.4879
 4433SOL     OW15305   4.963   6.241   3.987 -0.2021  0.2929  0.4341
 4433SOL    HW115306   5.009   6.160   3.962  1.4072  1.1946  0.3381
 4433SOL    HW215307   4.870   6.219   3.981  0.1690 -0.9446 -1.6315
 4434SOL     OW15308   0.588   0.330   6.400 -0.2839  0.2651  0.1911
 4434SOL    HW115309   0.571   0.381   6.479 -0.4349 -1.3878  1.2735
 4434SOL    HW215310   0.617   0.394   6.335 -2.3712  2.0121  0.8740
 4435SOL     OW15311   9.785  10.740   5.302 -0.2882  0.4670 -0.6313
 4435SOL    HW115312   9.699  10.735   5.343  0.5371  1.7560  1.4009
 4435SOL    HW215313   9.777  10.687   5.222 -2.6645 -0.1891 -0.0249
 4436SOL     OW15314   7.909   9.489   5.009 -0.2904  0.0157  0.5987
 4436SOL    HW115315   7.942   9.539   5.084 -0.9585 -0.6076  1.3254
 4436SOL    HW215316   7.882   9.555   4.945 -1.3841  0.6025  1.6316
 4437SOL     OW15317   8.330   1.377   4.738  0.6307  0.5110 -0.4098
 4437SOL    HW115318   8.333   1.420   4.823 -0.0895  2.6789 -1.4267
 4437SOL    HW215319   8.405   1.412   4.690 -0.1319  0.8863 -1.3624
 4438SOL     OW15320   8.161   8.413   0.173  0.0495  0.1532  0.1329
 4438SOL    HW115321   8.076   8.455   0.178  0.3098  0.7237 -0.2089
 4438SOL    HW215322   8.174   8.395   0.080  0.6028  0.7030  0.0982
 4439SOL     OW15323   0.216   0.906  10.300 -0.1183 -0.5926 -0.5841
 4439SOL    HW115324   0.259   0.894  10.215 -0.0966 -1.0817 -0.5032
 4439SOL    HW215325   0.287   0.911  10.363 -0.0995  0.4918 -0.6725
 4440SOL     OW15326   7.239   5.824   0.718  0.0251  0.5752 -0.7149
 4440SOL    HW115327   7.277   5.890   0.660  1.1617  0.9313  0.3858
 4440SOL    HW215328   7.313   5.773   0.748 -0.6462 -0.1192 -0.2051
 4441SOL     OW15329   2.095   6.597   3.121 -0.0982  0.3073  0.2402
 4441SOL    HW115330   2.006   6.619   3.149 -0.4110  1.0969 -1.2590
 4441SOL    HW215331   2.085   6.569   3.030  1.0731 -0.5258  0.3512
 4442SOL     OW15332   6.146   9.629   6.359 -0.4194 -0.5216  0.5686
 4442SOL    HW115333   6.097   9.561   6.312  0.0870 -1.2234  1.0343
 4442SOL    HW215334   6.086   9.657   6.428 -0.5889 -0.5754  0.4455
 4443SOL     OW15335   6.084   8.758   2.327 -0.2157 -0.5436  0.1870
 4443SOL    HW115336   6.064   8.763   2.421 -0.8807 -1.1167  0.0828
 4443SOL    HW215337   6.177   8.735   2.324  0.0553  0.4206  0.6944
 4444SOL     OW15338   0.369  10.503   2.590  0.2404 -0.7284 -0.5054
 4444SOL    HW115339   0.405  10.435   2.646  0.5450 -1.2432 -1.3125
 4444SOL    HW215340   0.408  10.584   2.623  1.2096 -1.1419 -0.6000
 4445SOL     OW15341   1.285   7.991  10.493  0.2086 -0.1386  0.1906
 4445SOL    HW115342   1.326   7.944  10.420  0.1407 -0.3183  0.2674
 4445SOL    HW215343   1.192   7.971  10.485 -0.1082  1.5081 -0.9147
 4446SOL     OW15344  10.295   9.367   8.920  0.2495  0.0215  0.2744
 4446SOL    HW115345  10.273   9.365   8.827 -0.9298 -0.2699  0.5534
 4446SOL    HW215346  10.286   9.459   8.945  0.4478  0.0802  0.1363
 4447SOL     OW15347   9.036   5.101  10.997 -0.0657 -0.3670  0.0892
 4447SOL    HW115348   9.062   5.043  11.069  0.8624 -0.2258 -0.1134
 4447SOL    HW215349   8.996   5.043  10.932  0.2353 -0.6815  0.1814
 4448SOL     OW15350   4.290   8.391   8.502  0.8944  1.4066 -0.0696
 4448SOL    HW115351   4.259   8.363   8.416 -0.1794 -0.0240  0.7543
 4448SOL    HW215352   4.380   8.358   8.506 -0.4282 -2.6916  1.0462
 4449SOL     OW15353  10.195   7.197   5.415 -0.4553  0.3139 -0.4011
 4449SOL    HW115354  10.104   7.187   5.390 -0.3865 -0.9338 -0.2239
 4449SOL    HW215355  10.216   7.116   5.462  0.5523  0.8692  0.1469
 4450SOL     OW15356   4.387   7.648   6.524 -0.1406  0.0985  0.0898
 4450SOL    HW115357   4.445   7.660   6.449 -0.1894  0.0195  0.0378
 4450SOL    HW215358   4.438   7.597   6.587  0.0924  0.6458  0.3439
 4451SOL     OW15359   5.458   0.966  10.521  0.4812 -0.1405  0.3609
 4451SOL    HW115360   5.456   1.054  10.483 -0.6418  0.1029  0.9355
 4451SOL    HW215361   5.543   0.960  10.563 -0.5063  1.8366  2.9014
 4452SOL     OW15362   4.826   5.101   3.062 -0.4420 -0.5269 -0.5687
 4452SOL    HW115363   4.736   5.132   3.075 -0.3160 -0.2266 -0.3955
 4452SOL    HW215364   4.847   5.056   3.144 -0.8817 -1.7374 -1.0901
 4453SOL     OW15365   7.997   4.275   4.383 -0.0618 -0.4206 -0.0494
 4453SOL    HW115366   8.037   4.188   4.372 -1.5939 -0.8649 -3.3864
 4453SOL    HW215367   7.905   4.262   4.357  0.1558  2.5405 -2.9487
 4454SOL     OW15368   9.801   4.029   3.479  0.2293  0.0837 -0.1781
 4454SOL    HW115369   9.846   3.951   3.509 -0.3328 -0.2438 -0.1670
 4454SOL    HW215370   9.708   4.005   3.478  0.1757  0.2241 -1.7080
 4455SOL     OW15371   6.682   8.513   7.234 -0.4423 -0.5124  0.1843
 4455SOL    HW115372   6.615   8.548   7.292  0.5612 -1.0599  1.7278
 4455SOL    HW215373   6.726   8.446   7.286  0.3845 -1.1553 -1.2834
 4456SOL     OW15374   3.896   2.633   8.117  0.7529 -0.2392  0.0023
 4456SOL    HW115375   3.823   2.608   8.174  0.1225  1.7031  0.1135
 4456SOL    HW215376   3.920   2.552   8.072 -1.9686 -0.8261 -0.5804
 4457SOL     OW15377   4.133   4.391   3.666 -0.3800  0.8249  0.2232
 4457SOL    HW115378   4.129   4.484   3.642 -0.3158  0.8258  0.2160
 4457SOL    HW215379   4.066   4.350   3.612  1.0397  0.5099 -1.4161
 4458SOL     OW15380   5.008   4.744   0.240  0.0335  0.0704 -0.1242
 4458SOL    HW115381   5.089   4.693   0.238  0.9967  1.4512 -2.9386
 4458SOL    HW215382   4.940   4.682   0.266  1.8052 -1.4022  1.2635
 4459SOL     OW15383   3.176   5.252   5.752 -0.0788 -0.3416 -0.7822
 4459SOL    HW115384   3.157   5.278   5.842 -1.5532  1.9185 -1.6709
 4459SOL    HW215385   3.096   5.272   5.703  0.6326 -1.6168 -2.6097
 4460SOL     OW15386   1.939   5.636   8.767  0.3511  0.6465 -0.4634
 4460SOL    HW115387   2.023   5.668   8.735  1.4568 -0.2756  1.3755
 4460SOL    HW215388   1.920   5.690   8.844  0.8785 -1.1637  1.0208
 4461SOL     OW15389   4.459   0.665   2.828 -0.0006 -0.2657  0.6167
 4461SOL    HW115390   4.395   0.732   2.854 -0.7865 -0.4970 -0.6617
 4461SOL    HW215391   4.541   0.713   2.818 -0.6589  0.6143 -0.7639
 4462SOL     OW15392   4.884   8.493   2.725 -0.3503  0.3640 -0.0361
 4462SOL    HW115393   4.972   8.485   2.689 -0.7662 -0.6577 -0.8915
 4462SOL    HW215394   4.883   8.578   2.769  1.0375  0.4090 -0.0536
 4463SOL     OW15395   7.087   3.741   7.225  0.5874 -0.0168 -0.1594
 4463SOL    HW115396   7.082   3.836   7.218 -0.7371  0.2676  2.8889
 4463SOL    HW215397   7.178   3.725   7.252  2.2388 -0.2035 -4.9057
 4464SOL     OW15398   5.485   3.535   5.977  0.8113 -0.0112 -0.2225
 4464SOL    HW115399   5.483   3.448   5.938 -0.0660  0.0854 -0.3925
 4464SOL    HW215400   5.410   3.537   6.035  0.1778  1.0173 -1.0516
 4465SOL     OW15401  10.855   6.286  10.300  0.6508  0.4689 -0.2320
 4465SOL    HW115402  10.785   6.349  10.283 -0.2296  0.1066  1.7814
 4465SOL    HW215403  10.849   6.224  10.227 -4.2015 -2.1714  1.9039
 4466SOL     OW15404   9.168   7.785  10.195 -0.0915  0.2384  0.4570
 4466SOL    HW115405   9.186   7.735  10.275  0.4321  1.3153  1.0363
 4466SOL    HW215406   9.077   7.814  10.206 -0.9088 -1.7554 -0.5597
 4467SOL     OW15407   6.201   9.564   4.469 -0.5365  0.4044  0.5531
 4467SOL    HW115408   6.118   9.521   4.489 -0.3757 -0.7396 -1.0979
 4467SOL    HW215409   6.188   9.601   4.382  0.7682 -0.0482  0.1507
 4468SOL     OW15410   0.241   9.342  10.089 -0.0816 -0.5623  0.4280
 4468SOL    HW115411   0.211   9.324  10.000  1.8707  0.9067 -0.6280
 4468SOL    HW215412   0.312   9.406  10.078  0.1402 -0.2146  3.0636
 4469SOL     OW15413   8.418   5.480   3.580 -0.5998 -0.0559 -0.1536
 4469SOL    HW115414   8.423   5.419   3.653  1.5563  0.0161 -0.1945
 4469SOL    HW215415   8.504   5.476   3.539 -0.7621  2.2017 -0.8264
 4470SOL     OW15416   4.950  10.621   1.106 -0.0409 -0.9161  0.3829
 4470SOL    HW115417   4.980  10.540   1.148  1.2720  0.4004  2.0991
 4470SOL    HW215418   4.856  10.608   1.094  0.0224 -2.4266  1.2655
 4471SOL     OW15419   8.008   7.126   0.082 -0.0242  0.4157  0.0396
 4471SOL    HW115420   7.945   7.110   0.012  1.2679 -0.0699 -1.0477
 4471SOL    HW215421   8.010   7.222   0.091 -0.9686  0.4308  0.1627
 4472SOL     OW15422   0.773   4.753   6.491 -0.8191  0.2567  0.4775
 4472SOL    HW115423   0.840   4.692   6.459 -1.1107  1.5425 -3.0416
 4472SOL    HW215424   0.764   4.733   6.584  3.1408 -1.1709  0.7223
 4473SOL     OW15425   3.347   1.295   2.661 -0.0619 -0.4024  0.5811
 4473SOL    HW115426   3.279   1.251   2.711 -0.7928 -0.3443 -0.3482
 4473SOL    HW215427   3.303   1.370   2.620  0.3081 -0.9183 -0.8228
 4474SOL     OW15428   3.705  10.221   2.559  1.0757 -0.6263 -0.7088
 4474SOL    HW115429   3.793  10.203   2.524  1.3703  1.4061 -1.1329
 4474SOL    HW215430   3.647  10.167   2.505  1.8207  0.1135 -2.3336
 4475SOL     OW15431   7.483   2.865   0.384  0.1408 -0.1151  0.6545
 4475SOL    HW115432   7.549   2.806   0.421  1.5024 -0.2177 -1.7035
 4475SOL    HW215433   7.452   2.819   0.306 -1.0210  0.9924  0.4290
 4476SOL     OW15434   9.900   9.812   8.870 -0.4136 -0.7882 -0.1513
 4476SOL    HW115435   9.886   9.719   8.887 -1.1920 -0.5638  0.4811
 4476SOL    HW215436   9.814   9.852   8.879 -0.0064  0.0718  0.0887
 4477SOL     OW15437   5.746   5.666   0.219  0.4592 -0.1519  0.0109
 4477SOL    HW115438   5.837   5.653   0.192  0.5534  2.2910 -1.1187
 4477SOL    HW215439   5.698   5.595   0.175  1.8119 -1.7096  0.9396
 4478SOL     OW15440   3.214   6.357   0.200  0.3684  0.5322 -0.5214
 4478SOL    HW115441   3.254   6.333   0.116 -0.9743  1.7375 -1.5594
 4478SOL    HW215442   3.175   6.276   0.232  0.4762  0.1627 -1.3036
 4479SOL     OW15443   1.945   8.552   7.992 -0.0052 -0.1786  0.1857
 4479SOL    HW115444   1.967   8.501   7.914 -0.7244  0.8487 -0.7181
 4479SOL    HW215445   1.973   8.497   8.065  0.5779 -1.2192 -0.7835
 4480SOL     OW15446   7.931   0.539   1.834 -0.4291 -0.2137 -0.0489
 4480SOL    HW115447   7.997   0.556   1.767 -2.0678 -3.3410 -2.7584
 4480SOL    HW215448   7.972   0.474   1.892  0.0112  0.4103  0.3534
 4481SOL     OW15449   5.180   7.458   4.877 -0.1097  0.1092  0.5047
 4481SOL    HW115450   5.146   7.464   4.967 -0.3437  1.6197  0.3437
 4481SOL    HW215451   5.271   7.487   4.883  0.1998 -0.8104  0.4085
 4482SOL     OW15452   0.364  10.912   0.091 -0.1240  0.0412  0.4991
 4482SOL    HW115453   0.433  10.852   0.119 -1.9778 -2.3021  0.3368
 4482SOL    HW215454   0.286  10.883   0.138 -0.8272  3.4654  1.7326
 4483SOL     OW15455   2.948  10.264   0.949 -0.2264  0.1303 -0.7560
 4483SOL    HW115456   2.939  10.169   0.953  0.3476  0.1199  1.0103
 4483SOL    HW215457   2.900  10.296   1.025  1.9401  1.0224  0.3220
 4484SOL     OW15458   7.460   4.394   7.479 -0.5743  0.1893  0.0176
 4484SOL    HW115459   7.450   4.489   7.484 -0.1707  0.1879  1.3827
 4484SOL    HW215460   7.555   4.380   7.475 -0.5734 -0.1679  0.9560
 4485SOL     OW15461   8.653   1.860   1.058 -0.1973  0.2274 -0.2914
 4485SOL    HW115462   8.607   1.940   1.084  0.1660  0.0396  0.9670
 4485SOL    HW215463   8.587   1.808   1.013 -0.6077  0.9489 -0.5395
 4486SOL     OW15464  10.351   1.526   2.643 -0.3437 -0.0399 -0.0571
 4486SOL    HW115465  10.335   1.521   2.737 -0.3092  1.2256  0.0320
 4486SOL    HW215466  10.441   1.559   2.637  0.3019 -1.8103 -0.5449
 4487SOL     OW15467  10.611  11.011   5.745  0.1166 -0.0494 -0.2677
 4487SOL    HW115468  10.668  10.957   5.800 -2.0746 -1.5992  0.6325
 4487SOL    HW215469  10.623  11.100   5.779  1.7127 -0.3642  0.0971
 4488SOL     OW15470   5.567   3.866   3.230  0.3934 -0.3199  0.3188
 4488SOL    HW115471   5.646   3.886   3.182  0.4013  1.6017  1.0636
 4488SOL    HW215472   5.561   3.934   3.298 -1.0726 -1.3058  1.2543
 4489SOL     OW15473   4.455   0.926   9.094 -0.1791  0.2166 -0.0538
 4489SOL    HW115474   4.547   0.901   9.103 -0.6287 -1.4709  0.0686
 4489SOL    HW215475   4.430   0.895   9.007 -0.2732  1.9388 -0.6718
 4490SOL     OW15476   8.904   7.437   2.791 -0.5976  0.7651 -0.6136
 4490SOL    HW115477   8.996   7.440   2.815 -1.4817  2.9571  3.2691
 4490SOL    HW215478   8.877   7.347   2.812 -0.0604  1.0992  1.7279
 4491SOL     OW15479  10.217   4.972   3.077 -1.0529  0.0278 -0.2720
 4491SOL    HW115480  10.249   5.061   3.093 -0.1130 -0.2962 -0.3063
 4491SOL    HW215481  10.156   4.955   3.149 -2.6171  1.3326 -1.2130
 4492SOL     OW15482   5.493   3.006   4.522 -0.0840 -0.2156  0.0481
 4492SOL    HW115483   5.464   3.095   4.538 -1.3476 -0.4722 -0.6650
 4492SOL    HW215484   5.469   2.989   4.430  1.1620 -0.9001 -0.1661
 4493SOL     OW15485   4.887   2.305   9.066  0.3372  0.2547 -0.0412
 4493SOL    HW115486   4.865   2.286   8.975 -0.0100  0.5062 -0.0082
 4493SOL    HW215487   4.970   2.259   9.080 -0.6803 -1.6266  0.1536
 4494SOL     OW15488   4.712   2.826   2.054 -0.1903 -0.4799  1.0295
 4494SOL    HW115489   4.744   2.893   2.114 -1.1600 -0.0407  1.0773
 4494SOL    HW215490   4.616   2.833   2.060 -0.4241  1.2818 -2.3567
 4495SOL     OW15491   9.166   9.084   1.669  0.1061 -0.6731  0.3080
 4495SOL    HW115492   9.108   9.094   1.594 -1.5523 -0.6634  1.5524
 4495SOL    HW215493   9.109   9.090   1.745  2.0134  1.7912  1.7044
 4496SOL     OW15494   7.503   4.790   8.732 -0.2086  0.3367 -0.1719
 4496SOL    HW115495   7.589   4.788   8.690 -1.1631 -0.9691 -2.2627
 4496SOL    HW215496   7.441   4.781   8.659 -2.0958  0.4919  1.3324
 4497SOL     OW15497   1.794   4.166  10.871 -0.5960 -0.2524  0.1314
 4497SOL    HW115498   1.788   4.105  10.797 -0.3627  2.1180 -1.9868
 4497SOL    HW215499   1.859   4.127  10.929 -1.3760 -2.6010 -0.4627
 4498SOL     OW15500   3.925   9.728  10.112  0.3904  0.1439  0.4373
 4498SOL    HW115501   3.951   9.652  10.061 -0.1029  1.9851 -2.8739
 4498SOL    HW215502   3.997   9.742  10.174  2.0715 -1.0938 -1.1402
 4499SOL     OW15503   3.981   3.972   1.295 -0.0902 -0.2994 -0.0815
 4499SOL    HW115504   4.033   3.934   1.365 -0.5084 -0.5075  0.1133
 4499SOL    HW215505   3.892   3.975   1.329 -0.2477 -0.1453 -0.4986
 4500SOL     OW15506  10.121   7.735   1.292 -0.5296 -0.2720 -0.4774
 4500SOL    HW115507  10.173   7.791   1.351 -1.5647  1.4419 -1.1061
 4500SOL    HW215508  10.173   7.731   1.211 -0.7166  0.3182 -0.6367
 4501SOL     OW15509   0.801   2.468   6.167 -0.0456 -0.1061 -0.3730
 4501SOL    HW115510   0.720   2.487   6.119 -0.7398  1.2531  1.1882
 4501SOL    HW215511   0.770   2.436   6.252  0.9583  1.6364  0.7235
 4502SOL     OW15512   4.845   2.620  10.954  0.3274  0.4023 -0.1153
 4502SOL    HW115513   4.776   2.684  10.968  0.3226  0.2107  0.8315
 4502SOL    HW215514   4.837   2.560  11.029  1.5980  0.4517  0.0752
 4503SOL     OW15515   4.547   8.952   2.185  0.0947  0.0008  0.8295
 4503SOL    HW115516   4.630   8.914   2.215  0.1399 -2.1702 -1.7912
 4503SOL    HW215517   4.482   8.883   2.197 -0.3174 -0.1459 -1.6897
 4504SOL     OW15518   3.735   9.287   5.901  0.1681  0.7937 -0.2512
 4504SOL    HW115519   3.809   9.279   5.961 -0.4122  2.0216  0.6751
 4504SOL    HW215520   3.675   9.217   5.927  0.4941  0.4945 -0.2849
 4505SOL     OW15521   8.099   8.357   4.293 -0.3787  0.2565  0.4525
 4505SOL    HW115522   8.176   8.302   4.284 -1.3694 -1.1080 -0.1245
 4505SOL    HW215523   8.033   8.299   4.331 -1.4488  1.0803 -0.0842
 4506SOL     OW15524  10.131   8.069   1.154  0.6402 -0.2935 -0.2728
 4506SOL    HW115525  10.052   8.075   1.209  1.4023  2.0833  0.6945
 4506SOL    HW215526  10.102   8.022   1.076 -0.6692 -3.1836  1.7776
 4507SOL     OW15527   6.447   5.388   6.474 -0.0885 -0.7331  0.2907
 4507SOL    HW115528   6.454   5.319   6.409 -1.4926 -1.4766  0.8744
 4507SOL    HW215529   6.362   5.372   6.517 -0.0525  0.8387  1.0214
 4508SOL     OW15530   7.650   2.585   7.759 -0.5022 -0.0105  0.0505
 4508SOL    HW115531   7.582   2.561   7.822 -1.1077 -0.0154 -0.6037
 4508SOL    HW215532   7.604   2.635   7.691  0.3548  1.0841  0.2423
 4509SOL     OW15533   7.945   8.955   6.896  0.0317  0.4994  0.8176
 4509SOL    HW115534   7.887   8.947   6.820 -1.4452 -0.5228  2.0020
 4509SOL    HW215535   8.003   8.880   6.890  0.0344  0.5188  0.6079
 4510SOL     OW15536   6.340   7.661   1.376 -0.5391  0.1697 -0.3995
 4510SOL    HW115537   6.313   7.691   1.463 -0.7247  1.8037 -0.9807
 4510SOL    HW215538   6.434   7.678   1.373 -1.0085  3.1805 -1.5824
 4511SOL     OW15539   2.833   7.981   7.835 -0.8068 -0.3317  0.4151
 4511SOL    HW115540   2.850   8.072   7.860 -0.5542 -0.4817  0.7960
 4511SOL    HW215541   2.869   7.973   7.747 -1.6982  0.2036 -0.0171
 4512SOL     OW15542   9.304   7.253   6.796 -0.6766 -0.0396 -0.1061
 4512SOL    HW115543   9.336   7.232   6.884 -1.2214 -0.0710  0.0888
 4512SOL    HW215544   9.219   7.208   6.790 -0.9069  0.4354 -0.4403
 4513SOL     OW15545   9.696   8.757   9.172  0.1776 -0.6324  0.0075
 4513SOL    HW115546   9.695   8.763   9.268 -0.9858  0.8316 -0.0716
 4513SOL    HW215547   9.771   8.809   9.145 -1.4494  1.8971  0.0232
 4514SOL     OW15548   7.635   3.164   5.189  0.4450 -0.4697 -0.4407
 4514SOL    HW115549   7.600   3.097   5.130 -1.4096  1.6860 -1.9403
 4514SOL    HW215550   7.699   3.212   5.135  0.7126 -0.1433  0.1607
 4515SOL     OW15551   5.908   9.064   6.290 -1.0222  0.1052 -0.1842
 4515SOL    HW115552   5.875   9.018   6.367  0.8831 -0.4252  0.3901
 4515SOL    HW215553   5.963   8.998   6.246  2.8364  1.9797  1.3193
 4516SOL     OW15554   1.238   9.803   0.407 -0.0398  0.6979  0.1521
 4516SOL    HW115555   1.284   9.749   0.343  0.4691  0.3513  0.7963
 4516SOL    HW215556   1.162   9.837   0.359  1.8590  2.9057 -1.5424
 4517SOL     OW15557   6.955   1.145   3.746 -0.8353  0.1002 -0.3706
 4517SOL    HW115558   6.909   1.062   3.738  1.4446 -1.1877 -1.0348
 4517SOL    HW215559   6.929   1.179   3.832  0.0499 -2.5507  1.0470
 4518SOL     OW15560   0.512   2.135   3.011 -0.0381  0.0794 -0.4520
 4518SOL    HW115561   0.458   2.070   2.967 -1.0327  0.4729  0.1454
 4518SOL    HW215562   0.496   2.120   3.105  1.7809 -0.5304 -0.1961
 4519SOL     OW15563  10.575   4.838   3.184 -0.0908  0.0661  0.2632
 4519SOL    HW115564  10.577   4.921   3.232  1.3677 -0.0882  0.5318
 4519SOL    HW215565  10.640   4.784   3.230  1.6827  0.0484 -2.0798
 4520SOL     OW15566   2.776   3.497   2.204 -0.2268  0.2643 -0.0095
 4520SOL    HW115567   2.706   3.560   2.189 -1.6259 -0.9203  1.3190
 4520SOL    HW215568   2.856   3.549   2.199 -1.3802  2.4579  2.4681
 4521SOL     OW15569  10.720   2.709   6.712 -0.3173  0.1704  0.4666
 4521SOL    HW115570  10.722   2.680   6.803  0.2501 -1.2256  0.0358
 4521SOL    HW215571  10.700   2.803   6.717  0.2728  0.2410  2.0518
 4522SOL     OW15572   3.244   5.056   2.735 -0.0282  0.8075  0.3705
 4522SOL    HW115573   3.202   5.072   2.819 -2.1881 -0.2329 -0.4273
 4522SOL    HW215574   3.227   5.135   2.684  1.1361  1.3688  0.8100
 4523SOL     OW15575   4.812   6.677   7.055  0.6410 -0.6238  0.1048
 4523SOL    HW115576   4.825   6.587   7.084 -0.7696 -0.9917 -0.3152
 4523SOL    HW215577   4.869   6.729   7.112  1.9416 -1.8182 -0.0586
 4524SOL     OW15578   2.967   8.067   6.919  0.0821 -0.1784 -0.3676
 4524SOL    HW115579   2.959   8.060   7.014  0.7992 -2.0689 -0.4129
 4524SOL    HW215580   2.915   8.145   6.897  0.6867  0.8724  1.6474
 4525SOL     OW15581   3.741   5.932   5.151  0.1633 -0.0806  0.6402
 4525SOL    HW115582   3.676   5.880   5.198 -2.0339  1.4804 -0.4811
 4525SOL    HW215583   3.694   5.965   5.074  2.8950 -0.5579 -1.3922
 4526SOL     OW15584   0.158   9.048   5.168  0.2010  0.5654 -0.6568
 4526SOL    HW115585   0.223   8.983   5.141  0.7708  0.8856 -0.0936
 4526SOL    HW215586   0.109   9.004   5.237 -0.3803  0.2179 -1.2866
 4527SOL     OW15587   6.158   8.406   7.888  0.0741  0.0911  0.3728
 4527SOL    HW115588   6.082   8.432   7.836 -0.1079 -1.8476 -0.4360
 4527SOL    HW215589   6.141   8.314   7.910  2.4344 -0.5631 -0.3052
 4528SOL     OW15590   9.076   8.098   0.438  0.2629  0.3454  0.3854
 4528SOL    HW115591   9.077   8.127   0.347  1.2715 -2.5441 -0.6284
 4528SOL    HW215592   9.160   8.054   0.450 -0.8439 -1.4962  1.9404
 4529SOL     OW15593   6.747   5.946   6.496 -0.3646 -0.8156 -0.3104
 4529SOL    HW115594   6.825   5.894   6.518  0.6434 -0.5436 -2.9087
 4529SOL    HW215595   6.757   5.966   6.403 -1.8791  2.0602  0.0221
 4530SOL     OW15596  10.002   3.218   4.787 -0.4045 -0.1463 -0.0155
 4530SOL    HW115597   9.997   3.313   4.794  1.4037 -0.0750  0.8010
 4530SOL    HW215598  10.038   3.202   4.700  0.1523 -0.0381  0.1922
 4531SOL     OW15599  10.458   0.715   2.298 -0.2535  0.1805 -0.0065
 4531SOL    HW115600  10.388   0.657   2.271  2.1788 -3.6137  1.0085
 4531SOL    HW215601  10.441   0.732   2.391 -0.2170 -0.1333  0.0585
 4532SOL     OW15602  10.072  10.466   6.771  0.1472  0.3360 -0.2847
 4532SOL    HW115603  10.023  10.384   6.764 -0.2241  0.2843  2.1126
 4532SOL    HW215604  10.149  10.444   6.824 -0.2511  1.6367  0.8771
 4533SOL     OW15605   4.152   5.669  10.537 -0.0757 -0.1843 -0.0781
 4533SOL    HW115606   4.077   5.664  10.596 -2.3085 -0.7511 -2.7437
 4533SOL    HW215607   4.166   5.763  10.523 -1.8886 -0.0395 -1.3016
 4534SOL     OW15608   5.554   6.403  10.371 -0.3864  0.1056 -0.4696
 4534SOL    HW115609   5.490   6.474  10.362 -1.5828 -0.5444  1.9591
 4534SOL    HW215610   5.504   6.330  10.407  1.8591  0.0185  3.0198
 4535SOL     OW15611   6.636   8.205   5.261  0.2623 -0.4566 -1.0619
 4535SOL    HW115612   6.585   8.137   5.304 -0.6616 -0.4273 -2.0757
 4535SOL    HW215613   6.668   8.164   5.180 -0.9880  0.5106 -2.0927
 4536SOL     OW15614   5.982   4.058   5.959 -0.3521  0.0588  0.3147
 4536SOL    HW115615   5.977   3.990   5.893 -0.9340 -0.0752  0.4912
 4536SOL    HW215616   6.048   4.027   6.021 -0.1575 -0.0418  0.0565
 4537SOL     OW15617   3.309  10.756   5.133  0.1461  0.1982  0.2904
 4537SOL    HW115618   3.393  10.714   5.113 -0.8838 -1.1068 -1.6763
 4537SOL    HW215619   3.332  10.846   5.157  2.0983 -0.1290 -0.1809
 4538SOL     OW15620   6.721   9.943   6.175  0.5647 -0.3585  0.4738
 4538SOL    HW115621   6.782  10.000   6.127 -0.1295 -1.0529 -1.3256
 4538SOL    HW215622   6.635   9.979   6.155  0.2525 -0.6452  1.2668
 4539SOL     OW15623   7.282   3.539   0.047 -0.4170 -0.0748  0.2127
 4539SOL    HW115624   7.230   3.616   0.023 -1.7353 -1.2979 -1.0281
 4539SOL    HW215625   7.367   3.553   0.007 -1.6226 -0.6515 -2.8200
 4540SOL     OW15626   4.470   6.998   1.245  0.4033 -0.3096 -0.4447
 4540SOL    HW115627   4.378   6.984   1.225  0.1776  0.1077  0.2641
 4540SOL    HW215628   4.511   7.013   1.160  0.0127 -1.5070 -0.8617
 4541SOL     OW15629   8.670   2.345  11.095  1.1628  0.1982  0.0875
 4541SOL    HW115630   8.638   2.317  11.010 -0.5748  1.3813  0.2897
 4541SOL    HW215631   8.733   2.414  11.076 -1.4822  2.7260 -0.3250
 4542SOL     OW15632   0.914   1.245   8.105 -1.0366  0.1663 -0.1217
 4542SOL    HW115633   0.832   1.248   8.155 -0.4631  1.9170  0.8009
 4542SOL    HW215634   0.907   1.165   8.053 -1.4096 -2.1731  3.2232
 4543SOL     OW15635   4.620   9.508  10.886 -0.0871 -0.7445 -0.0880
 4543SOL    HW115636   4.530   9.482  10.869 -0.1000 -1.1241  0.5315
 4543SOL    HW215637   4.621   9.534  10.978  1.1222 -3.9260  0.9325
 4544SOL     OW15638   4.058   3.075  10.116 -0.0536  0.1960 -0.1808
 4544SOL    HW115639   4.120   3.038  10.179 -0.1926 -1.0320 -0.7449
 4544SOL    HW215640   3.972   3.064  10.158  0.0844  2.0900  0.6946
 4545SOL     OW15641   5.059   5.376   8.699 -0.5839 -0.6005  0.2539
 4545SOL    HW115642   4.985   5.425   8.662  0.5258  0.4181 -0.6850
 4545SOL    HW215643   5.115   5.357   8.623  2.7401  3.1489  1.4526
 4546SOL     OW15644   8.701   2.739   7.107  0.0712  0.5104 -0.4928
 4546SOL    HW115645   8.756   2.809   7.141  1.1964  0.2368 -1.6718
 4546SOL    HW215646   8.612   2.769   7.123  0.5152  2.3099 -1.1349
 4547SOL     OW15647   8.063   1.787   3.331 -0.1868 -0.2947  0.0055
 4547SOL    HW115648   8.136   1.827   3.378 -1.1395  0.4970  0.8754
 4547SOL    HW215649   8.024   1.859   3.282  0.0608 -0.8684 -1.0611
 4548SOL     OW15650   2.811   0.196   6.722  0.1148  0.2319 -0.5249
 4548SOL    HW115651   2.900   0.166   6.704  0.2875  0.0705  0.5005
 4548SOL    HW215652   2.772   0.126   6.774 -0.5786  0.3460 -0.8875
 4549SOL     OW15653   3.119   1.758   2.889 -0.2668  0.8039  0.1018
 4549SOL    HW115654   3.075   1.674   2.903 -2.1862  1.7043 -0.1912
 4549SOL    HW215655   3.196   1.737   2.838 -1.4881 -0.6297 -1.2281
 4550SOL     OW15656   1.608   4.298   7.359 -0.2666  0.4763  0.0725
 4550SOL    HW115657   1.663   4.349   7.300  1.1522 -1.0708 -0.0049
 4550SOL    HW215658   1.607   4.349   7.441 -0.5346  1.5837 -0.5937
 4551SOL     OW15659   4.040  10.007  10.513  0.5257 -0.2668 -0.0086
 4551SOL    HW115660   4.116  10.065  10.511 -1.5964  2.7278 -0.2626
 4551SOL    HW215661   4.017   9.996  10.420  0.8791 -1.5995  0.0360
 4552SOL     OW15662   7.719   8.552   8.422 -0.2966 -1.2029  0.0449
 4552SOL    HW115663   7.681   8.466   8.441 -0.9473 -0.7608  0.8164
 4552SOL    HW215664   7.643   8.609   8.408  0.0519 -0.3096  1.5824
 4553SOL     OW15665   0.485   5.916   0.479  0.0841  0.0655 -0.1789
 4553SOL    HW115666   0.413   5.887   0.422 -0.6250  0.7838  0.3232
 4553SOL    HW215667   0.484   6.011   0.472 -0.5551  0.2294  1.6418
 4554SOL     OW15668   3.511   4.987   6.133 -0.0110 -0.7783 -0.0479
 4554SOL    HW115669   3.553   4.930   6.197  0.0583 -0.8926 -0.1940
 4554SOL    HW215670   3.569   5.063   6.127  0.3886 -1.1193 -0.5504
 4555SOL     OW15671  10.875  10.795   1.426 -0.3832 -0.4425  0.7657
 4555SOL    HW115672  10.826  10.745   1.360  1.0631  0.4887 -1.1022
 4555SOL    HW215673  10.961  10.754   1.429  0.1174  0.5704  0.8001
 4556SOL     OW15674   8.356   8.554   2.234 -0.3511 -0.3355 -0.1767
 4556SOL    HW115675   8.399   8.632   2.199 -0.9849 -0.7210 -1.8922
 4556SOL    HW215676   8.403   8.481   2.194 -1.6066 -0.7726 -0.8840
 4557SOL     OW15677   7.692   0.885   6.626 -0.9422  0.0519 -0.4727
 4557SOL    HW115678   7.709   0.792   6.642  0.7431  0.7143  2.1581
 4557SOL    HW215679   7.765   0.914   6.571 -1.2624 -0.0618 -0.9701
 4558SOL     OW15680   5.338   8.807   0.625 -0.6822 -0.0019  0.8932
 4558SOL    HW115681   5.370   8.872   0.562 -1.3778 -0.6442 -0.1622
 4558SOL    HW215682   5.305   8.858   0.699  1.0413  0.7333  1.1866
 4559SOL     OW15683   4.993   9.957   3.955  0.0888 -0.4108  0.0874
 4559SOL    HW115684   5.022   9.871   3.924 -0.7872 -0.4653 -0.6592
 4559SOL    HW215685   4.980  10.008   3.875  0.9799  0.5594  0.5373
 4560SOL     OW15686   0.494  10.175   0.942  0.7464  0.1811  0.5079
 4560SOL    HW115687   0.503  10.091   0.896  1.7763  1.1902 -1.2166
 4560SOL    HW215688   0.569  10.227   0.913 -0.3629  2.0347  0.8136
 4561SOL     OW15689   3.664   5.626   3.454 -0.0665 -0.0474  1.0345
 4561SOL    HW115690   3.644   5.552   3.396  1.2052  1.2723 -1.2283
 4561SOL    HW215691   3.754   5.649   3.433  0.0154  1.2952  2.6901
 4562SOL     OW15692   4.255   6.145   7.624  0.2668  0.1659 -0.1836
 4562SOL    HW115693   4.229   6.145   7.716  1.3633 -1.2331  0.1577
 4562SOL    HW215694   4.325   6.210   7.620  0.7188 -0.2929  0.1349
 4563SOL     OW15695   1.498   9.975   0.543 -0.0292  0.3374 -1.0228
 4563SOL    HW115696   1.514  10.037   0.614 -2.6568  0.0136 -0.0302
 4563SOL    HW215697   1.507  10.027   0.463  0.3315  1.3558 -0.3423
 4564SOL     OW15698   9.474  10.180   1.133  0.1533 -0.4679  0.1109
 4564SOL    HW115699   9.549  10.208   1.081 -0.2731 -0.1548 -0.3396
 4564SOL    HW215700   9.398  10.213   1.086 -0.3279 -1.7793 -0.0596
 4565SOL     OW15701   0.855   3.742   5.189 -0.4968  0.0456  0.5515
 4565SOL    HW115702   0.794   3.798   5.238 -0.9421  0.4110 -0.3888
 4565SOL    HW215703   0.937   3.791   5.190 -0.6602  0.3281  0.4509
 4566SOL     OW15704   3.357   2.480   9.391  0.4703  0.3669  0.2843
 4566SOL    HW115705   3.294   2.552   9.386 -1.5130 -1.0853  2.2734
 4566SOL    HW215706   3.372   2.468   9.485  1.3746 -1.3044 -0.0288
 4567SOL     OW15707  10.464   2.905   5.880  0.1211 -0.3817 -0.7066
 4567SOL    HW115708  10.465   2.817   5.842 -0.1090 -0.5819 -0.2476
 4567SOL    HW215709  10.512   2.958   5.816  0.0253 -0.7818 -1.1198
 4568SOL     OW15710   0.994  10.219   0.845  0.4846  0.3521  0.0061
 4568SOL    HW115711   1.083  10.251   0.834  1.0208 -1.7483 -2.8534
 4568SOL    HW215712   1.001  10.124   0.835 -1.8145 -0.1261  1.9640
 4569SOL     OW15713   6.146   5.650   9.823 -0.5588 -0.2307  0.0576
 4569SOL    HW115714   6.155   5.583   9.755 -2.7379  0.2105 -0.7215
 4569SOL    HW215715   6.165   5.732   9.779 -0.3768 -0.0872  0.3988
 4570SOL     OW15716   8.823   2.253   7.689  0.0870 -0.4577  0.5785
 4570SOL    HW115717   8.893   2.271   7.752 -1.1183  1.9015  1.3555
 4570SOL    HW215718   8.869   2.247   7.605  1.4271 -0.9405  1.3111
 4571SOL     OW15719   7.811   1.859   5.151  0.2026 -0.3207  0.3122
 4571SOL    HW115720   7.831   1.807   5.228 -0.0784 -1.9920 -0.7038
 4571SOL    HW215721   7.743   1.920   5.180  1.4296  0.4024  1.8451
 4572SOL     OW15722   6.080  10.157   8.158  0.1167 -0.2186 -0.5103
 4572SOL    HW115723   6.071  10.227   8.223 -0.5412 -0.0958 -0.7276
 4572SOL    HW215724   6.148  10.100   8.194  0.4927  0.3979 -0.2131
 4573SOL     OW15725   0.850   3.820   6.144  0.1228 -0.4333 -0.0961
 4573SOL    HW115726   0.762   3.856   6.156  0.6250  0.7722  0.0611
 4573SOL    HW215727   0.835   3.734   6.103 -1.1563 -0.5656  0.5810
 4574SOL     OW15728   3.348   1.724   4.060 -0.5298  0.0024  0.1106
 4574SOL    HW115729   3.289   1.653   4.035 -1.5027  0.4162  1.1389
 4574SOL    HW215730   3.312   1.801   4.016  2.3984 -0.5386 -3.8069
 4575SOL     OW15731   9.989   4.946   9.251 -0.3773  0.4518 -0.1984
 4575SOL    HW115732   9.937   4.870   9.224 -1.0999  0.1902  1.7941
 4575SOL    HW215733   9.924   5.015   9.267 -0.4258 -0.2664  3.6469
 4576SOL     OW15734   2.949   5.523   7.616  0.3704 -0.4745  0.9563
 4576SOL    HW115735   2.997   5.558   7.541 -2.6547 -0.5159 -1.2122
 4576SOL    HW215736   2.963   5.428   7.610 -1.5042 -0.7153 -0.9906
 4577SOL     OW15737   7.938   6.138   2.575  0.1869  0.1986 -0.4276
 4577SOL    HW115738   7.875   6.071   2.601 -1.2315  1.6718  0.0511
 4577SOL    HW215739   7.970   6.174   2.657  1.9545 -0.7504 -0.6581
 4578SOL     OW15740   5.617   2.602  10.566  0.5123 -0.5295  0.0008
 4578SOL    HW115741   5.711   2.593  10.549  1.2294  1.2514  2.4566
 4578SOL    HW215742   5.607   2.693  10.594 -1.9602 -0.7125 -0.1149
 4579SOL     OW15743  10.592   4.371   2.787 -0.2319  0.7467 -0.6206
 4579SOL    HW115744  10.559   4.444   2.838  0.1216  0.8251 -0.4974
 4579SOL    HW215745  10.540   4.296   2.815  0.6173  0.5812  0.6171
 4580SOL     OW15746   4.171   3.325   5.536  0.5600 -0.0217 -0.4991
 4580SOL    HW115747   4.217   3.354   5.458 -2.4615 -0.0330 -2.4733
 4580SOL    HW215748   4.096   3.274   5.503 -0.8466 -0.0842  2.3921
 4581SOL     OW15749   8.438   7.782   6.975 -0.6288 -0.5042 -0.9175
 4581SOL    HW115750   8.503   7.766   7.044  2.0678  0.7052 -3.0184
 4581SOL    HW215751   8.420   7.696   6.939 -1.2059 -1.0078  0.4787
 4582SOL     OW15752  10.688   1.557   4.610  0.2305 -0.2133  0.0464
 4582SOL    HW115753  10.719   1.553   4.700  1.9066 -0.6388 -0.5085
 4582SOL    HW215754  10.747   1.499   4.562 -1.4550 -1.0403 -1.1153
 4583SOL     OW15755   4.798   0.485  10.755  0.2114  0.1162  0.4051
 4583SOL    HW115756   4.819   0.556  10.694 -0.8998 -0.6283 -0.9037
 4583SOL    HW215757   4.824   0.406  10.708 -0.5751 -0.4728  0.9401
 4584SOL     OW15758   1.569   7.229   6.264 -0.0305  0.1830 -0.3993
 4584SOL    HW115759   1.487   7.180   6.254 -0.1544  0.2672  0.1646
 4584SOL    HW215760   1.636   7.161   6.266 -0.2162  0.0157  0.5324
 4585SOL     OW15761  10.548   4.263  10.158 -0.7780 -0.3571  0.3584
 4585SOL    HW115762  10.549   4.327  10.229 -2.6954 -1.4706  1.4936
 4585SOL    HW215763  10.459   4.269  10.122 -0.1450 -0.5182 -1.3133
 4586SOL     OW15764   9.989   8.463   5.292 -0.3069 -0.2955  0.6292
 4586SOL    HW115765  10.041   8.386   5.269 -0.8681 -1.7359  3.6447
 4586SOL    HW215766  10.019   8.531   5.232  1.5546 -2.3462 -0.9360
 4587SOL     OW15767   8.325   0.970   3.662 -0.6779  0.2601  0.3052
 4587SOL    HW115768   8.399   1.022   3.631 -0.5855  0.0351  0.1424
 4587SOL    HW215769   8.255   1.033   3.675 -0.1875  0.6171  1.3582
 4588SOL     OW15770   1.398  10.618   6.721  0.0922 -0.4807 -0.0152
 4588SOL    HW115771   1.365  10.607   6.810  0.7344 -2.4472  0.0240
 4588SOL    HW215772   1.427  10.531   6.695 -0.3373 -0.0008 -2.2786
 4589SOL     OW15773   2.028   4.576   9.658 -0.0481 -0.0689 -0.8408
 4589SOL    HW115774   1.956   4.514   9.647 -1.6164  1.5431 -0.1615
 4589SOL    HW215775   2.026   4.631   9.580  1.5152 -0.9848 -1.5762
 4590SOL     OW15776   3.665   2.410   1.224  0.1478 -0.0329 -0.2217
 4590SOL    HW115777   3.635   2.325   1.192  1.7479 -0.0730 -1.7380
 4590SOL    HW215778   3.590   2.445   1.273 -0.7186 -2.0608 -0.0179
 4591SOL     OW15779   3.942   6.529  10.551 -0.4256 -0.2839  0.1166
 4591SOL    HW115780   3.873   6.542  10.616  0.0363 -0.8703  0.7391
 4591SOL    HW215781   3.989   6.452  10.581  1.6264  1.1144  0.7318
 4592SOL     OW15782   7.941   5.732   3.909  0.0163 -0.0577  0.5092
 4592SOL    HW115783   7.957   5.736   3.815 -0.7353 -0.6327  0.3489
 4592SOL    HW215784   8.013   5.781   3.947 -0.8810  2.1907 -0.4885
 4593SOL     OW15785   6.079  10.381   1.384  0.1510 -0.1774 -0.3333
 4593SOL    HW115786   6.166  10.369   1.421 -0.2718 -0.8935  0.4638
 4593SOL    HW215787   6.050  10.466   1.417 -0.2307 -0.8167  1.0575
 4594SOL     OW15788  10.258   2.178   7.405  0.3570 -0.2900  0.2317
 4594SOL    HW115789  10.344   2.213   7.382  0.0976 -1.4993 -3.3190
 4594SOL    HW215790  10.263   2.085   7.379 -2.3184 -0.1049 -1.3332
 4595SOL     OW15791   2.529   1.580   5.311  0.3320 -0.0600  0.2362
 4595SOL    HW115792   2.471   1.656   5.301 -0.1018 -0.6390 -2.1754
 4595SOL    HW215793   2.528   1.538   5.226 -1.2540 -4.1255  2.0010
 4596SOL     OW15794   5.068   1.124  10.187  0.0312 -0.0480  0.2309
 4596SOL    HW115795   5.145   1.072  10.164 -0.2396 -1.1043  1.5345
 4596SOL    HW215796   5.091   1.213  10.162  1.1936 -0.5308 -0.5156
 4597SOL     OW15797   3.411   7.782   3.579 -0.8300  0.2948  0.0734
 4597SOL    HW115798   3.466   7.839   3.633  1.7130 -0.3070 -1.6669
 4597SOL    HW215799   3.396   7.705   3.633 -0.6450  0.8183  0.8884
 4598SOL     OW15800   1.635   0.287   2.188 -0.0072 -0.0789  0.6292
 4598SOL    HW115801   1.571   0.355   2.170  0.4405  0.2451  0.2415
 4598SOL    HW215802   1.718   0.324   2.158 -0.0341 -1.5350 -1.4398
 4599SOL     OW15803   1.642   7.257   3.939  0.2176 -0.1855 -0.3697
 4599SOL    HW115804   1.630   7.176   3.889 -1.2812  0.6853 -1.5396
 4599SOL    HW215805   1.735   7.258   3.961  0.9831 -0.6681 -3.1357
 4600SOL     OW15806  10.531   0.657   3.855  0.7680  0.5428  0.3951
 4600SOL    HW115807  10.435   0.658   3.853  0.7677 -0.0451 -0.1589
 4600SOL    HW215808  10.553   0.597   3.926  0.7195  0.2023  0.1259
 4601SOL     OW15809   9.323   8.297   4.172 -0.4253  0.5308 -0.2652
 4601SOL    HW115810   9.402   8.305   4.119  0.7982 -2.4740  0.8875
 4601SOL    HW215811   9.353   8.307   4.263 -1.1256 -1.5060  0.2523
 4602SOL     OW15812  10.097   3.406   0.024  0.2827  0.4342  0.4608
 4602SOL    HW115813  10.014   3.382  -0.017  1.3391  0.3935 -1.7635
 4602SOL    HW215814  10.108   3.341   0.094 -1.4416  0.3446  0.6954
 4603SOL     OW15815  10.200   1.136   0.794  0.7066  0.0026 -0.3290
 4603SOL    HW115816  10.149   1.082   0.855 -0.3752  0.0107 -1.2010
 4603SOL    HW215817  10.137   1.200   0.761  1.8831  1.5651  0.3931
 4604SOL     OW15818   4.053   7.709  10.583  0.3643  0.4223  0.4848
 4604SOL    HW115819   3.963   7.724  10.613 -0.2376 -0.8885 -0.5532
 4604SOL    HW215820   4.098   7.672  10.659  0.4824  2.4746  1.4848
 4605SOL     OW15821   3.624   6.497   4.444 -0.0309  0.4132  0.1829
 4605SOL    HW115822   3.618   6.402   4.433  0.5422  0.4382 -0.3700
 4605SOL    HW215823   3.542   6.521   4.488 -0.5065 -0.2356 -0.3286
 4606SOL     OW15824   3.189   6.776   0.480  0.3520  0.2002  0.1173
 4606SOL    HW115825   3.097   6.804   0.480  0.3974  0.3785 -0.9240
 4606SOL    HW215826   3.192   6.704   0.418  0.8391 -0.0998  0.4872
 4607SOL     OW15827   2.073   0.580   0.210 -0.5810  0.2199 -0.4203
 4607SOL    HW115828   2.149   0.522   0.200 -0.0274  0.4774  1.7060
 4607SOL    HW215829   2.011   0.529   0.262 -0.5091  1.1236  0.5954
 4608SOL     OW15830   7.635   7.506   6.795 -0.4518 -0.0960 -0.1117
 4608SOL    HW115831   7.717   7.474   6.757  0.1264  0.4740  0.6252
 4608SOL    HW215832   7.603   7.570   6.731  1.2666  1.9485  0.9411
 4609SOL     OW15833   2.193  10.729   3.864 -0.0912  0.0250  0.2943
 4609SOL    HW115834   2.144  10.759   3.941  0.0980  1.2671 -0.0612
 4609SOL    HW215835   2.220  10.809   3.819  0.3094 -0.6783 -0.7571
 4610SOL     OW15836   3.002   2.934   9.453  0.2751 -0.1397 -0.1442
 4610SOL    HW115837   2.910   2.907   9.450  0.1578  0.3100 -0.7891
 4610SOL    HW215838   3.009   2.985   9.534 -0.3433  0.8232 -0.6676
 4611SOL     OW15839   5.975   6.336   7.073 -0.6405 -1.0575  0.3983
 4611SOL    HW115840   6.047   6.276   7.093  0.8315 -0.0185 -1.4465
 4611SOL    HW215841   5.904   6.280   7.042 -0.0740 -1.9931  0.7798
 4612SOL     OW15842  11.056   4.386   0.471 -0.1675  0.2784 -0.0771
 4612SOL    HW115843  10.971   4.423   0.494 -1.2688 -1.9561 -0.2493
 4612SOL    HW215844  11.039   4.333   0.393  1.7174  0.9459 -0.9967
 4613SOL     OW15845   5.955   3.238   1.294 -0.5238 -0.8991  0.1528
 4613SOL    HW115846   6.007   3.282   1.228  0.9138 -0.6253  1.4157
 4613SOL    HW215847   5.928   3.307   1.354 -2.8051 -0.9521 -0.7080
 4614SOL     OW15848   9.068   9.590   3.481 -0.5516 -0.0319  0.6545
 4614SOL    HW115849   9.067   9.584   3.385 -1.7225  2.4761  0.4427
 4614SOL    HW215850   9.129   9.521   3.508 -0.4726 -1.0626 -1.8463
 4615SOL     OW15851   4.688   3.064   8.255 -0.3654 -0.0334 -0.2066
 4615SOL    HW115852   4.724   3.077   8.343 -1.7183  2.6970  0.0572
 4615SOL    HW215853   4.748   3.111   8.197 -0.0102 -1.0002 -0.6504
 4616SOL     OW15854   5.659   1.989   7.892 -0.5819  0.8731  0.3962
 4616SOL    HW115855   5.691   1.914   7.943 -2.1851 -0.9375 -1.0697
 4616SOL    HW215856   5.738   2.039   7.871  1.5183 -3.0163 -2.5464
 4617SOL     OW15857   8.277   4.885   0.307 -0.2722  0.0249 -0.1548
 4617SOL    HW115858   8.194   4.837   0.303 -0.0764 -0.5159  1.3893
 4617SOL    HW215859   8.343   4.821   0.282 -0.0216 -0.5507  1.8083
 4618SOL     OW15860   9.036   7.126   1.604 -0.4590  0.1453  0.7932
 4618SOL    HW115861   9.122   7.100   1.635 -0.5911  0.8661  1.8235
 4618SOL    HW215862   9.024   7.078   1.522  0.0553 -1.5739  1.6691
 4619SOL     OW15863   7.578   8.476   5.116 -0.1353  0.8819  0.2562
 4619SOL    HW115864   7.534   8.467   5.032  0.4439  0.6982 -0.0340
 4619SOL    HW215865   7.624   8.559   5.110  1.4323  0.0226 -0.3520
 4620SOL     OW15866   3.753  10.606   2.251 -0.1408 -0.3186 -0.0208
 4620SOL    HW115867   3.733  10.686   2.300  2.4544  0.2607  0.2437
 4620SOL    HW215868   3.742  10.631   2.159 -0.3829  0.0197  0.0999
 4621SOL     OW15869   7.176   4.523   9.948 -0.4477  0.0535 -0.1599
 4621SOL    HW115870   7.166   4.595  10.011 -1.1925 -0.5834  0.4602
 4621SOL    HW215871   7.263   4.537   9.910 -0.4661  1.1203  0.1504
 4622SOL     OW15872   6.885   5.376   5.848  0.1087 -0.1636 -0.0491
 4622SOL    HW115873   6.934   5.302   5.812 -0.4166  0.4037 -2.0798
 4622SOL    HW215874   6.941   5.410   5.917  1.1801 -1.3601 -0.2830
 4623SOL     OW15875   5.525  10.623   6.767 -0.1029 -0.2264 -0.4649
 4623SOL    HW115876   5.444  10.573   6.781 -0.2052  0.0517 -0.0368
 4623SOL    HW215877   5.567  10.580   6.693  0.3318 -1.6388  0.5566
 4624SOL     OW15878   7.384   9.176   6.865  0.4062  0.4371  0.0748
 4624SOL    HW115879   7.339   9.156   6.947 -1.5631 -0.5832 -1.1720
 4624SOL    HW215880   7.447   9.105   6.856 -1.6992 -1.4420 -0.8596
 4625SOL     OW15881   3.945   3.051   6.494 -0.5232 -0.4812  0.3653
 4625SOL    HW115882   3.889   2.984   6.455  0.1969 -1.6500  1.2804
 4625SOL    HW215883   3.889   3.129   6.496 -1.6333 -1.2238 -0.0578
 4626SOL     OW15884   3.658   8.724   4.951  0.0453 -0.5596  0.2715
 4626SOL    HW115885   3.696   8.812   4.950  1.6387 -1.2048  1.4540
 4626SOL    HW215886   3.622   8.714   5.039 -0.4427 -0.9807  0.0337
 4627SOL     OW15887   8.312  10.361   8.386 -0.7128  0.6363  0.5102
 4627SOL    HW115888   8.309  10.330   8.476  2.6447  1.7972  1.1608
 4627SOL    HW215889   8.345  10.286   8.336 -0.6643  0.6094  0.5829
 4628SOL     OW15890   2.008   9.810   1.239  0.6126 -0.2790 -0.3692
 4628SOL    HW115891   1.940   9.820   1.305 -0.7484 -1.7640 -1.4509
 4628SOL    HW215892   2.009   9.716   1.220  1.0103  0.0640 -2.3560
 4629SOL     OW15893   0.102   5.219   9.652 -0.2547  0.1242  0.0870
 4629SOL    HW115894   0.181   5.245   9.605 -0.1268  0.5486  0.5334
 4629SOL    HW215895   0.059   5.301   9.675 -1.2680 -0.1057 -0.8711
 4630SOL     OW15896   2.234   6.821   8.971  0.1832 -0.7902 -0.6844
 4630SOL    HW115897   2.255   6.906   8.933 -1.1668 -0.4768 -0.7941
 4630SOL    HW215898   2.306   6.802   9.030 -0.6265  1.5717  1.2135
 4631SOL     OW15899   4.254   4.562   7.318 -0.0772 -0.8287 -0.4310
 4631SOL    HW115900   4.203   4.486   7.345  0.0295 -0.1913  1.6994
 4631SOL    HW215901   4.188   4.630   7.301 -0.1236 -1.1266 -1.4920
 4632SOL     OW15902   8.666   0.682   9.775 -0.2262 -0.4710 -0.6635
 4632SOL    HW115903   8.705   0.760   9.737  1.5988 -1.6195 -1.2891
 4632SOL    HW215904   8.651   0.624   9.701 -1.8051 -0.6509 -0.2406
 4633SOL     OW15905   4.548   8.344   8.218  0.5843 -0.1247 -0.5060
 4633SOL    HW115906   4.584   8.347   8.307  0.3453 -0.9174 -0.3719
 4633SOL    HW215907   4.581   8.423   8.176  1.2712 -0.0928  0.0728
 4634SOL     OW15908   0.882   0.956   0.020  0.7976 -0.2685 -0.2006
 4634SOL    HW115909   0.823   0.943   0.094 -0.4632 -0.9553 -1.2945
 4634SOL    HW215910   0.837   0.917  -0.054  1.4596  1.5045 -1.6062
 4635SOL     OW15911  11.038   4.616   4.554  0.0802 -0.1848 -0.2328
 4635SOL    HW115912  11.114   4.601   4.498 -1.6497 -0.9526 -2.5926
 4635SOL    HW215913  10.994   4.692   4.515 -0.2934  0.3611  1.1831
 4636SOL     OW15914   1.451   9.421   9.420 -0.8486  0.0393  0.3543
 4636SOL    HW115915   1.492   9.474   9.488 -0.0753 -0.6508  0.4555
 4636SOL    HW215916   1.497   9.444   9.340 -2.0959  1.2201 -0.0561
 4637SOL     OW15917   1.664   8.233   8.236  0.0000  0.8391 -0.1192
 4637SOL    HW115918   1.635   8.315   8.276 -1.1984  0.5911 -0.4426
 4637SOL    HW215919   1.584   8.182   8.225  0.8450 -0.8186  1.0074
 4638SOL     OW15920   9.518   6.138   9.725 -0.1654 -0.4111 -0.1101
 4638SOL    HW115921   9.603   6.102   9.749  0.4938  1.4493  0.5816
 4638SOL    HW215922   9.539   6.203   9.657 -1.1907 -0.7675 -0.7795
 4639SOL     OW15923   2.610   8.684   8.930  0.2522  0.5185 -0.7438
 4639SOL    HW115924   2.691   8.688   8.879  0.7282  0.5113 -0.0080
 4639SOL    HW215925   2.639   8.688   9.021 -0.5998  0.9110 -0.4746
 4640SOL     OW15926   3.904   8.366   7.012  0.6951 -0.3105 -0.0465
 4640SOL    HW115927   3.953   8.293   6.975  2.9873  1.8063 -1.4788
 4640SOL    HW215928   3.947   8.384   7.096 -0.8797 -1.4987  1.0869
 4641SOL     OW15929   7.145   4.008   9.412 -0.2153  0.5297  0.2221
 4641SOL    HW115930   7.225   3.970   9.376 -0.9026  0.3252 -1.1819
 4641SOL    HW215931   7.167   4.099   9.431  1.0642 -0.1640  2.3138
 4642SOL     OW15932   8.372   5.167   8.934 -0.3246 -0.1247  0.4749
 4642SOL    HW115933   8.444   5.189   8.993 -0.4611 -0.5577  0.8095
 4642SOL    HW215934   8.413   5.153   8.849 -0.1614  0.8070  0.3911
 4643SOL     OW15935   6.249   4.462   6.816 -0.3716  0.0490  0.6391
 4643SOL    HW115936   6.211   4.378   6.791  0.6155  0.1294 -1.3840
 4643SOL    HW215937   6.178   4.525   6.802 -1.3858 -0.4797  2.9832
 4644SOL     OW15938   7.573   4.497   8.454  0.1799 -0.1392  0.1097
 4644SOL    HW115939   7.502   4.542   8.408  0.4878  1.3812  1.0399
 4644SOL    HW215940   7.534   4.416   8.486 -0.1213 -1.1338 -2.5315
 4645SOL     OW15941   0.428   5.691   3.020 -0.6588 -0.5378 -0.2918
 4645SOL    HW115942   0.511   5.717   3.060 -2.0545  2.1683  1.0981
 4645SOL    HW215943   0.374   5.663   3.093 -1.3598 -1.2432 -1.0573
 4646SOL     OW15944   1.681   8.897   7.499 -0.3190 -0.3101  0.1965
 4646SOL    HW115945   1.600   8.898   7.550  0.8765 -1.5338  2.2645
 4646SOL    HW215946   1.664   8.834   7.429 -1.5342  0.3470 -0.1333
 4647SOL     OW15947   6.042   9.895   9.454  0.2896 -0.3466 -0.6826
 4647SOL    HW115948   6.036   9.829   9.523  1.8568  0.9519  0.7874
 4647SOL    HW215949   6.127   9.881   9.413  0.3508  0.3326 -0.8089
 4648SOL     OW15950   5.255   1.793   7.004 -0.2006 -0.6856  0.4746
 4648SOL    HW115951   5.305   1.712   6.991 -0.2313 -0.6399  0.0317
 4648SOL    HW215952   5.314   1.863   6.978 -1.0194 -0.7299 -1.7273
 4649SOL     OW15953   0.683   4.016   0.757 -0.5441 -0.0721  0.3971
 4649SOL    HW115954   0.725   4.070   0.824 -2.3589  1.4841  0.3473
 4649SOL    HW215955   0.680   4.073   0.680  1.9437 -1.9802 -1.2737
 4650SOL     OW15956   5.417   7.269   4.551 -0.0800  0.6702  0.0960
 4650SOL    HW115957   5.375   7.339   4.501 -0.3443  1.3750  1.2571
 4650SOL    HW215958   5.422   7.196   4.490  1.2299  2.0227 -1.5135
 4651SOL     OW15959  10.697   2.499   9.056  0.0951  0.6100  0.7082
 4651SOL    HW115960  10.739   2.415   9.040 -1.3891  0.3829 -2.8862
 4651SOL    HW215961  10.620   2.478   9.109  0.7326  0.0338  1.4277
 4652SOL     OW15962  10.930   9.398   4.959  0.4560  0.0989  0.4270
 4652SOL    HW115963  10.942   9.471   4.898 -1.7460  1.1691  1.1593
 4652SOL    HW215964  10.902   9.325   4.905 -0.1591  0.6505 -0.0118
 4653SOL     OW15965   9.094   0.947   6.354  0.2970 -0.1193 -0.2483
 4653SOL    HW115966   9.065   0.903   6.274  2.8475  1.6200 -2.3093
 4653SOL    HW215967   9.087   1.041   6.334  1.9161  0.3705  1.1793
 4654SOL     OW15968   7.130   3.915   3.187  0.2754 -0.1763 -0.7423
 4654SOL    HW115969   7.222   3.891   3.178  0.9408  1.9234 -0.1300
 4654SOL    HW215970   7.115   3.920   3.282 -0.3244 -0.0099 -0.8392
 4655SOL     OW15971   1.217   4.507   7.406  0.2048  0.2620  0.6972
 4655SOL    HW115972   1.199   4.587   7.356 -1.2241  0.3244  1.2806
 4655SOL    HW215973   1.155   4.510   7.479  2.0220  0.0182  2.3250
 4656SOL     OW15974   9.332   6.327   3.858  0.0076 -0.2940 -0.0857
 4656SOL    HW115975   9.316   6.401   3.916 -1.0376  0.2995 -1.0919
 4656SOL    HW215976   9.401   6.276   3.902 -0.4951  0.3221  1.4649
 4657SOL     OW15977   0.112   7.218   6.866 -0.7413 -0.1311  0.2192
 4657SOL    HW115978   0.048   7.245   6.800  0.2004 -0.4939 -0.8929
 4657SOL    HW215979   0.070   7.146   6.913 -1.1237 -0.4149 -0.5410
 4658SOL     OW15980   5.804   5.391   4.317 -0.0128  0.2079 -0.3460
 4658SOL    HW115981   5.876   5.344   4.275 -0.1633 -0.0654 -0.3015
 4658SOL    HW215982   5.831   5.402   4.408  1.5305  3.1728 -1.0406
 4659SOL     OW15983  10.921   0.531   8.777 -0.5474  0.5299  0.0898
 4659SOL    HW115984  10.846   0.485   8.740 -0.8500  0.6287  0.5873
 4659SOL    HW215985  10.995   0.471   8.764 -0.5051  0.8542 -1.3369
 4660SOL     OW15986   7.147   3.363   9.132 -0.0101  0.7513  0.5505
 4660SOL    HW115987   7.200   3.440   9.111  0.2175  0.2366 -0.8496
 4660SOL    HW215988   7.208   3.302   9.172  0.0619  0.8394  0.5766
 4661SOL     OW15989   3.947   9.350   4.746  0.3030  0.2345  0.6406
 4661SOL    HW115990   3.965   9.413   4.816  1.9197 -0.2186  0.6766
 4661SOL    HW215991   4.029   9.303   4.735  0.1274  0.3399 -1.6055
 4662SOL     OW15992   6.735   8.826   3.620  0.3470 -0.0297 -0.1353
 4662SOL    HW115993   6.750   8.798   3.711 -1.7406  1.2133  0.6630
 4662SOL    HW215994   6.809   8.883   3.600 -0.1745  1.3479  1.5780
 4663SOL     OW15995   1.390   2.315   9.652 -0.2464 -0.2376 -0.4687
 4663SOL    HW115996   1.359   2.406   9.657  1.8950  0.4877  1.2537
 4663SOL    HW215997   1.336   2.267   9.714 -0.3277  0.2342 -0.1667
 4664SOL     OW15998   3.187   0.105   4.298  1.0575  0.3615  0.0841
 4664SOL    HW115999   3.107   0.122   4.348  0.3748 -0.3443 -0.7165
 4664SOL    HW216000   3.231   0.190   4.293 -0.5043  1.1738 -0.8853
 4665SOL     OW16001  11.100  10.677   1.248  0.1102 -0.0189 -0.4234
 4665SOL    HW116002  11.109  10.588   1.214 -1.0311  0.2953 -1.6225
 4665SOL    HW216003  11.055  10.725   1.179 -0.0713  1.2854  0.5522
 4666SOL     OW16004   1.363   5.960   7.576 -0.1742  0.1697 -0.1242
 4666SOL    HW116005   1.437   5.924   7.526  1.9985  1.5565  1.8431
 4666SOL    HW216006   1.354   5.900   7.650  0.3117  1.0270  0.6542
 4667SOL     OW16007   1.151   0.881   3.187  0.4155 -0.5751  0.2434
 4667SOL    HW116008   1.077   0.928   3.224  0.5506 -1.3195  1.4909
 4667SOL    HW216009   1.228   0.930   3.216  0.4410  0.0770 -0.8753
 4668SOL     OW16010   8.771   9.652   1.670  0.6104  0.1818 -0.0015
 4668SOL    HW116011   8.740   9.630   1.582  0.3847  1.3288 -0.2147
 4668SOL    HW216012   8.847   9.708   1.655  2.4228 -2.0022  0.5195
 4669SOL     OW16013   8.300   6.781   7.692  0.8626  0.4035  0.4755
 4669SOL    HW116014   8.278   6.689   7.680  2.1549  0.0827  0.4233
 4669SOL    HW216015   8.221   6.819   7.732  0.8555 -1.0636  1.9911
 4670SOL     OW16016   9.666   0.967   2.577  0.5483  0.1001  0.4409
 4670SOL    HW116017   9.617   1.002   2.502 -1.8619 -1.5889  1.0796
 4670SOL    HW216018   9.755   0.955   2.544  0.2385  1.9113 -1.2851
 4671SOL     OW16019  10.771   2.198   1.033  0.0286  0.1798  0.2178
 4671SOL    HW116020  10.744   2.270   1.090 -0.9356 -1.0505  1.3735
 4671SOL    HW216021  10.736   2.119   1.075 -0.8349 -0.7793 -2.1264
 4672SOL     OW16022   9.980  10.770   0.474 -0.5895  0.3669  0.6179
 4672SOL    HW116023  10.050  10.793   0.413 -0.5230 -0.6476  0.3000
 4672SOL    HW216024   9.993  10.829   0.549  1.4385 -0.6774  1.1783
 4673SOL     OW16025   2.719   6.251   5.049  0.0592 -0.0413 -0.1797
 4673SOL    HW116026   2.771   6.330   5.035  0.7803 -0.5356 -0.3006
 4673SOL    HW216027   2.631   6.275   5.020  0.0114  1.0701  0.8263
 4674SOL     OW16028   3.275   0.038   0.220 -0.1958  0.1268  0.3105
 4674SOL    HW116029   3.208  -0.003   0.275 -2.7277  2.3198 -0.9349
 4674SOL    HW216030   3.332   0.084   0.282  0.1265 -1.5792  1.3739
 4675SOL     OW16031   5.015   0.275   4.035  0.0477 -0.1134  0.3232
 4675SOL    HW116032   4.974   0.221   4.103  0.7059 -1.5634 -0.4018
 4675SOL    HW216033   5.022   0.362   4.075 -1.0698 -0.5269  1.5043
 4676SOL     OW16034   9.566   5.874   8.423  0.6779  0.1576 -0.4370
 4676SOL    HW116035   9.480   5.880   8.380 -1.2020 -2.9955  2.3256
 4676SOL    HW216036   9.602   5.790   8.392  1.0749 -0.2524  1.0685
 4677SOL     OW16037   8.948   0.018   0.901 -0.2060  0.6273 -0.0592
 4677SOL    HW116038   8.962  -0.001   0.808 -1.4823  1.8071 -0.5488
 4677SOL    HW216039   8.898  -0.057   0.934 -1.3467  1.0168 -0.8232
 4678SOL     OW16040  10.517   2.766   1.781 -0.6604  0.0258  0.5217
 4678SOL    HW116041  10.465   2.837   1.743 -1.5946 -0.8374  0.1484
 4678SOL    HW216042  10.481   2.686   1.743  1.6559 -0.5639 -0.5825
 4679SOL     OW16043   7.730   3.945   9.367  0.4392 -0.4752 -0.3047
 4679SOL    HW116044   7.799   3.880   9.355  1.3666  0.7687 -2.0371
 4679SOL    HW216045   7.738   4.003   9.292 -0.9625  1.1132  0.7048
 4680SOL     OW16046  10.985   0.051  10.581  0.0298  0.0703  0.9171
 4680SOL    HW116047  11.078   0.075  10.587  0.1781 -0.1165 -0.3667
 4680SOL    HW216048  10.979  -0.034  10.625  0.5144  0.0061  0.8629
 4681SOL     OW16049   6.531   9.369   8.361  0.0984  0.2127 -0.3479
 4681SOL    HW116050   6.447   9.348   8.401 -1.4891  0.0203 -3.5026
 4681SOL    HW216051   6.558   9.450   8.404  0.0888 -1.4040  3.0959
 4682SOL     OW16052   6.258   7.806   5.234  0.5842 -0.2103 -0.2237
 4682SOL    HW116053   6.167   7.812   5.204  0.0344 -0.6189  1.2595
 4682SOL    HW216054   6.304   7.762   5.162  0.0419  1.6696 -1.8087
 4683SOL     OW16055  10.354   5.706   3.578 -0.2016 -0.8800  0.0286
 4683SOL    HW116056  10.325   5.704   3.669  1.8743  2.7482  0.9724
 4683SOL    HW216057  10.431   5.649   3.576  1.7256  1.4538  1.5368
 4684SOL     OW16058   2.960  10.643   0.811 -0.1432  0.5418 -0.4923
 4684SOL    HW116059   3.035  10.682   0.857  0.3544 -1.9651  1.0293
 4684SOL    HW216060   2.998  10.600   0.735 -0.0787 -0.3149  0.0135
 4685SOL     OW16061   2.375   4.642   8.352 -0.1535  0.2657 -0.3518
 4685SOL    HW116062   2.426   4.650   8.433  0.5096 -0.4810 -0.6764
 4685SOL    HW216063   2.354   4.732   8.328  1.0427  0.6068 -0.2022
 4686SOL     OW16064   7.194   5.092   0.426 -0.7256 -0.2495  0.4045
 4686SOL    HW116065   7.253   5.166   0.415 -0.4720 -0.3135  1.2374
 4686SOL    HW216066   7.128   5.104   0.359  0.4778 -0.4204 -0.8543
 4687SOL     OW16067  10.657   6.875   1.186 -0.3121 -0.1943  0.2434
 4687SOL    HW116068  10.731   6.931   1.208 -1.0246  2.2609 -2.7556
 4687SOL    HW216069  10.696   6.802   1.137  0.2382  2.0045 -2.9468
 4688SOL     OW16070   2.683   8.789   7.170  0.3851  0.3446  0.1746
 4688SOL    HW116071   2.717   8.877   7.186 -0.7172  0.3287  3.5883
 4688SOL    HW216072   2.591   8.803   7.148 -0.8272  0.1781  4.2394
 4689SOL     OW16073   9.707   8.367   1.705  0.4248  0.0840  0.0130
 4689SOL    HW116074   9.794   8.350   1.667 -0.0908 -1.4514 -0.5464
 4689SOL    HW216075   9.647   8.316   1.651 -0.8810  1.2938  0.2620
 4690SOL     OW16076   8.404   8.748   2.721 -0.0260  0.1455 -0.6555
 4690SOL    HW116077   8.379   8.700   2.642 -0.3640 -0.6185 -0.1032
 4690SOL    HW216078   8.498   8.759   2.714  0.2360 -1.5665 -0.2960
 4691SOL     OW16079   1.383   7.846   5.420  0.0987 -0.2860 -0.0959
 4691SOL    HW116080   1.354   7.932   5.449 -0.1576 -0.2588 -0.4329
 4691SOL    HW216081   1.465   7.863   5.373 -0.4342 -0.1045 -0.9889
 4692SOL     OW16082   6.118   0.029   2.867 -0.0626 -0.0207 -0.6976
 4692SOL    HW116083   6.132   0.016   2.773 -1.3660  1.9487 -1.2251
 4692SOL    HW216084   6.032  -0.009   2.884 -0.4153  0.7854 -0.6124
 4693SOL     OW16085   2.524   1.839   2.797  0.8859  0.1440  0.0139
 4693SOL    HW116086   2.491   1.749   2.793  1.1541  0.1073 -2.3233
 4693SOL    HW216087   2.461   1.890   2.747  1.1372  1.1529  0.7007
 4694SOL     OW16088   6.933   2.165   9.586 -0.4170 -0.4769  0.2180
 4694SOL    HW116089   6.974   2.111   9.519  1.3605 -1.5640  2.0651
 4694SOL    HW216090   7.002   2.181   9.651 -1.3673  2.5199  0.6934
 4695SOL     OW16091   5.382   9.140   2.947  0.3069 -0.3276  0.2129
 4695SOL    HW116092   5.456   9.141   2.886  0.0530 -0.0410 -0.0881
 4695SOL    HW216093   5.402   9.210   3.010  0.7544 -0.8681  0.6862
 4696SOL     OW16094   7.882   0.388   9.810 -0.5645  0.3829  0.1814
 4696SOL    HW116095   7.826   0.352   9.741 -2.4369  0.2746  1.6889
 4696SOL    HW216096   7.852   0.478   9.821  0.6338  0.8291 -0.0384
 4697SOL     OW16097   9.666   9.854   2.167 -0.1403  0.3662 -0.2207
 4697SOL    HW116098   9.644   9.761   2.174  2.6006 -0.2467  1.6137
 4697SOL    HW216099   9.664   9.872   2.073 -2.3191 -1.0591 -0.5224
 4698SOL     OW16100   9.981   1.616   2.737 -0.7036 -0.0331  0.3984
 4698SOL    HW116101  10.033   1.694   2.757  0.5868 -0.5200 -0.8343
 4698SOL    HW216102   9.981   1.565   2.818 -0.4854  0.6607  0.8417
 4699SOL     OW16103  10.052   9.194   2.051 -0.0362 -0.0437 -0.0556
 4699SOL    HW116104  10.115   9.266   2.053  0.6124 -0.5790 -0.7476
 4699SOL    HW216105   9.983   9.221   2.111  0.6420  0.7490  0.3896
 4700SOL     OW16106   7.466   8.507   4.852 -0.1191 -0.4528  0.4506
 4700SOL    HW116107   7.508   8.541   4.772  2.2391 -0.2915  1.6634
 4700SOL    HW216108   7.380   8.477   4.823 -0.3979  2.0465 -1.6275
 4701SOL     OW16109   4.105   1.387   9.435  0.4338  0.3407  0.5884
 4701SOL    HW116110   4.106   1.389   9.339  1.2062  2.7896  0.5681
 4701SOL    HW216111   4.014   1.368   9.457  0.0595  0.5542 -0.6574
 4702SOL     OW16112   6.656   9.287   7.455 -0.0628 -0.2725 -0.2946
 4702SOL    HW116113   6.623   9.298   7.366 -0.0910  0.8108 -0.1700
 4702SOL    HW216114   6.740   9.242   7.444 -0.7526 -1.4963 -0.7395
 4703SOL     OW16115   3.367   3.999   0.054 -0.0555  0.0561  0.1013
 4703SOL    HW116116   3.358   4.008  -0.041 -0.7120  1.1520  0.2529
 4703SOL    HW216117   3.282   4.026   0.089  0.5064  0.6406  1.0489
 4704SOL     OW16118   0.530   4.224   1.612  0.0289  0.3297 -0.5572
 4704SOL    HW116119   0.578   4.286   1.558  0.4085 -1.2581 -2.1745
 4704SOL    HW216120   0.462   4.190   1.553 -0.0314 -0.9078  0.1858
 4705SOL     OW16121  10.498   7.545   9.265  0.0585 -0.2588  0.3218
 4705SOL    HW116122  10.532   7.455   9.267 -1.0633 -0.7589 -0.9136
 4705SOL    HW216123  10.529   7.580   9.181  1.5778  1.0011  1.3555
 4706SOL     OW16124   8.301   7.013   5.214 -0.0431 -0.1086 -0.3987
 4706SOL    HW116125   8.375   6.963   5.180  0.7674 -0.2255  1.4215
 4706SOL    HW216126   8.257   6.952   5.274  0.4448  1.0317  1.1781
 4707SOL     OW16127   4.742   8.498   9.204 -0.1747  0.4590  0.2660
 4707SOL    HW116128   4.726   8.407   9.180  0.1505  0.2662  0.7575
 4707SOL    HW216129   4.655   8.533   9.222 -0.2558  0.0749  0.6501
 4708SOL     OW16130   0.186  10.890   7.794  0.4589 -0.2743  1.0612
 4708SOL    HW116131   0.260  10.918   7.741  0.6610  0.1316  1.5520
 4708SOL    HW216132   0.161  10.967   7.844 -0.6490 -0.2475  0.5013
 4709SOL     OW16133   9.382   8.721  10.577  0.1461  0.5744  0.4535
 4709SOL    HW116134   9.425   8.792  10.626 -2.2634  1.3850  1.5594
 4709SOL    HW216135   9.324   8.766  10.515  0.4131 -0.4633 -0.5911
 4710SOL     OW16136   6.903   2.435   7.609 -0.8960 -0.4146  0.5580
 4710SOL    HW116137   6.817   2.457   7.573 -0.1253  1.7010 -0.1596
 4710SOL    HW216138   6.906   2.477   7.695  0.1434  1.4702 -0.3171
 4711SOL     OW16139   5.573   1.928   9.347  0.4592 -0.0245 -0.4481
 4711SOL    HW116140   5.556   1.892   9.434  2.0307  0.0303 -0.0805
 4711SOL    HW216141   5.626   1.861   9.304  1.6216  0.8942 -0.5124
 4712SOL     OW16142   3.451   3.856   6.941 -0.2766  0.1749  0.0721
 4712SOL    HW116143   3.375   3.799   6.934 -2.0145  2.4511 -1.7136
 4712SOL    HW216144   3.466   3.866   7.034 -2.4051 -0.1417  0.5055
 4713SOL     OW16145   0.600   5.064   6.301 -0.5880  0.2551 -0.0271
 4713SOL    HW116146   0.595   5.031   6.391 -2.1377 -2.4634 -0.9948
 4713SOL    HW216147   0.575   5.157   6.308  0.2914  0.3697  2.4310
 4714SOL     OW16148   1.333   5.976  10.213  0.3873 -0.3716 -0.5060
 4714SOL    HW116149   1.247   5.969  10.254  0.0763 -2.3234 -1.3733
 4714SOL    HW216150   1.320   5.942  10.124  1.4626  1.8909 -1.6265
 4715SOL     OW16151   9.939   3.510   4.099 -0.3695 -0.3671  0.7191
 4715SOL    HW116152   9.932   3.444   4.030  0.6440 -0.6756  0.8926
 4715SOL    HW216153   9.884   3.477   4.170 -2.1450  0.3902 -0.2426
 4716SOL     OW16154  10.245   9.189   6.332 -0.0144 -0.8314  0.2733
 4716SOL    HW116155  10.263   9.218   6.243 -0.1706 -0.1247  0.4645
 4716SOL    HW216156  10.228   9.270   6.381  0.1407 -1.2031  0.9611
 4717SOL     OW16157   6.681   2.667   6.329  0.5603 -0.2095  0.5967
 4717SOL    HW116158   6.702   2.667   6.423  1.5402 -0.7717  0.4001
 4717SOL    HW216159   6.711   2.581   6.298  0.7221  0.1665 -0.3277
 4718SOL     OW16160   0.575   8.514   1.377  0.4960 -0.4810 -0.2314
 4718SOL    HW116161   0.496   8.460   1.378 -0.0711  0.3321  0.1859
 4718SOL    HW216162   0.585   8.541   1.286  0.1769 -0.4333 -0.2534
 4719SOL     OW16163   1.613   6.375   7.483 -0.6429 -0.2806 -0.1649
 4719SOL    HW116164   1.544   6.308   7.478  0.4392 -1.4030 -0.6471
 4719SOL    HW216165   1.567   6.454   7.512 -2.2551 -0.8007 -1.1443
 4720SOL     OW16166   0.514  11.057  10.293  0.0854 -0.2240  0.1800
 4720SOL    HW116167   0.455  11.103  10.353  0.1729  0.2067 -0.0598
 4720SOL    HW216168   0.501  11.100  10.209 -1.1916 -1.8267 -0.4932
 4721SOL     OW16169   1.414  10.651   1.237  0.2291  0.1121 -0.2591
 4721SOL    HW116170   1.492  10.694   1.202  1.2299 -1.8457 -0.6137
 4721SOL    HW216171   1.449  10.576   1.285 -1.4359 -0.6580 -0.2034
 4722SOL     OW16172   8.551   1.314  10.176  0.7026 -0.1375 -1.1844
 4722SOL    HW116173   8.616   1.382  10.194  1.1386 -0.4399 -1.5987
 4722SOL    HW216174   8.600   1.244  10.133  0.3365 -0.8857 -0.4110
 4723SOL     OW16175   8.777   7.148   3.256  0.1705  0.1752  0.0422
 4723SOL    HW116176   8.702   7.170   3.200  1.2262 -2.6453 -2.8184
 4723SOL    HW216177   8.853   7.180   3.208  1.0848 -1.8406  0.0398
 4724SOL     OW16178   4.695   5.653   7.708  0.1667 -0.2778 -0.1161
 4724SOL    HW116179   4.622   5.592   7.718  1.4619 -1.9574 -0.3463
 4724SOL    HW216180   4.734   5.659   7.796  1.1466 -1.2982 -0.4515
 4725SOL     OW16181   9.599   8.244   9.955 -0.1626  0.0027 -0.0831
 4725SOL    HW116182   9.634   8.178   9.895 -1.8790  0.7751 -2.0764
 4725SOL    HW216183   9.639   8.326   9.926  1.6834 -0.0179  2.1483
 4726SOL     OW16184   3.359  11.030   5.205  0.0443  0.5146 -0.3222
 4726SOL    HW116185   3.381  11.100   5.267  1.2159  0.5027 -0.6955
 4726SOL    HW216186   3.263  11.029   5.203  0.0019  1.4065  0.4791
 4727SOL     OW16187   5.229   6.576  10.058  0.3991  0.7080  0.0804
 4727SOL    HW116188   5.192   6.597  10.144  0.9139  0.2849  0.4127
 4727SOL    HW216189   5.203   6.485  10.043  0.7698  0.6121  0.0301
 4728SOL     OW16190   6.159   7.609  10.656  0.1195 -0.2330  0.1665
 4728SOL    HW116191   6.154   7.566  10.570  1.2882  4.3118 -2.5415
 4728SOL    HW216192   6.209   7.548  10.711 -3.0765 -4.6411 -1.2572
 4729SOL     OW16193   3.351   8.368   4.224  0.5351  0.1249  0.4643
 4729SOL    HW116194   3.364   8.445   4.169 -2.8626  0.8760  0.4426
 4729SOL    HW216195   3.348   8.403   4.314  1.5477 -0.3928  0.7038
 4730SOL     OW16196   4.021   8.622   4.432  0.3460 -0.6366  0.1432
 4730SOL    HW116197   3.970   8.579   4.363 -0.3090  0.2032  0.0790
 4730SOL    HW216198   4.097   8.658   4.387 -1.7681  2.9955 -0.9679
 4731SOL     OW16199   0.258   6.842   4.041  0.7579 -1.0406 -0.5715
 4731SOL    HW116200   0.211   6.870   4.120  1.1897 -1.3421 -0.2015
 4731SOL    HW216201   0.191   6.796   3.990  0.2152  0.0686 -0.8792
 4732SOL     OW16202   7.162   0.831   1.776  0.2093  0.1231  0.8892
 4732SOL    HW116203   7.159   0.767   1.704  0.3811  0.8825  0.1883
 4732SOL    HW216204   7.087   0.809   1.831  2.1071 -2.8321  2.5592
 4733SOL     OW16205   2.014   9.346   2.780 -0.0760 -0.1599  0.2339
 4733SOL    HW116206   2.079   9.402   2.737 -0.9561 -0.2852 -1.2993
 4733SOL    HW216207   1.933   9.395   2.775 -0.7129 -1.2512 -0.4879
 4734SOL     OW16208   5.201   3.077  10.244 -0.1562  0.4701 -0.8463
 4734SOL    HW116209   5.120   3.052  10.201  0.2092 -0.8672 -0.7979
 4734SOL    HW216210   5.202   3.027  10.325  0.8370  0.2746 -0.9691
 4735SOL     OW16211   4.307   9.713   0.356 -0.3548 -0.1746  0.2866
 4735SOL    HW116212   4.277   9.797   0.390  2.1984 -0.2929  3.2322
 4735SOL    HW216213   4.267   9.647   0.413  0.9723 -0.6551  0.6953
 4736SOL     OW16214   7.983   0.213   4.230  0.6172 -0.5274  0.2292
 4736SOL    HW116215   7.899   0.198   4.273 -0.8736  3.5332 -0.7843
 4736SOL    HW216216   8.048   0.202   4.300 -1.3747  2.2497  2.7555
 4737SOL     OW16217   0.301   0.013   7.935 -0.0505 -0.1573  0.0731
 4737SOL    HW116218   0.391   0.001   7.963  0.2347  0.3577 -0.5692
 4737SOL    HW216219   0.306   0.080   7.866 -0.9174 -0.1267  0.0186
 4738SOL     OW16220   3.514   5.991   3.345 -0.2432 -0.7695  0.0248
 4738SOL    HW116221   3.460   5.970   3.269 -0.8377 -0.3595  0.3230
 4738SOL    HW216222   3.538   6.083   3.332  0.5028 -0.9820 -0.1694
 4739SOL     OW16223   8.355   1.188   5.158  1.0389  0.0554  0.2350
 4739SOL    HW116224   8.355   1.098   5.126 -0.6911 -1.0195  2.8922
 4739SOL    HW216225   8.282   1.230   5.113  0.6151 -0.4740  0.4169
 4740SOL     OW16226   5.188  11.044   1.356  0.0616 -0.0458  0.2241
 4740SOL    HW116227   5.172  10.974   1.293 -0.6377  1.9415 -1.9437
 4740SOL    HW216228   5.130  11.114   1.329  2.6459  2.4075  0.5892
 4741SOL     OW16229  10.877   1.039   3.947  0.4348  0.6296 -0.2398
 4741SOL    HW116230  10.825   0.961   3.969  0.9600  0.6195  1.0486
 4741SOL    HW216231  10.859   1.054   3.854  0.6372 -1.2668 -0.6193
 4742SOL     OW16232   6.246   1.952   6.048 -0.1730  0.2600  0.0261
 4742SOL    HW116233   6.184   1.904   5.993 -1.1411 -1.0118  2.1014
 4742SOL    HW216234   6.331   1.917   6.024 -0.5999 -0.4560 -0.4868
 4743SOL     OW16235   3.112   6.411   7.762  0.3969 -0.3027 -0.4769
 4743SOL    HW116236   3.157   6.490   7.732 -0.5049 -0.0336 -1.1809
 4743SOL    HW216237   3.028   6.443   7.796 -1.3420 -1.1234 -3.5547
 4744SOL     OW16238   1.776   9.864   4.140 -0.0892  0.0142  0.2537
 4744SOL    HW116239   1.765   9.771   4.119 -0.0125 -0.0157  0.3469
 4744SOL    HW216240   1.724   9.910   4.073 -1.0529 -0.1387  0.8742
 4745SOL     OW16241   0.377   2.208  10.455  0.1297  0.2362 -0.3798
 4745SOL    HW116242   0.457   2.260  10.461 -0.6821  1.3968  2.2177
 4745SOL    HW216243   0.324   2.252  10.388  0.4362  1.3449  0.0850
 4746SOL     OW16244   9.162   5.724   5.068 -0.2933 -0.4992 -0.3561
 4746SOL    HW116245   9.199   5.797   5.117  0.3167 -1.3380  0.4703
 4746SOL    HW216246   9.234   5.661   5.061 -0.8722 -1.1224 -0.8425
 4747SOL     OW16247   7.766   3.867  10.539  0.4085  0.6065 -0.1552
 4747SOL    HW116248   7.851   3.860  10.583 -0.1033  0.3048  0.8146
 4747SOL    HW216249   7.761   3.958  10.511  0.9784  0.6668 -0.0663
 4748SOL     OW16250   0.290   8.569   4.831  0.1050  0.2281 -0.4624
 4748SOL    HW116251   0.361   8.507   4.851 -0.9528 -1.5289 -1.8971
 4748SOL    HW216252   0.266   8.606   4.917  1.4814 -0.5298  0.2840
 4749SOL     OW16253   4.415  10.035   8.980  0.6037  0.1678 -0.3033
 4749SOL    HW116254   4.348   9.999   9.039  0.4867  1.8069  0.6310
 4749SOL    HW216255   4.466   9.959   8.952 -0.9179 -0.9732 -0.0983
 4750SOL     OW16256   5.218   9.215   0.394  0.3744 -0.2046  0.2318
 4750SOL    HW116257   5.151   9.276   0.364  0.4697 -0.2260 -0.0279
 4750SOL    HW216258   5.290   9.271   0.424  0.8436 -0.1923 -0.8844
 4751SOL     OW16259   8.158   7.555   5.460 -0.2076 -0.6454  0.0056
 4751SOL    HW116260   8.149   7.464   5.430 -0.9325 -0.3152 -0.8249
 4751SOL    HW216261   8.123   7.607   5.388 -0.3196  0.2707  0.7098
 4752SOL     OW16262   8.969   5.624  10.053 -0.2526  0.1412 -0.2461
 4752SOL    HW116263   9.010   5.707  10.080 -2.2127  1.2893 -0.6465
 4752SOL    HW216264   8.875   5.643  10.051 -0.6735 -1.8216 -1.3233
 4753SOL     OW16265   1.711   4.028   5.108 -1.3810 -0.3347  0.6380
 4753SOL    HW116266   1.782   4.092   5.106 -1.6808 -0.0016  0.4629
 4753SOL    HW216267   1.631   4.081   5.105 -1.6335 -0.7150  0.5720
 4754SOL     OW16268   7.440   1.879   0.737  0.5679  0.1879 -1.1739
 4754SOL    HW116269   7.445   1.824   0.659  0.2741 -1.2108 -0.2388
 4754SOL    HW216270   7.522   1.864   0.783 -0.8943 -2.2488  0.8388
 4755SOL     OW16271  10.654   3.036   7.008 -0.9496  0.0663  0.0123
 4755SOL    HW116272  10.714   3.029   7.082 -2.1950  1.0153  1.1582
 4755SOL    HW216273  10.570   3.060   7.047 -2.1590 -1.4247 -1.5169
 4756SOL     OW16274   6.381   7.068   9.107  0.1570 -0.2308 -0.1746
 4756SOL    HW116275   6.369   7.085   9.200  1.7190  1.9898 -0.2895
 4756SOL    HW216276   6.472   7.040   9.099  0.2450  0.2539 -1.0860
 4757SOL     OW16277   4.345   0.640   3.869 -0.7010 -0.3779  0.8900
 4757SOL    HW116278   4.266   0.614   3.916  0.0417 -1.9349  1.3556
 4757SOL    HW216279   4.416   0.597   3.916  0.2650 -0.2883 -0.4311
 4758SOL     OW16280  10.980   6.538   1.616 -0.7253 -0.5813  0.6269
 4758SOL    HW116281  10.958   6.623   1.653  1.0722 -0.3061  1.1402
 4758SOL    HW216282  10.920   6.477   1.659  0.1683 -0.0254  2.7731
 4759SOL     OW16283   5.596   6.349   4.033  0.2029 -0.3412  0.1776
 4759SOL    HW116284   5.675   6.294   4.041 -0.6970 -1.7780 -0.3603
 4759SOL    HW216285   5.524   6.291   4.057 -0.9542  0.1297 -1.8713
 4760SOL     OW16286   8.047   2.074   2.085 -0.8154  0.3123 -0.8117
 4760SOL    HW116287   8.057   2.086   2.179  2.9595  0.7055 -1.1097
 4760SOL    HW216288   8.047   2.162   2.049 -1.0508  0.1325 -1.2588
 4761SOL     OW16289   0.516   6.655   0.066 -0.0744 -0.1930 -0.0413
 4761SOL    HW116290   0.516   6.750   0.052 -0.9846 -0.2730 -0.6847
 4761SOL    HW216291   0.483   6.645   0.156 -4.8562  0.0140 -1.4714
 4762SOL     OW16292   0.675   2.034   8.233 -0.3271 -0.2299 -0.3128
 4762SOL    HW116293   0.650   2.035   8.326 -0.7859 -2.3235 -0.3649
 4762SOL    HW216294   0.641   1.951   8.200 -0.3378  0.5612 -2.4267
 4763SOL     OW16295   3.376   1.695   8.495  0.0850 -0.1690  0.6414
 4763SOL    HW116296   3.310   1.752   8.537  1.6689  2.9198 -0.7480
 4763SOL    HW216297   3.430   1.664   8.568 -0.7506  0.2200  1.4478
 4764SOL     OW16298   1.836  10.912   3.129 -0.0117  0.1039 -0.2093
 4764SOL    HW116299   1.748  10.949   3.142 -0.1425  0.4307 -1.7245
 4764SOL    HW216300   1.866  10.890   3.216 -1.4062  0.4554  0.3981
 4765SOL     OW16301   8.512   0.535   4.089  0.3097 -0.3252 -0.1474
 4765SOL    HW116302   8.457   0.594   4.037 -0.1517  0.3805  1.0916
 4765SOL    HW216303   8.451   0.467   4.119 -0.3757  1.3641  2.6288
 4766SOL     OW16304   5.353   9.495  10.550 -0.6096 -0.2110 -0.2739
 4766SOL    HW116305   5.347   9.401  10.569 -0.7948 -0.5170 -1.7776
 4766SOL    HW216306   5.316   9.537  10.628 -0.9951 -1.3859  0.2052
 4767SOL     OW16307   1.696   0.520   8.250 -0.0529 -0.5058  0.4095
 4767SOL    HW116308   1.783   0.487   8.232 -0.1704 -0.7870  0.3484
 4767SOL    HW216309   1.665   0.467   8.324 -0.0143 -0.1350  0.6917
 4768SOL     OW16310   4.557   4.228   3.396  0.7763  0.5196  0.1136
 4768SOL    HW116311   4.502   4.284   3.451  0.2411  0.5052 -0.3927
 4768SOL    HW216312   4.630   4.202   3.452 -0.0691  0.0160  0.9895
 4769SOL     OW16313   0.525   0.427   8.087  0.0890 -0.7160  0.1291
 4769SOL    HW116314   0.439   0.467   8.098  0.0617 -0.6009 -0.4394
 4769SOL    HW216315   0.513   0.336   8.113 -0.0561 -0.5594  0.6248
 4770SOL     OW16316   2.041   1.375   7.245 -0.0867 -0.9365  1.1336
 4770SOL    HW116317   1.965   1.427   7.267 -1.0989 -2.2040  0.7431
 4770SOL    HW216318   2.114   1.438   7.243 -1.1755  0.3542  1.0993
 4771SOL     OW16319   6.794   9.143   7.778 -0.1563  0.3758  0.1706
 4771SOL    HW116320   6.709   9.160   7.818  0.2803 -1.0071  1.8316
 4771SOL    HW216321   6.825   9.229   7.750 -1.0803  1.2593  1.6927
 4772SOL     OW16322   1.401   3.461   7.476 -0.7937  0.4946 -0.3242
 4772SOL    HW116323   1.454   3.467   7.397  1.9591  0.2112  1.4021
 4772SOL    HW216324   1.330   3.524   7.462 -0.8109 -0.0335 -3.2523
 4773SOL     OW16325   7.096   1.704   8.154 -0.3234 -0.4205 -0.1712
 4773SOL    HW116326   7.087   1.764   8.080 -3.4350 -0.1252  0.3010
 4773SOL    HW216327   7.190   1.698   8.169  0.2660  1.5958 -2.4500
 4774SOL     OW16328  10.206  10.303   8.619 -0.3182  0.2500  0.3155
 4774SOL    HW116329  10.253  10.226   8.650  0.6110  1.6433  2.6374
 4774SOL    HW216330  10.244  10.321   8.533  0.4294 -1.0775  0.3460
 4775SOL     OW16331   7.305   4.322   2.364 -0.0023 -0.2546  0.1985
 4775SOL    HW116332   7.247   4.321   2.289  1.5776 -2.5301 -1.1376
 4775SOL    HW216333   7.311   4.230   2.391  0.8323  0.2780  2.0040
 4776SOL     OW16334   6.539  10.081   2.252 -0.8468 -0.0982 -0.3971
 4776SOL    HW116335   6.562  10.090   2.160 -1.0727  2.5888 -0.2690
 4776SOL    HW216336   6.446  10.059   2.251 -0.5055 -1.6756 -0.7737
 4777SOL     OW16337   6.312   0.492   1.057  0.4049  0.4373  0.6723
 4777SOL    HW116338   6.280   0.577   1.027  0.4784  0.0387 -0.6061
 4777SOL    HW216339   6.271   0.429   0.997  2.1798 -0.2319  0.0861
 4778SOL     OW16340  11.064   0.336   9.712 -0.3093 -0.2828  0.4671
 4778SOL    HW116341  11.137   0.327   9.652 -0.2949 -2.0070  0.6884
 4778SOL    HW216342  10.998   0.384   9.663 -1.3750 -3.8943 -2.0511
 4779SOL     OW16343   2.947   7.471   8.782 -0.3596 -0.3009 -0.2148
 4779SOL    HW116344   2.988   7.409   8.722 -0.4399  2.3334 -3.2450
 4779SOL    HW216345   2.858   7.437   8.793  0.1255 -1.6684 -0.2639
 4780SOL     OW16346   1.332   4.732   5.346  0.2438 -0.7636  0.0596
 4780SOL    HW116347   1.279   4.811   5.355  2.1004  0.9427 -2.5870
 4780SOL    HW216348   1.277   4.670   5.297 -0.6058 -0.4876  0.6518
 4781SOL     OW16349   7.353   9.155   2.784 -0.1497  0.3210 -0.0540
 4781SOL    HW116350   7.317   9.189   2.866  0.4329  2.8875 -0.7707
 4781SOL    HW216351   7.314   9.210   2.716  0.3978 -0.8953 -1.4164
 4782SOL     OW16352   8.273   7.465   8.157 -0.0473  0.5106  0.1137
 4782SOL    HW116353   8.368   7.463   8.169  0.4651  2.1564 -2.7040
 4782SOL    HW216354   8.249   7.556   8.175 -1.3314 -0.1175  1.8500
 4783SOL     OW16355   1.550   4.113   8.165 -0.8118  0.4950  0.3930
 4783SOL    HW116356   1.465   4.155   8.150 -1.2618 -0.5605 -0.1238
 4783SOL    HW216357   1.613   4.170   8.121 -1.4698  0.4130 -0.6877
 4784SOL     OW16358   3.675   0.185  10.658 -0.2599  0.3017 -0.0486
 4784SOL    HW116359   3.692   0.125  10.730 -1.5751  0.2003  0.2008
 4784SOL    HW216360   3.751   0.244  10.657  0.0628 -0.0723  1.0142
 4785SOL     OW16361   8.576   8.539   0.199  0.9417  0.4544 -0.1587
 4785SOL    HW116362   8.550   8.607   0.138 -0.7198 -0.1765 -0.1880
 4785SOL    HW216363   8.498   8.522   0.252  0.9594 -2.1200 -0.8169
 4786SOL     OW16364   7.521   6.626   8.975  0.3825 -0.3147  0.7911
 4786SOL    HW116365   7.426   6.622   8.987  0.1920  0.0750 -0.4527
 4786SOL    HW216366   7.547   6.535   8.957 -0.1275 -0.0833 -1.2943
 4787SOL     OW16367   5.220   3.626  11.005 -0.3272 -0.3066  0.6627
 4787SOL    HW116368   5.208   3.564  10.934  0.3260 -0.7488  0.9296
 4787SOL    HW216369   5.301   3.673  10.983 -2.5602  2.9762 -1.3603
 4788SOL     OW16370   0.740   8.974   3.531  0.1927  0.1808 -0.2376
 4788SOL    HW116371   0.658   8.941   3.568 -0.0638 -0.6489 -1.4680
 4788SOL    HW216372   0.731   9.069   3.532 -0.6138  0.1063  0.0032
 4789SOL     OW16373  10.551  10.244   8.633 -0.5598 -0.2161 -0.4277
 4789SOL    HW116374  10.639  10.208   8.622 -0.2677 -0.2750  1.6565
 4789SOL    HW216375  10.520  10.261   8.544  2.2835  1.5570 -1.2107
 4790SOL     OW16376   2.030   3.337   5.575 -0.3424  0.4190  0.4719
 4790SOL    HW116377   1.936   3.328   5.591  0.0347 -0.2189  2.5706
 4790SOL    HW216378   2.037   3.406   5.509 -2.4066 -1.3354 -1.7727
 4791SOL     OW16379   3.878   9.931   5.429  0.8866  0.6948  0.1740
 4791SOL    HW116380   3.884  10.022   5.398  0.6753  1.2724  1.7535
 4791SOL    HW216381   3.801   9.930   5.485 -1.5397 -1.4468 -2.8425
 4792SOL     OW16382   3.081   9.212   3.080  0.2279  0.6287 -0.5607
 4792SOL    HW116383   3.143   9.164   3.134  1.9718  2.0739 -1.1692
 4792SOL    HW216384   3.034   9.144   3.032  3.0484 -0.5631 -1.8958
 4793SOL     OW16385  10.430   1.200   1.365 -0.1546  0.2012  0.8354
 4793SOL    HW116386  10.494   1.270   1.381  1.0110 -0.8527  0.9247
 4793SOL    HW216387  10.372   1.204   1.441 -1.1036  2.0848  0.0831
 4794SOL     OW16388   5.165   9.161   9.442  0.2036  0.7772  0.5098
 4794SOL    HW116389   5.155   9.219   9.366 -0.1729  0.3365  0.2134
 4794SOL    HW216390   5.076   9.133   9.462  0.3029  0.8919  1.1242
 4795SOL     OW16391   5.690   1.891   1.996 -0.1883 -0.2322  0.5064
 4795SOL    HW116392   5.650   1.898   2.082 -0.3206  0.9744  0.3647
 4795SOL    HW216393   5.739   1.973   1.985  0.6106 -0.7767 -0.1749
 4796SOL     OW16394  10.268   5.282   7.235  0.2885 -0.3518  0.3409
 4796SOL    HW116395  10.194   5.300   7.177 -0.1375  0.7132  1.1889
 4796SOL    HW216396  10.228   5.243   7.313  0.6057  0.3267  0.8468
 4797SOL     OW16397  10.778   8.363   6.820  0.2493  0.1374  0.1088
 4797SOL    HW116398  10.696   8.352   6.867 -0.2183 -2.1548 -1.1347
 4797SOL    HW216399  10.836   8.405   6.884 -1.7594  1.6199  1.0846
 4798SOL     OW16400   0.601   0.048   8.229 -0.7120 -0.3014 -0.2078
 4798SOL    HW116401   0.556  -0.034   8.253 -2.1532  0.7833  0.9511
 4798SOL    HW216402   0.628   0.034   8.138 -2.0988 -1.5807 -0.4683
 4799SOL     OW16403   0.572   1.396   9.606 -1.0288  0.3755 -0.2345
 4799SOL    HW116404   0.504   1.330   9.619 -0.2960 -0.3398 -0.0209
 4799SOL    HW216405   0.642   1.372   9.666 -0.0178  0.3344 -1.3866
 4800SOL     OW16406   4.176   5.325   8.763  0.0018  0.0394 -0.2448
 4800SOL    HW116407   4.255   5.350   8.811  0.2826 -2.4095  0.6856
 4800SOL    HW216408   4.198   5.343   8.671  0.9381  1.0773  0.1557
 4801SOL     OW16409   7.744   0.660   0.256  0.3956 -0.3606 -0.3390
 4801SOL    HW116410   7.731   0.755   0.259  0.1065 -0.4272  1.0383
 4801SOL    HW216411   7.664   0.624   0.294  1.4532 -1.0677  1.3182
 4802SOL     OW16412  10.015   6.916   6.330  0.3526 -0.1744  0.3788
 4802SOL    HW116413  10.062   6.838   6.361 -0.3575 -0.3461  1.0408
 4802SOL    HW216414  10.079   6.987   6.336  0.9966 -0.6954 -0.1981
 4803SOL     OW16415   8.830   1.780   8.939 -0.3270  0.1335  0.1817
 4803SOL    HW116416   8.864   1.773   9.028  2.4992  1.4786 -0.6857
 4803SOL    HW216417   8.767   1.708   8.932 -0.3157 -0.2782  3.0925
 4804SOL     OW16418   2.971  10.630   5.687  0.6718 -0.3546 -0.8602
 4804SOL    HW116419   3.037  10.682   5.641  1.4768  0.9393  1.5713
 4804SOL    HW216420   2.992  10.641   5.780 -1.1553 -2.4029 -0.1157
 4805SOL     OW16421   0.700   1.420   4.789 -0.6957 -0.3173 -0.3496
 4805SOL    HW116422   0.674   1.400   4.699 -1.0355 -3.7002  0.3715
 4805SOL    HW216423   0.748   1.342   4.817 -0.0631  0.9091  2.2251
 4806SOL     OW16424   1.475   9.146   0.827 -0.6287 -0.2016  0.1757
 4806SOL    HW116425   1.546   9.175   0.883  0.5357 -1.9352 -0.3307
 4806SOL    HW216426   1.445   9.225   0.783 -0.0358  0.7988  1.5045
 4807SOL     OW16427   7.020   9.655   9.962  0.1114  0.5992 -0.3602
 4807SOL    HW116428   6.992   9.745   9.976 -2.7916 -0.4785  1.5577
 4807SOL    HW216429   7.005   9.640   9.869  0.2698  1.9222 -0.6255
 4808SOL     OW16430   5.693   3.536   7.270 -0.5797  0.3427  0.5085
 4808SOL    HW116431   5.752   3.519   7.196  0.4133  1.5100  0.9960
 4808SOL    HW216432   5.617   3.481   7.253  0.6061 -1.1663 -0.1908
 4809SOL     OW16433   2.580   3.979   7.300  0.5305 -0.3247  0.4005
 4809SOL    HW116434   2.533   4.017   7.374  0.2656 -0.6178  0.3806
 4809SOL    HW216435   2.610   3.894   7.331 -1.7406 -1.5730 -0.6243
 4810SOL     OW16436   5.240  10.830   1.177 -0.0744  0.0761 -0.0912
 4810SOL    HW116437   5.287  10.747   1.187 -0.2020 -0.2993 -2.0899
 4810SOL    HW216438   5.148  10.804   1.168 -0.0737  0.3820 -1.0663
 4811SOL     OW16439   1.315   2.563   8.096 -0.4542 -0.4675  0.4174
 4811SOL    HW116440   1.386   2.557   8.031  0.2287 -0.7613  1.1772
 4811SOL    HW216441   1.335   2.641   8.147  0.7812 -1.9098  2.2804
 4812SOL     OW16442   0.890   1.263  10.366 -0.4313  0.7740 -0.5530
 4812SOL    HW116443   0.967   1.266  10.422 -2.3379 -2.3311  2.5976
 4812SOL    HW216444   0.921   1.225  10.284  1.4429 -0.1919  0.5440
 4813SOL     OW16445   4.071   5.265  10.285 -0.6617  0.3038  0.1083
 4813SOL    HW116446   4.002   5.215  10.328  0.3651  0.0053  1.4906
 4813SOL    HW216447   4.076   5.228  10.197  0.2999 -2.3814  1.1765
 4814SOL     OW16448   4.213   3.066   0.825  0.1516  0.6857 -0.5285
 4814SOL    HW116449   4.277   3.124   0.867 -0.8095  0.5140  1.3143
 4814SOL    HW216450   4.205   3.099   0.736  0.6162  2.5736  0.0793
 4815SOL     OW16451   9.984   6.266   9.920 -0.3637  0.1656  0.3421
 4815SOL    HW116452  10.036   6.223   9.851  0.8819 -2.0394  2.5083
 4815SOL    HW216453   9.906   6.298   9.874  1.0789  0.1479 -2.3479
 4816SOL     OW16454  10.452   9.686   4.122  0.4199  0.5671 -0.1462
 4816SOL    HW116455  10.372   9.737   4.111 -0.8853 -1.7084 -2.3696
 4816SOL    HW216456  10.499   9.698   4.040 -0.0994 -1.8857 -0.8992
 4817SOL     OW16457   1.840   0.203  10.998 -0.5043 -0.2349  0.4342
 4817SOL    HW116458   1.764   0.217  11.054 -0.3782  0.6505  0.4000
 4817SOL    HW216459   1.898   0.276  11.018 -1.9015  2.1473 -3.2412
 4818SOL     OW16460   0.588   3.062   0.063 -0.9461 -0.3328  0.3215
 4818SOL    HW116461   0.584   2.979   0.013  0.6715 -0.5633  0.5424
 4818SOL    HW216462   0.615   3.127  -0.002 -0.2679 -0.3630  0.5646
 4819SOL     OW16463   6.169   6.147   7.004 -0.4739 -0.0526 -0.5717
 4819SOL    HW116464   6.105   6.163   6.935 -1.8983  0.0412  0.7313
 4819SOL    HW216465   6.229   6.221   6.999 -1.0038  0.3408 -1.1914
 4820SOL     OW16466   8.815   5.098   8.451 -0.3524 -0.4534 -0.4108
 4820SOL    HW116467   8.768   5.133   8.527 -1.1631 -0.0887 -1.0661
 4820SOL    HW216468   8.908   5.106   8.475 -0.5902 -0.6447  0.6631
 4821SOL     OW16469   4.109   5.616   2.230 -0.1788 -0.9405  0.2563
 4821SOL    HW116470   4.025   5.607   2.186  0.0259  0.7068 -0.5243
 4821SOL    HW216471   4.100   5.696   2.283  0.9944 -0.5422 -0.1171
 4822SOL     OW16472   0.719   6.387   4.109 -0.5396  0.4906  0.2339
 4822SOL    HW116473   0.691   6.478   4.117  1.4397  1.2442 -0.6785
 4822SOL    HW216474   0.815   6.391   4.118 -0.4208 -1.5207  0.2989
 4823SOL     OW16475   9.123   8.613   6.917  0.4052 -0.1229  0.3516
 4823SOL    HW116476   9.195   8.551   6.932  0.6990  0.4323  1.2965
 4823SOL    HW216477   9.086   8.628   7.004  0.4512  1.1566  0.1664
 4824SOL     OW16478   5.923   2.264   1.090 -0.0446  0.4038 -0.2153
 4824SOL    HW116479   5.845   2.228   1.046 -1.0883  1.9331  0.3103
 4824SOL    HW216480   5.941   2.345   1.043  2.5037 -0.8528 -1.6186
 4825SOL     OW16481   2.364   6.860  10.497 -0.0837  0.4641  0.4563
 4825SOL    HW116482   2.395   6.888  10.583  1.0930  3.7417 -0.8621
 4825SOL    HW216483   2.385   6.933  10.439 -1.3540 -1.3484 -2.5436
 4826SOL     OW16484   5.641   8.642   7.891  0.6296 -0.0449  0.4098
 4826SOL    HW116485   5.593   8.609   7.968 -1.9030  2.7528  0.2367
 4826SOL    HW216486   5.602   8.596   7.817  1.1405 -0.7394  0.5602
 4827SOL     OW16487   7.842   6.348   0.787 -0.0807  0.1391  0.3291
 4827SOL    HW116488   7.809   6.397   0.862  0.1579 -0.1899  0.6526
 4827SOL    HW216489   7.935   6.371   0.782 -0.5434  1.9465 -1.2565
 4828SOL     OW16490   4.775   4.186   9.456  0.3851 -0.4257 -0.0780
 4828SOL    HW116491   4.831   4.255   9.491 -0.1280  0.7934 -1.5549
 4828SOL    HW216492   4.827   4.145   9.388 -0.3658  0.5281 -1.2666
 4829SOL     OW16493  10.229   1.638   3.334  0.5745  0.5901  0.3527
 4829SOL    HW116494  10.273   1.720   3.311  0.4070  1.4321  2.7882
 4829SOL    HW216495  10.297   1.584   3.375  0.3994 -0.0334 -0.1560
 4830SOL     OW16496   0.768  10.093   2.970 -0.1873 -0.1127  0.4832
 4830SOL    HW116497   0.784  10.132   2.885 -1.5227  2.2937  1.2219
 4830SOL    HW216498   0.853  10.092   3.013  0.0741  1.0807  0.0266
 4831SOL     OW16499   6.502   5.097   9.461 -0.2491 -0.7317 -0.1508
 4831SOL    HW116500   6.473   5.119   9.550 -1.1956 -2.1575 -0.0694
 4831SOL    HW216501   6.424   5.061   9.419  0.5357 -1.3328 -1.1122
 4832SOL     OW16502  10.208   3.048   1.100 -0.0637  0.6754 -0.2286
 4832SOL    HW116503  10.272   2.977   1.096  1.6363  2.0423  1.3387
 4832SOL    HW216504  10.124   3.004   1.111  1.0698 -1.1388  2.0705
 4833SOL     OW16505   8.268   7.524   7.743  0.2827  0.2238 -0.7342
 4833SOL    HW116506   8.242   7.596   7.684  0.0722  1.2368  0.5496
 4833SOL    HW216507   8.261   7.445   7.689  1.3029  1.2279 -2.4458
 4834SOL     OW16508   1.828   9.555   4.975  1.2595  0.1616  0.3870
 4834SOL    HW116509   1.854   9.472   5.016 -1.5204 -1.5225 -1.0007
 4834SOL    HW216510   1.847   9.543   4.882 -1.9594 -0.2902 -0.3408
 4835SOL     OW16511   6.896   7.256   0.910 -0.4154 -0.3528  0.2437
 4835SOL    HW116512   6.879   7.286   0.821 -0.2895  0.3942  0.4551
 4835SOL    HW216513   6.992   7.248   0.915 -0.3488  0.4585  0.5527
 4836SOL     OW16514   3.318   9.803   8.438 -0.1594  0.4320  0.3207
 4836SOL    HW116515   3.375   9.728   8.422  2.0479  2.2014 -0.6752
 4836SOL    HW216516   3.350   9.841   8.519  0.0142  1.3793 -0.1783
 4837SOL     OW16517   5.925   9.895   1.851 -0.7508 -0.5512  0.4382
 4837SOL    HW116518   5.848   9.949   1.870 -0.7504 -0.7260  0.9652
 4837SOL    HW216519   5.937   9.842   1.930 -1.0578 -1.6968 -0.2622
 4838SOL     OW16520   8.064   8.601   8.323 -0.4320  0.5337 -0.4389
 4838SOL    HW116521   8.015   8.528   8.286  1.2326  0.3489 -2.4975
 4838SOL    HW216522   8.156   8.577   8.308  0.1631  2.9731 -1.1143
 4839SOL     OW16523   0.072   0.855   8.548 -0.3698 -0.3822 -0.1226
 4839SOL    HW116524   0.098   0.801   8.473 -2.0316 -1.6110  0.1360
 4839SOL    HW216525   0.111   0.812   8.623  0.3730  0.2205 -0.1528
 4840SOL     OW16526   2.726   9.647   6.017  0.1465  0.0218 -0.1269
 4840SOL    HW116527   2.781   9.698   5.959  2.1122 -0.8717  0.8726
 4840SOL    HW216528   2.770   9.650   6.102  1.0875 -4.2656 -0.2413
 4841SOL     OW16529   0.342   7.510   6.102 -0.7356  0.8135 -0.4663
 4841SOL    HW116530   0.372   7.420   6.115  1.8763  1.8460  1.6749
 4841SOL    HW216531   0.255   7.501   6.063 -0.9446 -2.6291  0.4339
 4842SOL     OW16532   2.610   7.078   0.611 -0.7231  0.2976 -0.3590
 4842SOL    HW116533   2.571   6.992   0.623  0.6235 -0.3115 -0.0684
 4842SOL    HW216534   2.686   7.062   0.554 -0.3548  1.2534 -0.1657
 4843SOL     OW16535   2.913   1.328   1.814 -0.7172  0.0726 -0.2725
 4843SOL    HW116536   2.853   1.344   1.888 -1.3196  1.3300 -1.0070
 4843SOL    HW216537   2.873   1.255   1.767  0.7638 -2.1982  1.7406
 4844SOL     OW16538   0.285  10.544   5.277  0.3622  0.4361 -0.1635
 4844SOL    HW116539   0.343  10.591   5.337 -0.9525 -0.1303  1.6488
 4844SOL    HW216540   0.246  10.475   5.330 -0.7719 -0.1886 -1.7197
 4845SOL     OW16541   9.217   6.322   2.806  0.1950  0.1644  0.5621
 4845SOL    HW116542   9.234   6.244   2.754 -1.6029  1.0521 -1.4789
 4845SOL    HW216543   9.155   6.293   2.873 -0.4437 -0.1935 -0.1672
 4846SOL     OW16544   1.700   2.363   9.719  0.4547  0.4914  0.1637
 4846SOL    HW116545   1.685   2.283   9.769  0.8049  0.7091  0.6271
 4846SOL    HW216546   1.616   2.382   9.678 -0.1555  0.9059  1.5523
 4847SOL     OW16547   9.211   8.950   4.478 -0.6006  0.7158  0.1836
 4847SOL    HW116548   9.299   8.966   4.442 -1.2099 -0.7989 -2.1632
 4847SOL    HW216549   9.208   9.005   4.557  2.0791  1.5771 -0.1953
 4848SOL     OW16550   9.381   7.338   9.358  0.2152  0.1020  0.5392
 4848SOL    HW116551   9.421   7.421   9.385  0.9986 -0.5367  1.4199
 4848SOL    HW216552   9.326   7.312   9.432  0.6362 -0.5677  0.6328
 4849SOL     OW16553   4.848   3.993   7.452 -0.0726  0.4532  0.0161
 4849SOL    HW116554   4.890   3.908   7.445 -0.4436  0.3756 -1.4407
 4849SOL    HW216555   4.776   3.979   7.513 -0.6661 -0.5021 -0.8793
 4850SOL     OW16556   7.121   3.071   8.310  0.6293 -0.1056  0.9418
 4850SOL    HW116557   7.092   2.985   8.342 -0.2458 -0.4807 -0.7310
 4850SOL    HW216558   7.052   3.131   8.336 -0.8942 -0.6798 -1.4151
 4851SOL     OW16559   4.125   6.320   6.628 -0.3181 -0.0093  0.6790
 4851SOL    HW116560   4.165   6.271   6.700  1.2379 -0.2237 -0.2693
 4851SOL    HW216561   4.049   6.268   6.603  0.6170 -1.3463  0.4788
 4852SOL     OW16562   0.162   0.021   5.167 -0.2011  0.0004  0.3037
 4852SOL    HW116563   0.190   0.106   5.132  0.6794  0.0116  1.0264
 4852SOL    HW216564   0.216   0.007   5.244 -0.9680 -0.8084  0.7150
 4853SOL     OW16565   0.187   8.611  10.270 -0.9406 -0.1504 -0.0477
 4853SOL    HW116566   0.208   8.624  10.178  1.6325  1.5065  0.6729
 4853SOL    HW216567   0.217   8.691  10.313 -0.7743 -1.4479  2.4114
 4854SOL     OW16568   4.680  10.947   4.847 -0.1215  1.2169  0.6523
 4854SOL    HW116569   4.772  10.969   4.865 -0.5002  1.8393  1.9127
 4854SOL    HW216570   4.632  11.028   4.862 -1.0901  0.4828  1.7117
 4855SOL     OW16571   0.142   3.353   9.690 -0.1329 -0.8459 -0.1897
 4855SOL    HW116572   0.199   3.321   9.760 -0.0083 -1.9180 -0.7694
 4855SOL    HW216573   0.200   3.403   9.632  0.4168 -2.5558 -1.1825
 4856SOL     OW16574   7.325   7.953   6.794  0.0677 -0.0318 -0.0277
 4856SOL    HW116575   7.357   8.034   6.832 -2.6446  1.1905 -0.1505
 4856SOL    HW216576   7.247   7.931   6.845 -0.5192 -1.3263 -1.3943
 4857SOL     OW16577   3.621   6.308   7.703 -0.7891  0.4834  0.2564
 4857SOL    HW116578   3.610   6.306   7.608 -0.8574 -0.2167  0.2688
 4857SOL    HW216579   3.575   6.229   7.734  0.5337 -0.1359  0.7176
 4858SOL     OW16580  11.080   9.628   3.320 -0.3180 -0.3445 -0.2203
 4858SOL    HW116581  11.163   9.644   3.364  1.2157  0.1834 -3.1055
 4858SOL    HW216582  11.059   9.710   3.276 -1.2555 -1.1023 -1.2521
 4859SOL     OW16583   2.986   4.222   0.805 -0.0783 -0.0822 -0.0087
 4859SOL    HW116584   2.900   4.250   0.838  0.5760 -0.4943  2.2097
 4859SOL    HW216585   3.000   4.276   0.727 -1.0221  2.1808  1.2958
 4860SOL     OW16586   0.461   1.729   3.194 -0.8167 -0.2067  0.1564
 4860SOL    HW116587   0.499   1.670   3.128 -1.3094  0.0151 -0.3413
 4860SOL    HW216588   0.534   1.784   3.222 -0.4021 -0.8928  0.4520
 4861SOL     OW16589   9.067   6.863   4.886  0.4357  0.1988 -0.6028
 4861SOL    HW116590   9.127   6.936   4.902 -1.6575  1.5475  1.9166
 4861SOL    HW216591   8.983   6.905   4.868 -0.8744 -1.5223  1.0538
 4862SOL     OW16592   3.784   8.955   8.012 -0.4944  0.5374 -0.1230
 4862SOL    HW116593   3.851   8.999   8.065  0.4768 -0.3392 -0.5825
 4862SOL    HW216594   3.714   8.935   8.074  0.8321 -0.9210  0.9929
 4863SOL     OW16595   0.044  10.916   8.878  0.7879 -0.0313 -1.2951
 4863SOL    HW116596  -0.035  10.900   8.930  1.3382  0.9197 -0.1278
 4863SOL    HW216597   0.037  10.853   8.806 -0.2367 -1.0797 -0.3462
 4864SOL     OW16598   7.011   4.585   7.253  0.7925 -0.4334 -0.2146
 4864SOL    HW116599   7.039   4.652   7.191 -2.2085  2.4449  1.1791
 4864SOL    HW216600   6.969   4.518   7.199  0.0788  0.9642 -1.4755
 4865SOL     OW16601   1.063   9.841   9.226  0.7597 -0.2763 -0.1012
 4865SOL    HW116602   1.110   9.827   9.144 -1.2896  0.0482 -1.4133
 4865SOL    HW216603   1.112   9.911   9.270  1.1581  0.5000 -1.6963
 4866SOL     OW16604   6.171   6.391   2.310  0.5607 -0.4103  0.2030
 4866SOL    HW116605   6.110   6.371   2.239  0.3643  1.2706 -0.1394
 4866SOL    HW216606   6.126   6.363   2.389  0.3879 -1.4205 -0.2293
 4867SOL     OW16607   1.168   3.820   2.539 -0.2358  0.5345  0.0398
 4867SOL    HW116608   1.162   3.747   2.476  0.7335 -2.5162  3.1651
 4867SOL    HW216609   1.261   3.840   2.544 -0.2253  0.2911  0.9316
 4868SOL     OW16610   8.730   7.586   4.575  0.3943 -0.0301  0.2714
 4868SOL    HW116611   8.767   7.534   4.646  1.2909 -0.3131 -0.3857
 4868SOL    HW216612   8.757   7.676   4.594 -1.5357  0.3237  1.6550
 4869SOL     OW16613   0.267   8.883   3.052  0.2413  0.5437 -0.4714
 4869SOL    HW116614   0.181   8.905   3.018 -1.7945 -2.6979  1.9404
 4869SOL    HW216615   0.280   8.943   3.126 -0.7642  0.0472  0.1327
 4870SOL     OW16616   2.608   0.986   3.502  0.7057  0.0260 -0.3437
 4870SOL    HW116617   2.540   0.955   3.562  0.4340 -0.6844 -0.9995
 4870SOL    HW216618   2.669   1.035   3.558  0.3278 -0.4064  0.4664
 4871SOL     OW16619   9.756   3.320   7.797  0.3996 -0.1660 -0.3819
 4871SOL    HW116620   9.706   3.379   7.741 -0.6225 -0.9075 -0.2849
 4871SOL    HW216621   9.824   3.284   7.740  1.6554  1.7882 -0.2038
 4872SOL     OW16622  10.732   9.010   7.118  0.5652  0.4437 -0.3242
 4872SOL    HW116623  10.767   8.968   7.039  1.9576 -0.4620  0.7211
 4872SOL    HW216624  10.732   9.104   7.098  0.6759  0.2102 -1.4747
 4873SOL     OW16625   0.207   6.431   8.064 -0.5779  0.3233 -0.2010
 4873SOL    HW116626   0.207   6.347   8.018 -1.2671  0.4938 -0.5430
 4873SOL    HW216627   0.184   6.410   8.154  0.3362  0.0330 -0.0267
 4874SOL     OW16628   4.378   3.929  10.055  0.4979  0.0048 -0.9365
 4874SOL    HW116629   4.390   3.954   9.963  1.9792 -2.7110 -1.5779
 4874SOL    HW216630   4.425   3.996  10.105 -0.7622  1.8178 -2.0489
 4875SOL     OW16631   2.068   7.357   5.753 -0.7213  0.6301 -0.6113
 4875SOL    HW116632   2.079   7.272   5.708  0.8368  1.7180 -2.4655
 4875SOL    HW216633   2.132   7.354   5.824  0.8241  0.9952 -1.9383
 4876SOL     OW16634   3.852   3.480  10.728 -0.2781  0.7386 -0.2453
 4876SOL    HW116635   3.867   3.505  10.819 -1.5100  1.6024 -0.2581
 4876SOL    HW216636   3.815   3.392  10.734 -3.2327  1.9269  0.3349
 4877SOL     OW16637   0.128   0.887   6.878 -0.4606  0.0982  0.2365
 4877SOL    HW116638   0.203   0.941   6.902  0.7611 -1.3829 -0.0461
 4877SOL    HW216639   0.063   0.949   6.845  1.2410  1.3165 -1.0147
 4878SOL     OW16640   0.247   7.402   2.929 -0.2505 -0.5794  0.1201
 4878SOL    HW116641   0.235   7.307   2.920 -2.7793 -0.4122  0.7905
 4878SOL    HW216642   0.192   7.439   2.861  1.2788  0.4404 -0.5955
 4879SOL     OW16643   4.302   3.170   6.425  0.2227  0.8496  0.3394
 4879SOL    HW116644   4.342   3.093   6.386 -1.4472 -0.6203  1.3838
 4879SOL    HW216645   4.217   3.177   6.382 -1.2289 -0.1942  2.8620
 4880SOL     OW16646   0.621   6.300   2.926 -0.2211  0.7060  0.1487
 4880SOL    HW116647   0.667   6.231   2.975  1.4646  1.4142 -0.3579
 4880SOL    HW216648   0.626   6.377   2.984 -1.9979  0.4708  0.6647
 4881SOL     OW16649   1.487   8.918   9.793 -0.0747 -0.4077  0.0270
 4881SOL    HW116650   1.486   8.973   9.714 -2.0217 -0.8150 -0.2947
 4881SOL    HW216651   1.538   8.968   9.857 -1.0600  1.3821 -0.5232
 4882SOL     OW16652   0.412   7.408   4.074 -0.1850 -0.3746 -0.3046
 4882SOL    HW116653   0.356   7.341   4.034 -2.2198  0.7726  0.4802
 4882SOL    HW216654   0.352   7.476   4.102  1.8711  2.4312 -2.1554
 4883SOL     OW16655  10.630   4.038   5.485  0.2116  0.6344  0.1792
 4883SOL    HW116656  10.681   4.037   5.567  0.0912  0.7787  0.2549
 4883SOL    HW216657  10.566   3.968   5.496  0.8047  0.0213 -0.1779
 4884SOL     OW16658  10.273   3.091  10.079 -0.1449  0.0412  0.1473
 4884SOL    HW116659  10.241   3.164  10.027  0.4524  1.0271  1.1249
 4884SOL    HW216660  10.327   3.131  10.148  0.4063 -1.3259  0.5630
 4885SOL     OW16661  10.971   0.098   6.565  0.7099 -0.1580 -0.7691
 4885SOL    HW116662  10.887   0.129   6.598  0.9197 -2.1761  1.9528
 4885SOL    HW216663  11.034   0.163   6.596  0.5916 -0.7305  0.7464
 4886SOL     OW16664   1.366   0.833   6.725 -0.3170 -0.4098 -0.1068
 4886SOL    HW116665   1.374   0.746   6.763  0.1763 -1.0686 -1.6319
 4886SOL    HW216666   1.456   0.860   6.708 -0.5228 -0.1858 -0.8768
 4887SOL     OW16667   1.905   7.415   7.820  0.0352 -0.8363  0.3757
 4887SOL    HW116668   1.913   7.464   7.738  1.3343 -0.2079  0.8487
 4887SOL    HW216669   1.894   7.482   7.887  0.0268 -1.2931  0.8372
 4888SOL     OW16670   0.368   6.218   2.956  0.2098  0.1393  0.1754
 4888SOL    HW116671   0.455   6.247   2.928  0.8570 -0.1094  1.8398
 4888SOL    HW216672   0.382   6.128   2.986 -0.9141 -0.3993 -0.7957
 4889SOL     OW16673  11.021   5.075   9.100 -0.1361 -0.1844  0.0293
 4889SOL    HW116674  11.093   5.054   9.159  1.1544  0.0020 -1.4190
 4889SOL    HW216675  11.040   5.027   9.020 -1.5138  0.0418 -0.4741
 4890SOL     OW16676   3.977   7.686   9.163 -0.0785 -0.8244 -0.0083
 4890SOL    HW116677   3.919   7.711   9.092 -0.0020  2.7444  0.9737
 4890SOL    HW216678   4.064   7.711   9.132  0.0561 -0.0079  0.9884
 4891SOL     OW16679   7.853   0.937   0.202  0.1265  0.2630  0.2946
 4891SOL    HW116680   7.859   1.032   0.194  1.6954  0.2449  0.8891
 4891SOL    HW216681   7.860   0.919   0.296 -3.4947 -0.3089  0.5789
 4892SOL     OW16682   9.736   9.345   9.357  0.2439  0.3007 -0.0865
 4892SOL    HW116683   9.819   9.365   9.400 -1.0388 -0.0795  2.7811
 4892SOL    HW216684   9.710   9.428   9.317  0.9688  1.0374  0.9091
 4893SOL     OW16685   0.702   8.869   7.434 -0.7035 -0.1188  0.2191
 4893SOL    HW116686   0.704   8.932   7.362 -1.0797  1.1058  1.2442
 4893SOL    HW216687   0.634   8.901   7.492 -0.5023 -1.1682  1.0647
 4894SOL     OW16688   2.597   2.827   5.787  0.1784 -0.2373  0.5079
 4894SOL    HW116689   2.665   2.797   5.848  0.5580 -0.2915  0.0666
 4894SOL    HW216690   2.608   2.922   5.783  0.9392 -0.3483 -0.3795
 4895SOL     OW16691   4.073   5.133   3.779 -0.1233  0.1422  0.1149
 4895SOL    HW116692   3.997   5.076   3.767  0.1566 -0.0410 -0.8640
 4895SOL    HW216693   4.108   5.145   3.690  0.1235  1.4127  0.3678
 4896SOL     OW16694   9.173   3.730   6.038  0.0569 -0.4527 -0.3400
 4896SOL    HW116695   9.099   3.670   6.035  0.5206 -1.0080 -1.0796
 4896SOL    HW216696   9.138   3.810   6.077 -0.2286 -1.6587  2.0931
 4897SOL     OW16697   0.624   9.632   5.411 -0.1405  0.4447  0.0112
 4897SOL    HW116698   0.590   9.626   5.500 -0.1894  0.8929  0.0259
 4897SOL    HW216699   0.574   9.565   5.362  1.5082 -1.4509  0.7854
 4898SOL     OW16700   0.086   2.338   3.696 -0.1070  0.7868  0.6074
 4898SOL    HW116701   0.155   2.396   3.728 -0.8482  1.6651  0.6686
 4898SOL    HW216702   0.010   2.357   3.752 -1.7343  3.0354 -2.0507
 4899SOL     OW16703   5.951   3.376   1.544 -0.1129  0.7484 -0.7979
 4899SOL    HW116704   5.936   3.466   1.515  0.1108  1.2596  0.6138
 4899SOL    HW216705   6.044   3.361   1.528  0.6991  2.0280  2.1544
 4900SOL     OW16706   2.600   4.667   8.500 -0.5459  0.3017 -0.4677
 4900SOL    HW116707   2.636   4.751   8.473  0.4866 -0.0548 -0.2336
 4900SOL    HW216708   2.605   4.668   8.596 -0.3669 -0.0972 -0.4712
 4901SOL     OW16709   6.454   1.631   4.767  0.1056  0.5047  0.7036
 4901SOL    HW116710   6.526   1.568   4.778  0.2776  0.6138  0.2309
 4901SOL    HW216711   6.494   1.716   4.783  0.2180  0.6126 -0.0859
 4902SOL     OW16712  10.984   5.124   0.411 -0.2807  0.3126  0.2726
 4902SOL    HW116713  10.969   5.218   0.413 -0.8754  0.2204  0.1899
 4902SOL    HW216714  11.079   5.115   0.422  0.1034  1.0145 -1.9489
 4903SOL     OW16715   2.995   8.371   7.068 -0.3140  0.2308 -0.0650
 4903SOL    HW116716   3.024   8.298   7.124 -0.7668  1.6578  2.1511
 4903SOL    HW216717   2.901   8.377   7.084 -0.8670 -0.5515 -2.5835
 4904SOL     OW16718   6.743   0.113   3.665  0.9964 -0.0188  0.6461
 4904SOL    HW116719   6.837   0.133   3.675  1.4392  0.0199 -2.3717
 4904SOL    HW216720   6.700   0.198   3.671  1.4337  0.2580  0.0522
 4905SOL     OW16721   3.136   9.258   7.774  0.3771  0.3929 -0.5928
 4905SOL    HW116722   3.215   9.229   7.728  0.6280  0.9383 -0.5199
 4905SOL    HW216723   3.123   9.193   7.843  1.1701  0.6743 -0.1650
 4906SOL     OW16724   4.544   4.709   4.821 -0.6682  0.1721 -0.1922
 4906SOL    HW116725   4.552   4.634   4.762 -0.8049  0.5118 -0.6412
 4906SOL    HW216726   4.579   4.783   4.771 -2.0855  0.7342 -0.3802
 4907SOL     OW16727   0.775   7.063   6.829 -0.4530  0.5306 -0.1203
 4907SOL    HW116728   0.695   7.052   6.880 -0.4759  2.2496  0.2967
 4907SOL    HW216729   0.825   6.982   6.843 -0.1954  1.0979  3.1467
 4908SOL     OW16730   0.302   4.537   7.254 -0.2147 -0.0552 -0.6431
 4908SOL    HW116731   0.360   4.589   7.311 -0.4991 -0.8283  0.3797
 4908SOL    HW216732   0.235   4.600   7.225 -1.1405 -0.0176  1.3928
 4909SOL     OW16733   2.651   7.419  10.687  0.1548  0.4020 -0.0519
 4909SOL    HW116734   2.581   7.447  10.746 -0.1253  0.1573 -0.2669
 4909SOL    HW216735   2.629   7.459  10.603 -1.4445 -2.1265 -0.9622
 4910SOL     OW16736   0.026   4.577   2.125  0.3600 -0.4132 -0.0658
 4910SOL    HW116737   0.120   4.588   2.141 -0.0625 -1.2069  4.3367
 4910SOL    HW216738  -0.005   4.666   2.108  1.7296  0.0529 -0.2820
 4911SOL     OW16739  10.863   0.463   9.582 -0.3251  0.2395 -0.5161
 4911SOL    HW116740  10.801   0.537   9.580 -0.3826  0.1758 -2.0912
 4911SOL    HW216741  10.811   0.388   9.553  0.3701  0.1092 -1.4704
 4912SOL     OW16742   0.064   9.532   0.091 -0.7157  0.7209 -0.0744
 4912SOL    HW116743   0.066   9.510  -0.002  0.1797 -0.6779  0.2518
 4912SOL    HW216744   0.052   9.448   0.135 -2.5016  1.4991  1.0509
 4913SOL     OW16745   4.465  10.271   1.079 -0.1596  0.1082 -0.1767
 4913SOL    HW116746   4.486  10.364   1.076 -0.2737  0.3173  2.6745
 4913SOL    HW216747   4.438  10.249   0.990 -1.7941  3.1992 -0.5547
 4914SOL     OW16748   0.393   2.193   0.622  0.0895  0.3676 -0.1212
 4914SOL    HW116749   0.367   2.279   0.655  1.4314  0.5886  0.4258
 4914SOL    HW216750   0.366   2.132   0.691 -1.7973  0.1887 -0.9601
 4915SOL     OW16751   4.182   8.298   4.363 -0.1461  0.2008 -0.3938
 4915SOL    HW116752   4.122   8.348   4.420 -0.1566  0.4632 -0.6320
 4915SOL    HW216753   4.269   8.328   4.388 -0.2127  1.4593 -1.5612
 4916SOL     OW16754   7.891   9.185   7.046 -0.3788 -0.0449  0.3791
 4916SOL    HW116755   7.947   9.210   7.119  0.4565 -0.5873 -0.0559
 4916SOL    HW216756   7.938   9.114   7.003 -1.5770 -0.7542  0.1984
 4917SOL     OW16757   9.764   6.919   4.528  0.0423  0.0715 -0.6321
 4917SOL    HW116758   9.714   6.998   4.545 -0.7051 -0.1267 -1.8483
 4917SOL    HW216759   9.828   6.944   4.462  0.2570 -0.1713 -0.5207
 4918SOL     OW16760   7.193   4.720   9.421 -0.6503 -0.6737  0.6477
 4918SOL    HW116761   7.241   4.703   9.503  0.6595  1.6557  0.4446
 4918SOL    HW216762   7.261   4.732   9.355 -1.6560 -1.0816 -0.5099
 4919SOL     OW16763   3.160   7.429   7.348  0.5169 -0.0022  0.1156
 4919SOL    HW116764   3.094   7.371   7.385  0.8853  0.8071  2.1729
 4919SOL    HW216765   3.237   7.415   7.403  2.6293 -1.9754 -3.0601
 4920SOL     OW16766   5.752   6.686   0.766 -0.0828 -0.1166 -0.5031
 4920SOL    HW116767   5.726   6.602   0.804  0.1506  0.5797  1.2437
 4920SOL    HW216768   5.812   6.662   0.696 -0.1308 -1.4145 -0.1252
 4921SOL     OW16769   8.659   4.203   0.461  0.1653 -0.6164  0.6020
 4921SOL    HW116770   8.576   4.188   0.415 -0.8631  3.0176  0.9470
 4921SOL    HW216771   8.722   4.219   0.391 -0.5125  1.0278  0.3185
 4922SOL     OW16772  11.041   6.029   6.431 -0.0095 -0.3480  0.6151
 4922SOL    HW116773  10.960   6.042   6.382  0.4011  1.1675  0.2813
 4922SOL    HW216774  11.087   5.960   6.385  0.9377  1.8317 -1.9758
 4923SOL     OW16775   8.598   8.116   3.120  0.2550 -0.1073  0.8024
 4923SOL    HW116776   8.631   8.200   3.153 -0.7003  0.3736  0.5645
 4923SOL    HW216777   8.658   8.093   3.049 -0.0301  0.8749  0.2160
 4924SOL     OW16778   8.570   1.974   4.891  0.4588 -0.8530 -0.0526
 4924SOL    HW116779   8.601   1.911   4.826  1.5632  0.3772 -0.7760
 4924SOL    HW216780   8.529   1.921   4.959  0.7289 -2.2845 -0.9738
 4925SOL     OW16781   1.950   0.462   0.481  0.6450 -0.1099  0.1099
 4925SOL    HW116782   2.021   0.526   0.481  0.8751 -0.3469  1.1749
 4925SOL    HW216783   1.876   0.508   0.520  0.6513 -0.3124  0.3656
 4926SOL     OW16784   1.190  11.090  10.236 -0.5230 -0.2753  0.2530
 4926SOL    HW116785   1.146  11.080  10.320  0.3579  0.6813  0.8570
 4926SOL    HW216786   1.163  11.177  10.205 -0.6021 -0.4930 -0.2991
 4927SOL     OW16787   1.049   5.415   8.143  0.0922 -0.0386  0.5432
 4927SOL    HW116788   1.044   5.329   8.102  2.0723 -0.3296  0.8092
 4927SOL    HW216789   0.978   5.416   8.207 -1.0541 -0.7713 -0.6885
 4928SOL     OW16790   3.811   3.126   4.834  0.5478  0.5294  0.0505
 4928SOL    HW116791   3.891   3.086   4.799  0.3814  1.1987 -1.1470
 4928SOL    HW216792   3.810   3.214   4.797 -1.0921  0.3117 -0.5208
 4929SOL     OW16793   1.384   9.937   1.973 -0.6395 -0.3497 -0.2102
 4929SOL    HW116794   1.397   9.844   1.959  1.6987 -0.6228  2.8571
 4929SOL    HW216795   1.317   9.943   2.041  0.6768  0.0681  1.0881
 4930SOL     OW16796   8.983   8.395   3.927  0.2305  0.2432 -0.7964
 4930SOL    HW116797   9.043   8.347   3.984 -1.7600  0.1199  1.3714
 4930SOL    HW216798   8.970   8.479   3.972 -2.2707 -0.2927 -0.3539
 4931SOL     OW16799   4.271  10.383   5.322  0.4074 -0.2961 -0.1541
 4931SOL    HW116800   4.360  10.385   5.357  0.8877 -0.6300 -1.3174
 4931SOL    HW216801   4.264  10.299   5.278 -0.8476 -0.7163  0.7854
 4932SOL     OW16802   2.978   5.661   5.005 -0.4952  0.7000  0.0351
 4932SOL    HW116803   2.965   5.603   4.930  0.8074 -1.0341  1.1020
 4932SOL    HW216804   2.962   5.606   5.082 -1.0866  2.2498  1.0909
 4933SOL     OW16805   9.615   8.959   0.972  0.6074  0.3710  0.2854
 4933SOL    HW116806   9.691   8.904   0.991  1.3943  0.9055 -1.1890
 4933SOL    HW216807   9.651   9.046   0.957 -0.2878  0.6175 -0.5192
 4934SOL     OW16808   0.638   8.937   0.137  0.2795  0.0471  0.0678
 4934SOL    HW116809   0.605   9.009   0.192 -1.1484  0.8440 -1.6832
 4934SOL    HW216810   0.580   8.864   0.157 -1.0712  0.7078 -1.1890
 4935SOL     OW16811   9.886   1.600   9.599  0.5570 -0.1429  0.0936
 4935SOL    HW116812   9.883   1.642   9.513  0.2530  1.6945  0.9648
 4935SOL    HW216813   9.886   1.506   9.579 -5.5408 -0.1545 -1.8699
 4936SOL     OW16814   0.429   7.886   9.120 -0.6784  0.2526  0.5057
 4936SOL    HW116815   0.489   7.941   9.170 -1.1229  1.0533  0.1719
 4936SOL    HW216816   0.343   7.923   9.136 -0.8986  0.1223 -0.3334
 4937SOL     OW16817   4.688   3.439   0.915 -0.3868  0.5630 -0.6089
 4937SOL    HW116818   4.673   3.484   0.998  1.3354  1.8105 -0.9233
 4937SOL    HW216819   4.783   3.425   0.912 -0.6783 -1.7139 -1.2604
 4938SOL     OW16820   1.066   1.723   9.358  0.0932 -0.3337 -0.1429
 4938SOL    HW116821   0.990   1.715   9.416 -1.2675  0.4154 -1.7171
 4938SOL    HW216822   1.032   1.769   9.281  2.5700  1.6336 -0.1968
 4939SOL     OW16823  10.559   1.894  11.083 -0.4546 -0.2121  0.2817
 4939SOL    HW116824  10.569   1.903  11.177  3.0648 -1.4880  0.1807
 4939SOL    HW216825  10.556   1.799  11.068 -1.5296 -0.0318 -0.8980
 4940SOL     OW16826   2.306   6.602   9.155 -0.1504 -0.2138 -0.3860
 4940SOL    HW116827   2.261   6.535   9.104  0.6387 -1.7246  0.8266
 4940SOL    HW216828   2.383   6.624   9.103 -0.4915 -0.1300 -0.8627
 4941SOL     OW16829   8.278   7.378  10.842  0.4152  0.4455  0.6264
 4941SOL    HW116830   8.265   7.465  10.879  0.3427  0.5105  0.4530
 4941SOL    HW216831   8.355   7.387  10.785 -1.0726  1.0717 -1.4242
 4942SOL     OW16832   3.107  10.745  10.976 -0.6052  0.1186 -0.7593
 4942SOL    HW116833   3.168  10.797  10.924  0.8627 -1.0585 -0.2900
 4942SOL    HW216834   3.162  10.701  11.041 -1.6843 -2.4094 -1.4345
 4943SOL     OW16835   9.701   8.271   8.103  0.1617  0.1055  0.0780
 4943SOL    HW116836   9.685   8.345   8.162 -1.9533 -0.4275  0.2730
 4943SOL    HW216837   9.619   8.221   8.105  1.9271 -3.0578  1.0627
 4944SOL     OW16838   5.548   9.582   3.173  0.6390  0.5237  0.1664
 4944SOL    HW116839   5.533   9.622   3.259 -2.8007  0.7640 -0.4084
 4944SOL    HW216840   5.590   9.651   3.122  0.2516  1.3230  0.8957
 4945SOL     OW16841   9.984   6.493   2.255  0.1700  0.2825  0.4713
 4945SOL    HW116842  10.055   6.549   2.287  0.6867  0.3231 -0.6886
 4945SOL    HW216843   9.990   6.499   2.160 -0.9543 -0.2781  0.3521
 4946SOL     OW16844   3.413   6.742   2.192 -0.5305  0.9350 -0.1517
 4946SOL    HW116845   3.376   6.783   2.270 -2.4674  0.0509 -0.5624
 4946SOL    HW216846   3.351   6.673   2.169  1.2192 -0.4013 -1.1009
 4947SOL     OW16847   4.208   9.321   4.415  0.6012  0.2459 -0.1016
 4947SOL    HW116848   4.129   9.365   4.444  0.7464 -0.0421  0.7553
 4947SOL    HW216849   4.181   9.272   4.337  0.2120  1.0442 -0.4783
 4948SOL     OW16850  10.722   3.027   7.585  0.1436  0.2573 -0.7320
 4948SOL    HW116851  10.700   3.028   7.492  0.0168 -0.6419 -0.7230
 4948SOL    HW216852  10.690   2.942   7.616  0.5778  0.3663  0.0371
 4949SOL     OW16853   9.998   2.597   4.864  0.5680 -0.2952 -0.0096
 4949SOL    HW116854  10.093   2.587   4.853  0.3149 -1.8939 -1.1229
 4949SOL    HW216855   9.973   2.659   4.796  0.7226 -0.4574 -0.2184
 4950SOL     OW16856   3.786   9.735   4.806  0.1699 -0.1260  0.2525
 4950SOL    HW116857   3.849   9.664   4.823 -0.8074 -1.3043 -0.8576
 4950SOL    HW216858   3.711   9.692   4.766 -0.3868  1.5763 -0.6466
 4951SOL     OW16859   6.054   7.871   0.653  0.0036  0.1587 -0.3051
 4951SOL    HW116860   5.999   7.916   0.717  2.1161  1.7502  0.5231
 4951SOL    HW216861   6.041   7.778   0.672 -0.9559  0.5360  1.0878
 4952SOL     OW16862   2.215   2.177  11.091  0.5227  0.1733 -0.0361
 4952SOL    HW116863   2.291   2.157  11.037 -0.3493 -0.0912 -1.1933
 4952SOL    HW216864   2.241   2.150  11.179  1.2330 -1.2939 -0.6669
 4953SOL     OW16865   0.418   1.219   8.937  0.6128  0.7543 -0.4504
 4953SOL    HW116866   0.383   1.254   8.855 -1.2894  1.1573  0.4710
 4953SOL    HW216867   0.342   1.215   8.996  1.6705 -0.7125  0.9052
 4954SOL     OW16868   1.829   0.516   7.152 -0.2345 -0.2798 -0.6789
 4954SOL    HW116869   1.836   0.451   7.222  2.2333 -1.2510 -1.6982
 4954SOL    HW216870   1.778   0.473   7.083  1.2038 -1.1152 -1.2612
 4955SOL     OW16871  10.543  10.511   6.052 -0.2906 -0.6150 -0.2361
 4955SOL    HW116872  10.467  10.552   6.095 -0.8110 -0.8750 -0.8883
 4955SOL    HW216873  10.551  10.556   5.969  0.8240  0.0018  0.1904
 4956SOL     OW16874   0.349   5.845   1.634 -0.0110 -0.1080  0.2329
 4956SOL    HW116875   0.332   5.892   1.552 -1.5641  1.5144  1.3940
 4956SOL    HW216876   0.409   5.775   1.609  1.2110  1.5487 -1.9106
 4957SOL     OW16877   6.882   5.874   8.325  0.1773  0.1833  0.3931
 4957SOL    HW116878   6.961   5.918   8.358 -0.6170  0.1051  2.5902
 4957SOL    HW216879   6.819   5.883   8.396 -0.9003 -2.1498 -0.1799
 4958SOL     OW16880   2.486  10.376   2.174 -0.0437  0.4640  0.7177
 4958SOL    HW116881   2.434  10.451   2.145  0.2326  1.1142  1.8833
 4958SOL    HW216882   2.534  10.407   2.250  1.6888 -0.2659 -0.0104
 4959SOL     OW16883  10.053   4.556  10.416 -0.7887  0.1175 -0.3813
 4959SOL    HW116884  10.108   4.478  10.405  2.2438  2.0759 -0.5356
 4959SOL    HW216885  10.012   4.569  10.330  0.4269 -0.1689 -1.0393
 4960SOL     OW16886   5.640  10.386   7.776  0.4454 -0.2782  0.5862
 4960SOL    HW116887   5.725  10.429   7.761 -0.1133  0.4487 -0.6236
 4960SOL    HW216888   5.599  10.384   7.690 -0.6903 -0.8149  1.1252
 4961SOL     OW16889   7.239   6.157   9.180  0.3805  0.6089 -0.3724
 4961SOL    HW116890   7.239   6.133   9.273 -0.7181  0.8852 -0.2878
 4961SOL    HW216891   7.310   6.105   9.142 -0.5407 -1.1866  0.2169
 4962SOL     OW16892   1.365   2.026   1.430 -0.8630  0.7025  0.5077
 4962SOL    HW116893   1.444   2.077   1.447  1.7957 -0.5598 -5.4265
 4962SOL    HW216894   1.295   2.091   1.423  0.2222  2.2219  2.6345
 4963SOL     OW16895   1.851  10.179   8.491 -0.0922 -0.7041  0.0626
 4963SOL    HW116896   1.790  10.218   8.553  0.7052 -2.1338  1.8279
 4963SOL    HW216897   1.796  10.129   8.431 -0.8143  0.0302  0.0984
 4964SOL     OW16898   6.048   5.533   4.266 -0.1119 -0.1540  0.0922
 4964SOL    HW116899   6.059   5.615   4.219  0.2095  1.1116  2.2727
 4964SOL    HW216900   6.130   5.519   4.312 -1.7742  1.0881  3.8483
 4965SOL     OW16901   8.956   7.848   4.463 -1.0959 -0.0764 -0.1839
 4965SOL    HW116902   8.862   7.867   4.459 -1.5614 -2.1880 -0.8294
 4965SOL    HW216903   8.962   7.755   4.440  0.9763 -0.4788  1.6210
 4966SOL     OW16904   5.254   1.969   7.242 -0.2059 -0.0179 -0.0099
 4966SOL    HW116905   5.251   1.901   7.175  1.4924  0.8045 -0.9864
 4966SOL    HW216906   5.282   1.923   7.321  0.2760 -0.5912 -0.4952
 4967SOL     OW16907   7.970   6.216   5.795 -0.2746  0.4141  0.0150
 4967SOL    HW116908   7.962   6.122   5.808  0.1435  0.6705  2.5371
 4967SOL    HW216909   7.887   6.241   5.754 -1.5474 -0.7189  1.7374
 4968SOL     OW16910   8.395   9.468   4.016 -0.0769  0.3687 -0.2811
 4968SOL    HW116911   8.332   9.493   3.949 -2.3572 -1.7624  0.8706
 4968SOL    HW216912   8.413   9.375   3.999  0.5940  0.2273  1.0568
 4969SOL     OW16913   0.526   2.717   9.394 -0.6467  0.3289 -0.6632
 4969SOL    HW116914   0.490   2.636   9.358 -1.4932 -0.5602  1.9830
 4969SOL    HW216915   0.620   2.711   9.378 -0.7256 -1.0773 -0.7037
 4970SOL     OW16916   6.488   6.768   9.158 -0.0804 -0.5675  0.7681
 4970SOL    HW116917   6.446   6.684   9.140 -0.9759 -0.0667  0.4666
 4970SOL    HW216918   6.533   6.790   9.076 -1.0520 -0.0758  0.3471
 4971SOL     OW16919   9.979   5.361   9.290 -0.3670  0.1508 -0.0797
 4971SOL    HW116920   9.983   5.378   9.196  0.7645 -0.1884 -0.1187
 4971SOL    HW216921   9.934   5.277   9.297  0.8376 -0.5551 -0.4513
 4972SOL     OW16922   0.105   6.378   6.071  0.1476  0.4051  0.7717
 4972SOL    HW116923   0.137   6.290   6.093  0.5678 -0.3673 -2.3696
 4972SOL    HW216924   0.168   6.437   6.111  0.1202 -0.7186  2.5750
 4973SOL     OW16925   8.938   6.200   4.479  0.7858 -0.2084 -0.6067
 4973SOL    HW116926   8.880   6.201   4.403 -2.1606  1.6006  1.4623
 4973SOL    HW216927   8.896   6.140   4.540  2.9202 -1.3802 -0.1676
 4974SOL     OW16928   2.277   9.488   6.881 -0.0649  0.4474  0.1711
 4974SOL    HW116929   2.347   9.552   6.895  0.5093 -0.4635  1.6674
 4974SOL    HW216930   2.322   9.404   6.877 -1.1959 -0.5235  4.0293
 4975SOL     OW16931   6.515   3.240   9.091 -0.3191  0.3135 -0.1740
 4975SOL    HW116932   6.594   3.294   9.098 -0.8088  0.9484  0.6710
 4975SOL    HW216933   6.505   3.202   9.178 -1.7766  1.4566  0.1851
 4976SOL     OW16934   8.484   0.284  10.313  0.0921  0.2989 -0.0626
 4976SOL    HW116935   8.474   0.342  10.389 -1.8192 -2.1017  1.6882
 4976SOL    HW216936   8.422   0.318  10.249 -0.8670  0.3211  0.8554
 4977SOL     OW16937   0.892   4.332   6.696  0.5783 -0.4080 -0.2598
 4977SOL    HW116938   0.830   4.343   6.625  1.7392  0.7715 -1.1335
 4977SOL    HW216939   0.886   4.239   6.719 -0.3935 -0.6285 -1.3410
 4978SOL     OW16940   8.654   6.255   6.261  0.1258 -0.0453 -0.0509
 4978SOL    HW116941   8.571   6.218   6.231 -0.2398  1.3948 -0.9136
 4978SOL    HW216942   8.640   6.274   6.354  0.5539 -2.6040  0.5994
 4979SOL     OW16943   8.667   8.475   9.018  0.6641  0.2466 -0.2575
 4979SOL    HW116944   8.726   8.543   9.051 -1.3285  1.3620  1.2279
 4979SOL    HW216945   8.659   8.493   8.925  2.4143  0.2260 -0.4392
 4980SOL     OW16946   8.627   4.165   2.197 -0.4123 -0.3623 -0.8230
 4980SOL    HW116947   8.548   4.209   2.227  0.4812  1.8789 -1.6001
 4980SOL    HW216948   8.682   4.234   2.160  1.4343 -2.0096 -1.3754
 4981SOL     OW16949   0.122   5.873   1.777 -0.2784 -0.1095  0.3916
 4981SOL    HW116950   0.143   5.867   1.870 -0.9409  2.5995  0.7942
 4981SOL    HW216951   0.207   5.886   1.734 -0.1392  0.4263  0.8256
 4982SOL     OW16952   1.496   9.827   3.174 -0.2652 -0.1746 -0.0616
 4982SOL    HW116953   1.568   9.769   3.147  1.2477  1.9112 -0.7787
 4982SOL    HW216954   1.526   9.915   3.151 -2.5211  0.9189  0.8540
 4983SOL     OW16955  10.448   3.390  10.869  0.2131  1.0106  0.0262
 4983SOL    HW116956  10.455   3.436  10.953 -4.6422 -1.8398  2.4806
 4983SOL    HW216957  10.376   3.433  10.824 -3.0228 -2.2562  1.4737
 4984SOL     OW16958   2.297   1.955   9.316  0.4697 -0.4510  0.2290
 4984SOL    HW116959   2.304   1.876   9.370  0.9236 -2.0731 -2.0099
 4984SOL    HW216960   2.204   1.962   9.296  0.3146  0.0958  1.1043
 4985SOL     OW16961   8.360   5.968   1.561 -0.4397 -0.1789 -0.4718
 4985SOL    HW116962   8.381   5.875   1.573 -1.4866 -0.4245 -0.3947
 4985SOL    HW216963   8.410   5.993   1.483  0.2109 -0.6805 -0.2297
 4986SOL     OW16964   9.435   5.834   6.785 -0.3341 -0.1374  0.6361
 4986SOL    HW116965   9.442   5.746   6.748  1.3096 -0.9907  2.7905
 4986SOL    HW216966   9.513   5.880   6.753 -0.2570 -0.0357  0.9727
 4987SOL     OW16967   6.056   2.238   6.668 -0.1980 -0.6447  0.0587
 4987SOL    HW116968   6.043   2.143   6.671 -0.7971 -0.6361 -1.5111
 4987SOL    HW216969   5.977   2.275   6.706 -0.6244 -0.7583 -0.7081
 4988SOL     OW16970   3.397   3.748   1.879 -0.1578  0.4198 -0.1245
 4988SOL    HW116971   3.492   3.748   1.887  0.2317  0.5783 -3.3853
 4988SOL    HW216972   3.378   3.815   1.813 -2.5002  0.1886  0.2146
 4989SOL     OW16973   8.445  10.845   1.423 -0.1112 -0.2848 -0.0529
 4989SOL    HW116974   8.508  10.824   1.493  0.8752  1.1016 -0.4946
 4989SOL    HW216975   8.477  10.796   1.347 -1.3093 -1.9746  0.4487
 4990SOL     OW16976   3.022   9.116  10.947  0.0870 -0.2521  0.0239
 4990SOL    HW116977   3.039   9.146  11.036  0.3493 -0.8532  0.1852
 4990SOL    HW216978   3.097   9.060  10.926 -0.7140 -1.3476  0.0100
 4991SOL     OW16979   5.781   7.869   9.633 -0.6478  0.7562  0.1044
 4991SOL    HW116980   5.872   7.876   9.661 -0.3574  3.3450 -1.2459
 4991SOL    HW216981   5.785   7.830   9.546 -1.0285 -0.7766  0.7333
 4992SOL     OW16982   7.939   4.947   2.045 -0.2908 -0.0578  0.2061
 4992SOL    HW116983   7.887   4.867   2.051 -0.6042  0.1060 -0.2990
 4992SOL    HW216984   7.956   4.971   2.137  1.9131 -2.0421  0.4187
 4993SOL     OW16985   0.967   7.116   3.538  0.6232 -0.0752 -0.5733
 4993SOL    HW116986   0.979   7.106   3.444  2.3529  1.8969 -0.6484
 4993SOL    HW216987   0.935   7.206   3.548  0.0683 -0.3956  0.6933
 4994SOL     OW16988   8.267   0.438   0.055  0.1099  0.1819 -0.2752
 4994SOL    HW116989   8.191   0.484   0.020  0.5868  1.0396 -0.2217
 4994SOL    HW216990   8.239   0.347   0.064 -0.4302  0.2023 -1.6369
 4995SOL     OW16991   0.440   4.745   6.742 -0.2452  0.2005 -0.6075
 4995SOL    HW116992   0.352   4.765   6.774 -0.7305 -1.2230 -1.0006
 4995SOL    HW216993   0.426   4.710   6.654  0.9538  2.8329 -1.9654
 4996SOL     OW16994   9.656   5.127   5.753  0.4546 -0.8024 -0.2282
 4996SOL    HW116995   9.626   5.157   5.667 -1.1858  0.9225  0.8741
 4996SOL    HW216996   9.751   5.137   5.749  0.2358  2.0849 -0.9313
 4997SOL     OW16997   1.390   1.159   3.470 -0.0602  0.8431  0.1859
 4997SOL    HW116998   1.485   1.153   3.471 -0.1321 -1.4246  1.6231
 4997SOL    HW216999   1.362   1.104   3.544 -2.5225  0.0070 -1.2671
 4998SOL     OW17000   0.078   6.897   7.913 -0.5494  0.0972 -0.4849
 4998SOL    HW117001   0.170   6.886   7.887  1.1355  2.2079  3.7095
 4998SOL    HW217002   0.062   6.826   7.975 -0.9506  1.0634  0.5500
 4999SOL     OW17003   9.481   8.650   6.490 -0.4295 -0.5173  0.5269
 4999SOL    HW117004   9.450   8.561   6.505  0.3179 -0.7930  0.4630
 4999SOL    HW217005   9.413   8.691   6.437  0.0034 -1.5853 -0.9155
 5000SOL     OW17006   1.059   0.895   2.284 -0.6637 -0.2248  0.5659
 5000SOL    HW117007   1.022   0.830   2.224 -1.2546 -0.0975  0.7873
 5000SOL    HW217008   1.140   0.855   2.315  0.6683  0.4751 -1.7586
 5001SOL     OW17009   5.234   9.138   2.697  0.4820 -0.7239  0.3845
 5001SOL    HW117010   5.266   9.135   2.787 -0.3094  0.0940  0.7092
 5001SOL    HW217011   5.145   9.102   2.702 -0.4825  1.4684  0.3948
 5002SOL     OW17012   0.179   8.825   7.665 -0.6579  0.3644 -0.0822
 5002SOL    HW117013   0.101   8.865   7.627 -1.5099 -0.5472  0.6383
 5002SOL    HW217014   0.222   8.780   7.591 -0.7524  0.9509 -0.4985
 5003SOL     OW17015   6.286   2.022   4.151 -0.7683  0.0139  0.2904
 5003SOL    HW117016   6.258   1.975   4.230 -0.4365  0.1211  0.4749
 5003SOL    HW217017   6.243   2.107   4.157 -0.5714  0.1004  0.4634
 5004SOL     OW17018   9.354   5.550   5.075  0.0581  0.4362  0.2324
 5004SOL    HW117019   9.435   5.549   5.127 -0.6752  0.6565  1.4139
 5004SOL    HW217020   9.305   5.474   5.105 -0.3793  0.5590 -0.1552
 5005SOL     OW17021   2.684   3.592   9.232 -0.3497  0.4687 -0.0154
 5005SOL    HW117022   2.704   3.516   9.178 -1.0632  0.9694 -1.0144
 5005SOL    HW217023   2.650   3.657   9.171 -2.2037  0.6860  1.1637
 5006SOL     OW17024  10.274   6.802  10.589  0.4395  0.3269  0.6255
 5006SOL    HW117025  10.229   6.724  10.558 -0.3945  0.3082  1.8121
 5006SOL    HW217026  10.233   6.874  10.540 -1.1611  0.3430  1.8995
 5007SOL     OW17027   8.732   5.583  10.929  0.1123 -0.5884  0.0928
 5007SOL    HW117028   8.699   5.540  11.007 -0.5186 -1.6233 -0.7241
 5007SOL    HW217029   8.822   5.608  10.952  0.2129 -1.5958  0.8787
 5008SOL     OW17030   9.897   8.140   1.289  0.5002  0.0313 -0.4525
 5008SOL    HW117031   9.876   8.233   1.291  3.9181  0.9577 -1.5802
 5008SOL    HW217032   9.812   8.097   1.275 -1.8540  2.5415  3.8811
 5009SOL     OW17033   0.767   4.468   4.178  0.3954 -0.0357  0.6304
 5009SOL    HW117034   0.698   4.492   4.241  1.1535 -1.9991  2.3182
 5009SOL    HW217035   0.730   4.395   4.128  0.5817  0.1138  0.2730
 5010SOL     OW17036   3.659   0.775   6.707  0.7578 -0.6007  0.0146
 5010SOL    HW117037   3.720   0.786   6.780  1.5816  0.5011 -0.8219
 5010SOL    HW217038   3.634   0.864   6.682  0.9199 -0.9328 -1.4061
 5011SOL     OW17039   4.436   1.152   5.554 -0.1386  0.5943 -0.5149
 5011SOL    HW117040   4.342   1.173   5.556 -0.2366  0.5629 -2.8843
 5011SOL    HW217041   4.448   1.104   5.472  1.6431 -1.0499  0.6201
 5012SOL     OW17042   9.697   5.671   9.872 -0.0030 -0.3582  0.4233
 5012SOL    HW117043   9.674   5.665   9.779  1.0211  0.1879  0.1262
 5012SOL    HW217044   9.738   5.757   9.881  0.1702 -0.5296  1.3220
 5013SOL     OW17045   4.693   7.242   9.046 -0.2261 -0.1910  0.3214
 5013SOL    HW117046   4.718   7.220   8.956  0.9705 -0.4452  0.6937
 5013SOL    HW217047   4.602   7.213   9.053 -0.3667 -0.1020 -0.8242
 5014SOL     OW17048   6.092   0.604   2.095 -0.3897  0.3159  0.0706
 5014SOL    HW117049   6.119   0.672   2.033  0.5067  0.7701  0.9229
 5014SOL    HW217050   6.023   0.555   2.050  1.9223 -0.9782 -2.2862
 5015SOL     OW17051   1.588   4.764   6.440  0.2025 -0.4612  0.1559
 5015SOL    HW117052   1.493   4.771   6.451  0.3691 -0.0310  1.5290
 5015SOL    HW217053   1.615   4.851   6.411  0.0947 -0.8338 -1.1362
 5016SOL     OW17054   2.986   7.410   0.130 -0.1288 -0.0531  0.3432
 5016SOL    HW117055   2.986   7.500   0.162  2.4844 -0.4908  1.8636
 5016SOL    HW217056   3.074   7.396   0.096 -1.0109 -1.5295 -1.5896
 5017SOL     OW17057   5.620   8.081   0.911 -0.0638 -0.7443 -0.0513
 5017SOL    HW117058   5.553   8.022   0.944  0.6356 -1.2827  0.4356
 5017SOL    HW217059   5.572   8.144   0.857 -0.7207 -2.2661 -1.3183
 5018SOL     OW17060   3.951   8.565   9.174 -0.0475 -0.3082 -0.0060
 5018SOL    HW117061   4.001   8.588   9.252  0.6100  0.7005 -0.6957
 5018SOL    HW217062   3.908   8.482   9.196  0.5557 -0.3180  1.2149
 5019SOL     OW17063   3.832  10.453   7.447  0.1056  0.1599  0.5322
 5019SOL    HW117064   3.829  10.472   7.353  0.8950 -1.5306  0.1164
 5019SOL    HW217065   3.786  10.526   7.488 -4.3364 -1.1780 -1.4626
 5020SOL     OW17066   1.736   7.063   7.579  0.2783  0.4307 -0.3075
 5020SOL    HW117067   1.821   7.088   7.617  0.6222  1.9767 -1.9559
 5020SOL    HW217068   1.677   7.133   7.607  0.1797  0.7526 -1.2805
 5021SOL     OW17069   0.306   2.823   0.484 -0.5399 -0.2679 -0.3808
 5021SOL    HW117070   0.302   2.728   0.487 -0.1680 -0.3166 -1.0924
 5021SOL    HW217071   0.394   2.842   0.451 -0.6633  0.3166 -0.3867
 5022SOL     OW17072   4.829   1.852   8.181  0.1534 -0.1606  0.1009
 5022SOL    HW117073   4.780   1.784   8.227  2.2349 -1.5721  0.3289
 5022SOL    HW217074   4.767   1.925   8.174 -1.0456 -0.7885  2.9132
 5023SOL     OW17075   9.042   8.767   9.221  0.2842 -0.3093  0.6178
 5023SOL    HW117076   9.079   8.715   9.149  5.0582  1.1893  1.6443
 5023SOL    HW217077   9.011   8.702   9.284  0.5688 -1.7270 -0.6525
 5024SOL     OW17078   1.440   6.369   5.477 -0.0107 -0.0352 -0.5846
 5024SOL    HW117079   1.390   6.372   5.559 -0.0956  0.9373 -0.6622
 5024SOL    HW217080   1.382   6.324   5.416 -1.3524  2.0927 -0.9979
 5025SOL     OW17081   0.343  10.975   6.932 -0.2138  0.5170  0.2036
 5025SOL    HW117082   0.265  10.986   6.985 -1.1141 -3.4004 -0.0458
 5025SOL    HW217083   0.316  10.998   6.843 -0.5596  0.7921  0.3789
 5026SOL     OW17084   6.597   2.725  10.814 -0.1430 -0.2030 -0.6852
 5026SOL    HW117085   6.681   2.685  10.792 -0.6722 -0.3731 -2.5560
 5026SOL    HW217086   6.551   2.658  10.865  1.0925  0.1769  1.0482
 5027SOL     OW17087   6.302   4.985   4.180  0.4308 -0.9685 -0.5133
 5027SOL    HW117088   6.377   5.035   4.211 -0.8960  1.3677 -0.7870
 5027SOL    HW217089   6.270   4.938   4.257  0.4983  0.3150  0.3189
 5028SOL     OW17090   5.315   7.439   3.718  1.0408  0.0918 -0.5289
 5028SOL    HW117091   5.388   7.433   3.657  1.0057 -4.4003 -0.4471
 5028SOL    HW217092   5.357   7.447   3.804  1.2915  0.4067 -0.6765
 5029SOL     OW17093   0.518   2.271   6.906 -0.4102 -0.2393  0.2845
 5029SOL    HW117094   0.582   2.340   6.927  1.6039 -1.3219 -1.8170
 5029SOL    HW217095   0.471   2.305   6.830 -0.3951 -0.6064  0.1116
 5030SOL     OW17096   9.322   7.674   0.031 -0.4891  0.6418 -0.0372
 5030SOL    HW117097   9.235   7.707   0.056  0.9886  3.2069  2.2077
 5030SOL    HW217098   9.335   7.705  -0.058 -1.9193  0.0047 -0.4983
 5031SOL     OW17099   8.521   4.409   2.564 -0.3595 -0.3241 -0.6257
 5031SOL    HW117100   8.487   4.350   2.631 -0.3654 -0.3636 -0.6635
 5031SOL    HW217101   8.482   4.494   2.586  0.6973 -0.0389  0.2214
 5032SOL     OW17102   0.510   1.620   2.259 -0.5142 -0.4634 -0.1703
 5032SOL    HW117103   0.494   1.706   2.221  1.3363  0.2648  0.5838
 5032SOL    HW217104   0.565   1.575   2.195 -2.7163 -1.7597 -1.2974
 5033SOL     OW17105   3.133   3.345   7.929 -1.1916 -0.1937 -0.2534
 5033SOL    HW117106   3.041   3.367   7.915 -1.2877 -0.9195 -0.8009
 5033SOL    HW217107   3.174   3.359   7.844 -0.5721  1.1576  0.2471
 5034SOL     OW17108   5.590   9.886   2.228  0.3732 -0.7793  0.1714
 5034SOL    HW117109   5.589   9.883   2.324 -2.0855  0.9872  0.2746
 5034SOL    HW217110   5.499   9.898   2.203  0.9867 -0.9158 -2.4191
 5035SOL     OW17111   8.198   2.368   5.967 -0.5558  0.3201 -0.4849
 5035SOL    HW117112   8.203   2.450   6.016  0.1843  0.5793 -0.9541
 5035SOL    HW217113   8.252   2.385   5.889  0.2464 -0.8721 -0.2058
 5036SOL     OW17114  10.750   3.659   3.502 -0.1048  0.3043  0.3279
 5036SOL    HW117115  10.729   3.742   3.544  1.4067  1.3644 -0.8739
 5036SOL    HW217116  10.845   3.653   3.506 -0.2480 -2.9609  3.1736
 5037SOL     OW17117   0.042   4.631   8.167  0.1773 -0.6496 -0.0831
 5037SOL    HW117118  -0.018   4.684   8.116  0.7372  0.4999  0.4023
 5037SOL    HW217119   0.076   4.566   8.106 -0.4667 -0.3981 -0.7143
 5038SOL     OW17120   4.888   9.287   4.788  0.5282 -0.2482 -0.8089
 5038SOL    HW117121   4.832   9.363   4.806  0.4299 -0.6418  0.6289
 5038SOL    HW217122   4.874   9.269   4.694 -1.3603  0.0037 -0.6237
 5039SOL     OW17123   0.285   8.916  10.653 -0.0900  0.0484  0.1176
 5039SOL    HW117124   0.191   8.902  10.666 -0.2087  1.8941  1.8512
 5039SOL    HW217125   0.327   8.845  10.700 -0.5981 -0.5628 -0.3280
 5040SOL     OW17126   1.623   4.962   7.930 -0.4250  0.0887  0.0176
 5040SOL    HW117127   1.687   4.894   7.907  0.2136  0.3327  1.0293
 5040SOL    HW217128   1.583   4.986   7.846  0.4270 -0.4461 -0.5633
 5041SOL     OW17129   1.630   5.624   8.226 -0.2254  0.0896  0.0959
 5041SOL    HW117130   1.563   5.576   8.274  0.0789 -1.8282 -1.2358
 5041SOL    HW217131   1.581   5.680   8.165 -0.5932  1.9923  2.0228
 5042SOL     OW17132   0.138   1.794   9.527 -0.4300  0.1100  0.3096
 5042SOL    HW117133   0.179   1.874   9.496  0.7193 -1.2055 -1.7889
 5042SOL    HW217134   0.197   1.761   9.595 -1.3960  1.4485  1.8804
 5043SOL     OW17135   9.806   1.176   0.524 -0.6398 -0.2013  0.7269
 5043SOL    HW117136   9.887   1.137   0.558  0.2476 -1.2787 -2.2796
 5043SOL    HW217137   9.765   1.106   0.474 -2.2168  1.0399  0.2115
 5044SOL     OW17138   7.248   9.179   7.127  1.1062  0.3799  0.1215
 5044SOL    HW117139   7.297   9.160   7.207 -0.6075  0.6607  1.2901
 5044SOL    HW217140   7.234   9.274   7.130 -2.7168 -0.0186  1.9207
 5045SOL     OW17141   6.608   9.035   2.626 -0.0517  0.4555 -0.0879
 5045SOL    HW117142   6.606   8.978   2.549  0.3477 -1.0725  0.9918
 5045SOL    HW217143   6.700   9.042   2.649 -0.1132  1.4024 -0.0921
 5046SOL     OW17144   4.884   4.493   7.232 -0.1736  0.4578 -0.2425
 5046SOL    HW117145   4.802   4.445   7.233 -0.5455  1.0753 -0.3615
 5046SOL    HW217146   4.952   4.427   7.247 -0.5275 -0.3829 -2.0779
 5047SOL     OW17147   4.221   3.076   9.668  0.1837 -0.6245  0.1032
 5047SOL    HW117148   4.168   3.137   9.616  0.4257 -0.2646  0.2686
 5047SOL    HW217149   4.273   3.028   9.604  0.7258  0.0490  0.0139
 5048SOL     OW17150   8.840   2.771   3.723  0.1707  0.0607  0.1186
 5048SOL    HW117151   8.885   2.686   3.718  1.5567  0.8120 -1.2102
 5048SOL    HW217152   8.900   2.832   3.680  0.2876  2.2180  3.0377
 5049SOL     OW17153   1.726   0.961   5.600  0.3357 -0.1881  0.3197
 5049SOL    HW117154   1.705   1.052   5.578 -1.0899 -0.2622  1.2499
 5049SOL    HW217155   1.656   0.909   5.560  1.5096 -0.9775 -0.7947
 5050SOL     OW17156   8.946   2.063   4.283 -0.1019 -0.0207 -0.3687
 5050SOL    HW117157   9.041   2.053   4.272  0.0881 -0.8360  1.5940
 5050SOL    HW217158   8.935   2.150   4.321  0.2420 -1.1920  2.6438
 5051SOL     OW17159   8.873   5.374   1.581 -0.5067  0.0825  0.6844
 5051SOL    HW117160   8.894   5.386   1.674 -3.3029  0.3327  1.3920
 5051SOL    HW217161   8.925   5.300   1.553  1.1615  0.6339  2.1635
 5052SOL     OW17162   4.391   3.694   2.352 -0.2633 -0.4508  0.1345
 5052SOL    HW117163   4.351   3.703   2.265  0.3580  1.0868 -0.0246
 5052SOL    HW217164   4.430   3.607   2.352 -0.4893 -0.5646 -1.0371
 5053SOL     OW17165   1.135   5.795   6.223 -0.5650 -0.0779  0.4283
 5053SOL    HW117166   1.201   5.731   6.199 -0.2290  0.6541 -0.6697
 5053SOL    HW217167   1.053   5.745   6.226 -1.1748  0.0462 -4.8009
 5054SOL     OW17168   4.193   5.454   9.713 -0.1923 -0.0024 -0.3849
 5054SOL    HW117169   4.177   5.540   9.753  0.4972  0.9392 -2.0295
 5054SOL    HW217170   4.113   5.405   9.731 -1.4880  1.7099 -1.1950
 5055SOL     OW17171   3.422   7.987   4.477  0.1194  0.4667 -0.1258
 5055SOL    HW117172   3.390   7.920   4.538 -2.3730 -1.7207 -3.4619
 5055SOL    HW217173   3.482   7.941   4.419  3.4599  2.7831  1.1596
 5056SOL     OW17174   1.800   8.882  10.048  0.0526 -0.2024 -0.0245
 5056SOL    HW117175   1.788   8.930  10.130  2.8624  0.9011 -0.1695
 5056SOL    HW217176   1.787   8.790  10.073 -2.0945  0.3033  0.9546
 5057SOL     OW17177   4.169   4.380   9.055  0.5045  1.2126  0.0486
 5057SOL    HW117178   4.079   4.409   9.072  1.5293  4.2500  0.9973
 5057SOL    HW217179   4.161   4.287   9.034 -2.4234  0.0918  4.5845
 5058SOL     OW17180   4.831   0.273   0.054  0.1271  0.0355  0.4852
 5058SOL    HW117181   4.795   0.260  -0.034 -1.1959  3.0888  0.4441
 5058SOL    HW217182   4.918   0.310   0.038  0.0089  0.3051  0.4651
 5059SOL     OW17183   3.341  10.686   3.124  0.2276 -0.2466  0.0350
 5059SOL    HW117184   3.356  10.781   3.125  0.3316 -0.2578 -0.3004
 5059SOL    HW217185   3.398  10.654   3.054  0.3553 -0.5858  0.2934
 5060SOL     OW17186  11.054   6.578   2.968 -0.1017  0.1438  0.0908
 5060SOL    HW117187  11.082   6.503   2.916 -1.0581 -1.5867  1.9440
 5060SOL    HW217188  11.124   6.642   2.956  1.0396 -1.2470 -1.0887
 5061SOL     OW17189   0.723   5.331   1.660  0.0543  0.0614  0.1164
 5061SOL    HW117190   0.654   5.373   1.713  0.7714  0.8910  0.4166
 5061SOL    HW217191   0.706   5.237   1.669 -0.3865  0.2200  1.0758
 5062SOL     OW17192  10.402   6.506   5.845 -0.3968 -0.2855  0.2688
 5062SOL    HW117193  10.469   6.568   5.874 -1.3570  0.6849  0.4714
 5062SOL    HW217194  10.399   6.515   5.750 -0.9073  0.3870  0.3433
 5063SOL     OW17195   8.737   2.263   4.869 -0.0013  0.1126 -0.2310
 5063SOL    HW117196   8.665   2.320   4.840 -1.1428 -0.2407  1.7466
 5063SOL    HW217197   8.695   2.199   4.927  1.9887  0.2274  1.4450
 5064SOL     OW17198   7.941   4.806  10.021  0.3300 -0.0220 -0.0071
 5064SOL    HW117199   7.876   4.831  10.087  0.7249 -0.7771  0.6799
 5064SOL    HW217200   7.968   4.718  10.046  3.2104  1.0572  1.0167
 5065SOL     OW17201   3.917   0.069  10.101  0.4379  0.1332  0.1692
 5065SOL    HW117202   3.826   0.061  10.128  0.0897  1.2964 -0.5715
 5065SOL    HW217203   3.944  -0.020  10.080 -1.3517  0.0281 -2.1365
 5066SOL     OW17204   1.803  10.647   4.305 -0.3012  0.2931  0.3517
 5066SOL    HW117205   1.832  10.720   4.359 -0.4750 -0.8212  2.0352
 5066SOL    HW217206   1.866  10.577   4.324  0.5889  0.3230 -2.1433
 5067SOL     OW17207   1.915   2.694   7.828 -0.1141  0.2458  0.1009
 5067SOL    HW117208   1.855   2.623   7.804  1.2978 -1.0521  0.2656
 5067SOL    HW217209   1.879   2.771   7.785 -0.4972 -0.9895 -1.9092
 5068SOL     OW17210   3.678   6.790   0.142  0.0002  0.2128 -0.0769
 5068SOL    HW117211   3.591   6.827   0.123  0.2662 -0.3443 -2.7428
 5068SOL    HW217212   3.728   6.864   0.177 -1.1622  0.8579  0.3013
 5069SOL     OW17213   1.974   4.072   0.067 -0.2815  0.1799  0.0978
 5069SOL    HW117214   2.069   4.063   0.061 -0.2319 -0.7085  1.6175
 5069SOL    HW217215   1.960   4.154   0.114 -0.1949 -0.2851  0.9719
 5070SOL     OW17216   0.946   8.734  10.349 -0.3036 -0.3923  0.1859
 5070SOL    HW117217   0.917   8.644  10.364 -0.7700 -0.6225 -1.8033
 5070SOL    HW217218   1.000   8.728  10.270  2.6200  0.5528  1.9425
 5071SOL     OW17219   3.804   2.982  10.276  0.3960 -0.3134 -0.2556
 5071SOL    HW117220   3.810   3.044  10.348 -1.6726 -1.5685  1.0948
 5071SOL    HW217221   3.720   3.001  10.234  0.3429 -1.3025 -0.6454
 5072SOL     OW17222   1.122   5.048   4.713 -0.4014 -0.0268 -0.2568
 5072SOL    HW117223   1.199   5.104   4.706  0.6677 -1.4453 -0.2947
 5072SOL    HW217224   1.102   5.023   4.622 -0.1226 -0.6553 -0.1534
 5073SOL     OW17225   1.300   7.412  10.931  0.4126  0.1040  0.5584
 5073SOL    HW117226   1.251   7.417  10.849  0.4960  3.0429  0.6036
 5073SOL    HW217227   1.270   7.487  10.982  1.0334 -1.1129  2.8824
 5074SOL     OW17228   8.624   0.808   6.277  0.3823  0.0179 -0.5150
 5074SOL    HW117229   8.538   0.784   6.310  1.0252 -0.5264  0.8169
 5074SOL    HW217230   8.675   0.831   6.354  1.6765 -0.4418 -1.1884
 5075SOL     OW17231  11.056   5.424   9.760 -0.1782  0.6625 -0.3973
 5075SOL    HW117232  11.042   5.410   9.854  0.3793  1.3542 -0.2031
 5075SOL    HW217233  10.978   5.387   9.719  0.8426 -2.3086  0.1197
 5076SOL     OW17234   9.454   5.494   1.821 -0.0157  0.0113 -0.3464
 5076SOL    HW117235   9.539   5.485   1.866  1.0993  1.4215 -2.0503
 5076SOL    HW217236   9.434   5.587   1.825 -0.7270 -0.0856 -1.2934
 5077SOL     OW17237   0.627   2.917   7.653  0.1514 -0.5330  0.8882
 5077SOL    HW117238   0.640   2.947   7.563 -0.5549  2.9564  1.8253
 5077SOL    HW217239   0.714   2.925   7.693  0.0607 -0.1684  1.0153
 5078SOL     OW17240   0.934   1.587   0.848 -0.4955 -0.3518 -0.6516
 5078SOL    HW117241   0.970   1.675   0.836 -1.8109 -0.0460 -2.7702
 5078SOL    HW217242   0.959   1.539   0.769  1.6936 -2.5243  1.1747
 5079SOL     OW17243   2.582   6.565   9.956  0.3097 -0.3842  0.4882
 5079SOL    HW117244   2.651   6.614   9.912  0.5221  0.6215  1.8593
 5079SOL    HW217245   2.517   6.632   9.981 -0.8140 -1.2041 -0.1184
 5080SOL     OW17246  10.981   1.860   4.488  0.4766 -0.3710 -0.3829
 5080SOL    HW117247  10.898   1.821   4.462  0.7831 -2.1503  1.1166
 5080SOL    HW217248  10.995   1.829   4.578  4.3452 -2.9581 -1.6407
 5081SOL     OW17249   6.485   9.763   3.808 -0.0387 -0.4003  0.1854
 5081SOL    HW117250   6.495   9.787   3.900 -1.8996 -0.9214  0.5601
 5081SOL    HW217251   6.497   9.668   3.806  1.1434 -0.2573 -0.3122
 5082SOL     OW17252   6.264   9.096   3.955  0.0831  0.0726 -0.2823
 5082SOL    HW117253   6.234   9.061   3.872 -0.3151 -1.6837  0.5405
 5082SOL    HW217254   6.188   9.140   3.993  0.5910  1.9559 -1.3330
 5083SOL     OW17255  10.382   6.953   8.820 -0.0818 -0.1777  0.3515
 5083SOL    HW117256  10.317   6.901   8.773 -0.5300 -0.2780  1.0556
 5083SOL    HW217257  10.456   6.961   8.760 -0.2964 -1.0158 -0.0315
 5084SOL     OW17258   4.246   6.833   1.721 -0.1872 -0.2005 -0.3611
 5084SOL    HW117259   4.335   6.849   1.753 -0.4461 -0.7854  0.7217
 5084SOL    HW217260   4.240   6.737   1.716 -1.1357 -0.2353  0.7980
 5085SOL     OW17261   4.756   6.127  10.316  0.4163  0.2909  0.1003
 5085SOL    HW117262   4.745   6.120  10.221  0.3912  1.0440  0.0469
 5085SOL    HW217263   4.667   6.136  10.350  0.4807  0.9174  0.1169
 5086SOL     OW17264   3.552   8.358   5.676 -0.9027 -0.0317 -0.0815
 5086SOL    HW117265   3.570   8.436   5.623 -1.8704  0.4301  0.2505
 5086SOL    HW217266   3.621   8.358   5.742 -0.2194 -0.1100 -0.7712
 5087SOL     OW17267   3.795   3.129   4.016 -0.1442 -0.0016 -0.5541
 5087SOL    HW117268   3.788   3.129   3.920  1.5801  1.4948 -0.7399
 5087SOL    HW217269   3.877   3.176   4.034  0.2492 -1.3926  1.6313
 5088SOL     OW17270   5.625   6.398   8.721  0.4285  0.0603  0.4845
 5088SOL    HW117271   5.560   6.372   8.786  0.1305  1.1871  0.6655
 5088SOL    HW217272   5.612   6.493   8.711  1.3374  0.1218 -0.2597
 5089SOL     OW17273   9.117   6.914   9.218  0.6958 -0.1379  0.3921
 5089SOL    HW117274   9.036   6.944   9.177  0.6585 -0.7904 -0.0438
 5089SOL    HW217275   9.093   6.831   9.259  1.4213 -1.0278 -0.8828
 5090SOL     OW17276   2.949   8.040   4.440  0.6928 -0.1096  0.1780
 5090SOL    HW117277   2.966   8.017   4.531 -1.3698 -2.7442  0.0248
 5090SOL    HW217278   3.031   8.022   4.394  1.5556  0.6405  1.3900
 5091SOL     OW17279   3.517   4.287   6.071  0.1935  0.7062  0.6899
 5091SOL    HW117280   3.600   4.263   6.032 -0.3832  0.2182 -0.2788
 5091SOL    HW217281   3.469   4.332   6.001 -1.2969 -1.1543  0.4026
 5092SOL     OW17282   0.659   3.625   3.239 -0.2895  0.4495 -0.0568
 5092SOL    HW117283   0.637   3.546   3.289 -0.1025 -0.2173 -0.9953
 5092SOL    HW217284   0.720   3.672   3.295  1.7641 -1.4365 -0.5796
 5093SOL     OW17285   6.126   6.410  10.366  0.1733 -0.7023  0.4810
 5093SOL    HW117286   6.140   6.453  10.282  2.2706 -1.1993  0.5141
 5093SOL    HW217287   6.072   6.334  10.346 -0.7458  0.0807 -0.1157
 5094SOL     OW17288   9.488   7.754   1.754  0.3543  0.0307 -0.5984
 5094SOL    HW117289   9.417   7.728   1.696 -2.0704 -0.4545  2.2969
 5094SOL    HW217290   9.543   7.675   1.762 -1.2342 -1.0328  0.3353
 5095SOL     OW17291   1.824   3.072   1.400  1.2733 -0.1548  0.3885
 5095SOL    HW117292   1.850   3.152   1.354  1.4273 -0.7472 -0.5878
 5095SOL    HW217293   1.771   3.103   1.473 -2.0119  0.7676 -2.1283
 5096SOL     OW17294   2.374   7.474   6.011  0.1046  0.0107 -0.1083
 5096SOL    HW117295   2.346   7.512   5.928  2.6725 -0.5395 -1.3206
 5096SOL    HW217296   2.396   7.549   6.066  0.0393  0.3589 -0.5578
 5097SOL     OW17297   5.964   5.500   0.233  0.8527  0.2148 -0.9425
 5097SOL    HW117298   5.908   5.432   0.270  3.7777 -0.5355  2.7958
 5097SOL    HW217299   5.959   5.572   0.297  2.9448  0.6709 -1.2268
 5098SOL     OW17300   9.539   2.622   3.092 -0.2459 -0.2493 -0.8582
 5098SOL    HW117301   9.527   2.560   3.020  0.3674 -0.0152 -1.1614
 5098SOL    HW217302   9.593   2.574   3.156 -0.8004 -0.4618 -0.5384
 5099SOL     OW17303   6.408   1.159   5.787  0.2214 -0.1317  0.7238
 5099SOL    HW117304   6.486   1.196   5.745  0.4804 -0.0352  1.2788
 5099SOL    HW217305   6.440   1.083   5.836 -0.1365 -0.4628  0.4483
 5100SOL     OW17306   6.624  10.381   6.529 -0.0423  0.1546 -0.3904
 5100SOL    HW117307   6.566  10.413   6.598  1.8476  0.4869  1.1484
 5100SOL    HW217308   6.612  10.442   6.456 -0.8266  0.8246  0.2839
 5101SOL     OW17309   6.153   2.655   9.190 -0.4211  0.2672 -0.3234
 5101SOL    HW117310   6.091   2.614   9.251 -0.4308  0.7674  0.0054
 5101SOL    HW217311   6.145   2.603   9.110  0.1296 -0.8506  0.3297
 5102SOL     OW17312  10.538   5.720   5.316 -0.2171  0.2588  0.3952
 5102SOL    HW117313  10.592   5.769   5.254 -3.4408  1.8483 -1.3831
 5102SOL    HW217314  10.504   5.647   5.266 -1.3156  0.4468  0.8411
 5103SOL     OW17315   4.555   5.537   4.460  0.1209 -0.1794  0.5670
 5103SOL    HW117316   4.635   5.497   4.494 -0.6984 -2.6493 -0.2085
 5103SOL    HW217317   4.546   5.619   4.510  1.4349 -1.3708  2.9390
 5104SOL     OW17318   1.343   5.254  10.942 -0.5227  0.0756  0.0890
 5104SOL    HW117319   1.318   5.195  10.871 -0.0806 -0.9345  0.7412
 5104SOL    HW217320   1.432   5.280  10.922 -0.3858 -0.2366  0.2763
 5105SOL     OW17321   8.589   7.138   0.643  0.1274  0.6801  0.3050
 5105SOL    HW117322   8.639   7.216   0.667  1.7780 -1.0116  2.9884
 5105SOL    HW217323   8.498   7.159   0.665 -0.3818  3.3983 -3.5224
 5106SOL     OW17324   2.720   4.304   0.405  0.2505  0.3986 -0.1288
 5106SOL    HW117325   2.717   4.209   0.392 -0.3604  0.4334 -0.2578
 5106SOL    HW217326   2.700   4.316   0.498 -2.2994  0.5270 -0.6205
 5107SOL     OW17327   3.349   0.877  10.969 -0.1674 -0.0816  0.4163
 5107SOL    HW117328   3.383   0.949  11.022 -0.6471  0.7656 -0.3906
 5107SOL    HW217329   3.409   0.804  10.985  0.8205  0.7526  0.5948
 5108SOL     OW17330   1.251   7.444   1.096  0.0830  0.1975 -0.6808
 5108SOL    HW117331   1.232   7.351   1.085  2.4791 -0.4699  0.2396
 5108SOL    HW217332   1.326   7.460   1.038 -0.6776  1.7202 -1.2925
 5109SOL     OW17333   4.332   4.844   9.614  0.2915  0.2538 -0.4945
 5109SOL    HW117334   4.355   4.841   9.521  1.4189 -0.6520 -0.2141
 5109SOL    HW217335   4.248   4.799   9.619  1.3235 -1.8346 -0.8039
 5110SOL     OW17336   1.633   9.615   7.458  0.4300 -0.1795 -0.3741
 5110SOL    HW117337   1.707   9.634   7.516  0.5429  2.2067 -1.1730
 5110SOL    HW217338   1.562   9.591   7.518  1.5294 -1.5125  0.4657
 5111SOL     OW17339   5.293   5.163   9.386  0.1791 -0.5996  0.5481
 5111SOL    HW117340   5.300   5.250   9.425 -1.6212 -0.2766  0.2409
 5111SOL    HW217341   5.251   5.178   9.301 -3.8997 -1.9943  2.0263
 5112SOL     OW17342   8.531   0.634   2.229  0.1395 -0.5064 -0.0605
 5112SOL    HW117343   8.496   0.656   2.316 -0.8619  0.0244 -0.5798
 5112SOL    HW217344   8.618   0.598   2.247  1.1056  2.1041  1.0090
 5113SOL     OW17345   2.014   7.407   9.572 -0.1556 -0.5128 -0.3396
 5113SOL    HW117346   2.093   7.455   9.598 -0.8132  2.2454 -2.7940
 5113SOL    HW217347   2.009   7.420   9.477 -2.0510 -3.0685 -0.6846
 5114SOL     OW17348   1.185   2.494   7.608 -0.6247 -0.5013  0.0005
 5114SOL    HW117349   1.160   2.457   7.523  1.4199 -1.4211 -0.2776
 5114SOL    HW217350   1.159   2.427   7.671  1.0488 -1.5012 -0.2949
 5115SOL     OW17351   6.395   8.016  10.695  0.0042  0.7676  0.0704
 5115SOL    HW117352   6.449   7.939  10.673  0.0112  0.4160  1.2362
 5115SOL    HW217353   6.437   8.052  10.772 -1.9296 -0.0496  1.5851
 5116SOL     OW17354   2.499   7.244   0.011  0.2614  0.1577  0.8173
 5116SOL    HW117355   2.586   7.274   0.034 -0.1368  0.2569  2.3104
 5116SOL    HW217356   2.447   7.256   0.091 -1.6513  2.0209 -0.5967
 5117SOL     OW17357   6.840   8.201   1.016 -0.6833  0.4354  0.5258
 5117SOL    HW117358   6.819   8.108   1.022 -1.2605  0.6297  1.9296
 5117SOL    HW217359   6.777   8.236   0.953 -0.0664 -0.2164 -0.4731
 5118SOL     OW17360   9.518  10.537  10.209  0.4996 -0.0690 -0.1298
 5118SOL    HW117361   9.472  10.620  10.197  0.0277 -0.0645  1.4128
 5118SOL    HW217362   9.449  10.470  10.200  0.2103 -0.0868  1.7040
 5119SOL     OW17363   4.738   7.789   9.384  0.2787 -0.3700 -0.2189
 5119SOL    HW117364   4.713   7.758   9.297  2.2053 -2.0167 -0.2756
 5119SOL    HW217365   4.707   7.721   9.443 -0.7796  0.6103  0.3848
 5120SOL     OW17366   1.248   1.843   9.990  0.0124  0.2621 -0.0131
 5120SOL    HW117367   1.226   1.749   9.992  1.0722 -0.0704  3.6711
 5120SOL    HW217368   1.166   1.886   9.965 -0.4554 -1.6027 -1.9435
 5121SOL     OW17369   1.811   6.837   5.790  0.2513  1.0488 -0.0778
 5121SOL    HW117370   1.796   6.904   5.723  2.0130  1.6822  0.0957
 5121SOL    HW217371   1.771   6.872   5.869 -0.1268  1.2084 -0.3368
 5122SOL     OW17372   1.816   0.108  10.712  0.6121 -0.0838 -0.2821
 5122SOL    HW117373   1.791   0.152  10.793  0.9376 -2.1785  1.0397
 5122SOL    HW217374   1.813   0.176  10.645  1.1272  1.9225  1.6201
 5123SOL     OW17375   9.147   9.061   0.730  0.2560  0.1064  0.6197
 5123SOL    HW117376   9.102   9.007   0.795  0.4594 -1.1196 -0.2212
 5123SOL    HW217377   9.212   9.111   0.780 -1.1028  0.9015  1.6533
 5124SOL     OW17378   6.265   7.676   5.491 -0.0495  0.3294 -0.3664
 5124SOL    HW117379   6.252   7.736   5.417  0.0190 -0.4512 -1.0154
 5124SOL    HW217380   6.342   7.625   5.467 -0.5085 -0.4832 -0.1180
 5125SOL     OW17381   9.670   0.835   2.140 -0.5231 -0.6097 -0.2963
 5125SOL    HW117382   9.579   0.864   2.142 -0.7713 -1.3457  2.1588
 5125SOL    HW217383   9.707   0.866   2.223  1.6194  0.0395 -1.4165
 5126SOL     OW17384   9.359   9.875   2.892 -0.1197  0.2934  0.7311
 5126SOL    HW117385   9.409   9.801   2.856  0.4766  1.4675 -1.0201
 5126SOL    HW217386   9.398   9.891   2.978  0.5091 -0.6857  0.6495
 5127SOL     OW17387   5.781  10.805   8.988  0.5326 -0.0839  0.5758
 5127SOL    HW117388   5.791  10.871   9.057  2.2773  0.5994 -0.2714
 5127SOL    HW217389   5.790  10.854   8.906  1.5724 -1.3059 -0.0818
 5128SOL     OW17390   3.759   1.802   8.057 -0.2901  0.1182 -0.0775
 5128SOL    HW117391   3.754   1.892   8.091  0.4073 -0.0968  0.6192
 5128SOL    HW217392   3.818   1.809   7.982  0.1456  0.1629  0.2650
 5129SOL     OW17393   2.765   7.168   1.150 -0.2938 -0.1165  0.2126
 5129SOL    HW117394   2.681   7.139   1.115 -0.3299 -0.0039  0.2045
 5129SOL    HW217395   2.804   7.219   1.079 -1.1480  1.6400  0.9194
 5130SOL     OW17396   0.398   1.173   8.377 -0.1986 -0.1476  0.6265
 5130SOL    HW117397   0.449   1.134   8.448  0.4679  0.7405  0.6638
 5130SOL    HW217398   0.329   1.110   8.359  1.0062 -1.4706  0.4788
 5131SOL     OW17399   9.090   5.001   2.020  0.4401  0.0616 -0.2669
 5131SOL    HW117400   9.055   5.084   1.986 -2.8578 -0.9233  0.3822
 5131SOL    HW217401   9.082   5.009   2.115  2.1984 -0.2262 -0.0514
 5132SOL     OW17402   7.633   4.800   9.226  0.3313 -0.0558  0.8378
 5132SOL    HW117403   7.707   4.747   9.255  0.5417 -1.9753 -2.6363
 5132SOL    HW217404   7.556   4.746   9.245 -0.0357  0.9105  2.2795
 5133SOL     OW17405   4.673   4.640   5.066  0.1314  0.2488  0.4896
 5133SOL    HW117406   4.653   4.549   5.090  0.1913  0.2346  0.4869
 5133SOL    HW217407   4.630   4.652   4.981 -0.6621  0.5123  0.9116
 5134SOL     OW17408   8.445   4.236   3.451  0.1646 -0.8904 -0.9170
 5134SOL    HW117409   8.371   4.198   3.499  0.6989 -1.2914 -0.3931
 5134SOL    HW217410   8.483   4.299   3.512 -0.0457 -0.3132 -1.3749
 5135SOL     OW17411   0.325   3.513   6.207 -0.3200 -0.5052 -0.7603
 5135SOL    HW117412   0.312   3.606   6.191 -2.5031 -0.6580 -0.2281
 5135SOL    HW217413   0.367   3.509   6.293 -2.5508  0.0041  0.4298
 5136SOL     OW17414  10.609   0.176   2.848 -0.5719 -0.3282  0.2442
 5136SOL    HW117415  10.662   0.215   2.917 -0.3966 -3.0256  1.7872
 5136SOL    HW217416  10.543   0.125   2.895 -0.0232 -2.8504 -1.5178
 5137SOL     OW17417   3.917   8.029  10.655  0.2677  0.1891  0.9739
 5137SOL    HW117418   3.885   8.025  10.565  2.6738  0.5549  0.0436
 5137SOL    HW217419   3.847   8.075  10.703 -1.0275  0.0342 -0.6745
 5138SOL     OW17420   9.439   2.022   3.646 -0.0892  0.8649  0.8875
 5138SOL    HW117421   9.467   2.055   3.560  1.2482 -0.4936  0.7731
 5138SOL    HW217422   9.344   2.019   3.640 -0.0165 -2.3263 -1.8433
 5139SOL     OW17423   9.888   8.817   9.530 -0.0307 -0.3040  0.8364
 5139SOL    HW117424   9.888   8.863   9.446 -0.5578  0.2886  1.1532
 5139SOL    HW217425   9.945   8.740   9.516 -0.0344 -0.1532 -0.0214
 5140SOL     OW17426   0.716   7.595   0.984 -0.3568 -0.0107  0.7244
 5140SOL    HW117427   0.799   7.573   1.026  0.5613  0.1651 -0.9228
 5140SOL    HW217428   0.664   7.634   1.054  0.6113 -0.9166  2.0008
 5141SOL     OW17429   6.732   3.470   7.485 -0.4344 -0.4749 -0.2894
 5141SOL    HW117430   6.719   3.506   7.398 -0.9027  0.4114  0.1429
 5141SOL    HW217431   6.651   3.490   7.533  1.2008  2.5496  1.5380
 5142SOL     OW17432   0.337   0.135   0.520  0.3358 -0.4571 -0.2241
 5142SOL    HW117433   0.305   0.223   0.542 -0.9847 -0.9262 -0.1914
 5142SOL    HW217434   0.266   0.076   0.548  1.0269 -1.5014 -0.6258
 5143SOL     OW17435   8.273   8.961   5.141 -0.1002 -0.4152 -0.4290
 5143SOL    HW117436   8.283   9.044   5.187 -0.5562 -1.2780  1.3200
 5143SOL    HW217437   8.338   8.903   5.182 -1.6024 -1.6646  0.3042
 5144SOL     OW17438   7.222   5.112   2.995 -0.0753 -0.1971 -0.9035
 5144SOL    HW117439   7.157   5.128   3.063  1.9438  0.8309  0.9532
 5144SOL    HW217440   7.172   5.106   2.914 -2.3451  2.4525  0.1136
 5145SOL     OW17441   3.770   9.415   0.559  0.3812 -0.3477  0.3764
 5145SOL    HW117442   3.838   9.482   0.560  0.7413 -0.6690 -0.7976
 5145SOL    HW217443   3.767   9.385   0.468 -3.1295  1.4741 -0.2927
 5146SOL     OW17444   1.213  10.085   8.947 -0.2348  0.5267  0.1095
 5146SOL    HW117445   1.253  10.043   9.023 -1.2944  2.2942  1.7059
 5146SOL    HW217446   1.287  10.121   8.898  0.3961  0.2473  0.8319
 5147SOL     OW17447   1.003   9.901  10.969 -0.1232 -0.4528  0.2988
 5147SOL    HW117448   0.991   9.837  10.898 -1.8458  1.1575 -0.9742
 5147SOL    HW217449   0.915   9.919  11.000  0.5331 -0.3916  2.2555
 5148SOL     OW17450   3.216   6.480   9.901  0.0925  0.1113 -0.0971
 5148SOL    HW117451   3.122   6.495   9.893 -0.3230 -1.4864  1.2403
 5148SOL    HW217452   3.246   6.470   9.810 -1.6001 -2.2230 -0.5074
 5149SOL     OW17453  10.297   8.684   2.334 -0.5657 -0.1051  0.6634
 5149SOL    HW117454  10.242   8.751   2.375 -1.4395 -0.5093  0.1585
 5149SOL    HW217455  10.303   8.614   2.400 -0.2838  0.1211  0.8858
 5150SOL     OW17456  10.956   9.681   5.201  0.0942 -0.4756 -0.1220
 5150SOL    HW117457  10.996   9.608   5.155 -0.4871 -1.1893  0.4853
 5150SOL    HW217458  10.993   9.679   5.289  2.4480  1.8661 -0.9237
 5151SOL     OW17459   8.956   3.968   7.715 -0.0840 -0.8846  0.2552
 5151SOL    HW117460   8.924   3.987   7.803  1.0174 -0.6211  0.6147
 5151SOL    HW217461   8.900   3.897   7.684  0.5456 -2.1432  1.8347
 5152SOL     OW17462   6.272   8.567   1.858  0.4478 -0.2551 -1.4329
 5152SOL    HW117463   6.191   8.535   1.897  0.2412  0.0754 -1.5861
 5152SOL    HW217464   6.339   8.504   1.886  0.3490  0.1049 -0.3471
 5153SOL     OW17465   9.232   2.657   7.679 -0.4354  0.2856 -0.0421
 5153SOL    HW117466   9.298   2.644   7.746 -0.1528  0.0255 -0.3660
 5153SOL    HW217467   9.275   2.711   7.612 -0.5894  0.2223 -0.1931
 5154SOL     OW17468   2.428   3.332   8.593 -0.4081  0.3324  0.6718
 5154SOL    HW117469   2.439   3.361   8.684 -1.4692  1.0883  0.5768
 5154SOL    HW217470   2.481   3.393   8.542 -1.6337  1.3886  0.5948
 5155SOL     OW17471  10.242  10.084   8.931  0.1918 -0.0817 -0.4766
 5155SOL    HW117472  10.260  10.065   8.839 -3.1124  0.0630 -1.2756
 5155SOL    HW217473  10.316  10.139   8.959  1.4502 -0.3919 -2.9217
 5156SOL     OW17474   7.459   5.147   8.175  0.3702  0.6255  0.2198
 5156SOL    HW117475   7.524   5.208   8.139 -0.6922  3.2524  2.3809
 5156SOL    HW217476   7.508   5.091   8.235  0.7655  2.5431  1.7816
 5157SOL     OW17477   2.957   1.449  10.124 -0.3134  0.4552  0.3652
 5157SOL    HW117478   2.987   1.486  10.207  2.5660 -0.7938  0.0009
 5157SOL    HW217479   3.020   1.479  10.059 -1.2390 -0.3786 -0.9952
 5158SOL     OW17480   3.115   6.151   8.633 -0.5429  0.3442 -0.0929
 5158SOL    HW117481   3.132   6.212   8.705 -1.8241 -1.6560  2.0695
 5158SOL    HW217482   3.201   6.114   8.612  0.0306  1.8359 -0.4713
 5159SOL     OW17483   2.237   8.583   0.095 -0.3484 -0.3693  0.0857
 5159SOL    HW117484   2.203   8.507   0.143 -1.9704 -0.1213 -0.6086
 5159SOL    HW217485   2.167   8.648   0.102 -0.8141 -0.4420 -2.8762
 5160SOL     OW17486  10.596   4.949   2.177 -0.6807 -0.1778 -1.0803
 5160SOL    HW117487  10.678   4.900   2.184  0.7541  1.9748 -1.7577
 5160SOL    HW217488  10.577   4.951   2.083 -0.8626  0.3153 -1.0366
 5161SOL     OW17489  10.480   5.873   3.420 -0.4206 -0.1153  0.2297
 5161SOL    HW117490  10.457   5.805   3.357  0.3796  0.1364 -0.3543
 5161SOL    HW217491  10.427   5.853   3.497 -3.1033  0.8338 -1.2393
 5162SOL     OW17492   9.541   5.525   9.348 -0.3825  0.3863  0.1931
 5162SOL    HW117493   9.509   5.462   9.284 -0.2979  0.3318  0.2039
 5162SOL    HW217494   9.554   5.474   9.428 -0.9953  0.5547  0.4111
 5163SOL     OW17495   0.496   7.276  10.667 -0.6826  0.1818 -0.2296
 5163SOL    HW117496   0.531   7.187  10.671 -3.0113 -0.8505 -0.8014
 5163SOL    HW217497   0.446   7.286  10.748  2.0349  2.2296  1.3806
 5164SOL     OW17498   2.415  10.970   8.413  0.4442  0.2658  0.3009
 5164SOL    HW117499   2.501  11.012   8.410  0.8716 -0.5655  0.5601
 5164SOL    HW217500   2.394  10.964   8.506 -0.3655  1.3551  0.2204
 5165SOL     OW17501   6.947   7.510   3.386 -0.1108  0.0942 -0.6774
 5165SOL    HW117502   6.859   7.539   3.411 -0.4836 -0.1372 -1.6700
 5165SOL    HW217503   6.946   7.415   3.398  0.6326  0.2844  1.1364
 5166SOL     OW17504   4.461   1.261   2.988 -0.0665 -0.9888  0.2675
 5166SOL    HW117505   4.425   1.286   2.902 -1.7178 -0.5018  1.0598
 5166SOL    HW217506   4.507   1.179   2.972 -4.6430 -3.7489 -0.2427
 5167SOL     OW17507   0.415   0.611  10.342  0.6146 -0.5474 -0.5249
 5167SOL    HW117508   0.429   0.705  10.355 -1.2920 -0.2250 -0.4535
 5167SOL    HW217509   0.363   0.584  10.418  0.5199 -1.5092 -0.9143
 5168SOL     OW17510   5.486   1.402  10.810 -0.1065  0.3551  0.2545
 5168SOL    HW117511   5.507   1.384  10.901  1.7684 -0.3975 -0.2735
 5168SOL    HW217512   5.478   1.497  10.806  1.0564  0.5071  0.9820
 5169SOL     OW17513   6.662   7.075   9.329 -0.8550  0.2821 -0.4619
 5169SOL    HW117514   6.720   7.001   9.309  1.7194  2.0432  0.0321
 5169SOL    HW217515   6.658   7.077   9.424  1.1050  2.0812 -0.3234
 5170SOL     OW17516   7.533  10.506   8.254  0.1578 -0.1778  0.8616
 5170SOL    HW117517   7.461  10.445   8.271 -1.3718  1.6062  1.0615
 5170SOL    HW217518   7.565  10.531   8.340  0.1333  0.0710  0.7966
 5171SOL     OW17519   5.451   8.549   0.694 -0.2081  0.4943  0.5753
 5171SOL    HW117520   5.379   8.503   0.651  3.2222 -3.1204 -2.0562
 5171SOL    HW217521   5.436   8.641   0.675 -3.6166 -0.1461 -0.5465
 5172SOL     OW17522   0.114   5.282   8.798 -0.4707 -0.7263 -0.1232
 5172SOL    HW117523   0.032   5.235   8.783 -1.1038  0.3280 -0.0667
 5172SOL    HW217524   0.100   5.331   8.879  0.5742 -1.2871  0.4146
 5173SOL     OW17525   3.301   1.661   4.791  0.5040  0.2874  0.1045
 5173SOL    HW117526   3.326   1.569   4.801  0.5097  0.3789  1.0445
 5173SOL    HW217527   3.330   1.702   4.872 -0.0388  0.9978 -0.0536
 5174SOL     OW17528   9.983   5.233   0.991  0.0858  0.5716 -0.8329
 5174SOL    HW117529   9.889   5.234   0.971 -0.0412  0.7566 -0.2548
 5174SOL    HW217530  10.007   5.140   0.988  0.0033  0.5673 -1.5000
 5175SOL     OW17531   9.669   6.890   5.584 -0.3401  0.6516  0.8731
 5175SOL    HW117532   9.617   6.816   5.554  2.0640 -0.3293 -1.3048
 5175SOL    HW217533   9.684   6.874   5.677 -1.4023 -0.5955  0.8415
 5176SOL     OW17534   4.480   5.721   4.799 -0.4320  0.3055  0.0554
 5176SOL    HW117535   4.496   5.640   4.847  0.4018  1.5371  1.9624
 5176SOL    HW217536   4.393   5.749   4.829 -0.2543  0.6717  0.2209
 5177SOL     OW17537   9.992   7.979   2.478  0.1230 -0.6886  0.0266
 5177SOL    HW117538   9.996   7.993   2.383 -1.5327 -0.6744 -0.0725
 5177SOL    HW217539   9.975   8.066   2.514  2.7078 -0.3142  0.5625
 5178SOL     OW17540   2.842   7.312   1.809 -0.0344  0.1704 -0.5451
 5178SOL    HW117541   2.820   7.250   1.740 -1.4162 -0.3958  0.3476
 5178SOL    HW217542   2.931   7.342   1.788  1.2158 -3.0286 -0.3806
 5179SOL     OW17543   8.517   6.025   4.593  0.0231 -0.5719  0.5093
 5179SOL    HW117544   8.461   5.953   4.564 -0.2195 -0.2729  0.2355
 5179SOL    HW217545   8.573   6.045   4.518 -0.1213 -0.2717  0.4793
 5180SOL     OW17546   1.218   3.059   0.004  0.0680  0.2601  0.9299
 5180SOL    HW117547   1.153   3.060  -0.066 -0.5922 -2.6670  1.3619
 5180SOL    HW217548   1.280   3.128  -0.019 -0.8712  0.3042 -1.7693
 5181SOL     OW17549   5.088  10.565   4.455 -0.2167 -0.0024 -0.3590
 5181SOL    HW117550   5.119  10.607   4.375 -0.6977  0.7701 -0.1489
 5181SOL    HW217551   5.142  10.603   4.524  2.0985 -2.6246 -0.5378
 5182SOL     OW17552   5.315   8.641   4.430 -0.3451 -0.7073 -0.1978
 5182SOL    HW117553   5.269   8.631   4.513  0.2190  0.4277  0.2674
 5182SOL    HW217554   5.371   8.564   4.424  0.0713 -0.4932  0.7828
 5183SOL     OW17555   4.511   8.846   8.943  0.1273  0.1501 -0.2865
 5183SOL    HW117556   4.565   8.924   8.953  0.3989 -0.0038 -0.5458
 5183SOL    HW217557   4.434   8.863   8.997 -0.6607  1.3701 -1.7010
 5184SOL     OW17558   7.484   6.023   5.645  0.2200  0.6498  0.3419
 5184SOL    HW117559   7.534   6.075   5.582  3.8321  0.3694  2.6955
 5184SOL    HW217560   7.507   6.060   5.730 -2.1020 -0.8688  1.7588
 5185SOL     OW17561   1.607   1.412   5.000  0.3770 -0.6193 -0.0343
 5185SOL    HW117562   1.642   1.485   4.949  0.5999 -1.0614 -0.5346
 5185SOL    HW217563   1.669   1.399   5.071 -0.6296  0.8768  1.1864
 5186SOL     OW17564   6.901  10.648   5.820 -0.1045 -0.0178 -0.0019
 5186SOL    HW117565   6.956  10.601   5.757  0.0847  0.3850 -0.1436
 5186SOL    HW217566   6.958  10.662   5.895 -0.1967 -0.1158  0.0863
 5187SOL     OW17567   1.081   7.010   8.756  0.0160 -0.5535  0.2784
 5187SOL    HW117568   1.102   6.967   8.839  0.1776 -0.5828  0.2219
 5187SOL    HW217569   1.039   6.942   8.704 -1.0574 -0.2610  0.7225
 5188SOL     OW17570   7.656   3.364   2.048  0.0778 -0.2575  0.1660
 5188SOL    HW117571   7.621   3.408   2.126 -2.5546 -1.7322 -0.0696
 5188SOL    HW217572   7.738   3.324   2.078  1.4066  2.7397  0.9652
 5189SOL     OW17573   6.408   1.707   0.396  0.8192 -0.4052 -0.4176
 5189SOL    HW117574   6.428   1.801   0.400 -1.7295  0.1798  0.6844
 5189SOL    HW217575   6.400   1.680   0.487 -0.5851 -1.1534 -0.7294
 5190SOL     OW17576   3.537   0.461   2.045  0.0662  0.1235 -1.0623
 5190SOL    HW117577   3.479   0.450   1.970  0.5892  1.6683 -1.7305
 5190SOL    HW217578   3.538   0.555   2.061  1.4788  0.0143 -0.3372
 5191SOL     OW17579   5.709   7.828   4.985  0.2541 -0.0116  0.6735
 5191SOL    HW117580   5.673   7.806   5.071  1.6008  1.1546  1.5841
 5191SOL    HW217581   5.700   7.747   4.934 -0.0072 -0.9228  2.1108
 5192SOL     OW17582   6.329   4.040   8.738 -0.4094 -0.6243  0.3985
 5192SOL    HW117583   6.305   3.948   8.737  3.1491 -1.6835  1.0474
 5192SOL    HW217584   6.316   4.070   8.648 -0.3519 -2.1352 -0.1299
 5193SOL     OW17585   6.639   6.041  10.527 -0.4297 -0.7952 -0.2309
 5193SOL    HW117586   6.592   6.120  10.502 -1.3869 -1.1143  0.4860
 5193SOL    HW217587   6.722   6.046  10.480  0.0100  1.1756  0.6565
 5194SOL     OW17588   7.273   0.251   6.540 -0.2960  0.3345  0.2948
 5194SOL    HW117589   7.262   0.156   6.542 -1.7843  0.5003  1.6308
 5194SOL    HW217590   7.235   0.278   6.457 -2.9158  0.0436  1.3196
 5195SOL     OW17591   2.661   2.432   9.236  0.4971  0.4814  0.5707
 5195SOL    HW117592   2.626   2.435   9.147 -1.5109 -2.8415  1.0524
 5195SOL    HW217593   2.584   2.440   9.292  1.2782 -0.6082  1.8811
 5196SOL     OW17594   3.422   9.371   5.146  0.2693  0.8311 -0.4431
 5196SOL    HW117595   3.358   9.330   5.205 -0.9697  0.0890 -2.1874
 5196SOL    HW217596   3.507   9.342   5.178 -0.5127 -2.8488 -1.2948
 5197SOL     OW17597   6.587   6.562  10.019  0.0067 -0.1314  0.6591
 5197SOL    HW117598   6.541   6.496  10.070  0.4979 -0.9851  0.0063
 5197SOL    HW217599   6.617   6.626  10.084 -0.8312 -0.3129  1.2443
 5198SOL     OW17600   4.405   7.934   6.587 -0.2371  0.2256 -0.2177
 5198SOL    HW117601   4.434   7.895   6.670 -1.8054  0.0039  0.2672
 5198SOL    HW217602   4.362   7.862   6.541  0.5675  0.3629 -1.2184
 5199SOL     OW17603   0.786  10.582   0.719 -0.6381  0.2495  0.9192
 5199SOL    HW117604   0.765  10.551   0.807  1.1503  0.3226  1.3990
 5199SOL    HW217605   0.763  10.508   0.662 -1.5200  0.0887  1.4614
 5200SOL     OW17606   4.537  10.184   8.167 -0.2515 -0.3348 -0.0511
 5200SOL    HW117607   4.475  10.249   8.133 -1.6460 -2.4734 -1.9766
 5200SOL    HW217608   4.623  10.218   8.143 -0.9485  0.6435 -1.3176
 5201SOL     OW17609   4.178   0.567   6.276  1.0910 -0.1627 -0.4481
 5201SOL    HW117610   4.182   0.473   6.292 -0.5930  0.0210  1.5115
 5201SOL    HW217611   4.257   0.602   6.316  1.2674 -0.6623 -0.3535
 5202SOL     OW17612   3.107   7.438   9.468 -0.5153 -0.3613 -0.0747
 5202SOL    HW117613   3.016   7.466   9.474 -0.6893 -1.1292  1.5277
 5202SOL    HW217614   3.154   7.494   9.530 -0.3920 -1.6785  1.0752
 5203SOL     OW17615  10.132   2.122   2.522 -0.1488 -0.0875  1.1391
 5203SOL    HW117616  10.059   2.062   2.507 -0.6342  0.6886  0.3652
 5203SOL    HW217617  10.164   2.143   2.434  0.6289  0.0594  1.4453
 5204SOL     OW17618   3.384   2.018   7.701 -0.1188 -0.4638 -0.0988
 5204SOL    HW117619   3.338   1.942   7.666  1.4853 -1.6835  0.3438
 5204SOL    HW217620   3.466   2.022   7.652 -0.4643  1.4422 -0.6104
 5205SOL     OW17621   3.491   2.751  10.231 -0.8950 -0.1925 -0.1629
 5205SOL    HW117622   3.508   2.669  10.184  1.0868 -0.3936  0.7707
 5205SOL    HW217623   3.396   2.759  10.232 -1.0897 -1.7200 -1.5420
 5206SOL     OW17624   5.529  10.962   1.995  0.1300 -0.2088 -0.1428
 5206SOL    HW117625   5.468  10.906   2.044  0.2740 -1.2315 -1.1162
 5206SOL    HW217626   5.484  10.979   1.912  1.3768 -1.3791 -1.0713
 5207SOL     OW17627  10.517  10.986   8.590 -0.2703  0.0908  0.3960
 5207SOL    HW117628  10.481  11.074   8.581  0.8257  0.7895  2.2037
 5207SOL    HW217629  10.556  10.967   8.505 -0.0071  1.6169  0.1445
 5208SOL     OW17630   0.277   8.258   8.558 -0.2415  0.2637 -0.6657
 5208SOL    HW117631   0.240   8.171   8.569 -1.5323  0.9329  0.4624
 5208SOL    HW217632   0.225   8.314   8.615 -0.1438  1.9758 -2.1709
 5209SOL     OW17633  10.374  10.827   5.383 -0.5063  0.0447 -0.2379
 5209SOL    HW117634  10.332  10.913   5.389 -0.5472 -0.0694  2.0301
 5209SOL    HW217635  10.302  10.765   5.398 -0.3257 -0.3612 -1.0149
 5210SOL     OW17636   9.994   7.383   3.013  0.3289 -0.2420  0.2701
 5210SOL    HW117637   9.977   7.425   2.929  2.6855  0.9305  0.2640
 5210SOL    HW217638  10.006   7.291   2.993 -1.7392 -0.4528 -0.2250
 5211SOL     OW17639   8.452   3.355  10.509 -0.0102 -0.2934  0.3277
 5211SOL    HW117640   8.470   3.432  10.563 -1.2189 -0.3367  0.8093
 5211SOL    HW217641   8.432   3.391  10.422 -0.2454 -0.0798  0.4676
 5212SOL     OW17642   7.751   5.750  10.269  0.1825 -0.5483 -0.7417
 5212SOL    HW117643   7.725   5.711  10.353  0.8751 -0.6712 -0.5828
 5212SOL    HW217644   7.670   5.749  10.217 -0.1440 -0.8926 -0.2424
 5213SOL     OW17645   4.414   1.208   9.667 -0.0781 -0.0544 -0.0486
 5213SOL    HW117646   4.416   1.126   9.718 -0.2716 -0.2289 -0.3173
 5213SOL    HW217647   4.325   1.241   9.679 -2.0576 -2.8241 -4.4750
 5214SOL     OW17648   2.458   5.101   3.208 -0.3163  0.0074  0.4122
 5214SOL    HW117649   2.460   5.052   3.291 -0.2204  0.0510  0.4352
 5214SOL    HW217650   2.417   5.185   3.231  0.3492  0.2966  0.5614
 5215SOL     OW17651   1.590   9.912   1.760  0.5362 -0.0184 -0.2351
 5215SOL    HW117652   1.506   9.926   1.805  0.5255 -0.1286 -0.2209
 5215SOL    HW217653   1.572   9.933   1.669  0.3957 -0.4140 -0.2989
 5216SOL     OW17654   1.777   4.801   3.847  0.1311  0.1387  0.3282
 5216SOL    HW117655   1.782   4.776   3.754 -0.8648  2.0097 -0.2805
 5216SOL    HW217656   1.820   4.886   3.851  1.1469 -0.3967  1.8393
 5217SOL     OW17657   6.492   0.843   9.921  0.3298 -0.3917 -0.6810
 5217SOL    HW117658   6.413   0.859   9.868  0.0110 -0.6808 -0.2981
 5217SOL    HW217659   6.464   0.860  10.011  1.2474  1.5247 -0.7098
 5218SOL     OW17660  11.070  10.689   4.932 -0.0691  0.0462 -0.0875
 5218SOL    HW117661  11.148  10.644   4.898 -0.5666 -0.1356 -1.0200
 5218SOL    HW217662  11.099  10.727   5.015  0.6485 -1.1358  0.2340
 5219SOL     OW17663   6.411   0.459   6.620 -0.1956  0.8984  0.5240
 5219SOL    HW117664   6.485   0.424   6.571  3.0481  3.5707  3.0404
 5219SOL    HW217665   6.407   0.552   6.595 -0.4746  1.5733  2.8299
 5220SOL     OW17666   5.212   2.898   1.918 -0.6134  0.4661 -0.1890
 5220SOL    HW117667   5.307   2.895   1.930 -0.3543  2.3896 -1.3367
 5220SOL    HW217668   5.199   2.869   1.828 -0.9252  1.7310 -0.5765
 5221SOL     OW17669   6.721   4.075   3.977  0.1023 -0.7999  0.6325
 5221SOL    HW117670   6.633   4.068   4.012  0.1612  0.3891  1.0957
 5221SOL    HW217671   6.723   4.161   3.934  0.6377 -1.3776 -0.5332
 5222SOL     OW17672   5.115   0.274   1.387  0.6284  0.0831  0.0805
 5222SOL    HW117673   5.033   0.269   1.436  0.7919 -0.4812  0.2987
 5222SOL    HW217674   5.119   0.365   1.357 -0.7065 -0.1754 -1.0118
 5223SOL     OW17675   1.407   5.167   0.281  0.0461 -0.4243  0.0028
 5223SOL    HW117676   1.322   5.206   0.302 -0.5397 -1.0392 -1.1450
 5223SOL    HW217677   1.466   5.242   0.268 -0.8066  0.0736 -1.1332
 5224SOL     OW17678   4.121   6.714   2.283  0.8746 -0.6506  0.7096
 5224SOL    HW117679   4.067   6.785   2.319  1.1043 -0.4379  0.6360
 5224SOL    HW217680   4.142   6.743   2.195  0.8217 -0.8924  0.6179
 5225SOL     OW17681   4.016   1.720   1.278  0.9667  0.3638  0.6617
 5225SOL    HW117682   3.988   1.802   1.318 -0.8418 -0.4947  1.2825
 5225SOL    HW217683   4.019   1.739   1.184 -2.1717  0.5057  0.4727
 5226SOL     OW17684  10.410   9.702   1.513 -0.5038 -0.5401 -0.0070
 5226SOL    HW117685  10.320   9.671   1.505 -0.4661 -0.6437 -0.0287
 5226SOL    HW217686  10.402   9.796   1.530 -0.6159 -0.5480 -0.0205
 5227SOL     OW17687  10.427   1.745   1.173 -0.2977  0.5173 -0.1547
 5227SOL    HW117688  10.515   1.711   1.157 -1.3263 -1.8935 -1.1425
 5227SOL    HW217689  10.411   1.725   1.266 -0.6123 -1.2109 -0.5382
 5228SOL     OW17690   1.113   7.794   7.391 -0.4930  0.2789  0.5286
 5228SOL    HW117691   1.134   7.887   7.381 -1.8710  0.7617  1.8070
 5228SOL    HW217692   1.089   7.766   7.303 -0.3541  1.2146  0.1808
 5229SOL     OW17693   2.339   2.220   9.392  0.5123 -0.6775  0.1099
 5229SOL    HW117694   2.313   2.132   9.365 -2.0147  0.3932 -1.2796
 5229SOL    HW217695   2.307   2.228   9.482 -0.3017 -0.8021 -0.1631
 5230SOL     OW17696   7.890   5.737   0.427 -0.4128  0.6941  0.0255
 5230SOL    HW117697   7.976   5.706   0.399 -0.9932 -1.4062  0.3864
 5230SOL    HW217698   7.905   5.828   0.455  1.6575  0.4088  0.0058
 5231SOL     OW17699   9.350   0.627   1.612 -0.2879  0.0207  0.2721
 5231SOL    HW117700   9.335   0.722   1.605 -1.3020 -0.2368 -3.5563
 5231SOL    HW217701   9.268   0.592   1.645 -1.7469  0.2239 -2.7846
 5232SOL     OW17702   1.218  10.525   9.823 -0.3211  0.1817  0.1386
 5232SOL    HW117703   1.268  10.604   9.841 -0.2724 -0.0641  1.1774
 5232SOL    HW217704   1.179  10.501   9.908  1.7943 -2.3791  0.5184
 5233SOL     OW17705   6.339   9.454   9.141 -0.5133  0.1449  0.0076
 5233SOL    HW117706   6.398   9.525   9.113 -0.5192  0.1305 -0.0406
 5233SOL    HW217707   6.256   9.474   9.099 -0.6501  0.3738  0.3749
 5234SOL     OW17708   1.184   6.261   9.909 -0.8325  0.6237 -0.0113
 5234SOL    HW117709   1.273   6.256   9.943 -0.2354 -0.8252 -1.6742
 5234SOL    HW217710   1.131   6.283   9.986  0.7599  0.0091  1.3182
 5235SOL     OW17711   3.311  10.777   8.651 -0.4177  0.3455 -0.6259
 5235SOL    HW117712   3.347  10.818   8.730  1.3543 -0.6216 -0.8711
 5235SOL    HW217713   3.339  10.834   8.580  1.7462 -0.9705 -0.9310
 5236SOL     OW17714   9.419   7.803   4.673  0.3655  0.0724 -0.3357
 5236SOL    HW117715   9.372   7.849   4.743 -1.0616  0.2109 -1.3609
 5236SOL    HW217716   9.506   7.844   4.673  0.1732  0.5353  0.9013
 5237SOL     OW17717   0.161  10.898  10.181 -0.4817  0.1926  0.0207
 5237SOL    HW117718   0.179  10.810  10.148 -0.0948  0.3078 -0.0703
 5237SOL    HW217719   0.175  10.955  10.106 -0.5758  0.3520  0.1236
 5238SOL     OW17720   4.637   6.928   8.047 -0.3186  0.6285  0.0861
 5238SOL    HW117721   4.699   6.909   8.117  2.2966 -0.4518 -2.3057
 5238SOL    HW217722   4.670   6.878   7.972 -3.8118  0.4881 -1.5287
 5239SOL     OW17723   4.922   1.035   7.335 -0.2026  0.1949  0.0774
 5239SOL    HW117724   5.006   1.073   7.312  0.7790 -0.8631  1.7461
 5239SOL    HW217725   4.929   1.013   7.428 -1.8216 -1.1923 -0.0666
 5240SOL     OW17726   1.747   2.761   2.793 -0.1860  0.0629  0.4198
 5240SOL    HW117727   1.672   2.764   2.733  0.6141 -0.9867 -0.6824
 5240SOL    HW217728   1.760   2.667   2.810 -0.6004  0.3422  2.5431
 5241SOL     OW17729   0.447   8.520   9.058 -0.0031 -0.4905  0.3309
 5241SOL    HW117730   0.476   8.599   9.103  2.6183 -0.9825 -0.3093
 5241SOL    HW217731   0.352   8.517   9.072 -0.4701  3.4795 -0.7657
 5242SOL     OW17732   0.396   1.375   0.253  0.4865  0.2342  0.5381
 5242SOL    HW117733   0.306   1.408   0.263  1.1580  1.5514  2.7412
 5242SOL    HW217734   0.414   1.384   0.159 -1.4723  0.4340  0.1294
 5243SOL     OW17735   2.312   1.123  10.591  0.1424  0.5104 -0.3132
 5243SOL    HW117736   2.310   1.218  10.602  0.0387  0.4142  0.5641
 5243SOL    HW217737   2.398   1.097  10.623 -0.9479 -0.0063  2.4019
 5244SOL     OW17738   2.357   1.254   7.156  0.2208  0.3275  0.5379
 5244SOL    HW117739   2.297   1.185   7.128  1.0897  0.7549 -2.9311
 5244SOL    HW217740   2.302   1.331   7.166 -0.1977  0.0855  0.1702
 5245SOL     OW17741   0.440   3.194  10.946 -0.2389  0.9529  0.3644
 5245SOL    HW117742   0.409   3.124  10.888 -2.1935  0.4362  1.9176
 5245SOL    HW217743   0.529   3.213  10.915 -1.2918  1.0396 -3.0514
 5246SOL     OW17744   3.346   2.466   1.004 -0.0450  0.5354 -0.3414
 5246SOL    HW117745   3.281   2.532   1.025  1.1435  1.3189  1.0530
 5246SOL    HW217746   3.390   2.447   1.087  1.7585  0.3387 -1.2714
 5247SOL     OW17747   3.130   2.363   9.574  0.2075 -0.2318  0.4668
 5247SOL    HW117748   3.056   2.348   9.516  0.3509 -0.2352  0.2807
 5247SOL    HW217749   3.132   2.288   9.632 -0.2120 -0.0094  0.7740
 5248SOL     OW17750   8.688   0.160  10.796  0.0669 -0.2253  0.4538
 5248SOL    HW117751   8.629   0.116  10.734 -0.3403  1.0038 -0.0472
 5248SOL    HW217752   8.633   0.224  10.841  0.7699  0.1467  0.8020
 5249SOL     OW17753   8.138   3.513   4.993  1.2785 -0.3093  0.2968
 5249SOL    HW117754   8.045   3.521   5.014  0.9125 -0.3136 -1.1780
 5249SOL    HW217755   8.138   3.480   4.903  2.7102  0.2340  0.0849
 5250SOL     OW17756   1.373   2.176   8.019  0.5380 -0.0035  0.2668
 5250SOL    HW117757   1.364   2.133   7.934  2.9282  0.5373 -0.3332
 5250SOL    HW217758   1.338   2.112   8.081 -0.1620 -0.9022 -0.9835
 5251SOL     OW17759   7.234   5.725   4.650  0.2854 -0.1985 -0.0136
 5251SOL    HW117760   7.326   5.734   4.677  0.1792  0.3680  0.1700
 5251SOL    HW217761   7.230   5.639   4.607  0.8043 -0.4160  0.3648
 5252SOL     OW17762   2.970  10.823   6.483 -0.7640  0.0679  0.6524
 5252SOL    HW117763   2.971  10.728   6.471  0.8358  0.0142  0.9719
 5252SOL    HW217764   2.953  10.859   6.396 -2.4945 -0.4915  0.7129
 5253SOL     OW17765  10.470   4.761   2.367  0.2928 -0.6627 -0.7781
 5253SOL    HW117766  10.422   4.839   2.393  0.8079  0.3567 -2.7423
 5253SOL    HW217767  10.546   4.759   2.426 -1.3193 -1.5153  1.3971
 5254SOL     OW17768   9.810   0.793   0.056 -0.4533 -0.1390  0.2002
 5254SOL    HW117769   9.856   0.832   0.131  1.5614  0.3602 -1.2046
 5254SOL    HW217770   9.731   0.846   0.046 -0.6065 -0.0316  1.7619
 5255SOL     OW17771  10.298   4.090   3.751  0.0954  0.1028  0.2372
 5255SOL    HW117772  10.370   4.147   3.777 -0.3008  0.3710  0.7699
 5255SOL    HW217773  10.306   4.083   3.656  1.8988 -1.3299  0.4339
 5256SOL     OW17774  10.362   4.783   4.262  0.1375 -0.3407 -0.2732
 5256SOL    HW117775  10.441   4.794   4.208  0.2943  0.9519  0.1962
 5256SOL    HW217776  10.296   4.751   4.201  1.2455 -2.4323 -0.4962
 5257SOL     OW17777   1.361   1.125   6.208 -0.1026  0.3527  0.0656
 5257SOL    HW117778   1.444   1.167   6.233  0.4996 -0.2898 -0.7957
 5257SOL    HW217779   1.296   1.167   6.264  0.5480  2.0788 -0.3994
 5258SOL     OW17780   8.283   8.133   5.153  0.8663  0.1111 -0.0943
 5258SOL    HW117781   8.298   8.050   5.199 -1.3757 -1.8612 -2.6388
 5258SOL    HW217782   8.203   8.168   5.192 -0.0794 -0.6886 -1.2879
 5259SOL     OW17783   7.761   7.255   2.937 -0.6952  0.4807  0.3215
 5259SOL    HW117784   7.807   7.279   3.017  1.1886  1.2846 -0.9118
 5259SOL    HW217785   7.803   7.308   2.869  0.0775 -2.4977 -1.7398
 5260SOL     OW17786   1.456   5.496   7.978 -0.1989  0.3192 -0.3916
 5260SOL    HW117787   1.520   5.491   7.908  1.2926  0.4179  0.9256
 5260SOL    HW217788   1.435   5.405   7.998 -3.2421  0.2298 -3.1720
 5261SOL     OW17789   0.216   2.740   3.776  0.4904  0.4963 -0.2587
 5261SOL    HW117790   0.272   2.811   3.808 -0.6552  1.1316  0.4013
 5261SOL    HW217791   0.271   2.662   3.783  1.7778  1.2990 -1.0052
 5262SOL     OW17792   2.383   4.390   8.254  0.5059  0.1047 -0.0005
 5262SOL    HW117793   2.293   4.365   8.234  0.2730  0.0874  1.0042
 5262SOL    HW217794   2.375   4.478   8.291  1.0022  0.4531 -0.6846
 5263SOL     OW17795   2.592   0.639   7.421  0.8606  0.0152 -0.7689
 5263SOL    HW117796   2.508   0.663   7.381 -1.3603  1.1761  3.9631
 5263SOL    HW217797   2.584   0.545   7.439 -0.3274  0.4393  1.2315
 5264SOL     OW17798   6.814   9.992   7.649 -0.0010 -0.5328  0.5334
 5264SOL    HW117799   6.871  10.052   7.698 -0.5429  0.0830  0.4111
 5264SOL    HW217800   6.812   9.913   7.703 -2.2129  0.8191  2.6017
 5265SOL     OW17801  10.067   2.017   8.182 -0.1924  0.0365 -0.0502
 5265SOL    HW117802  10.139   2.067   8.221  1.0247 -0.0463 -2.0331
 5265SOL    HW217803  10.033   2.075   8.113  0.9123 -1.6016 -2.0587
 5266SOL     OW17804   0.654   6.207   6.638 -0.0682 -0.2942 -0.0632
 5266SOL    HW117805   0.679   6.175   6.725 -0.6668 -0.0703  0.1945
 5266SOL    HW217806   0.680   6.299   6.639 -1.1239  0.0145  0.3065
 5267SOL     OW17807   8.866   6.246  10.185 -0.0510  0.0649  0.0417
 5267SOL    HW117808   8.867   6.299  10.105  0.7823 -0.4944 -0.3336
 5267SOL    HW217809   8.957   6.244  10.213  0.5106 -3.3956 -1.4871
 5268SOL     OW17810   6.211   6.922   8.009 -0.1935  0.0015 -0.1084
 5268SOL    HW117811   6.256   6.885   8.086  2.2812 -1.4448 -2.0978
 5268SOL    HW217812   6.199   7.014   8.031  1.5206 -0.1080  1.5981
 5269SOL     OW17813   4.529   0.145   1.120 -0.0807  0.0114  0.0284
 5269SOL    HW117814   4.481   0.064   1.134  2.8574 -2.3513 -2.1814
 5269SOL    HW217815   4.592   0.149   1.192 -2.0681  2.0162  1.7779
 5270SOL     OW17816   1.626   6.459   8.541  0.1561  0.0849 -0.2270
 5270SOL    HW117817   1.607   6.440   8.449  2.1131 -0.7133 -0.5131
 5270SOL    HW217818   1.676   6.540   8.538 -0.0379  0.2196  0.1724
 5271SOL     OW17819   3.953   0.759   4.639  0.1525  0.5874  0.0546
 5271SOL    HW117820   3.935   0.676   4.596 -0.6734  0.7784  0.0028
 5271SOL    HW217821   4.048   0.769   4.635  0.5192 -1.4229  2.0801
 5272SOL     OW17822   6.201   3.045   6.298 -0.2205  0.2594  0.3594
 5272SOL    HW117823   6.274   3.105   6.281  2.5826 -3.3561 -2.0720
 5272SOL    HW217824   6.149   3.048   6.218  0.2677 -0.8327 -0.0229
 5273SOL     OW17825   6.824   9.861   0.717 -0.0938 -0.2236  0.3121
 5273SOL    HW117826   6.889   9.828   0.779 -0.3213  0.4397  0.9173
 5273SOL    HW217827   6.856   9.949   0.695 -1.1081  0.3461  1.0840
 5274SOL     OW17828   0.804   5.679   1.156 -0.2476  0.6059  0.0552
 5274SOL    HW117829   0.860   5.757   1.163 -2.3538  2.3873 -1.5811
 5274SOL    HW217830   0.735   5.695   1.220 -0.7293  0.1191 -0.3404
 5275SOL     OW17831   7.647   9.051   9.473 -0.5555 -0.5502 -0.1047
 5275SOL    HW117832   7.667   9.132   9.427 -0.8500 -0.3669  0.0838
 5275SOL    HW217833   7.590   9.003   9.412  0.3253 -1.0096 -0.5803
 5276SOL     OW17834   9.698   7.322   1.127  0.4383  0.0627  0.2416
 5276SOL    HW117835   9.723   7.280   1.209  1.2290  1.2689  0.6557
 5276SOL    HW217836   9.777   7.319   1.073 -0.8679 -3.5018 -1.8052
 5277SOL     OW17837   6.375   9.972   5.744  0.8408  1.0286  0.7877
 5277SOL    HW117838   6.327   9.949   5.823  0.7261  1.8066  0.9566
 5277SOL    HW217839   6.371   9.894   5.689  0.5169  0.6444  1.3533
 5278SOL     OW17840   8.974   1.636   0.901 -0.6871 -0.0940 -0.5844
 5278SOL    HW117841   9.065   1.639   0.932 -0.7439  2.0367 -0.4409
 5278SOL    HW217842   8.923   1.617   0.979 -0.5514  1.8103  0.0425
 5279SOL     OW17843   4.095   4.074   1.901 -0.1929  0.2803  0.3681
 5279SOL    HW117844   4.029   4.135   1.867  0.5913  2.1943  2.1220
 5279SOL    HW217845   4.177   4.102   1.861 -0.3225 -2.2041 -1.9460
 5280SOL     OW17846   3.059   7.058   0.956 -1.1830  0.1835  0.1630
 5280SOL    HW117847   3.047   7.012   0.873 -0.8612  0.1453  0.1352
 5280SOL    HW217848   3.143   7.025   0.989 -1.6932 -0.4178  0.9006
 5281SOL     OW17849   0.583   5.288   5.444  0.4347  0.4619 -0.2475
 5281SOL    HW117850   0.677   5.302   5.434  0.2897  1.0857 -0.7944
 5281SOL    HW217851   0.546   5.376   5.450 -0.1470  0.2283 -0.3365
 5282SOL     OW17852   0.032   8.176   2.420 -0.1531  0.0067 -0.1783
 5282SOL    HW117853   0.107   8.131   2.380 -1.1515 -0.6979 -1.3174
 5282SOL    HW217854   0.066   8.262   2.444  0.7125  0.1919 -1.8882
 5283SOL     OW17855   7.479  10.915   0.033  0.1679 -0.4108  0.2097
 5283SOL    HW117856   7.537  10.969  -0.020 -0.2685  1.3043  1.3844
 5283SOL    HW217857   7.461  10.838  -0.021 -0.5090  1.3714 -2.2425
 5284SOL     OW17858  10.649   2.019   3.554  0.0660 -0.0533 -0.3432
 5284SOL    HW117859  10.673   2.111   3.556  2.9363 -0.6908 -1.0779
 5284SOL    HW217860  10.615   2.001   3.642 -1.9536  1.9598 -0.6301
 5285SOL     OW17861   3.019   5.797  10.667 -0.1242  0.3760  0.1612
 5285SOL    HW117862   3.077   5.824  10.595 -1.9389 -0.3106 -1.6440
 5285SOL    HW217863   3.074   5.803  10.745  1.8799  1.3562 -1.2358
 5286SOL     OW17864   6.280  10.777   7.648 -0.2611  0.1530  0.4200
 5286SOL    HW117865   6.228  10.810   7.721 -1.4868 -0.0260 -0.3313
 5286SOL    HW217866   6.278  10.847   7.583 -1.6781 -0.7821 -0.6069
 5287SOL     OW17867   2.495   5.093   2.700  0.3070  0.5644 -0.3378
 5287SOL    HW117868   2.458   5.080   2.788  2.4764  1.3363  0.7774
 5287SOL    HW217869   2.493   5.006   2.660  0.2258 -0.0220  0.8945
 5288SOL     OW17870   9.149   9.451   4.836 -0.9770  1.1658 -0.0681
 5288SOL    HW117871   9.137   9.526   4.895 -0.4679  1.3649 -0.2161
 5288SOL    HW217872   9.236   9.463   4.799 -0.9566  0.5845 -0.2171
 5289SOL     OW17873   1.572   4.558   9.837 -0.1450  0.7676 -0.0347
 5289SOL    HW117874   1.522   4.540   9.758 -0.0492  1.5889 -0.2942
 5289SOL    HW217875   1.545   4.491   9.899 -1.3782  1.0450 -0.2547
 5290SOL     OW17876   6.733   3.762   7.315  0.0689  0.0602 -0.1525
 5290SOL    HW117877   6.745   3.857   7.308 -0.6594  0.1913  0.2270
 5290SOL    HW217878   6.820   3.729   7.337  0.2039  0.7193  0.3652
 5291SOL     OW17879   2.504   5.596   0.765  0.1117 -0.0699  0.1746
 5291SOL    HW117880   2.431   5.563   0.818 -0.8511  1.6611 -0.0081
 5291SOL    HW217881   2.559   5.645   0.826 -0.9006  1.7686 -0.3035
 5292SOL     OW17882   4.601  10.216   4.518 -0.2914 -0.2966  0.6537
 5292SOL    HW117883   4.619  10.141   4.462 -0.8512 -2.4311  3.1152
 5292SOL    HW217884   4.673  10.216   4.582 -0.6632  0.8664  1.0989
 5293SOL     OW17885  10.716  10.240   2.541  0.6782  0.1870 -0.3096
 5293SOL    HW117886  10.631  10.271   2.572 -0.2771 -1.3124 -1.2985
 5293SOL    HW217887  10.765  10.221   2.620  0.5496  2.1494  0.2999
 5294SOL     OW17888   9.239   8.280   2.928 -0.3650 -0.0834  0.3870
 5294SOL    HW117889   9.250   8.192   2.965 -1.6276 -0.7041 -0.5909
 5294SOL    HW217890   9.304   8.333   2.972  0.0982 -1.4056  1.3810
 5295SOL     OW17891   5.874  10.532   2.270  0.4127  0.5342  0.7329
 5295SOL    HW117892   5.932  10.473   2.318  2.0075  1.0146 -0.5019
 5295SOL    HW217893   5.929  10.569   2.201 -1.7825 -0.2820 -1.6309
 5296SOL     OW17894   7.338   3.654   7.321 -0.0062 -0.1385  0.1792
 5296SOL    HW117895   7.299   3.570   7.345  1.5932 -1.3603 -1.2725
 5296SOL    HW217896   7.409   3.667   7.383 -0.1557  0.0620  0.3081
 5297SOL     OW17897   6.184   8.287   8.186 -0.2162 -0.3100 -0.3767
 5297SOL    HW117898   6.134   8.338   8.250 -0.5001  0.2889 -1.0705
 5297SOL    HW217899   6.124   8.217   8.160  0.4716 -1.5848  1.2286
 5298SOL     OW17900  10.078   4.731   4.327 -1.1187 -0.1507 -0.8155
 5298SOL    HW117901  10.011   4.779   4.278 -1.7018  0.9582  0.9862
 5298SOL    HW217902  10.031   4.659   4.369 -0.3093 -2.2350 -3.2172
 5299SOL     OW17903   6.817   2.072   0.925  0.6469  0.2167 -0.1666
 5299SOL    HW117904   6.873   2.004   0.889  0.4444 -0.8373  1.4136
 5299SOL    HW217905   6.873   2.118   0.988  0.4169  0.7270 -0.3232
 5300SOL     OW17906   0.119   5.322   0.644  0.0416 -0.0949 -0.6591
 5300SOL    HW117907   0.209   5.291   0.658 -0.0834 -1.8005 -2.8741
 5300SOL    HW217908   0.065   5.244   0.658 -1.3682  1.3007  2.3530
 5301SOL     OW17909   9.397   3.255  10.587  0.6352  0.3962 -0.0763
 5301SOL    HW117910   9.354   3.339  10.601 -1.7058 -0.7466  0.0994
 5301SOL    HW217911   9.435   3.232  10.671  0.5527  0.8879  0.0959
 5302SOL     OW17912   1.753   1.409   4.688 -0.1954  1.0415 -0.2321
 5302SOL    HW117913   1.745   1.327   4.639  0.6779  0.6565  0.2387
 5302SOL    HW217914   1.765   1.476   4.620  2.5194  0.3259 -0.5799
 5303SOL     OW17915   0.753   2.976   3.070  0.4667 -0.2190  0.0579
 5303SOL    HW117916   0.752   2.888   3.033 -0.9236 -0.3597  0.3483
 5303SOL    HW217917   0.685   3.024   3.021 -1.9477 -0.6150  2.7337
 5304SOL     OW17918   9.902   8.722   7.975 -0.0353 -0.3816  0.5289
 5304SOL    HW117919   9.832   8.702   7.912  1.6392  0.1181 -1.6030
 5304SOL    HW217920   9.857   8.767   8.046 -1.8133  0.6069 -1.1075
 5305SOL     OW17921  10.697   5.024   8.800 -0.3034  0.2402 -0.3164
 5305SOL    HW117922  10.702   4.929   8.801  0.2544  0.2616 -0.2945
 5305SOL    HW217923  10.640   5.045   8.727 -1.0367 -0.1292  0.1386
 5306SOL     OW17924   5.901   3.207  10.781  0.2099 -0.2188  0.1921
 5306SOL    HW117925   5.920   3.300  10.798  2.0820 -0.5141 -0.0369
 5306SOL    HW217926   5.858   3.207  10.696  2.3597  0.3271 -0.9872
 5307SOL     OW17927   5.554   3.759   0.242 -0.2542  0.0102 -0.1056
 5307SOL    HW117928   5.510   3.749   0.326 -0.8557 -1.2755 -0.5493
 5307SOL    HW217929   5.507   3.831   0.199  1.0125  1.7150  1.2123
 5308SOL     OW17930   8.817   7.863   4.112 -0.6802  0.5296 -0.0442
 5308SOL    HW117931   8.732   7.886   4.151 -0.8873 -1.6908  0.9286
 5308SOL    HW217932   8.882   7.889   4.177 -0.6535  1.4118 -0.4093
 5309SOL     OW17933   6.507   7.584  10.953  0.0531  0.2500  0.1472
 5309SOL    HW117934   6.462   7.650  11.005 -2.7245 -0.5075 -1.0966
 5309SOL    HW217935   6.489   7.501  10.998  1.2961  0.0377  0.2882
 5310SOL     OW17936   6.587   2.496   8.488 -0.5526  0.3401 -0.3392
 5310SOL    HW117937   6.567   2.560   8.420  0.1895  4.3989  2.8035
 5310SOL    HW217938   6.672   2.460   8.464  1.3688  4.2467 -0.1077
 5311SOL     OW17939   1.790   0.317   9.577 -0.2465  0.5399 -0.1198
 5311SOL    HW117940   1.805   0.341   9.668 -0.6888 -0.2140  0.1621
 5311SOL    HW217941   1.866   0.352   9.530  0.4837  0.0769  0.6863
 5312SOL     OW17942   3.799   1.663  11.071  0.5583  0.2369  0.0814
 5312SOL    HW117943   3.728   1.723  11.050  1.4321  1.4792  0.5995
 5312SOL    HW217944   3.847   1.653  10.988  0.6209  0.5400  0.0809
 5313SOL     OW17945   9.367   6.733   4.256  0.3894  0.2056 -0.2106
 5313SOL    HW117946   9.457   6.746   4.284 -0.4877  0.9777  2.4887
 5313SOL    HW217947   9.335   6.821   4.234  0.4063 -0.1277 -1.6842
 5314SOL     OW17948   8.516   0.130  10.007 -0.0562 -0.6228  0.4327
 5314SOL    HW117949   8.487   0.215  10.040  1.5458 -0.3592  1.2658
 5314SOL    HW217950   8.533   0.078  10.086  1.2517 -0.8937 -0.0032
 5315SOL     OW17951  10.212   4.683   4.049  0.0085  0.5955  0.1561
 5315SOL    HW117952  10.143   4.635   4.095  0.9448 -2.8386 -1.6170
 5315SOL    HW217953  10.165   4.747   3.995 -1.7132 -0.7072  0.0191
 5316SOL     OW17954   8.629   6.524   7.393  0.3845  0.5764  0.3122
 5316SOL    HW117955   8.543   6.486   7.377  0.7044 -0.2891  0.5516
 5316SOL    HW217956   8.613   6.616   7.412 -0.1919  1.4105 -3.3771
 5317SOL     OW17957  10.467   1.478   4.831  0.1423 -0.1049  0.7251
 5317SOL    HW117958  10.465   1.565   4.791  1.2199 -1.0531 -1.6078
 5317SOL    HW217959  10.390   1.475   4.887 -0.1005  2.2179  0.5974
 5318SOL     OW17960   8.584   2.550   0.964 -0.6282 -0.2762 -0.2756
 5318SOL    HW117961   8.500   2.506   0.949 -1.0871  0.4165  0.2043
 5318SOL    HW217962   8.645   2.478   0.981 -1.2260 -0.7735 -0.1680
 5319SOL     OW17963   1.299  10.375   1.132 -1.0707  0.0107 -0.0062
 5319SOL    HW117964   1.277  10.287   1.104 -0.0126  0.8111 -3.8707
 5319SOL    HW217965   1.378  10.364   1.186 -0.4554 -1.3576 -1.1225
 5320SOL     OW17966   2.920   9.483   1.681 -0.8280  0.0780  0.3689
 5320SOL    HW117967   2.969   9.490   1.763  2.0561  3.1074 -1.3443
 5320SOL    HW217968   2.889   9.572   1.664 -2.5493 -0.7489 -1.1903
 5321SOL     OW17969  10.804   3.951  10.333 -0.0154 -0.2175 -0.7812
 5321SOL    HW117970  10.822   4.016  10.401 -0.6627 -0.4947 -0.3224
 5321SOL    HW217971  10.782   3.871  10.382 -1.7765 -0.0765 -1.2655
 5322SOL     OW17972   2.291  10.041   6.975 -0.8054  0.1757 -0.3640
 5322SOL    HW117973   2.326  10.052   6.887 -1.5070 -0.1585 -0.6932
 5322SOL    HW217974   2.293   9.947   6.990  1.4007  0.3465  0.8673
 5323SOL     OW17975   9.597   8.880   2.320  0.5837 -0.6605 -0.3758
 5323SOL    HW117976   9.602   8.927   2.237  0.6951 -1.2038 -0.6780
 5323SOL    HW217977   9.576   8.948   2.384 -0.3871 -0.3711 -0.9713
 5324SOL     OW17978   7.894  10.783  10.327 -0.5637  0.6966  0.0074
 5324SOL    HW117979   7.863  10.867  10.293  0.0533  1.5258  1.3902
 5324SOL    HW217980   7.944  10.806  10.405 -1.1008 -1.0330  0.9103
 5325SOL     OW17981   7.017   8.281   2.413 -0.4678  0.5561  0.3300
 5325SOL    HW117982   7.044   8.367   2.446 -1.1574  0.4149  1.3190
 5325SOL    HW217983   7.063   8.271   2.330  0.9837  1.1217  1.0435
 5326SOL     OW17984   9.386   5.099   4.041  0.1565  0.0181  0.1358
 5326SOL    HW117985   9.368   5.043   4.116 -0.9821 -0.5959 -0.5661
 5326SOL    HW217986   9.347   5.184   4.064 -1.2933 -0.5234 -0.2471
 5327SOL     OW17987  11.017   0.517   3.622 -0.0173  0.7242 -0.2391
 5327SOL    HW117988  10.989   0.516   3.714 -0.0666  3.3791 -0.1505
 5327SOL    HW217989  11.041   0.426   3.604  1.6262  0.3666  2.9125
 5328SOL     OW17990   1.435   9.848   5.171 -0.5187  0.4529  0.2980
 5328SOL    HW117991   1.390   9.888   5.245  1.6397  0.8889  1.4599
 5328SOL    HW217992   1.514   9.900   5.160 -0.9669  0.6580 -2.6397
 5329SOL     OW17993   6.060   6.079   7.640  0.0367  0.2131  0.1647
 5329SOL    HW117994   6.126   6.110   7.702 -0.3320  0.8211  0.2632
 5329SOL    HW217995   6.049   5.986   7.661 -1.0740  0.7030  1.9323
 5330SOL     OW17996   8.031   6.698   1.374  0.3866 -0.1891 -0.1355
 5330SOL    HW117997   7.966   6.636   1.340  0.2120 -0.0880  0.0157
 5330SOL    HW217998   7.987   6.743   1.445 -0.3396  1.8577 -1.7782
 5331SOL     OW17999   7.411   3.826   0.745  0.1764 -0.0356 -0.0769
 5331SOL    HW118000   7.374   3.781   0.669 -0.5654 -0.9262  0.7927
 5331SOL    HW218001   7.340   3.882   0.777 -0.0761 -0.9059  0.9282
 5332SOL     OW18002   5.822   7.172   7.514  0.3080 -0.5656  0.1636
 5332SOL    HW118003   5.828   7.258   7.474 -0.0925 -0.6868 -0.1679
 5332SOL    HW218004   5.738   7.172   7.561 -0.5485 -1.3535 -1.2776
 5333SOL     OW18005   5.513   6.160   7.430 -0.1261  0.0987  0.0738
 5333SOL    HW118006   5.558   6.157   7.515 -0.3290 -2.1591  0.1557
 5333SOL    HW218007   5.421   6.169   7.453  0.0137  2.1867 -0.0263
 5334SOL     OW18008   8.979   0.167   7.057  0.1948 -0.0454  0.0750
 5334SOL    HW118009   8.884   0.163   7.044  0.4933 -0.6838 -2.2628
 5334SOL    HW218010   9.016   0.121   6.982  2.3544 -1.4147  1.8310
 5335SOL     OW18011   2.126   9.748   5.944  0.2505 -0.1114  0.4141
 5335SOL    HW118012   2.216   9.744   5.976 -0.2375  0.3025  1.9184
 5335SOL    HW218013   2.078   9.794   6.013 -1.0474 -0.0135 -0.5246
 5336SOL     OW18014   0.682   9.529   9.957 -0.5708  0.2045 -0.0712
 5336SOL    HW118015   0.742   9.505  10.028 -0.1910  1.8029  0.1735
 5336SOL    HW218016   0.596   9.531   9.997 -0.5606 -0.3660 -0.0125
 5337SOL     OW18017   1.580   8.027  10.072  0.7601  0.1553 -0.3700
 5337SOL    HW118018   1.546   8.112  10.100  1.3835  0.3255 -0.0900
 5337SOL    HW218019   1.675   8.035  10.083  0.8000 -0.7013 -0.0051
 5338SOL     OW18020   3.092   4.397   5.429  0.5538 -0.5312 -0.5270
 5338SOL    HW118021   3.051   4.467   5.480  0.4331  0.0634 -1.4273
 5338SOL    HW218022   3.180   4.430   5.411  0.3865 -0.4694 -1.2341
 5339SOL     OW18023   9.623  11.045   5.325  0.3308 -0.0690  0.4146
 5339SOL    HW118024   9.649  10.953   5.331 -1.2135 -0.5342  0.3685
 5339SOL    HW218025   9.630  11.078   5.414  2.9192  0.4098  0.1313
 5340SOL     OW18026  10.817   8.664   9.355 -0.1824 -0.5697 -0.5746
 5340SOL    HW118027  10.906   8.676   9.388  0.0288 -1.6422 -0.7106
 5340SOL    HW218028  10.782   8.753   9.346  0.9612 -0.1303 -0.7769
 5341SOL     OW18029   9.754   7.630   9.880 -0.2267  0.0919  0.2437
 5341SOL    HW118030   9.659   7.644   9.879 -0.5513 -1.8096  0.1423
 5341SOL    HW218031   9.789   7.705   9.927 -1.7274  1.0950 -0.1614
 5342SOL     OW18032   5.070   0.099   3.833  0.3819  0.1236  0.2144
 5342SOL    HW118033   5.014   0.155   3.888 -0.6037 -2.0960  1.6214
 5342SOL    HW218034   5.039   0.114   3.744  1.0295  2.7278  0.3401
 5343SOL     OW18035   8.410   5.153   0.163 -0.3449  0.3514 -0.1439
 5343SOL    HW118036   8.429   5.145   0.069  0.3703 -1.1037  0.0927
 5343SOL    HW218037   8.381   5.065   0.188  1.0250  0.2832  1.3172
 5344SOL     OW18038   1.544   2.956  10.830  0.8715  0.0886  0.1370
 5344SOL    HW118039   1.495   3.031  10.796  1.7288  0.2304 -0.8441
 5344SOL    HW218040   1.478   2.890  10.850  0.1199  1.0206  0.8255
 5345SOL     OW18041   4.668   5.835   1.821 -0.1865  0.5760 -0.5255
 5345SOL    HW118042   4.589   5.888   1.835 -0.4791  0.2592 -0.9434
 5345SOL    HW218043   4.733   5.873   1.880 -0.4682  1.2337 -0.6226
 5346SOL     OW18044  10.324   8.708   2.029  0.9184 -0.4371  0.2799
 5346SOL    HW118045  10.409   8.745   2.005  1.5100 -0.7310  1.8307
 5346SOL    HW218046  10.340   8.663   2.112 -1.2458  1.5119  1.8750
 5347SOL     OW18047   9.144   3.570  10.413 -0.0062  0.3123  0.6231
 5347SOL    HW118048   9.076   3.515  10.452  0.0347  0.3221  0.7110
 5347SOL    HW218049   9.096   3.645  10.377 -0.4036 -1.1560 -2.1209
 5348SOL     OW18050   2.302   3.281   5.421 -0.1557 -0.0790  0.8255
 5348SOL    HW118051   2.338   3.370   5.421  0.6952 -0.4136  1.3009
 5348SOL    HW218052   2.238   3.281   5.492  1.4172 -0.4367  2.3239
 5349SOL     OW18053   3.054   6.034   4.061 -0.2667  0.1801  0.1756
 5349SOL    HW118054   3.044   5.942   4.035 -1.4850  0.4223 -0.2983
 5349SOL    HW218055   3.133   6.063   4.016  0.6837 -0.8699  1.0761
 5350SOL     OW18056   7.001   9.904   3.629 -0.2443  0.1799  0.1600
 5350SOL    HW118057   6.924   9.916   3.574  0.1345 -1.6757 -0.8320
 5350SOL    HW218058   6.981   9.954   3.709 -1.8874  0.8065 -0.5984
 5351SOL     OW18059   1.095   7.499   2.578 -0.2958  0.4206 -0.2654
 5351SOL    HW118060   1.087   7.407   2.552 -0.7850  0.7056 -1.1764
 5351SOL    HW218061   1.186   7.522   2.560  0.3120 -0.3387  1.5865
 5352SOL     OW18062   7.544   2.871   2.838 -0.0669  0.2119 -0.2233
 5352SOL    HW118063   7.521   2.843   2.927 -0.6909 -1.5973 -0.9118
 5352SOL    HW218064   7.619   2.816   2.814  1.3802  2.0521 -0.1430
 5353SOL     OW18065   9.211   3.821   3.316 -0.4783  0.7043  0.2482
 5353SOL    HW118066   9.192   3.782   3.401  0.0660  0.9630  0.4973
 5353SOL    HW218067   9.127   3.822   3.270 -0.6312 -0.0961  0.5052
 5354SOL     OW18068   1.854   9.998   1.803 -0.4437  0.4507 -0.2579
 5354SOL    HW118069   1.779   9.952   1.764  1.3059 -1.7569 -1.2250
 5354SOL    HW218070   1.861  10.079   1.752 -2.2468  0.8276  0.0044
 5355SOL     OW18071   2.984   7.796   6.039 -1.0672  0.0940 -0.5822
 5355SOL    HW118072   2.943   7.714   6.011  0.3819 -0.7769 -0.2784
 5355SOL    HW218073   2.988   7.790   6.134 -0.3491  0.2132 -0.6008
 5356SOL     OW18074   5.733   8.475   1.400 -0.1286 -0.7272  0.2103
 5356SOL    HW118075   5.638   8.477   1.387  0.0711 -0.8805 -1.5797
 5356SOL    HW218076   5.765   8.547   1.346  0.7496 -0.4725  1.0670
 5357SOL     OW18077   2.057   4.032   4.006 -0.2466  0.6929  0.5393
 5357SOL    HW118078   2.151   4.029   4.025 -0.5911  0.9241  2.5408
 5357SOL    HW218079   2.045   4.114   3.958  0.8103 -0.3199 -1.6172
 5358SOL     OW18080   9.142   6.331   9.020 -0.1690  0.3853 -0.2165
 5358SOL    HW118081   9.177   6.353   8.934  1.0471 -1.5236 -0.2774
 5358SOL    HW218082   9.048   6.318   9.005 -0.2363  1.5733 -0.9174
 5359SOL     OW18083   3.333   2.199   0.740  0.0580  0.2651 -0.4703
 5359SOL    HW118084   3.392   2.136   0.699 -0.0675  0.1752 -0.5151
 5359SOL    HW218085   3.260   2.146   0.773  0.1278  0.3462 -0.1895
 5360SOL     OW18086   8.339   2.298   0.418  0.1047 -0.3857 -0.0484
 5360SOL    HW118087   8.407   2.275   0.482 -0.5630  0.7917  1.1217
 5360SOL    HW218088   8.372   2.263   0.335  0.8698 -2.1855  0.9571
 5361SOL     OW18089   8.914   1.780   5.509  0.2177  0.2335 -0.6991
 5361SOL    HW118090   8.993   1.832   5.503  0.8121 -0.1399  2.3158
 5361SOL    HW218091   8.939   1.694   5.475  1.1856  0.0794  0.3477
 5362SOL     OW18092   1.031   8.582   6.807  0.2434  0.3062 -0.4202
 5362SOL    HW118093   0.940   8.559   6.821 -0.2008  0.6987 -2.4059
 5362SOL    HW218094   1.032   8.677   6.800  0.8576  0.3306 -0.1293
 5363SOL     OW18095   2.018   5.796   7.786  1.0147  0.5185  0.1154
 5363SOL    HW118096   1.932   5.819   7.751  1.1409  1.2586  0.2821
 5363SOL    HW218097   2.055   5.735   7.722  0.6412  0.7135 -0.2879
 5364SOL     OW18098   9.963   4.446   0.022 -0.2365  0.2466 -0.1198
 5364SOL    HW118099  10.044   4.462  -0.026  1.9019 -1.5117  2.5568
 5364SOL    HW218100   9.944   4.529   0.066  0.2982  0.5931 -0.5361
 5365SOL     OW18101   1.214   5.796   3.252 -0.1136  0.5312  0.3488
 5365SOL    HW118102   1.217   5.705   3.224  3.2006  0.5177  0.3070
 5365SOL    HW218103   1.164   5.841   3.183  2.2931 -0.5645 -2.3313
 5366SOL     OW18104   1.539   3.947   2.763 -0.3823 -0.6703  0.0513
 5366SOL    HW118105   1.493   3.867   2.788  0.8821 -1.4975 -0.1757
 5366SOL    HW218106   1.629   3.934   2.794 -0.4437  1.2396  1.1887
 5367SOL     OW18107   2.872   5.522   0.406  0.1364 -0.2749  0.4107
 5367SOL    HW118108   2.903   5.441   0.366  0.0916 -0.3447  0.5154
 5367SOL    HW218109   2.926   5.533   0.484 -0.5722 -0.7742  0.9794
 5368SOL     OW18110   2.246   4.636   8.936 -0.2037  0.0138 -0.5777
 5368SOL    HW118111   2.155   4.617   8.913 -0.8999  2.0496  0.2695
 5368SOL    HW218112   2.273   4.704   8.874 -0.9681  2.9998  2.0703
 5369SOL     OW18113   4.129   4.985   2.712 -0.4643 -0.0972  0.1707
 5369SOL    HW118114   4.067   5.019   2.647 -1.8190  2.2769  2.4982
 5369SOL    HW218115   4.208   5.037   2.700 -0.4420 -0.1875 -0.0706
 5370SOL     OW18116   1.227   0.943   1.509  0.0614  0.0332  0.3468
 5370SOL    HW118117   1.156   1.007   1.503 -0.0268  0.3312  3.2691
 5370SOL    HW218118   1.183   0.860   1.530  0.4875 -0.0083  1.0890
 5371SOL     OW18119   6.625   5.272   4.791 -0.2949 -0.5598  0.6103
 5371SOL    HW118120   6.697   5.299   4.848  1.1904  0.4944 -1.6192
 5371SOL    HW218121   6.546   5.282   4.845  0.8839  1.5511  2.0999
 5372SOL     OW18122  10.323   5.701  10.310 -0.1017  0.5203 -0.9331
 5372SOL    HW118123  10.317   5.759  10.234 -0.5940  0.9530 -0.5704
 5372SOL    HW218124  10.237   5.661  10.318  0.5476 -1.1421 -1.8432
 5373SOL     OW18125   1.061   2.440  10.388  0.3366 -0.5590  0.4303
 5373SOL    HW118126   1.013   2.371  10.434  0.1937 -3.0849 -3.0423
 5373SOL    HW218127   0.997   2.509  10.375 -0.8388 -1.6029  0.4307
 5374SOL     OW18128   0.403   1.395   7.033 -0.0696 -0.0562 -0.1024
 5374SOL    HW118129   0.455   1.439   6.966 -0.5403 -0.8276 -0.9838
 5374SOL    HW218130   0.449   1.415   7.115 -0.3361  2.1723 -0.4441
 5375SOL     OW18131   1.814  10.578   9.205 -0.0125 -0.2367 -0.6718
 5375SOL    HW118132   1.843  10.631   9.280 -2.6749  0.7864 -0.2612
 5375SOL    HW218133   1.869  10.500   9.209  0.9501  0.4578  1.4597
 5376SOL     OW18134   4.511   4.359   0.934  0.4522 -0.5673  1.2403
 5376SOL    HW118135   4.417   4.362   0.916  1.0708 -1.3481 -3.2554
 5376SOL    HW218136   4.523   4.281   0.988 -1.3260 -1.9086 -0.1587
 5377SOL     OW18137   5.927   2.356   9.827  0.6570  0.8331  0.1930
 5377SOL    HW118138   5.997   2.400   9.876 -0.2233 -0.0490  2.3672
 5377SOL    HW218139   5.942   2.263   9.842 -0.2240  0.5824 -0.4092
 5378SOL     OW18140   4.182   8.716   3.493  0.5093 -0.5438  0.1801
 5378SOL    HW118141   4.157   8.688   3.581  1.3597  0.7667  0.8847
 5378SOL    HW218142   4.273   8.689   3.484  0.0875 -1.7034 -0.7747
 5379SOL     OW18143   2.859   0.201   4.114 -0.4756 -0.7790 -0.1287
 5379SOL    HW118144   2.947   0.199   4.075 -0.4723 -2.4430 -0.1233
 5379SOL    HW218145   2.874   0.180   4.207 -0.8957 -1.4297 -0.2000
 5380SOL     OW18146   8.126   9.596   5.464  0.5378  0.6071  0.3458
 5380SOL    HW118147   8.080   9.633   5.539  0.5247 -0.4264  0.8711
 5380SOL    HW218148   8.090   9.508   5.456  1.9304  0.0126  0.3519
 5381SOL     OW18149   0.725   5.544   3.820  0.5797 -0.7412 -0.1867
 5381SOL    HW118150   0.725   5.522   3.726  0.3338  0.5722 -0.5121
 5381SOL    HW218151   0.694   5.634   3.823  0.2600 -0.8808  1.2027
 5382SOL     OW18152   3.155   5.780  11.014  0.1561 -0.1475 -0.7691
 5382SOL    HW118153   3.183   5.691  10.993  0.3670  0.0939 -1.5732
 5382SOL    HW218154   3.073   5.790  10.965 -0.4560 -0.2699  0.2045
 5383SOL     OW18155   3.001   1.205   5.233 -0.1480  0.1586 -0.2388
 5383SOL    HW118156   3.025   1.285   5.186  0.4478 -0.4448 -0.9827
 5383SOL    HW218157   3.062   1.201   5.306 -0.3790  0.5276 -0.0146
 5384SOL     OW18158   0.284  10.555  11.026 -0.5053  0.0287  0.2213
 5384SOL    HW118159   0.225  10.619  10.987 -1.5675 -0.8296  0.3547
 5384SOL    HW218160   0.238  10.471  11.015  1.8018 -1.1048 -2.0179
 5385SOL     OW18161   2.803   4.403  10.439  0.5339  0.5941  0.0677
 5385SOL    HW118162   2.753   4.388  10.519 -0.6209 -0.6458 -0.8553
 5385SOL    HW218163   2.795   4.497  10.423 -1.2348  0.4899  0.1428
 5386SOL     OW18164   9.517   8.559   0.533 -0.1377  0.1040  0.1699
 5386SOL    HW118165   9.426   8.533   0.549  0.2265 -1.1464  0.3150
 5386SOL    HW218166   9.569   8.492   0.576  0.8696  0.5765 -0.2714
 5387SOL     OW18167   8.112   6.556   3.478  0.2227 -0.2182  0.3023
 5387SOL    HW118168   8.024   6.548   3.442 -0.1686 -0.6376  1.3236
 5387SOL    HW218169   8.125   6.475   3.527  1.3091 -0.3039 -0.0977
 5388SOL     OW18170   1.177   4.343   9.690  0.1381  0.5988 -0.4472
 5388SOL    HW118171   1.102   4.308   9.643  0.6413  1.9699 -2.3731
 5388SOL    HW218172   1.139   4.381   9.769 -1.1317  0.8342 -1.1407
 5389SOL     OW18173  10.288   2.146   5.034 -0.6427 -0.2358  0.1122
 5389SOL    HW118174  10.245   2.158   5.119  1.6136  2.7972  0.9935
 5389SOL    HW218175  10.341   2.067   5.046  0.0560  0.4309  1.7809
 5390SOL     OW18176   3.664   6.370   9.772  0.2028  0.3243  0.5084
 5390SOL    HW118177   3.630   6.362   9.683 -3.3258 -1.9742  1.8657
 5390SOL    HW218178   3.613   6.441   9.811  0.8570  0.5012  1.0624
 5391SOL     OW18179   2.354   6.411   4.421 -0.2222  0.5731  0.2157
 5391SOL    HW118180   2.344   6.404   4.516  0.9720  0.5696  0.3627
 5391SOL    HW218181   2.436   6.460   4.410  0.3641 -0.6002 -0.8108
 5392SOL     OW18182   9.570   6.405   1.175  0.1848 -0.7523  0.4713
 5392SOL    HW118183   9.490   6.371   1.134  0.5836 -0.7077 -0.3626
 5392SOL    HW218184   9.640   6.350   1.141  0.4820 -1.0379  1.4992
 5393SOL     OW18185   1.078   4.963   9.513 -0.1206 -0.2817 -0.0443
 5393SOL    HW118186   1.168   4.983   9.489  0.1290 -1.7529 -0.4775
 5393SOL    HW218187   1.057   4.884   9.462 -1.1326 -0.8409  1.1780
 5394SOL     OW18188   7.891  10.861   2.976  0.1047 -1.0959  0.0094
 5394SOL    HW118189   7.971  10.856   3.029  0.9262 -1.0450 -1.1762
 5394SOL    HW218190   7.911  10.928   2.910 -0.2259 -2.3545 -1.4071
 5395SOL     OW18191   0.030   6.803  10.549 -0.0245 -0.1794 -0.1372
 5395SOL    HW118192  -0.017   6.720  10.558  0.8010 -0.9189 -2.1587
 5395SOL    HW218193  -0.012   6.847  10.476  0.4908  0.5273 -0.0178
 5396SOL     OW18194   4.493   8.552   9.288 -0.1857  0.2528 -0.2389
 5396SOL    HW118195   4.461   8.513   9.369 -0.3017 -0.4419 -0.6059
 5396SOL    HW218196   4.456   8.640   9.287 -1.3309 -0.2186 -0.2045
 5397SOL     OW18197   9.328   5.501   3.242  0.5650 -0.2334 -0.0123
 5397SOL    HW118198   9.417   5.538   3.240  0.1238  0.9290  0.6850
 5397SOL    HW218199   9.272   5.577   3.256 -0.4798 -1.0648  0.3864
 5398SOL     OW18200   1.581   9.447  10.241 -0.4243 -0.6125  0.0011
 5398SOL    HW118201   1.511   9.469  10.179  0.6463 -0.9386 -1.3690
 5398SOL    HW218202   1.572   9.512  10.311  1.9223  3.8315 -3.2998
 5399SOL     OW18203   9.466  10.833   2.232 -0.0961  0.5301 -0.0221
 5399SOL    HW118204   9.547  10.801   2.271 -0.1680 -2.8430 -2.2007
 5399SOL    HW218205   9.397  10.790   2.283 -0.3560  0.3861 -0.4895
 5400SOL     OW18206   1.707   1.137   1.229 -0.9209 -0.0915  0.3600
 5400SOL    HW118207   1.633   1.198   1.228 -0.8905 -0.0522  0.4938
 5400SOL    HW218208   1.781   1.188   1.196 -0.7815  0.0918  0.9537
 5401SOL     OW18209   4.309   1.858   7.468  0.5766  0.5294  0.0302
 5401SOL    HW118210   4.337   1.767   7.480 -0.9949 -0.2794 -1.8839
 5401SOL    HW218211   4.241   1.870   7.535 -0.6259 -0.4041 -0.9831
 5402SOL     OW18212   1.034   6.104   5.887 -0.0067  0.6830 -0.6726
 5402SOL    HW118213   1.044   6.017   5.926  2.1305  1.3749  0.4737
 5402SOL    HW218214   1.063   6.093   5.797  0.5272  0.2654 -0.4563
 5403SOL     OW18215   5.012   5.836   6.726 -0.0711 -0.2013  0.1013
 5403SOL    HW118216   4.973   5.860   6.811 -3.5395  0.2272 -1.4585
 5403SOL    HW218217   4.948   5.779   6.685  1.4930 -0.3829 -2.2982
 5404SOL     OW18218   6.737   5.498   1.286 -0.1509 -0.3582 -0.9310
 5404SOL    HW118219   6.768   5.562   1.350 -0.2335 -1.0792 -0.1669
 5404SOL    HW218220   6.671   5.546   1.236  0.3806  0.4104 -0.9219
 5405SOL     OW18221  10.879   5.170   4.221 -0.5638  0.5534  0.3159
 5405SOL    HW118222  10.876   5.241   4.157  2.5152  0.0731 -0.5162
 5405SOL    HW218223  10.840   5.095   4.175  0.2958  0.5830 -0.4843
 5406SOL     OW18224   5.934  10.931   8.609 -0.0329 -0.0377  0.8116
 5406SOL    HW118225   6.014  10.887   8.638 -0.1986 -0.8376  0.0977
 5406SOL    HW218226   5.938  10.928   8.513 -0.2912  1.0772  0.7547
 5407SOL     OW18227   4.222   9.409   2.682 -0.1299 -0.0414  0.4107
 5407SOL    HW118228   4.163   9.484   2.687 -0.1792 -0.1717  2.0757
 5407SOL    HW218229   4.184   9.354   2.614 -1.2355  0.4602  0.5968
 5408SOL     OW18230   4.141  10.332   6.195 -0.0583  0.2504 -0.3435
 5408SOL    HW118231   4.109  10.306   6.281 -0.2647  1.1737 -0.1342
 5408SOL    HW218232   4.232  10.304   6.194 -1.2245 -4.5053 -1.7852
 5409SOL     OW18233   9.803   3.298   5.353  0.6564 -0.1421 -0.7433
 5409SOL    HW118234   9.741   3.243   5.401  1.4010 -0.4522 -0.0991
 5409SOL    HW218235   9.771   3.387   5.366 -0.1803 -0.3635 -1.2159
 5410SOL     OW18236   2.730   2.858  10.718  0.3421  0.1045  0.1664
 5410SOL    HW118237   2.757   2.853  10.626  2.3473  1.8532  0.5761
 5410SOL    HW218238   2.742   2.770  10.751  0.3835 -0.3707 -1.0414
 5411SOL     OW18239   3.684   3.541  10.455  0.0432  0.0059 -0.5058
 5411SOL    HW118240   3.753   3.534  10.389  0.2580  2.2942 -0.6130
 5411SOL    HW218241   3.730   3.536  10.539 -0.1403 -2.1194 -0.4858
 5412SOL     OW18242   6.206  10.087   5.958 -0.3259  0.2449  0.4341
 5412SOL    HW118243   6.296  10.105   5.985 -0.3533  0.0875  0.6327
 5412SOL    HW218244   6.195   9.993   5.969 -0.6211  0.3100  0.7494
 5413SOL     OW18245   7.752  10.332   7.262 -0.0915  0.1982  0.4382
 5413SOL    HW118246   7.758  10.247   7.219 -1.0012  0.4914 -0.3223
 5413SOL    HW218247   7.690  10.319   7.333 -0.4739  0.2867  0.1275
 5414SOL     OW18248   3.558   8.497   0.704 -0.1359 -0.2095 -0.4904
 5414SOL    HW118249   3.495   8.452   0.648  0.5272 -1.5884 -0.1661
 5414SOL    HW218250   3.591   8.570   0.651 -1.4019  0.0528 -0.9389
 5415SOL     OW18251   7.139   9.382   2.238 -0.1390 -0.2053  0.4950
 5415SOL    HW118252   7.081   9.442   2.285 -0.9691  0.8148 -1.6936
 5415SOL    HW218253   7.081   9.327   2.186  0.7614 -0.9173  0.2071
 5416SOL     OW18254   9.898   7.903   6.597 -0.3005  0.2994 -0.5345
 5416SOL    HW118255   9.970   7.963   6.578 -0.2819  0.0346 -1.3523
 5416SOL    HW218256   9.864   7.932   6.681  0.5802  0.6029 -0.2729
 5417SOL     OW18257   6.252   4.609   1.517 -0.1149  0.3605 -0.5584
 5417SOL    HW118258   6.268   4.540   1.581 -1.9164 -0.3406 -0.7950
 5417SOL    HW218259   6.338   4.644   1.496  0.5930  0.0940  1.6803
 5418SOL     OW18260   8.051  10.988   0.594  0.1635  0.7008  0.2901
 5418SOL    HW118261   7.966  10.961   0.560  0.7385  0.4158 -0.9645
 5418SOL    HW218262   8.039  10.988   0.689 -0.7214 -1.1228  0.2327
 5419SOL     OW18263   4.623   7.458   7.328 -0.8070  0.5616 -0.4370
 5419SOL    HW118264   4.697   7.465   7.390  0.0630  1.1946 -1.5052
 5419SOL    HW218265   4.588   7.370   7.342 -0.6922  0.7113  1.0093
 5420SOL     OW18266   3.928  10.039   2.241  0.0981  0.4497  0.2895
 5420SOL    HW118267   3.889  10.113   2.196 -2.0937 -1.7399 -1.6839
 5420SOL    HW218268   3.857  10.003   2.294  0.2875 -1.6995 -0.8113
 5421SOL     OW18269   0.965   0.798   9.857  0.0551  0.2378  0.1390
 5421SOL    HW118270   1.032   0.734   9.882  1.4962  1.2677 -0.9289
 5421SOL    HW218271   0.958   0.856   9.933 -0.9534 -0.8848  0.9482
 5422SOL     OW18272   8.133   1.481   1.686 -0.1016 -0.3022  0.0156
 5422SOL    HW118273   8.063   1.459   1.748 -1.0059  0.0309 -0.8668
 5422SOL    HW218274   8.107   1.566   1.650  1.8824  0.9320  1.2889
 5423SOL     OW18275   0.340   3.800   6.601  0.2434 -0.0194  0.4563
 5423SOL    HW118276   0.301   3.760   6.679 -1.6731 -0.3076 -0.5901
 5423SOL    HW218277   0.426   3.830   6.631  0.1546 -1.3707  2.3030
 5424SOL     OW18278   6.511   1.273   1.315  0.2439 -0.3375 -0.2747
 5424SOL    HW118279   6.480   1.361   1.338  1.0900  1.0045 -3.5389
 5424SOL    HW218280   6.464   1.252   1.234  4.2231 -0.1390 -2.9305
 5425SOL     OW18281   8.723   2.403   1.652  0.0333 -0.1578  0.1594
 5425SOL    HW118282   8.696   2.311   1.661 -0.3289 -0.1146 -0.4332
 5425SOL    HW218283   8.732   2.434   1.741 -0.5056 -0.5790  0.3641
 5426SOL     OW18284   1.914   2.312   5.216  0.1246 -0.0860 -0.0973
 5426SOL    HW118285   1.835   2.331   5.166 -0.2237  0.6613  0.7140
 5426SOL    HW218286   1.899   2.354   5.301  1.1998 -0.3245  0.2202
 5427SOL     OW18287   3.988   6.541   3.734 -0.5201 -0.4746  0.4408
 5427SOL    HW118288   4.024   6.509   3.651  0.9191 -0.1143  0.8897
 5427SOL    HW218289   4.008   6.471   3.796  1.8218  0.7847  1.2347
 5428SOL     OW18290  10.173  10.198   3.627 -1.2954 -0.1765  0.4297
 5428SOL    HW118291  10.259  10.207   3.587 -1.4583 -1.6202 -0.3289
 5428SOL    HW218292  10.152  10.286   3.660  0.7308  0.0412  1.2401
 5429SOL     OW18293   2.599  10.000   1.399  0.2785  0.2298  0.4747
 5429SOL    HW118294   2.577  10.083   1.357  0.2755 -0.2012 -0.4160
 5429SOL    HW218295   2.695   9.998   1.399  0.3029 -0.4422 -0.9716
 5430SOL     OW18296   5.051   5.169   3.480  0.3964  0.1803 -0.4247
 5430SOL    HW118297   5.091   5.202   3.561  2.3203 -2.3108 -0.2295
 5430SOL    HW218298   5.085   5.227   3.412 -0.9389  2.0756  0.4336
 5431SOL     OW18299   5.524   8.378   6.563  0.3324  0.5396  0.4757
 5431SOL    HW118300   5.484   8.462   6.587  2.1310  1.0160  2.0611
 5431SOL    HW218301   5.516   8.375   6.468 -1.5648  1.5432  0.5447
 5432SOL     OW18302   2.459   9.632   9.260  0.0891 -0.9890  0.9503
 5432SOL    HW118303   2.531   9.610   9.201  1.1983 -0.7054  2.1626
 5432SOL    HW218304   2.475   9.580   9.339 -2.4222 -2.8572  0.3595
 5433SOL     OW18305   2.902   7.493  10.832  0.3798  0.2729  0.9514
 5433SOL    HW118306   2.839   7.485  10.903 -1.1560  2.3329 -0.0569
 5433SOL    HW218307   2.850   7.482  10.752  1.6200  0.2783  0.1116
 5434SOL     OW18308   1.108   6.018   8.976  0.2657  0.4010  0.7525
 5434SOL    HW118309   1.143   6.074   8.907 -1.6254  1.6673  0.7744
 5434SOL    HW218310   1.097   5.932   8.934 -1.4914  1.3125 -0.7628
 5435SOL     OW18311  10.353   0.426   8.995  0.7846 -0.5689  0.3919
 5435SOL    HW118312  10.402   0.344   8.985 -2.2203 -2.6226  1.4589
 5435SOL    HW218313  10.314   0.421   9.082  0.7935  2.2215  0.6426
 5436SOL     OW18314  10.197  10.102   2.880  0.3590 -0.5643  0.0902
 5436SOL    HW118315  10.232  10.143   2.801  0.0447  1.1721  0.8105
 5436SOL    HW218316  10.272  10.091   2.938  0.0895  1.4495  0.9037
 5437SOL     OW18317   0.875   1.429   9.009 -0.1109  0.1527  0.5253
 5437SOL    HW118318   0.943   1.435   9.076  0.6268  2.2581 -0.3314
 5437SOL    HW218319   0.809   1.493   9.036 -0.2478  0.3666 -0.2852
 5438SOL     OW18320   2.905   9.606   6.954 -0.8721 -0.7214  0.6861
 5438SOL    HW118321   2.943   9.659   7.024  1.5437 -1.1075 -0.2300
 5438SOL    HW218322   2.870   9.529   6.999  0.4445 -0.8600  1.5353
 5439SOL     OW18323   5.306   5.106  10.548  0.3976 -0.4654 -0.5047
 5439SOL    HW118324   5.392   5.066  10.533  0.9474  0.4592  0.1415
 5439SOL    HW218325   5.323   5.179  10.607 -1.0017 -0.9572  0.5632
 5440SOL     OW18326   9.003  10.371   4.617  0.8973 -0.3780  0.1981
 5440SOL    HW118327   9.087  10.347   4.655  0.0742 -1.0082  1.7315
 5440SOL    HW218328   8.948  10.392   4.693 -0.9384 -2.0472 -0.5733
 5441SOL     OW18329  10.965   0.815   4.205 -0.0377  0.1300  0.0090
 5441SOL    HW118330  11.017   0.832   4.284 -0.4373 -1.5031  0.6548
 5441SOL    HW218331  10.889   0.873   4.215 -0.4616 -0.5996  1.2148
 5442SOL     OW18332   8.251   5.706   5.195 -0.6369 -0.1571  0.0349
 5442SOL    HW118333   8.185   5.653   5.150  1.0264 -0.5789 -2.0328
 5442SOL    HW218334   8.209   5.792   5.205 -1.0979 -0.0129 -2.4270
 5443SOL     OW18335   5.136  10.394   9.207 -0.0643 -0.1568 -0.2822
 5443SOL    HW118336   5.065  10.440   9.162 -1.5377 -0.0695  1.9286
 5443SOL    HW218337   5.106  10.388   9.298  1.0549 -3.5063  0.0084
 5444SOL     OW18338   6.977   6.851   1.331  0.1531  0.0801 -0.4465
 5444SOL    HW118339   6.949   6.875   1.419 -0.3864  0.9377 -0.8390
 5444SOL    HW218340   7.031   6.772   1.343  1.6999  1.2735  0.8466
 5445SOL     OW18341   7.275   3.140   6.167  0.2821 -0.0748  0.5971
 5445SOL    HW118342   7.290   3.047   6.188  0.7845 -0.3484 -0.8642
 5445SOL    HW218343   7.183   3.144   6.143  1.2840 -1.4510 -4.8291
 5446SOL     OW18344   2.982   5.243   7.661 -0.9493 -0.9536  0.2952
 5446SOL    HW118345   2.923   5.186   7.612  1.7717 -2.6164 -1.2976
 5446SOL    HW218346   3.068   5.228   7.622  0.2586  2.9961  0.9655
 5447SOL     OW18347   6.086   9.270   4.123 -0.4114 -0.1022  0.5432
 5447SOL    HW118348   6.022   9.249   4.191  0.1683 -1.8701  0.5942
 5447SOL    HW218349   6.166   9.225   4.151  0.1649  0.1084 -0.7174
 5448SOL     OW18350   7.408   1.981   5.869 -0.1653 -0.0885  0.4843
 5448SOL    HW118351   7.413   1.962   5.775  1.8025  1.8977  0.0920
 5448SOL    HW218352   7.465   1.917   5.910 -0.0057 -0.1571  0.1612
 5449SOL     OW18353   8.066   6.068  10.356 -0.1869 -0.4407  0.0046
 5449SOL    HW118354   8.036   6.158  10.363 -0.3573 -0.4598 -0.4323
 5449SOL    HW218355   8.016   6.031  10.283  0.9413 -0.4479 -0.7897
 5450SOL     OW18356   7.945   2.309   7.300  0.1991  0.2952 -0.6245
 5450SOL    HW118357   7.899   2.313   7.215 -0.1969 -0.2155 -0.4362
 5450SOL    HW218358   7.995   2.391   7.303 -0.2965  0.6258 -1.0648
 5451SOL     OW18359   9.165   3.441   8.490  0.2211  0.1735  0.2053
 5451SOL    HW118360   9.112   3.514   8.460  0.5340 -0.8206 -3.2421
 5451SOL    HW218361   9.252   3.458   8.453  1.4360  0.0077  2.7617
 5452SOL     OW18362  11.084  10.313   2.242 -0.4011 -0.1886 -0.1602
 5452SOL    HW118363  11.073  10.316   2.337  0.8663 -1.3655  0.0549
 5452SOL    HW218364  11.024  10.245   2.213  0.6396 -1.2291  0.0655
 5453SOL     OW18365   1.895   2.427   3.823 -0.3005  0.1056 -0.0510
 5453SOL    HW118366   1.977   2.395   3.861 -0.2710 -0.1495 -0.3258
 5453SOL    HW218367   1.851   2.348   3.792  0.4415  0.4298 -2.1019
 5454SOL     OW18368   3.625   9.244   5.236 -0.7925  0.1168  0.5969
 5454SOL    HW118369   3.713   9.265   5.205 -0.9343  0.7135  0.5897
 5454SOL    HW218370   3.635   9.158   5.278 -0.3619 -0.1656 -0.0548
 5455SOL     OW18371   9.858   8.387   0.369  0.0110  0.2920 -0.2196
 5455SOL    HW118372   9.834   8.315   0.310 -1.5432 -0.0284  0.7549
 5455SOL    HW218373   9.943   8.361   0.404 -1.2638 -2.0257  1.4572
 5456SOL     OW18374   0.839   8.339   8.714  0.3633 -0.3102 -0.2061
 5456SOL    HW118375   0.755   8.375   8.744  0.1086 -1.1078  0.0777
 5456SOL    HW218376   0.888   8.323   8.795  0.6006 -0.2882 -0.3452
 5457SOL     OW18377   4.072   4.878  10.947  0.7285  0.4265  0.1222
 5457SOL    HW118378   3.996   4.931  10.968  0.0298 -0.8792  0.9640
 5457SOL    HW218379   4.057   4.794  10.990  1.7182 -0.5457 -1.3093
 5458SOL     OW18380   6.926   5.885   3.935  0.3247 -0.4544 -0.5219
 5458SOL    HW118381   7.006   5.937   3.926  0.9677 -1.2044  0.6583
 5458SOL    HW218382   6.876   5.927   4.004  1.1422 -1.7073  0.8902
 5459SOL     OW18383   1.930   0.936   8.535 -0.8583  0.3352 -0.5526
 5459SOL    HW118384   1.889   1.022   8.524 -0.9090  0.3448 -0.3047
 5459SOL    HW218385   1.860   0.874   8.517 -2.5400  0.2637  4.5600
 5460SOL     OW18386   5.106   8.634   1.400 -0.0756  0.4821 -0.7867
 5460SOL    HW118387   5.181   8.656   1.345 -1.0075  0.1326 -2.2667
 5460SOL    HW218388   5.104   8.702   1.466  2.2116 -0.1282  0.0198
 5461SOL     OW18389   8.127   4.236   7.098 -0.4952 -0.3895 -0.1956
 5461SOL    HW118390   8.209   4.253   7.143 -1.1106 -1.8236  1.5621
 5461SOL    HW218391   8.138   4.277   7.012  1.4184  0.8342  0.5670
 5462SOL     OW18392   1.623   8.761   0.830 -0.0306  0.0132 -0.2937
 5462SOL    HW118393   1.688   8.739   0.897 -0.4775  0.4219  0.2835
 5462SOL    HW218394   1.662   8.730   0.748 -0.1875 -1.9734  0.3338
 5463SOL     OW18395   9.966   1.850   0.403  0.2860 -0.3279 -0.3262
 5463SOL    HW118396   9.928   1.899   0.331  1.7374  1.1309 -0.1636
 5463SOL    HW218397   9.998   1.917   0.464 -0.6546 -1.5113  1.5744
 5464SOL     OW18398   2.313   6.200   7.158 -0.0027 -0.2437 -0.1372
 5464SOL    HW118399   2.406   6.220   7.144 -0.3760  1.2942 -0.6363
 5464SOL    HW218400   2.309   6.162   7.245  1.0010  0.4726  0.2347
 5465SOL     OW18401   4.481   2.308   7.741  0.0114 -0.3406  0.1387
 5465SOL    HW118402   4.449   2.271   7.658 -0.9590  1.0418 -0.1347
 5465SOL    HW218403   4.575   2.316   7.729  0.1923 -2.1328 -0.0000
 5466SOL     OW18404  10.632   1.633   5.121  0.1072 -0.3535 -0.0551
 5466SOL    HW118405  10.671   1.705   5.071 -0.8757 -0.2286 -0.6807
 5466SOL    HW218406  10.692   1.560   5.109 -1.6085 -1.3810 -4.2603
 5467SOL     OW18407   3.954   6.305   5.708  0.1888 -0.3092  0.4862
 5467SOL    HW118408   4.007   6.343   5.638  0.3082  0.4282  0.9669
 5467SOL    HW218409   3.978   6.212   5.708  1.5546  0.0192  0.7426
 5468SOL     OW18410   2.338   6.026  10.412  0.0015 -0.8613 -0.2217
 5468SOL    HW118411   2.420   6.072  10.431  0.0732 -1.0124 -0.1666
 5468SOL    HW218412   2.366   5.942  10.375 -0.1200 -0.1544 -2.0471
 5469SOL     OW18413  10.329   8.927   3.720 -0.2457 -0.0647  0.3457
 5469SOL    HW118414  10.313   9.015   3.755 -4.0855 -0.5225  0.1919
 5469SOL    HW218415  10.305   8.868   3.793  1.1772 -1.0198  0.0786
 5470SOL     OW18416   3.515   4.971   1.061 -0.0678  0.0928  0.0461
 5470SOL    HW118417   3.442   5.029   1.037  0.3834  0.2418 -1.0309
 5470SOL    HW218418   3.575   5.026   1.110 -1.0684 -0.2446  1.7239
 5471SOL     OW18419   2.437   2.831  10.717 -0.2939 -0.6757  0.1041
 5471SOL    HW118420   2.419   2.739  10.732  1.0153 -1.1435 -1.0301
 5471SOL    HW218421   2.513   2.850  10.771 -0.1325 -0.4395 -0.2014
 5472SOL     OW18422   4.932   2.018   8.607 -0.0424  0.1230 -0.2211
 5472SOL    HW118423   4.971   2.024   8.520  0.6412 -0.9741 -0.0181
 5472SOL    HW218424   4.842   2.047   8.596  0.6674  2.2547 -0.8058
 5473SOL     OW18425  10.083   6.755  11.028 -0.0622  0.0819 -0.0298
 5473SOL    HW118426  10.105   6.792  10.942  1.3532 -1.7507 -0.5238
 5473SOL    HW218427   9.992   6.727  11.019  0.6800 -2.0412 -1.7345
 5474SOL     OW18428   9.849   1.189   7.278  0.3020  0.1289 -0.2293
 5474SOL    HW118429   9.937   1.155   7.262 -0.0330 -1.9758  1.8751
 5474SOL    HW218430   9.799   1.164   7.200  0.8490 -1.5220 -0.0851
 5475SOL     OW18431   9.131  10.139   2.307 -0.5127 -0.0131  0.5455
 5475SOL    HW118432   9.154  10.224   2.345 -1.8821 -0.0934  1.6111
 5475SOL    HW218433   9.079  10.161   2.230 -0.4282  0.1260  0.5277
 5476SOL     OW18434   7.352  10.021   3.314  0.1847 -0.6586  0.0818
 5476SOL    HW118435   7.264  10.050   3.293 -0.0390 -1.5118 -0.2175
 5476SOL    HW218436   7.374  10.067   3.395 -0.7628 -0.8668  0.4690
 5477SOL     OW18437   6.861   6.333   1.339  0.4092  0.0005 -0.3449
 5477SOL    HW118438   6.952   6.330   1.312  0.6803  0.4034  0.5048
 5477SOL    HW218439   6.863   6.316   1.433 -0.3066  0.8510 -0.1622
 5478SOL     OW18440   9.401   2.542   0.968 -0.2569  0.4286 -0.2280
 5478SOL    HW118441   9.376   2.545   1.060  1.8350  1.8278  0.3529
 5478SOL    HW218442   9.394   2.449   0.944  1.9233 -0.4652  2.1714
 5479SOL     OW18443   8.334   5.766   7.154  0.2853 -0.6208  0.1320
 5479SOL    HW118444   8.294   5.734   7.073 -1.5678  1.9388 -0.0824
 5479SOL    HW218445   8.395   5.834   7.126  0.3779 -0.4024  0.8302
 5480SOL     OW18446   0.957   5.565  10.672 -0.6623  0.4703 -0.4919
 5480SOL    HW118447   0.941   5.490  10.615 -2.1536  0.1937  0.2415
 5480SOL    HW218448   1.013   5.530  10.742 -2.3346 -0.3484  0.5215
 5481SOL     OW18449   6.744   4.182   0.505  0.1444  0.4270 -0.4958
 5481SOL    HW118450   6.791   4.257   0.470  0.5573 -0.3310 -1.6246
 5481SOL    HW218451   6.812   4.120   0.530 -0.1781  0.5927  0.8743
 5482SOL     OW18452   4.808   7.065   8.288  0.1617 -0.3646  0.4543
 5482SOL    HW118453   4.884   7.008   8.295 -0.1215 -0.6343  1.6223
 5482SOL    HW218454   4.753   7.041   8.363 -0.0940  1.2535  0.8243
 5483SOL     OW18455   0.732   8.577   7.659 -0.2432 -0.5929  0.1306
 5483SOL    HW118456   0.776   8.600   7.741  0.4967 -1.6409  0.0449
 5483SOL    HW218457   0.730   8.481   7.658 -2.5982 -0.6053  0.1433
 5484SOL     OW18458   2.656   3.535   4.298 -0.8651 -0.3557 -0.5488
 5484SOL    HW118459   2.634   3.605   4.237  0.0086 -0.0425 -0.5075
 5484SOL    HW218460   2.713   3.476   4.248 -0.6351 -0.4109 -0.2227
 5485SOL     OW18461   7.622  10.523   5.733 -0.3058 -0.0825  0.3144
 5485SOL    HW118462   7.715  10.510   5.720 -0.0421  1.2943  0.6223
 5485SOL    HW218463   7.614  10.547   5.826 -0.9510 -0.1047  0.2700
 5486SOL     OW18464   1.663   6.418   2.282  0.6498 -0.0382  0.3003
 5486SOL    HW118465   1.612   6.341   2.307 -0.7611  0.3689 -1.1375
 5486SOL    HW218466   1.684   6.404   2.189 -0.4736  1.7080 -0.2736
 5487SOL     OW18467   2.762   7.847   5.675 -0.1082  0.6849 -0.0349
 5487SOL    HW118468   2.826   7.822   5.741  0.1940  1.4587 -0.0157
 5487SOL    HW218469   2.812   7.902   5.614 -0.3972  0.0416 -0.8679
 5488SOL     OW18470  10.921   7.738   6.465 -0.1371  0.3745 -0.0908
 5488SOL    HW118471  10.911   7.685   6.544 -0.8203  0.8283  0.1380
 5488SOL    HW218472  10.861   7.698   6.402 -0.6747  0.8717  0.0903
 5489SOL     OW18473   7.013   2.133   5.588 -0.7561  0.5461 -0.0618
 5489SOL    HW118474   6.959   2.153   5.665  0.1658 -0.0279  0.7677
 5489SOL    HW218475   7.103   2.151   5.617 -0.4748  1.2964 -1.3472
 5490SOL     OW18476   8.643  10.924  10.054 -0.1544  0.1163 -0.0219
 5490SOL    HW118477   8.626  11.000   9.998  2.4032 -0.3867 -1.6211
 5490SOL    HW218478   8.562  10.873  10.052 -0.3591  0.4441 -2.7831
 5491SOL     OW18479   2.030   8.547  10.413 -0.0899 -0.3400 -0.2020
 5491SOL    HW118480   1.985   8.619  10.368  0.3243  0.4635  0.6266
 5491SOL    HW218481   2.073   8.589  10.488  0.5203 -1.3864  0.0555
 5492SOL     OW18482   5.903   7.341   2.486  0.2879 -0.7583  0.3565
 5492SOL    HW118483   5.892   7.424   2.532 -0.2490 -1.6564  1.9074
 5492SOL    HW218484   5.959   7.288   2.543 -0.1689 -1.8063 -0.1303
 5493SOL     OW18485   1.906   1.964   1.599 -0.0285 -0.5542  0.2813
 5493SOL    HW118486   1.971   1.945   1.531  1.0176 -0.4801  1.2448
 5493SOL    HW218487   1.915   2.058   1.616 -1.8080 -0.0930 -0.9923
 5494SOL     OW18488   6.650   3.233   2.057  0.6547 -0.4057 -0.1035
 5494SOL    HW118489   6.723   3.184   2.095  0.3695 -0.8946 -0.1872
 5494SOL    HW218490   6.639   3.308   2.116  1.4379 -0.1427 -0.2737
 5495SOL     OW18491   2.420   8.486   4.813  0.1089 -0.0817 -0.5785
 5495SOL    HW118492   2.478   8.415   4.842  0.4017 -0.5248 -2.1968
 5495SOL    HW218493   2.368   8.506   4.891  1.8477 -0.2215  0.6885
 5496SOL     OW18494   0.193   9.076   2.221 -0.7578  0.6212 -0.8674
 5496SOL    HW118495   0.217   9.134   2.294  0.2410  0.0566 -0.7335
 5496SOL    HW218496   0.275   9.059   2.175 -0.5310 -2.4992  0.4310
 5497SOL     OW18497   6.027   2.429   9.362  0.5047  0.1045 -0.0333
 5497SOL    HW118498   6.046   2.349   9.313  0.7103  1.2087 -1.8445
 5497SOL    HW218499   6.104   2.442   9.418  0.3387 -1.0922  0.5099
 5498SOL     OW18500   0.551  10.226   6.650  0.4012 -0.0697  0.8368
 5498SOL    HW118501   0.495  10.291   6.607  1.1416  0.7004  1.0056
 5498SOL    HW218502   0.637  10.239   6.610  0.6894 -0.5584  1.2887
 5499SOL     OW18503   5.217  10.955   3.527 -0.5422  0.6494 -0.2648
 5499SOL    HW118504   5.303  10.991   3.551 -1.0284  2.4855 -1.1447
 5499SOL    HW218505   5.220  10.865   3.560  1.4702  0.8584  0.3043
 5500SOL     OW18506   8.415   5.422   7.137  0.6685  0.1608 -0.3713
 5500SOL    HW118507   8.451   5.496   7.088  0.3911  0.1451 -0.6029
 5500SOL    HW218508   8.330   5.406   7.097 -0.3168  1.2246  1.2079
 5501SOL     OW18509   0.417   3.874   4.177 -0.6928  0.2969 -0.1701
 5501SOL    HW118510   0.509   3.858   4.154 -0.3151  0.5835  1.0403
 5501SOL    HW218511   0.421   3.905   4.268 -2.0584 -0.5393  0.1986
 5502SOL     OW18512   9.898   0.352   0.303  0.1404 -0.1829  0.1906
 5502SOL    HW118513   9.899   0.335   0.208  1.3977 -0.6603  0.2783
 5502SOL    HW218514   9.837   0.425   0.313 -1.1887 -1.0912 -0.8182
 5503SOL     OW18515   2.013   5.348   9.868 -0.2441 -0.1772 -0.1683
 5503SOL    HW118516   1.999   5.424   9.925  0.5455  0.4469 -0.7780
 5503SOL    HW218517   2.012   5.273   9.927  0.7627  0.4716  0.7180
 5504SOL     OW18518   5.320   3.823  10.420  1.1959  0.1161  0.7871
 5504SOL    HW118519   5.391   3.813  10.484  0.2683  0.0880  1.8277
 5504SOL    HW218520   5.330   3.913  10.388  0.3107  0.9216  2.6551
 5505SOL     OW18521   2.033   9.005   6.248 -0.1731 -0.1174  0.5846
 5505SOL    HW118522   2.081   9.063   6.190 -1.1952 -0.1304 -0.3169
 5505SOL    HW218523   2.039   9.046   6.334  0.2122  0.6287  0.2104
 5506SOL     OW18524   8.055   0.428   1.376  0.2304 -0.5468  0.2188
 5506SOL    HW118525   8.121   0.422   1.308 -0.9616 -2.4371 -0.8678
 5506SOL    HW218526   8.103   0.452   1.455  2.2039 -1.8324 -0.5353
 5507SOL     OW18527   6.483   2.894   5.051  0.4159  0.3910 -0.1964
 5507SOL    HW118528   6.425   2.826   5.085 -1.7213  2.0795 -0.2541
 5507SOL    HW218529   6.537   2.920   5.125  0.6328 -0.7384  0.0463
 5508SOL     OW18530   4.761   8.265   4.508  0.4326 -0.5601 -0.1260
 5508SOL    HW118531   4.706   8.334   4.470  2.5025  1.7127  0.7315
 5508SOL    HW218532   4.714   8.238   4.587  0.3863  1.2568  0.5336
 5509SOL     OW18533   7.758   9.106   6.604 -0.3553  0.0242  0.5668
 5509SOL    HW118534   7.754   9.038   6.536 -0.1881  0.7083 -0.1443
 5509SOL    HW218535   7.729   9.186   6.560  1.9744  0.9862  0.6235
 5510SOL     OW18536   9.717   8.206   6.186 -0.3415  0.3838  0.4879
 5510SOL    HW118537   9.751   8.186   6.274  0.6905  2.4201  0.6208
 5510SOL    HW218538   9.738   8.129   6.135 -0.5671 -0.6770  1.9293
 5511SOL     OW18539  10.015   4.201  10.292  0.2427 -0.0426 -0.0991
 5511SOL    HW118540  10.016   4.131  10.356  0.1009  1.5171  1.7021
 5511SOL    HW218541  10.090   4.185  10.236 -0.7324 -2.5259 -0.8133
 5512SOL     OW18542   6.761   0.232  10.603  0.3130 -0.0466 -0.8367
 5512SOL    HW118543   6.733   0.245  10.512  0.6679 -1.6236 -1.1994
 5512SOL    HW218544   6.825   0.161  10.599  0.1894 -0.2833  0.6715
 5513SOL     OW18545   2.222   0.931   1.814 -0.0003  0.4336 -0.2257
 5513SOL    HW118546   2.169   0.860   1.849  0.2481  1.1217  1.6723
 5513SOL    HW218547   2.161   0.985   1.764 -1.0043  0.8727  1.4160
 5514SOL     OW18548   3.232   0.540   6.877 -0.1679 -0.3692 -0.2289
 5514SOL    HW118549   3.202   0.463   6.829  2.4203 -2.2169  0.8716
 5514SOL    HW218550   3.311   0.568   6.831 -0.1624  0.6088  0.3454
 5515SOL     OW18551   7.756   8.021   3.844  0.8973  0.0026  0.2775
 5515SOL    HW118552   7.701   7.943   3.843 -1.4035  1.3696  3.2896
 5515SOL    HW218553   7.740   8.062   3.759  1.5407 -2.3100 -1.0444
 5516SOL     OW18554   3.675  10.560   4.458  0.2942  0.0311 -0.2279
 5516SOL    HW118555   3.653  10.471   4.486  0.0278 -0.0814 -0.7895
 5516SOL    HW218556   3.667  10.613   4.537  1.5454 -0.6210  0.3744
 5517SOL     OW18557   5.454   4.697   1.274 -0.3637  0.5884  0.1934
 5517SOL    HW118558   5.470   4.653   1.358 -0.7753 -1.9325 -0.9694
 5517SOL    HW218559   5.364   4.675   1.252  0.1582  0.0198 -1.5366
 5518SOL     OW18560  10.234   8.633   7.387 -0.0789  0.3601 -0.4528
 5518SOL    HW118561  10.196   8.566   7.445 -3.0887  1.7541 -0.6400
 5518SOL    HW218562  10.257   8.586   7.307 -2.3958 -0.4837 -0.6858
 5519SOL     OW18563   6.362   8.863   4.946 -0.4379  0.1578  0.0797
 5519SOL    HW118564   6.322   8.857   4.859  1.1963 -0.3592 -0.6583
 5519SOL    HW218565   6.370   8.957   4.962 -2.4729  0.3007  0.5293
 5520SOL     OW18566  10.926  10.122   6.672  0.4454 -0.1898 -0.3094
 5520SOL    HW118567  11.016  10.135   6.643 -0.0267  1.0449 -1.3096
 5520SOL    HW218568  10.875  10.187   6.624 -0.7920  0.0802  1.2523
 5521SOL     OW18569   6.570   5.857   8.410 -0.2966  0.3152  0.1716
 5521SOL    HW118570   6.563   5.858   8.314 -4.2145 -0.4674  0.2670
 5521SOL    HW218571   6.494   5.907   8.440  1.9172  2.3519  2.9945
 5522SOL     OW18572   9.911   4.408   1.236  0.3723  0.5178 -0.0784
 5522SOL    HW118573   9.896   4.313   1.236  2.1956  0.1695  1.5260
 5522SOL    HW218574   9.960   4.425   1.156  3.0385 -0.5310  1.2048
 5523SOL     OW18575   2.091  10.371   8.013 -0.2648 -0.2895  0.5250
 5523SOL    HW118576   2.105  10.276   8.022 -0.0236 -0.0972  2.6550
 5523SOL    HW218577   2.018  10.390   8.072 -1.7295  0.5764 -1.4575
 5524SOL     OW18578   8.425   2.221   7.609 -0.3587  0.0864 -0.0377
 5524SOL    HW118579   8.506   2.230   7.559 -0.1118  0.0449  0.3514
 5524SOL    HW218580   8.432   2.287   7.677 -0.6164  0.0307  0.0417
 5525SOL     OW18581   2.696   2.649   7.622  0.8371  0.3471 -0.2806
 5525SOL    HW118582   2.775   2.629   7.673  1.3325 -1.1180 -1.5642
 5525SOL    HW218583   2.630   2.671   7.689  1.7801 -0.3554  0.9260
 5526SOL     OW18584   8.705   6.250   8.139  0.2239 -0.0414  0.2259
 5526SOL    HW118585   8.700   6.166   8.185 -1.4133  0.1402  0.4358
 5526SOL    HW218586   8.704   6.316   8.208 -2.3126  0.2349  0.0270
 5527SOL     OW18587   2.018   6.566   4.589  0.2619  0.4841 -0.2869
 5527SOL    HW118588   2.015   6.511   4.667  1.8621 -0.1774 -0.6398
 5527SOL    HW218589   1.947   6.629   4.600  0.5948  0.5425  1.7864
 5528SOL     OW18590   0.259   7.017   7.104  0.9311  0.2212 -0.9412
 5528SOL    HW118591   0.330   6.971   7.059  0.1338  0.7995 -2.8960
 5528SOL    HW218592   0.271   7.109   7.081  0.3742  0.5124 -0.1063
 5529SOL     OW18593   1.677   3.192   3.974  0.2554 -0.1852  0.2989
 5529SOL    HW118594   1.717   3.210   4.059 -0.3027 -0.5459  0.6465
 5529SOL    HW218595   1.727   3.118   3.938 -0.6735 -1.2920  1.1706
 5530SOL     OW18596   4.150   5.855   3.244 -0.3912  0.0020  0.3910
 5530SOL    HW118597   4.117   5.943   3.224  0.3602  0.2984  0.4293
 5530SOL    HW218598   4.107   5.799   3.180  0.2509  0.6151 -0.6126
 5531SOL     OW18599   0.582   1.345   5.663 -0.4079 -0.2039 -0.0305
 5531SOL    HW118600   0.574   1.281   5.592 -2.3078  0.0456 -0.0867
 5531SOL    HW218601   0.500   1.393   5.661  0.1164  0.7977  1.4087
 5532SOL     OW18602  10.587   3.099   4.503 -0.1958 -0.4828  0.1500
 5532SOL    HW118603  10.529   3.127   4.432  0.0271 -0.0247  0.1470
 5532SOL    HW218604  10.563   3.154   4.578  0.5631  0.0623  0.0078
 5533SOL     OW18605   5.312   2.963   3.016 -0.7076 -0.1643 -0.9260
 5533SOL    HW118606   5.375   3.014   3.068 -1.0898 -0.8599  0.2574
 5533SOL    HW218607   5.312   2.877   3.057  1.6280 -1.9703 -4.2019
 5534SOL     OW18608   8.234   8.493   6.571 -0.0019  0.6006 -0.4639
 5534SOL    HW118609   8.255   8.536   6.654 -2.1505 -0.3038  0.6348
 5534SOL    HW218610   8.254   8.559   6.505  0.8067  1.7242  0.8271
 5535SOL     OW18611   2.669   6.007   4.889  0.5911 -0.0155 -0.2859
 5535SOL    HW118612   2.727   6.067   4.842 -0.7702  0.6766 -1.1805
 5535SOL    HW218613   2.626   6.062   4.955 -0.0317 -0.1816 -0.5380
 5536SOL     OW18614  10.298   4.700   1.824 -0.8421  0.2428 -0.1751
 5536SOL    HW118615  10.307   4.795   1.833  0.4374  0.0951  0.3104
 5536SOL    HW218616  10.343   4.680   1.741 -0.2762 -0.0461  0.1994
 5537SOL     OW18617   5.079   6.202  10.845  0.3926 -0.0430  0.7668
 5537SOL    HW118618   5.146   6.231  10.906 -0.7165  3.1415  0.6998
 5537SOL    HW218619   5.068   6.109  10.862  2.5570  0.0235  2.9492
 5538SOL     OW18620   1.476   4.206   2.782 -0.1196 -0.1023 -0.6376
 5538SOL    HW118621   1.513   4.119   2.768  1.3183  0.4681 -0.5454
 5538SOL    HW218622   1.466   4.243   2.694 -0.1676 -0.1338 -0.6453
 5539SOL     OW18623   8.174   7.178   3.885 -0.2409  0.7049  0.2026
 5539SOL    HW118624   8.164   7.259   3.835 -2.3214  0.1129 -0.4313
 5539SOL    HW218625   8.267   7.175   3.906  0.1666  2.4883 -1.0661
 5540SOL     OW18626   0.917   4.755   9.840 -0.8106 -0.8207  0.1863
 5540SOL    HW118627   0.890   4.736   9.751  1.0268  1.9975 -1.1154
 5540SOL    HW218628   0.875   4.838   9.861 -0.7233 -1.1337  1.7077
 5541SOL     OW18629   5.278   9.184  10.681 -0.1706  0.1742  0.3029
 5541SOL    HW118630   5.193   9.228  10.674 -0.8945 -1.1296  0.5969
 5541SOL    HW218631   5.300   9.161  10.591 -0.8780 -0.8070  0.3586
 5542SOL     OW18632   5.539   1.782   3.224 -0.3853 -0.2289 -0.1958
 5542SOL    HW118633   5.546   1.861   3.171 -1.2783 -0.4391 -0.6518
 5542SOL    HW218634   5.451   1.785   3.261 -0.0613 -0.4925  0.6393
 5543SOL     OW18635   7.593   8.975   4.377  0.1595 -0.2098 -0.0372
 5543SOL    HW118636   7.646   8.901   4.407  1.5402  0.6912 -0.1480
 5543SOL    HW218637   7.581   8.960   4.283  3.0231  1.1495 -0.7285
 5544SOL     OW18638   7.902   2.708   6.531 -0.0270  0.1450 -0.2088
 5544SOL    HW118639   7.987   2.664   6.538  0.6918  1.0222 -2.4819
 5544SOL    HW218640   7.919   2.784   6.474 -2.6586 -0.6817 -2.3068
 5545SOL     OW18641   0.236   2.091   9.127 -0.3136  0.0346 -0.1461
 5545SOL    HW118642   0.231   1.996   9.130 -0.6293  0.0111 -1.1759
 5545SOL    HW218643   0.279   2.111   9.044 -0.6497  0.8019 -0.1471
 5546SOL     OW18644   1.649   9.979   4.836 -0.3984  0.1163  0.4545
 5546SOL    HW118645   1.683   9.893   4.811  0.0348  0.4436 -0.1165
 5546SOL    HW218646   1.556   9.965   4.854 -0.6548 -0.2118 -1.0052
 5547SOL     OW18647   4.991   3.190   0.708  0.4600 -0.0766 -0.2644
 5547SOL    HW118648   4.980   3.220   0.798 -0.2485 -1.1651  0.0257
 5547SOL    HW218649   4.911   3.217   0.663 -0.3766 -1.8345  0.1040
 5548SOL     OW18650   1.292  10.510  10.123  0.6099  0.5337  0.2588
 5548SOL    HW118651   1.380  10.545  10.136  0.1631  1.9851 -0.4043
 5548SOL    HW218652   1.235  10.587  10.124 -0.8161 -0.4571  1.8226
 5549SOL     OW18653  10.539   4.962  10.125 -0.4077  0.8312  0.3740
 5549SOL    HW118654  10.604   4.956  10.195  0.2385 -0.6170 -0.3161
 5549SOL    HW218655  10.590   4.973  10.045 -0.8496 -1.9120 -0.3822
 5550SOL     OW18656   1.585   1.766   0.134 -1.1174 -0.4067 -0.0021
 5550SOL    HW118657   1.650   1.728   0.076 -0.2489 -1.1431  1.4177
 5550SOL    HW218658   1.564   1.696   0.196 -0.2390  1.0518  2.0414
 5551SOL     OW18659   3.606  10.444   3.433 -0.3500  0.2381 -0.5095
 5551SOL    HW118660   3.599  10.468   3.525 -0.0798 -0.8926 -0.1801
 5551SOL    HW218661   3.516  10.429   3.405 -0.3217 -1.0216  0.0297
 5552SOL     OW18662  10.300   5.656   2.969  0.3645  0.6932 -0.7051
 5552SOL    HW118663  10.373   5.610   2.929  0.5612  0.7758 -0.4454
 5552SOL    HW218664  10.228   5.647   2.906  0.5992  0.6187 -0.9640
 5553SOL     OW18665   3.067  10.892   3.626  0.4172  0.2819 -0.6129
 5553SOL    HW118666   3.106  10.874   3.712  0.8735  0.6462 -0.7398
 5553SOL    HW218667   3.071  10.809   3.580  0.2231  0.0966 -0.3032
 5554SOL     OW18668   4.524   0.624   3.107  0.2532 -0.4116 -0.2499
 5554SOL    HW118669   4.525   0.646   3.014 -0.4299 -2.9183 -0.9090
 5554SOL    HW218670   4.431   0.616   3.129  0.4302 -0.7941  0.3833
 5555SOL     OW18671  10.711   1.937   8.886  0.1630 -0.5894  0.2512
 5555SOL    HW118672  10.634   1.986   8.916 -0.7926 -1.0329 -1.3135
 5555SOL    HW218673  10.781   1.961   8.946 -0.1403  2.9848 -0.6314
 5556SOL     OW18674   1.241   6.636   5.409 -0.1067 -0.2208 -0.5607
 5556SOL    HW118675   1.177   6.688   5.457  0.7478  1.0066 -0.6907
 5556SOL    HW218676   1.325   6.654   5.453  0.0979 -2.1814 -0.0816
 5557SOL     OW18677   2.058   8.759   0.162  0.1937 -0.3612 -0.1369
 5557SOL    HW118678   2.078   8.795   0.248 -1.3087 -0.2456  0.1904
 5557SOL    HW218679   2.034   8.834   0.109 -2.3728 -0.7211  0.3829
 5558SOL     OW18680   2.513   5.823   9.966 -0.1973 -0.3602 -0.5129
 5558SOL    HW118681   2.582   5.838   9.902 -0.2350 -1.8477 -0.9405
 5558SOL    HW218682   2.489   5.731   9.954 -1.4501 -0.1818  0.4151
 5559SOL     OW18683  10.710   9.041  11.039 -0.0173  0.5710  0.5964
 5559SOL    HW118684  10.738   8.970  11.097  0.2945  2.5716  3.0348
 5559SOL    HW218685  10.768   9.035  10.964 -0.5831 -2.2519  0.2786
 5560SOL     OW18686   8.598   6.114   2.736  0.5271 -0.1484  0.6488
 5560SOL    HW118687   8.591   6.070   2.820 -1.2915 -1.3795 -0.0832
 5560SOL    HW218688   8.561   6.052   2.673  3.2829  0.0691 -1.3555
 5561SOL     OW18689   0.243  10.593   2.066 -0.3964 -0.1403  0.3489
 5561SOL    HW118690   0.198  10.648   2.130  2.0516 -0.0819  2.1830
 5561SOL    HW218691   0.298  10.654   2.016  1.1420 -0.6651  1.3326
 5562SOL     OW18692  10.120   1.671   7.993 -0.6057  0.0823 -0.1075
 5562SOL    HW118693  10.175   1.725   8.049  0.4481 -1.1349  0.0973
 5562SOL    HW218694  10.172   1.592   7.978 -2.2768 -1.1046  0.0306
 5563SOL     OW18695   5.127  10.147   9.106 -0.2637  0.6415  0.2574
 5563SOL    HW118696   5.146  10.232   9.144  1.2787  0.8443 -0.8405
 5563SOL    HW218697   5.112  10.089   9.181 -0.8818  1.7732  1.0255
 5564SOL     OW18698   1.645   0.660   0.941 -0.0511  0.3219 -0.3750
 5564SOL    HW118699   1.596   0.604   1.001 -1.0460  0.1749 -1.2998
 5564SOL    HW218700   1.584   0.678   0.869  1.6987 -1.1480 -2.3560
 5565SOL     OW18701   8.770   0.006   3.764  0.0362 -0.1431  0.0020
 5565SOL    HW118702   8.805   0.023   3.851 -1.3995 -3.2635  1.3308
 5565SOL    HW218703   8.684   0.047   3.764 -1.3350 -2.8018  1.3641
 5566SOL     OW18704   4.083   7.112   8.481 -0.4873 -0.2290  0.0131
 5566SOL    HW118705   3.995   7.100   8.517 -1.1311 -0.2216 -1.5016
 5566SOL    HW218706   4.075   7.086   8.390  1.2143 -0.6902 -0.0306
 5567SOL     OW18707   1.560   7.828   4.261 -0.6288 -0.5270  0.1281
 5567SOL    HW118708   1.477   7.843   4.305 -1.1699 -0.1185 -0.9871
 5567SOL    HW218709   1.593   7.746   4.298 -2.5317 -1.8158 -0.8554
 5568SOL     OW18710   1.878   7.575   0.061 -0.3040  0.2372 -0.2486
 5568SOL    HW118711   1.831   7.505   0.108  1.5470 -2.6563 -2.3339
 5568SOL    HW218712   1.924   7.623   0.129 -2.2594 -0.0387  1.3592
 5569SOL     OW18713   0.052   9.935   9.747 -0.2862 -0.1207 -0.6794
 5569SOL    HW118714  -0.017   9.934   9.680 -0.3057 -0.3667 -0.6548
 5569SOL    HW218715   0.112   9.866   9.720 -0.7305 -0.7949  0.0169
 5570SOL     OW18716   2.543   1.296   6.067 -0.0369  0.7425  0.3775
 5570SOL    HW118717   2.499   1.334   6.143 -1.2483 -0.1026  0.1109
 5570SOL    HW218718   2.500   1.336   5.992 -1.2394 -1.0131  0.0911
 5571SOL     OW18719   0.657   9.040   2.075  0.1713 -0.3090 -0.0119
 5571SOL    HW118720   0.569   9.045   2.037  0.5468 -1.0602 -1.0083
 5571SOL    HW218721   0.690   9.130   2.069 -0.3496 -0.1149 -0.0563
 5572SOL     OW18722  11.048   2.804   1.442 -0.4076 -0.8052 -0.7266
 5572SOL    HW118723  11.008   2.807   1.355  3.1056 -2.5384 -2.5785
 5572SOL    HW218724  11.094   2.720   1.445 -0.0089 -0.6118  2.6905
 5573SOL     OW18725   2.526   7.984   3.054 -0.3171  0.0959  0.3369
 5573SOL    HW118726   2.473   8.049   3.099 -2.0877 -0.6515 -0.5885
 5573SOL    HW218727   2.530   8.014   2.964  0.2955 -0.2114  0.2542
 5574SOL     OW18728   6.868   5.301   8.247  0.4965  0.4583 -0.4004
 5574SOL    HW118729   6.920   5.374   8.281  0.9691  0.2728 -0.7105
 5574SOL    HW218730   6.929   5.227   8.244 -0.4080 -0.4471  1.5998
 5575SOL     OW18731   0.606   4.453   7.777 -0.1736 -0.3091 -0.2271
 5575SOL    HW118732   0.548   4.450   7.852  0.3375 -2.1015  0.1390
 5575SOL    HW218733   0.671   4.520   7.799 -1.4699  0.9929 -0.2138
 5576SOL     OW18734   9.314   3.713   7.561 -0.3871 -0.4178 -0.2908
 5576SOL    HW118735   9.342   3.778   7.496  0.2950 -0.2688  0.1400
 5576SOL    HW218736   9.294   3.764   7.639 -0.6885 -0.6486 -0.2165
 5577SOL     OW18737   3.511   9.653   0.584  0.9344  0.0689  0.5939
 5577SOL    HW118738   3.486   9.579   0.529  1.9909 -0.4384  0.7582
 5577SOL    HW218739   3.429   9.699   0.602  0.5951  0.4338 -1.6436
 5578SOL     OW18740   1.896   5.077   0.319 -0.0028  0.1932 -0.0843
 5578SOL    HW118741   1.922   5.154   0.369  0.9108 -1.8722  2.9337
 5578SOL    HW218742   1.803   5.064   0.341 -0.0006  0.1113 -0.1236
 5579SOL     OW18743   4.539   2.429   0.567 -0.1342  0.3616 -0.1909
 5579SOL    HW118744   4.475   2.386   0.624  0.2719 -1.0064 -0.7193
 5579SOL    HW218745   4.584   2.356   0.524  1.0045  1.3309 -0.6682
 5580SOL     OW18746   0.364   3.816   3.783 -0.8109 -0.6376  0.1120
 5580SOL    HW118747   0.309   3.887   3.815 -0.2203  0.0165 -0.2845
 5580SOL    HW218748   0.335   3.801   3.693 -0.5174 -0.4622 -0.0148
 5581SOL     OW18749   1.315   8.853   5.760 -0.6042  0.0640 -0.3637
 5581SOL    HW118750   1.266   8.771   5.769  2.8345 -2.3273 -1.5325
 5581SOL    HW218751   1.393   8.841   5.814 -0.2950  2.9202 -0.0135
 5582SOL     OW18752   9.654  10.993   5.834 -0.3779  0.4314 -0.0563
 5582SOL    HW118753   9.748  10.993   5.815 -0.0100  0.8338  1.6206
 5582SOL    HW218754   9.612  10.986   5.748  1.1650  1.1590 -0.9010
 5583SOL     OW18755   4.423   6.415   6.918  0.3872 -0.0560 -0.0397
 5583SOL    HW118756   4.500   6.458   6.881  1.4009 -0.2731  1.7007
 5583SOL    HW218757   4.364   6.487   6.942  0.4068  0.1565 -0.6161
 5584SOL     OW18758   1.641   6.890   1.924 -0.2925 -0.0292  0.7443
 5584SOL    HW118759   1.552   6.922   1.937 -0.4529 -0.8604  1.7306
 5584SOL    HW218760   1.646   6.809   1.974  0.3979 -1.0907 -0.9582
 5585SOL     OW18761   1.499   2.961   1.357 -0.1913  0.3160 -0.6360
 5585SOL    HW118762   1.420   2.922   1.394  0.3639  1.2269  1.7311
 5585SOL    HW218763   1.469   3.040   1.312 -0.6352  0.7901  0.4568
 5586SOL     OW18764   0.171  10.889  10.529 -0.0324  0.2532  0.0121
 5586SOL    HW118765   0.256  10.915  10.494  0.0638  0.5678  0.4765
 5586SOL    HW218766   0.118  10.870  10.451  0.5034 -0.0821 -0.2737
 5587SOL     OW18767   5.819   1.253  10.681 -0.8425 -1.2387 -0.0377
 5587SOL    HW118768   5.807   1.243  10.587  1.7758  0.6073 -0.6578
 5587SOL    HW218769   5.797   1.345  10.699  0.1307 -1.1589  0.8655
 5588SOL     OW18770   7.183   7.836   4.032 -0.1776 -1.2430 -0.0363
 5588SOL    HW118771   7.147   7.857   4.119 -2.2345 -1.1535 -0.8489
 5588SOL    HW218772   7.257   7.895   4.022 -1.7554  0.9369  0.4503
 5589SOL     OW18773  10.739   1.348   4.834 -0.1354 -0.2770  0.2277
 5589SOL    HW118774  10.653   1.387   4.849 -0.6891 -1.3290 -0.0957
 5589SOL    HW218775  10.800   1.421   4.839 -1.0970  0.5633 -0.0023
 5590SOL     OW18776   1.531   7.309   5.943  0.1313 -0.7411  0.0557
 5590SOL    HW118777   1.534   7.336   6.035 -2.5404 -1.5293  0.4534
 5590SOL    HW218778   1.549   7.390   5.894 -0.4250  0.1427  1.2608
 5591SOL     OW18779   2.551   2.015   3.403  0.5551 -0.4058 -0.6729
 5591SOL    HW118780   2.516   2.008   3.315 -1.5136  0.8783 -0.0126
 5591SOL    HW218781   2.504   1.948   3.453  0.8733 -0.3539 -0.2927
 5592SOL     OW18782   4.061   0.732   5.366 -0.3581  0.6529 -0.0752
 5592SOL    HW118783   3.976   0.702   5.397  0.1917 -0.7980  0.1251
 5592SOL    HW218784   4.043   0.771   5.280 -1.2492  0.5755  0.0666
 5593SOL     OW18785   5.447   4.051   7.835 -0.1051 -0.4828  0.1864
 5593SOL    HW118786   5.412   4.080   7.919 -1.9980  0.9616 -1.0088
 5593SOL    HW218787   5.521   4.109   7.818  0.3316 -0.8320  0.8700
 5594SOL     OW18788   7.807   3.665   8.852 -0.1628  0.3323  0.3148
 5594SOL    HW118789   7.746   3.592   8.848 -0.5009  0.6561 -0.6049
 5594SOL    HW218790   7.885   3.629   8.894 -1.0380 -0.0358  1.7049
 5595SOL     OW18791   4.752   4.679   2.534 -0.1499 -0.3121 -0.5200
 5595SOL    HW118792   4.833   4.727   2.550 -0.6890 -0.0129  1.6642
 5595SOL    HW218793   4.762   4.643   2.446  2.7428 -1.0507  0.0051
 5596SOL     OW18794   7.388   5.866   3.455 -0.2344  0.3630  0.6816
 5596SOL    HW118795   7.403   5.960   3.458  1.3456  0.1406  0.8091
 5596SOL    HW218796   7.339   5.846   3.535 -0.7050  1.0892  0.5773
 5597SOL     OW18797   7.555   8.509   2.573  0.1416 -0.5013 -0.6240
 5597SOL    HW118798   7.475   8.511   2.624 -0.3459 -1.7249 -1.3034
 5597SOL    HW218799   7.612   8.448   2.620  0.6974  0.3737 -0.1352
 5598SOL     OW18800   4.051   3.298   3.986  0.2624  0.3508  0.1948
 5598SOL    HW118801   4.126   3.300   3.928  1.4040  0.6930  1.6257
 5598SOL    HW218802   4.064   3.219   4.039  0.8871  1.6163  2.0234
 5599SOL     OW18803   1.456   2.259   8.314 -0.6332  0.0085 -0.4975
 5599SOL    HW118804   1.401   2.277   8.237 -0.8601 -1.1330 -0.6134
 5599SOL    HW218805   1.450   2.339   8.366 -0.5313  0.7816 -1.6245
 5600SOL     OW18806   8.775   4.209   5.152  0.4453 -0.3891  0.1241
 5600SOL    HW118807   8.824   4.232   5.073 -0.1044 -0.4616 -0.2360
 5600SOL    HW218808   8.694   4.258   5.146  0.5588 -0.0948  0.8401
 5601SOL     OW18809   2.419   3.265  10.780  0.4754 -0.5696 -0.0983
 5601SOL    HW118810   2.416   3.311  10.696 -1.1479 -0.6821 -0.1319
 5601SOL    HW218811   2.376   3.324  10.842 -1.2962 -1.7929 -0.0651
 5602SOL     OW18812   7.872   9.428   5.499  0.0117  0.3139  0.7207
 5602SOL    HW118813   7.827   9.449   5.581  0.2808 -2.1456  1.5752
 5602SOL    HW218814   7.807   9.446   5.431 -0.5117  1.5729  1.5186
 5603SOL     OW18815   8.306   4.133   8.281  0.0779  0.4012 -0.0047
 5603SOL    HW118816   8.256   4.052   8.279 -2.5159  1.8801 -0.4134
 5603SOL    HW218817   8.335   4.147   8.191 -0.7653  0.6173 -0.2563
 5604SOL     OW18818  10.348   0.034   6.134 -0.0438 -0.9104  0.0398
 5604SOL    HW118819  10.370   0.071   6.048  2.0671  1.1400  1.3320
 5604SOL    HW218820  10.433   0.018   6.175 -0.9940 -1.7065  1.8193
 5605SOL     OW18821   2.982   4.815   8.702 -0.5273  0.1426  0.3767
 5605SOL    HW118822   3.046   4.867   8.654 -1.3119 -0.4157 -1.3499
 5605SOL    HW218823   2.981   4.730   8.657 -0.1226 -1.0257  2.4045
 5606SOL     OW18824   1.002   8.924   7.295  0.2083  0.2622  0.2123
 5606SOL    HW118825   0.925   8.898   7.245  0.3274 -0.1888  0.2587
 5606SOL    HW218826   1.027   9.009   7.258 -0.5261  0.5868  0.4501
 5607SOL     OW18827   9.230   4.496   6.865 -0.9256  0.1224  0.6501
 5607SOL    HW118828   9.324   4.490   6.851 -0.7392  3.0922 -0.0294
 5607SOL    HW218829   9.192   4.435   6.802  0.5111  0.2409 -0.3799
 5608SOL     OW18830  10.967   6.956   2.774  0.0318 -0.1416 -0.2641
 5608SOL    HW118831  10.911   6.970   2.850  1.3047 -2.5140  1.2355
 5608SOL    HW218832  10.906   6.942   2.702 -1.3258 -1.2275  1.0245
 5609SOL     OW18833  10.570  10.551   1.145  0.1610 -0.1289 -0.1583
 5609SOL    HW118834  10.631  10.586   1.211 -1.8257 -1.0447  2.3223
 5609SOL    HW218835  10.484  10.561   1.185 -1.0172 -2.1710 -2.0148
 5610SOL     OW18836   4.999   0.960   3.994 -0.6340 -0.0258 -0.4002
 5610SOL    HW118837   4.988   0.866   4.008 -2.2274  0.0680 -0.7802
 5610SOL    HW218838   5.085   0.980   4.030 -0.5539 -1.5047  0.3049
 5611SOL     OW18839  10.648  10.191   9.710 -0.0371  0.0372 -0.7451
 5611SOL    HW118840  10.635  10.285   9.695 -3.2265  0.0779  1.3042
 5611SOL    HW218841  10.660  10.155   9.623 -1.4892  2.0541 -1.8703
 5612SOL     OW18842   8.133   6.118   4.706 -0.5231  0.3210 -0.1448
 5612SOL    HW118843   8.051   6.160   4.730 -0.2990  0.6879 -0.0168
 5612SOL    HW218844   8.172   6.178   4.642 -0.7147 -0.2252 -0.7869
 5613SOL     OW18845   7.841   1.163   4.478 -0.1090 -0.0030 -0.0337
 5613SOL    HW118846   7.780   1.223   4.435  0.0696 -0.1527 -0.5011
 5613SOL    HW218847   7.788   1.088   4.504 -0.4111  0.5214  0.9049
 5614SOL     OW18848   4.434   2.196   0.287  0.3745 -0.5162  0.3874
 5614SOL    HW118849   4.384   2.114   0.294  0.5749 -0.4969  2.5320
 5614SOL    HW218850   4.378   2.254   0.236 -0.3514 -1.5534 -0.0302
 5615SOL     OW18851   0.122   5.840   6.360  0.3263 -0.1763 -0.3030
 5615SOL    HW118852   0.152   5.768   6.306  0.7446  1.5913 -2.6123
 5615SOL    HW218853   0.126   5.807   6.449  1.1196 -2.7381 -1.1978
 5616SOL     OW18854   6.408   2.310   3.217  0.3201 -0.0872  0.4522
 5616SOL    HW118855   6.315   2.311   3.242  0.1871 -0.0216 -0.0451
 5616SOL    HW218856   6.425   2.218   3.194  0.5226 -0.2099  1.0664
 5617SOL     OW18857  10.535   1.998   6.863  1.6327 -0.1509  0.3503
 5617SOL    HW118858  10.610   1.996   6.805  2.3861  1.2447  1.2138
 5617SOL    HW218859  10.492   2.082   6.845  0.5308 -0.7344  0.1744
 5618SOL     OW18860   9.478   8.078   2.729  0.3086 -0.8110  0.4155
 5618SOL    HW118861   9.406   8.104   2.673 -0.5927 -1.6379  1.1575
 5618SOL    HW218862   9.532   8.156   2.737 -1.1767  0.1970  0.8688
 5619SOL     OW18863   8.946  10.224   4.386  0.7695  0.7689  0.3422
 5619SOL    HW118864   8.959  10.299   4.444  0.9138  1.6709 -0.8198
 5619SOL    HW218865   8.965  10.258   4.298 -1.0884 -0.0938 -0.4460
 5620SOL     OW18866   1.126   6.903   4.536 -0.4540 -0.1488  0.6700
 5620SOL    HW118867   1.124   6.990   4.496  1.1820 -0.7489 -0.8302
 5620SOL    HW218868   1.033   6.880   4.548 -0.9615  2.4134  2.6612
 5621SOL     OW18869   9.773   2.861   3.099  0.1036 -0.1347  0.1383
 5621SOL    HW118870   9.775   2.956   3.114  2.0664 -0.1029 -0.1018
 5621SOL    HW218871   9.796   2.824   3.184  3.9606 -0.1764 -0.7431
 5622SOL     OW18872  10.359   1.057   7.551  0.1378  0.1028  0.3945
 5622SOL    HW118873  10.402   0.984   7.507 -1.4731 -1.0964  0.7076
 5622SOL    HW218874  10.390   1.135   7.505 -0.0306 -0.9497 -1.5979
 5623SOL     OW18875   0.001  10.527   6.047  0.3010  0.1039  0.2923
 5623SOL    HW118876  -0.001  10.458   5.981 -0.5434 -1.1407  1.5723
 5623SOL    HW218877  -0.063  10.591   6.016  0.4934 -0.0699 -0.4912
 5624SOL     OW18878   9.454   0.070   4.895  0.3872  0.2609 -0.0337
 5624SOL    HW118879   9.381   0.112   4.848 -3.5866 -1.6513  3.6514
 5624SOL    HW218880   9.462  -0.016   4.854 -1.9923 -0.8142  1.5203
 5625SOL     OW18881   5.628   3.727   4.712 -0.5674 -0.2675 -0.0002
 5625SOL    HW118882   5.610   3.734   4.618  1.3600 -0.0475 -0.3764
 5625SOL    HW218883   5.720   3.702   4.718 -0.2713  1.0622  1.8532
 5626SOL     OW18884  10.648   8.141  10.089  0.6712  0.1540  0.6433
 5626SOL    HW118885  10.729   8.130  10.140  2.8465  2.5275 -1.9730
 5626SOL    HW218886  10.674   8.120   9.999 -1.6879  0.9404 -0.2873
 5627SOL     OW18887   1.279   4.044   2.349  0.5545  0.1528  0.7336
 5627SOL    HW118888   1.190   4.012   2.340  0.9331 -0.6096 -0.5655
 5627SOL    HW218889   1.330   3.966   2.372  0.7764  0.7309  2.3235
 5628SOL     OW18890   2.558   2.139  10.341 -0.5525  0.2291  0.5321
 5628SOL    HW118891   2.580   2.082  10.267 -4.1230 -0.0992 -0.4625
 5628SOL    HW218892   2.640   2.146  10.391  1.0883 -2.4422 -1.4834
 5629SOL     OW18893   8.338   6.586   5.905 -0.3717 -0.4650  0.5527
 5629SOL    HW118894   8.295   6.546   5.981 -2.3258  1.5856  0.6273
 5629SOL    HW218895   8.293   6.548   5.830 -0.1254 -0.6677  0.5064
 5630SOL     OW18896   6.752   6.334   5.763  0.0158  0.5530 -0.3160
 5630SOL    HW118897   6.754   6.282   5.844  1.8382 -0.5813 -1.0278
 5630SOL    HW218898   6.740   6.424   5.792 -0.7076  0.0279  1.1179
 5631SOL     OW18899   1.030   6.945   5.846 -1.0415  0.1495  0.4502
 5631SOL    HW118900   0.990   7.017   5.894 -0.7647  0.3845  0.3255
 5631SOL    HW218901   0.970   6.871   5.860 -0.4996 -0.0389  1.9116
 5632SOL     OW18902   9.125   5.848   8.383  0.1292 -0.2780  0.1661
 5632SOL    HW118903   9.105   5.777   8.323  1.3377  0.0078 -0.6073
 5632SOL    HW218904   9.221   5.846   8.393  0.1227  0.7784  0.6981
 5633SOL     OW18905   3.460   3.198   3.949  0.1205  0.5635  0.9327
 5633SOL    HW118906   3.373   3.204   3.989 -1.1338 -1.2147 -1.2978
 5633SOL    HW218907   3.509   3.141   4.007 -0.2919  1.3295  2.0595
 5634SOL     OW18908   2.438  10.099   4.678 -0.2945 -0.6591  0.4264
 5634SOL    HW118909   2.509  10.051   4.636 -0.0282 -0.1681  0.3069
 5634SOL    HW218910   2.477  10.133   4.759  0.5130  2.0680 -0.9866
 5635SOL     OW18911   1.136   7.185   9.068  0.4867 -1.0198 -0.8913
 5635SOL    HW118912   1.110   7.211   9.157 -1.8283 -1.0913 -1.4874
 5635SOL    HW218913   1.230   7.167   9.075  1.2654  2.6479  0.6771
 5636SOL     OW18914   0.660   9.046  10.397  0.2949  0.6664 -0.5474
 5636SOL    HW118915   0.587   9.057  10.458  0.6888 -0.0470  0.0554
 5636SOL    HW218916   0.729   9.004  10.448  0.3406 -0.7181 -1.6847
 5637SOL     OW18917   9.290  10.634   5.532  0.1773 -0.1444 -0.0247
 5637SOL    HW118918   9.330  10.621   5.618  1.0304 -1.3979 -0.5753
 5637SOL    HW218919   9.260  10.725   5.532  2.6605  0.7475  0.5720
 5638SOL     OW18920   3.327   4.406   4.294  0.3224 -0.5528 -0.4590
 5638SOL    HW118921   3.307   4.495   4.324 -0.1638 -0.9803  0.5385
 5638SOL    HW218922   3.260   4.387   4.229 -0.5662 -0.7592  0.4844
 5639SOL     OW18923  10.063   6.432   6.779 -0.8555  0.5362  0.8143
 5639SOL    HW118924  10.141   6.437   6.723 -1.8720  0.4468 -0.6846
 5639SOL    HW218925  10.092   6.382   6.855  0.8007  1.3633  0.7801
 5640SOL     OW18926   5.375   8.141   2.574  0.1379  0.2247  0.3166
 5640SOL    HW118927   5.309   8.165   2.509 -0.2126 -2.0009 -0.2469
 5640SOL    HW218928   5.442   8.094   2.523  0.7546  0.0268  1.2889
 5641SOL     OW18929  11.069   7.125  10.624  0.4019 -0.2412 -0.1933
 5641SOL    HW118930  11.148   7.081  10.656  0.6182  0.8521  0.8377
 5641SOL    HW218931  11.001   7.099  10.686  0.1814 -0.3770 -0.4931
 5642SOL     OW18932   4.686   4.037   7.707 -0.1509 -0.8844 -0.0801
 5642SOL    HW118933   4.599   4.004   7.730  0.6140 -1.4298  2.3699
 5642SOL    HW218934   4.677   4.132   7.712 -0.4262 -0.9562  1.0348
 5643SOL     OW18935   4.380   2.218   5.478 -0.7407 -0.1005  0.3110
 5643SOL    HW118936   4.358   2.308   5.501 -0.7398  0.6848 -2.3932
 5643SOL    HW218937   4.466   2.203   5.518 -0.4004  1.3768  0.2063
 5644SOL     OW18938   9.403   0.420   2.358 -0.2578  0.8620 -0.0934
 5644SOL    HW118939   9.423   0.488   2.422 -1.2963 -0.5922  1.8907
 5644SOL    HW218940   9.419   0.338   2.405  0.9605 -0.3250 -2.3859
 5645SOL     OW18941   3.425   0.804   5.547  0.2017 -0.1383  0.8652
 5645SOL    HW118942   3.507   0.792   5.499  0.7552  0.3786  1.6783
 5645SOL    HW218943   3.449   0.853   5.625 -1.0438  0.9060  0.6148
 5646SOL     OW18944   3.263   1.888   1.915  0.0209 -0.5808  0.5562
 5646SOL    HW118945   3.213   1.969   1.926  0.7893 -0.0416  0.1303
 5646SOL    HW218946   3.316   1.881   1.994  1.2870  0.2904 -0.1855
 5647SOL     OW18947   3.057   8.737   1.993  0.3814  0.2165 -0.2790
 5647SOL    HW118948   3.136   8.775   2.032 -0.0847  1.0426 -0.1148
 5647SOL    HW218949   2.994   8.735   2.066  0.0507  0.1633 -0.5669
 5648SOL     OW18950   0.738   0.667   3.571 -0.3043  0.2402 -0.0016
 5648SOL    HW118951   0.664   0.695   3.625 -0.1385 -0.4236  0.5955
 5648SOL    HW218952   0.778   0.595   3.621 -0.0084 -0.2422 -0.9053
 5649SOL     OW18953   0.374   7.355   5.291 -0.2572 -0.1045  0.1112
 5649SOL    HW118954   0.347   7.387   5.377  2.2780  0.0707  0.9352
 5649SOL    HW218955   0.453   7.304   5.308  1.2110  1.1870 -2.2399
 5650SOL     OW18956   0.976   5.185   1.500  0.3051  1.0676  0.3758
 5650SOL    HW118957   1.050   5.125   1.511 -1.4508 -1.8479 -2.1964
 5650SOL    HW218958   0.933   5.186   1.586  0.1104 -1.8659  0.4050
 5651SOL     OW18959  10.172   3.893  10.719  0.4513  0.2814  0.1769
 5651SOL    HW118960  10.240   3.936  10.770  0.1967 -1.7841  2.5042
 5651SOL    HW218961  10.218   3.831  10.663  0.6683  1.7365 -1.2970
 5652SOL     OW18962   2.952   3.492   1.818 -0.2282 -0.4292  0.0642
 5652SOL    HW118963   3.001   3.567   1.785 -1.8611  0.7390  0.1651
 5652SOL    HW218964   3.011   3.451   1.882  1.5482 -0.5791 -1.5815
 5653SOL     OW18965   9.679   7.800   3.310  0.5618  0.0385 -0.1607
 5653SOL    HW118966   9.735   7.746   3.254  0.7068 -0.9312  0.8770
 5653SOL    HW218967   9.628   7.854   3.250  1.3133 -0.3708 -1.1805
 5654SOL     OW18968   5.295   1.987   3.661  0.0438  0.0370 -0.1995
 5654SOL    HW118969   5.214   1.945   3.689  1.3109 -0.9012  2.4601
 5654SOL    HW218970   5.267   2.057   3.603 -2.3651 -2.7078 -2.6934
 5655SOL     OW18971   4.362   9.722   1.924  0.5022 -0.7569 -0.0129
 5655SOL    HW118972   4.354   9.781   1.998  3.1313  0.0051 -0.2283
 5655SOL    HW218973   4.272   9.708   1.893 -0.2888  2.5238  0.5135
 5656SOL     OW18974   1.259   0.520   2.483 -0.2285  0.0865  0.0844
 5656SOL    HW118975   1.335   0.534   2.539 -1.1268  0.0994  1.3454
 5656SOL    HW218976   1.194   0.583   2.514 -1.2623 -0.9056  0.0197
 5657SOL     OW18977   9.119   5.487   5.980 -0.1406  0.3122  0.1128
 5657SOL    HW118978   9.177   5.493   6.056  0.9529  3.5206 -0.7742
 5657SOL    HW218979   9.130   5.398   5.948  4.8237  0.7490 -0.2495
 5658SOL     OW18980   7.866   4.950   7.441  0.4980 -0.0232 -0.0778
 5658SOL    HW118981   7.948   4.904   7.455  0.0726 -0.7219  0.1596
 5658SOL    HW218982   7.866   4.972   7.347  0.8833 -0.1522 -0.1079
 5659SOL     OW18983   7.315   8.882   2.876  0.0818  0.0586 -0.6759
 5659SOL    HW118984   7.231   8.837   2.872 -1.0217  1.6107  2.3434
 5659SOL    HW218985   7.308   8.953   2.811 -0.2517 -0.8048 -1.6017
 5660SOL     OW18986  10.641   9.216   7.736 -0.1586  0.0158  0.6280
 5660SOL    HW118987  10.730   9.227   7.701 -0.2424  0.5797  0.5745
 5660SOL    HW218988  10.626   9.122   7.734 -0.1507  0.0120 -0.8704
 5661SOL     OW18989   4.688   4.762   5.325  0.2429 -0.7314  0.4369
 5661SOL    HW118990   4.737   4.765   5.243  1.0935 -1.6288  0.8738
 5661SOL    HW218991   4.608   4.714   5.304  0.8075 -1.6269  0.2821
 5662SOL     OW18992   0.846   7.796   3.531 -0.2783  0.3704 -0.7578
 5662SOL    HW118993   0.835   7.752   3.615  2.9660 -0.6930 -0.7754
 5662SOL    HW218994   0.765   7.777   3.483 -0.0587 -3.6439  0.1472
 5663SOL     OW18995   3.410   0.086   7.041 -0.1232 -0.0895 -0.3644
 5663SOL    HW118996   3.495   0.117   7.072 -0.1918 -1.4041  1.3084
 5663SOL    HW218997   3.355   0.084   7.119 -0.8666 -1.8452 -0.8732
 5664SOL     OW18998   5.472   2.752  10.116  0.7068 -0.0441 -0.0360
 5664SOL    HW118999   5.438   2.828  10.069  0.9232 -0.2882 -0.6019
 5664SOL    HW219000   5.544   2.720  10.061  0.1657 -1.0800 -0.1740
 5665SOL     OW19001   1.591   2.797   9.899 -0.5471 -0.1394  0.8239
 5665SOL    HW119002   1.675   2.766   9.864 -0.1752  1.2099  0.4404
 5665SOL    HW219003   1.558   2.856   9.831 -2.5031 -1.6943  0.3348
 5666SOL     OW19004   4.477   6.267   8.012 -0.5576  0.9583  0.5727
 5666SOL    HW119005   4.452   6.272   8.105 -0.0298  3.8930  0.6643
 5666SOL    HW219006   4.394   6.272   7.965 -0.7395  1.2001  0.9075
 5667SOL     OW19007   7.218   6.812   5.492  0.1846  0.4363 -0.3325
 5667SOL    HW119008   7.230   6.794   5.399 -2.2510  0.4633 -0.7102
 5667SOL    HW219009   7.146   6.754   5.519 -1.9543  3.2746  0.4994
 5668SOL     OW19010   8.606   7.574   3.718 -0.8650 -0.2124  0.0757
 5668SOL    HW119011   8.597   7.592   3.812  1.8272 -0.4351  0.4824
 5668SOL    HW219012   8.577   7.654   3.675 -1.4988  0.1485  1.1433
 5669SOL     OW19013   5.563   4.060   2.965  0.2742 -0.6252  0.3997
 5669SOL    HW119014   5.514   4.107   2.898 -2.0023 -1.6230  1.2607
 5669SOL    HW219015   5.541   4.104   3.047  2.1802 -0.0905  0.6883
 5670SOL     OW19016   2.161   9.996   1.691  0.2217 -0.2513 -0.7265
 5670SOL    HW119017   2.109  10.067   1.731 -0.4207  0.0175 -1.9740
 5670SOL    HW219018   2.160   9.926   1.757  0.1750  0.5886  0.1981
 5671SOL     OW19019   9.009   2.304   4.412  0.3637 -0.0054  0.3239
 5671SOL    HW119020   9.088   2.277   4.365  0.9302 -0.3321  1.4420
 5671SOL    HW219021   9.014   2.258   4.495 -2.3408 -2.1267 -0.5632
 5672SOL     OW19022   2.713  10.164   6.020 -0.4426  0.1425  0.5331
 5672SOL    HW119023   2.697  10.256   6.002 -0.6955  0.2389  1.2235
 5672SOL    HW219024   2.760  10.164   6.104 -1.5237 -0.4120  1.1643
 5673SOL     OW19025   2.674  10.734  11.090 -0.1729 -0.4980  0.0492
 5673SOL    HW119026   2.648  10.782  11.168  0.1672 -0.8397  0.3755
 5673SOL    HW219027   2.591  10.700  11.055 -0.3143 -0.4345  0.3186
 5674SOL     OW19028   0.559  10.235   4.992 -0.4333  0.0463 -0.4443
 5674SOL    HW119029   0.587  10.286   5.068  1.0025 -3.2956  1.4856
 5674SOL    HW219030   0.467  10.257   4.981 -0.7273  0.5635  2.3733
 5675SOL     OW19031  11.058   2.434   0.223 -0.2887  0.7292  0.2138
 5675SOL    HW119032  11.007   2.465   0.148  0.6870  0.9535 -0.3796
 5675SOL    HW219033  11.053   2.505   0.287 -2.2291 -0.0046  0.9362
 5676SOL     OW19034   5.426   9.542  10.158 -0.6466 -0.1736  0.8479
 5676SOL    HW119035   5.411   9.628  10.196  1.6027  0.1984  1.0199
 5676SOL    HW219036   5.499   9.506  10.208  2.2865  0.2267 -2.7163
 5677SOL     OW19037   6.532   2.663   1.648 -0.4925  0.7727 -0.2150
 5677SOL    HW119038   6.533   2.727   1.719  0.9126 -0.4333  0.8927
 5677SOL    HW219039   6.622   2.630   1.643 -1.2052 -1.2744 -0.6028
 5678SOL     OW19040   1.236   0.298  10.369 -0.5580  0.4452 -0.2728
 5678SOL    HW119041   1.183   0.270  10.444 -1.6737  0.4217 -1.0473
 5678SOL    HW219042   1.323   0.313  10.406 -0.9011 -0.2603  0.8956
 5679SOL     OW19043   5.835   1.378   6.975  0.2985 -0.5966  0.1068
 5679SOL    HW119044   5.847   1.398   6.882 -1.1370 -0.1034  0.0013
 5679SOL    HW219045   5.903   1.428   7.019  2.2528 -2.3144 -0.7743
 5680SOL     OW19046   2.804   5.922   6.228  0.0811 -0.3832 -0.3873
 5680SOL    HW119047   2.872   5.857   6.246  0.9282  1.2511  3.2401
 5680SOL    HW219048   2.726   5.870   6.210  2.0026 -2.3205 -4.2300
 5681SOL     OW19049   0.324   0.544   6.265  0.1011 -0.5148 -0.0718
 5681SOL    HW119050   0.242   0.565   6.219  0.5647  0.4249 -0.4922
 5681SOL    HW219051   0.318   0.450   6.283 -1.3663 -0.3370  0.5045
 5682SOL     OW19052   2.838   9.931   6.640 -0.0055  0.1861 -0.5324
 5682SOL    HW119053   2.835  10.026   6.632 -1.7922 -0.0007 -4.2975
 5682SOL    HW219054   2.924   9.907   6.606  0.1400  0.4081 -0.3239
 5683SOL     OW19055   1.334   4.250   7.408  0.3939  0.5516 -1.1124
 5683SOL    HW119056   1.299   4.339   7.410 -1.4134 -0.1043 -1.4845
 5683SOL    HW219057   1.428   4.261   7.395  0.1875  2.3938 -1.2613
 5684SOL     OW19058   9.694   7.634   4.698 -0.1885  0.1110  0.2174
 5684SOL    HW119059   9.761   7.568   4.716  1.7484  1.9926  0.3726
 5684SOL    HW219060   9.702   7.696   4.771 -0.5210  1.5582 -0.9326
 5685SOL     OW19061   5.428   8.717  10.033 -0.5104 -0.5614  0.5216
 5685SOL    HW119062   5.417   8.809  10.009 -1.1009 -1.0245 -1.1494
 5685SOL    HW219063   5.343   8.690  10.067 -0.3279 -0.4760  1.0419
 5686SOL     OW19064  10.405   0.239   2.219  0.0357  0.8340 -0.1387
 5686SOL    HW119065  10.449   0.176   2.162  0.2251  0.5927  0.2691
 5686SOL    HW219066  10.320   0.198   2.238  1.2812 -0.7557  2.5477
 5687SOL     OW19067   0.314   0.620   5.637  0.8379  0.5291  0.0935
 5687SOL    HW119068   0.347   0.698   5.593 -0.6270 -0.3327 -2.8220
 5687SOL    HW219069   0.226   0.644   5.666  0.1401 -0.1493 -1.3638
 5688SOL     OW19070   3.832   1.347   9.425  0.7601 -0.0791 -0.6780
 5688SOL    HW119071   3.876   1.264   9.407  0.1051 -0.1985 -1.8204
 5688SOL    HW219072   3.783   1.366   9.345 -0.0573  0.8021  0.0092
 5689SOL     OW19073   9.517   6.274   4.291  0.2113  0.6123 -0.5004
 5689SOL    HW119074   9.449   6.234   4.236  2.2104 -1.4261 -1.6747
 5689SOL    HW219075   9.582   6.204   4.302  2.3383  2.5963  0.1932
 5690SOL     OW19076   2.076   2.853   1.284  0.1625  0.2369  0.1905
 5690SOL    HW119077   2.013   2.868   1.354 -1.0161 -1.6539 -0.3923
 5690SOL    HW219078   2.162   2.866   1.325 -0.5353  0.6331  1.5841
 5691SOL     OW19079   6.956   6.934   8.479 -0.2581 -0.1224 -0.6436
 5691SOL    HW119080   7.051   6.926   8.481 -0.3899 -3.2601 -1.0596
 5691SOL    HW219081   6.932   6.963   8.567  0.9565 -3.4694  0.9484
 5692SOL     OW19082   9.606   2.671   4.184 -0.0879  0.0465 -0.2482
 5692SOL    HW119083   9.601   2.628   4.099  0.8027  1.3300 -0.9819
 5692SOL    HW219084   9.570   2.758   4.170 -0.5845  0.0435  0.8719
 5693SOL     OW19085   1.345   3.868   3.356  0.4718 -0.1174 -0.7137
 5693SOL    HW119086   1.309   3.944   3.401  1.8941  0.4583 -0.4789
 5693SOL    HW219087   1.302   3.793   3.397  1.6083  0.3839  1.5498
 5694SOL     OW19088   5.996   0.013   2.077  0.2520 -0.3803 -0.6062
 5694SOL    HW119089   5.954   0.027   2.162 -0.1903 -0.2081 -0.8488
 5694SOL    HW219090   5.980  -0.080   2.057  1.9659 -0.9166  0.3503
 5695SOL     OW19091   6.532   8.713   4.574 -0.5859  0.4375 -0.1315
 5695SOL    HW119092   6.520   8.636   4.631 -1.0424 -0.1023 -0.9349
 5695SOL    HW219093   6.468   8.777   4.608  0.7380  1.0189  1.4145
 5696SOL     OW19094   5.201   6.041   7.104 -0.5254  0.4137  0.6147
 5696SOL    HW119095   5.106   6.053   7.107 -0.4743  1.0889 -0.0330
 5696SOL    HW219096   5.217   5.964   7.157 -1.5382 -0.2681 -0.0324
 5697SOL     OW19097   4.079   7.173   4.714  0.4967 -0.0399  0.1289
 5697SOL    HW119098   4.138   7.121   4.768  1.0400 -0.5160 -0.8816
 5697SOL    HW219099   3.991   7.142   4.736  0.6987 -0.1798  0.7617
 5698SOL     OW19100   6.017   9.334   9.676 -0.1165 -0.0764  0.1020
 5698SOL    HW119101   5.994   9.372   9.761  0.1991  1.4255 -0.4556
 5698SOL    HW219102   6.047   9.408   9.624 -3.8635 -0.1739 -2.6178
 5699SOL     OW19103   9.151   0.805   9.809  0.2874  0.0954 -0.2525
 5699SOL    HW119104   9.110   0.882   9.848 -0.5736  0.8230 -2.4463
 5699SOL    HW219105   9.081   0.740   9.802  0.6583 -0.3679  0.2434
 5700SOL     OW19106  10.552   8.491  10.504 -0.0982  0.0402  0.1716
 5700SOL    HW119107  10.625   8.454  10.454  1.3565 -0.5301  2.5503
 5700SOL    HW219108  10.572   8.584  10.510 -0.7872  0.2842 -1.0683
 5701SOL     OW19109   1.563   0.162   4.528 -0.2679  0.1460 -0.0840
 5701SOL    HW119110   1.654   0.140   4.545  0.0348 -2.2824 -3.7062
 5701SOL    HW219111   1.513   0.113   4.593  0.9205 -0.2990  0.5196
 5702SOL     OW19112   6.031   5.180   5.616  0.3243 -0.1431 -0.5364
 5702SOL    HW119113   6.028   5.168   5.710 -0.0768  1.0871 -0.3783
 5702SOL    HW219114   6.124   5.195   5.596  0.2180  1.3317 -0.0761
 5703SOL     OW19115   6.616   0.192   9.921 -0.5245  0.7540  0.2220
 5703SOL    HW119116   6.627   0.280   9.886 -2.0110  0.6931 -0.4672
 5703SOL    HW219117   6.544   0.200   9.985  0.7289  0.4398  1.7294
 5704SOL     OW19118  10.641   0.692   7.557  0.1710 -0.3880  0.0002
 5704SOL    HW119119  10.630   0.766   7.616  2.1613  0.4844 -0.6343
 5704SOL    HW219120  10.735   0.686   7.543  0.1395 -3.3776  0.3928
 5705SOL     OW19121   9.133   6.324   7.322  0.6846 -0.4373  0.4240
 5705SOL    HW119122   9.038   6.308   7.325 -0.2507  3.5098 -1.0650
 5705SOL    HW219123   9.150   6.374   7.402  0.6411  1.9494 -0.9639
 5706SOL     OW19124   2.183   6.323   5.912 -0.5602 -0.3826  0.9618
 5706SOL    HW119125   2.197   6.384   5.984 -0.0599  0.6691  0.0060
 5706SOL    HW219126   2.124   6.369   5.853  1.7746  0.2878 -1.0120
 5707SOL     OW19127   8.003   3.682   7.862  0.1051 -0.1109 -0.3639
 5707SOL    HW119128   7.974   3.623   7.792  1.6816 -1.7171  0.2903
 5707SOL    HW219129   7.963   3.647   7.941  1.9987 -1.0620  0.2143
 5708SOL     OW19130   8.345   8.637   4.258  0.0188 -0.0380 -0.0553
 5708SOL    HW119131   8.308   8.585   4.329  1.1085 -0.0242  0.5551
 5708SOL    HW219132   8.439   8.621   4.264  0.1347 -0.0213 -1.5003
 5709SOL     OW19133   1.855   9.034   0.229  0.3446  0.2490  0.3990
 5709SOL    HW119134   1.884   9.040   0.320  0.8957  0.5211  0.2087
 5709SOL    HW219135   1.762   9.013   0.234  0.7422 -1.6026  1.0372
 5710SOL     OW19136   3.975   1.854   5.768 -0.2039  0.5570  0.9774
 5710SOL    HW119137   4.052   1.811   5.728  0.3522  0.2741  2.3128
 5710SOL    HW219138   4.013   1.919   5.827 -1.0262  1.3166  0.6750
 5711SOL     OW19139   9.201   2.227  10.553 -0.0260 -0.2742 -0.1287
 5711SOL    HW119140   9.138   2.159  10.577 -1.9118  1.1597 -0.7842
 5711SOL    HW219141   9.239   2.256  10.636  0.4522 -1.7440  0.2005
 5712SOL     OW19142  10.056   5.353   6.828  0.3931  0.2919  0.2164
 5712SOL    HW119143  10.132   5.297   6.847 -0.8299 -1.0291  1.4265
 5712SOL    HW219144  10.077   5.394   6.744  2.0343 -0.7617  0.0716
 5713SOL     OW19145   6.051   4.632   0.401  0.3972  0.8062 -0.5595
 5713SOL    HW119146   6.029   4.694   0.331 -1.5509 -0.0383 -0.7587
 5713SOL    HW219147   6.052   4.686   0.480  0.2090  1.3678 -0.9310
 5714SOL     OW19148   0.638   1.135   5.856 -0.1961 -0.5413 -0.4870
 5714SOL    HW119149   0.620   1.206   5.795 -1.2430 -0.4782 -0.1284
 5714SOL    HW219150   0.691   1.073   5.806 -1.9288 -1.0226 -1.8256
 5715SOL     OW19151   3.752   9.352   0.309  0.5092  0.1863 -0.3095
 5715SOL    HW119152   3.809   9.343   0.232  0.6447 -2.9869  0.0479
 5715SOL    HW219153   3.678   9.295   0.291 -0.7454  1.3853  0.8574
 5716SOL     OW19154   4.654   5.227   7.717 -0.1753 -0.7053  0.5087
 5716SOL    HW119155   4.603   5.197   7.792 -0.5903  0.7242  0.8267
 5716SOL    HW219156   4.590   5.235   7.646 -0.2270  0.1223  0.6361
 5717SOL     OW19157   4.227   2.997   9.397 -0.0894 -0.3124 -0.0614
 5717SOL    HW119158   4.135   3.021   9.386 -0.1841 -0.1681  0.9134
 5717SOL    HW219159   4.248   2.944   9.320 -0.3465  1.4984 -1.4402
 5718SOL     OW19160   4.114   4.518   0.621  0.1551 -0.3352 -0.0087
 5718SOL    HW119161   4.117   4.557   0.534  0.0538  0.9744  0.5411
 5718SOL    HW219162   4.184   4.562   0.670 -0.0794 -0.7207  0.6921
 5719SOL     OW19163   1.124   9.052   9.159 -0.0325 -0.1349  0.2522
 5719SOL    HW119164   1.207   9.100   9.151  0.9881 -1.2846  2.7589
 5719SOL    HW219165   1.147   8.961   9.144 -1.1021 -0.3437 -0.2025
 5720SOL     OW19166   8.870  10.274   1.450 -0.1776 -0.6670 -0.7110
 5720SOL    HW119167   8.915  10.194   1.475  0.1904 -0.5586 -1.0240
 5720SOL    HW219168   8.883  10.280   1.356  0.4978  0.1913 -0.5703
 5721SOL     OW19169  10.464   2.249   8.546  0.6108 -0.9842  0.4113
 5721SOL    HW119170  10.468   2.301   8.466  0.0603 -0.2979  0.8204
 5721SOL    HW219171  10.551   2.258   8.585  0.3205  0.1908  0.8178
 5722SOL     OW19172   2.243   7.076  11.054 -0.2977 -0.1716 -0.9246
 5722SOL    HW119173   2.262   7.041  11.142 -1.0647 -1.1713 -1.1377
 5722SOL    HW219174   2.159   7.036  11.030 -1.0966  1.6530 -1.3085
 5723SOL     OW19175   0.438   6.564   1.753  0.6413 -0.6491 -0.3464
 5723SOL    HW119176   0.481   6.648   1.742  1.7185 -0.8727  1.6478
 5723SOL    HW219177   0.361   6.583   1.807  0.9072 -0.9250  0.1395
 5724SOL     OW19178   2.869   0.881   6.840 -0.0495  0.2144  0.5807
 5724SOL    HW119179   2.867   0.977   6.847  0.6748  0.3564 -0.8573
 5724SOL    HW219180   2.944   0.855   6.894  2.2041  0.8359 -2.0533
 5725SOL     OW19181  10.898   2.464   1.460  0.6488 -0.6735 -0.1423
 5725SOL    HW119182  10.815   2.465   1.507  0.0174  1.9150 -1.1259
 5725SOL    HW219183  10.956   2.518   1.513  1.5612 -1.9565  0.2202
 5726SOL     OW19184   0.254   1.454   5.848 -0.3932 -0.3441  0.4020
 5726SOL    HW119185   0.195   1.496   5.911  1.4294  0.9107  1.3367
 5726SOL    HW219186   0.272   1.522   5.783  1.8337  0.0678  1.3989
 5727SOL     OW19187   0.727   2.214   4.838 -0.0700 -0.0146  0.3710
 5727SOL    HW119188   0.783   2.243   4.765  0.0011  0.6943  0.7030
 5727SOL    HW219189   0.776   2.239   4.916 -0.4973 -0.0952  0.6620
 5728SOL     OW19190   9.080   6.894   0.150 -0.1101  0.1159  0.1030
 5728SOL    HW119191   9.090   6.957   0.079 -1.2443  1.3021  0.9332
 5728SOL    HW219192   9.162   6.845   0.151  0.3915  0.8859 -1.2415
 5729SOL     OW19193   7.383  10.294   6.539  0.2365  0.4659  0.1207
 5729SOL    HW119194   7.324  10.228   6.503  0.3836  1.3435 -1.8585
 5729SOL    HW219195   7.445  10.244   6.592 -1.8433 -0.5499  1.7830
 5730SOL     OW19196   1.679   6.420   3.866 -0.0797 -0.3533  0.1158
 5730SOL    HW119197   1.629   6.394   3.944  0.2857 -2.1398 -0.2205
 5730SOL    HW219198   1.619   6.479   3.819  0.0977  1.7191  2.2434
 5731SOL     OW19199  10.303   2.184   6.012 -0.3895  0.2779 -0.2723
 5731SOL    HW119200  10.367   2.146   6.072  0.2180  1.5484 -0.0802
 5731SOL    HW219201  10.228   2.125   6.017 -0.3820  0.3587  1.7999
 5732SOL     OW19202   2.613  11.100   7.950  0.0377  0.3208 -0.0800
 5732SOL    HW119203   2.706  11.079   7.963  0.9183  2.3293 -2.2000
 5732SOL    HW219204   2.596  11.075   7.859 -0.6451  2.4558 -0.6009
 5733SOL     OW19205   9.369   0.881   8.103  0.1120  0.6556  0.0565
 5733SOL    HW119206   9.307   0.825   8.149  0.5008  0.4962  0.3863
 5733SOL    HW219207   9.405   0.938   8.170  0.1637  0.8975 -0.1741
 5734SOL     OW19208   0.729   4.859   3.245 -0.4075 -0.2865 -0.3982
 5734SOL    HW119209   0.802   4.866   3.183  1.2918 -1.8646  1.3133
 5734SOL    HW219210   0.719   4.947   3.281 -0.8350  0.4420 -2.2012
 5735SOL     OW19211   0.324   0.878   6.078 -0.3664 -0.6967  0.1499
 5735SOL    HW119212   0.286   0.958   6.114  1.0854  0.1603 -0.1697
 5735SOL    HW219213   0.287   0.872   5.990  1.1280  0.8106 -0.6265
 5736SOL     OW19214  10.033  10.913   9.086  0.1656  0.2079 -0.2443
 5736SOL    HW119215   9.951  10.961   9.075  1.2872  1.9231 -1.6576
 5736SOL    HW219216  10.045  10.907   9.181  0.0823  3.0501  0.0354
 5737SOL     OW19217  10.751   8.526   4.998 -0.0788 -0.0490  0.6092
 5737SOL    HW119218  10.704   8.455   4.954  2.8854 -2.8722  1.5715
 5737SOL    HW219219  10.833   8.534   4.949  1.7872 -0.8310  3.3751
 5738SOL     OW19220   1.060   1.775   8.078 -0.1139 -0.1369 -0.4348
 5738SOL    HW119221   1.008   1.716   8.023  1.4397  0.6481 -2.9107
 5738SOL    HW219222   1.059   1.859   8.032  1.0497  0.6649  0.8963
 5739SOL     OW19223  11.085   4.181   2.152  0.0187 -0.0237 -0.8146
 5739SOL    HW119224  11.063   4.108   2.209  1.3720 -1.1802 -1.6931
 5739SOL    HW219225  11.047   4.258   2.195 -2.8489 -1.4007 -0.6803
 5740SOL     OW19226   8.171   0.804   1.688  0.0655  0.2718  0.1856
 5740SOL    HW119227   8.190   0.836   1.600 -1.1163  0.8714  0.1181
 5740SOL    HW219228   8.151   0.883   1.739  0.3870 -0.0945  0.8953
 5741SOL     OW19229   6.242   7.469   8.990  0.2093  0.2488  0.0868
 5741SOL    HW119230   6.234   7.521   8.910 -0.1914 -0.7731 -0.5435
 5741SOL    HW219231   6.296   7.523   9.048 -0.8722  1.7381 -0.2368
 5742SOL     OW19232   9.958   3.926   5.532  0.4907  0.1759  0.2716
 5742SOL    HW119233  10.027   3.934   5.466  0.6366 -0.7812  0.2882
 5742SOL    HW219234   9.879   3.906   5.482  0.3852  0.4708  0.3168
 5743SOL     OW19235   9.400   4.119   9.821 -0.6657  0.5097 -0.7164
 5743SOL    HW119236   9.330   4.061   9.791  0.5252 -1.2349 -0.2475
 5743SOL    HW219237   9.364   4.162   9.898 -0.3228 -2.5868  1.3286
 5744SOL     OW19238   5.648   5.116   2.336 -0.2171  0.6247 -0.4203
 5744SOL    HW119239   5.687   5.092   2.252 -0.1151 -1.1732  0.0965
 5744SOL    HW219240   5.628   5.209   2.328  0.0174  0.5397 -2.3369
 5745SOL     OW19241  10.662   7.410   9.956 -0.4649  0.7655 -0.1348
 5745SOL    HW119242  10.610   7.446   9.884 -2.3854 -1.6614 -0.1277
 5745SOL    HW219243  10.597   7.386  10.023  0.8707 -0.5268  0.7603
 5746SOL     OW19244   1.987   7.441   5.432 -0.6985 -0.5128  0.4214
 5746SOL    HW119245   1.902   7.457   5.472 -0.4830  0.7020  0.4191
 5746SOL    HW219246   1.973   7.458   5.339 -0.1875  0.8325  0.5768
 5747SOL     OW19247   3.003   6.605   9.157  0.3567  0.3270 -0.3265
 5747SOL    HW119248   2.925   6.558   9.185  1.0029 -0.5291  0.0621
 5747SOL    HW219249   2.970   6.690   9.127 -0.8524 -0.4293 -1.2280
 5748SOL     OW19250   1.947   2.029   0.188  0.1746  0.3795  0.4468
 5748SOL    HW119251   1.980   1.942   0.163  1.6701  1.4540 -1.6544
 5748SOL    HW219252   1.881   2.011   0.255  0.7456 -2.3356  0.4126
 5749SOL     OW19253   5.702   3.507   1.021  0.3016  0.3917  1.1030
 5749SOL    HW119254   5.630   3.462   1.065 -0.9688  0.2916 -0.9698
 5749SOL    HW219255   5.695   3.481   0.929  2.6710  0.8188  0.7320
 5750SOL     OW19256   1.499   8.070   5.749 -0.5519  0.1837 -0.2872
 5750SOL    HW119257   1.588   8.097   5.726 -0.7964  0.2942 -1.1543
 5750SOL    HW219258   1.448   8.088   5.670 -0.8396 -2.3668 -0.7691
 5751SOL     OW19259   8.001  10.041   1.140  0.5210 -0.0152  0.3421
 5751SOL    HW119260   8.062  10.095   1.090  0.9643 -1.3535 -0.6390
 5751SOL    HW219261   7.985  10.091   1.220  2.2285  0.7759  0.2474
 5752SOL     OW19262   6.547   4.829   3.847  0.2622  0.0822  0.3591
 5752SOL    HW119263   6.496   4.910   3.850  0.3347  0.2656 -1.7653
 5752SOL    HW219264   6.516   4.784   3.769  1.8609 -0.8303  0.2053
 5753SOL     OW19265   6.089   4.303   1.139 -0.0132 -0.1227  0.3670
 5753SOL    HW119266   6.025   4.236   1.115  0.1218  0.1483 -0.8090
 5753SOL    HW219267   6.106   4.288   1.232  0.0641 -1.7438  0.1191
 5754SOL     OW19268   3.360   1.195   1.099 -0.6703  0.0731  0.1796
 5754SOL    HW119269   3.330   1.129   1.162 -1.6767 -0.9055 -1.2608
 5754SOL    HW219270   3.280   1.224   1.054 -0.2073  2.0825  0.5670
 5755SOL     OW19271   7.614   9.516   8.586 -0.0997 -0.2648  0.0410
 5755SOL    HW119272   7.543   9.577   8.603  0.1201 -0.0163  0.0740
 5755SOL    HW219273   7.692   9.559   8.622  0.1180 -0.3989 -0.2646
 5756SOL     OW19274   3.192   3.944   6.717  0.0829 -0.1053  0.2791
 5756SOL    HW119275   3.144   4.013   6.763 -0.0886  0.9160 -1.3273
 5756SOL    HW219276   3.170   3.864   6.764 -2.4623  0.4620  0.2151
 5757SOL     OW19277  10.071   6.582   1.466  0.0738  0.4272 -0.9218
 5757SOL    HW119278  10.109   6.648   1.408  0.2872 -0.0480 -1.3319
 5757SOL    HW219279  10.066   6.503   1.413 -3.2457  0.8997 -1.5159
 5758SOL     OW19280   1.213   1.254   4.373 -0.1851 -0.4595  0.1671
 5758SOL    HW119281   1.238   1.210   4.454 -0.1193  0.0685  0.4346
 5758SOL    HW219282   1.297   1.270   4.329 -0.0757  0.7666  0.7832
 5759SOL     OW19283   1.098   1.421   1.902  0.2167  0.2600  0.0570
 5759SOL    HW119284   1.192   1.403   1.907 -0.1360 -1.7035  0.6244
 5759SOL    HW219285   1.063   1.351   1.846 -1.3332 -1.1808  2.6249
 5760SOL     OW19286   3.169   1.957   2.226  0.6190 -0.0667 -0.8964
 5760SOL    HW119287   3.162   1.920   2.315  0.2496  0.4818 -0.6935
 5760SOL    HW219288   3.227   1.896   2.180  0.4430 -0.6141 -0.4161
 5761SOL     OW19289   2.502   7.115  10.295 -0.7128  0.8147 -0.4197
 5761SOL    HW119290   2.587   7.158  10.289 -0.8981  1.4942  1.3305
 5761SOL    HW219291   2.447   7.176  10.344 -1.8150 -0.2136 -0.3209
 5762SOL     OW19292   0.878   3.103   7.929  0.5338 -0.0677  0.4737
 5762SOL    HW119293   0.918   3.045   7.864  1.4824  1.3881 -0.2786
 5762SOL    HW219294   0.950   3.128   7.987  0.4741  1.5562 -0.1219
 5763SOL     OW19295   2.466   6.946   2.546 -0.5359 -0.5509  0.3849
 5763SOL    HW119296   2.510   6.871   2.506  0.3122  0.1456 -0.0153
 5763SOL    HW219297   2.374   6.920   2.551 -0.4543 -1.1460 -0.8600
 5764SOL     OW19298   8.955   9.512  10.952 -0.3746  0.2016  0.1625
 5764SOL    HW119299   9.007   9.451  10.900 -1.8117 -2.2147  1.3792
 5764SOL    HW219300   9.011   9.589  10.963  1.6299 -0.9823 -1.2218
 5765SOL     OW19301   9.240   2.835  10.626 -0.5056 -0.1551  0.1636
 5765SOL    HW119302   9.309   2.786  10.670  0.9645 -2.6154 -4.2497
 5765SOL    HW219303   9.285   2.889  10.561 -2.5616 -0.5838 -1.7687
 5766SOL     OW19304  10.114   8.239   0.378 -0.4655 -0.1700 -0.2040
 5766SOL    HW119305  10.163   8.168   0.419 -0.3249  0.1698  0.2207
 5766SOL    HW219306  10.062   8.195   0.310 -0.8001 -0.7612  0.4179
 5767SOL     OW19307   6.778   0.378   4.272  0.0352  0.1388 -0.1218
 5767SOL    HW119308   6.870   0.397   4.290 -0.1850  0.2430  0.9332
 5767SOL    HW219309   6.773   0.376   4.176  0.6681  2.5413 -0.2841
 5768SOL     OW19310   2.514   7.341   0.546  0.1185 -0.5240 -0.2926
 5768SOL    HW119311   2.560   7.369   0.467 -1.5052  0.1203 -1.0715
 5768SOL    HW219312   2.515   7.246   0.543  0.8973 -0.5115 -0.5667
 5769SOL     OW19313   4.963   2.144  10.505  0.4069 -0.7939  0.1014
 5769SOL    HW119314   4.994   2.205  10.572  1.9285  0.0889 -1.3326
 5769SOL    HW219315   5.007   2.061  10.526  1.0402 -0.4681  0.0714
 5770SOL     OW19316   3.379   7.741   8.617  0.4917 -0.2510  0.1213
 5770SOL    HW119317   3.434   7.664   8.605  0.0912 -0.3815 -1.0029
 5770SOL    HW219318   3.311   7.713   8.678 -0.5428 -1.2913 -1.4400
 5771SOL     OW19319   9.161   9.346  10.795  0.0186  0.0339  0.5867
 5771SOL    HW119320   9.205   9.297  10.726 -0.8831  1.2440 -0.9079
 5771SOL    HW219321   9.216   9.335  10.872  1.7762 -0.2311 -0.6654
 5772SOL     OW19322   4.527   0.836   9.550 -0.0818  1.0727 -0.4591
 5772SOL    HW119323   4.590   0.765   9.534 -0.2206  1.3637 -2.4885
 5772SOL    HW219324   4.442   0.797   9.531 -0.5759  0.7911  1.9261
 5773SOL     OW19325   4.622   5.079   8.003  0.4781 -0.0107  0.1282
 5773SOL    HW119326   4.680   5.082   8.078  1.1527  0.4484 -0.3970
 5773SOL    HW219327   4.612   4.985   7.984  2.0702 -0.0711 -0.5368
 5774SOL     OW19328   9.058   1.359   9.861  0.7661  0.0331  0.0626
 5774SOL    HW119329   9.088   1.439   9.818  1.7897 -0.2380  0.2669
 5774SOL    HW219330   9.047   1.296   9.790  1.5472 -0.1335  0.0886
 5775SOL     OW19331   3.123   1.371  10.378  0.2206 -0.2672  0.2808
 5775SOL    HW119332   3.037   1.335  10.354 -0.1519 -0.4932  1.8400
 5775SOL    HW219333   3.182   1.342  10.308 -0.6340 -1.5633  0.0765
 5776SOL     OW19334   1.251   0.021   5.138  0.2346 -0.2894  0.1875
 5776SOL    HW119335   1.228  -0.007   5.227  1.3458  2.0663  1.3198
 5776SOL    HW219336   1.328   0.077   5.150  2.8667 -2.9051 -2.7392
 5777SOL     OW19337   5.226   0.823   9.760 -0.4500  0.4518  0.5343
 5777SOL    HW119338   5.319   0.818   9.738 -0.3874 -3.3163  0.9547
 5777SOL    HW219339   5.182   0.782   9.686 -1.9039  2.6186  0.1175
 5778SOL     OW19340  10.031   0.885   8.970  0.5520 -0.0468 -0.3161
 5778SOL    HW119341   9.974   0.959   8.948 -0.1846 -0.4549  0.1817
 5778SOL    HW219342  10.114   0.926   8.996  0.9966  0.5004 -2.4099
 5779SOL     OW19343   2.368   9.358   8.948  0.3683 -0.2321  0.0765
 5779SOL    HW119344   2.331   9.365   8.860  0.2961 -1.1062  0.0229
 5779SOL    HW219345   2.334   9.434   8.995 -0.7279 -0.4982 -0.2539
 5780SOL     OW19346   3.625   6.295   7.445 -0.3527  0.2560  0.5792
 5780SOL    HW119347   3.658   6.206   7.433 -3.8432 -1.2535  1.0247
 5780SOL    HW219348   3.623   6.332   7.356  0.5681 -0.3149  0.3122
 5781SOL     OW19349   3.052   5.693   5.758  0.2653  0.5410 -0.2377
 5781SOL    HW119350   3.136   5.661   5.791  0.3934  0.0040 -1.0601
 5781SOL    HW219351   2.987   5.638   5.801  0.5344 -1.7218 -2.5270
 5782SOL     OW19352   7.469   4.104   9.784 -0.5603  0.5785 -0.1236
 5782SOL    HW119353   7.402   4.171   9.797  0.4209  1.5743 -0.0532
 5782SOL    HW219354   7.433   4.026   9.827 -2.1495  0.7556 -1.0439
 5783SOL     OW19355  10.691   3.175   8.007  0.4110 -0.0256  0.5249
 5783SOL    HW119356  10.668   3.267   8.004 -1.2194 -0.4126 -1.1425
 5783SOL    HW219357  10.770   3.168   7.953  0.1082  0.3035  0.0345
 5784SOL     OW19358   9.149   0.990   7.776 -0.2935  0.0845 -0.4034
 5784SOL    HW119359   9.078   0.926   7.778 -1.5623  1.3891  2.5126
 5784SOL    HW219360   9.136   1.038   7.695 -2.1200 -0.3915 -0.4354
 5785SOL     OW19361   0.587   2.497   9.609  0.3878 -0.3839 -1.0586
 5785SOL    HW119362   0.517   2.561   9.615  0.2269 -0.3823 -2.5902
 5785SOL    HW219363   0.624   2.493   9.698  0.1767  1.5396 -0.8400
 5786SOL     OW19364   8.176   6.238   6.001 -0.2034 -0.7896  0.0718
 5786SOL    HW119365   8.118   6.205   6.069  1.6508 -2.2327  1.0401
 5786SOL    HW219366   8.124   6.232   5.921 -2.2394  0.3941  1.2047
 5787SOL     OW19367   9.332   7.724   4.006 -0.0896  0.6814  0.2792
 5787SOL    HW119368   9.337   7.786   4.079 -0.5258  0.4319  0.5295
 5787SOL    HW219369   9.386   7.763   3.937  2.8896 -0.5502  1.7699
 5788SOL     OW19370   7.527   0.387   8.092 -0.3532  0.2389 -0.3194
 5788SOL    HW119371   7.541   0.439   8.171 -0.0661 -0.1926 -0.0839
 5788SOL    HW219372   7.546   0.447   8.020  0.6566  0.2792 -0.0410
 5789SOL     OW19373   2.449   7.793   1.256 -0.1312 -0.3670  0.1044
 5789SOL    HW119374   2.501   7.817   1.333 -1.8447  0.3387  1.1063
 5789SOL    HW219375   2.419   7.877   1.221 -1.1973 -0.7724  0.0082
 5790SOL     OW19376   9.738   7.731   0.163  0.3494 -0.1649 -0.2736
 5790SOL    HW119377   9.787   7.650   0.153  2.1400  0.8426 -0.0976
 5790SOL    HW219378   9.731   7.743   0.258 -1.5296 -0.9840 -0.2486
 5791SOL     OW19379   0.839   1.132   6.954 -0.0706 -0.2532  0.5445
 5791SOL    HW119380   0.755   1.172   6.931  0.2866  1.1419  1.5513
 5791SOL    HW219381   0.836   1.046   6.913 -2.1002 -0.3417  0.7771
 5792SOL     OW19382   7.109   7.086   0.512  0.2377  0.2346 -0.0404
 5792SOL    HW119383   7.117   7.092   0.417  1.4348 -2.9599 -0.2648
 5792SOL    HW219384   7.199   7.080   0.544 -0.1897 -0.3701  1.1287
 5793SOL     OW19385   7.058   9.094   9.197 -0.6890  0.3765 -0.9780
 5793SOL    HW119386   6.978   9.055   9.232 -0.3947  0.2500 -0.4463
 5793SOL    HW219387   7.122   9.086   9.267  0.3719 -1.3015 -2.0589
 5794SOL     OW19388   8.176   4.225   6.104 -0.0824  0.5492  0.2167
 5794SOL    HW119389   8.134   4.310   6.092 -0.0170  0.7764  1.4022
 5794SOL    HW219390   8.105   4.167   6.132 -0.5794 -0.3999 -2.7580
 5795SOL     OW19391   5.802   5.635   4.979  0.7305 -0.0499 -0.2839
 5795SOL    HW119392   5.711   5.649   4.951  0.9507 -1.3440 -1.7565
 5795SOL    HW219393   5.834   5.723   4.999 -0.9259  0.4091  0.6186
 5796SOL     OW19394   3.458   2.281   2.764  0.5187  0.2083 -0.1347
 5796SOL    HW119395   3.437   2.328   2.845 -0.3219 -0.6440  0.1679
 5796SOL    HW219396   3.372   2.261   2.726  0.9012  0.4065 -1.1332
 5797SOL     OW19397   4.049  10.310   9.514 -0.0173  0.0787  0.3596
 5797SOL    HW119398   3.983  10.245   9.491 -0.8613  1.8350 -2.7378
 5797SOL    HW219399   4.012  10.357   9.589  0.1269 -2.1964  1.9374
 5798SOL     OW19400   3.202   0.172  11.083 -0.1537 -0.7192  0.7522
 5798SOL    HW119401   3.158   0.117  11.018 -0.5070 -0.7023  0.9755
 5798SOL    HW219402   3.245   0.109  11.141  1.7256 -0.7069 -0.5609
 5799SOL     OW19403  10.087   9.179   4.536 -0.3632 -0.1104 -0.0970
 5799SOL    HW119404  10.080   9.266   4.495  0.3162  0.2016  0.4281
 5799SOL    HW219405   9.999   9.163   4.571 -0.5983  0.1968 -0.5266
 5800SOL     OW19406   8.407   4.230  10.869  0.3134  0.0180 -0.1564
 5800SOL    HW119407   8.420   4.241  10.775 -1.6374 -0.7989 -0.5613
 5800SOL    HW219408   8.361   4.309  10.896  0.4247  0.0211  0.0275
 5801SOL     OW19409   4.728   5.907   4.333  0.0567 -0.4001 -0.5554
 5801SOL    HW119410   4.677   5.850   4.391  0.7371 -0.8217 -0.3592
 5801SOL    HW219411   4.724   5.864   4.248 -0.1062 -0.3084 -0.5950
 5802SOL     OW19412  10.213   8.317   9.469  0.4169 -0.0691 -0.0496
 5802SOL    HW119413  10.251   8.365   9.543  0.1170 -0.6126  0.4716
 5802SOL    HW219414  10.250   8.359   9.391 -0.9425  1.9680  0.3167
 5803SOL     OW19415   1.302   8.172   5.217  0.0280 -0.7385  0.9592
 5803SOL    HW119416   1.302   8.145   5.309 -0.1109  1.1545  1.5642
 5803SOL    HW219417   1.363   8.246   5.214 -1.2432  0.3111 -0.1201
 5804SOL     OW19418  10.049  10.104  10.892  1.3287  0.5998 -0.4132
 5804SOL    HW119419   9.975  10.091  10.952  1.9223  3.1698  0.9884
 5804SOL    HW219420  10.077  10.015  10.870  0.7428 -0.4723  2.6949
 5805SOL     OW19421   1.092   7.917   7.088 -0.0579  0.6037 -0.7125
 5805SOL    HW119422   1.184   7.894   7.079 -0.4336 -1.5279  0.1852
 5805SOL    HW219423   1.089   7.978   7.162  0.5392 -0.2898  0.0736
 5806SOL     OW19424   7.617   5.775  10.522 -0.7077  0.8434  0.1037
 5806SOL    HW119425   7.612   5.870  10.512 -1.8180  0.5803 -2.4946
 5806SOL    HW219426   7.525   5.746  10.523 -0.4189 -0.1571  1.9011
 5807SOL     OW19427   7.832   1.875   5.967 -1.0769  0.5197  0.5349
 5807SOL    HW119428   7.858   1.896   6.057 -2.5793  0.5202  1.0041
 5807SOL    HW219429   7.887   1.931   5.912 -0.8293  1.2495  1.5022
 5808SOL     OW19430   6.403  10.396   4.316 -0.5758  0.1632  1.1189
 5808SOL    HW119431   6.363  10.481   4.297 -0.9291 -0.4653 -1.1929
 5808SOL    HW219432   6.332  10.333   4.310  0.1296 -0.5824  0.3289
 5809SOL     OW19433   6.392   8.735   8.415 -0.1539 -0.1564  0.1003
 5809SOL    HW119434   6.485   8.751   8.397 -0.5474  2.0453 -0.2522
 5809SOL    HW219435   6.390   8.705   8.506  0.9336 -0.4943  0.0228
 5810SOL     OW19436   0.234   6.539   0.651  0.6989 -0.0072 -0.9147
 5810SOL    HW119437   0.248   6.606   0.718  0.7359 -0.6411 -0.2700
 5810SOL    HW219438   0.234   6.587   0.568  0.7732  0.7771 -0.4710
 5811SOL     OW19439   3.566   8.873   0.098 -0.5858  0.4489 -0.2870
 5811SOL    HW119440   3.658   8.865   0.122 -0.6706  2.7135  1.1571
 5811SOL    HW219441   3.567   8.929   0.020 -0.7280  0.7749 -0.0596
 5812SOL     OW19442   8.147   2.572   2.397 -0.1964 -0.1740  0.0641
 5812SOL    HW119443   8.103   2.516   2.333 -0.0203 -0.6261  0.3294
 5812SOL    HW219444   8.223   2.521   2.426 -0.5375 -0.1916  0.9803
 5813SOL     OW19445   5.045   3.038   7.739 -0.2093 -0.1922 -0.2796
 5813SOL    HW119446   5.074   3.127   7.758  1.2690 -0.5298 -0.7625
 5813SOL    HW219447   5.034   3.037   7.644  0.8410 -0.7881 -0.4128
 5814SOL     OW19448   1.296   7.469   5.133  0.6435  0.1861  0.1040
 5814SOL    HW119449   1.286   7.440   5.042  1.9108 -2.1155  0.6277
 5814SOL    HW219450   1.351   7.547   5.127  0.0930  0.5125 -1.1305
 5815SOL     OW19451   0.797   8.711   7.168  0.1629  0.4567  0.1307
 5815SOL    HW119452   0.731   8.669   7.113 -0.8071 -0.4013  1.8805
 5815SOL    HW219453   0.875   8.656   7.159 -0.1453  0.0330  0.0426
 5816SOL     OW19454  10.460   0.410   2.757  0.7424 -0.1811 -0.4237
 5816SOL    HW119455  10.528   0.349   2.730  3.0138  2.6313 -1.6044
 5816SOL    HW219456  10.468   0.415   2.852  1.6458 -0.4670 -0.4776
 5817SOL     OW19457   6.591   7.758   4.158 -0.3857  0.3675  0.1145
 5817SOL    HW119458   6.642   7.722   4.231 -0.5679  0.9435  0.5285
 5817SOL    HW219459   6.504   7.720   4.168 -0.8273  1.5759  1.0637
 5818SOL     OW19460   2.978   4.826  10.083 -0.3509  0.4711 -0.7750
 5818SOL    HW119461   3.028   4.903  10.057 -1.7974  1.2027 -1.5184
 5818SOL    HW219462   2.955   4.784  10.000 -2.2359  1.0068 -0.5717
 5819SOL     OW19463   7.987   2.862  10.441 -0.5215 -0.5703  0.0258
 5819SOL    HW119464   8.079   2.873  10.416  0.2000  1.7858  3.0691
 5819SOL    HW219465   7.940   2.928  10.389 -0.3062 -0.9792 -0.6915
 5820SOL     OW19466   3.429   9.438   1.414  0.1245 -0.2010  0.0679
 5820SOL    HW119467   3.373   9.373   1.455  2.2784 -0.6730  2.5405
 5820SOL    HW219468   3.471   9.483   1.487  0.6554  2.2303 -1.6185
 5821SOL     OW19469   7.909   4.547   3.430 -0.4169  0.2079 -0.6738
 5821SOL    HW119470   7.960   4.466   3.427 -1.0552 -0.3741  1.8050
 5821SOL    HW219471   7.929   4.584   3.516 -1.9798  1.4284 -0.8029
 5822SOL     OW19472   4.159   4.645   4.374 -0.6179 -0.5374  0.1422
 5822SOL    HW119473   4.143   4.668   4.283  0.0930 -0.4041  0.0475
 5822SOL    HW219474   4.212   4.716   4.408  2.5118 -2.4190 -0.4421
 5823SOL     OW19475   0.473   1.796   0.038  0.6805 -0.7857  0.2832
 5823SOL    HW119476   0.399   1.830   0.089  1.4820 -0.8807  1.5324
 5823SOL    HW219477   0.493   1.866  -0.025 -1.8700 -1.6205 -1.6297
 5824SOL     OW19478   0.982   8.443   8.291 -0.4921  0.4195 -0.0064
 5824SOL    HW119479   0.924   8.489   8.231 -1.5468  0.8595  1.3072
 5824SOL    HW219480   0.925   8.414   8.362  0.6855 -0.2806  0.6910
 5825SOL     OW19481   8.537   0.162   3.798 -0.0028 -0.5613 -0.2541
 5825SOL    HW119482   8.477   0.177   3.871 -0.3895 -1.0346 -0.4706
 5825SOL    HW219483   8.533   0.243   3.747 -1.8479 -1.2273 -1.2548
 5826SOL     OW19484   6.407   4.451   3.974  0.3563 -0.1704  0.4031
 5826SOL    HW119485   6.376   4.527   4.023  0.4872  0.3447 -0.2923
 5826SOL    HW219486   6.471   4.487   3.912  1.0562 -0.9704  0.6461
 5827SOL     OW19487   1.465   5.544   6.764  0.0258  0.5582  0.9376
 5827SOL    HW119488   1.477   5.638   6.774 -1.0706  0.9832 -1.0979
 5827SOL    HW219489   1.532   5.518   6.700 -0.0705  0.0807  1.0256
 5828SOL     OW19490   2.714   5.421  10.048  0.1243 -0.5641 -0.6429
 5828SOL    HW119491   2.638   5.457  10.093 -0.1163  2.3189 -2.9847
 5828SOL    HW219492   2.686   5.414   9.956  2.6331  0.7391 -1.6073
 5829SOL     OW19493   2.305   2.384   7.856 -0.1529  0.3079 -0.1497
 5829SOL    HW119494   2.396   2.399   7.829 -0.3778  0.0854 -1.0925
 5829SOL    HW219495   2.280   2.465   7.900  0.8265 -0.0329  1.0843
 5830SOL     OW19496   0.536   2.831   2.015  0.1718 -0.3899  0.7981
 5830SOL    HW119497   0.476   2.896   1.978  0.1107  0.8910  2.9970
 5830SOL    HW219498   0.530   2.757   1.955 -2.2712  0.3651 -0.0173
 5831SOL     OW19499   6.303   0.130   3.068  0.7232 -0.4207 -0.2122
 5831SOL    HW119500   6.241   0.083   3.013 -0.1380  1.5495 -0.9843
 5831SOL    HW219501   6.256   0.145   3.151  0.4479  0.3378 -0.4971
 5832SOL     OW19502   0.863   5.909   4.954  0.1552  0.4999  0.2305
 5832SOL    HW119503   0.770   5.889   4.963  0.4727 -0.9896  0.5454
 5832SOL    HW219504   0.907   5.826   4.974  1.6217  1.5942  1.7808
 5833SOL     OW19505   8.005   7.404   9.976 -0.0932  0.0658  0.0679
 5833SOL    HW119506   7.980   7.379   9.887 -2.1761  1.5855  0.1457
 5833SOL    HW219507   8.006   7.321  10.025 -1.0698 -0.5437 -0.9075
 5834SOL     OW19508   8.121   2.044  10.701 -0.3137 -0.0749  0.0464
 5834SOL    HW119509   8.050   2.108  10.696 -0.4163  0.1314  2.5405
 5834SOL    HW219510   8.082   1.968  10.744  1.5039  1.2669  4.7686
 5835SOL     OW19511   7.664   7.730   3.162 -0.2443 -0.4174  0.1422
 5835SOL    HW119512   7.586   7.773   3.197 -0.8105 -1.8832  0.7802
 5835SOL    HW219513   7.692   7.670   3.231  1.1908 -0.2454 -0.2590
 5836SOL     OW19514   9.688   9.137   6.780 -0.1716 -0.5476 -0.2329
 5836SOL    HW119515   9.694   9.108   6.871  3.5603  0.9992  0.1968
 5836SOL    HW219516   9.651   9.225   6.785  0.8871 -0.0882 -0.0177
 5837SOL     OW19517   4.447   6.034   5.844  0.6604  0.3068 -0.3404
 5837SOL    HW119518   4.415   6.069   5.761  2.2487 -0.2466 -1.2330
 5837SOL    HW219519   4.417   5.943   5.845  0.0885  0.4921  0.0180
 5838SOL     OW19520   8.056   7.578   3.174  0.3283 -0.4937  0.4810
 5838SOL    HW119521   8.022   7.654   3.126  0.5868  0.6701  2.0711
 5838SOL    HW219522   7.994   7.565   3.246  1.5187 -0.3469  1.5511
 5839SOL     OW19523   8.521   5.460   3.016 -0.0210 -0.3603 -0.1378
 5839SOL    HW119524   8.540   5.448   3.109  0.8636  1.8138  0.0310
 5839SOL    HW219525   8.425   5.467   3.012 -0.0126  0.7362  0.8234
 5840SOL     OW19526   4.657  10.200   9.115 -0.3599  0.0680 -0.5680
 5840SOL    HW119527   4.732  10.165   9.066  0.4517  0.6083  0.2803
 5840SOL    HW219528   4.584  10.144   9.088 -0.1689  0.8841 -3.1046
 5841SOL     OW19529   4.162   7.813  10.114  0.1834 -0.1920  0.5493
 5841SOL    HW119530   4.234   7.844  10.169 -0.2860  0.2344  0.9314
 5841SOL    HW219531   4.111   7.756  10.172 -0.0799 -0.0699  0.4374
 5842SOL     OW19532   5.010   4.403   6.354  0.1554 -0.0436  0.3211
 5842SOL    HW119533   5.003   4.476   6.293  1.7543  1.1123  1.4332
 5842SOL    HW219534   4.937   4.414   6.415 -0.6359 -0.4097 -0.5460
 5843SOL     OW19535   6.637   1.073   7.676  0.3666 -0.5006  0.1135
 5843SOL    HW119536   6.641   1.058   7.770 -0.0552  0.9689  0.4046
 5843SOL    HW219537   6.699   1.144   7.660 -4.5030  4.6648  0.6570
 5844SOL     OW19538   6.098   7.299   0.173 -0.0173  0.2784  0.5619
 5844SOL    HW119539   6.121   7.352   0.250 -0.9541 -0.6800  1.5277
 5844SOL    HW219540   6.155   7.222   0.179  0.1900  0.3886  0.0630
 5845SOL     OW19541   3.363  11.024   3.060  0.2449 -0.0852 -0.3757
 5845SOL    HW119542   3.433  11.034   3.125 -0.8267  0.2919  0.7662
 5845SOL    HW219543   3.332  11.114   3.045 -3.7026 -0.4086  3.4544
 5846SOL     OW19544  10.123   4.870   9.934  0.3383 -0.0851 -0.3468
 5846SOL    HW119545  10.189   4.801   9.945 -3.8891 -4.3502  1.8783
 5846SOL    HW219546  10.071   4.842   9.859 -2.6804 -0.6660  1.7923
 5847SOL     OW19547   9.075   5.343   3.084  0.2928  0.0093  0.2540
 5847SOL    HW119548   9.057   5.316   3.174  0.9603  0.5121  0.5506
 5847SOL    HW219549   8.991   5.374   3.050 -0.4337 -2.0717  0.0017
 5848SOL     OW19550   8.012   2.989   6.656  0.3698  0.3007  0.1258
 5848SOL    HW119551   8.085   3.010   6.597  1.5609 -0.4603  1.2892
 5848SOL    HW219552   8.054   2.966   6.739 -1.0958 -1.6662  0.3865
 5849SOL     OW19553   6.630  10.455   5.745 -0.1799  0.7185 -0.0663
 5849SOL    HW119554   6.684  10.533   5.739  0.4734  0.4228  1.4348
 5849SOL    HW219555   6.569  10.462   5.672 -0.3923  2.8268  0.2449
 5850SOL     OW19556   1.918   9.662   3.617  0.0991 -0.2174 -0.3528
 5850SOL    HW119557   1.872   9.608   3.681 -0.0313  0.0907 -0.1869
 5850SOL    HW219558   1.988   9.605   3.584  1.0993  0.1030  1.1331
 5851SOL     OW19559   0.650   7.787   4.401 -0.2167  0.7442  0.3120
 5851SOL    HW119560   0.740   7.793   4.433  0.5126 -0.1750 -1.4378
 5851SOL    HW219561   0.627   7.876   4.373 -0.9014  1.5963  3.2528
 5852SOL     OW19562  10.606   4.876   4.381  0.8801 -0.3546  0.2751
 5852SOL    HW119563  10.627   4.967   4.399 -3.2820  1.2626 -1.6269
 5852SOL    HW219564  10.637   4.860   4.292  4.3712 -2.0444  1.5940
 5853SOL     OW19565   8.195   7.832   7.589 -0.3346  0.4440  0.9457
 5853SOL    HW119566   8.153   7.755   7.550 -1.4550 -0.2525  3.3464
 5853SOL    HW219567   8.280   7.837   7.546 -2.1462  1.0642 -3.1146
 5854SOL     OW19568   9.250  10.655   3.310 -0.4206  0.6026 -0.5233
 5854SOL    HW119569   9.192  10.581   3.328  1.8191 -0.7683  1.5939
 5854SOL    HW219570   9.211  10.728   3.359 -1.0101  0.0036 -0.0792
 5855SOL     OW19571  10.695   8.443   5.723  0.4265  0.4495  0.6891
 5855SOL    HW119572  10.747   8.428   5.644  3.1023  0.5477  2.3136
 5855SOL    HW219573  10.685   8.538   5.728 -1.8311  0.3499 -0.7043
 5856SOL     OW19574   7.262   6.536   5.514 -0.0612 -0.4435 -0.0823
 5856SOL    HW119575   7.176   6.509   5.482 -1.0804  0.3125  1.8471
 5856SOL    HW219576   7.298   6.458   5.557  0.4116 -0.8673 -1.2154
 5857SOL     OW19577  10.378  10.907   4.460 -0.4787  0.5221  0.6724
 5857SOL    HW119578  10.430  10.832   4.486 -0.0927  0.7837  0.6671
 5857SOL    HW219579  10.299  10.903   4.515  0.3299  1.0840  1.9197
 5858SOL     OW19580   5.908   2.511   1.655  0.1424  0.1917  0.3294
 5858SOL    HW119581   5.868   2.595   1.634  0.0306  0.0096 -0.2171
 5858SOL    HW219582   5.992   2.512   1.610  0.1310  0.0091  0.3000
 5859SOL     OW19583   9.205   4.736  10.941  0.3940  0.6885  0.5881
 5859SOL    HW119584   9.168   4.780  11.017 -0.6864 -1.6952  1.5522
 5859SOL    HW219585   9.291   4.706  10.969  0.2719  0.3838  0.6346
 5860SOL     OW19586   6.654   4.866   8.051  0.3979  0.0940  0.5989
 5860SOL    HW119587   6.605   4.802   8.103 -0.1881  0.2030  0.1875
 5860SOL    HW219588   6.589   4.929   8.022  0.4287 -0.7667 -1.5142
 5861SOL     OW19589   1.615   3.553   7.614  0.7627  0.1331 -0.3770
 5861SOL    HW119590   1.623   3.638   7.572 -3.0381  0.9547  0.2146
 5861SOL    HW219591   1.541   3.511   7.571 -0.7886 -0.6201  2.7027
 5862SOL     OW19592   7.305   0.343   6.133 -0.5282 -0.7116  0.4314
 5862SOL    HW119593   7.397   0.335   6.160 -1.1248 -1.9744  2.3055
 5862SOL    HW219594   7.288   0.264   6.082 -0.5771 -0.4526  0.0413
 5863SOL     OW19595   4.918   3.806   2.612 -0.4364 -0.3867  0.3967
 5863SOL    HW119596   4.876   3.762   2.687  1.4475 -2.2416  0.4633
 5863SOL    HW219597   4.943   3.734   2.554 -2.9080  1.0405 -2.7235
 5864SOL     OW19598   7.384  10.207   5.532  0.2203  0.0091 -0.7840
 5864SOL    HW119599   7.342  10.287   5.562 -2.1009 -1.0073 -1.1386
 5864SOL    HW219600   7.438  10.234   5.458 -0.6325  1.2326 -0.9856
 5865SOL     OW19601   3.805   4.838   1.680  0.0163  0.1871 -0.6243
 5865SOL    HW119602   3.745   4.774   1.642  0.5801 -0.9695  0.3810
 5865SOL    HW219603   3.866   4.786   1.732  0.9651  1.4794 -0.4030
 5866SOL     OW19604   0.065   8.519   9.535  0.0094 -0.0867  0.3340
 5866SOL    HW119605   0.034   8.430   9.516  1.5372 -0.4237 -0.7707
 5866SOL    HW219606   0.114   8.510   9.618  1.2352 -0.5777 -0.4106
 5867SOL     OW19607   4.534   7.079   6.708 -0.5372  0.2257  0.5992
 5867SOL    HW119608   4.529   7.124   6.793  0.8974  0.1980  0.7287
 5867SOL    HW219609   4.470   7.009   6.714  0.1725 -0.3520  2.0464
 5868SOL     OW19610   5.576   0.981   1.333 -0.3456 -0.7347 -0.1309
 5868SOL    HW119611   5.554   1.060   1.282 -0.1747 -0.9539 -0.5534
 5868SOL    HW219612   5.596   0.915   1.266  1.5302 -0.5769  0.1994
 5869SOL     OW19613   3.443  10.585   2.686  0.2516 -0.5032  0.3484
 5869SOL    HW119614   3.447  10.675   2.718  1.3514 -0.4200 -0.0029
 5869SOL    HW219615   3.530  10.549   2.702  0.6890 -0.6415 -1.9963
 5870SOL     OW19616  10.323   0.065   4.393  0.1486  0.6838 -0.0743
 5870SOL    HW119617  10.235   0.069   4.432 -0.7804  2.3302 -2.1259
 5870SOL    HW219618  10.338  -0.028   4.377 -1.8023  0.4455 -0.8214
 5871SOL     OW19619   0.564   0.848   7.574 -0.5242  0.2650  1.0474
 5871SOL    HW119620   0.640   0.796   7.602 -1.6937 -0.9097  2.2134
 5871SOL    HW219621   0.539   0.897   7.652 -1.5950 -0.1769  0.9940
 5872SOL     OW19622   9.793   3.694   6.558  0.2704  0.1317  0.3419
 5872SOL    HW119623   9.866   3.635   6.573  0.6082  0.1201 -1.1840
 5872SOL    HW219624   9.732   3.644   6.504 -1.1503 -0.0386  1.9956
 5873SOL     OW19625   2.574   4.630   0.550 -0.2202 -0.2836 -0.6581
 5873SOL    HW119626   2.516   4.597   0.619 -0.9524 -0.1422 -1.1912
 5873SOL    HW219627   2.657   4.586   0.565 -0.8243 -1.4341 -0.6219
 5874SOL     OW19628   0.947   5.531   9.914  0.3142  0.1833 -0.1144
 5874SOL    HW119629   0.990   5.532   9.828  0.2715 -0.1607 -0.1397
 5874SOL    HW219630   0.948   5.439   9.941 -0.0681  0.2246  0.0540
 5875SOL     OW19631   0.102   3.272   3.436 -0.5223 -0.0337  0.2989
 5875SOL    HW119632   0.073   3.203   3.377 -0.4736 -1.0040  1.3678
 5875SOL    HW219633   0.167   3.322   3.386 -1.3109 -0.1090 -0.8402
 5876SOL     OW19634   2.907   7.578   9.787 -0.5600  0.2186  0.0149
 5876SOL    HW119635   2.893   7.548   9.697 -0.8030 -1.5346  0.5807
 5876SOL    HW219636   2.997   7.552   9.807  1.2497  4.7091 -1.1362
 5877SOL     OW19637   4.465  10.623   7.865  0.1279  0.1813  0.0518
 5877SOL    HW119638   4.417  10.698   7.899 -1.5945 -0.4500 -0.8638
 5877SOL    HW219639   4.416  10.597   7.786  0.1372 -2.4280  0.8095
 5878SOL     OW19640   1.088   5.739  10.102 -0.6118 -0.3830 -0.0276
 5878SOL    HW119641   1.010   5.696  10.138  0.2584 -0.5327  1.8000
 5878SOL    HW219642   1.151   5.668  10.090 -0.0204  0.0285  0.6007
 5879SOL     OW19643   4.028   6.010   5.851 -0.4230 -0.2137  0.1716
 5879SOL    HW119644   4.009   5.937   5.792  2.7207 -0.5193 -0.6340
 5879SOL    HW219645   3.950   6.017   5.906 -0.6781 -4.5581  0.7005
 5880SOL     OW19646   2.008   8.098   5.011 -0.1094  0.4570 -0.2066
 5880SOL    HW119647   2.007   8.071   5.103 -0.3030  1.3506  0.0668
 5880SOL    HW219648   1.983   8.019   4.962  4.1221 -1.3487  0.1057
 5881SOL     OW19649   4.169   1.864   2.859 -0.0933 -0.7247 -0.1018
 5881SOL    HW119650   4.108   1.932   2.886  0.1031 -0.7527  0.4271
 5881SOL    HW219651   4.184   1.880   2.766 -0.9278 -0.7386 -0.2403
 5882SOL     OW19652  10.304   3.353   2.358 -0.0439 -0.7122  0.1753
 5882SOL    HW119653  10.295   3.446   2.339 -1.1266 -0.4339  1.8267
 5882SOL    HW219654  10.309   3.348   2.453 -2.0751 -2.4410  0.2905
 5883SOL     OW19655  10.195   7.735  10.945 -0.1054  0.3001 -0.0353
 5883SOL    HW119656  10.188   7.830  10.935 -4.0276  0.1188 -0.8516
 5883SOL    HW219657  10.141   7.715  11.021  0.7449 -1.2765  0.1884
 5884SOL     OW19658   5.115   1.812   3.791 -0.4406 -0.1795 -0.1944
 5884SOL    HW119659   5.101   1.864   3.870 -0.4132  0.4496 -0.6032
 5884SOL    HW219660   5.060   1.734   3.804  0.6735 -0.8030  1.0972
 5885SOL     OW19661   7.529   4.843   1.648  0.6026 -0.5309 -0.0920
 5885SOL    HW119662   7.483   4.913   1.601  0.7177 -0.7300 -0.5087
 5885SOL    HW219663   7.591   4.888   1.704  1.3766 -0.3199 -1.0895
 5886SOL     OW19664   9.143   9.586   1.866 -0.7805  0.5517  0.0426
 5886SOL    HW119665   9.206   9.645   1.825 -0.8132  3.4603  3.6168
 5886SOL    HW219666   9.195   9.512   1.897  0.1350  0.9325 -0.5638
 5887SOL     OW19667   7.837   7.967   0.268 -0.9219  0.4202 -0.1699
 5887SOL    HW119668   7.816   8.023   0.343 -0.9690 -0.1262  0.2362
 5887SOL    HW219669   7.861   7.883   0.307 -0.0790  0.3901 -0.7347
 5888SOL     OW19670   8.270   0.500   6.653 -0.1950 -0.0676 -0.8019
 5888SOL    HW119671   8.262   0.591   6.680  1.0970  0.2145 -1.3263
 5888SOL    HW219672   8.317   0.458   6.725  4.1516  0.8921 -2.7799
 5889SOL     OW19673   8.956   8.577   2.489  0.7514  0.5411  1.1630
 5889SOL    HW119674   8.951   8.536   2.575 -0.1994  1.3813  1.5255
 5889SOL    HW219675   8.870   8.616   2.476  0.0795 -1.4841 -1.1520
 5890SOL     OW19676   4.484   3.609   2.742 -0.0458 -0.3573 -0.3610
 5890SOL    HW119677   4.465   3.515   2.749 -0.9769 -0.0595  2.4425
 5890SOL    HW219678   4.399   3.652   2.753  0.5675  0.8270 -0.0915
 5891SOL     OW19679   3.638  10.125   9.195  0.2332  0.9658 -0.2170
 5891SOL    HW119680   3.588  10.098   9.118  1.3595 -2.0042 -0.0646
 5891SOL    HW219681   3.729  10.112   9.169  0.6368 -0.0773  1.5483
 5892SOL     OW19682   6.660   2.005   3.167 -0.3892  0.1337  0.2874
 5892SOL    HW119683   6.658   1.989   3.261  0.0687  0.7968  0.4164
 5892SOL    HW219684   6.727   1.945   3.134  0.1151  0.5623  0.5225
 5893SOL     OW19685  10.100   8.814   1.803  0.5156 -0.2120 -0.1514
 5893SOL    HW119686  10.113   8.769   1.720  1.4725 -1.3866  0.6064
 5893SOL    HW219687  10.109   8.746   1.870 -1.4983  0.4423  0.8987
 5894SOL     OW19688   0.717   9.012   3.814  0.1929  0.4153  0.4503
 5894SOL    HW119689   0.716   9.024   3.908 -0.1220 -0.9074  0.6408
 5894SOL    HW219690   0.806   9.037   3.787  1.0991 -1.4959  1.4552
 5895SOL     OW19691   1.642   4.216   1.103 -0.3903  0.0570 -0.5260
 5895SOL    HW119692   1.737   4.207   1.113 -0.2426  0.8378 -1.1386
 5895SOL    HW219693   1.609   4.211   1.193  0.4684  2.1382 -0.0298
 5896SOL     OW19694   9.335   1.109   5.420 -0.7795 -0.1541  0.1563
 5896SOL    HW119695   9.284   1.144   5.347 -2.5023  1.5669  2.0239
 5896SOL    HW219696   9.410   1.169   5.427 -0.8308 -0.0747  0.0333
 5897SOL     OW19697   1.100   2.836   5.934  0.2511 -0.2515  0.3155
 5897SOL    HW119698   1.008   2.811   5.923 -0.3971  2.2846 -0.8307
 5897SOL    HW219699   1.129   2.859   5.846  0.6960  2.8110  1.1376
 5898SOL     OW19700   2.687   7.753   7.065  0.4459 -0.5685 -0.2983
 5898SOL    HW119701   2.635   7.830   7.043  0.7173  0.1095  1.2708
 5898SOL    HW219702   2.651   7.722   7.148  0.8553 -1.6637 -0.5050
 5899SOL     OW19703   6.047   4.090  10.200  0.5143 -0.2020  0.2954
 5899SOL    HW119704   5.956   4.061  10.208  0.0682  0.2642 -2.2142
 5899SOL    HW219705   6.091   4.020  10.152  0.9762  0.4364 -0.2412
 5900SOL     OW19706  11.078   4.838   1.431  0.3276 -0.5414 -0.1492
 5900SOL    HW119707  11.077   4.925   1.392  3.1842  0.1908  1.1432
 5900SOL    HW219708  11.094   4.778   1.358  3.9135  0.6269 -0.5368
 5901SOL     OW19709   3.481   2.417   0.564  0.4747  0.7363 -0.2070
 5901SOL    HW119710   3.503   2.509   0.550 -0.8652  1.2170  0.6589
 5901SOL    HW219711   3.393   2.408   0.528  0.7755 -0.3345 -0.7077
 5902SOL     OW19712   0.491   1.427   7.453  0.7528  0.3812 -0.7205
 5902SOL    HW119713   0.501   1.434   7.358  1.7162 -1.2224 -0.7735
 5902SOL    HW219714   0.427   1.358   7.466  0.0475  1.1179 -0.1939
 5903SOL     OW19715   5.509   5.920   9.913  0.1825  0.2277 -0.4075
 5903SOL    HW119716   5.536   6.001   9.958  1.5317  0.6048 -1.8162
 5903SOL    HW219717   5.432   5.945   9.863 -1.2130 -0.1447  1.4289
 5904SOL     OW19718   1.403   5.816  10.590 -0.8506 -0.1502  0.3562
 5904SOL    HW119719   1.495   5.840  10.595 -0.7734  0.2840 -1.8792
 5904SOL    HW219720   1.357   5.888  10.633 -0.2181  0.4183  0.1030
 5905SOL     OW19721   4.588  10.730   5.305  0.3945  0.0753 -0.0066
 5905SOL    HW119722   4.652  10.704   5.239 -0.3032 -2.0713  0.0847
 5905SOL    HW219723   4.641  10.750   5.382  1.0647  0.1159 -0.4645
 5906SOL     OW19724   8.727   5.988   6.011  0.1091  0.5605  0.6580
 5906SOL    HW119725   8.806   6.019   6.057  0.6801  0.0084  0.0703
 5906SOL    HW219726   8.735   6.026   5.924 -0.0348  0.1141  0.4505
 5907SOL     OW19727   8.023   8.081   3.458  0.7102  0.2946 -0.2154
 5907SOL    HW119728   8.066   8.063   3.375  1.3638 -0.5955  0.2943
 5907SOL    HW219729   7.997   7.994   3.490  0.0886  0.6643  0.3099
 5908SOL     OW19730   7.322   8.314   8.687  0.0371 -0.0854  0.0964
 5908SOL    HW119731   7.293   8.226   8.709 -0.1995  0.0734  0.4097
 5908SOL    HW219732   7.386   8.336   8.754  1.3228 -0.6499 -0.8955
 5909SOL     OW19733   2.763   4.161   6.881  0.4993 -0.0553  0.4189
 5909SOL    HW119734   2.760   4.121   6.968 -1.4914 -0.4148  0.2252
 5909SOL    HW219735   2.675   4.196   6.867  0.9391  0.4895 -1.2334
 5910SOL     OW19736   1.314   2.262   4.562  0.1863  0.1206  0.0857
 5910SOL    HW119737   1.326   2.313   4.482  0.3226 -0.7470 -0.4593
 5910SOL    HW219738   1.401   2.227   4.581  0.4470  1.3735  1.3582
 5911SOL     OW19739   5.468   6.648   1.901  0.4637  0.2095  0.0848
 5911SOL    HW119740   5.519   6.725   1.927 -0.9051  0.9084  0.8545
 5911SOL    HW219741   5.377   6.679   1.901  0.0590 -0.8202 -1.8327
 5912SOL     OW19742   2.402   7.219   1.906  0.0281  0.2187  0.2205
 5912SOL    HW119743   2.372   7.129   1.917 -0.4022  0.5520  2.2168
 5912SOL    HW219744   2.377   7.242   1.816  2.5474 -2.4552 -1.3353
 5913SOL     OW19745   9.230   8.725   1.532 -0.5767 -0.1400  0.1354
 5913SOL    HW119746   9.206   8.749   1.622 -1.0945 -0.4164  0.0769
 5913SOL    HW219747   9.317   8.688   1.539 -0.9015 -0.8373  0.6372
 5914SOL     OW19748   6.476   4.825   4.975 -0.1666 -0.4444 -0.3620
 5914SOL    HW119749   6.489   4.908   5.021  1.0900 -1.1066  0.5399
 5914SOL    HW219750   6.477   4.849   4.882  0.2040  0.5450 -0.1153
 5915SOL     OW19751   1.492   5.904   5.513  0.0323 -0.5669  0.0201
 5915SOL    HW119752   1.436   5.854   5.455 -1.3083  0.7442  0.1264
 5915SOL    HW219753   1.508   5.986   5.467  2.8242 -1.3014 -0.4892
 5916SOL     OW19754   4.484   1.425   6.292  0.9642  0.4251 -0.6246
 5916SOL    HW119755   4.450   1.335   6.287  1.7233 -0.1391  2.6155
 5916SOL    HW219756   4.410   1.476   6.326  1.7833  0.1170  1.7661
 5917SOL     OW19757   9.071   7.361   5.687 -0.4368  0.4796  0.6466
 5917SOL    HW119758   9.060   7.450   5.652 -2.6146  0.6452  1.5242
 5917SOL    HW219759   9.089   7.307   5.611  3.0207  1.8851  0.2931
 5918SOL     OW19760   0.628   2.032  10.741 -0.1256 -0.2223  0.1666
 5918SOL    HW119761   0.712   2.011  10.781 -0.3830 -1.9083 -0.1157
 5918SOL    HW219762   0.572   2.058  10.815 -0.2189 -2.0341  0.7692
 5919SOL     OW19763   3.133   7.842   6.539  0.1100  0.1720  0.0241
 5919SOL    HW119764   3.205   7.899   6.514  0.6328 -1.3746 -2.3521
 5919SOL    HW219765   3.086   7.826   6.457 -1.4381 -0.8649  1.0671
 5920SOL     OW19766   8.449   7.594   9.713 -0.0500  0.0557  0.3266
 5920SOL    HW119767   8.431   7.574   9.621 -0.9491  0.9807  0.2787
 5920SOL    HW219768   8.400   7.528   9.762  1.5489 -1.3210  0.1722
 5921SOL     OW19769   8.755  10.341  10.665 -0.0810  0.5984  0.0831
 5921SOL    HW119770   8.829  10.384  10.708  1.3227 -2.1745  0.7054
 5921SOL    HW219771   8.785  10.326  10.575  1.4888 -3.0114  1.0095
 5922SOL     OW19772   7.589   7.138   5.817  0.0824 -0.9838  0.2008
 5922SOL    HW119773   7.500   7.112   5.794  0.3568 -0.4765 -1.5863
 5922SOL    HW219774   7.606   7.217   5.766  1.0112 -0.1311  1.7473
 5923SOL     OW19775   3.896   1.989   7.003 -0.8074 -0.4452  0.1474
 5923SOL    HW119776   3.809   1.960   6.975 -0.2833 -1.0056 -0.9658
 5923SOL    HW219777   3.956   1.928   6.961  0.3051  1.7620 -1.7060
 5924SOL     OW19778   0.045   9.701   2.273 -0.5157  0.2805 -0.7095
 5924SOL    HW119779   0.107   9.691   2.201 -1.0122  1.7630 -1.3758
 5924SOL    HW219780   0.055   9.792   2.302 -2.1213  0.4578 -0.6166
 5925SOL     OW19781   4.084   3.207   2.421  0.4492 -0.1880 -0.2082
 5925SOL    HW119782   4.038   3.276   2.373 -0.6042 -0.0887  0.8886
 5925SOL    HW219783   4.173   3.239   2.431  0.1663  0.6721 -0.3781
 5926SOL     OW19784   7.776   6.444   2.180 -0.2270  0.9123 -0.5402
 5926SOL    HW119785   7.813   6.425   2.266  1.5687 -0.2016 -1.5043
 5926SOL    HW219786   7.849   6.479   2.130 -0.7001 -0.4473 -2.2524
 5927SOL     OW19787   8.937   9.626   1.280 -0.5076  0.3353 -0.0203
 5927SOL    HW119788   8.848   9.604   1.310  0.2796 -0.4126  1.9114
 5927SOL    HW219789   8.973   9.543   1.249  0.5208 -0.0728  2.0587
 5928SOL     OW19790   3.370  10.364   6.005 -0.6038 -0.0824 -0.2424
 5928SOL    HW119791   3.412  10.281   6.027 -1.8705 -0.4513  0.9108
 5928SOL    HW219792   3.393  10.423   6.076 -2.2731 -0.3985  0.5997
 5929SOL     OW19793   7.706   3.671   5.207 -0.2589 -0.4599 -0.4199
 5929SOL    HW119794   7.627   3.718   5.235 -1.8448 -2.2386 -1.7018
 5929SOL    HW219795   7.724   3.609   5.278  2.0831  2.1327  1.4759
 5930SOL     OW19796   0.588  10.548   2.300 -0.3781 -0.1138 -0.4478
 5930SOL    HW119797   0.507  10.598   2.303 -0.1404  0.3548 -1.4134
 5930SOL    HW219798   0.603  10.531   2.207  0.0333 -1.1928 -0.2019
 5931SOL     OW19799   6.189   9.033  10.854  0.0686  0.0585 -0.4286
 5931SOL    HW119800   6.194   9.008  10.946  1.2717 -3.0111 -1.2018
 5931SOL    HW219801   6.184   9.128  10.855 -2.8167  0.0553  2.8536
 5932SOL     OW19802   4.986   1.739   2.191  0.3269 -0.5436 -0.4659
 5932SOL    HW119803   5.029   1.747   2.106  0.5267 -0.7472 -0.3849
 5932SOL    HW219804   4.976   1.829   2.221  0.2351 -0.4695 -0.7151
 5933SOL     OW19805   9.353   1.146   8.849 -0.1687  0.0770 -0.1053
 5933SOL    HW119806   9.340   1.084   8.778  1.0042  0.2666 -0.5066
 5933SOL    HW219807   9.388   1.224   8.807  1.2466 -0.0611  0.7367
 5934SOL     OW19808   0.371  10.675   4.112 -1.2717  0.7198  0.5220
 5934SOL    HW119809   0.412  10.610   4.169  0.7178  1.2301 -0.2430
 5934SOL    HW219810   0.319  10.624   4.050  1.0911 -0.2836 -0.7347
 5935SOL     OW19811   9.198   7.378   9.738  0.4208  0.3614  0.0586
 5935SOL    HW119812   9.288   7.388   9.709  1.1628 -1.2137  1.6191
 5935SOL    HW219813   9.148   7.362   9.658  0.8476  4.6677 -1.2689
 5936SOL     OW19814   6.588   1.637  11.091 -0.2172 -0.6800 -0.2179
 5936SOL    HW119815   6.630   1.723  11.097  1.3741 -1.4793  0.6815
 5936SOL    HW219816   6.504   1.649  11.135  0.4218  0.1643  0.8211
 5937SOL     OW19817   1.553   3.650   0.011 -0.2482  0.1776  0.0293
 5937SOL    HW119818   1.600   3.727   0.041 -1.2147  0.6345  0.4307
 5937SOL    HW219819   1.488   3.684  -0.051 -1.5244 -0.1107  1.1537
 5938SOL     OW19820   5.102  10.500  10.458 -0.2706  0.6717  0.0488
 5938SOL    HW119821   5.048  10.428  10.426  0.8116 -0.1125 -0.0635
 5938SOL    HW219822   5.064  10.523  10.543 -1.4764  0.9308 -0.5318
 5939SOL     OW19823   2.524   6.036   5.849  0.9451  0.8375  0.1436
 5939SOL    HW119824   2.614   6.046   5.882  0.9103 -1.6499  1.2140
 5939SOL    HW219825   2.527   5.957   5.796 -0.5520  0.9426 -0.1328
 5940SOL     OW19826   9.407  10.142   8.814  0.7260 -0.2636  0.5347
 5940SOL    HW119827   9.501  10.130   8.825  0.5261 -1.9707  0.6998
 5940SOL    HW219828   9.392  10.122   8.721  0.2256 -2.5212  1.0573
 5941SOL     OW19829   0.439   5.682   3.946  0.0357  0.3818 -0.1863
 5941SOL    HW119830   0.403   5.690   4.034  1.1487  0.3854  0.2867
 5941SOL    HW219831   0.475   5.769   3.927 -0.1664  0.3699 -0.6273
 5942SOL     OW19832   5.882   0.452   6.050  0.8803  0.0432 -0.3072
 5942SOL    HW119833   5.886   0.441   5.955  1.6293  3.4086 -0.8107
 5942SOL    HW219834   5.816   0.521   6.063  0.1680 -0.9357  1.7365
 5943SOL     OW19835   3.804  10.602   3.313 -0.4563  0.7924  0.4211
 5943SOL    HW119836   3.861  10.560   3.377  1.5944  1.5285 -0.8153
 5943SOL    HW219837   3.716  10.570   3.334  0.4252 -0.5977  2.2595
 5944SOL     OW19838   1.337  10.131   7.926 -0.3605 -0.0964  0.0513
 5944SOL    HW119839   1.384  10.119   8.008 -1.0014 -0.9187  0.3157
 5944SOL    HW219840   1.245  10.139   7.951 -0.3651  1.9169 -0.4260
 5945SOL     OW19841   7.978  10.319   2.917  0.6914  0.2015 -0.4527
 5945SOL    HW119842   7.927  10.390   2.878  3.4477  1.3539 -2.2711
 5945SOL    HW219843   7.972  10.334   3.012 -0.0304  1.9282 -0.7367
 5946SOL     OW19844   1.991   4.271   1.484 -0.3203 -0.4397  0.5957
 5946SOL    HW119845   2.060   4.297   1.545  1.3956  0.9898 -1.7749
 5946SOL    HW219846   1.925   4.339   1.494  0.7336  0.7668 -0.2685
 5947SOL     OW19847   1.321   6.518   2.506  0.2473  0.5317  0.4006
 5947SOL    HW119848   1.266   6.441   2.497 -0.8157  1.3456 -0.3489
 5947SOL    HW219849   1.314   6.562   2.421  1.0442  1.3149  0.7232
 5948SOL     OW19850   9.297   6.024   2.398 -0.4877 -0.1346  0.2877
 5948SOL    HW119851   9.375   6.079   2.406  0.2505 -1.3794  2.2612
 5948SOL    HW219852   9.228   6.074   2.441 -0.5103  0.4445 -0.4034
 5949SOL     OW19853   3.830   7.792   3.151 -0.2019 -0.0223  0.8073
 5949SOL    HW119854   3.761   7.791   3.084  0.9999  1.5069 -0.5168
 5949SOL    HW219855   3.824   7.879   3.189  1.7031  0.5634 -0.1326
 5950SOL     OW19856   2.118   9.612   8.101  0.4311  0.0434  0.6035
 5950SOL    HW119857   2.133   9.518   8.095 -1.0184 -0.2152  0.7811
 5950SOL    HW219858   2.091   9.627   8.192  0.0030  0.5278  0.4046
 5951SOL     OW19859   5.875   4.418   8.833  0.2592 -0.0924 -0.2352
 5951SOL    HW119860   5.909   4.357   8.898 -2.5149 -0.6331  0.8814
 5951SOL    HW219861   5.951   4.469   8.804  2.0055 -1.5420  1.5664
 5952SOL     OW19862   5.490   5.778  10.888  0.1759 -0.5679  0.0151
 5952SOL    HW119863   5.503   5.712  10.957  1.2905  0.3994  0.7693
 5952SOL    HW219864   5.490   5.861  10.935  2.9245  0.2954 -1.2820
 5953SOL     OW19865   6.225   8.061   4.159 -0.5004  0.5436  0.1653
 5953SOL    HW119866   6.235   7.970   4.132  2.3292  0.9920 -0.6549
 5953SOL    HW219867   6.290   8.073   4.228 -1.3391  1.7829  0.7949
 5954SOL     OW19868   6.700   2.905   3.511 -0.0432 -0.3682 -0.3946
 5954SOL    HW119869   6.664   2.847   3.443  0.7292 -0.7756 -0.4707
 5954SOL    HW219870   6.626   2.961   3.536 -0.5457 -0.7296 -1.0182
 5955SOL     OW19871   2.763   9.437   6.239 -0.0651  0.0649 -0.1503
 5955SOL    HW119872   2.834   9.382   6.205 -0.8794 -1.7952  1.0240
 5955SOL    HW219873   2.789   9.526   6.215  1.5095 -0.7548 -1.7807
 5956SOL     OW19874  10.037   8.331   7.883 -0.6177 -0.2352 -0.0387
 5956SOL    HW119875  10.062   8.310   7.972  0.1753  1.0506  0.0657
 5956SOL    HW219876  10.073   8.418   7.867  0.7991 -1.1290 -2.2249
 5957SOL     OW19877   9.514   9.778   5.570 -0.5875 -0.1601  0.5967
 5957SOL    HW119878   9.452   9.706   5.584  0.2529 -0.9097  0.5865
 5957SOL    HW219879   9.548   9.763   5.482 -0.6615  0.4628  0.4595
 5958SOL     OW19880   8.690   8.833   9.992  0.0561 -0.0347  0.2271
 5958SOL    HW119881   8.678   8.832  10.087  0.7820  0.3566  0.3281
 5958SOL    HW219882   8.757   8.900   9.976  1.4622 -1.4890 -0.3690
 5959SOL     OW19883   2.783   2.467  10.908  0.8330  0.2299  0.3217
 5959SOL    HW119884   2.789   2.496  10.817  2.7140 -0.0851  0.3106
 5959SOL    HW219885   2.778   2.371  10.902 -0.6379  0.2593  0.5336
 5960SOL     OW19886   4.445   0.264   5.592  0.5829 -0.4986  0.4339
 5960SOL    HW119887   4.537   0.289   5.600  0.0450  1.7981  0.1828
 5960SOL    HW219888   4.409   0.326   5.528 -0.9898 -1.8160 -0.0223
 5961SOL     OW19889   2.716   9.929   6.898  0.4943 -0.3254  0.2340
 5961SOL    HW119890   2.754   9.908   6.813 -0.0906  2.7856 -0.9296
 5961SOL    HW219891   2.771   9.999   6.933 -1.1382  0.7202  0.8676
 5962SOL     OW19892   6.042   1.713   6.168 -0.2723 -0.3262  0.3092
 5962SOL    HW119893   5.961   1.665   6.150  0.1273 -0.8660 -0.1030
 5962SOL    HW219894   6.095   1.652   6.220  0.4981 -0.6043 -0.7571
 5963SOL     OW19895   3.413   5.864   8.321 -0.0390 -0.2352 -0.0211
 5963SOL    HW119896   3.499   5.824   8.340 -0.4931 -0.5280  1.5866
 5963SOL    HW219897   3.365   5.795   8.275 -0.6694 -1.5008  2.3723
 5964SOL     OW19898   4.047   2.219   3.566  0.2535 -0.4805 -0.5361
 5964SOL    HW119899   4.112   2.284   3.592  0.3822 -0.5236 -0.7463
 5964SOL    HW219900   4.089   2.134   3.583  0.7148 -0.5245 -1.7527
 5965SOL     OW19901   9.978   9.793  10.577 -0.6504  0.6389  0.1732
 5965SOL    HW119902   9.952   9.826  10.663  1.0303  0.8669  0.6293
 5965SOL    HW219903  10.038   9.721  10.596 -0.2496  0.7031 -0.7910
 5966SOL     OW19904   7.229   6.752   0.585 -0.2432 -0.7471 -0.2934
 5966SOL    HW119905   7.160   6.757   0.518  0.0389  0.9220 -0.4884
 5966SOL    HW219906   7.209   6.671   0.632 -1.9803 -0.6309 -0.7359
 5967SOL     OW19907   0.734   5.133   0.775 -0.3059 -0.3532 -0.2487
 5967SOL    HW119908   0.669   5.074   0.812 -0.5149  1.0690  1.8524
 5967SOL    HW219909   0.762   5.091   0.694 -2.2584 -2.0514 -0.1210
 5968SOL     OW19910   4.136   6.708  10.802 -0.1122 -0.4495  0.4627
 5968SOL    HW119911   4.066   6.644  10.792 -2.0263  1.8432 -3.0653
 5968SOL    HW219912   4.100   6.775  10.860  0.4626 -0.7778  1.2166
 5969SOL     OW19913   1.810   5.356   8.394 -0.0872 -0.9425 -0.0703
 5969SOL    HW119914   1.751   5.431   8.406  0.5751 -0.1054 -1.7194
 5969SOL    HW219915   1.820   5.349   8.299  0.6018 -2.5580  0.0983
 5970SOL     OW19916   0.765   7.215  10.052 -0.0842  0.0698 -0.2257
 5970SOL    HW119917   0.680   7.206  10.009  0.4945  2.3249 -2.0505
 5970SOL    HW219918   0.754   7.290  10.111 -0.0939 -1.3593  1.6965
 5971SOL     OW19919   4.793   0.450   0.404  0.1746 -0.0586 -0.6624
 5971SOL    HW119920   4.852   0.504   0.352  1.5123 -2.3267 -1.6599
 5971SOL    HW219921   4.724   0.425   0.343 -0.9910  1.2848  0.0679
 5972SOL     OW19922   6.575   7.848   9.188  0.1289  0.3177  0.6733
 5972SOL    HW119923   6.515   7.785   9.228  0.3089 -1.6975 -1.9400
 5972SOL    HW219924   6.531   7.933   9.198 -0.8083 -0.3741  3.0230
 5973SOL     OW19925   8.897   5.789  10.704  0.6564  0.1041 -0.0405
 5973SOL    HW119926   8.946   5.747  10.774  0.8302  0.3624 -0.0051
 5973SOL    HW219927   8.843   5.720  10.667  0.6386 -0.0554  0.2828
 5974SOL     OW19928   6.248   5.090   1.509  0.5121 -1.0971 -0.1007
 5974SOL    HW119929   6.260   5.033   1.585  1.3753 -1.2823 -0.3673
 5974SOL    HW219930   6.247   5.030   1.434  2.3636 -0.7118 -0.4736
 5975SOL     OW19931   4.076   2.393  10.766  0.1399  0.4435 -0.9370
 5975SOL    HW119932   4.010   2.345  10.716  1.5292 -1.0349 -1.4398
 5975SOL    HW219933   4.145   2.413  10.703  1.0027  0.3268 -0.0578
 5976SOL     OW19934   8.880   6.288   9.022 -0.0831  0.0193 -0.0902
 5976SOL    HW119935   8.875   6.196   8.995  0.7689 -0.7100  1.9489
 5976SOL    HW219936   8.808   6.298   9.084 -0.5115  0.9039 -0.7241
 5977SOL     OW19937   0.791   1.335   1.730 -0.1715 -0.2111  0.0127
 5977SOL    HW119938   0.839   1.417   1.729  1.1161 -0.8009 -3.6829
 5977SOL    HW219939   0.699   1.361   1.739  0.2110  1.6376 -0.8990
 5978SOL     OW19940   0.586   4.438   1.950 -0.2694 -0.6518  0.0449
 5978SOL    HW119941   0.612   4.427   1.858 -0.8419  2.1994 -0.5503
 5978SOL    HW219942   0.498   4.399   1.955 -0.9829  0.7106 -1.1192
 5979SOL     OW19943   4.212   9.114   6.814 -0.7289  0.0018  0.7819
 5979SOL    HW119944   4.287   9.159   6.776 -1.3228  2.1618  1.9894
 5979SOL    HW219945   4.250   9.056   6.880  0.1471 -2.3586 -1.6341
 5980SOL     OW19946   0.356   9.807   9.910  0.5444  0.0762  0.0880
 5980SOL    HW119947   0.374   9.737   9.847  3.7722  2.0384 -1.4811
 5980SOL    HW219948   0.329   9.881   9.857 -3.5293  0.0566  1.7650
 5981SOL     OW19949   2.004   3.608   3.400  0.0966  0.1578 -0.0952
 5981SOL    HW119950   2.090   3.590   3.362  0.2751 -0.0007  0.3832
 5981SOL    HW219951   1.994   3.703   3.392 -0.4811 -0.0069 -1.8446
 5982SOL     OW19952   0.537  11.045   5.594  0.6007 -0.1707 -0.2223
 5982SOL    HW119953   0.616  10.992   5.603 -0.1825 -1.4125 -0.2575
 5982SOL    HW219954   0.565  11.135   5.608  1.6529 -0.7764  2.0307
 5983SOL     OW19955   7.303   1.618   4.471 -0.0946  0.0759 -0.5787
 5983SOL    HW119956   7.243   1.673   4.421 -0.9786 -0.6552 -0.3561
 5983SOL    HW219957   7.389   1.635   4.432 -0.0167  2.8420  0.5737
 5984SOL     OW19958  10.051   6.069   8.311 -0.2198 -0.2781  0.3420
 5984SOL    HW119959  10.084   6.046   8.398  0.1032 -2.2818 -0.2734
 5984SOL    HW219960   9.987   6.139   8.328  0.4891  0.0047  2.0820
 5985SOL     OW19961  10.540  10.496   4.089  0.1559 -0.0418 -0.5182
 5985SOL    HW119962  10.631  10.466   4.081  0.1802  0.0573 -0.6254
 5985SOL    HW219963  10.515  10.473   4.178  0.5097  0.5350 -0.2620
 5986SOL     OW19964   9.092   8.371   1.510  0.1258  0.2443 -0.3389
 5986SOL    HW119965   9.031   8.444   1.516 -0.1716  0.0399 -0.7653
 5986SOL    HW219966   9.141   8.373   1.592 -2.0953 -1.0412  1.1248
 5987SOL     OW19967   5.533   7.752   9.455  0.0172 -0.0043  0.6029
 5987SOL    HW119968   5.601   7.790   9.399 -0.8915  1.7696  0.6381
 5987SOL    HW219969   5.576   7.676   9.496  0.6678 -1.5549 -2.5946
 5988SOL     OW19970  10.433   5.231  10.788 -0.5606  0.0304  0.4894
 5988SOL    HW119971  10.475   5.164  10.843 -1.4737 -0.1429  0.9972
 5988SOL    HW219972  10.381   5.181  10.725  1.0999  0.2058 -1.0932
 5989SOL     OW19973   4.283   2.074   3.374 -0.1726  1.0300  0.0317
 5989SOL    HW119974   4.349   2.005   3.365 -1.8582 -0.7390  0.7147
 5989SOL    HW219975   4.277   2.089   3.468 -1.4855  0.3937  0.0672
 5990SOL     OW19976  10.329   6.339   6.586  0.1614  0.5983 -0.5236
 5990SOL    HW119977  10.286   6.258   6.560  1.8737 -0.0977 -1.3279
 5990SOL    HW219978  10.371   6.371   6.506  0.9057  1.3766  0.1553
 5991SOL     OW19979   7.888   6.330   1.308 -0.0799 -0.1225  0.3491
 5991SOL    HW119980   7.865   6.240   1.332  0.9021 -0.4508  0.1044
 5991SOL    HW219981   7.959   6.353   1.367 -0.3370  0.5023  0.4184
 5992SOL     OW19982   7.582   3.899   4.068 -0.9582 -0.3810 -0.1097
 5992SOL    HW119983   7.630   3.977   4.096  2.1385 -2.1455 -0.1242
 5992SOL    HW219984   7.541   3.866   4.148  0.5424 -0.5531  0.6279
 5993SOL     OW19985   3.269   4.314  10.178 -0.7182  0.0765 -0.4286
 5993SOL    HW119986   3.213   4.391  10.165  1.1995  1.1513 -3.1897
 5993SOL    HW219987   3.218   4.241  10.144 -0.7485  0.9374 -2.3322
 5994SOL     OW19988   4.891   0.372   1.977  0.2759 -0.3961 -0.1637
 5994SOL    HW119989   4.823   0.305   1.971 -1.0095  0.8220  0.2061
 5994SOL    HW219990   4.971   0.324   1.996 -0.1854 -2.0121 -1.9888
 5995SOL     OW19991   7.896  10.898  10.825  0.2765 -0.2036 -1.0616
 5995SOL    HW119992   7.969  10.886  10.765  1.2356  1.3096 -0.2836
 5995SOL    HW219993   7.882  10.993  10.828 -1.5960 -0.4317 -1.0105
 5996SOL     OW19994   1.851   8.514   3.499 -1.0690 -0.3403 -0.1209
 5996SOL    HW119995   1.934   8.482   3.464 -0.6200  0.1538  0.4735
 5996SOL    HW219996   1.786   8.488   3.434 -0.4826 -0.9341 -0.4820
 5997SOL     OW19997   1.356   1.183   6.558 -0.3908  0.6358  0.9022
 5997SOL    HW119998   1.366   1.087   6.559 -2.1798  0.2175 -2.6958
 5997SOL    HW219999   1.321   1.205   6.644 -4.1910 -2.6589  0.5005
 5998SOL     OW20000   7.974  10.551   8.454 -0.4650  0.2059 -0.0198
 5998SOL    HW120001   8.014  10.580   8.535  0.6241  0.8161 -0.7410
 5998SOL    HW220002   7.918  10.623   8.427 -1.2405 -0.2151  0.4546
 5999SOL     OW20003   1.856   1.317   5.695  0.7207 -0.1353  0.4887
 5999SOL    HW120004   1.840   1.403   5.657  0.2108  0.4695  2.0094
 5999SOL    HW220005   1.779   1.265   5.671  0.8021 -0.0407 -0.0026
 6000SOL     OW20006   3.470   2.006  10.853 -0.1479  1.1185 -0.0589
 6000SOL    HW120007   3.425   2.066  10.914 -2.4806 -0.8370  0.2827
 6000SOL    HW220008   3.505   1.937  10.909  0.7809  1.1003 -0.6414
 6001SOL     OW20009   8.453   5.960   5.945 -0.2624 -0.1404 -0.7201
 6001SOL    HW120010   8.547   5.964   5.928 -0.1030  0.3289  0.2026
 6001SOL    HW220011   8.421   5.889   5.889  0.5854 -0.0861 -1.2797
 6002SOL     OW20012   5.689  11.069   3.054 -0.5098  0.1698  0.8042
 6002SOL    HW120013   5.760  11.006   3.040  0.0311  0.3533  2.4578
 6002SOL    HW220014   5.678  11.071   3.149  0.2423  3.3562  0.9377
 6003SOL     OW20015   8.292   8.882   8.389  0.3233 -0.7389  0.0353
 6003SOL    HW120016   8.313   8.849   8.302  2.4127  0.1997  0.1041
 6003SOL    HW220017   8.201   8.911   8.384  1.1257  1.7399 -2.6494
 6004SOL     OW20018   1.150  10.506   7.551 -0.5327 -0.0757 -0.9224
 6004SOL    HW120019   1.142  10.412   7.534  0.0529 -0.8819  2.5898
 6004SOL    HW220020   1.060  10.539   7.543 -0.7669 -0.9315 -2.0582
 6005SOL     OW20021   8.002   8.955   9.534  0.3852  0.2243  0.3708
 6005SOL    HW120022   8.001   9.015   9.609  2.0602  0.1250  0.5003
 6005SOL    HW220023   7.914   8.961   9.498 -0.1079  1.1605  1.6467
 6006SOL     OW20024   6.184   1.233   8.500  0.4112  0.4983 -0.4019
 6006SOL    HW120025   6.274   1.242   8.533  0.3147  0.9144 -0.2420
 6006SOL    HW220026   6.181   1.292   8.425 -0.0001  1.2233  0.1696
 6007SOL     OW20027   6.088  10.096   1.462  0.5878 -0.3445  0.1959
 6007SOL    HW120028   6.111  10.188   1.449  2.5613 -0.5284  1.9766
 6007SOL    HW220029   6.128  10.051   1.387  2.4611 -0.1039  0.9966
 6008SOL     OW20030   4.217   2.875   0.558  0.1638 -0.1322  0.0588
 6008SOL    HW120031   4.288   2.820   0.590  0.2394 -0.2073 -0.2343
 6008SOL    HW220032   4.259   2.957   0.532  0.1871 -0.2732 -0.3655
 6009SOL     OW20033  10.389   4.240   9.315  0.8020 -0.1017 -0.1340
 6009SOL    HW120034  10.331   4.179   9.271 -0.0056  1.8428 -1.9726
 6009SOL    HW220035  10.475   4.198   9.313 -0.0991 -2.0938  0.7105
 6010SOL     OW20036  10.217   7.088   6.171  0.5254 -0.2179  0.1315
 6010SOL    HW120037  10.183   7.143   6.242 -0.7846 -2.1320  1.0668
 6010SOL    HW220038  10.203   7.140   6.092  1.2731  1.6399  1.1365
 6011SOL     OW20039   2.142  10.776   4.926  0.0951 -0.3487  0.2505
 6011SOL    HW120040   2.204  10.705   4.912 -2.0061 -1.7437 -3.4966
 6011SOL    HW220041   2.196  10.853   4.945  2.8345 -1.7584 -1.3274
 6012SOL     OW20042   2.647   9.955   4.084 -0.0368 -0.5958  0.3787
 6012SOL    HW120043   2.734   9.983   4.054 -0.6855  0.2483 -0.7742
 6012SOL    HW220044   2.664   9.873   4.131  1.4347 -0.2167  0.5760
 6013SOL     OW20045   0.196   9.636   5.617 -0.0372  0.4058 -0.4300
 6013SOL    HW120046   0.192   9.597   5.704  0.9943  0.5414 -0.3080
 6013SOL    HW220047   0.212   9.729   5.633  2.0875  0.1435 -0.7564
 6014SOL     OW20048  10.428   6.354   2.171  0.2359  0.1468 -0.5202
 6014SOL    HW120049  10.506   6.389   2.214  0.6778  0.3975 -1.5049
 6014SOL    HW220050  10.382   6.307   2.240 -0.1572  2.2816  0.7757
 6015SOL     OW20051   6.867   5.239   8.923 -0.1625  0.3410 -0.4097
 6015SOL    HW120052   6.947   5.232   8.975  0.6425  1.2702 -1.4744
 6015SOL    HW220053   6.887   5.305   8.857 -2.3854  1.9109  0.3470
 6016SOL     OW20054  10.314   7.508  10.833  0.5105 -0.0149  0.4873
 6016SOL    HW120055  10.262   7.582  10.865 -0.8299 -1.3839  1.6810
 6016SOL    HW220056  10.266   7.431  10.864  2.6437 -1.3827  0.5956
 6017SOL     OW20057   8.642   9.906   6.376 -0.0312  0.4790 -0.3639
 6017SOL    HW120058   8.548   9.910   6.355 -0.0759 -1.3108 -0.5931
 6017SOL    HW220059   8.677   9.988   6.341 -1.1668  0.2805 -2.1173
 6018SOL     OW20060   1.304   9.074   8.874  0.2331 -0.0216  0.0135
 6018SOL    HW120061   1.261   9.120   8.801 -2.4012  0.3345  1.6288
 6018SOL    HW220062   1.315   9.142   8.941  0.3285 -0.8284  0.8340
 6019SOL     OW20063   9.869   1.929   1.339 -0.3645 -0.6627 -0.5636
 6019SOL    HW120064   9.808   1.857   1.324 -0.3959 -0.3965 -1.8301
 6019SOL    HW220065   9.866   1.980   1.258 -0.9106  1.1973  0.5640
 6020SOL     OW20066   1.465   3.027   4.723 -0.0130 -0.2151 -0.7712
 6020SOL    HW120067   1.460   2.931   4.723 -0.7411 -0.1898  0.1608
 6020SOL    HW220068   1.526   3.048   4.793 -0.4027  0.0183 -0.4980
 6021SOL     OW20069   5.896   1.688  10.237 -0.4047  0.0332 -0.1577
 6021SOL    HW120070   5.823   1.746  10.216 -1.3865 -1.2628 -0.4888
 6021SOL    HW220071   5.885   1.669  10.330  0.1604  0.6785  0.0506
 6022SOL     OW20072   5.590   7.831   9.827  0.8307 -0.3192  0.2680
 6022SOL    HW120073   5.590   7.923   9.853 -0.4970  0.1479 -1.2334
 6022SOL    HW220074   5.656   7.825   9.757  0.6993 -0.4432  0.1535
 6023SOL     OW20075   2.137   6.857  10.346  0.0645  0.7077 -0.5413
 6023SOL    HW120076   2.112   6.898  10.428 -0.0616  0.3703 -0.4087
 6023SOL    HW220077   2.200   6.790  10.371  0.3562  0.8946 -0.7671
 6024SOL     OW20078   8.781  10.915  10.475 -0.7639 -0.3231  0.4591
 6024SOL    HW120079   8.732  10.998  10.484 -0.7896 -0.1414 -1.1203
 6024SOL    HW220080   8.807  10.912  10.383  1.0459 -1.0907  0.9485
 6025SOL     OW20081   0.558   5.730   9.762 -0.7682 -0.3248 -0.3147
 6025SOL    HW120082   0.628   5.665   9.768 -0.2882  0.0942 -1.3658
 6025SOL    HW220083   0.593   5.807   9.806 -0.7926 -0.2999 -0.3400
 6026SOL     OW20084  10.795   7.452   2.764  0.4108 -0.4264 -0.0925
 6026SOL    HW120085  10.794   7.356   2.765 -0.2642 -0.4412 -0.6732
 6026SOL    HW220086  10.809   7.474   2.672 -4.8052 -0.0423 -1.1039
 6027SOL     OW20087   2.570   3.555   6.185 -0.0029  0.4534 -0.1072
 6027SOL    HW120088   2.507   3.620   6.154  0.5448  0.7470 -0.6429
 6027SOL    HW220089   2.530   3.470   6.165 -0.1368  0.6402 -0.6537
 6028SOL     OW20090   7.539  11.067   0.953  0.0300 -0.2763 -0.4136
 6028SOL    HW120091   7.583  11.035   0.875 -0.0582 -0.2601 -0.4703
 6028SOL    HW220092   7.566  11.007   1.023 -0.7660 -0.9643 -0.6743
 6029SOL     OW20093   4.920   9.619   1.025 -0.1053 -0.6610 -0.3496
 6029SOL    HW120094   4.944   9.704   0.987  1.7222 -0.3861  1.2623
 6029SOL    HW220095   4.837   9.597   0.983  0.1102  1.1989 -1.9191
 6030SOL     OW20096   5.823   4.786   8.130 -0.7838  0.5868 -0.2976
 6030SOL    HW120097   5.749   4.844   8.148  0.2263  1.9479 -0.3855
 6030SOL    HW220098   5.812   4.761   8.038 -0.9978  0.9933 -0.3866
 6031SOL     OW20099  10.258   2.728   7.378 -0.0495 -0.2703 -0.1983
 6031SOL    HW120100  10.304   2.655   7.419 -0.5653 -1.2576 -1.3128
 6031SOL    HW220101  10.257   2.707   7.285 -2.5207 -0.2216 -0.2698
 6032SOL     OW20102  10.085   8.684   5.166 -0.8776  0.1972  0.4226
 6032SOL    HW120103  10.166   8.691   5.116 -0.6583  1.2474  0.9003
 6032SOL    HW220104  10.018   8.719   5.108 -1.4168 -2.6402 -0.8259
 6033SOL     OW20105   4.202   5.623   1.307  0.4514 -0.1115  0.7691
 6033SOL    HW120106   4.137   5.581   1.363 -1.5181  1.1694 -0.4241
 6033SOL    HW220107   4.217   5.561   1.236 -0.3939  0.0618  0.4284
 6034SOL     OW20108   8.967   5.152   7.016  0.0524 -0.2210  0.5539
 6034SOL    HW120109   8.918   5.168   6.936 -0.6839  0.2320  1.0862
 6034SOL    HW220110   8.901   5.132   7.082  0.7442 -2.3295  0.6829
 6035SOL     OW20111   8.555   5.610   9.074  0.6077 -0.7878 -0.6810
 6035SOL    HW120112   8.584   5.548   9.007  0.8110 -1.4305 -0.0116
 6035SOL    HW220113   8.567   5.696   9.034  0.7753 -1.1599 -1.4466
 6036SOL     OW20114   1.744   1.613   4.481 -1.0888  0.1825  0.3348
 6036SOL    HW120115   1.778   1.678   4.541  0.2287  0.3208 -0.5196
 6036SOL    HW220116   1.690   1.662   4.419  0.1277  0.5579 -0.4777
 6037SOL     OW20117   4.338  10.142   4.440 -0.3858  0.4300  0.2762
 6037SOL    HW120118   4.346  10.062   4.389 -1.2688  0.0763  0.6819
 6037SOL    HW220119   4.389  10.126   4.519  0.6097  0.8098 -0.2767
 6038SOL     OW20120   4.138   6.015   6.933 -0.1887  0.0890  0.7475
 6038SOL    HW120121   4.203   6.078   6.902  1.7472 -2.1829 -0.0831
 6038SOL    HW220122   4.067   6.022   6.869  0.8858  0.0495 -0.4919
 6039SOL     OW20123   0.037   9.483   5.095  0.8091 -0.4622  0.6458
 6039SOL    HW120124   0.104   9.417   5.109 -0.2764 -1.4951  1.1983
 6039SOL    HW220125  -0.037   9.434   5.058 -0.5665  0.1230  2.4756
 6040SOL     OW20126   9.365   9.287   1.291 -0.6979 -0.2388 -0.3564
 6040SOL    HW120127   9.349   9.193   1.283  0.8814 -0.4803 -1.1447
 6040SOL    HW220128   9.324   9.311   1.373 -0.2883 -1.8296  0.3564
 6041SOL     OW20129   6.089   4.885   2.145 -0.4130 -0.5960 -0.6008
 6041SOL    HW120130   6.156   4.862   2.081 -0.4399 -1.6447 -0.2670
 6041SOL    HW220131   6.114   4.837   2.224 -0.0948  1.0628  0.3648
 6042SOL     OW20132   3.338   5.963  10.185 -0.0579 -0.5551 -0.3049
 6042SOL    HW120133   3.344   5.932  10.276 -1.0343 -2.2324 -0.7735
 6042SOL    HW220134   3.414   6.021  10.175  0.4119 -0.8085  1.3920
 6043SOL     OW20135   9.616   3.520   5.694  0.4223 -0.0187  0.4920
 6043SOL    HW120136   9.532   3.508   5.649  1.0699 -1.2564 -0.4298
 6043SOL    HW220137   9.677   3.543   5.624  1.3531 -1.5327  0.7745
 6044SOL     OW20138   5.582   8.523   5.490  0.3561 -0.2725  0.8703
 6044SOL    HW120139   5.528   8.584   5.439 -1.8878 -2.4177  0.5423
 6044SOL    HW220140   5.616   8.462   5.425 -0.4518 -1.5288  1.6017
 6045SOL     OW20141   2.487   9.848   7.120  0.2053  0.2941 -0.1203
 6045SOL    HW120142   2.517   9.776   7.064  0.9637  1.2955 -1.0319
 6045SOL    HW220143   2.557   9.913   7.115 -1.1684  1.8003 -0.6229
 6046SOL     OW20144   6.599   9.334   9.049  0.1240  0.1564  0.1649
 6046SOL    HW120145   6.506   9.349   9.038 -0.0838 -1.2455 -0.1006
 6046SOL    HW220146   6.627   9.404   9.108 -1.1356  0.4482  0.4461
 6047SOL     OW20147   7.988   6.642   2.875  0.3238  0.5714 -0.5263
 6047SOL    HW120148   7.902   6.602   2.862  1.8154 -3.8641  1.3251
 6047SOL    HW220149   8.019   6.662   2.786 -1.8131  0.5426 -1.3344
 6048SOL     OW20150   8.242   4.732   6.703 -0.2326 -0.8725  0.2624
 6048SOL    HW120151   8.146   4.732   6.705 -0.2448 -1.9688  0.3125
 6048SOL    HW220152   8.265   4.821   6.675 -1.2722 -0.8081 -0.4459
 6049SOL     OW20153   4.528   9.118   0.764  0.0576 -0.1591 -0.3554
 6049SOL    HW120154   4.463   9.061   0.805  0.8395 -0.4368  0.5324
 6049SOL    HW220155   4.489   9.142   0.680 -0.6936 -1.2392 -0.3392
 6050SOL     OW20156  10.404  10.429   5.705  0.1053 -0.2263 -0.6104
 6050SOL    HW120157  10.427  10.406   5.615  3.8559 -1.1960  0.4074
 6050SOL    HW220158  10.486  10.421   5.753 -1.5510  1.1671  2.7633
 6051SOL     OW20159   4.048   4.021   0.761 -1.0328 -0.2932 -0.5843
 6051SOL    HW120160   4.083   4.109   0.772 -0.7226 -0.4749 -0.1199
 6051SOL    HW220161   3.985   4.010   0.832  1.5853 -1.7700  1.7044
 6052SOL     OW20162   0.300   0.872   9.783 -0.4429 -0.1157  0.4676
 6052SOL    HW120163   0.211   0.909   9.789 -1.6931 -2.7593 -0.1638
 6052SOL    HW220164   0.307   0.841   9.693  1.3211  0.4008  0.3962
 6053SOL     OW20165   1.912   2.285  10.048 -0.2443 -0.7154  0.3510
 6053SOL    HW120166   1.982   2.238  10.004  1.0653  2.1770 -0.9144
 6053SOL    HW220167   1.831   2.244  10.016  0.7896 -2.8129  0.2961
 6054SOL     OW20168   7.770   7.786   1.868  0.7667 -0.5909  0.5106
 6054SOL    HW120169   7.752   7.856   1.931  0.5911 -0.2364  0.0716
 6054SOL    HW220170   7.686   7.767   1.828  1.2898  1.1830 -1.6699
 6055SOL     OW20171   4.987   5.102   6.290  0.1724  0.3390 -0.1276
 6055SOL    HW120172   4.987   5.007   6.279  1.0755  0.1512  1.2370
 6055SOL    HW220173   4.894   5.126   6.289 -0.0209 -0.3189 -2.0722
 6056SOL     OW20174   2.752   5.912   8.816  0.0545 -0.2814  0.3217
 6056SOL    HW120175   2.794   5.964   8.747  0.3090 -1.9833 -0.8760
 6056SOL    HW220176   2.825   5.867   8.859 -0.1257  0.6078  1.5866
 6057SOL     OW20177   6.493   7.884   2.174 -0.1075 -1.0773 -0.0461
 6057SOL    HW120178   6.569   7.892   2.117  0.1560 -0.2266  0.4049
 6057SOL    HW220179   6.428   7.944   2.137  0.3255  0.0365  0.9304
 6058SOL     OW20180   2.961   1.764   9.999  0.3608  0.3728  0.2494
 6058SOL    HW120181   3.033   1.776  10.061 -0.1986  2.4701  0.5545
 6058SOL    HW220182   2.889   1.729  10.052  0.1140  1.4850  0.6877
 6059SOL     OW20183   0.343   4.935   7.964  0.1096  0.5079 -0.7452
 6059SOL    HW120184   0.363   4.842   7.978 -0.4564  0.6309  1.1746
 6059SOL    HW220185   0.261   4.935   7.916 -1.7692 -0.0774  2.2169
 6060SOL     OW20186   4.391   0.650   6.066 -0.0254 -0.0167 -0.2608
 6060SOL    HW120187   4.312   0.637   6.119 -0.7295  1.9564 -0.7562
 6060SOL    HW220188   4.362   0.636   5.976  0.4067 -0.1519 -0.3820
 6061SOL     OW20189   8.610   8.026   7.329 -0.8132 -0.8759 -0.0066
 6061SOL    HW120190   8.679   8.070   7.280  1.5666 -2.7831  1.4334
 6061SOL    HW220191   8.571   8.095   7.382 -0.1540  0.2682 -0.9492
 6062SOL     OW20192  10.913  10.362   0.557  0.2635 -0.5819 -0.4997
 6062SOL    HW120193  10.884  10.424   0.625  0.0994  0.4301 -1.4623
 6062SOL    HW220194  10.832  10.320   0.528  0.4353 -1.6442  0.5085
 6063SOL     OW20195   5.800   7.258   8.091 -0.3787  0.2657  0.2180
 6063SOL    HW120196   5.782   7.271   7.998 -0.7722  3.6191  0.6269
 6063SOL    HW220197   5.889   7.290   8.104 -0.7514  0.9953  1.1511
 6064SOL     OW20198   3.580   6.885   5.347 -0.2847 -0.3111 -0.0308
 6064SOL    HW120199   3.488   6.866   5.364 -0.3499  1.0973  1.5301
 6064SOL    HW220200   3.578   6.955   5.281 -0.5135  1.4200  1.6962
 6065SOL     OW20201   3.706   0.859   3.680 -0.2956  0.8648 -0.1895
 6065SOL    HW120202   3.691   0.865   3.774  1.3455  0.4994  0.1278
 6065SOL    HW220203   3.730   0.949   3.654 -0.1748  0.8449 -0.1469
 6066SOL     OW20204   0.986   3.159   4.877  0.5655 -0.3294 -0.3315
 6066SOL    HW120205   0.992   3.085   4.816 -1.6968 -1.4834  0.7297
 6066SOL    HW220206   0.892   3.174   4.887  0.8750  0.3852  2.1685
 6067SOL     OW20207  11.008   4.485   9.299  0.3278  0.7580 -0.2732
 6067SOL    HW120208  10.922   4.467   9.336  0.4538  0.5709 -0.0702
 6067SOL    HW220209  11.054   4.401   9.304  0.3673  0.7429 -0.7930
 6068SOL     OW20210   5.857   6.367   3.458 -0.4180  0.3739 -0.0989
 6068SOL    HW120211   5.767   6.336   3.451  0.1682 -1.2827 -0.7512
 6068SOL    HW220212   5.850   6.462   3.450 -1.9353  0.1607 -2.0165
 6069SOL     OW20213   6.987  10.921   5.673 -0.0974  1.1227  0.3816
 6069SOL    HW120214   6.915  10.862   5.650  0.6914  0.3007 -0.0552
 6069SOL    HW220215   7.016  10.891   5.759  0.3796  0.7841  0.1086
 6070SOL     OW20216   5.344   7.929   9.542 -0.2573  0.1252  0.2481
 6070SOL    HW120217   5.419   7.880   9.509 -0.2891 -0.2055  0.6564
 6070SOL    HW220218   5.272   7.865   9.543 -0.2980  0.1788  0.7828
 6071SOL     OW20219   2.163   5.709   5.594  0.3893 -0.0388  0.5932
 6071SOL    HW120220   2.080   5.691   5.637  0.3820 -0.6534  0.3297
 6071SOL    HW220221   2.230   5.684   5.658  0.4613  3.5639  2.1754
 6072SOL     OW20222   3.865   9.337   5.194 -0.2454 -0.3893  0.2677
 6072SOL    HW120223   3.836   9.427   5.205  0.1756 -0.4131  1.6615
 6072SOL    HW220224   3.908   9.336   5.108 -0.1807  0.7454  0.2801
 6073SOL     OW20225   9.727  10.986   1.117  0.7906  0.3088  0.4332
 6073SOL    HW120226   9.636  10.978   1.147  0.2788  2.7772 -0.2698
 6073SOL    HW220227   9.769  11.040   1.183  1.4856 -0.0046  0.2491
 6074SOL     OW20228  10.414   2.771   4.467 -0.4571 -0.6374  0.7483
 6074SOL    HW120229  10.475   2.701   4.491  0.4826  0.8275  2.9422
 6074SOL    HW220230  10.396   2.816   4.550 -3.7494 -0.3685  0.0021
 6075SOL     OW20231   2.250   8.157   9.986 -0.5270 -0.0677  0.4086
 6075SOL    HW120232   2.327   8.104  10.004 -0.5903 -1.4034 -2.6425
 6075SOL    HW220233   2.266   8.239  10.032  1.4973 -1.2246  1.9340
 6076SOL     OW20234  10.537   7.281   2.937  0.0660 -0.2260 -0.2767
 6076SOL    HW120235  10.497   7.304   3.020 -1.4833  0.2048 -1.1103
 6076SOL    HW220236  10.518   7.355   2.879  0.3714 -0.8894 -1.2541
 6077SOL     OW20237   8.965   4.812  10.338  0.2686 -0.4119 -0.1135
 6077SOL    HW120238   8.972   4.908  10.340  1.6635 -0.4916 -0.3057
 6077SOL    HW220239   9.055   4.782  10.334 -0.0998 -1.7825  1.0977
 6078SOL     OW20240   5.053  10.499   1.701  0.1560 -0.4704  0.2335
 6078SOL    HW120241   4.967  10.520   1.666  0.9572 -0.0918 -1.6343
 6078SOL    HW220242   5.036  10.442   1.776 -1.6596 -1.2860 -0.7485
 6079SOL     OW20243   0.551   0.998   0.538  0.3725  0.1890  0.4716
 6079SOL    HW120244   0.509   1.084   0.540  0.9090  0.5059 -0.8940
 6079SOL    HW220245   0.610   0.999   0.614  0.3739  1.0368  0.4729
 6080SOL     OW20246   4.392   5.627   1.647  0.0788  0.0424  0.6181
 6080SOL    HW120247   4.308   5.591   1.677 -0.1506  0.2588  0.2524
 6080SOL    HW220248   4.373   5.719   1.629  0.7872  0.4998  2.0681
 6081SOL     OW20249   5.161   9.151   3.900  0.4593  0.5170  0.1402
 6081SOL    HW120250   5.118   9.078   3.944  1.0053 -0.7436 -1.3418
 6081SOL    HW220251   5.183   9.118   3.813  3.9438  1.2244  0.5992
 6082SOL     OW20252   2.297   0.527   9.571 -0.1168  0.3929 -0.6762
 6082SOL    HW120253   2.384   0.491   9.592  0.1515  0.9437 -0.8277
 6082SOL    HW220254   2.315   0.611   9.530 -0.7754  1.4796  1.1683
 6083SOL     OW20255   3.622   5.771   8.072  0.2906 -0.0537 -0.1508
 6083SOL    HW120256   3.573   5.847   8.042  1.6169  0.6775 -0.5417
 6083SOL    HW220257   3.646   5.791   8.163 -0.2135 -0.4523  0.0736
 6084SOL     OW20258   2.180   3.909   2.703 -0.0371 -0.1478 -0.8579
 6084SOL    HW120259   2.129   3.970   2.756  1.8024 -0.8784  1.9382
 6084SOL    HW220260   2.131   3.902   2.621 -0.8231  4.2875 -0.9952
 6085SOL     OW20261   4.457   8.880   7.852  0.1044  0.0598 -0.0035
 6085SOL    HW120262   4.499   8.950   7.903  0.3473 -0.0927  0.0109
 6085SOL    HW220263   4.526   8.850   7.792 -0.0910  0.0384 -0.2189
 6086SOL     OW20264   9.968   5.067   6.927  0.1317 -0.0131  0.6958
 6086SOL    HW120265   9.931   5.012   6.858  1.1985 -1.1646  0.9988
 6086SOL    HW220266  10.061   5.072   6.906  0.0785  1.5804  0.7666
 6087SOL     OW20267   9.255   9.376   9.472  0.2277  0.0522 -0.4820
 6087SOL    HW120268   9.310   9.344   9.544  2.0049  1.7358 -0.9884
 6087SOL    HW220269   9.270   9.315   9.401  0.9495  0.1131 -0.3926
 6088SOL     OW20270  10.630  10.849   1.910 -0.2381  0.0423 -0.7358
 6088SOL    HW120271  10.710  10.878   1.952 -0.0863  0.4308 -1.2676
 6088SOL    HW220272  10.651  10.848   1.816 -1.0600  0.8818 -0.9464
 6089SOL     OW20273   3.919  10.834   8.988  0.8531 -0.2175 -0.6871
 6089SOL    HW120274   3.974  10.794   8.920  1.0010 -1.7993  0.3133
 6089SOL    HW220275   3.866  10.762   9.021  0.9579  0.4470  1.0343
 6090SOL     OW20276   9.887   4.562   2.428  1.1206 -0.1343 -0.8457
 6090SOL    HW120277   9.823   4.633   2.436  1.1996 -0.1080 -0.4450
 6090SOL    HW220278   9.844   4.497   2.372  0.8298 -0.0188 -0.7556
 6091SOL     OW20279   7.163   9.303   8.664  0.2402 -0.3090  0.4383
 6091SOL    HW120280   7.243   9.302   8.612 -0.3040 -1.1960 -0.4295
 6091SOL    HW220281   7.192   9.297   8.755  1.1988  0.9244  0.2389
 6092SOL     OW20282   0.203   8.992   6.514 -0.5257 -0.2575  0.0237
 6092SOL    HW120283   0.248   8.913   6.486 -1.1423 -0.1938 -1.1995
 6092SOL    HW220284   0.111   8.976   6.495 -0.7837  0.3673  0.7013
 6093SOL     OW20285  10.506   0.930   6.168 -0.2421 -0.3112  0.0006
 6093SOL    HW120286  10.457   0.898   6.244  0.6475 -2.4314 -0.2304
 6093SOL    HW220287  10.596   0.901   6.183  1.0120  3.2458  0.2761
 6094SOL     OW20288   6.494   0.973   0.530  0.6703  0.1121  0.1555
 6094SOL    HW120289   6.413   0.977   0.582 -0.8287  0.9650 -2.1007
 6094SOL    HW220290   6.470   0.922   0.452  2.0689  1.0622 -0.9521
 6095SOL     OW20291   7.270   4.488   2.595  0.0561  0.5261  0.1800
 6095SOL    HW120292   7.288   4.435   2.518 -0.6684  0.8551 -0.2252
 6095SOL    HW220293   7.272   4.578   2.564  0.0153  0.6762  0.5996
 6096SOL     OW20294   1.406   8.510   1.121  0.1314 -0.2231  0.3420
 6096SOL    HW120295   1.361   8.595   1.118 -0.3642 -0.4888  0.1658
 6096SOL    HW220296   1.486   8.528   1.170 -0.4542  0.1255  1.1962
 6097SOL     OW20297   1.446   5.609   5.960 -0.6822  0.0508 -0.1880
 6097SOL    HW120298   1.510   5.538   5.955  1.6479  1.8179  1.7563
 6097SOL    HW220299   1.399   5.593   6.042 -1.5362 -0.2728 -0.7289
 6098SOL     OW20300   6.428   4.969   9.989  0.8241  0.0570  0.3185
 6098SOL    HW120301   6.510   5.008  10.019 -0.0575  1.0228  1.5653
 6098SOL    HW220302   6.375   5.043   9.959  0.4087 -0.5613 -0.5391
 6099SOL     OW20303   8.226   7.958   1.113 -0.3506  0.0214 -0.2235
 6099SOL    HW120304   8.298   7.896   1.126 -0.5943  0.2599  3.1050
 6099SOL    HW220305   8.262   8.024   1.054  1.4487 -0.9526 -0.2911
 6100SOL     OW20306   6.135   3.556   5.032  0.2543  0.5202 -0.2783
 6100SOL    HW120307   6.058   3.606   5.003 -0.8242 -1.0841 -0.3555
 6100SOL    HW220308   6.123   3.470   4.992  0.8598 -0.4999  1.6018
 6101SOL     OW20309   0.427   6.939   9.133 -0.1006  0.5348  0.0801
 6101SOL    HW120310   0.504   6.911   9.182 -0.3835  0.5740  0.5485
 6101SOL    HW220311   0.446   7.029   9.107  0.6840  0.0298 -1.1722
 6102SOL     OW20312   9.659   8.123  10.409  0.2132 -0.2586  0.9260
 6102SOL    HW120313   9.601   8.054  10.376  1.7974 -1.4173  0.4691
 6102SOL    HW220314   9.711   8.081  10.477  1.9131  0.1886 -0.0457
 6103SOL     OW20315   0.242   1.735   9.771 -0.2612  0.5569  0.2605
 6103SOL    HW120316   0.224   1.731   9.865  0.2007  2.2917  0.4639
 6103SOL    HW220317   0.296   1.814   9.761  3.2926 -1.8026 -0.9231
 6104SOL     OW20318   3.513   6.215   7.064  0.6077  0.0223 -0.3526
 6104SOL    HW120319   3.484   6.138   7.015 -1.0884 -0.2759  1.0357
 6104SOL    HW220320   3.440   6.236   7.122  1.5435  1.9049  0.2336
 6105SOL     OW20321   1.122   2.009   4.280 -0.4076 -0.1717 -0.4120
 6105SOL    HW120322   1.059   1.983   4.212 -0.3061 -1.7804  0.0698
 6105SOL    HW220323   1.072   2.007   4.361 -0.3178  0.9375 -0.3135
 6106SOL     OW20324   3.434   5.536   6.478  0.0353  0.0607 -0.1293
 6106SOL    HW120325   3.469   5.511   6.564  0.6017  0.3698 -0.2644
 6106SOL    HW220326   3.502   5.592   6.440 -0.4290  0.3315 -0.5751
 6107SOL     OW20327   6.992   9.343   9.585 -0.3508 -0.0821  0.1561
 6107SOL    HW120328   6.991   9.426   9.633  3.9934 -1.1838  2.6914
 6107SOL    HW220329   6.903   9.309   9.594 -1.6274  3.1310  1.1218
 6108SOL     OW20330   5.770   0.218   8.660 -0.2200  0.0065  1.2510
 6108SOL    HW120331   5.784   0.128   8.691 -1.6178 -0.3638  0.8833
 6108SOL    HW220332   5.752   0.268   8.739 -1.3540 -0.4462  1.3029
 6109SOL     OW20333   3.124   1.858   8.374  0.4475  0.4388 -0.4564
 6109SOL    HW120334   3.161   1.865   8.286  1.5659 -0.4675 -0.0878
 6109SOL    HW220335   3.188   1.902   8.430 -0.0725  0.6786 -0.0524
 6110SOL     OW20336   8.467   2.110   6.958  0.0657  0.2533  0.2006
 6110SOL    HW120337   8.383   2.130   7.000  0.1541 -1.6256  1.3706
 6110SOL    HW220338   8.466   2.014   6.948  1.0427  0.4259 -2.0149
 6111SOL     OW20339   5.654   3.580   4.448  0.1836  0.2457  0.7850
 6111SOL    HW120340   5.565   3.545   4.438  0.9807 -2.3226  1.7713
 6111SOL    HW220341   5.681   3.603   4.360 -1.1924  0.3848  0.3751
 6112SOL     OW20342   6.704   1.449  10.817  0.3042  0.0653 -0.0013
 6112SOL    HW120343   6.721   1.459  10.910  0.4152 -1.3092  0.1554
 6112SOL    HW220344   6.664   1.362  10.810  1.3894 -0.3544 -1.3654
 6113SOL     OW20345   4.517   2.709   5.880 -0.3174 -0.1436  0.0392
 6113SOL    HW120346   4.611   2.719   5.896 -0.2035  0.8738 -1.1301
 6113SOL    HW220347   4.511   2.673   5.792 -1.0293 -0.8316  0.3596
 6114SOL     OW20348   4.743   3.089   7.749  0.4439  1.2934 -0.5695
 6114SOL    HW120349   4.822   3.035   7.742  0.3232  0.6679  2.0723
 6114SOL    HW220350   4.768   3.161   7.806 -0.2972  2.3539 -1.5536
 6115SOL     OW20351  10.615   1.833   9.741  0.5421  0.0171  0.6754
 6115SOL    HW120352  10.642   1.912   9.695 -1.7397  0.3954 -0.1328
 6115SOL    HW220353  10.628   1.853   9.834 -0.0914  1.4147  0.4839
 6116SOL     OW20354   1.266   1.124   2.035  0.2862 -0.0095 -0.3922
 6116SOL    HW120355   1.297   1.126   2.126  0.6464 -0.6082 -0.4951
 6116SOL    HW220356   1.308   1.199   1.994  0.8079 -0.2351 -0.2770
 6117SOL     OW20357   8.554   7.818   3.058  0.0203  0.1523  0.4815
 6117SOL    HW120358   8.642   7.810   3.094  0.7266  1.6057 -0.7774
 6117SOL    HW220359   8.528   7.908   3.078  0.3065  0.9109 -2.1723
 6118SOL     OW20360   2.100   0.842   4.517 -0.0589  0.2654 -0.5137
 6118SOL    HW120361   2.195   0.832   4.508  0.0716  1.2809 -0.4130
 6118SOL    HW220362   2.083   0.830   4.611 -0.0373  0.0566 -0.5357
 6119SOL     OW20363   5.716   9.609  11.096  0.2126  0.1348  0.6791
 6119SOL    HW120364   5.796   9.576  11.055 -1.1676 -1.6724 -0.6712
 6119SOL    HW220365   5.693   9.543  11.161  0.5790  1.3992  2.1853
 6120SOL     OW20366   8.315   9.614   5.761 -0.0024  0.1010 -0.1727
 6120SOL    HW120367   8.275   9.527   5.763  0.2302 -0.0228 -0.8768
 6120SOL    HW220368   8.264   9.664   5.825 -0.8090 -0.2584 -0.5129
 6121SOL     OW20369   7.457   8.792  10.971 -0.5531  0.0943 -0.6290
 6121SOL    HW120370   7.540   8.775  10.927  0.3689 -0.6230  1.2691
 6121SOL    HW220371   7.482   8.837  11.052 -1.9718 -0.4430  0.1386
 6122SOL     OW20372  10.027   4.064   6.084 -0.5480  0.0738 -0.3146
 6122SOL    HW120373  10.029   4.081   5.990  0.8648  1.0420 -0.1395
 6122SOL    HW220374   9.947   4.107   6.115  0.4758  2.3814 -0.6525
 6123SOL     OW20375   5.572   8.860   5.843 -0.3323 -0.2940  0.9696
 6123SOL    HW120376   5.621   8.811   5.778  0.8275 -0.7521  2.1537
 6123SOL    HW220377   5.484   8.822   5.839 -0.6943  0.6277 -1.2595
 6124SOL     OW20378  10.917   1.225   2.091  0.6900  0.3565 -0.1980
 6124SOL    HW120379  10.836   1.194   2.133  1.9313 -0.5366  1.6595
 6124SOL    HW220380  10.889   1.301   2.040 -1.1602  0.7002  1.1896
 6125SOL     OW20381   5.472   8.470  10.342 -0.7193  0.2672  0.0570
 6125SOL    HW120382   5.493   8.408  10.411 -1.9745  1.1178  1.2442
 6125SOL    HW220383   5.437   8.547  10.387 -4.0700 -0.1325 -1.5444
 6126SOL     OW20384   5.071   0.384   2.400 -0.0741  0.1112  0.0523
 6126SOL    HW120385   5.115   0.309   2.439  0.5430  0.4577  0.0425
 6126SOL    HW220386   5.118   0.460   2.435 -1.4283  0.5640  0.9926
 6127SOL     OW20387   6.148   4.729   0.063  0.0360  0.0691 -0.2159
 6127SOL    HW120388   6.092   4.693  -0.006 -1.2540  0.4619  0.5791
 6127SOL    HW220389   6.112   4.816   0.080  1.0910  0.4605  0.1201
 6128SOL     OW20390   3.399   3.887   5.528 -0.1179  0.6353 -0.1518
 6128SOL    HW120391   3.315   3.900   5.483  0.7746  1.1179 -1.7825
 6128SOL    HW220392   3.410   3.965   5.582 -0.0244  1.3210 -1.1358
 6129SOL     OW20393   5.812   9.826   7.600 -0.5017  0.4446 -0.1532
 6129SOL    HW120394   5.757   9.905   7.602 -1.6396 -0.2800 -1.3769
 6129SOL    HW220395   5.822   9.806   7.507  0.9632 -0.0736  0.0827
 6130SOL     OW20396   1.306   6.370   1.814  0.4809 -0.1005  0.1612
 6130SOL    HW120397   1.231   6.407   1.861  1.0459  0.4867  0.6288
 6130SOL    HW220398   1.292   6.275   1.816 -0.1366 -0.0056  0.4317
 6131SOL     OW20399   3.799   6.312   5.397 -0.4806  0.3349 -0.4831
 6131SOL    HW120400   3.892   6.330   5.379 -0.1429 -1.5843 -0.9271
 6131SOL    HW220401   3.797   6.220   5.422 -2.1515  0.6289  0.6689
 6132SOL     OW20402   6.370   1.720   0.124  0.1325 -0.8796  0.4576
 6132SOL    HW120403   6.323   1.803   0.136 -1.2908 -1.6488  0.4407
 6132SOL    HW220404   6.395   1.694   0.213 -0.4768 -1.0135  0.5949
 6133SOL     OW20405   7.012   6.244   8.133  0.4278  0.4309 -0.1728
 6133SOL    HW120406   6.922   6.236   8.102  0.0791 -0.7376  1.0276
 6133SOL    HW220407   7.055   6.164   8.102  0.1869 -0.5427  1.8406
 6134SOL     OW20408   6.483  10.128   6.376  0.0354  0.3312 -0.1890
 6134SOL    HW120409   6.491  10.144   6.470 -0.9294  1.8612 -0.3371
 6134SOL    HW220410   6.550  10.062   6.358 -0.5856 -0.9394  1.7820
 6135SOL     OW20411   9.281   6.203   4.127 -0.0711  0.6758  0.1213
 6135SOL    HW120412   9.249   6.126   4.175 -1.6231  1.5375  0.5465
 6135SOL    HW220413   9.224   6.208   4.049 -0.6560  1.9217  0.5969
 6136SOL     OW20414   9.173   8.565  10.215  0.1048 -0.8783 -0.0782
 6136SOL    HW120415   9.112   8.550  10.143 -1.5814  0.8586  0.8767
 6136SOL    HW220416   9.161   8.491  10.273 -3.5499  0.7965  1.6174
 6137SOL     OW20417   5.496   2.595   3.125  0.4849 -0.7545  0.0278
 6137SOL    HW120418   5.452   2.650   3.189 -1.2507  0.3017 -1.9451
 6137SOL    HW220419   5.432   2.528   3.102  0.6044 -0.4177 -1.4142
 6138SOL     OW20420  10.800   6.359   1.703  0.6968  0.4584  1.0261
 6138SOL    HW120421  10.705   6.364   1.697  0.7658  0.8679  0.0582
 6138SOL    HW220422  10.824   6.283   1.650  0.8911  0.1518  1.5472
 6139SOL     OW20423   7.728   4.518   0.046 -0.4400 -0.4750 -1.0766
 6139SOL    HW120424   7.711   4.612   0.044 -0.4263 -0.4479 -0.3929
 6139SOL    HW220425   7.759   4.497  -0.041 -0.1587  0.2128 -1.1488
 6140SOL     OW20426   8.791   5.074  10.561  0.2643 -0.1826  0.3736
 6140SOL    HW120427   8.810   5.011  10.631 -0.8338 -0.7592  0.1725
 6140SOL    HW220428   8.720   5.034  10.512  2.1638 -0.6327 -2.2096
 6141SOL     OW20429   0.911   2.870   8.660  0.2196 -0.3770  0.0735
 6141SOL    HW120430   0.902   2.947   8.716 -0.6497 -1.0564  0.9093
 6141SOL    HW220431   1.004   2.848   8.664  0.1147 -0.6490  1.6145
 6142SOL     OW20432  10.959   2.924   7.475 -0.2871  0.1491 -0.3631
 6142SOL    HW120433  10.924   3.002   7.518 -0.7399 -0.4039  0.3040
 6142SOL    HW220434  10.919   2.851   7.523 -1.8309 -0.5219 -2.5105
 6143SOL     OW20435  10.747   5.835   4.340 -0.3089 -0.3904 -0.2792
 6143SOL    HW120436  10.781   5.924   4.337 -1.9206  0.4249  2.2136
 6143SOL    HW220437  10.825   5.780   4.348  0.6966  0.7534 -1.7093
 6144SOL     OW20438   3.060   9.239   0.109 -0.0724  0.0046 -0.1217
 6144SOL    HW120439   3.006   9.185   0.167  0.9978 -0.7295  0.2260
 6144SOL    HW220440   3.078   9.318   0.161 -1.2182  0.5028 -0.4403
 6145SOL     OW20441   5.893   7.216   4.172 -0.0409 -0.0679  0.2467
 6145SOL    HW120442   5.876   7.224   4.265  0.4054 -0.3890  0.3604
 6145SOL    HW220443   5.842   7.139   4.144 -0.2216  0.0640  0.2131
 6146SOL     OW20444   5.373  10.948   2.924  0.2283 -0.5032 -0.1787
 6146SOL    HW120445   5.343  10.996   3.001 -0.2132 -1.5543  0.3265
 6146SOL    HW220446   5.457  10.911   2.950  0.5545 -0.0301 -0.5547
 6147SOL     OW20447   9.404   3.644  10.476 -0.2642  0.0844 -0.0592
 6147SOL    HW120448   9.313   3.615  10.473 -1.0788  2.3142  0.9191
 6147SOL    HW220449   9.421   3.659  10.569  1.6227 -1.6339 -0.0374
 6148SOL     OW20450   4.311   9.197   5.756  0.1375 -0.7450  0.5032
 6148SOL    HW120451   4.372   9.252   5.807 -2.3635  0.3248  2.5764
 6148SOL    HW220452   4.296   9.121   5.812 -0.3675 -1.0173 -0.0004
 6149SOL     OW20453   7.747   6.750  11.082 -0.2525 -1.2258  0.0351
 6149SOL    HW120454   7.767   6.787  11.168 -0.7683  0.1626 -0.4286
 6149SOL    HW220455   7.805   6.673  11.076  1.2264 -0.2205  0.7966
 6150SOL     OW20456   7.227   5.920  10.883 -0.3031  0.3282 -0.8814
 6150SOL    HW120457   7.144   5.875  10.897  0.2931 -0.4230  0.4701
 6150SOL    HW220458   7.214   6.007  10.919 -0.9773  0.7508 -2.1003
 6151SOL     OW20459   2.443   6.244   1.995 -0.0797 -0.1891 -0.5283
 6151SOL    HW120460   2.426   6.190   1.918  1.0269 -0.4331 -0.6243
 6151SOL    HW220461   2.538   6.250   1.999 -0.1628  1.9387 -0.6324
 6152SOL     OW20462   7.113   5.289   4.018  0.3058  0.9264 -0.4179
 6152SOL    HW120463   7.090   5.196   4.012  2.2437  0.4362 -0.8978
 6152SOL    HW220464   7.030   5.335   4.004 -0.8807 -0.7147  0.8155
 6153SOL     OW20465   8.127  10.044   7.429  0.1125  0.2286  0.4115
 6153SOL    HW120466   8.067   9.971   7.441  0.1581  0.1455  0.1471
 6153SOL    HW220467   8.086  10.117   7.476 -0.4741  0.3231 -0.2275
 6154SOL     OW20468   9.116   8.204   8.313 -0.6684  0.1699  0.0159
 6154SOL    HW120469   9.179   8.269   8.343  1.1888 -1.6281  0.2089
 6154SOL    HW220470   9.088   8.235   8.227  1.0191  0.6969 -0.3789
 6155SOL     OW20471   9.891   7.031  10.721 -0.4854  0.3175 -0.0477
 6155SOL    HW120472   9.827   6.961  10.734  0.3763 -0.3766  0.5627
 6155SOL    HW220473   9.949   7.026  10.797 -1.7719  3.2514  1.2858
 6156SOL     OW20474   7.904   7.082   2.762  0.4597  0.4611  0.5699
 6156SOL    HW120475   7.888   7.170   2.728 -0.1467 -0.1329 -0.7776
 6156SOL    HW220476   7.990   7.086   2.803  0.3671  1.7097  0.6644
 6157SOL     OW20477   6.240   1.839   8.495  0.5582  0.1073 -0.2567
 6157SOL    HW120478   6.153   1.849   8.457  0.5395  0.0046 -0.2427
 6157SOL    HW220479   6.224   1.802   8.582  0.6479 -0.5747 -0.5229
 6158SOL     OW20480   2.637   7.197   9.898  0.1993 -0.1243 -0.0128
 6158SOL    HW120481   2.650   7.251   9.820  1.8519 -0.7158 -0.1749
 6158SOL    HW220482   2.575   7.129   9.870 -0.1295  0.3545 -0.4636
 6159SOL     OW20483   3.141   0.325   5.481  1.0026 -0.1206  0.5838
 6159SOL    HW120484   3.211   0.331   5.546  0.3197  2.5372  1.2048
 6159SOL    HW220485   3.084   0.400   5.500 -1.1919 -1.2988 -0.8562
 6160SOL     OW20486   5.824   0.636   2.833  0.7744 -0.6718  0.1121
 6160SOL    HW120487   5.807   0.596   2.918  2.1986 -2.6242 -0.4461
 6160SOL    HW220488   5.745   0.617   2.782 -0.9406  2.2003  1.4622
 6161SOL     OW20489   8.117   1.451   9.489  0.5254  0.0444 -0.7015
 6161SOL    HW120490   8.098   1.545   9.491 -0.4905 -0.0583 -2.9887
 6161SOL    HW220491   8.191   1.441   9.550 -0.1455  2.0913  0.5719
 6162SOL     OW20492  10.259   2.428   8.066  0.2581 -0.2679 -0.3278
 6162SOL    HW120493  10.164   2.436   8.077 -0.3903 -1.6817 -3.7092
 6162SOL    HW220494  10.283   2.498   8.006  2.0776  2.0865  2.8232
 6163SOL     OW20495   1.202   6.646   1.894  0.4634 -0.3716  0.1176
 6163SOL    HW120496   1.285   6.632   1.941 -0.8948  0.3220  2.9802
 6163SOL    HW220497   1.210   6.733   1.856  0.7483  0.0840  1.1741
 6164SOL     OW20498   5.152   0.065  10.519  0.4105  0.0402 -0.0521
 6164SOL    HW120499   5.190   0.112  10.445  1.7081 -0.2072  0.4169
 6164SOL    HW220500   5.089   0.005  10.480 -0.4795  1.3933 -0.7502
 6165SOL     OW20501   3.232   5.312   1.616 -0.4213 -0.0028 -0.4107
 6165SOL    HW120502   3.141   5.284   1.632 -0.2831 -0.2119  0.0421
 6165SOL    HW220503   3.281   5.230   1.613  0.3019  0.1827  2.8833
 6166SOL     OW20504   5.856   3.938   1.520  0.6184 -0.0971 -0.0228
 6166SOL    HW120505   5.771   3.947   1.477  0.4708  2.0139  0.5768
 6166SOL    HW220506   5.880   4.028   1.544  1.1817 -1.0122  3.3278
 6167SOL     OW20507   2.245   0.647  10.449 -0.0023 -0.3229  0.3007
 6167SOL    HW120508   2.230   0.670  10.358  0.5416  3.9315  1.0824
 6167SOL    HW220509   2.338   0.664  10.463 -0.2410 -0.0818  1.8194
 6168SOL     OW20510   4.223   8.039   6.400 -0.3450 -0.1961 -0.4267
 6168SOL    HW120511   4.250   7.960   6.351  0.8932  0.4799 -0.8835
 6168SOL    HW220512   4.303   8.068   6.444 -1.0238  0.2611  0.5418
 6169SOL     OW20513   9.138   6.609   0.125 -0.1355 -0.6735 -0.0264
 6169SOL    HW120514   9.069   6.544   0.110 -1.9670  1.2023 -0.1694
 6169SOL    HW220515   9.135   6.665   0.048 -0.5829  1.2554  1.3403
 6170SOL     OW20516   7.570   3.621   3.972 -0.5859 -0.2837 -0.0622
 6170SOL    HW120517   7.564   3.716   3.983 -2.2863 -0.1233 -1.8765
 6170SOL    HW220518   7.598   3.589   4.058 -0.3337  1.8167  0.6956
 6171SOL     OW20519   1.231   7.215   5.946 -0.8613  0.2746  0.2181
 6171SOL    HW120520   1.297   7.284   5.942 -0.6746  0.0379 -2.3088
 6171SOL    HW220521   1.273   7.138   5.909 -1.8679 -0.5160  0.6494
 6172SOL     OW20522   9.497   7.665   0.865  0.1359  0.2517  0.0276
 6172SOL    HW120523   9.584   7.700   0.885 -0.8939  2.5927  0.7594
 6172SOL    HW220524   9.493   7.660   0.770  1.0822  0.0129 -0.0046
 6173SOL     OW20525   9.101   2.640  10.494 -0.1694 -0.2119  0.0697
 6173SOL    HW120526   9.031   2.664  10.433  0.2163 -1.8483 -1.0782
 6173SOL    HW220527   9.179   2.682  10.460 -0.2238  0.0501  0.2647
 6174SOL     OW20528   4.126  10.468   3.179  0.4685 -0.0258 -0.1089
 6174SOL    HW120529   4.072  10.410   3.232  0.4893 -0.1419 -0.2163
 6174SOL    HW220530   4.063  10.519   3.127  0.3535  1.2863  1.2447
 6175SOL     OW20531  10.609   5.977   5.476 -0.3642 -0.1092 -0.1022
 6175SOL    HW120532  10.523   5.967   5.436 -0.1173  0.0722 -0.6795
 6175SOL    HW220533  10.668   5.930   5.417 -0.0369 -0.0542  0.1815
 6176SOL     OW20534   0.976   7.254   7.462 -0.4562 -0.3463 -0.2553
 6176SOL    HW120535   0.906   7.189   7.458  0.2377 -1.1381  0.1341
 6176SOL    HW220536   1.019   7.238   7.546  0.6897 -0.4148 -0.8308
 6177SOL     OW20537   3.407   9.955   4.973  0.3533  0.6903  0.5298
 6177SOL    HW120538   3.339   9.918   5.028 -0.2941 -1.4869 -1.5781
 6177SOL    HW220539   3.388  10.049   4.971 -1.4215  0.3880  1.4865
 6178SOL     OW20540   9.417   8.877   7.030  0.2898  0.1663  0.3947
 6178SOL    HW120541   9.456   8.948   7.080  0.5122  0.9435 -0.8496
 6178SOL    HW220542   9.464   8.799   7.059  1.7770  0.8751 -0.0048
 6179SOL     OW20543   2.249   4.028   0.003  0.2747  1.0420 -0.6835
 6179SOL    HW120544   2.303   4.107   0.003  0.1410  1.1367 -0.4316
 6179SOL    HW220545   2.308   3.958   0.029  0.3485  1.0943 -0.7095
 6180SOL     OW20546   1.799   8.273   2.559  0.0361 -0.0005 -0.0982
 6180SOL    HW120547   1.865   8.271   2.629 -2.3186 -1.2395  2.2326
 6180SOL    HW220548   1.816   8.193   2.509  1.0429  0.3277 -0.3160
 6181SOL     OW20549   5.730   8.423   5.278 -0.4359 -0.1393 -0.0478
 6181SOL    HW120550   5.805   8.367   5.259  1.3354  1.4363  1.7911
 6181SOL    HW220551   5.740   8.498   5.219 -0.8534 -0.1462 -0.1325
 6182SOL     OW20552  10.032   9.905   0.155  0.3895 -0.7833 -0.3521
 6182SOL    HW120553  10.110   9.851   0.140  1.3412  0.5224 -0.3151
 6182SOL    HW220554  10.028   9.915   0.250  0.8384  0.0497 -0.4096
 6183SOL     OW20555  10.203   7.654   1.014 -0.3836 -0.0633  0.1210
 6183SOL    HW120556  10.181   7.737   0.971  2.9610  1.5418  1.1555
 6183SOL    HW220557  10.265   7.612   0.954 -0.8639 -1.1090  0.3309
 6184SOL     OW20558   7.201   0.909   5.083  0.1314 -0.1725 -0.0597
 6184SOL    HW120559   7.111   0.880   5.068 -0.3071  0.0571  1.8790
 6184SOL    HW220560   7.191   0.993   5.129  1.3288 -0.4827  0.7933
 6185SOL     OW20561   3.549   3.033   7.109 -0.3822  0.3362  0.6922
 6185SOL    HW120562   3.615   2.999   7.170  1.7339 -0.4332 -1.8440
 6185SOL    HW220563   3.560   3.128   7.112  1.0100  0.2109  0.1855
 6186SOL     OW20564   0.560   0.425   2.542 -0.1412 -0.6072  0.1371
 6186SOL    HW120565   0.481   0.419   2.488  1.7108 -1.5175 -2.6899
 6186SOL    HW220566   0.545   0.501   2.598 -2.1333  0.5588 -1.8067
 6187SOL     OW20567   0.089   9.209   7.710 -0.2211 -0.3690  0.6390
 6187SOL    HW120568   0.184   9.212   7.708 -0.2311 -0.2841 -1.0132
 6187SOL    HW220569   0.068   9.150   7.782  0.9289  3.0831  4.1151
 6188SOL     OW20570   8.720   3.536   0.195  0.2952  0.3464 -0.0088
 6188SOL    HW120571   8.774   3.609   0.165  1.3867  0.0829  1.2256
 6188SOL    HW220572   8.737   3.531   0.289  0.2452 -1.4902 -0.0588
 6189SOL     OW20573   9.397   2.541   9.829  0.0960 -0.2363  0.3855
 6189SOL    HW120574   9.487   2.546   9.794  0.6765  1.6352  2.0101
 6189SOL    HW220575   9.402   2.581   9.915 -2.5949  1.1477 -0.0081
 6190SOL     OW20576  10.659   0.927   4.265 -0.3730 -0.7034  0.5254
 6190SOL    HW120577  10.627   0.919   4.355 -1.8355  0.7692  0.1968
 6190SOL    HW220578  10.613   1.004   4.231 -0.3733 -1.6359 -1.7081
 6191SOL     OW20579   3.523   1.448   1.770  0.0395 -0.2184  0.0569
 6191SOL    HW120580   3.588   1.378   1.758  0.7995  0.2332  1.2995
 6191SOL    HW220581   3.450   1.422   1.714  1.0613 -1.0276 -0.9717
 6192SOL     OW20582  10.443   2.940   9.509  0.3802  0.4925  0.4342
 6192SOL    HW120583  10.536   2.923   9.521 -0.0637 -1.0818  2.1324
 6192SOL    HW220584  10.415   2.881   9.439  0.3206 -0.3516  1.1617
 6193SOL     OW20585   1.387   6.749   0.207  0.2247 -0.3387 -0.0604
 6193SOL    HW120586   1.308   6.796   0.178  0.0839 -1.2178 -1.1757
 6193SOL    HW220587   1.408   6.691   0.134  1.8167 -0.2455  0.3011
 6194SOL     OW20588   8.825   6.556   4.661  0.4540 -0.1427 -0.5036
 6194SOL    HW120589   8.891   6.625   4.645 -0.0991  0.1755 -1.5132
 6194SOL    HW220590   8.877   6.479   4.683  1.1805  0.1453 -1.1278
 6195SOL     OW20591   1.662   4.555   1.407  0.9996 -0.8094  0.0892
 6195SOL    HW120592   1.590   4.589   1.353  1.0180 -1.3840 -0.3132
 6195SOL    HW220593   1.652   4.459   1.401  1.1051 -0.8832  0.9741
 6196SOL     OW20594   4.796   8.501   8.579  0.3954 -0.0028  0.2009
 6196SOL    HW120595   4.804   8.534   8.490 -1.7209  0.1997  0.0274
 6196SOL    HW220596   4.748   8.419   8.570 -1.5660  0.9642  1.2484
 6197SOL     OW20597   6.562   3.008   2.287 -0.0586  0.0479 -0.2014
 6197SOL    HW120598   6.559   2.978   2.378 -1.7091  2.6700  0.7089
 6197SOL    HW220599   6.656   3.006   2.265  0.5706  0.8161  2.1002
 6198SOL     OW20600   0.073   1.014  10.742 -0.2528  0.1594  0.1372
 6198SOL    HW120601   0.038   1.017  10.653 -1.1475 -0.2032  0.4656
 6198SOL    HW220602   0.028   1.085  10.788 -0.3880 -0.1633  0.5053
 6199SOL     OW20603  11.096  10.068   8.967  0.4548 -0.5929  0.5287
 6199SOL    HW120604  11.059  10.146   8.926  1.9901 -0.7874 -1.3621
 6199SOL    HW220605  11.030  10.000   8.951  1.3346 -0.8716 -2.5552
 6200SOL     OW20606  10.690   1.080   8.505  0.3652 -0.2949  0.3373
 6200SOL    HW120607  10.643   1.006   8.543 -1.3396  0.3013 -0.5233
 6200SOL    HW220608  10.687   1.148   8.573 -4.0793  1.3525 -1.1474
 6201SOL     OW20609   1.829   5.257   4.905  0.2454  0.4881  0.0767
 6201SOL    HW120610   1.778   5.251   4.825 -0.3227  1.0374  0.3862
 6201SOL    HW220611   1.894   5.325   4.888  0.5854  0.1118 -0.1557
 6202SOL     OW20612   9.894   9.029   9.254  1.2627  0.8745 -0.4905
 6202SOL    HW120613   9.856   9.042   9.167 -1.4311 -0.2776  0.4101
 6202SOL    HW220614   9.841   9.083   9.312 -0.4807 -2.3172  1.1156
 6203SOL     OW20615   0.580   1.129   2.257  0.2578  0.1175  0.2497
 6203SOL    HW120616   0.520   1.057   2.277  0.3284  0.4287  1.6412
 6203SOL    HW220617   0.558   1.198   2.320  2.5485 -0.0343  1.3151
 6204SOL     OW20618   7.338  10.495   6.769  0.2579 -0.0673 -0.1786
 6204SOL    HW120619   7.268  10.526   6.712  2.2452  1.5180 -1.8996
 6204SOL    HW220620   7.336  10.399   6.760 -0.6782  0.0459 -1.4373
 6205SOL     OW20621   8.580   4.291   8.782 -0.2990  0.2883  0.2655
 6205SOL    HW120622   8.624   4.375   8.794 -1.1849  0.6739  0.9148
 6205SOL    HW220623   8.516   4.287   8.853 -0.6322 -0.7035 -0.0751
 6206SOL     OW20624   2.784   7.877   0.510  0.8962 -0.2526  0.1414
 6206SOL    HW120625   2.772   7.783   0.496  0.0782  0.2443 -3.9463
 6206SOL    HW220626   2.879   7.889   0.512  1.0080 -1.1701  1.2609
 6207SOL     OW20627   2.150   2.840   7.209  0.0770  0.2182 -0.1941
 6207SOL    HW120628   2.112   2.845   7.122  3.3821  0.2286 -1.7878
 6207SOL    HW220629   2.210   2.765   7.205 -0.0239 -0.0917  2.2535
 6208SOL     OW20630   8.050   9.430   4.267  0.2855  0.0748 -0.2160
 6208SOL    HW120631   8.063   9.388   4.352  0.4405  0.8443  0.1462
 6208SOL    HW220632   8.127   9.405   4.216  0.1783 -0.4137 -0.1376
 6209SOL     OW20633   1.163   6.287   0.289  0.9831 -0.3939 -0.6490
 6209SOL    HW120634   1.112   6.265   0.210  0.7439 -2.7858  0.0859
 6209SOL    HW220635   1.193   6.202   0.322  1.8714  0.6342  1.3296
 6210SOL     OW20636   1.484   1.882   9.245 -0.5403 -0.5686 -0.0202
 6210SOL    HW120637   1.576   1.855   9.239 -0.1073  0.6561  0.7808
 6210SOL    HW220638   1.461   1.909   9.156 -0.7686 -2.7824 -0.6805
 6211SOL     OW20639   0.878   3.170   1.862  0.8317  0.0354  0.1704
 6211SOL    HW120640   0.944   3.196   1.798  1.4391 -0.2034  0.6857
 6211SOL    HW220641   0.869   3.247   1.919  2.2238 -0.6154  1.3607
 6212SOL     OW20642   1.337   8.276   0.069  0.3858  0.2553  0.5733
 6212SOL    HW120643   1.398   8.295  -0.002 -0.0828 -1.7287 -0.4414
 6212SOL    HW220644   1.283   8.355   0.077  2.5920  1.8158  1.0680
 6213SOL     OW20645   7.414   8.505   3.555  0.3658 -0.1889 -0.7291
 6213SOL    HW120646   7.477   8.577   3.556 -1.0816  1.1766 -1.6762
 6213SOL    HW220647   7.446   8.446   3.487  0.7623  0.3631 -1.0307
 6214SOL     OW20648   4.434  10.856   1.988 -0.0112  0.3941  0.4086
 6214SOL    HW120649   4.383  10.936   1.974  1.5104  1.2476 -0.4719
 6214SOL    HW220650   4.488  10.875   2.064 -0.8985 -0.4915  1.3025
 6215SOL     OW20651   2.117   1.910   2.775 -0.1017 -0.0508 -0.6908
 6215SOL    HW120652   2.032   1.954   2.768  0.4919  1.1317 -0.6851
 6215SOL    HW220653   2.114   1.842   2.707 -1.0190  0.0080 -0.7306
 6216SOL     OW20654   3.342   3.187   1.852  0.2303  0.0171  0.4407
 6216SOL    HW120655   3.336   3.280   1.835 -2.0475  0.1804  1.6169
 6216SOL    HW220656   3.407   3.179   1.922  0.7912  0.6500 -0.0033
 6217SOL     OW20657   9.947   0.089   0.852  0.3197  0.2271  0.5353
 6217SOL    HW120658   9.947  -0.001   0.817 -1.1524  0.4425 -0.0919
 6217SOL    HW220659  10.030   0.125   0.822  0.9443 -0.9233  0.7998
 6218SOL     OW20660   9.948   7.946   5.001 -0.6681  0.6856  0.4042
 6218SOL    HW120661   9.937   7.945   5.096  2.1738  1.1417  0.8299
 6218SOL    HW220662  10.014   7.878   4.984  1.4779  2.9267 -0.7748
 6219SOL     OW20663   3.725   4.230   7.542  0.1441 -0.4606  0.0078
 6219SOL    HW120664   3.747   4.164   7.476 -2.4706 -1.2613 -0.1817
 6219SOL    HW220665   3.717   4.180   7.624  4.1984  0.6320  1.3153
 6220SOL     OW20666   3.820   2.758   8.954 -0.1738 -0.9140 -0.1511
 6220SOL    HW120667   3.782   2.714   8.877  0.2449 -0.2817 -0.7318
 6220SOL    HW220668   3.788   2.707   9.028 -0.5365 -1.5817 -0.7458
 6221SOL     OW20669  10.071   0.509   5.315  0.3160 -0.2742 -0.2148
 6221SOL    HW120670  10.145   0.534   5.258 -0.0741  0.4309 -0.4242
 6221SOL    HW220671  10.022   0.446   5.263  0.0547  0.2387 -0.6049
 6222SOL     OW20672   1.439   1.209   9.701 -0.4248 -0.5387  0.1901
 6222SOL    HW120673   1.517   1.167   9.738  1.0875 -0.4273 -2.5813
 6222SOL    HW220674   1.454   1.303   9.711 -0.3961 -0.5242  0.0120
 6223SOL     OW20675   9.830  10.299  11.041  0.3812  0.1898 -0.2310
 6223SOL    HW120676   9.863  10.385  11.067 -0.7853  0.4248  0.5381
 6223SOL    HW220677   9.820  10.251  11.123 -0.7697 -0.0112 -0.4702
 6224SOL     OW20678   7.187   7.440   9.624  0.6324 -0.0672 -0.3897
 6224SOL    HW120679   7.204   7.472   9.713 -1.7233 -0.5449  0.2994
 6224SOL    HW220680   7.259   7.475   9.572  0.7406  2.3707  1.2324
 6225SOL     OW20681   1.282   5.615   9.817 -0.1592 -0.6585 -0.1627
 6225SOL    HW120682   1.364   5.665   9.817 -0.9681  0.7438 -0.7089
 6225SOL    HW220683   1.309   5.524   9.806  1.3942 -0.4051  1.1473
 6226SOL     OW20684   1.554   5.057   5.936 -0.5762  0.1180 -0.8432
 6226SOL    HW120685   1.541   5.070   5.842 -1.9083  1.7742 -0.4800
 6226SOL    HW220686   1.639   5.013   5.943 -0.9230 -0.9732 -2.8557
 6227SOL     OW20687   8.362   0.775   6.022  0.1289 -0.4140 -0.1120
 6227SOL    HW120688   8.421   0.846   5.997  0.3818  0.2286  2.0968
 6227SOL    HW220689   8.418   0.698   6.029  0.1922 -0.4234 -0.6818
 6228SOL     OW20690   9.837   8.582   7.354 -0.3626 -0.4173 -0.1856
 6228SOL    HW120691   9.754   8.588   7.401  0.6208  1.6946  1.4803
 6228SOL    HW220692   9.904   8.591   7.423  1.2063  0.1655 -1.7123
 6229SOL     OW20693   7.353  10.636   3.512  0.0164 -0.2892 -0.4247
 6229SOL    HW120694   7.322  10.546   3.517 -1.8651  0.3388  0.0192
 6229SOL    HW220695   7.288  10.687   3.560  0.1669  1.5096 -1.9791
 6230SOL     OW20696   2.157   9.457   4.662  0.2071 -0.0378 -0.2721
 6230SOL    HW120697   2.061   9.452   4.671  0.2343 -0.0405  0.0454
 6230SOL    HW220698   2.172   9.471   4.569 -0.1703  1.5266 -0.1304
 6231SOL     OW20699   0.428   5.460   8.418  0.2145  0.0535 -0.5156
 6231SOL    HW120700   0.448   5.514   8.495 -1.1700 -1.0907  0.7116
 6231SOL    HW220701   0.512   5.423   8.393  0.6359  0.0842  0.7575
 6232SOL     OW20702   6.574   9.460   7.912  0.0212  0.0768 -0.1126
 6232SOL    HW120703   6.537   9.373   7.899  2.9837 -0.9793 -2.6204
 6232SOL    HW220704   6.613   9.456   8.000 -0.1896 -1.0170 -0.0484
 6233SOL     OW20705   2.739  10.739   4.280 -0.5520 -0.5457  0.7048
 6233SOL    HW120706   2.782  10.692   4.352  2.2734  3.5334  2.0758
 6233SOL    HW220707   2.690  10.809   4.323  0.5584  1.5431 -1.1913
 6234SOL     OW20708   5.226   9.926   0.400 -0.0085  0.1877 -0.2183
 6234SOL    HW120709   5.152   9.961   0.351 -1.1491 -0.3867  1.0240
 6234SOL    HW220710   5.303   9.968   0.362 -1.1134  2.1911 -0.3323
 6235SOL     OW20711  10.583  10.595  11.038 -0.6508  0.9661 -0.6190
 6235SOL    HW120712  10.542  10.582  11.124 -0.0601  0.8687 -0.3473
 6235SOL    HW220713  10.663  10.645  11.057  0.1436 -0.1510 -0.9654
 6236SOL     OW20714   6.528   2.499   9.878  0.5664 -0.5178  0.1835
 6236SOL    HW120715   6.523   2.430   9.812  0.0674 -2.0473  1.7392
 6236SOL    HW220716   6.482   2.463   9.954  1.9157  0.7970  1.7003
 6237SOL     OW20717   0.040   8.021   9.386  0.8726 -0.3975  0.3388
 6237SOL    HW120718   0.092   7.947   9.355  0.2133 -0.4903 -0.5661
 6237SOL    HW220719  -0.050   7.989   9.387  0.5248  0.4934 -0.4318
 6238SOL     OW20720   3.887   6.495   7.813 -0.6085  0.2951 -0.0315
 6238SOL    HW120721   3.964   6.533   7.855 -1.0235  0.7971  0.2762
 6238SOL    HW220722   3.910   6.492   7.720  0.6941 -1.7060  0.2981
 6239SOL     OW20723   1.636   6.231   1.407  0.9817 -0.0976  0.2306
 6239SOL    HW120724   1.662   6.319   1.433 -1.0745  1.2329 -1.7967
 6239SOL    HW220725   1.545   6.223   1.436  1.2558 -1.7583  0.7548
 6240SOL     OW20726  10.510   7.108   6.425 -0.2603 -0.0698 -0.2846
 6240SOL    HW120727  10.513   7.017   6.394 -2.0595 -0.2966  0.0726
 6240SOL    HW220728  10.476   7.157   6.350  0.2800  0.2506 -0.3256
 6241SOL     OW20729   6.231   2.534   3.465 -0.2221  0.3253  0.6522
 6241SOL    HW120730   6.204   2.448   3.432  1.4263 -1.0263  2.5408
 6241SOL    HW220731   6.241   2.588   3.386 -0.8218 -1.3667 -0.6432
 6242SOL     OW20732  10.800   1.495   0.991  0.1813 -0.1497  0.1660
 6242SOL    HW120733  10.727   1.511   0.931  1.0677  1.6536 -0.5261
 6242SOL    HW220734  10.875   1.481   0.933  0.5808 -0.9077  0.8635
 6243SOL     OW20735   6.668  10.856   4.995 -0.0701  0.0800 -0.2149
 6243SOL    HW120736   6.642  10.782   5.049  0.4929 -0.3058 -0.4686
 6243SOL    HW220737   6.721  10.818   4.925  1.8385  0.9029  0.7049
 6244SOL     OW20738   9.416   0.643  10.848 -0.7739 -0.4115 -0.0001
 6244SOL    HW120739   9.356   0.664  10.920 -2.5632  0.9628 -1.7501
 6244SOL    HW220740   9.372   0.572  10.801 -0.9080  0.4229 -1.1558
 6245SOL     OW20741   4.831   8.189   1.231  0.2457  0.1116  0.0300
 6245SOL    HW120742   4.918   8.180   1.192 -0.3725 -3.3500 -0.8998
 6245SOL    HW220743   4.837   8.140   1.314 -0.9759 -0.9522 -0.4664
 6246SOL     OW20744   6.876   4.376   9.655 -0.4672 -0.3483  0.7883
 6246SOL    HW120745   6.969   4.379   9.632 -0.9108 -0.1684 -1.1906
 6246SOL    HW220746   6.875   4.386   9.750  1.4679  1.0532  0.7423
 6247SOL     OW20747   2.921  10.918   5.881 -0.1935 -0.5778 -0.2524
 6247SOL    HW120748   2.998  10.886   5.928 -0.1164 -0.3426 -0.2178
 6247SOL    HW220749   2.900  11.001   5.923 -0.2185 -0.4410 -0.5294
 6248SOL     OW20750   3.810   4.170   4.144  0.1552  0.4329 -0.3499
 6248SOL    HW120751   3.745   4.209   4.202  1.6492  1.1946  0.8902
 6248SOL    HW220752   3.861   4.245   4.112  1.3662 -0.2628 -0.0948
 6249SOL     OW20753   5.485   6.524   1.356  0.6467 -0.3121  0.2863
 6249SOL    HW120754   5.413   6.583   1.333  1.0013 -0.1258 -0.3701
 6249SOL    HW220755   5.469   6.501   1.447  0.5486  0.8838  0.5890
 6250SOL     OW20756   0.581   4.040   0.261 -0.9604  0.8733 -0.1643
 6250SOL    HW120757   0.500   4.037   0.312 -1.6681  1.1346 -1.2340
 6250SOL    HW220758   0.592   3.950   0.228  0.2537  0.3469  1.5399
 6251SOL     OW20759   9.961   7.994   8.055 -0.3736  0.0630  0.3349
 6251SOL    HW120760  10.033   7.933   8.068 -0.4289 -0.0843 -0.0445
 6251SOL    HW220761   9.901   7.978   8.128 -1.8333 -2.3724 -1.2669
 6252SOL     OW20762   1.090  10.566   1.275  0.2289 -0.7996  0.2626
 6252SOL    HW120763   1.053  10.610   1.351  2.0887 -0.0470  0.7861
 6252SOL    HW220764   1.162  10.512   1.310  0.9642 -0.6244 -0.9089
 6253SOL     OW20765   2.888   7.344   1.309  0.1770  0.1463 -0.5083
 6253SOL    HW120766   2.969   7.293   1.308  1.4896  2.1583 -0.1854
 6253SOL    HW220767   2.833   7.301   1.243  1.8608 -0.6883 -1.4346
 6254SOL     OW20768  10.541   1.770  10.789 -0.4348 -0.0514  0.5412
 6254SOL    HW120769  10.558   1.830  10.861  1.2758  0.4860 -0.2598
 6254SOL    HW220770  10.571   1.685  10.820 -1.5240 -0.2357  1.1481
 6255SOL     OW20771   4.872   4.623   7.482 -0.1657 -0.3817 -0.3285
 6255SOL    HW120772   4.944   4.563   7.496 -0.8449 -0.8313  1.5094
 6255SOL    HW220773   4.842   4.604   7.393  1.1304 -1.0804 -0.6421
 6256SOL     OW20774   8.591   4.163   3.784 -0.0818  0.0454  0.1742
 6256SOL    HW120775   8.546   4.109   3.719 -0.5162 -0.7006  1.0797
 6256SOL    HW220776   8.582   4.115   3.866  2.5805 -0.2809  0.3751
 6257SOL     OW20777   9.143   8.212   4.906 -0.1006 -0.2585 -0.3633
 6257SOL    HW120778   9.076   8.164   4.956  0.2016 -1.8069 -1.3764
 6257SOL    HW220779   9.160   8.290   4.958 -1.4068 -0.7105  0.8153
 6258SOL     OW20780   0.460   9.346   5.664  1.0068 -0.1008 -0.0796
 6258SOL    HW120781   0.416   9.311   5.742  1.9438  0.1729  0.5931
 6258SOL    HW220782   0.440   9.439   5.664 -0.9851 -0.4510 -1.5386
 6259SOL     OW20783   8.530   0.055   5.264 -0.2113 -0.3932 -0.2906
 6259SOL    HW120784   8.587   0.124   5.230 -3.6439  3.1036  0.3213
 6259SOL    HW220785   8.557   0.044   5.356  3.1137 -3.2401 -1.3959
 6260SOL     OW20786   5.003   6.167   9.270 -0.3313  0.1694  0.1105
 6260SOL    HW120787   4.925   6.223   9.271  0.3434  1.1229  1.2027
 6260SOL    HW220788   4.978   6.092   9.215 -2.4245 -0.1378  1.3851
 6261SOL     OW20789   1.236   0.641   8.613 -0.8039  0.1717 -0.2888
 6261SOL    HW120790   1.182   0.671   8.540 -1.2929 -2.4924 -1.1176
 6261SOL    HW220791   1.300   0.583   8.572  0.0251 -0.0039  1.2113
 6262SOL     OW20792   0.459   2.010  10.039 -0.0994 -0.5811  0.3307
 6262SOL    HW120793   0.498   2.046  10.119 -0.8920 -0.4419  0.6590
 6262SOL    HW220794   0.432   1.922  10.063 -1.1844 -0.2093  0.4840
 6263SOL     OW20795   0.066   6.566   7.223  0.2889  0.6030  0.0893
 6263SOL    HW120796   0.072   6.581   7.317  0.4115  0.7895  0.0544
 6263SOL    HW220797   0.142   6.611   7.187 -0.7064  2.0975 -0.2655
 6264SOL     OW20798   2.827   4.332   0.073  0.4291  0.0481  0.2754
 6264SOL    HW120799   2.889   4.372   0.134  2.0923 -2.6942  0.5605
 6264SOL    HW220800   2.785   4.406   0.029  1.8534  2.0613  2.1003
 6265SOL     OW20801   5.916   6.134   3.103 -0.8252 -0.0857  0.5038
 6265SOL    HW120802   5.955   6.218   3.125  0.7438  0.1511 -2.6214
 6265SOL    HW220803   5.827   6.156   3.073 -1.3497  0.0864  2.0992
 6266SOL     OW20804   5.249   2.736   4.756  0.1645 -0.0931  0.3661
 6266SOL    HW120805   5.333   2.713   4.794 -0.9793 -0.2692  3.0259
 6266SOL    HW220806   5.264   2.821   4.714  1.8647 -0.6154 -0.1649
 6267SOL     OW20807   5.702   4.659  10.993  0.4132  0.1856  0.4282
 6267SOL    HW120808   5.609   4.642  11.008  0.2974 -0.2920 -0.7283
 6267SOL    HW220809   5.723   4.733  11.049 -0.8014  0.6264  0.3097
 6268SOL     OW20810   7.917   9.927   4.077 -0.0974 -0.1109 -0.3821
 6268SOL    HW120811   7.933   9.851   4.133  2.3088  0.4405 -0.2209
 6268SOL    HW220812   7.954   9.902   3.993  0.0625  0.6119 -0.5263
 6269SOL     OW20813   8.950   0.944   8.596  0.4787  0.6345  0.1174
 6269SOL    HW120814   8.960   0.954   8.501 -1.5346 -0.4848 -0.2698
 6269SOL    HW220815   8.910   1.026   8.625  1.6632  1.2270  0.1254
 6270SOL     OW20816   8.238  10.404   4.505 -0.4796  0.4094  0.2712
 6270SOL    HW120817   8.190  10.407   4.422 -0.0129  1.7415  0.0139
 6270SOL    HW220818   8.329  10.389   4.479 -0.5167 -0.4964  0.6436
 6271SOL     OW20819  10.467   4.020   2.271 -0.2772  0.7596 -0.3218
 6271SOL    HW120820  10.399   3.966   2.231 -0.9586  0.7726  0.7785
 6271SOL    HW220821  10.422   4.068   2.340  0.8810  0.6477  0.5487
 6272SOL     OW20822   1.647   7.001   8.484  0.2539 -0.3495  0.1162
 6272SOL    HW120823   1.713   6.931   8.485 -0.7687 -1.3282  0.1919
 6272SOL    HW220824   1.612   6.999   8.395  1.4657  1.2923 -0.4487
 6273SOL     OW20825   3.769   7.342   6.312  0.7049 -0.4876 -0.9110
 6273SOL    HW120826   3.814   7.424   6.332 -1.4244  0.7095 -0.7466
 6273SOL    HW220827   3.707   7.365   6.242  1.5367 -2.4768 -2.4039
 6274SOL     OW20828   7.900   0.403   8.312 -0.4878  0.1829  0.0519
 6274SOL    HW120829   7.905   0.483   8.260  0.1390  0.0943 -0.0318
 6274SOL    HW220830   7.827   0.418   8.372 -1.6350  0.0313 -1.2552
 6275SOL     OW20831   5.984   4.585   3.654 -0.3978  0.1691  0.3443
 6275SOL    HW120832   5.947   4.545   3.575  0.1782 -0.9408  0.6166
 6275SOL    HW220833   6.059   4.530   3.676 -1.6156 -0.7175  2.7378
 6276SOL     OW20834   1.274  11.081   1.651 -0.3369  0.1478 -0.1707
 6276SOL    HW120835   1.294  11.058   1.561  0.9378 -0.6994  0.3042
 6276SOL    HW220836   1.354  11.061   1.700 -1.1582  0.1078  1.2293
 6277SOL     OW20837   0.550  10.030   2.772  0.5295  0.0158 -0.2315
 6277SOL    HW120838   0.575  10.097   2.708 -1.3025 -1.6587 -2.9355
 6277SOL    HW220839   0.626   9.972   2.777  0.3470 -0.4398 -1.8889
 6278SOL     OW20840   9.717   3.578   2.545 -0.0963 -0.2510  0.1946
 6278SOL    HW120841   9.633   3.609   2.576 -0.2039  0.1025 -0.4223
 6278SOL    HW220842   9.720   3.486   2.571  0.4752  0.3734  2.5568
 6279SOL     OW20843   9.588   7.228   7.620 -0.2222 -0.5388 -0.0894
 6279SOL    HW120844   9.595   7.136   7.595  0.7363 -0.4967 -0.0092
 6279SOL    HW220845   9.494   7.242   7.634 -0.3244 -1.6509  0.4453
 6280SOL     OW20846   6.762   0.429   0.810  0.3293 -0.5046  0.2222
 6280SOL    HW120847   6.719   0.346   0.829  0.6935 -0.5037  1.0667
 6280SOL    HW220848   6.830   0.408   0.746  0.1276 -0.7745  0.0967
 6281SOL     OW20849   1.813   7.715   6.610  0.2976  0.5423 -0.8615
 6281SOL    HW120850   1.856   7.771   6.545  2.9831  0.8930  1.0497
 6281SOL    HW220851   1.857   7.631   6.602  0.9852  0.7164  0.6957
 6282SOL     OW20852  10.485   0.492   9.643 -0.1067 -0.5603 -0.4042
 6282SOL    HW120853  10.418   0.464   9.581  0.5511 -0.8235 -1.0113
 6282SOL    HW220854  10.548   0.420   9.645 -1.5374 -1.9532  2.8135
 6283SOL     OW20855   5.500   0.812   4.943 -0.0582 -0.6169 -0.4158
 6283SOL    HW120856   5.463   0.811   5.031 -3.1913  1.6282 -1.4864
 6283SOL    HW220857   5.570   0.877   4.946 -0.0954 -0.6168  0.4407
 6284SOL     OW20858   1.400   1.383  10.020 -0.1017  0.5336 -0.0511
 6284SOL    HW120859   1.463   1.451  10.044  0.4656 -0.3303  0.9587
 6284SOL    HW220860   1.440   1.301  10.048 -1.7805 -0.0282  0.8392
 6285SOL     OW20861  10.925   2.168   1.359 -0.1622  0.1039 -0.0923
 6285SOL    HW120862  10.909   2.262   1.360  0.7008  0.3084  2.7384
 6285SOL    HW220863  11.005   2.158   1.307  0.4304  1.0971  0.6055
 6286SOL     OW20864  10.483   6.058   3.714 -0.1755 -1.0544 -0.0287
 6286SOL    HW120865  10.471   6.129   3.652 -0.4450 -1.5053 -0.5020
 6286SOL    HW220866  10.572   6.027   3.698  0.6415  0.3776  1.4656
 6287SOL     OW20867   4.990   7.117   6.125 -0.0499 -0.2746  0.6284
 6287SOL    HW120868   5.005   7.158   6.040 -1.1701  1.6590  1.3038
 6287SOL    HW220869   5.053   7.158   6.184  0.0492 -0.8693  0.9504
 6288SOL     OW20870  11.081   5.352   7.917  0.0239  0.1680 -0.2002
 6288SOL    HW120871  11.071   5.323   7.826  0.4331  0.8342 -0.4673
 6288SOL    HW220872  11.041   5.283   7.969  2.0056 -1.4531 -0.7325
 6289SOL     OW20873   7.926   7.771   4.055 -0.1815 -0.5937 -0.1425
 6289SOL    HW120874   7.931   7.754   3.960 -2.0198 -0.6214 -0.2660
 6289SOL    HW220875   7.987   7.844   4.069 -1.3837  0.8100 -1.7272
 6290SOL     OW20876   0.282   7.754   2.291 -0.1315 -0.5055  0.2875
 6290SOL    HW120877   0.294   7.816   2.363  0.1903 -0.1057 -0.1053
 6290SOL    HW220878   0.348   7.779   2.226 -0.6762 -0.6164 -0.3158
 6291SOL     OW20879   9.364  10.204   7.482  0.3514  0.7288 -0.8774
 6291SOL    HW120880   9.376  10.109   7.470  2.0942  0.7318  0.4563
 6291SOL    HW220881   9.273  10.219   7.459  0.1900 -1.1762 -1.7217
 6292SOL     OW20882   1.773   1.937  11.012 -0.3308 -0.3766 -0.6816
 6292SOL    HW120883   1.780   1.861  11.069 -2.3186  0.3242  0.6151
 6292SOL    HW220884   1.862   1.971  11.005  0.2656 -1.6771  0.3170
 6293SOL     OW20885   9.072   8.346   3.649 -0.5554  0.0629  0.5068
 6293SOL    HW120886   9.053   8.382   3.735  1.9316  4.1902 -0.3753
 6293SOL    HW220887   9.002   8.379   3.593 -1.0689 -0.9084  0.5606
 6294SOL     OW20888   2.822   3.925   5.333  0.0274  0.2242 -0.5139
 6294SOL    HW120889   2.856   4.014   5.322  0.8247 -0.1727 -1.5122
 6294SOL    HW220890   2.884   3.870   5.284  1.7789 -1.3804  3.1434
 6295SOL     OW20891   4.624   8.413  10.505 -0.0526  0.0542  0.0378
 6295SOL    HW120892   4.580   8.498  10.504 -0.3229 -0.0552  1.2677
 6295SOL    HW220893   4.570   8.358  10.562  2.2541  0.2554  2.6310
 6296SOL     OW20894   9.528   3.232   0.812  0.3314 -0.1780 -0.3450
 6296SOL    HW120895   9.538   3.136   0.810 -1.5655 -0.4293  0.4091
 6296SOL    HW220896   9.478   3.252   0.733  0.9247  0.2320 -0.6219
 6297SOL     OW20897   7.598  10.816   2.996 -0.7868  0.5195  0.0728
 6297SOL    HW120898   7.693  10.829   2.993 -0.4324 -1.3305 -3.7038
 6297SOL    HW220899   7.587  10.730   3.036 -0.5687 -0.3576 -1.6495
 6298SOL     OW20900  10.722   1.105   4.973 -0.3368 -0.2886  0.4386
 6298SOL    HW120901  10.720   1.159   5.051 -1.5834 -0.4620  0.5507
 6298SOL    HW220902  10.737   1.167   4.901 -1.2612  0.1591  0.6151
 6299SOL     OW20903   2.481   1.240   9.360 -0.2596  0.0943 -0.0642
 6299SOL    HW120904   2.472   1.249   9.266  3.3178  2.5247 -0.3543
 6299SOL    HW220905   2.407   1.290   9.396 -3.5875 -3.4434 -1.2652
 6300SOL     OW20906   9.962   8.322   0.905 -0.0404  0.0299  0.2732
 6300SOL    HW120907   9.924   8.360   0.825 -0.3961 -0.7756  0.0485
 6300SOL    HW220908   9.918   8.238   0.914  0.1180  0.0444  1.2416
 6301SOL     OW20909   0.836   8.245   6.644  0.0383 -0.0235 -0.2156
 6301SOL    HW120910   0.878   8.246   6.730  0.3285  3.0250 -0.3006
 6301SOL    HW220911   0.907   8.268   6.583 -0.0826 -2.4395 -1.3937
 6302SOL     OW20912   0.823   2.666   3.485  0.1257 -0.1570 -0.8770
 6302SOL    HW120913   0.817   2.615   3.405  1.1696 -1.4937 -0.1477
 6302SOL    HW220914   0.917   2.670   3.504 -0.1143 -0.0817  0.3999
 6303SOL     OW20915   5.400   6.082   5.200 -0.3511 -0.7185  0.6241
 6303SOL    HW120916   5.444   6.142   5.139 -2.2036  0.0821 -0.0037
 6303SOL    HW220917   5.348   6.139   5.256 -1.6134 -1.6765  0.4702
 6304SOL     OW20918   4.687   9.622   7.803  0.2343 -0.5387  0.3249
 6304SOL    HW120919   4.777   9.591   7.816  0.1480 -1.3807 -0.8571
 6304SOL    HW220920   4.693   9.677   7.725 -0.2268 -0.3853  0.4007
 6305SOL     OW20921   2.872   7.776  11.085  0.2878  0.7102 -0.5053
 6305SOL    HW120922   2.799   7.776  11.022 -0.2066  2.1296  0.0259
 6305SOL    HW220923   2.854   7.701  11.142  0.6105 -0.4520 -1.8673
 6306SOL     OW20924   4.067   8.279   3.417 -0.3284  0.2622  0.4187
 6306SOL    HW120925   4.048   8.244   3.330 -1.7044  0.0751  0.7710
 6306SOL    HW220926   3.990   8.256   3.469  1.9318 -3.0303  2.7324
 6307SOL     OW20927   4.433  10.910   8.711  0.1642  0.0186 -0.7255
 6307SOL    HW120928   4.431  10.843   8.779 -0.1320  0.9384  0.1949
 6307SOL    HW220929   4.523  10.909   8.679  0.5603  0.1779  0.3251
 6308SOL     OW20930   2.863  10.784  10.001  0.1862  0.0092  0.5595
 6308SOL    HW120931   2.790  10.840  10.025 -0.7852 -0.1474 -1.7502
 6308SOL    HW220932   2.838  10.748   9.916  2.2648 -1.2961  0.4413
 6309SOL     OW20933   9.327   8.748   9.989 -0.2972 -0.3508 -0.7835
 6309SOL    HW120934   9.384   8.701  10.050  0.1589 -0.4499 -1.2851
 6309SOL    HW220935   9.249   8.692   9.983  0.8605 -1.8722 -2.5546
 6310SOL     OW20936   2.776  10.155  10.432 -0.1026  0.6769 -0.3732
 6310SOL    HW120937   2.716  10.156  10.358 -0.5560 -1.7141 -0.1057
 6310SOL    HW220938   2.807  10.065  10.437  1.4854  1.2387  1.1373
 6311SOL     OW20939   7.297   5.076  10.348 -0.1076  0.1777  0.0279
 6311SOL    HW120940   7.205   5.102  10.334 -0.8030 -2.9639 -2.6349
 6311SOL    HW220941   7.345   5.122  10.279 -0.4069 -1.0679 -1.0595
 6312SOL     OW20942   2.967  10.564   6.486 -0.3018 -0.0357 -0.6032
 6312SOL    HW120943   2.887  10.530   6.524 -0.6940 -0.7341 -1.9762
 6312SOL    HW220944   3.009  10.488   6.445  1.0086  0.3338 -0.0210
 6313SOL     OW20945   2.569   6.597   9.030  0.0748  0.0814  0.0390
 6313SOL    HW120946   2.608   6.683   9.012  1.6119 -0.0655  2.2651
 6313SOL    HW220947   2.565   6.554   8.944 -0.1504  2.1251 -1.0248
 6314SOL     OW20948   5.673   3.798   2.744 -0.2721  0.2467  0.0145
 6314SOL    HW120949   5.768   3.792   2.739 -0.1814 -0.3852  1.9261
 6314SOL    HW220950   5.656   3.865   2.810 -1.2130  1.7726 -1.6746
 6315SOL     OW20951  10.029   7.499   1.394 -0.1198 -0.5842 -0.0809
 6315SOL    HW120952  10.059   7.577   1.346  0.7073 -0.7057  0.2230
 6315SOL    HW220953   9.949   7.528   1.439 -0.3251 -0.1755 -0.6977
 6316SOL     OW20954   5.479   6.925   1.403  0.2721  0.1660 -0.5346
 6316SOL    HW120955   5.476   6.956   1.494 -1.2252 -1.2891 -0.0335
 6316SOL    HW220956   5.446   6.999   1.352 -0.2601  0.5117  0.2785
 6317SOL     OW20957   9.404   1.376   8.723 -0.5676 -0.1664 -0.7735
 6317SOL    HW120958   9.470   1.384   8.654  1.8562  1.2424  1.5630
 6317SOL    HW220959   9.334   1.435   8.695  0.8430  1.2245 -1.5393
 6318SOL     OW20960   9.120   4.520   9.943  1.0740 -0.1476  0.4344
 6318SOL    HW120961   9.167   4.603   9.930  1.6801 -0.4355  0.7294
 6318SOL    HW220962   9.156   4.463   9.875  1.3630 -0.4555  0.8406
 6319SOL     OW20963   4.547   3.859   2.021 -0.3003 -0.6044 -0.2081
 6319SOL    HW120964   4.554   3.877   1.927 -0.5004 -1.3953 -0.3870
 6319SOL    HW220965   4.454   3.839   2.035 -0.5273  0.7986  0.4133
 6320SOL     OW20966   0.519   9.052   7.968  0.0533 -0.3517  0.3619
 6320SOL    HW120967   0.439   9.050   8.020  0.7762  2.1780  1.7031
 6320SOL    HW220968   0.590   9.055   8.032  0.9962  2.1807 -0.6797
 6321SOL     OW20969   1.836   8.186   4.021  0.2911  0.6335  0.5808
 6321SOL    HW120970   1.873   8.099   4.004  0.3526  0.9563 -1.0565
 6321SOL    HW220971   1.908   8.234   4.063  0.4707  0.1006  0.8914
 6322SOL     OW20972   2.294   6.961   4.019 -1.0410  0.4582  0.2153
 6322SOL    HW120973   2.335   6.982   3.936  2.1448 -0.3124  1.4313
 6322SOL    HW220974   2.303   6.866   4.027 -0.7555  0.5797  1.6468
 6323SOL     OW20975   3.879   9.022  10.113  0.2708 -0.5171 -0.2589
 6323SOL    HW120976   3.923   8.942  10.140 -2.4348 -2.3235 -0.8084
 6323SOL    HW220977   3.879   9.077  10.191  0.6949 -1.7746  0.6624
 6324SOL     OW20978   0.471   1.111   4.041  0.1842 -0.8458  0.6090
 6324SOL    HW120979   0.383   1.079   4.019 -0.8716  1.2255  1.5627
 6324SOL    HW220980   0.520   1.104   3.958 -1.7938  0.8140 -0.7993
 6325SOL     OW20981   6.272   9.505   4.820 -0.0072  0.0463 -0.0806
 6325SOL    HW120982   6.319   9.586   4.797 -1.2179  1.1137  1.0354
 6325SOL    HW220983   6.302   9.485   4.909 -1.9149  1.0208  0.8515
 6326SOL     OW20984   2.911   9.628   6.684 -0.3556  0.4912  0.0417
 6326SOL    HW120985   2.912   9.627   6.780  1.1308  1.2896  0.0604
 6326SOL    HW220986   2.934   9.718   6.661 -1.0958  0.4151 -1.0742
 6327SOL     OW20987   2.818  10.864   9.364 -0.7408 -0.2642 -0.6168
 6327SOL    HW120988   2.826  10.932   9.297  3.2113 -0.0708 -0.2216
 6327SOL    HW220989   2.778  10.790   9.319 -0.7136  0.7610 -2.4170
 6328SOL     OW20990   4.256   8.902   1.510 -0.3070  0.0214 -0.5128
 6328SOL    HW120991   4.279   8.856   1.591  0.1608  0.4791 -0.3836
 6328SOL    HW220992   4.169   8.868   1.488  0.5533 -1.9077 -1.1462
 6329SOL     OW20993   6.068   5.281   1.093  0.4460 -0.0466  0.1406
 6329SOL    HW120994   6.048   5.189   1.108  0.7367 -0.0639  0.4253
 6329SOL    HW220995   6.075   5.319   1.181 -1.1130  0.5652  0.0387
 6330SOL     OW20996   4.993   4.192   2.285 -0.0875 -0.0442  0.2021
 6330SOL    HW120997   4.940   4.119   2.252  0.0263  0.1834 -0.5170
 6330SOL    HW220998   4.995   4.180   2.380 -0.8009 -0.4793  0.1708
 6331SOL     OW20999   4.530   3.558   0.335  0.1951 -0.0948  0.1117
 6331SOL    HW121000   4.598   3.534   0.272 -3.0891 -0.3587 -3.7241
 6331SOL    HW221001   4.530   3.654   0.335  0.5012 -0.0934  0.0904
 6332SOL     OW21002   2.268   2.618   8.185  0.0625  0.0435  0.0984
 6332SOL    HW121003   2.207   2.665   8.127 -0.4026 -0.5726  0.0761
 6332SOL    HW221004   2.220   2.610   8.267 -0.0682 -0.8385 -0.0548
 6333SOL     OW21005  10.826   0.204   3.079  0.0826 -1.1103  0.1884
 6333SOL    HW121006  10.909   0.176   3.041  0.6964 -0.3020  0.9006
 6333SOL    HW221007  10.837   0.298   3.094 -0.4695 -1.2390  1.5102
 6334SOL     OW21008   7.793   8.871  10.990 -0.4105  0.2917  0.3894
 6334SOL    HW121009   7.871   8.868  11.046  1.3027  1.1715 -1.8079
 6334SOL    HW221010   7.826   8.850  10.902 -3.0493 -1.4591 -0.3073
 6335SOL     OW21011   9.510  10.036   5.633 -0.4822 -0.4032 -1.0928
 6335SOL    HW121012   9.539  10.030   5.724  0.4129  0.1039 -1.3306
 6335SOL    HW221013   9.513   9.946   5.601  2.8921 -0.1902 -1.6878
 6336SOL     OW21014  10.860   6.612   7.391  0.0464  0.0142  0.7385
 6336SOL    HW121015  10.909   6.641   7.313  0.1455  0.6695  1.0372
 6336SOL    HW221016  10.781   6.571   7.356  0.8979 -1.2788  0.2350
 6337SOL     OW21017   8.312   8.767  10.098  0.5280  0.1813 -0.6038
 6337SOL    HW121018   8.317   8.703  10.169  0.7416  0.2570 -0.5503
 6337SOL    HW221019   8.351   8.847  10.134 -1.2469  0.8524 -0.1087
 6338SOL     OW21020   2.112   8.430   5.721 -0.4901 -0.0271 -0.1095
 6338SOL    HW121021   2.096   8.369   5.649  0.4623  1.9049 -2.0492
 6338SOL    HW221022   2.155   8.505   5.681 -1.4473  1.8953  2.1900
 6339SOL     OW21023   9.517   4.821   0.934  0.5261 -0.2231  0.0511
 6339SOL    HW121024   9.494   4.900   0.983  2.1353  1.1544 -1.2987
 6339SOL    HW221025   9.433   4.781   0.913 -0.3265  1.0695  0.8319
 6340SOL     OW21026   7.462   5.758   4.787  0.7630  0.0799 -1.1833
 6340SOL    HW121027   7.532   5.738   4.849  0.4728 -1.5181 -1.3105
 6340SOL    HW221028   7.495   5.832   4.737  0.6878  1.9605  1.3548
 6341SOL     OW21029   3.107   0.449   2.028 -0.8151  0.0127  0.1070
 6341SOL    HW121030   3.170   0.392   2.074 -0.6668  0.0553 -0.0424
 6341SOL    HW221031   3.105   0.529   2.080  2.9461  2.0368 -2.3949
 6342SOL     OW21032   7.127   9.007   8.692  0.1991 -0.6779  0.9368
 6342SOL    HW121033   7.050   8.992   8.637  1.6541  0.4862 -1.5984
 6342SOL    HW221034   7.134   9.102   8.698  1.8187 -0.7526  0.5326
 6343SOL     OW21035   2.883   3.052   1.609  0.2223  0.8136 -0.2580
 6343SOL    HW121036   2.866   3.092   1.695 -2.1707 -1.6150  0.5521
 6343SOL    HW221037   2.962   2.998   1.623  0.5814  1.4067  0.0379
 6344SOL     OW21038   0.776   1.308   5.385  0.4613  0.4502  0.3023
 6344SOL    HW121039   0.713   1.368   5.344  2.2335  0.2205 -3.0988
 6344SOL    HW221040   0.858   1.357   5.387  0.7798 -0.0443  2.5841
 6345SOL     OW21041   0.599   3.555   5.309  0.2054 -0.1785 -0.3907
 6345SOL    HW121042   0.627   3.633   5.261 -0.8514 -0.3013 -1.2551
 6345SOL    HW221043   0.589   3.585   5.400  0.7970  0.4277 -0.5189
 6346SOL     OW21044   3.601   1.264   5.582  0.3169  0.0485 -0.0433
 6346SOL    HW121045   3.635   1.334   5.638  1.7356 -2.3258  2.3523
 6346SOL    HW221046   3.527   1.228   5.631  0.1875 -0.7038 -0.7570
 6347SOL     OW21047   9.997  10.408   4.314  0.0596  0.1907  0.0009
 6347SOL    HW121048   9.953  10.481   4.357  0.6077  0.7843 -0.4311
 6347SOL    HW221049  10.064  10.449   4.259 -0.4965 -0.5573 -1.2823
 6348SOL     OW21050   7.429   6.180   7.807 -0.0280  0.3852 -0.3991
 6348SOL    HW121051   7.441   6.179   7.712 -2.6215  2.6413 -0.8712
 6348SOL    HW221052   7.465   6.264   7.835  6.0860 -2.3569  1.7497
 6349SOL     OW21053  10.160   4.316   2.960 -0.2529 -1.2192 -0.3470
 6349SOL    HW121054  10.081   4.364   2.983  0.7403 -0.0470  0.7330
 6349SOL    HW221055  10.140   4.225   2.982 -1.7117 -1.1425 -1.2401
 6350SOL     OW21056   0.638   1.673   4.887 -0.3189  0.0075  0.5436
 6350SOL    HW121057   0.658   1.582   4.867  0.4287  0.1931  0.4278
 6350SOL    HW221058   0.707   1.723   4.844 -1.0411  0.6712  0.1282
 6351SOL     OW21059   2.605   0.329  10.745  0.2907  0.0909  0.0564
 6351SOL    HW121060   2.604   0.365  10.656 -0.2555  0.9779  0.4071
 6351SOL    HW221061   2.522   0.283  10.753 -0.6868  1.9077  0.8342
 6352SOL     OW21062   6.656   8.981   1.062 -0.0874  0.0924 -0.2834
 6352SOL    HW121063   6.619   8.921   1.127  1.5853 -0.4393  0.2302
 6352SOL    HW221064   6.748   8.955   1.056 -0.1343  0.2989 -2.6962
 6353SOL     OW21065   9.280   4.420  11.007  0.5411 -0.0951  0.1012
 6353SOL    HW121066   9.228   4.482  11.059  1.4891 -0.1454  1.1537
 6353SOL    HW221067   9.311   4.356  11.071 -1.1051 -2.1966 -1.0921
 6354SOL     OW21068   3.821   4.760   8.346 -0.6125 -0.1228 -0.4675
 6354SOL    HW121069   3.785   4.776   8.433  0.7715  0.5351  0.0176
 6354SOL    HW221070   3.869   4.678   8.355  2.4849  1.6240  0.4445
 6355SOL     OW21071   6.337   9.254   8.150 -0.3861  0.1307 -0.1105
 6355SOL    HW121072   6.329   9.162   8.124  0.1142 -0.0442  0.3421
 6355SOL    HW221073   6.414   9.256   8.208 -1.3378  0.5521  1.1773
 6356SOL     OW21074  10.865   1.204   3.076 -0.2967 -0.3590 -0.2969
 6356SOL    HW121075  10.775   1.235   3.073 -0.3763 -0.3442  1.2564
 6356SOL    HW221076  10.872   1.159   3.160  2.5828  4.4085  2.5140
 6357SOL     OW21077  10.850   3.091   4.477  0.7688 -0.2261 -0.0118
 6357SOL    HW121078  10.754   3.087   4.475  0.7931 -3.0040 -0.3373
 6357SOL    HW221079  10.873   3.067   4.567  1.1726  0.6996  0.1399
 6358SOL     OW21080   1.793   4.104   5.533  0.3128  0.5479  0.5828
 6358SOL    HW121081   1.703   4.095   5.500  1.3323  0.9497 -2.6963
 6358SOL    HW221082   1.805   4.198   5.543  0.5536  0.5425  0.3556
 6359SOL     OW21083   5.391   7.751   3.773 -0.4076 -0.0728  0.3462
 6359SOL    HW121084   5.421   7.784   3.688  0.7704  0.0854  0.8076
 6359SOL    HW221085   5.307   7.794   3.787 -0.1675  0.6296 -0.3050
 6360SOL     OW21086   6.807   4.038   1.771 -0.2357 -0.0541 -0.1249
 6360SOL    HW121087   6.890   4.004   1.736 -0.4285 -2.2164  1.3231
 6360SOL    HW221088   6.743   4.020   1.703  0.3150  1.0315 -0.9772
 6361SOL     OW21089  10.067   2.411   3.803 -0.3026  0.6443 -0.2762
 6361SOL    HW121090   9.998   2.477   3.808 -0.3247  0.7635 -1.7285
 6361SOL    HW221091  10.145   2.456   3.837 -0.7837  0.6799  0.8545
 6362SOL     OW21092   9.305   8.974  10.135  0.4272  0.5132 -0.2766
 6362SOL    HW121093   9.361   9.046  10.105  1.9857 -0.5336 -0.0058
 6362SOL    HW221094   9.315   8.906  10.068  1.5987 -0.7002  1.0671
 6363SOL     OW21095   8.105   8.785   9.372 -0.1855 -0.2416 -0.6128
 6363SOL    HW121096   8.117   8.845   9.299 -1.4086 -1.1170 -1.5772
 6363SOL    HW221097   8.053   8.833   9.436 -1.6987 -0.4333 -1.6491
 6364SOL     OW21098  10.094  10.746   6.413  0.2051 -0.0654  0.2868
 6364SOL    HW121099  10.089  10.745   6.509  0.6480 -0.2889  0.3092
 6364SOL    HW221100  10.006  10.771   6.385  0.3230  0.9921  0.7787
 6365SOL     OW21101  10.973   1.220   9.728 -0.3291 -0.2122 -0.3404
 6365SOL    HW121102  11.047   1.182   9.681 -0.8033 -1.6693  0.0342
 6365SOL    HW221103  10.952   1.300   9.680  0.9847 -0.1941 -0.9098
 6366SOL     OW21104   7.998   1.155   0.750  0.3787 -0.4676 -0.3997
 6366SOL    HW121105   8.042   1.202   0.680 -0.8315  1.2170 -0.0841
 6366SOL    HW221106   7.917   1.203   0.765 -0.5361 -2.1776  0.5432
 6367SOL     OW21107   8.565  10.990   8.689  0.0301 -0.5286  0.5602
 6367SOL    HW121108   8.588  10.953   8.603  2.1149  0.0940  0.7831
 6367SOL    HW221109   8.471  11.004   8.685  0.0254 -0.8317 -1.5059
 6368SOL     OW21110   5.777   2.576   0.708 -0.0954 -0.0989  0.7425
 6368SOL    HW121111   5.689   2.541   0.704 -0.8220  1.6947 -2.5043
 6368SOL    HW221112   5.768   2.659   0.755 -0.4407  0.6663 -0.6225
 6369SOL     OW21113   3.448   0.618   7.912 -0.0344  0.0218  0.4245
 6369SOL    HW121114   3.512   0.688   7.924  0.6478 -0.5417  0.1575
 6369SOL    HW221115   3.499   0.543   7.883 -0.9406 -0.1928 -0.7023
 6370SOL     OW21116   4.555   6.310   9.348  0.0077  0.0248  0.0353
 6370SOL    HW121117   4.605   6.301   9.429  0.8060 -1.9408 -0.6202
 6370SOL    HW221118   4.619   6.343   9.284 -0.8398  2.5008  0.3554
 6371SOL     OW21119   4.547  10.474   8.980 -0.1542  0.3982  0.1074
 6371SOL    HW121120   4.599  10.512   8.909 -2.2596  0.4534 -1.5118
 6371SOL    HW221121   4.577  10.383   8.986  0.0224  0.3786 -0.9134
 6372SOL     OW21122   2.080   9.116   2.915 -0.7222  0.2751  0.2161
 6372SOL    HW121123   2.094   9.198   2.869  0.7320 -0.1314 -0.1206
 6372SOL    HW221124   2.042   9.142   2.999  1.1306  1.4550  0.7557
 6373SOL     OW21125   8.299   0.990   1.470  0.2440  0.5053 -0.5570
 6373SOL    HW121126   8.316   0.998   1.376  1.1024  1.7788 -0.3194
 6373SOL    HW221127   8.382   0.957   1.506  0.4546  1.5308 -0.0664
 6374SOL     OW21128   4.997  10.699   6.862  0.0553  0.0219  0.4934
 6374SOL    HW121129   4.937  10.764   6.900 -0.9686 -0.4446 -0.2546
 6374SOL    HW221130   4.995  10.717   6.768  1.1598  0.0335  0.4614
 6375SOL     OW21131   7.597   1.175   0.162  0.8598  0.2207 -0.0458
 6375SOL    HW121132   7.607   1.084   0.135 -0.0262 -0.2251  1.0591
 6375SOL    HW221133   7.684   1.200   0.193  0.6619 -0.9245  1.5673
 6376SOL     OW21134   7.351  10.652   4.059 -0.4417  0.4534  0.1469
 6376SOL    HW121135   7.418  10.711   4.094 -1.2517  2.1326 -1.0341
 6376SOL    HW221136   7.380  10.632   3.970  0.6700 -2.3366  1.0232
 6377SOL     OW21137   5.258   8.600   6.415 -0.0167  0.0087 -0.1545
 6377SOL    HW121138   5.165   8.624   6.408 -1.2504 -1.9079  4.9102
 6377SOL    HW221139   5.257   8.505   6.427  2.5205  0.0014  0.6156
 6378SOL     OW21140  10.763   1.935   7.622  0.1895  0.3545  0.8689
 6378SOL    HW121141  10.785   1.998   7.554 -2.8932  0.8900  0.2220
 6378SOL    HW221142  10.755   1.987   7.702  0.9902  0.2008  1.0534
 6379SOL     OW21143   0.738   1.702   3.846 -0.4770 -0.5308 -0.0958
 6379SOL    HW121144   0.692   1.652   3.779 -0.1773  0.8786 -1.4184
 6379SOL    HW221145   0.816   1.735   3.802 -0.4901  0.7950  0.8106
 6380SOL     OW21146   0.567   9.340   3.919  0.1056 -0.4114 -0.4121
 6380SOL    HW121147   0.499   9.333   3.986  2.0027  1.4305  1.8921
 6380SOL    HW221148   0.649   9.325   3.966  1.4870 -0.1004 -2.5694
 6381SOL     OW21149   5.048   9.648   2.852 -0.1118 -0.3216  0.3344
 6381SOL    HW121150   5.016   9.657   2.762 -0.1533 -0.1859  0.3625
 6381SOL    HW221151   5.139   9.622   2.842 -0.1531 -0.4354  0.2530
 6382SOL     OW21152   8.054   7.422   1.388  0.2614 -0.0357  0.9403
 6382SOL    HW121153   8.098   7.506   1.380  1.2029 -0.3884  2.0363
 6382SOL    HW221154   8.052   7.405   1.483  1.0740 -1.7198  0.7020
 6383SOL     OW21155   6.547   3.611   3.584 -0.1634  0.7384 -0.9545
 6383SOL    HW121156   6.510   3.537   3.536  0.8657 -0.6608  0.3166
 6383SOL    HW221157   6.478   3.677   3.585 -0.8219  0.1307 -2.7979
 6384SOL     OW21158   8.879   9.975   9.087 -0.3815 -0.0311 -0.5880
 6384SOL    HW121159   8.837   9.897   9.124 -1.5742  1.8530  2.4851
 6384SOL    HW221160   8.969   9.970   9.119 -1.0500  0.8867  1.6247
 6385SOL     OW21161   6.084   0.066   4.196  1.0937 -0.6610  0.5189
 6385SOL    HW121162   6.014   0.130   4.204  2.0414  0.4224  0.4279
 6385SOL    HW221163   6.164   0.117   4.209  1.8676 -1.8524  0.5453
 6386SOL     OW21164   2.561   0.561   2.693 -0.2428  0.2884  0.3987
 6386SOL    HW121165   2.494   0.597   2.751 -1.9683 -0.5064 -1.0207
 6386SOL    HW221166   2.525   0.478   2.663  1.2403  0.0012 -0.6824
 6387SOL     OW21167   9.365   5.564  10.967  0.2969  0.7849 -0.0470
 6387SOL    HW121168   9.305   5.494  10.941 -2.1971  3.3033 -1.6544
 6387SOL    HW221169   9.432   5.564  10.899 -0.6904  0.9974 -1.0720
 6388SOL     OW21170   7.161   9.135   0.014 -0.1765 -0.3473 -0.5505
 6388SOL    HW121171   7.113   9.088  -0.054 -1.7064 -1.2848  1.0997
 6388SOL    HW221172   7.134   9.093   0.096  1.3308  0.9657  0.6812
 6389SOL     OW21173   6.195   2.312   5.780 -0.6822  0.6973 -0.4873
 6389SOL    HW121174   6.231   2.290   5.866 -1.8383  1.1179  0.1216
 6389SOL    HW221175   6.234   2.397   5.759 -0.0620  0.3960 -0.5934
 6390SOL     OW21176   5.253   6.456   0.244  0.1443  0.5461 -0.3292
 6390SOL    HW121177   5.217   6.544   0.241 -0.4877  0.3037 -0.0978
 6390SOL    HW221178   5.267   6.439   0.337 -1.5498 -0.2898 -0.1741
 6391SOL     OW21179   2.457   1.185   8.826 -0.2769  0.5275 -0.4162
 6391SOL    HW121180   2.448   1.093   8.804 -0.6332 -0.0053  1.7245
 6391SOL    HW221181   2.373   1.224   8.802 -1.4101 -0.4469  1.6939
 6392SOL     OW21182   0.691   5.006   5.762 -0.0067  0.5111 -0.4086
 6392SOL    HW121183   0.756   4.938   5.743 -0.4709 -0.0069 -0.1674
 6392SOL    HW221184   0.655   4.982   5.847 -2.7615 -1.0313 -1.8694
 6393SOL     OW21185   0.394   4.501   4.583  0.6851  0.1144  0.1470
 6393SOL    HW121186   0.401   4.518   4.677 -0.4109  0.7500  0.1352
 6393SOL    HW221187   0.410   4.407   4.574  3.3560  0.4391  0.6563
 6394SOL     OW21188   3.905   0.175   7.588 -0.2755 -0.3213  0.2410
 6394SOL    HW121189   3.913   0.184   7.683  1.7645  0.5818  0.0319
 6394SOL    HW221190   3.815   0.203   7.570 -0.2234  1.0387  1.7610
 6395SOL     OW21191   8.027   4.616   8.069  0.0216  0.6414 -0.5780
 6395SOL    HW121192   8.092   4.585   8.132 -1.6112  0.5122  1.1251
 6395SOL    HW221193   8.069   4.691   8.027  1.4117  0.3309  0.1782
 6396SOL     OW21194   3.210   5.179   9.624 -0.1588  0.6800  0.3539
 6396SOL    HW121195   3.121   5.207   9.603  0.3067  1.1112 -1.2245
 6396SOL    HW221196   3.251   5.164   9.539  1.8840  2.4690  0.9251
 6397SOL     OW21197   9.926   8.467   1.874 -0.1192 -1.1130  0.7074
 6397SOL    HW121198   9.892   8.378   1.858  0.1104 -1.2291  0.8552
 6397SOL    HW221199   9.998   8.476   1.813 -0.5688 -0.7713  0.2161
 6398SOL     OW21200   3.688   5.973   9.687  0.3674 -0.2142 -0.1322
 6398SOL    HW121201   3.767   5.919   9.674 -0.5969 -1.5952 -0.4576
 6398SOL    HW221202   3.689   6.033   9.613  2.0476  1.0248  0.8169
 6399SOL     OW21203   1.059   2.666   1.454 -0.2562 -0.3284  0.0045
 6399SOL    HW121204   0.965   2.672   1.472 -0.1821 -1.7615  1.0048
 6399SOL    HW221205   1.081   2.575   1.472  1.7300  0.4514  1.9167
 6400SOL     OW21206  10.225   0.011   3.228 -0.2806  0.0353 -0.0192
 6400SOL    HW121207  10.252  -0.070   3.272 -0.2725  0.5614  0.9694
 6400SOL    HW221208  10.136  -0.006   3.198 -0.2741 -0.3519  0.1765
 6401SOL     OW21209   3.086   2.709   9.317  0.0623 -0.1189 -0.0758
 6401SOL    HW121210   3.056   2.783   9.368 -0.3388  0.3699 -1.0031
 6401SOL    HW221211   3.034   2.635   9.348  1.1616 -0.2562  1.5623
 6402SOL     OW21212   3.945   8.914   0.546  0.6093  0.2652  0.1900
 6402SOL    HW121213   4.003   8.847   0.583  1.6766 -0.3523 -2.3675
 6402SOL    HW221214   3.983   8.997   0.574  1.6304 -0.1697  0.1587
 6403SOL     OW21215   8.092   4.520   3.926 -0.1499  0.0927 -0.2090
 6403SOL    HW121216   8.133   4.496   4.010 -2.0071 -0.0731  0.7084
 6403SOL    HW221217   8.027   4.585   3.950  1.5810  2.6911 -2.0344
 6404SOL     OW21218   3.479   9.234  10.847  0.2728 -0.1760 -0.7539
 6404SOL    HW121219   3.397   9.189  10.829 -0.8845  1.6580 -0.2323
 6404SOL    HW221220   3.505   9.201  10.933 -1.0172  0.7529  0.0204
 6405SOL     OW21221   3.558   3.077   8.049 -0.4160 -0.2789 -0.0598
 6405SOL    HW121222   3.549   3.148   7.986 -0.7245  0.3009  0.6281
 6405SOL    HW221223   3.515   3.002   8.008 -0.4389  0.0397 -0.6155
 6406SOL     OW21224   3.897   2.642   3.203  0.2395  0.0111 -0.3739
 6406SOL    HW121225   3.814   2.645   3.250 -0.1886 -2.6749 -0.8020
 6406SOL    HW221226   3.961   2.618   3.269  0.5274  1.1040 -0.2404
 6407SOL     OW21227   2.185   5.793   3.304  0.3118 -0.3310 -0.4631
 6407SOL    HW121228   2.089   5.792   3.311  0.2755  0.9546 -0.5156
 6407SOL    HW221229   2.202   5.815   3.212  0.5883  2.3956  0.1477
 6408SOL     OW21230   7.776   4.553   2.448 -0.6963  0.6585  0.0978
 6408SOL    HW121231   7.770   4.600   2.531 -3.9839 -1.6130  1.3558
 6408SOL    HW221232   7.779   4.461   2.473  1.0798 -0.0530 -2.3392
 6409SOL     OW21233  10.980   0.659   9.037 -0.1263  0.0606  0.5084
 6409SOL    HW121234  11.017   0.606   9.108  5.1684  1.3726 -0.8399
 6409SOL    HW221235  10.967   0.598   8.965  2.7637 -0.1208  0.0256
 6410SOL     OW21236   8.701   1.507   9.580 -0.0487 -0.3366 -0.4228
 6410SOL    HW121237   8.763   1.573   9.549 -1.4619  0.4566 -1.6748
 6410SOL    HW221238   8.735   1.424   9.545 -0.2363  0.2254 -2.0308
 6411SOL     OW21239   9.236   5.341   5.177  0.0264 -0.5265  0.0263
 6411SOL    HW121240   9.239   5.305   5.266 -1.1107  0.6589  0.5776
 6411SOL    HW221241   9.177   5.282   5.130 -0.5170 -0.3262  0.4556
 6412SOL     OW21242   7.228   6.806   9.069 -0.4009  0.9285 -0.4445
 6412SOL    HW121243   7.146   6.781   9.111 -0.7726  0.4307 -1.4290
 6412SOL    HW221244   7.296   6.779   9.132 -0.7147 -3.3807 -1.6468
 6413SOL     OW21245   1.399  10.191   4.182  0.2585 -0.0979 -0.1169
 6413SOL    HW121246   1.324  10.164   4.234 -0.4929  1.5363 -0.3063
 6413SOL    HW221247   1.455  10.113   4.178 -1.4854 -1.4071 -0.1099
 6414SOL     OW21248   2.344   5.569   3.156  0.1722 -0.4334 -0.1174
 6414SOL    HW121249   2.390   5.517   3.090 -1.8255 -2.2187 -0.2244
 6414SOL    HW221250   2.307   5.505   3.216 -1.0515  0.9534  0.6829
 6415SOL     OW21251   2.816   2.890   0.275 -0.2893  0.1332 -0.3319
 6415SOL    HW121252   2.853   2.923   0.193 -0.1894  0.0689 -0.3130
 6415SOL    HW221253   2.875   2.922   0.343 -0.8970  0.9837 -0.1953
 6416SOL     OW21254   6.053   0.826   4.028  0.7275 -0.1990 -0.0254
 6416SOL    HW121255   6.096   0.879   4.096  2.5052  0.2719 -1.4425
 6416SOL    HW221256   6.060   0.879   3.948 -4.1598  0.7695 -0.1485
 6417SOL     OW21257   1.277   6.411   8.938  0.4577  0.7786 -0.3275
 6417SOL    HW121258   1.222   6.446   9.008  0.4293  1.0055 -0.4616
 6417SOL    HW221259   1.361   6.456   8.948  1.1973 -0.7938  0.9268
 6418SOL     OW21260   3.503   0.704  10.029 -0.1206 -0.3587  0.6332
 6418SOL    HW121261   3.518   0.777   9.969  0.0707 -0.7082  0.2458
 6418SOL    HW221262   3.553   0.632   9.991 -0.7292 -0.8326  0.7300
 6419SOL     OW21263   8.464   4.048   0.033 -0.4924 -0.3350  0.6428
 6419SOL    HW121264   8.492   4.046  -0.059 -1.8164 -0.3925  0.2268
 6419SOL    HW221265   8.419   3.965   0.046  1.9849 -1.5459  2.1291
 6420SOL     OW21266  11.075   6.763   9.725  0.6050 -0.1001 -0.7445
 6420SOL    HW121267  11.097   6.806   9.642  2.3779 -1.7265 -1.2052
 6420SOL    HW221268  11.128   6.808   9.790  1.5815 -0.7903 -1.0371
 6421SOL     OW21269   1.913   2.429   2.203 -0.4251  0.3049 -0.2667
 6421SOL    HW121270   1.838   2.396   2.252 -1.6679  0.9065 -1.6845
 6421SOL    HW221271   1.881   2.510   2.163  0.4564 -0.2428 -2.1878
 6422SOL     OW21272  10.550   8.459   7.352  0.3939 -0.3131  0.4586
 6422SOL    HW121273  10.627   8.427   7.305 -0.3974 -0.1443 -1.0079
 6422SOL    HW221274  10.480   8.459   7.287 -0.2656  1.9550  1.0595
 6423SOL     OW21275  10.788   8.404   7.231  0.0905  0.0483 -0.3122
 6423SOL    HW121276  10.871   8.452   7.228 -0.3481  0.7746 -1.8447
 6423SOL    HW221277  10.780   8.366   7.143 -0.5980 -1.0667  0.2244
 6424SOL     OW21278   4.617   9.900   4.906  0.7178  0.4105  0.4426
 6424SOL    HW121279   4.585   9.839   4.972 -0.1642 -0.5828 -0.8439
 6424SOL    HW221280   4.712   9.890   4.908  0.8121  1.1707  2.2257
 6425SOL     OW21281   9.866   1.422   8.476  1.4429  0.1327  0.6596
 6425SOL    HW121282   9.925   1.350   8.456 -0.2014 -0.7796 -1.3940
 6425SOL    HW221283   9.867   1.476   8.397 -1.4856 -0.7378 -0.0975
 6426SOL     OW21284   0.584   3.280   0.510  0.4497  0.0898 -0.0330
 6426SOL    HW121285   0.635   3.203   0.485  0.8610 -0.7327  2.9675
 6426SOL    HW221286   0.509   3.244   0.558  0.8123  1.5119  1.7017
 6427SOL     OW21287   7.079   2.460   1.706 -0.1531  0.0182 -0.1026
 6427SOL    HW121288   7.131   2.486   1.782 -0.3540 -0.8345  0.3380
 6427SOL    HW221289   7.128   2.387   1.667  0.7648  1.4109 -1.7270
 6428SOL     OW21290   3.881   1.632   7.264 -0.0185  0.1308  0.3961
 6428SOL    HW121291   3.864   1.562   7.326  1.4756  1.1750  2.0956
 6428SOL    HW221292   3.975   1.648   7.271 -0.0400  1.1798 -1.1735
 6429SOL     OW21293   4.690   7.128  10.844 -0.0193 -0.0189 -0.8354
 6429SOL    HW121294   4.659   7.217  10.861 -2.0554 -0.2201 -2.9635
 6429SOL    HW221295   4.624   7.071  10.885  1.7859 -0.6778  1.4011
 6430SOL     OW21296   6.247   8.812   6.983 -0.6095 -1.1145 -0.0509
 6430SOL    HW121297   6.210   8.899   6.996 -3.4297 -2.3279  0.9132
 6430SOL    HW221298   6.295   8.795   7.064  4.5407  1.3695 -2.1804
 6431SOL     OW21299   2.035  10.055   6.196 -0.4161  0.1050  0.2456
 6431SOL    HW121300   2.038  10.147   6.223 -1.5449  0.3846 -0.5416
 6431SOL    HW221301   2.042  10.057   6.101  2.0315 -0.7967  0.3243
 6432SOL     OW21302   1.380   0.617   8.232  0.1527  0.1548  0.1513
 6432SOL    HW121303   1.400   0.586   8.143  2.7544 -2.1321  1.3913
 6432SOL    HW221304   1.454   0.674   8.254 -0.1499  0.1810  1.1091
 6433SOL     OW21305   3.808   0.023   3.424 -0.4387  0.5088 -0.1530
 6433SOL    HW121306   3.720   0.016   3.460  0.6819  0.0676  2.7761
 6433SOL    HW221307   3.831  -0.066   3.398 -1.3314  0.8630 -2.3963
 6434SOL     OW21308   0.664  10.023   4.415 -0.7737 -0.1113 -0.1713
 6434SOL    HW121309   0.643  10.060   4.501  0.7374 -0.2351  0.2665
 6434SOL    HW221310   0.579   9.997   4.380 -1.3569 -0.8089  1.6283
 6435SOL     OW21311   7.357   7.521   5.097 -0.1422 -0.1303 -0.1333
 6435SOL    HW121312   7.266   7.497   5.078  0.1256 -2.2864  1.0040
 6435SOL    HW221313   7.409   7.458   5.047  0.6582 -0.6784  1.3243
 6436SOL     OW21314   2.777   8.359   8.392  0.0241 -0.1681  0.0691
 6436SOL    HW121315   2.709   8.298   8.362 -1.0521  1.3372 -0.6854
 6436SOL    HW221316   2.739   8.446   8.378  1.5023  0.6966  1.1271
 6437SOL     OW21317   7.673   9.203   3.609  0.6945 -0.0032  0.2051
 6437SOL    HW121318   7.593   9.155   3.585  0.5422  0.5938 -0.5208
 6437SOL    HW221319   7.662   9.222   3.702  1.0814 -1.9686  0.6919
 6438SOL     OW21320  11.013   2.693   8.499  0.0459 -0.0595 -0.4157
 6438SOL    HW121321  11.056   2.737   8.426  0.9867 -0.4308 -0.0991
 6438SOL    HW221322  11.085   2.661   8.554 -0.6422  0.2145  0.6824
 6439SOL     OW21323   7.761   9.264   8.244  0.1985 -0.1970  0.2552
 6439SOL    HW121324   7.729   9.346   8.281 -0.9350 -1.4584  2.3041
 6439SOL    HW221325   7.683   9.221   8.209  0.7387 -0.5097 -0.6005
 6440SOL     OW21326   3.463  11.041   7.892  0.0424 -0.3922  0.2117
 6440SOL    HW121327   3.443  11.066   7.802  0.2017  2.1542  0.7942
 6440SOL    HW221328   3.377  11.038   7.935 -0.0675 -1.9644 -0.0614
 6441SOL     OW21329   6.988   2.504   2.384  0.0463 -0.4282  0.2682
 6441SOL    HW121330   7.049   2.438   2.418  1.3555  1.4781  1.8554
 6441SOL    HW221331   6.921   2.511   2.453 -0.5565 -0.6576 -0.2830
 6442SOL     OW21332   2.292   7.761   3.562  0.0818 -0.0928 -0.5514
 6442SOL    HW121333   2.368   7.724   3.516  0.4976 -1.0814  0.8529
 6442SOL    HW221334   2.263   7.690   3.620 -1.0172  0.7729 -0.0138
 6443SOL     OW21335   3.874   7.564  10.044 -1.3443 -0.1539 -0.1560
 6443SOL    HW121336   3.926   7.643  10.032 -1.8823  0.4800  1.4290
 6443SOL    HW221337   3.925   7.512  10.108 -0.9976 -1.1051 -1.1713
 6444SOL     OW21338   7.238  10.741   9.956  0.3326  0.2701  0.0541
 6444SOL    HW121339   7.298  10.692  10.012 -0.1683  0.1112  0.4692
 6444SOL    HW221340   7.195  10.803  10.016 -0.1091  0.1938 -0.1808
 6445SOL     OW21341   2.382   7.360   8.993 -0.3538 -0.2081  0.0042
 6445SOL    HW121342   2.458   7.417   8.981  0.8484 -1.6692  0.4043
 6445SOL    HW221343   2.331   7.403   9.061 -0.6530  1.5179 -1.2162
 6446SOL     OW21344   3.363   2.944   3.520  0.1019 -0.1445  0.1745
 6446SOL    HW121345   3.343   2.852   3.533 -0.3742  0.0059  0.5465
 6446SOL    HW221346   3.454   2.945   3.491  0.7715 -0.6249  2.0724
 6447SOL     OW21347   8.427   1.593   8.637 -0.2593  0.4991 -0.2876
 6447SOL    HW121348   8.480   1.543   8.575  0.4972  1.0198 -0.0697
 6447SOL    HW221349   8.483   1.605   8.713 -1.4679 -0.8829  0.8987
 6448SOL     OW21350   6.902   9.994   9.290 -0.7905 -0.2402 -0.1517
 6448SOL    HW121351   6.916   9.903   9.317 -0.3741  0.5464  2.6214
 6448SOL    HW221352   6.990  10.030   9.281 -0.9429  0.2304  0.1761
 6449SOL     OW21353   6.904   0.788   7.556 -0.1520  0.7004 -0.4872
 6449SOL    HW121354   6.820   0.765   7.516  0.6765 -1.4240 -1.1025
 6449SOL    HW221355   6.914   0.882   7.537 -1.6444  0.6428 -1.7450
 6450SOL     OW21356  10.235   9.530   7.010  0.2551 -0.0829 -0.0175
 6450SOL    HW121357  10.247   9.463   7.077  0.9603 -0.1195 -0.1757
 6450SOL    HW221358  10.270   9.610   7.048 -2.0655  0.6105  0.8093
 6451SOL     OW21359   4.025  10.465   9.064  0.2174 -0.2855 -0.5031
 6451SOL    HW121360   4.048  10.541   9.118 -2.1910  0.7791 -0.7987
 6451SOL    HW221361   4.099  10.454   9.005  1.7319  0.2066  1.2298
 6452SOL     OW21362   6.616   1.795   9.255 -0.0873 -0.2832 -0.1891
 6452SOL    HW121363   6.564   1.760   9.183 -1.0109  1.2628 -0.3320
 6452SOL    HW221364   6.553   1.805   9.327  1.1935 -3.6362  1.5755
 6453SOL     OW21365   0.892   3.435   4.778 -0.1813  0.0618  0.3026
 6453SOL    HW121366   0.874   3.342   4.793  0.8625 -0.1716  0.1816
 6453SOL    HW221367   0.828   3.462   4.713  1.3209 -1.3194 -1.8830
 6454SOL     OW21368   2.435   0.159   6.169 -0.2203 -0.3649 -0.5904
 6454SOL    HW121369   2.490   0.099   6.220 -0.1540 -0.1388 -0.3963
 6454SOL    HW221370   2.390   0.102   6.107  0.2080 -0.5595 -0.7318
 6455SOL     OW21371   8.355   6.846   4.720  0.3337 -0.4596 -0.3059
 6455SOL    HW121372   8.276   6.794   4.737 -1.7363  3.0235  2.2349
 6455SOL    HW221373   8.390   6.865   4.807  4.4149 -2.1830 -1.3685
 6456SOL     OW21374   1.926   5.146  10.039  0.1329 -0.5723  0.1851
 6456SOL    HW121375   1.839   5.107  10.034 -0.1434  0.0518  0.0567
 6456SOL    HW221376   1.936   5.170  10.132  0.0921 -0.4704  0.1628
 6457SOL     OW21377   5.840   9.175   5.342  0.1515 -0.4454 -0.6220
 6457SOL    HW121378   5.923   9.175   5.295  0.3797  0.0115 -0.2323
 6457SOL    HW221379   5.846   9.251   5.400 -0.3630 -0.6584 -0.2853
 6458SOL     OW21380   8.855   3.938   1.071  0.0955  0.1049  0.0393
 6458SOL    HW121381   8.818   4.001   1.133  0.0082 -0.6499  0.7661
 6458SOL    HW221382   8.783   3.877   1.052  0.0529  0.4517 -0.9875
 6459SOL     OW21383   9.904   3.464   8.818  0.2772 -0.4061  0.5833
 6459SOL    HW121384   9.867   3.538   8.866 -0.0953 -1.4523  1.9966
 6459SOL    HW221385   9.830   3.404   8.806  0.6664 -0.7493 -0.1416
 6460SOL     OW21386   9.092   9.781   1.444 -0.2080 -0.3906 -0.0057
 6460SOL    HW121387   9.163   9.726   1.478  1.7194  1.7024 -0.3677
 6460SOL    HW221388   9.042   9.723   1.387 -0.3881 -2.6094  2.2347
 6461SOL     OW21389   5.410   3.313  10.586  0.1761  0.1978 -0.0762
 6461SOL    HW121390   5.467   3.328  10.511  0.2545  0.9685  0.1327
 6461SOL    HW221391   5.417   3.218  10.603  0.2803  0.0501 -0.9313
 6462SOL     OW21392  10.805   5.014   2.676  0.0616  0.4405  0.1640
 6462SOL    HW121393  10.764   5.032   2.761 -2.3076  0.9261 -0.9940
 6462SOL    HW221394  10.877   4.954   2.696 -1.4154 -0.7470  2.3146
 6463SOL     OW21395   6.564   2.758   5.745  0.3854 -0.4039  0.1098
 6463SOL    HW121396   6.541   2.777   5.654 -0.8877 -1.0339  0.2820
 6463SOL    HW221397   6.530   2.833   5.794 -0.5103 -0.8758  0.2466
 6464SOL     OW21398   0.305   9.225   6.276 -0.2658 -0.0724 -0.1174
 6464SOL    HW121399   0.256   9.279   6.214 -0.2218 -0.0453 -0.1282
 6464SOL    HW221400   0.243   9.158   6.303 -1.2206  1.5511  1.9765
 6465SOL     OW21401   8.003   5.825   1.283  0.7016 -0.4677  0.1861
 6465SOL    HW121402   8.056   5.770   1.341  4.9373  2.1689 -0.7369
 6465SOL    HW221403   8.003   5.779   1.199 -0.1884 -1.3874  0.6708
 6466SOL     OW21404   9.038   3.267   5.396 -0.1576 -0.2613  0.7033
 6466SOL    HW121405   8.944   3.247   5.393 -0.2893  0.4768 -1.0688
 6466SOL    HW221406   9.075   3.222   5.320  0.5992  0.9579  0.3235
 6467SOL     OW21407   5.036   3.863   4.898 -0.3803  0.6020  0.9191
 6467SOL    HW121408   5.124   3.841   4.927 -0.8402 -0.1646  1.7850
 6467SOL    HW221409   4.978   3.815   4.957 -1.3793  0.6849  0.0472
 6468SOL     OW21410   7.903   8.959   7.761 -0.8476 -0.0407 -0.4522
 6468SOL    HW121411   7.853   8.914   7.829 -0.7923  0.2587 -0.2142
 6468SOL    HW221412   7.866   9.047   7.758 -1.8752 -0.4689 -1.8406
 6469SOL     OW21413   4.908   2.476   5.867  0.4779  0.1348  0.4712
 6469SOL    HW121414   4.977   2.465   5.933 -0.1238  0.2364  1.1306
 6469SOL    HW221415   4.955   2.484   5.784  1.2166 -0.9342  0.7637
 6470SOL     OW21416   1.675  10.022   4.507  0.6474 -0.1885  0.1148
 6470SOL    HW121417   1.744   9.958   4.491  2.0742  0.7018  2.2875
 6470SOL    HW221418   1.595   9.970   4.518  1.2125 -1.3456 -1.0041
 6471SOL     OW21419   2.027   8.600   6.700  0.2092 -0.0150  0.8058
 6471SOL    HW121420   2.042   8.509   6.724 -2.0114 -0.6680 -0.0377
 6471SOL    HW221421   2.063   8.609   6.612 -1.3530 -0.6799  0.0695
 6472SOL     OW21422   8.669   1.374   1.924 -0.1572  0.5727  0.0992
 6472SOL    HW121423   8.752   1.403   1.963 -0.0821 -0.2337  0.5570
 6472SOL    HW221424   8.680   1.280   1.910 -0.7776  0.5652 -0.4043
 6473SOL     OW21425   4.513   0.791   5.523  0.5025 -0.3137  0.1525
 6473SOL    HW121426   4.501   0.810   5.616 -0.8804  0.3216 -0.1285
 6473SOL    HW221427   4.608   0.779   5.513  0.7502  0.3206  1.5085
 6474SOL     OW21428   5.028   6.877  10.948  0.0139  0.3049  0.5795
 6474SOL    HW121429   4.968   6.906  10.880 -0.3243  1.4584  1.3296
 6474SOL    HW221430   5.013   6.783  10.956  0.2201  0.1140 -1.0665
 6475SOL     OW21431   9.681   9.909   8.303  0.7310  0.1406  0.0261
 6475SOL    HW121432   9.727   9.827   8.288  2.0065  0.5801  1.3768
 6475SOL    HW221433   9.750   9.973   8.320 -0.3098  1.1132  0.7361
 6476SOL     OW21434   1.123  10.551   1.874 -0.1386 -0.0069  0.3293
 6476SOL    HW121435   1.190  10.612   1.843  0.0524 -0.7813 -0.8405
 6476SOL    HW221436   1.041  10.600   1.865  0.0406  0.1775 -0.3578
 6477SOL     OW21437   3.928   4.025   9.496 -0.2660  0.7088 -0.7293
 6477SOL    HW121438   3.975   4.026   9.579  0.3596  0.9393 -1.0809
 6477SOL    HW221439   3.846   3.980   9.516 -0.5631  1.6471  0.2410
 6478SOL     OW21440   1.722   5.973   1.829 -0.0383  0.1549 -1.1365
 6478SOL    HW121441   1.725   6.064   1.799  1.4308  1.0868  1.5429
 6478SOL    HW221442   1.659   5.973   1.901  0.2648 -0.8812 -0.8584
 6479SOL     OW21443   0.430   3.708   5.061 -0.3567 -0.3718  0.1338
 6479SOL    HW121444   0.417   3.613   5.058  0.4074 -0.4669 -2.1497
 6479SOL    HW221445   0.346   3.744   5.033  0.1290 -0.5201 -1.6449
 6480SOL     OW21446   0.044  10.073   0.072 -0.5528  0.3544  0.4051
 6480SOL    HW121447  -0.029  10.024   0.110 -2.9885  1.0840 -2.9096
 6480SOL    HW221448   0.066  10.138   0.138 -0.1306 -2.2935  3.1186
 6481SOL     OW21449   7.369   2.377   2.547 -0.5475  0.4663  0.3649
 6481SOL    HW121450   7.400   2.465   2.569 -3.6263  1.4308  1.3354
 6481SOL    HW221451   7.348   2.337   2.631  0.7502 -1.2548 -0.0679
 6482SOL     OW21452   6.806   6.222   3.532 -0.1037  0.0039  0.0055
 6482SOL    HW121453   6.730   6.167   3.515 -0.2249  0.2007 -0.0975
 6482SOL    HW221454   6.866   6.167   3.581 -1.0326  0.3695  1.6158
 6483SOL     OW21455   5.901   9.252  10.810 -0.1696 -0.1407 -0.4258
 6483SOL    HW121456   5.828   9.192  10.795  0.1827 -0.4488 -0.9453
 6483SOL    HW221457   5.971   9.220  10.752 -0.4973  1.6941 -1.9346
 6484SOL     OW21458  10.793   6.878   6.021 -0.0430  0.1064  0.1122
 6484SOL    HW121459  10.775   6.927   6.100 -1.8600 -2.1943  1.2497
 6484SOL    HW221460  10.849   6.936   5.968  0.5435  2.0290  2.6664
 6485SOL     OW21461   9.852   6.835   7.907 -0.1579  0.6170 -0.2152
 6485SOL    HW121462   9.828   6.917   7.951 -0.7311  1.2778 -1.6975
 6485SOL    HW221463   9.909   6.790   7.970 -2.3586  0.6644  1.9773
 6486SOL     OW21464   8.300   0.063   2.002 -0.9204 -0.2090  0.6587
 6486SOL    HW121465   8.308  -0.028   1.972 -2.7783  0.3183 -1.7108
 6486SOL    HW221466   8.211   0.068   2.038 -2.1932  1.3687 -2.3473
 6487SOL     OW21467  10.923   1.308   1.164 -0.0294  0.2078  0.4471
 6487SOL    HW121468  10.830   1.298   1.143  0.2828 -0.1999 -0.8288
 6487SOL    HW221469  10.964   1.334   1.081  1.0104  0.3420  0.9796
 6488SOL     OW21470   0.510   8.970   2.326 -0.0687 -0.5684  0.3297
 6488SOL    HW121471   0.562   8.995   2.250  0.0399 -1.3069  0.1578
 6488SOL    HW221472   0.441   9.037   2.331  0.2605 -0.1952 -0.0749
 6489SOL     OW21473   6.529   8.065  10.445 -0.2365  0.1801 -0.6211
 6489SOL    HW121474   6.542   8.137  10.383  2.1622 -0.0312 -0.4339
 6489SOL    HW221475   6.512   8.108  10.528  0.4289  0.5380 -0.6647
 6490SOL     OW21476   3.835   0.630   3.603 -0.5943 -0.6891  0.2894
 6490SOL    HW121477   3.779   0.707   3.617  0.2954 -0.0398  0.3433
 6490SOL    HW221478   3.924   0.662   3.614 -0.0946 -1.3205 -1.4447
 6491SOL     OW21479   8.319   2.799   7.728  0.0407  0.6979 -0.0766
 6491SOL    HW121480   8.280   2.719   7.764  0.2492  0.9303  0.6642
 6491SOL    HW221481   8.245   2.859   7.720  0.0659  0.7821  0.3349
 6492SOL     OW21482   1.696   6.609   7.984 -0.0342 -1.2267  0.1517
 6492SOL    HW121483   1.630   6.656   8.036  2.4963  0.8161  1.8157
 6492SOL    HW221484   1.736   6.548   8.046  1.4306 -0.4748 -0.0066
 6493SOL     OW21485   5.754   8.457   2.805  0.1616 -0.2426  0.2815
 6493SOL    HW121486   5.814   8.406   2.860  2.5923 -0.6072 -2.5064
 6493SOL    HW221487   5.722   8.395   2.740  3.3739  1.4972 -3.3497
 6494SOL     OW21488  10.096  10.063   7.775  0.1043 -0.4706  0.6293
 6494SOL    HW121489  10.119  10.144   7.731 -3.0492 -0.0602 -0.5099
 6494SOL    HW221490  10.151   9.996   7.734  0.4375  0.5982 -0.7040
 6495SOL     OW21491   0.243   8.780   9.275  0.5410 -0.2438  0.0950
 6495SOL    HW121492   0.226   8.859   9.327 -1.6078 -2.1227  2.4644
 6495SOL    HW221493   0.325   8.746   9.311  0.5469 -0.0220  0.2983
 6496SOL     OW21494   1.870   2.063   5.000  0.3055  0.5568 -0.1262
 6496SOL    HW121495   1.786   2.076   5.044 -0.4937 -1.3112 -0.9741
 6496SOL    HW221496   1.935   2.094   5.063 -0.9234  0.1917  1.3950
 6497SOL     OW21497  10.838   5.703   2.199 -0.1329  0.4261 -0.4042
 6497SOL    HW121498  10.756   5.748   2.221 -0.8676 -0.6011 -0.9285
 6497SOL    HW221499  10.813   5.611   2.193  1.2697 -0.0095  0.3127
 6498SOL     OW21500   3.313   8.941   1.680 -0.3590 -0.4967  0.1642
 6498SOL    HW121501   3.246   8.874   1.685 -1.9035  0.4495 -3.9450
 6498SOL    HW221502   3.380   8.904   1.622  0.4766  0.2585  0.6111
 6499SOL     OW21503   8.883   9.776   8.603 -0.4279  0.2696  0.3914
 6499SOL    HW121504   8.907   9.811   8.518  0.8684  0.8565  0.9629
 6499SOL    HW221505   8.791   9.754   8.596 -1.0943  2.9873 -0.2770
 6500SOL     OW21506   0.545   6.402   1.061  0.1929  0.3399  0.1097
 6500SOL    HW121507   0.609   6.437   1.000  1.0312  0.2701  0.9336
 6500SOL    HW221508   0.596   6.372   1.136 -0.7276 -0.4081  0.4694
 6501SOL     OW21509   2.139   4.113   3.382 -0.1411  0.6336  0.4741
 6501SOL    HW121510   2.174   4.121   3.293  1.2701  1.2779  1.0622
 6501SOL    HW221511   2.201   4.056   3.427 -1.3229 -0.4171  0.8373
 6502SOL     OW21512   0.470  10.921  10.595  0.1710 -0.0140  0.2780
 6502SOL    HW121513   0.512  10.835  10.591 -2.4800 -1.4086 -0.4606
 6502SOL    HW221514   0.524  10.978  10.541  0.7058 -1.8733 -1.2380
 6503SOL     OW21515   9.889   7.843   0.628 -0.0059  0.0994  0.4811
 6503SOL    HW121516   9.904   7.937   0.636 -0.4075  0.4137 -1.6926
 6503SOL    HW221517   9.975   7.804   0.641  0.9801  1.1243 -2.2244
 6504SOL     OW21518   1.459  10.399   7.790  0.2965 -0.0083  0.1254
 6504SOL    HW121519   1.461  10.482   7.838  2.5262 -0.4907  1.0196
 6504SOL    HW221520   1.378  10.357   7.818 -0.7210  1.7064 -0.0947
 6505SOL     OW21521   9.235   2.048  10.310  0.1505  0.4734 -0.1271
 6505SOL    HW121522   9.184   1.971  10.334 -2.5340  2.5132  1.2070
 6505SOL    HW221523   9.300   2.056  10.380 -0.8499  0.5113  0.8190
 6506SOL     OW21524   5.666   9.477   8.575  0.1330 -0.6587 -0.7687
 6506SOL    HW121525   5.718   9.442   8.503 -0.4444 -2.0555 -0.5452
 6506SOL    HW221526   5.628   9.399   8.617 -3.9006  0.2520 -2.2226
 6507SOL     OW21527  10.010   9.747   8.380 -0.1204  0.3453 -0.1876
 6507SOL    HW121528   9.933   9.735   8.326 -1.0387  0.5640  1.0346
 6507SOL    HW221529  10.062   9.668   8.365 -1.2124 -0.4247 -0.0490
 6508SOL     OW21530   0.820   1.648   5.515 -0.3668  0.1716 -0.3538
 6508SOL    HW121531   0.797   1.723   5.570  0.5238 -0.7707  1.3814
 6508SOL    HW221532   0.875   1.685   5.446 -2.7877  1.6317 -1.6179
 6509SOL     OW21533   3.553  10.076   1.747  0.4926 -0.0569  0.4327
 6509SOL    HW121534   3.619  10.073   1.678 -1.3289  0.5339 -1.4494
 6509SOL    HW221535   3.501   9.997   1.732 -0.2818  0.3852  0.7547
 6510SOL     OW21536   1.722   2.670   6.873  0.7369  0.2760  0.0207
 6510SOL    HW121537   1.718   2.575   6.881 -0.1993  0.3319  0.3376
 6510SOL    HW221538   1.745   2.685   6.781 -3.6280 -0.2688 -1.3935
 6511SOL     OW21539   8.964   7.497   1.049  0.2353  0.3008  0.4587
 6511SOL    HW121540   9.019   7.550   1.106  0.1596 -0.3341  1.1338
 6511SOL    HW221541   9.001   7.510   0.961  1.0545  0.3921  0.8121
 6512SOL     OW21542   2.211  10.498   2.431  0.0466 -0.4627  0.1538
 6512SOL    HW121543   2.196  10.406   2.455 -0.3674  0.0331  1.9643
 6512SOL    HW221544   2.280  10.527   2.491  0.8229  0.1912 -1.0120
 6513SOL     OW21545   1.290   0.555   2.948 -0.1120  0.5218  0.4080
 6513SOL    HW121546   1.379   0.574   2.979 -0.2562  0.9540  0.5644
 6513SOL    HW221547   1.257   0.489   3.009 -0.4416  1.4577  1.2723
 6514SOL     OW21548   5.293   2.618   5.810  0.1932 -0.4087  0.0081
 6514SOL    HW121549   5.350   2.572   5.749 -2.5035 -0.2274 -2.8865
 6514SOL    HW221550   5.311   2.711   5.795 -0.8232 -0.3482 -0.9709
 6515SOL     OW21551   1.480   6.580   7.582 -0.1357  0.3898 -0.3352
 6515SOL    HW121552   1.403   6.627   7.613  0.5493  0.3798  1.4983
 6515SOL    HW221553   1.555   6.632   7.613  0.6504  0.4793 -2.1873
 6516SOL     OW21554   7.060   4.565   7.536 -0.3790  0.0716 -0.4502
 6516SOL    HW121555   6.986   4.559   7.595  0.5495 -1.1775  0.6451
 6516SOL    HW221556   7.022   4.556   7.448 -1.4794 -1.0029  0.1140
 6517SOL     OW21557   1.562   6.826   8.088  0.1003 -0.2279  0.9830
 6517SOL    HW121558   1.639   6.872   8.056  0.4547 -1.0269  0.6512
 6517SOL    HW221559   1.489   6.887   8.073  0.2218 -0.5531 -1.4433
 6518SOL     OW21560   7.671  10.212   5.009  0.3105  0.8567 -0.4760
 6518SOL    HW121561   7.673  10.198   4.915 -1.4723  1.0422 -0.5855
 6518SOL    HW221562   7.579  10.231   5.028  0.7549  1.4885  1.2064
 6519SOL     OW21563   0.314   4.192   6.813  0.0632 -0.6958  0.5677
 6519SOL    HW121564   0.375   4.125   6.845 -0.0105 -2.0439 -1.8330
 6519SOL    HW221565   0.313   4.179   6.718 -1.0308  1.8574  0.1608
 6520SOL     OW21566   2.674   4.840   4.094 -0.2162  0.5557  0.8260
 6520SOL    HW121567   2.630   4.923   4.076  2.0406  2.0533  1.7470
 6520SOL    HW221568   2.620   4.798   4.160 -1.0802  1.6138  0.8264
 6521SOL     OW21569   9.899   1.538   4.656  0.5710 -0.5778 -0.4059
 6521SOL    HW121570   9.923   1.446   4.654  1.4632 -0.3411 -2.2205
 6521SOL    HW221571   9.961   1.581   4.598 -0.8165  0.9255 -0.8688
 6522SOL     OW21572   3.785   7.761   1.123 -0.2680  0.2769 -0.4048
 6522SOL    HW121573   3.833   7.779   1.204  2.2747 -0.1035 -1.7185
 6522SOL    HW221574   3.798   7.839   1.070  0.1076 -0.3786 -1.3030
 6523SOL     OW21575   2.046   4.830   1.717  0.2163 -0.2024  0.3834
 6523SOL    HW121576   1.959   4.869   1.724  1.2406  2.5969 -0.9328
 6523SOL    HW221577   2.038   4.765   1.648 -0.7181  0.5285 -0.2214
 6524SOL     OW21578   1.764   0.266   3.208 -0.2119  0.1671 -0.0121
 6524SOL    HW121579   1.697   0.232   3.149 -1.4744  0.1653  1.3704
 6524SOL    HW221580   1.738   0.235   3.295  1.8390 -0.2136  0.5203
 6525SOL     OW21581   6.925   3.755   0.827 -0.0168  0.2405  0.0794
 6525SOL    HW121582   6.831   3.764   0.815 -0.0625 -1.2068 -0.8114
 6525SOL    HW221583   6.959   3.735   0.740  0.9437 -0.5282  0.6141
 6526SOL     OW21584   2.045   3.675   7.618 -0.0061  0.1065 -0.3825
 6526SOL    HW121585   2.112   3.646   7.555 -1.1786 -1.0057 -1.1650
 6526SOL    HW221586   1.989   3.734   7.567  1.0045  1.9988  0.5874
 6527SOL     OW21587   1.946   8.447  10.106  0.5183 -0.1762 -0.0811
 6527SOL    HW121588   1.957   8.535  10.141  0.3758 -0.7073  1.3849
 6527SOL    HW221589   1.855   8.443  10.076  0.5448  0.1909 -0.2105
 6528SOL     OW21590   4.066   7.997   4.931  0.1571 -0.1604  0.1323
 6528SOL    HW121591   4.054   7.910   4.970  2.0733  0.4316  2.2720
 6528SOL    HW221592   3.988   8.046   4.957  0.3755 -0.4513  1.4214
 6529SOL     OW21593  10.631   7.585   1.054  0.0373  0.0717  0.0868
 6529SOL    HW121594  10.614   7.495   1.026  0.9872 -0.2863  0.6567
 6529SOL    HW221595  10.667   7.577   1.142  1.4302  0.9102 -0.3747
 6530SOL     OW21596   2.359   1.825  10.779  0.8071 -0.3043  0.5481
 6530SOL    HW121597   2.430   1.772  10.815 -1.0587 -1.5155  2.7763
 6530SOL    HW221598   2.279   1.777  10.803 -0.9065  2.5613  1.0298
 6531SOL     OW21599   8.549  10.775   4.008 -0.6526 -0.6575  0.2239
 6531SOL    HW121600   8.645  10.769   4.013 -0.7468 -1.4289  1.3573
 6531SOL    HW221601   8.522  10.693   3.966 -0.6385  1.0500 -3.5302
 6532SOL     OW21602   4.698  10.986   6.472  0.2412  0.4715 -0.1888
 6532SOL    HW121603   4.777  10.936   6.495  0.9683  1.5552 -0.2598
 6532SOL    HW221604   4.635  10.919   6.445  1.0630 -0.4387  0.0714
 6533SOL     OW21605   2.473   1.451   3.190 -0.2701  0.0316  0.2855
 6533SOL    HW121606   2.466   1.416   3.279 -1.6230  1.2937  0.7261
 6533SOL    HW221607   2.528   1.389   3.144 -0.7242 -1.4332  1.6286
 6534SOL     OW21608   5.753   5.990  10.923 -0.0682 -0.2740  0.5906
 6534SOL    HW121609   5.765   6.085  10.916 -1.8912 -0.1354 -4.3810
 6534SOL    HW221610   5.684   5.980  10.989 -0.1095  1.8650  0.9566
 6535SOL     OW21611   2.524   5.701   3.307 -0.2229  0.1156 -0.3151
 6535SOL    HW121612   2.457   5.655   3.256 -0.9764  0.1027  0.6432
 6535SOL    HW221613   2.551   5.774   3.252  0.0317 -0.7005 -1.3133
 6536SOL     OW21614   4.081   4.545   6.903 -0.2804 -0.0552  0.1611
 6536SOL    HW121615   4.119   4.545   6.816  1.1993 -2.2784  0.7048
 6536SOL    HW221616   4.126   4.615   6.949  1.5558 -1.1266  0.0942
 6537SOL     OW21617   0.733   1.393   7.146  0.4488 -0.4592 -0.3212
 6537SOL    HW121618   0.806   1.452   7.126  0.1178  0.0137 -0.1707
 6537SOL    HW221619   0.773   1.320   7.193  0.5683  0.8017  1.6772
 6538SOL     OW21620   3.413   0.209   8.495 -0.0437  0.5131  0.4701
 6538SOL    HW121621   3.347   0.151   8.457  2.1458 -0.9624 -1.3257
 6538SOL    HW221622   3.454   0.158   8.565  0.5148  0.6584  0.2586
 6539SOL     OW21623   2.882   6.424   4.306 -0.5798 -0.5868 -0.0972
 6539SOL    HW121624   2.871   6.329   4.316 -1.0399 -0.4276  1.0058
 6539SOL    HW221625   2.918   6.434   4.218 -1.9627 -1.6905 -0.8416
 6540SOL     OW21626   3.434   0.959   1.947 -0.2716  0.6856 -0.0233
 6540SOL    HW121627   3.405   0.873   1.976  0.3115  0.6413  0.4549
 6540SOL    HW221628   3.356   1.014   1.951 -0.6708  0.1576 -0.4420
 6541SOL     OW21629   7.620   0.806   9.206  0.1558  0.5042 -0.5021
 6541SOL    HW121630   7.536   0.763   9.192  0.2252  0.5476 -1.1012
 6541SOL    HW221631   7.683   0.734   9.212 -0.1050  0.3956  1.4651
 6542SOL     OW21632   1.456   8.155   2.905  0.5145  0.4750 -0.0546
 6542SOL    HW121633   1.444   8.207   2.826  0.5199 -0.0962 -0.4392
 6542SOL    HW221634   1.527   8.095   2.883 -0.7852 -1.0184 -0.3158
 6543SOL     OW21635   3.570   3.060  10.986 -0.4113  0.2207  0.4768
 6543SOL    HW121636   3.603   3.112  11.060 -2.2574 -0.1919  1.6352
 6543SOL    HW221637   3.622   2.979  10.990 -0.0776  0.4458  0.9391
 6544SOL     OW21638   6.812   7.389   9.749  0.2242  0.0295 -0.7210
 6544SOL    HW121639   6.797   7.367   9.841  0.3151 -0.8997 -0.9126
 6544SOL    HW221640   6.759   7.467   9.734  0.8673  0.6812  0.3260
 6545SOL     OW21641   9.192  10.465   5.349 -0.3105  0.1231  0.1056
 6545SOL    HW121642   9.211  10.530   5.417  0.9438  0.9778 -1.0025
 6545SOL    HW221643   9.215  10.381   5.388  4.1949  0.8651 -0.3641
 6546SOL     OW21644   8.166   6.720   5.078  0.2824  0.1397  0.0352
 6546SOL    HW121645   8.119   6.739   5.159  2.6143  1.1882  1.2013
 6546SOL    HW221646   8.215   6.640   5.098  1.0889  0.5651 -0.2479
 6547SOL     OW21647  10.677  10.473   2.391  0.4402 -0.3184  0.5436
 6547SOL    HW121648  10.661  10.401   2.451 -3.3297  0.5949  0.8987
 6547SOL    HW221649  10.615  10.459   2.320  1.4118  1.2310 -0.6825
 6548SOL     OW21650   6.506   5.691  11.050  0.2086  0.1298  0.2300
 6548SOL    HW121651   6.490   5.785  11.047  0.2470  0.1322  0.0886
 6548SOL    HW221652   6.595   5.680  11.017 -0.9342 -0.2372 -3.0729
 6549SOL     OW21653   2.462   9.047   6.733 -0.5609 -0.3857  0.5119
 6549SOL    HW121654   2.378   9.001   6.730 -1.2397  0.8311 -0.1415
 6549SOL    HW221655   2.483   9.063   6.641  0.2664 -0.4431  0.6836
 6550SOL     OW21656   2.012   1.451   6.246  0.4153  0.1911  0.1717
 6550SOL    HW121657   2.057   1.392   6.307  1.4010  2.6168  1.9528
 6550SOL    HW221658   2.079   1.476   6.183  0.6088  0.9983  0.6808
 6551SOL     OW21659   0.315   3.779   4.676 -0.5572  0.8633  0.1760
 6551SOL    HW121660   0.293   3.811   4.763  0.1621  2.4889 -0.1957
 6551SOL    HW221661   0.372   3.704   4.691 -0.4157  1.1518  1.1264
 6552SOL     OW21662  10.834   8.709   4.569  0.6019 -0.0199  0.6011
 6552SOL    HW121663  10.904   8.763   4.532 -1.5627  2.5466 -0.0513
 6552SOL    HW221664  10.843   8.719   4.663  1.6813 -0.5542  0.5687
 6553SOL     OW21665  10.244   4.162   7.350 -0.3145  0.8444  0.4643
 6553SOL    HW121666  10.205   4.177   7.437  1.9713  0.9099  1.5519
 6553SOL    HW221667  10.303   4.088   7.363  0.9615  1.6151 -0.7128
 6554SOL     OW21668   3.179   3.592   3.834  0.3440  0.3123  0.7425
 6554SOL    HW121669   3.250   3.623   3.778 -3.0566  0.4597 -4.0231
 6554SOL    HW221670   3.151   3.670   3.883 -0.9982  2.2762 -2.8291
 6555SOL     OW21671   8.599   5.244   9.668 -0.3877 -0.0344  0.0342
 6555SOL    HW121672   8.549   5.283   9.740  3.0782  1.7973  1.6908
 6555SOL    HW221673   8.591   5.149   9.683  2.1912  0.1849  4.6356
 6556SOL     OW21674   1.273   9.602   6.340 -1.3258 -0.1017  0.1936
 6556SOL    HW121675   1.222   9.620   6.418  0.9511  0.8845  1.5570
 6556SOL    HW221676   1.255   9.677   6.282 -1.1436  0.4323  0.8144
 6557SOL     OW21677   8.753   6.382   3.232  0.5373 -0.5318 -0.2902
 6557SOL    HW121678   8.702   6.411   3.308 -0.2021  1.3447 -1.4246
 6557SOL    HW221679   8.788   6.297   3.258 -0.8835 -0.6201  1.5976
 6558SOL     OW21680   5.722   7.837   5.367 -0.0564  0.1791 -0.0886
 6558SOL    HW121681   5.784   7.800   5.304 -0.2627  0.6846 -0.5951
 6558SOL    HW221682   5.660   7.766   5.384 -0.5462  0.3270 -1.1829
 6559SOL     OW21683   1.438   8.482   8.056  0.1002  0.1548  0.5823
 6559SOL    HW121684   1.510   8.545   8.046 -0.5034  1.0324  1.5496
 6559SOL    HW221685   1.407   8.495   8.145  0.3790 -2.0152  1.0430
 6560SOL     OW21686  10.351   9.349  10.308  0.0020  0.0015 -0.1980
 6560SOL    HW121687  10.392   9.269  10.340 -1.5017 -0.7275  0.0016
 6560SOL    HW221688  10.271   9.319  10.265  1.1325  1.0807 -3.2966
 6561SOL     OW21689  10.157   0.232   6.113  0.1071  0.0267  0.9347
 6561SOL    HW121690  10.210   0.155   6.129 -0.5044 -0.5946  0.0818
 6561SOL    HW221691  10.218   0.306   6.118  1.0313 -0.6587  0.0254
 6562SOL     OW21692   6.041   0.758   8.156 -0.2558  0.1595 -0.2974
 6562SOL    HW121693   5.994   0.776   8.074  2.4883 -1.1874 -2.3514
 6562SOL    HW221694   6.100   0.686   8.134 -0.0806 -0.9702  3.2226
 6563SOL     OW21695   2.409   8.660   2.995 -0.1706 -0.3406 -0.9878
 6563SOL    HW121696   2.497   8.624   2.987 -0.3803 -0.8849 -0.8498
 6563SOL    HW221697   2.368   8.643   2.910 -0.3413 -0.6193 -0.8498
 6564SOL     OW21698   8.977   8.354   7.186 -0.9443 -0.4226 -0.2029
 6564SOL    HW121699   9.001   8.444   7.165 -1.2276 -0.7924 -2.3896
 6564SOL    HW221700   9.061   8.308   7.195 -0.7546  0.2828  2.3849
 6565SOL     OW21701   0.805   2.706   4.108  0.2396 -0.0729 -0.3795
 6565SOL    HW121702   0.772   2.638   4.166  0.7151 -0.6263 -0.7492
 6565SOL    HW221703   0.731   2.726   4.050 -0.1370  0.2654  0.2075
 6566SOL     OW21704   0.835   8.323  10.140 -0.3898 -0.1880  0.6524
 6566SOL    HW121705   0.777   8.254  10.172  0.8276 -1.0301  1.1371
 6566SOL    HW221706   0.822   8.396  10.200 -1.7037  0.0289  0.1280
 6567SOL     OW21707   8.179   5.849   3.968 -0.7378  0.0657 -0.1336
 6567SOL    HW121708   8.197   5.875   3.878 -0.4162  0.9708  0.1741
 6567SOL    HW221709   8.265   5.830   4.005 -0.8312  0.0818  0.0951
 6568SOL     OW21710  10.600   6.215   3.253 -0.2929  0.0621  0.2467
 6568SOL    HW121711  10.663   6.169   3.309 -1.0731  0.5943  1.6172
 6568SOL    HW221712  10.571   6.149   3.190 -0.8132 -1.1354  1.6812
 6569SOL     OW21713   6.631   9.816  10.887  0.5830  0.2211  0.3478
 6569SOL    HW121714   6.544   9.776  10.892  1.3310 -1.6358 -0.7525
 6569SOL    HW221715   6.637   9.849  10.797  1.1635 -0.0303  0.2908
 6570SOL     OW21716   6.627   3.179   3.568 -0.2545  0.1373  0.8665
 6570SOL    HW121717   6.707   3.139   3.535 -0.6361 -0.1626  0.2922
 6570SOL    HW221718   6.634   3.172   3.664 -0.3222 -1.3300  0.7847
 6571SOL     OW21719  10.440   2.093   2.077 -0.5414 -0.8312  0.0784
 6571SOL    HW121720  10.463   2.086   1.984 -2.9773 -1.2075 -0.5765
 6571SOL    HW221721  10.425   2.003   2.105 -0.7599 -0.6462  0.5650
 6572SOL     OW21722   1.551   1.313   7.156  0.2009  0.1073  0.4347
 6572SOL    HW121723   1.472   1.318   7.210 -0.9568 -0.6481 -1.1060
 6572SOL    HW221724   1.594   1.233   7.184  0.5869  0.6603  1.4702
 6573SOL     OW21725   8.382  10.415   5.863  0.8651 -0.1363 -0.1531
 6573SOL    HW121726   8.473  10.393   5.884  1.1318  1.4705  0.5162
 6573SOL    HW221727   8.357  10.352   5.796  2.4163 -0.7304 -0.2095
 6574SOL     OW21728   1.754   9.632   7.721 -0.6814 -0.1207 -0.3646
 6574SOL    HW121729   1.795   9.652   7.805 -1.5229 -1.6054  0.4384
 6574SOL    HW221730   1.676   9.687   7.719  0.1105  1.0189 -0.8723
 6575SOL     OW21731   6.167  10.896   0.665 -0.1353 -0.3966  0.1093
 6575SOL    HW121732   6.186  10.911   0.572 -0.7350 -0.7700 -0.0771
 6575SOL    HW221733   6.130  10.979   0.695 -1.3557 -0.7559 -0.3651
 6576SOL     OW21734   3.844  10.037   0.789 -0.5751 -0.2700  0.0838
 6576SOL    HW121735   3.786  10.100   0.830 -0.0354 -0.4008  1.0810
 6576SOL    HW221736   3.814  10.032   0.698 -0.1797  1.9269 -0.2093
 6577SOL     OW21737   9.327   3.370   4.917  0.1381  0.4545 -0.1056
 6577SOL    HW121738   9.355   3.432   4.850  1.2920  0.1218  0.0414
 6577SOL    HW221739   9.347   3.414   5.000 -3.1542  1.7343  0.1403
 6578SOL     OW21740   6.426  10.096   1.727 -0.2350 -0.2122  0.8691
 6578SOL    HW121741   6.428  10.109   1.632 -1.0540 -0.4511  0.8097
 6578SOL    HW221742   6.344  10.139   1.755 -0.6516 -1.2436  1.2854
 6579SOL     OW21743   3.999   1.884  10.072 -0.4692  0.1639 -0.2860
 6579SOL    HW121744   3.999   1.898   9.977 -0.1521  0.0112 -0.3108
 6579SOL    HW221745   3.931   1.818  10.087  1.6668 -2.3780 -0.8224
 6580SOL     OW21746   7.060   8.865  10.546  0.1235 -0.7932  0.1247
 6580SOL    HW121747   7.112   8.801  10.498  1.0340  0.3678 -0.4860
 6580SOL    HW221748   7.108   8.947  10.536  1.3137 -0.7548  4.4756
 6581SOL     OW21749   6.564   4.108   3.311  0.4820  0.0785  0.8156
 6581SOL    HW121750   6.533   4.148   3.392  0.4078  1.6093  0.0775
 6581SOL    HW221751   6.501   4.039   3.293 -0.0450  0.3415  1.5784
 6582SOL     OW21752   8.096   9.166   7.260  0.1459  0.3032 -0.4727
 6582SOL    HW121753   8.105   9.088   7.314  0.3291  1.0106  0.5552
 6582SOL    HW221754   8.071   9.235   7.321  0.2697  1.1159 -1.3082
 6583SOL     OW21755   8.714  10.567   6.783  0.2861 -0.4881  0.0587
 6583SOL    HW121756   8.793  10.565   6.836  1.1533  0.7717 -1.1084
 6583SOL    HW221757   8.726  10.642   6.724 -1.6867 -0.3876 -0.2940
 6584SOL     OW21758   5.317   8.974  10.895 -0.8320 -1.1305  0.6284
 6584SOL    HW121759   5.305   8.999  10.803  0.5768 -0.9693  0.4745
 6584SOL    HW221760   5.303   9.055  10.943 -0.5850 -0.9974  0.4772
 6585SOL     OW21761   8.187  10.637   0.426  0.3600  0.3152 -0.6926
 6585SOL    HW121762   8.273  10.678   0.416  0.0663  0.5991 -2.2697
 6585SOL    HW221763   8.186  10.606   0.517  1.3094  2.1355 -0.0134
 6586SOL     OW21764   1.253   4.438   6.376 -0.1554 -0.2687  0.3462
 6586SOL    HW121765   1.319   4.483   6.429 -0.4852  0.9076 -0.2276
 6586SOL    HW221766   1.294   4.429   6.290 -0.1675 -0.9141  0.4005
 6587SOL     OW21767   8.435  10.462   1.377 -0.0720 -0.5477 -0.0966
 6587SOL    HW121768   8.414  10.457   1.471 -1.0799  1.5771 -0.1572
 6587SOL    HW221769   8.470  10.550   1.365 -3.0792  0.5337 -2.2067
 6588SOL     OW21770   2.469   5.584   4.439 -0.2739 -0.0618 -0.2990
 6588SOL    HW121771   2.499   5.674   4.454 -1.4472  0.3996 -0.5214
 6588SOL    HW221772   2.441   5.584   4.347  0.3231 -0.8433 -0.4838
 6589SOL     OW21773  10.034   7.258   9.576 -0.0247 -0.5891  0.1958
 6589SOL    HW121774   9.988   7.174   9.577 -2.4562  0.6391  0.5072
 6589SOL    HW221775  10.032   7.287   9.667 -0.7217  0.5179 -0.1504
 6590SOL     OW21776   7.904   8.808   9.740  1.0497  0.4532  0.1387
 6590SOL    HW121777   7.979   8.829   9.684  0.5930  4.2488  0.7056
 6590SOL    HW221778   7.837   8.776   9.679  1.7221  1.1362 -0.9880
 6591SOL     OW21779   3.662   8.883   3.940 -0.0679 -0.4052  0.0513
 6591SOL    HW121780   3.696   8.965   3.904 -1.1190 -0.5441 -1.3278
 6591SOL    HW221781   3.740   8.828   3.950  0.4872  0.3137 -0.1886
 6592SOL     OW21782   0.400  10.068   9.350  0.0646 -0.2532  0.3347
 6592SOL    HW121783   0.466  10.126   9.388 -0.2892 -0.9674  2.1252
 6592SOL    HW221784   0.448   9.987   9.330 -0.1782 -0.6409  1.2913
 6593SOL     OW21785   1.601   0.556   0.480  0.0595  0.1687  0.2468
 6593SOL    HW121786   1.644   0.588   0.559  1.6952  1.2206 -0.9948
 6593SOL    HW221787   1.519   0.605   0.476  0.7881  1.4530  0.3792
 6594SOL     OW21788   2.558   6.746   7.724  0.9240  0.0874  0.1569
 6594SOL    HW121789   2.622   6.816   7.713  1.2690 -0.4421 -1.4455
 6594SOL    HW221790   2.535   6.720   7.635 -0.0635 -1.0641  0.7134
 6595SOL     OW21791  10.293   7.756   4.664 -0.0473 -0.6899  0.7632
 6595SOL    HW121792  10.198   7.746   4.671  0.1726 -2.3198  2.1530
 6595SOL    HW221793  10.315   7.820   4.731 -0.0146 -1.5528  1.5949
 6596SOL     OW21794   1.764   5.737   6.814 -0.0865  0.3213  0.6339
 6596SOL    HW121795   1.688   5.790   6.837 -1.5958 -0.9456 -1.1333
 6596SOL    HW221796   1.779   5.754   6.721  0.6807 -0.7599  0.5361
 6597SOL     OW21797   4.564   3.550   5.661 -0.1936  0.2308 -0.1164
 6597SOL    HW121798   4.616   3.531   5.583 -1.4324 -1.0514 -0.6890
 6597SOL    HW221799   4.621   3.529   5.735  0.4516 -0.1039 -0.7028
 6598SOL     OW21800   7.869   1.306   9.906 -0.2176 -0.1166  0.1000
 6598SOL    HW121801   7.796   1.359   9.872 -1.7852 -1.8488  0.5859
 6598SOL    HW221802   7.861   1.314  10.001  1.8780  1.7372  0.1896
 6599SOL     OW21803   6.701   2.674   2.327 -0.0011  0.2557 -0.2104
 6599SOL    HW121804   6.778   2.723   2.301 -1.1848  3.0647  1.1972
 6599SOL    HW221805   6.675   2.713   2.411 -1.9423 -1.7913  0.2325
 6600SOL     OW21806  10.837  10.512   0.764  0.2290  0.6644 -0.6513
 6600SOL    HW121807  10.844  10.499   0.859 -1.6889  0.4145 -0.5136
 6600SOL    HW221808  10.811  10.604   0.755 -4.1492 -0.3492 -0.5794
 6601SOL     OW21809   6.562   1.651   8.864 -0.0726 -0.2244  0.3443
 6601SOL    HW121810   6.479   1.615   8.832  0.1202  0.4464 -0.9522
 6601SOL    HW221811   6.538   1.737   8.899  0.1899  0.3472 -0.8337
 6602SOL     OW21812   3.538   6.584   6.142  0.3245  0.3903 -0.2729
 6602SOL    HW121813   3.452   6.583   6.102  1.0506  0.5191 -1.9264
 6602SOL    HW221814   3.551   6.674   6.171  0.2012  0.5516 -0.7180
 6603SOL     OW21815   7.051   1.463   1.891  0.4831 -0.1344 -0.0046
 6603SOL    HW121816   7.133   1.414   1.884  0.3965 -0.0680 -2.0605
 6603SOL    HW221817   7.061   1.514   1.972  1.0196 -2.6298  1.6123
 6604SOL     OW21818  10.855   3.262   1.603 -0.0016  0.1582  0.9221
 6604SOL    HW121819  10.886   3.248   1.513 -1.2827  0.5945  0.3835
 6604SOL    HW221820  10.807   3.344   1.599 -1.0398 -0.3867  1.7508
 6605SOL     OW21821   1.817   3.669   2.237  0.1790  0.2321  0.5027
 6605SOL    HW121822   1.899   3.630   2.267  0.3427 -1.0756 -1.4544
 6605SOL    HW221823   1.843   3.739   2.178 -0.0071 -1.2311 -1.4293
 6606SOL     OW21824   0.647   6.647   5.766 -0.1459  0.0455 -0.2767
 6606SOL    HW121825   0.712   6.690   5.710 -0.0363 -1.3718 -1.2844
 6606SOL    HW221826   0.691   6.634   5.849 -0.2078  1.9115  0.0855
 6607SOL     OW21827   5.675   2.613   7.781 -0.0231 -0.2436  0.0301
 6607SOL    HW121828   5.692   2.702   7.813 -0.5561 -0.5905  1.3308
 6607SOL    HW221829   5.581   2.612   7.760  0.0631 -0.3873 -0.3603
 6608SOL     OW21830   2.155   9.092   9.473  1.0984  0.0234  0.8712
 6608SOL    HW121831   2.123   9.008   9.440 -0.8108  0.0400  2.4436
 6608SOL    HW221832   2.199   9.132   9.399 -1.9706 -0.3801 -1.3524
 6609SOL     OW21833   4.213   6.353   0.251  0.3821  0.4841  0.6940
 6609SOL    HW121834   4.130   6.386   0.285 -0.3805 -1.0474  0.4298
 6609SOL    HW221835   4.254   6.310   0.325  0.3830  0.2192  0.5416
 6610SOL     OW21836   2.981   3.207   3.236 -0.1018  0.1547 -0.1068
 6610SOL    HW121837   3.067   3.166   3.251 -0.1323  0.1186 -0.0286
 6610SOL    HW221838   2.938   3.152   3.171 -0.1912 -0.0060  0.0884
 6611SOL     OW21839   4.557   5.866   8.259  0.3311  0.0491 -0.0851
 6611SOL    HW121840   4.497   5.914   8.202  0.0972 -2.7231 -2.4356
 6611SOL    HW221841   4.540   5.774   8.239  3.4903 -0.9370  1.1718
 6612SOL     OW21842   0.888   3.077   9.962 -0.3204  0.0082  0.5425
 6612SOL    HW121843   0.847   3.088   9.877 -0.1028 -0.0597  0.4294
 6612SOL    HW221844   0.939   3.158   9.974 -1.9714  0.9599  1.5139
 6613SOL     OW21845   0.625   1.940   6.374 -0.1767  0.7899 -0.0940
 6613SOL    HW121846   0.665   1.853   6.372 -1.9085 -0.0480 -0.3501
 6613SOL    HW221847   0.578   1.943   6.457 -0.2590  1.4194 -0.1605
 6614SOL     OW21848   3.317   0.198   4.851 -0.1131 -0.1873  0.0406
 6614SOL    HW121849   3.354   0.164   4.770  0.8807  0.2905  0.2866
 6614SOL    HW221850   3.393   0.220   4.905 -0.7516 -1.0031  1.3233
 6615SOL     OW21851   7.470   0.794   5.114 -0.2068  0.6098  0.0567
 6615SOL    HW121852   7.400   0.860   5.108 -0.8046  0.1093  1.2993
 6615SOL    HW221853   7.455   0.750   5.198  0.4278 -0.8435 -0.5576
 6616SOL     OW21854   4.621   8.864   7.309 -0.6707  0.2616  0.6291
 6616SOL    HW121855   4.673   8.788   7.332  1.9422  2.1623  1.4120
 6616SOL    HW221856   4.579   8.840   7.226 -0.3781 -2.1603  1.1157
 6617SOL     OW21857  10.525   6.874   1.854  0.0370 -0.0909  0.5465
 6617SOL    HW121858  10.594   6.809   1.837 -1.1898 -1.9969  2.4366
 6617SOL    HW221859  10.557   6.924   1.929  0.3507  0.5723 -0.0197
 6618SOL     OW21860   4.081   8.386   1.135 -0.0620 -0.0449 -0.4080
 6618SOL    HW121861   4.023   8.354   1.204 -1.0297 -0.3338 -1.3254
 6618SOL    HW221862   4.167   8.349   1.157 -0.0569  0.8456  1.2873
 6619SOL     OW21863   7.092   0.301   9.138  0.3519 -0.0764 -0.0968
 6619SOL    HW121864   7.044   0.357   9.077 -0.2529 -0.1690  0.2800
 6619SOL    HW221865   7.031   0.230   9.158  1.1279 -0.8948 -0.5937
 6620SOL     OW21866  10.177   8.352   4.017 -0.2352 -0.3051  0.0465
 6620SOL    HW121867  10.181   8.329   4.109 -1.4954 -1.9043 -0.2729
 6620SOL    HW221868  10.089   8.387   4.004  0.6311  2.0548 -0.1407
 6621SOL     OW21869   9.100   3.847   3.583 -0.8789  0.0123  0.1912
 6621SOL    HW121870   9.132   3.924   3.630  0.7104 -0.4905 -0.0165
 6621SOL    HW221871   9.030   3.813   3.638 -1.1498  1.2020  0.6231
 6622SOL     OW21872   3.773   7.402   4.096  0.2684 -0.2191  0.0259
 6622SOL    HW121873   3.774   7.347   4.018  0.3109 -0.2525  0.0500
 6622SOL    HW221874   3.795   7.342   4.168  1.4839  0.0492 -0.0909
 6623SOL     OW21875   2.449   2.795   4.324 -0.1024 -0.3969  0.4075
 6623SOL    HW121876   2.368   2.747   4.311  0.1612 -0.1810 -3.0176
 6623SOL    HW221877   2.512   2.753   4.265  0.5318  3.0717 -1.7477
 6624SOL     OW21878   3.502   0.604   5.781  0.2049 -0.2122 -0.3600
 6624SOL    HW121879   3.510   0.571   5.871 -1.4088 -0.4387 -0.2634
 6624SOL    HW221880   3.563   0.678   5.777 -0.7709  0.7523  1.3982
 6625SOL     OW21881   3.384   1.551   5.091  0.1041  0.3535 -0.4915
 6625SOL    HW121882   3.425   1.551   5.178 -1.3126  0.0393  0.2113
 6625SOL    HW221883   3.441   1.606   5.038  0.2402  1.7604  1.0187
 6626SOL     OW21884   7.077   0.487   2.220  0.0342  1.0003  0.1272
 6626SOL    HW121885   7.135   0.461   2.291 -0.8385 -2.2955 -0.2201
 6626SOL    HW221886   7.134   0.492   2.143  0.4041  1.1768  0.4072
 6627SOL     OW21887   9.199   3.103   9.534  0.0890 -0.6453 -0.0530
 6627SOL    HW121888   9.140   3.164   9.578 -0.0216 -1.8007  1.4916
 6627SOL    HW221889   9.275   3.097   9.592 -0.1093 -2.3069  0.0747
 6628SOL     OW21890  11.014   3.035   9.212  0.2458  0.8233  0.1880
 6628SOL    HW121891  11.057   2.971   9.156 -0.1280  1.0348 -0.3517
 6628SOL    HW221892  11.029   3.003   9.301 -0.1214 -0.1328 -0.0811
 6629SOL     OW21893   9.721   3.540   1.896  0.5783  0.6582 -0.0850
 6629SOL    HW121894   9.762   3.523   1.981 -0.4557  0.2717  0.3551
 6629SOL    HW221895   9.702   3.453   1.860 -3.1425  0.6837  1.3874
 6630SOL     OW21896   8.757  10.824   7.081  0.2422 -0.1038  0.7574
 6630SOL    HW121897   8.684  10.883   7.064  0.3270 -0.3740 -0.7620
 6630SOL    HW221898   8.812  10.832   7.003  0.8423 -1.3273  1.0293
 6631SOL     OW21899   3.587   7.479   8.080 -0.2231 -0.1645  0.0312
 6631SOL    HW121900   3.677   7.510   8.067 -0.1162 -0.8036 -0.8618
 6631SOL    HW221901   3.534   7.536   8.024 -0.3342  0.0134  0.3183
 6632SOL     OW21902   9.959   3.055   2.135 -0.0680  0.1008  0.0910
 6632SOL    HW121903  10.015   3.089   2.204 -0.2040 -0.7932  0.6538
 6632SOL    HW221904  10.018   3.005   2.078 -0.3837 -1.5501  1.1463
 6633SOL     OW21905   4.871   1.277   5.402 -0.8293 -0.2404 -0.4395
 6633SOL    HW121906   4.865   1.197   5.455  1.5065  0.1305  0.5196
 6633SOL    HW221907   4.964   1.298   5.402 -1.2936  2.0761 -1.3014
 6634SOL     OW21908   5.993   6.058   2.183  0.0586  0.1151  0.1698
 6634SOL    HW121909   6.016   5.998   2.112  1.1063 -1.0447  1.4091
 6634SOL    HW221910   5.906   6.030   2.210  1.1249 -2.0301  1.7604
 6635SOL     OW21911   0.700  10.070   5.161  0.1733  0.5145  0.6609
 6635SOL    HW121912   0.733  10.150   5.202 -1.3894  2.5353 -1.7412
 6635SOL    HW221913   0.642  10.101   5.091 -1.1142 -2.7519  0.1040
 6636SOL     OW21914   1.724   9.729   5.643  0.2433 -0.0657  0.2736
 6636SOL    HW121915   1.630   9.738   5.655  0.0454 -0.0276 -1.0584
 6636SOL    HW221916   1.763   9.800   5.694 -0.7052  2.4721 -2.2456
 6637SOL     OW21917  10.892   7.338   8.983  0.2049  0.0527  0.6151
 6637SOL    HW121918  10.907   7.354   8.890 -0.2218  0.8879  0.6856
 6637SOL    HW221919  10.975   7.302   9.015  0.6368  0.5706  0.1008
 6638SOL     OW21920   9.026   6.789   5.447 -0.1063 -0.1784  0.3286
 6638SOL    HW121921   8.976   6.854   5.496  0.1746 -1.3297  2.2578
 6638SOL    HW221922   8.992   6.705   5.478  1.5234 -0.9653  0.0783
 6639SOL     OW21923   2.376   5.109   8.025 -0.2575  0.4077 -0.2639
 6639SOL    HW121924   2.349   5.018   8.019  0.2533  0.3276 -2.2053
 6639SOL    HW221925   2.472   5.106   8.026 -0.2373  0.8922  0.8921
 6640SOL     OW21926   2.667   7.610   5.186 -0.5330  0.2416  0.0185
 6640SOL    HW121927   2.714   7.579   5.265  1.0044  0.6090 -0.7092
 6640SOL    HW221928   2.614   7.683   5.217  1.0474  1.2330  0.5285
 6641SOL     OW21929   8.516   6.810   1.191 -0.2024  0.0692 -0.1895
 6641SOL    HW121930   8.525   6.739   1.254  2.4005 -0.2723 -0.8197
 6641SOL    HW221931   8.421   6.822   1.180 -0.6954 -1.5660  1.8184
 6642SOL     OW21932   1.401   7.628   8.453  0.0653  0.2723 -0.9095
 6642SOL    HW121933   1.379   7.654   8.542  3.3223 -0.1019  0.1585
 6642SOL    HW221934   1.318   7.602   8.414 -1.7761  2.3474  1.3218
 6643SOL     OW21935   0.313   2.468   2.200  0.5546 -0.2116 -0.1127
 6643SOL    HW121936   0.407   2.468   2.216  0.6601  0.8197 -0.6865
 6643SOL    HW221937   0.286   2.378   2.218  1.5072 -0.3206  0.8374
 6644SOL     OW21938   3.931  10.834  10.370 -0.3136  0.4048 -0.1537
 6644SOL    HW121939   3.886  10.752  10.393 -0.5368 -0.0229 -1.9559
 6644SOL    HW221940   4.013  10.830  10.419 -1.1920  0.0901  1.3627
 6645SOL     OW21941  10.419   8.853   7.021 -0.3163  0.1958 -0.2414
 6645SOL    HW121942  10.478   8.847   6.946  0.2678 -1.3262  0.2835
 6645SOL    HW221943  10.376   8.767   7.024 -4.2763  1.8869 -1.9105
 6646SOL     OW21944   4.057   4.875   3.533 -0.6888  0.4275  0.2440
 6646SOL    HW121945   4.141   4.916   3.509 -0.8695 -0.1237 -1.4745
 6646SOL    HW221946   4.013   4.940   3.587  1.0020  0.5704  1.5362
 6647SOL     OW21947   1.928   8.824   7.648 -0.1116  0.0913 -0.1872
 6647SOL    HW121948   1.920   8.919   7.632 -0.1184 -0.0213 -0.8742
 6647SOL    HW221949   1.970   8.790   7.570  4.2512  0.1319  1.8808
 6648SOL     OW21950   6.932  10.839   3.764 -0.3983 -0.1585  0.2613
 6648SOL    HW121951   6.968  10.862   3.679 -0.3817  0.6144  0.4676
 6648SOL    HW221952   7.008  10.833   3.822 -0.4534 -0.1632  0.3339
 6649SOL     OW21953   1.200   1.433   3.930  0.4576 -0.3525  0.6371
 6649SOL    HW121954   1.162   1.367   3.872 -0.1937 -0.0885  0.7578
 6649SOL    HW221955   1.178   1.516   3.889  0.4315 -0.1802  1.0003
 6650SOL     OW21956   3.216   0.768  10.304 -0.2352  0.3281 -0.4426
 6650SOL    HW121957   3.171   0.852  10.309 -1.0013 -0.0447 -0.9465
 6650SOL    HW221958   3.294   0.785  10.251  0.3860  1.0340  0.6554
 6651SOL     OW21959   1.692   7.796   3.986  0.4344  0.1378 -0.5809
 6651SOL    HW121960   1.636   7.829   3.915 -0.0526  2.0269  0.5975
 6651SOL    HW221961   1.656   7.711   4.008 -2.4918  1.5121  0.5375
 6652SOL     OW21962   0.120   8.027   4.726 -0.6252  0.8044 -0.0367
 6652SOL    HW121963   0.057   8.099   4.734  0.5342  1.7788  0.4525
 6652SOL    HW221964   0.137   8.000   4.816 -1.7529 -0.7396 -0.2451
 6653SOL     OW21965   8.297   0.964   6.248 -0.0081  0.3571 -0.0144
 6653SOL    HW121966   8.358   0.992   6.316  1.2360  0.9490 -1.3170
 6653SOL    HW221967   8.341   0.890   6.205 -1.4622 -1.0229  0.7704
 6654SOL     OW21968   6.277   5.992   2.786 -0.2943  0.8004  0.2946
 6654SOL    HW121969   6.188   5.972   2.817  0.2265 -0.6793  0.8953
 6654SOL    HW221970   6.263   6.056   2.715 -2.0147 -0.9452 -1.0563
 6655SOL     OW21971   0.354   6.130   1.960 -0.1994 -0.0435  0.6078
 6655SOL    HW121972   0.327   6.045   1.927 -1.0250  0.0606  0.9870
 6655SOL    HW221973   0.443   6.116   1.994 -0.9987 -1.2333  2.3999
 6656SOL     OW21974   5.192   6.469   2.684  0.3287  0.5663 -0.1780
 6656SOL    HW121975   5.218   6.461   2.776  0.0072 -0.9599 -0.1843
 6656SOL    HW221976   5.100   6.495   2.687 -0.1970 -1.1532  0.0107
 6657SOL     OW21977   4.474   0.342   8.089  0.0000 -0.3014  0.0528
 6657SOL    HW121978   4.546   0.303   8.139  2.0997  1.6560 -1.2587
 6657SOL    HW221979   4.414   0.376   8.156  1.0765 -0.6271  1.2105
 6658SOL     OW21980   9.362   6.603   4.859  0.3725 -0.2224 -0.5856
 6658SOL    HW121981   9.447   6.598   4.902  0.6954  0.6649 -1.1010
 6658SOL    HW221982   9.359   6.691   4.821  0.7644 -1.4355 -3.7224
 6659SOL     OW21983   7.303   1.128   2.995  0.2542 -0.1701  0.1608
 6659SOL    HW121984   7.300   1.036   2.971 -0.6843  0.4023 -2.2451
 6659SOL    HW221985   7.375   1.135   3.057  1.2571 -2.2948 -0.6791
 6660SOL     OW21986   2.693   4.593   1.327 -0.4503  0.1255  0.1166
 6660SOL    HW121987   2.627   4.660   1.306 -0.7211  0.0214  0.6129
 6660SOL    HW221988   2.643   4.519   1.360 -0.2594 -0.8670 -1.7103
 6661SOL     OW21989   5.018   4.392   5.162 -0.2225 -0.1299  0.0949
 6661SOL    HW121990   5.057   4.418   5.078 -1.4209  0.5674 -0.2751
 6661SOL    HW221991   4.927   4.371   5.141 -0.6420  0.4018  1.2744
 6662SOL     OW21992   5.986   0.259   1.855  0.0936 -0.3239 -0.0401
 6662SOL    HW121993   5.918   0.192   1.851 -0.3013  0.0358  0.5339
 6662SOL    HW221994   5.969   0.306   1.936  0.3495  0.4919 -0.4490
 6663SOL     OW21995   6.508   9.272   1.500 -0.4315  0.7883  0.6777
 6663SOL    HW121996   6.511   9.246   1.592 -0.3039  1.6116  0.9143
 6663SOL    HW221997   6.559   9.206   1.454 -3.9795 -2.1642  0.5489
 6664SOL     OW21998   6.089   9.633   1.830 -0.3802 -0.0435 -0.2363
 6664SOL    HW121999   6.184   9.639   1.827 -0.3666  1.2693  1.3628
 6664SOL    HW222000   6.058   9.712   1.785 -0.6119  0.9966  1.6272
 6665SOL     OW22001   7.129   5.442   0.711 -0.2386 -0.1873  0.5144
 6665SOL    HW122002   7.181   5.447   0.630  0.5014  1.0741  1.0207
 6665SOL    HW222003   7.084   5.358   0.706  0.1082 -0.3182 -1.0158
 6666SOL     OW22004   6.473   0.318   3.244 -0.6168  0.0621 -0.0231
 6666SOL    HW122005   6.538   0.286   3.307 -0.3666  0.7266  0.0604
 6666SOL    HW222006   6.506   0.286   3.159 -0.2709  0.2413  0.0396
 6667SOL     OW22007   4.556   6.407   2.961 -0.2103  0.5725 -0.1393
 6667SOL    HW122008   4.642   6.388   2.998 -0.1758  1.3619  0.2028
 6667SOL    HW222009   4.560   6.369   2.873 -0.2617 -1.2332  0.5808
 6668SOL     OW22010   6.123   8.891   4.283  0.0848 -0.1135  0.2610
 6668SOL    HW122011   6.204   8.939   4.264  0.2133 -0.4878 -0.1802
 6668SOL    HW222012   6.111   8.900   4.377 -1.0821  2.6574 -0.0480
 6669SOL     OW22013   0.553   2.371  10.232 -0.1163 -0.1427 -0.1032
 6669SOL    HW122014   0.546   2.455  10.186 -0.4009 -0.7450 -1.1991
 6669SOL    HW222015   0.592   2.393  10.316 -1.3870  1.2665  0.1568
 6670SOL     OW22016  10.291   6.631   4.529  0.4666 -0.1784  0.0876
 6670SOL    HW122017  10.255   6.659   4.613 -0.1190  0.9677 -0.5345
 6670SOL    HW222018  10.216   6.629   4.470  0.7131 -1.8175 -0.2280
 6671SOL     OW22019   4.456  10.113   2.131  0.2178 -0.5247 -0.5745
 6671SOL    HW122020   4.470  10.147   2.219  1.5190 -0.5278 -0.7600
 6671SOL    HW222021   4.530  10.054   2.116  1.2393  1.1038 -2.4529
 6672SOL     OW22022   2.067   1.143  10.427  0.7900  0.0893 -0.0416
 6672SOL    HW122023   2.135   1.109  10.485  2.3870 -1.1950 -2.4695
 6672SOL    HW222024   2.028   1.215  10.475  2.4190 -0.5111  2.3393
 6673SOL     OW22025   1.791  10.520   4.980 -0.6033 -0.5718  0.0181
 6673SOL    HW122026   1.800  10.533   4.885 -0.0815  1.0638  0.2573
 6673SOL    HW222027   1.859  10.457   5.002  0.2394  0.1169 -0.5148
 6674SOL     OW22028   5.407   7.578   2.014  0.0748 -0.2856 -0.1056
 6674SOL    HW122029   5.419   7.579   1.919  1.8077  1.5539  0.0594
 6674SOL    HW222030   5.313   7.593   2.027 -0.2637 -1.0687 -1.5178
 6675SOL     OW22031   6.075   5.284   7.018 -0.7850 -0.5574  0.0360
 6675SOL    HW122032   6.151   5.244   6.976  0.1210 -0.0363  1.1092
 6675SOL    HW222033   6.046   5.351   6.956  2.0224  1.8984  1.0995
 6676SOL     OW22034   4.615   6.548   6.705 -0.6453 -0.1438 -0.0406
 6676SOL    HW122035   4.693   6.556   6.651 -0.8401  1.5363 -0.1325
 6676SOL    HW222036   4.569   6.472   6.669  0.2542 -0.3258 -0.8671
 6677SOL     OW22037   8.869   0.609   2.601  1.1826  0.0083  0.2990
 6677SOL    HW122038   8.957   0.603   2.637  1.4623  2.5472  0.2313
 6677SOL    HW222039   8.872   0.686   2.543 -0.6737 -0.7549 -0.9151
 6678SOL     OW22040   3.410   4.470   9.894  0.3443  0.7269  0.0359
 6678SOL    HW122041   3.362   4.549   9.868  0.0116  0.7477  0.6778
 6678SOL    HW222042   3.475   4.501   9.957  1.3222  0.7208 -0.9667
 6679SOL     OW22043   0.112   0.531   3.257  0.0357  0.1438  0.1246
 6679SOL    HW122044   0.062   0.608   3.283  0.8558  0.0093  2.3561
 6679SOL    HW222045   0.052   0.479   3.205 -1.0327  1.5488 -0.0956
 6680SOL     OW22046  11.092   7.779   4.113  0.1922 -0.1149  0.2279
 6680SOL    HW122047  11.184   7.798   4.130  0.6072 -1.4566 -0.3650
 6680SOL    HW222048  11.088   7.770   4.017 -0.4933 -0.3815  0.2825
 6681SOL     OW22049   5.241   9.703   3.373 -0.8327 -0.1120 -0.1731
 6681SOL    HW122050   5.255   9.688   3.466 -1.1293 -2.9020 -0.4680
 6681SOL    HW222051   5.177   9.774   3.369  1.3995  2.1980  1.5798
 6682SOL     OW22052   6.190   7.790   8.093 -0.7826  0.5567 -0.3133
 6682SOL    HW122053   6.246   7.857   8.054 -2.0754  0.8250 -1.8338
 6682SOL    HW222054   6.251   7.727   8.131  0.6253  0.3030 -2.7915
 6683SOL     OW22055   9.637   8.606   2.284 -0.0565  0.3651  0.1598
 6683SOL    HW122056   9.643   8.701   2.274  0.5384  0.4545  1.2095
 6683SOL    HW222057   9.558   8.592   2.336  0.4715  0.3750  0.9802
 6684SOL     OW22058   5.299   0.165  10.296  0.1149  0.2408  0.8122
 6684SOL    HW122059   5.295   0.241  10.238  1.7496  1.9087  2.7371
 6684SOL    HW222060   5.377   0.117  10.269 -0.7515 -0.6335 -0.2091
 6685SOL     OW22061   2.255   8.976  10.916 -0.5725 -0.1632  0.3932
 6685SOL    HW122062   2.206   8.951  10.837  0.4819 -0.8585 -0.0559
 6685SOL    HW222063   2.281   8.892  10.955 -0.3024  0.1960  0.9927
 6686SOL     OW22064   0.028   6.276   2.228  0.4389 -0.3552 -0.9042
 6686SOL    HW122065   0.077   6.321   2.159  0.2004  2.3971  0.5557
 6686SOL    HW222066  -0.063   6.280   2.200  0.2716  1.2804 -0.2851
 6687SOL     OW22067  11.075   3.065   7.026 -0.1502  0.3869 -0.0460
 6687SOL    HW122068  11.088   3.017   6.944 -0.7874  0.8655 -0.4364
 6687SOL    HW222069  11.067   2.996   7.092 -1.1990 -0.0618 -0.6209
 6688SOL     OW22070   6.790   7.374   8.458 -0.2630 -0.3218 -0.2401
 6688SOL    HW122071   6.874   7.358   8.415  0.8930  1.4681  1.2013
 6688SOL    HW222072   6.761   7.288   8.488 -1.0608 -1.6540 -4.2777
 6689SOL     OW22073   2.413   2.302   3.904  0.5107  0.4974  0.7362
 6689SOL    HW122074   2.475   2.353   3.955 -1.0215  0.8496  2.3507
 6689SOL    HW222075   2.463   2.226   3.875  1.1711 -0.5112  4.0625
 6690SOL     OW22076   2.268  10.410   7.785 -0.0797 -0.7681 -0.0453
 6690SOL    HW122077   2.298  10.328   7.823 -1.1933 -0.3566  1.8839
 6690SOL    HW222078   2.203  10.443   7.848  1.6915  2.5253  0.2583
 6691SOL     OW22079   2.257   8.444  10.343  0.5597  0.3678 -0.1354
 6691SOL    HW122080   2.299   8.527  10.319 -0.8647  1.4962  1.0566
 6691SOL    HW222081   2.167   8.468  10.364  0.4127 -1.2926  1.3586
 6692SOL     OW22082   9.543   7.790   6.501  0.2482  0.4952  0.1674
 6692SOL    HW122083   9.500   7.783   6.415 -1.1710  0.3490  0.8644
 6692SOL    HW222084   9.473   7.814   6.561  1.2159  0.5392  1.3114
 6693SOL     OW22085   3.227  10.788   0.493  0.0156 -0.9001  0.1112
 6693SOL    HW122086   3.164  10.823   0.430 -1.6394 -1.7360  1.2361
 6693SOL    HW222087   3.267  10.865   0.533 -0.6128 -0.3545 -0.3043
 6694SOL     OW22088   0.247   7.262   8.526  0.0893  0.6147  0.1151
 6694SOL    HW122089   0.243   7.242   8.432  0.8377  0.1788  0.1621
 6694SOL    HW222090   0.296   7.188   8.564  0.5881  1.2309  0.7057
 6695SOL     OW22091   2.013   5.991   2.055 -0.7402  0.0631 -0.0098
 6695SOL    HW122092   1.975   5.906   2.033 -0.8954  0.0841  0.1808
 6695SOL    HW222093   2.049   5.979   2.143 -2.2618  0.6924  0.7217
 6696SOL     OW22094   4.324   7.111   7.119 -0.5290  0.3692 -0.2479
 6696SOL    HW122095   4.319   7.109   7.023 -0.4797 -0.5589 -0.2443
 6696SOL    HW222096   4.351   7.022   7.143  0.5924  0.9045  0.5621
 6697SOL     OW22097   2.449   2.721   6.909  0.0913  0.0615  0.2691
 6697SOL    HW122098   2.423   2.667   6.984 -0.4929 -0.7215 -0.4752
 6697SOL    HW222099   2.369   2.729   6.857 -0.0335  2.2528  0.6994
 6698SOL     OW22100   8.846   6.004   5.410 -0.5785  0.4029  0.7887
 6698SOL    HW122101   8.867   5.966   5.325 -0.2477  0.8911  0.6523
 6698SOL    HW222102   8.762   6.048   5.396  0.4027  2.1667  0.1789
 6699SOL     OW22103   1.086   6.186   6.143 -0.0358 -0.0207 -0.1855
 6699SOL    HW122104   1.001   6.229   6.157 -1.2545 -2.0877 -0.7764
 6699SOL    HW222105   1.090   6.170   6.049 -0.9211 -3.4728  0.2353
 6700SOL     OW22106   2.126   7.917   1.938 -0.7206 -0.2712  0.4989
 6700SOL    HW122107   2.193   7.882   1.879  1.6747  1.7501  1.8159
 6700SOL    HW222108   2.085   7.988   1.889 -1.2686 -0.9119  0.0199
 6701SOL     OW22109   9.177   0.537   4.444  0.8157 -0.3920  0.0650
 6701SOL    HW122110   9.105   0.586   4.485  0.1838 -1.7548  0.6344
 6701SOL    HW222111   9.239   0.605   4.418 -0.0817  0.7306  0.7125
 6702SOL     OW22112   5.384   0.211   8.584 -0.2291  0.2573  0.1740
 6702SOL    HW122113   5.422   0.149   8.647 -0.5614 -0.3036 -0.1652
 6702SOL    HW222114   5.457   0.268   8.560 -0.4454  1.5305  2.2615
 6703SOL     OW22115   2.613   4.765   3.433 -0.6320 -0.5553  0.4935
 6703SOL    HW122116   2.552   4.796   3.365 -0.1649 -0.4781  0.0990
 6703SOL    HW222117   2.561   4.707   3.488 -1.3010  0.2298  0.7089
 6704SOL     OW22118   5.565   0.349   0.003 -0.1538  0.2405  0.3397
 6704SOL    HW122119   5.587   0.415  -0.063 -0.9524  0.0654 -0.1228
 6704SOL    HW222120   5.533   0.399   0.078  0.9150  0.4495  0.6654
 6705SOL     OW22121   6.778   3.721  10.366  0.1224  0.1752  0.2337
 6705SOL    HW122122   6.756   3.676  10.448 -1.0769  1.3666  0.6020
 6705SOL    HW222123   6.867   3.752  10.379 -0.0912  0.4335  1.1355
 6706SOL     OW22124   3.503   8.381   2.408  0.1925  0.2652  0.3847
 6706SOL    HW122125   3.490   8.347   2.320 -0.2969  0.0243  0.5497
 6706SOL    HW222126   3.572   8.446   2.398  0.4155 -0.0391 -0.1098
 6707SOL     OW22127   2.003   9.942   7.846  0.5644  0.3301  0.1166
 6707SOL    HW122128   2.073   9.877   7.837  0.8108  0.6918 -0.7770
 6707SOL    HW222129   1.968   9.951   7.757  0.9841  1.8944  0.0820
 6708SOL     OW22130   7.707   5.291   3.098  0.1225  0.3302 -0.2723
 6708SOL    HW122131   7.792   5.307   3.056 -1.0279 -0.4093 -3.0571
 6708SOL    HW222132   7.643   5.310   3.030 -2.0087  1.0684  1.8320
 6709SOL     OW22133   4.468   4.674  10.653  0.1540  0.4594  0.3136
 6709SOL    HW122134   4.416   4.751  10.632 -0.2972 -0.2401 -1.2983
 6709SOL    HW222135   4.500   4.642  10.569 -0.1817 -1.4587  0.8597
 6710SOL     OW22136   6.951   4.042   0.552  0.2916 -0.0965 -0.0087
 6710SOL    HW122137   7.030   4.084   0.584 -0.5670  0.4636  1.4981
 6710SOL    HW222138   6.958   3.952   0.584 -0.9932  0.6770  2.8386
 6711SOL     OW22139   3.744   7.343   0.996  0.1818 -0.2267  0.3153
 6711SOL    HW122140   3.740   7.416   0.934 -3.3244 -0.0786  0.5177
 6711SOL    HW222141   3.714   7.267   0.946  0.0264 -0.7138  1.1302
 6712SOL     OW22142   7.261   0.542  10.559 -0.5660  0.7627  0.7240
 6712SOL    HW122143   7.217   0.591  10.490 -0.6068  1.9596  1.5796
 6712SOL    HW222144   7.299   0.466  10.514 -4.5440 -1.1142  0.1316
 6713SOL     OW22145   1.377   1.991   3.332  0.0379 -0.5142 -0.0819
 6713SOL    HW122146   1.287   2.005   3.303  0.3005 -0.6957 -1.0576
 6713SOL    HW222147   1.412   2.078   3.346  0.0903 -0.3821 -0.9714
 6714SOL     OW22148   4.033   9.061   5.831 -0.3321  0.0833  0.6636
 6714SOL    HW122149   3.990   9.124   5.774 -1.8688 -0.9374  0.6522
 6714SOL    HW222150   4.079   9.115   5.896  0.4301  1.2289 -0.7817
 6715SOL     OW22151   4.705   4.339   1.996 -0.3863 -0.0923  0.1678
 6715SOL    HW122152   4.796   4.353   2.022  0.2743 -1.2667 -1.4279
 6715SOL    HW222153   4.654   4.369   2.072  1.2054  2.6654  0.2619
 6716SOL     OW22154   0.927   4.452   4.459  0.4032 -0.0057  0.1030
 6716SOL    HW122155   0.868   4.461   4.384  0.2348  1.5501  0.3905
 6716SOL    HW222156   0.907   4.526   4.515  1.3895 -0.4553  1.0986
 6717SOL     OW22157   0.174   9.981   7.531 -0.1470  0.2405  0.2765
 6717SOL    HW122158   0.164   9.905   7.474 -0.5659 -0.4869  1.2959
 6717SOL    HW222159   0.198   9.944   7.616  0.0194  1.2775  0.6915
 6718SOL     OW22160   9.681  10.075   3.040  0.7254 -0.3008  0.0599
 6718SOL    HW122161   9.610  10.012   3.051  0.5723 -0.0074  0.7346
 6718SOL    HW222162   9.759  10.029   3.073  0.5401  0.0176  0.9375
 6719SOL     OW22163   9.255   0.369   9.770 -0.7220 -0.2470  0.5983
 6719SOL    HW122164   9.226   0.282   9.799 -0.0704 -0.5189  0.4629
 6719SOL    HW222165   9.326   0.391   9.830 -1.3446  0.5107  1.0728
 6720SOL     OW22166   3.994   2.477   6.114  0.0297 -0.0195 -0.2902
 6720SOL    HW122167   4.002   2.390   6.074 -1.0534 -0.3555  0.2087
 6720SOL    HW222168   3.993   2.537   6.039  0.3877 -0.4532 -0.6559
 6721SOL     OW22169   6.015   6.761   0.114 -0.2913 -0.4213 -0.0789
 6721SOL    HW122170   5.989   6.690   0.056  0.2716 -1.8993  1.3956
 6721SOL    HW222171   5.963   6.748   0.193  0.3176  0.3912  0.4746
 6722SOL     OW22172   2.334   0.677   1.372  0.1774  0.0125  0.1103
 6722SOL    HW122173   2.340   0.676   1.277 -0.3042  1.3058  0.0476
 6722SOL    HW222174   2.311   0.767   1.394 -0.6077 -0.4700  1.3987
 6723SOL     OW22175   6.093   8.681   6.803  0.3186 -0.0629 -0.0106
 6723SOL    HW122176   6.130   8.745   6.863 -0.6466 -0.9541  1.6018
 6723SOL    HW222177   6.153   8.607   6.806 -1.2568 -1.3815  2.3681
 6724SOL     OW22178   6.555  10.220   0.327  0.2014 -0.1367 -0.5128
 6724SOL    HW122179   6.610  10.162   0.379  0.8271 -1.3653 -2.4177
 6724SOL    HW222180   6.469  10.216   0.368  0.2909 -2.2388 -0.4294
 6725SOL     OW22181   4.076   6.366   3.900  0.3702  0.0936 -0.7357
 6725SOL    HW122182   4.067   6.295   3.964  0.7980  0.3843 -0.3457
 6725SOL    HW222183   4.170   6.384   3.897  0.3282  0.2307 -1.2872
 6726SOL     OW22184   1.793   7.981   4.408  0.3743 -0.3915 -0.4097
 6726SOL    HW122185   1.857   7.947   4.345 -0.0424 -0.3343 -0.8754
 6726SOL    HW222186   1.708   7.949   4.375  0.0363  0.6070 -0.5399
 6727SOL     OW22187  10.748   9.742   6.867 -0.3427 -0.1483  0.3614
 6727SOL    HW122188  10.808   9.754   6.794 -0.6783  0.5160  0.1881
 6727SOL    HW222189  10.661   9.742   6.827 -0.5001 -0.3645  0.6964
 6728SOL     OW22190   3.479   5.191   9.286 -0.6922  0.1933 -0.4090
 6728SOL    HW122191   3.486   5.095   9.293  1.8013  0.1902 -1.8401
 6728SOL    HW222192   3.512   5.211   9.198 -1.5279  2.3650 -0.2839
 6729SOL     OW22193   6.802  11.026   8.775 -1.1121 -0.0811  0.0505
 6729SOL    HW122194   6.759  11.066   8.850 -0.0264  0.6129  0.3235
 6729SOL    HW222195   6.851  10.953   8.812  0.0518  0.7311  0.1613
 6730SOL     OW22196   0.944  10.442  10.475 -0.3395 -0.3739 -0.2992
 6730SOL    HW122197   0.997  10.479  10.405 -1.7114  0.9919 -0.6881
 6730SOL    HW222198   0.988  10.470  10.556 -0.4892  0.8280 -0.6121
 6731SOL     OW22199   2.135   4.747   6.178  0.3417 -0.2896  0.3773
 6731SOL    HW122200   2.085   4.828   6.191 -3.1742 -1.9379 -1.4677
 6731SOL    HW222201   2.131   4.703   6.263 -2.9388 -1.0699 -0.0505
 6732SOL     OW22202   8.056   0.440   7.031  0.3493 -0.0331 -0.4045
 6732SOL    HW122203   8.053   0.442   7.126  1.5161 -1.5335 -0.3120
 6732SOL    HW222204   7.965   0.453   7.004 -0.1859 -0.7845  0.9557
 6733SOL     OW22205   7.161   0.855   9.028  0.4057 -0.9381 -0.4018
 6733SOL    HW122206   7.159   0.868   9.123 -0.3939  1.3536 -0.6804
 6733SOL    HW222207   7.251   0.876   9.003 -0.0985  1.3369 -0.4564
 6734SOL     OW22208   3.873   1.212   9.045  0.6362  0.1458 -0.5542
 6734SOL    HW122209   3.790   1.200   9.092  0.0439  4.1284 -0.2549
 6734SOL    HW222210   3.848   1.226   8.954  1.0543  0.5453 -0.6124
 6735SOL     OW22211   5.104   9.331   2.067  0.1154  0.9647  0.8606
 6735SOL    HW122212   5.160   9.407   2.049  1.1061 -0.0730 -0.6654
 6735SOL    HW222213   5.108   9.319   2.162  1.9704  1.3011  0.8441
 6736SOL     OW22214  10.139   2.512   9.177  0.1842 -0.4241 -0.0604
 6736SOL    HW122215  10.111   2.471   9.095 -2.0161 -1.4433  1.1135
 6736SOL    HW222216  10.156   2.438   9.236 -1.1225  0.2820  1.2574
 6737SOL     OW22217   4.879   2.578   3.850  0.0818  0.4852  0.2026
 6737SOL    HW122218   4.926   2.606   3.772 -0.3219 -1.8096 -0.9457
 6737SOL    HW222219   4.935   2.511   3.890 -0.1350  0.9831  1.3937
 6738SOL     OW22220   9.140   8.544   9.107 -0.6835  0.0349 -0.8093
 6738SOL    HW122221   9.168   8.516   9.020 -1.3654 -1.2401 -0.6394
 6738SOL    HW222222   9.173   8.476   9.166  0.3053  1.2013  0.0316
 6739SOL     OW22223   4.760   7.417   7.568 -0.0035  0.2819  0.1810
 6739SOL    HW122224   4.683   7.453   7.613 -0.1243  1.1011 -0.6356
 6739SOL    HW222225   4.780   7.336   7.614 -0.4874  0.7939  1.3114
 6740SOL     OW22226   1.660   5.033  10.081 -0.0764 -0.6101 -0.3405
 6740SOL    HW122227   1.584   5.048  10.024 -0.7635  0.3000  0.7607
 6740SOL    HW222228   1.658   4.939  10.099 -1.5080 -0.4819  0.3679
 6741SOL     OW22229   5.388   5.122   4.878 -0.4879  0.1299  0.3922
 6741SOL    HW122230   5.355   5.104   4.791 -0.5272 -1.2069  0.6598
 6741SOL    HW222231   5.338   5.198   4.908  0.6839  1.6946 -1.3535
 6742SOL     OW22232   2.959   0.989   5.021 -0.1634 -0.1127  0.0824
 6742SOL    HW122233   2.978   1.040   5.100 -2.4263  0.1738  0.5003
 6742SOL    HW222234   2.935   0.902   5.054  0.9321 -0.6353 -0.4481
 6743SOL     OW22235   8.254   9.604   8.255 -0.3102 -0.5552 -0.7346
 6743SOL    HW122236   8.301   9.535   8.302  0.9939 -0.0606 -1.2843
 6743SOL    HW222237   8.311   9.626   8.181 -0.6118  1.2482 -0.4723
 6744SOL     OW22238   0.688   8.524   5.060 -0.1209  0.5395 -0.3270
 6744SOL    HW122239   0.620   8.466   5.024  2.9915 -1.9023 -2.9682
 6744SOL    HW222240   0.767   8.499   5.012  2.3892  4.1727  1.5122
 6745SOL     OW22241   0.947   8.934   5.217 -0.0093 -0.1064  0.2791
 6745SOL    HW122242   0.969   8.942   5.310 -0.1815 -2.6542  0.6066
 6745SOL    HW222243   0.864   8.886   5.216  0.7739 -1.5266 -1.1890
 6746SOL     OW22244   1.112   1.674   3.118  0.0772 -0.1551  0.6089
 6746SOL    HW122245   1.020   1.651   3.105  0.4225 -0.7191 -1.1504
 6746SOL    HW222246   1.137   1.717   3.036  1.1603  0.7971  1.4003
 6747SOL     OW22247   6.600   2.791   2.546 -0.0550 -0.2331 -0.7992
 6747SOL    HW122248   6.643   2.773   2.630 -0.6392  2.3715  0.1575
 6747SOL    HW222249   6.513   2.823   2.571  0.6992  3.2852 -2.1567
 6748SOL     OW22250   0.192   9.693   0.859 -0.3452 -0.5218  0.0969
 6748SOL    HW122251   0.271   9.654   0.823  0.2334  0.1953  0.5684
 6748SOL    HW222252   0.173   9.767   0.801  0.1509  0.1671  0.7923
 6749SOL     OW22253   1.586   0.952   4.044 -0.0018 -0.7991 -0.1655
 6749SOL    HW122254   1.638   0.876   4.069  3.5953  1.8998  1.3237
 6749SOL    HW222255   1.561   0.992   4.127  3.1220  2.5832 -0.6221
 6750SOL     OW22256   0.185   7.057  10.927 -0.2703  0.1088  0.2748
 6750SOL    HW122257   0.191   7.023  10.838 -1.5259  2.0054 -0.6045
 6750SOL    HW222258   0.269   7.099  10.943 -0.4687  0.8443 -0.5238
 6751SOL     OW22259   8.057   2.961   2.668  0.5333 -0.2772 -0.0274
 6751SOL    HW122260   7.975   2.985   2.624 -0.1477 -1.3653  0.5742
 6751SOL    HW222261   8.059   2.865   2.663  1.6908 -0.2702  0.1254
 6752SOL     OW22262   1.726   4.543   6.375  0.0613  0.6353 -0.3427
 6752SOL    HW122263   1.732   4.542   6.280  1.2858  2.1466 -0.3181
 6752SOL    HW222264   1.671   4.618   6.395  0.2860  0.6743  0.1484
 6753SOL     OW22265   0.318  10.418   2.961  0.7235 -0.4034 -0.5369
 6753SOL    HW122266   0.264  10.425   2.883 -0.4486 -1.6221  0.1127
 6753SOL    HW222267   0.270  10.358   3.018  1.6130  0.3266  1.0581
 6754SOL     OW22268   3.666   3.610   1.918 -0.3234 -0.2596 -0.5941
 6754SOL    HW122269   3.670   3.536   1.979  0.4689 -1.6329 -2.2064
 6754SOL    HW222270   3.757   3.623   1.891 -0.6438  0.3618 -1.4007
 6755SOL     OW22271   4.792  10.829   7.457 -0.0224  0.3189 -0.2137
 6755SOL    HW122272   4.773  10.793   7.544  2.8701 -1.0470 -0.0323
 6755SOL    HW222273   4.807  10.752   7.402  2.6593  1.1251 -0.7628
 6756SOL     OW22274   6.375   7.954   7.606 -0.1817 -0.0880 -0.3736
 6756SOL    HW122275   6.432   7.990   7.537  1.4193  0.4698  1.1714
 6756SOL    HW222276   6.339   7.874   7.567 -0.7714  1.1321 -2.4987
 6757SOL     OW22277   3.010   2.987   0.452 -0.3433  0.1508  0.2932
 6757SOL    HW122278   2.974   3.003   0.539  1.2829  1.3905  0.7965
 6757SOL    HW222279   3.104   2.981   0.466 -0.1270 -0.4818 -1.2786
 6758SOL     OW22280   6.372   6.798   3.270  0.0526  0.5517  0.2702
 6758SOL    HW122281   6.408   6.853   3.199 -0.0359  0.1602 -0.0783
 6758SOL    HW222282   6.437   6.728   3.280  0.1147  0.6648  0.6472
 6759SOL     OW22283   5.010   5.167   5.556 -0.4056 -0.3524  0.3366
 6759SOL    HW122284   5.082   5.144   5.498  0.7900  1.3120  1.0839
 6759SOL    HW222285   5.024   5.113   5.634 -0.6043 -0.8210  0.0486
 6760SOL     OW22286   2.204   9.107   3.351 -0.4936 -0.3986 -0.1018
 6760SOL    HW122287   2.255   9.026   3.353 -0.1783 -0.1830  0.8640
 6760SOL    HW222288   2.246   9.159   3.282  0.3293 -0.3978  0.3905
 6761SOL     OW22289   7.284   4.102   2.521  0.3878  0.2297  0.3014
 6761SOL    HW122290   7.191   4.122   2.505  0.7410  0.3576 -1.9035
 6761SOL    HW222291   7.296   4.121   2.614 -2.3218 -2.0292  1.2793
 6762SOL     OW22292   8.793   4.196  10.240  0.0707  0.4497  0.7184
 6762SOL    HW122293   8.789   4.218  10.147  1.2194 -0.6902  0.3835
 6762SOL    HW222294   8.847   4.265  10.279  2.2914 -0.7563 -0.0457
 6763SOL     OW22295   4.069   9.343   6.872  0.2547 -0.4620 -0.4929
 6763SOL    HW122296   4.106   9.264   6.832  1.7564  0.7113 -1.5540
 6763SOL    HW222297   4.025   9.388   6.800 -3.0638 -1.5842  0.6466
 6764SOL     OW22298  11.038   4.011   7.263  0.6956 -0.9775  0.3862
 6764SOL    HW122299  11.124   4.008   7.220  1.1176  1.4415  0.8675
 6764SOL    HW222300  11.047   3.956   7.340  1.6404 -1.2217  0.1121
 6765SOL     OW22301   6.273   2.113   9.482  0.3672 -0.1107 -0.1771
 6765SOL    HW122302   6.198   2.125   9.425 -0.2309  1.2626  0.8499
 6765SOL    HW222303   6.343   2.165   9.443  0.9194 -1.5722 -1.2619
 6766SOL     OW22304   8.778   9.605   9.447 -0.7169 -0.0921  0.3320
 6766SOL    HW122305   8.839   9.532   9.438 -0.1614  0.0810  2.1577
 6766SOL    HW222306   8.832   9.678   9.476 -1.6071  0.3711  0.8981
 6767SOL     OW22307   6.149   3.529  10.611  0.9539  0.7885 -0.6125
 6767SOL    HW122308   6.170   3.597  10.547  0.7346 -1.3291 -3.0942
 6767SOL    HW222309   6.170   3.446  10.567  0.1048 -0.8496  1.8045
 6768SOL     OW22310   0.041   1.535   6.883 -0.2924  0.2484  0.1471
 6768SOL    HW122311  -0.020   1.577   6.943 -2.1114 -1.3606 -0.4444
 6768SOL    HW222312   0.042   1.443   6.910  1.0868  0.0427 -0.5144
 6769SOL     OW22313   4.707  10.815   1.055  0.1375 -0.4185  0.2522
 6769SOL    HW122314   4.796  10.829   1.024 -0.1766 -0.4245 -0.6848
 6769SOL    HW222315   4.691  10.887   1.116  1.3642 -1.3636  1.7598
 6770SOL     OW22316   8.932   0.362  10.856  0.3795 -0.4095 -0.4124
 6770SOL    HW122317   8.848   0.316  10.855 -0.6113  1.2931 -0.9317
 6770SOL    HW222318   8.943   0.391  10.946 -0.6668  1.1167 -0.7266
 6771SOL     OW22319  10.127   4.731   3.001  0.0645 -0.0973  0.1272
 6771SOL    HW122320  10.192   4.664   2.978 -1.5533 -1.1959 -1.6587
 6771SOL    HW222321  10.177   4.812   3.009  1.6246 -0.8047 -1.6058
 6772SOL     OW22322   2.295   7.186   9.898  0.1106  0.3185 -0.0385
 6772SOL    HW122323   2.212   7.199   9.852  0.8917 -0.3307 -1.6921
 6772SOL    HW222324   2.357   7.243   9.852  0.5680  0.9093  1.2689
 6773SOL     OW22325   1.950   9.582   2.455 -0.0414 -0.4597  0.3728
 6773SOL    HW122326   1.860   9.589   2.424 -0.5896 -3.4264  0.9764
 6773SOL    HW222327   1.991   9.665   2.429 -2.2407 -0.0165 -2.1717
 6774SOL     OW22328   4.858   3.546  10.685  0.8411  0.3102  0.0873
 6774SOL    HW122329   4.783   3.506  10.729  1.1285 -1.6625 -1.0839
 6774SOL    HW222330   4.931   3.534  10.746  1.0676 -1.6890 -0.4983
 6775SOL     OW22331  10.871   1.888  10.206 -0.4197 -0.0361 -0.1476
 6775SOL    HW122332  10.959   1.924  10.220 -0.7232  1.2170 -1.2033
 6775SOL    HW222333  10.858   1.827  10.279  1.2701 -0.1659  0.0919
 6776SOL     OW22334   9.739   4.661   0.616  0.4036 -0.5687  0.1126
 6776SOL    HW122335   9.651   4.651   0.578  0.2724  1.7643 -0.3552
 6776SOL    HW222336   9.768   4.571   0.633 -1.9084 -1.4282 -0.0636
 6777SOL     OW22337   0.567   2.814   3.359 -0.4653 -0.2889  0.2706
 6777SOL    HW122338   0.546   2.839   3.269 -0.2495 -0.7867  0.0807
 6777SOL    HW222339   0.657   2.844   3.372 -0.4700 -0.2866  0.2991
 6778SOL     OW22340   4.510   6.057   2.445  0.3373 -0.3153  0.4391
 6778SOL    HW122341   4.602   6.080   2.454  0.1080  1.0258 -0.4217
 6778SOL    HW222342   4.508   5.996   2.371  0.5855 -0.7331  0.7738
 6779SOL     OW22343   0.860   8.296   9.859  0.1352  0.2051 -0.0844
 6779SOL    HW122344   0.851   8.321   9.951 -1.5542  0.8748 -0.4022
 6779SOL    HW222345   0.905   8.370   9.818 -2.1756  1.5290 -0.4232
 6780SOL     OW22346   8.471   8.397   2.892 -0.3330  0.0043 -0.1355
 6780SOL    HW122347   8.451   8.306   2.869 -0.7554  0.3846 -1.3625
 6780SOL    HW222348   8.503   8.436   2.810 -0.0050  0.9222  0.4151
 6781SOL     OW22349   5.216   8.249   1.773  0.8368 -0.9111 -0.1609
 6781SOL    HW122350   5.307   8.221   1.770  0.5325 -1.8815 -1.2471
 6781SOL    HW222351   5.194   8.268   1.681  0.3695  0.7652  0.2631
 6782SOL     OW22352   2.288   5.032   9.359 -0.1126  0.0040  0.5153
 6782SOL    HW122353   2.362   5.012   9.416  0.1917 -2.6569 -0.6470
 6782SOL    HW222354   2.290   4.964   9.292 -1.2526  2.1851 -1.9314
 6783SOL     OW22355   4.285   5.996   5.129  0.5817  0.0543  0.6746
 6783SOL    HW122356   4.254   6.008   5.039 -0.5151 -0.1606  1.0051
 6783SOL    HW222357   4.372   5.957   5.119  0.6375  0.3886 -0.2945
 6784SOL     OW22358   0.720  10.095   7.371 -0.4550  0.2044 -0.2548
 6784SOL    HW122359   0.634  10.060   7.352 -0.4813  0.3726 -0.4475
 6784SOL    HW222360   0.703  10.170   7.429 -0.3190 -0.8381  1.1753
 6785SOL     OW22361   4.406   1.999  10.449 -0.4185  0.0760  0.2549
 6785SOL    HW122362   4.437   1.987  10.359 -0.0380 -2.4187  0.6505
 6785SOL    HW222363   4.314   1.971  10.446 -0.2061 -0.7013  0.7694
 6786SOL     OW22364   2.037   6.678   9.345  0.6875  0.0800 -0.6007
 6786SOL    HW122365   2.127   6.685   9.379  0.5844  1.0006 -0.4948
 6786SOL    HW222366   1.986   6.737   9.400  0.4326  1.2641 -2.0415
 6787SOL     OW22367   0.825  10.940   8.614 -0.6181  0.3485  0.2984
 6787SOL    HW122368   0.747  10.996   8.615  0.1172  1.4035  0.7819
 6787SOL    HW222369   0.864  10.954   8.528  0.2582  1.6071  0.8741
 6788SOL     OW22370   3.699   5.062  10.210  0.0396  0.1373 -0.0439
 6788SOL    HW122371   3.625   5.023  10.257 -0.1523  1.1854  0.5577
 6788SOL    HW222372   3.776   5.019  10.248 -0.2344 -0.9570 -0.6704
 6789SOL     OW22373   5.180  10.678   2.797 -0.0793  0.0977 -0.2101
 6789SOL    HW122374   5.160  10.717   2.711  1.1501 -1.9454 -1.5073
 6789SOL    HW222375   5.097  10.683   2.845  0.0290  4.5139 -0.0783
 6790SOL     OW22376   6.345   4.863  10.651  0.2537 -0.0991 -0.1441
 6790SOL    HW122377   6.338   4.768  10.640  0.7348 -0.2318  0.6056
 6790SOL    HW222378   6.281   4.899  10.589  2.0042 -0.8000 -2.5410
 6791SOL     OW22379  10.689   4.586   6.205 -0.3452 -0.4953 -0.1946
 6791SOL    HW122380  10.746   4.615   6.276  1.3808 -1.4137 -1.1419
 6791SOL    HW222381  10.728   4.504   6.174 -1.1519 -0.2314 -2.0625
 6792SOL     OW22382   9.790  10.350   6.417 -1.0119 -0.3076 -0.7309
 6792SOL    HW122383   9.848  10.290   6.370 -1.0257 -0.4680 -0.5418
 6792SOL    HW222384   9.837  10.370   6.498 -1.8947 -1.6491  0.1436
 6793SOL     OW22385   0.016   3.302   2.967 -0.3354 -0.2514  1.2213
 6793SOL    HW122386   0.050   3.213   2.962  0.4663  0.1187 -0.5550
 6793SOL    HW222387   0.078   3.355   2.918 -1.3299  1.1368  1.3800
 6794SOL     OW22388   6.270   2.941   8.144 -0.4837  0.0532 -0.0900
 6794SOL    HW122389   6.353   2.947   8.096 -1.2996  0.2025 -1.5646
 6794SOL    HW222390   6.204   2.968   8.080 -2.2378 -4.5819 -0.5997
 6795SOL     OW22391  10.661   7.966   7.314 -0.4566 -0.1328 -0.2340
 6795SOL    HW122392  10.594   7.898   7.323 -2.2970  1.6118 -0.0663
 6795SOL    HW222393  10.625   8.042   7.361  2.0662  0.6235  0.6873
 6796SOL     OW22394   2.765   9.413   9.324  1.0721 -0.4402  0.7326
 6796SOL    HW122395   2.694   9.460   9.367  0.5281 -0.3728 -0.2210
 6796SOL    HW222396   2.834   9.479   9.313  1.0172 -0.3311  1.0383
 6797SOL     OW22397   4.933   6.148   5.342  0.4624  0.7328 -0.4275
 6797SOL    HW122398   4.936   6.072   5.400 -0.9969  1.8237  1.1492
 6797SOL    HW222399   5.016   6.144   5.294 -0.0997 -2.6030 -1.4366
 6798SOL     OW22400   3.762   8.929   4.335 -0.2381  0.1085  0.3542
 6798SOL    HW122401   3.712   8.985   4.393 -0.3579 -0.6492  0.9898
 6798SOL    HW222402   3.757   8.842   4.374  0.7805 -0.1630 -0.0793
 6799SOL     OW22403   4.223   2.920   6.289  0.0651 -0.3569 -0.3650
 6799SOL    HW122404   4.148   2.955   6.239  0.4185 -0.2335 -0.8179
 6799SOL    HW222405   4.183   2.871   6.360 -0.4517 -0.1443 -0.5001
 6800SOL     OW22406   2.948  10.650   3.932  0.1564  0.1050 -0.0810
 6800SOL    HW122407   2.950  10.577   3.993  0.3790  0.2781  0.1221
 6800SOL    HW222408   2.867  10.696   3.952  1.1952  1.3782  1.5429
 6801SOL     OW22409   0.885   9.411   7.911  0.2788  0.1948 -0.1642
 6801SOL    HW122410   0.834   9.418   7.830  0.5651  0.0071 -0.3669
 6801SOL    HW222411   0.854   9.482   7.966 -0.8006 -0.4371  0.0562
 6802SOL     OW22412   1.328  10.530   0.273  0.4952  0.6601  0.1269
 6802SOL    HW122413   1.418  10.538   0.242  0.3980 -0.4467 -0.4883
 6802SOL    HW222414   1.308  10.616   0.312  1.2582  1.4465 -1.1614
 6803SOL     OW22415   4.340   0.497   4.441 -0.3936  0.1004 -0.3654
 6803SOL    HW122416   4.382   0.445   4.373 -0.4897 -0.0170 -0.3338
 6803SOL    HW222417   4.296   0.433   4.497  0.2490  0.1323  0.1977
 6804SOL     OW22418   5.909   5.203   7.250  0.1995 -0.2838 -0.1236
 6804SOL    HW122419   5.972   5.131   7.256  1.1526  0.5978  0.7850
 6804SOL    HW222420   5.954   5.271   7.199 -0.4370 -0.0596 -0.4054
 6805SOL     OW22421   6.779   7.683   5.166  0.1037 -0.1925  0.2049
 6805SOL    HW122422   6.701   7.633   5.143  1.0540 -1.3010 -0.7623
 6805SOL    HW222423   6.801   7.730   5.086  0.9746 -0.6684  0.1532
 6806SOL     OW22424   9.704  10.072   4.916 -0.4863 -0.2939 -0.7180
 6806SOL    HW122425   9.694  10.094   5.009 -1.9718  2.4434 -1.4283
 6806SOL    HW222426   9.799  10.066   4.903 -0.2532 -1.0529  1.0061
 6807SOL     OW22427   9.267   7.679   2.641 -0.0055  0.4345 -0.3943
 6807SOL    HW122428   9.228   7.685   2.728  1.1415  0.5906  0.1333
 6807SOL    HW222429   9.353   7.721   2.650 -0.3201  1.4871 -1.8925
 6808SOL     OW22430   8.478   6.267   0.395  0.6057 -0.5385  0.2444
 6808SOL    HW122431   8.471   6.327   0.321  2.9342 -0.4702  0.0009
 6808SOL    HW222432   8.571   6.265   0.416  0.0808 -0.8293  2.9824
 6809SOL     OW22433   2.359   0.235  10.765 -0.3683  0.2081 -0.3031
 6809SOL    HW122434   2.267   0.261  10.772 -0.2581  0.7185 -0.6591
 6809SOL    HW222435   2.358   0.156  10.712 -0.7651 -0.8791  1.2591
 6810SOL     OW22436   5.169   5.705   2.925  0.4328  0.4603  0.0570
 6810SOL    HW122437   5.140   5.648   2.996 -0.0069 -0.6531 -0.9660
 6810SOL    HW222438   5.239   5.655   2.883  1.5364  1.6441  0.4392
 6811SOL     OW22439   7.946  10.681  10.021  0.3240 -0.6049  0.1100
 6811SOL    HW122440   8.034  10.710  10.047 -0.1878 -0.0896  1.3244
 6811SOL    HW222441   7.913  10.633  10.097 -1.0279  0.5208  0.2599
 6812SOL     OW22442   0.391  11.000   2.517 -0.7001  0.2872  0.3417
 6812SOL    HW122443   0.303  11.035   2.529 -0.4500  1.7246 -1.4514
 6812SOL    HW222444   0.380  10.928   2.455 -0.7449 -0.3141  1.0409
 6813SOL     OW22445   3.807  10.588   6.142  0.1192  0.1942 -0.0318
 6813SOL    HW122446   3.803  10.651   6.213  0.7644  2.2283 -1.6879
 6813SOL    HW222447   3.891  10.544   6.154 -0.8272 -1.2337  1.7759
 6814SOL     OW22448   3.099   9.971   5.843 -0.1218  0.1448 -0.1351
 6814SOL    HW122449   3.084  10.042   5.906  0.7199  2.1827 -2.0761
 6814SOL    HW222450   3.017   9.922   5.842 -1.2822  1.9651  0.2797
 6815SOL     OW22451   9.448   2.479   0.283  0.0431  0.1216  0.1064
 6815SOL    HW122452   9.392   2.539   0.235  0.7846  0.4410 -0.3831
 6815SOL    HW222453   9.388   2.430   0.339 -0.7809  0.1008 -0.7626
 6816SOL     OW22454   5.727   2.821   4.750 -0.0293 -0.6577  0.0559
 6816SOL    HW122455   5.796   2.836   4.816 -2.5576  0.1499  2.7476
 6816SOL    HW222456   5.743   2.889   4.684 -1.0003  3.0473  3.1973
 6817SOL     OW22457   4.841   1.615   2.962  0.0991  1.0217 -0.4576
 6817SOL    HW122458   4.879   1.675   3.026 -0.4668 -1.1047  2.0402
 6817SOL    HW222459   4.749   1.610   2.985 -0.0256 -0.1347 -1.1412
 6818SOL     OW22460   3.245   4.046   0.782  0.3925  0.0632 -0.3213
 6818SOL    HW122461   3.154   4.044   0.752 -0.1972 -0.9192  1.3829
 6818SOL    HW222462   3.282   3.965   0.747  0.8357  0.7612 -1.5438
 6819SOL     OW22463   9.270   0.645   8.559  0.4449 -0.5934  0.4440
 6819SOL    HW122464   9.279   0.720   8.501 -1.4746 -2.2719 -2.2267
 6819SOL    HW222465   9.183   0.656   8.599  1.0289 -0.3656  1.7081
 6820SOL     OW22466   7.942   4.170   6.246  0.3193  0.2150  0.3645
 6820SOL    HW122467   7.860   4.212   6.272  0.5417  1.3267 -0.6445
 6820SOL    HW222468   7.960   4.107   6.315  0.5450  2.5554  2.5713
 6821SOL     OW22469   8.296   3.017   8.473 -0.0654  0.1451  0.5154
 6821SOL    HW122470   8.371   3.058   8.517  0.7730  0.3218 -1.0039
 6821SOL    HW222471   8.324   3.010   8.382 -1.7964 -0.0920 -0.0155
 6822SOL     OW22472   3.471   6.063   6.120  0.4809 -0.2034  0.0305
 6822SOL    HW122473   3.377   6.066   6.136  0.5870  2.3760  0.6468
 6822SOL    HW222474   3.493   6.151   6.091  2.5586 -1.0632 -1.1898
 6823SOL     OW22475   6.682   7.514   2.989  0.0366 -0.0810  0.1392
 6823SOL    HW122476   6.731   7.535   3.069  0.2780  0.6462 -0.1994
 6823SOL    HW222477   6.635   7.433   3.011  0.7311 -0.3299  0.7461
 6824SOL     OW22478   5.447   3.426   2.087 -0.3942 -0.8360 -0.6355
 6824SOL    HW122479   5.380   3.438   2.019  0.4465  0.7739 -1.2154
 6824SOL    HW222480   5.414   3.473   2.163  0.5453  0.9919 -1.2896
 6825SOL     OW22481   2.400   2.187   4.609  0.8166  0.6619 -0.6230
 6825SOL    HW122482   2.438   2.117   4.556  2.7049  0.5138  0.8173
 6825SOL    HW222483   2.402   2.264   4.552  0.3579 -0.0393 -1.6199
 6826SOL     OW22484   4.733  10.272   5.580 -0.3924  0.7999 -0.1506
 6826SOL    HW122485   4.777  10.336   5.637  0.6149  0.2232 -0.2602
 6826SOL    HW222486   4.802  10.211   5.554 -1.0904  0.3579 -1.0271
 6827SOL     OW22487   2.273   1.896  10.000 -0.1801 -0.0471  0.2270
 6827SOL    HW122488   2.300   1.850   9.921  1.2076  0.2121  0.5203
 6827SOL    HW222489   2.220   1.969   9.969  0.4421  0.1202 -0.4866
 6828SOL     OW22490   2.645   9.526  10.161 -0.2632  0.3893 -0.3862
 6828SOL    HW122491   2.676   9.455  10.216  1.4332  1.6245  0.3371
 6828SOL    HW222492   2.673   9.606  10.206 -0.1220  1.4773 -2.2801
 6829SOL     OW22493   5.537   6.442   2.764 -0.5031 -0.1849 -0.6203
 6829SOL    HW122494   5.500   6.460   2.851  1.1373  1.0251 -0.1282
 6829SOL    HW222495   5.622   6.403   2.782 -0.0098  0.3759 -1.6802
 6830SOL     OW22496   9.463  10.048   1.476 -0.3015  0.0550 -0.1857
 6830SOL    HW122497   9.468   9.952   1.481 -1.6131 -0.5037 -4.6717
 6830SOL    HW222498   9.371  10.068   1.491 -0.5552  0.2122 -1.7178
 6831SOL     OW22499   7.868   7.713   6.854 -0.5126 -0.1098 -0.2688
 6831SOL    HW122500   7.820   7.789   6.822 -1.0885 -0.6774 -0.7838
 6831SOL    HW222501   7.958   7.744   6.866 -0.4842  0.3548 -1.5580
 6832SOL     OW22502   8.332   3.625  10.036  0.3737 -0.1067  0.3415
 6832SOL    HW122503   8.239   3.644  10.044  0.3453 -0.6399  1.4467
 6832SOL    HW222504   8.376   3.696  10.083  0.4724 -0.4014  0.7001
 6833SOL     OW22505   0.089   2.858   0.218  0.0322 -0.0733 -0.3670
 6833SOL    HW122506   0.001   2.844   0.185  0.3460  1.5197 -2.0186
 6833SOL    HW222507   0.118   2.939   0.177  1.7404  0.2247  1.2746
 6834SOL     OW22508   0.013   8.479   2.515 -0.4106  0.4404  0.1058
 6834SOL    HW122509  -0.016   8.523   2.435 -0.0214 -2.3436 -1.7054
 6834SOL    HW222510   0.093   8.434   2.490  0.6659  0.7773  2.5805
 6835SOL     OW22511  10.483   5.532   8.292  0.4804  0.2312  0.4945
 6835SOL    HW122512  10.526   5.593   8.352 -0.0241 -0.1520  1.2725
 6835SOL    HW222513  10.548   5.463   8.277  0.6245  0.3498  0.5676
 6836SOL     OW22514  10.612   6.167   0.542 -0.7666  0.7802 -0.4818
 6836SOL    HW122515  10.602   6.076   0.569 -0.2771  0.6089 -0.8566
 6836SOL    HW222516  10.706   6.184   0.549 -0.6756  0.8548 -1.6426
 6837SOL     OW22517   8.327  10.564   5.403 -0.4264 -0.2174  0.4138
 6837SOL    HW122518   8.269  10.551   5.478 -0.8189 -2.0141 -0.1567
 6837SOL    HW222519   8.314  10.486   5.349 -0.2345  1.0644 -1.5839
 6838SOL     OW22520  10.527   6.394  10.032  0.4812 -0.1074  0.1053
 6838SOL    HW122521  10.477   6.399  10.113  1.5816 -0.8982  0.8643
 6838SOL    HW222522  10.461   6.387   9.963 -0.4770  0.6133  0.9165
 6839SOL     OW22523   5.704   7.006   4.246 -0.3812 -0.2088  0.0215
 6839SOL    HW122524   5.729   7.033   4.334  1.9634 -0.4812 -0.5010
 6839SOL    HW222525   5.751   6.924   4.232 -1.2238 -0.4989 -1.2750
 6840SOL     OW22526  11.052   9.984   6.068  0.3151 -0.1850 -0.0610
 6840SOL    HW122527  11.147   9.990   6.060  0.4168 -1.5040  0.0067
 6840SOL    HW222528  11.021  10.072   6.047  1.4143 -0.2214 -2.0539
 6841SOL     OW22529   7.098  10.406   4.879  0.1878  0.0028 -0.0755
 6841SOL    HW122530   7.100  10.335   4.943  0.5059 -1.2070 -1.3899
 6841SOL    HW222531   7.006  10.415   4.857  0.2834 -0.9697 -0.9293
 6842SOL     OW22532   2.313   3.029   7.991 -0.5946 -0.9491 -0.0551
 6842SOL    HW122533   2.237   2.972   7.981 -2.2565  1.3564 -1.4634
 6842SOL    HW222534   2.285   3.113   7.956  2.8338 -0.1601 -1.3483
 6843SOL     OW22535   5.485   1.502   7.591 -0.0272 -0.4882  0.0627
 6843SOL    HW122536   5.391   1.519   7.586  0.0207 -0.3886 -0.7804
 6843SOL    HW222537   5.494   1.410   7.566  0.1010 -0.4955  0.1344
 6844SOL     OW22538   5.189   3.337  10.345  0.5370 -0.3475  0.8746
 6844SOL    HW122539   5.246   3.357  10.419 -1.3237  0.6434  2.1249
 6844SOL    HW222540   5.217   3.250  10.315  2.2571 -0.1506  1.8077
 6845SOL     OW22541   8.121   7.714   1.493  0.3083 -0.4476  0.3499
 6845SOL    HW122542   8.101   7.798   1.452  0.3278 -0.9819 -0.7937
 6845SOL    HW222543   8.055   7.704   1.561  1.4999  1.3905  1.8427
 6846SOL     OW22544   2.627   4.592   6.783  0.1097 -0.1444  0.4996
 6846SOL    HW122545   2.642   4.634   6.868 -0.4170 -1.2864  1.1753
 6846SOL    HW222546   2.592   4.506   6.805 -2.1051  0.3388 -0.9053
 6847SOL     OW22547   5.450   3.407   7.111 -0.0865  0.1920  0.1212
 6847SOL    HW122548   5.434   3.318   7.082  0.8047 -0.2691  0.9688
 6847SOL    HW222549   5.379   3.426   7.172 -0.4215  0.1680 -0.2578
 6848SOL     OW22550   8.062  11.080   0.321  0.7250  0.5248  0.0607
 6848SOL    HW122551   8.148  11.120   0.329  1.4899 -1.1678  0.6814
 6848SOL    HW222552   8.076  11.002   0.267 -0.8455  1.3760 -1.7054
 6849SOL     OW22553   9.960   6.875   5.447  0.2040 -0.0934 -0.7350
 6849SOL    HW122554  10.052   6.880   5.473  0.1640  1.5229 -0.8212
 6849SOL    HW222555   9.959   6.902   5.355 -0.3245 -0.3169 -0.7971
 6850SOL     OW22556   4.483   2.995   7.142  0.8364  0.4620  0.4681
 6850SOL    HW122557   4.496   2.902   7.156 -0.7908  0.4787  2.5708
 6850SOL    HW222558   4.401   3.001   7.093  0.1882  0.7759  1.5431
 6851SOL     OW22559   1.027   5.227   4.939  0.1038  0.1784 -0.5876
 6851SOL    HW122560   1.059   5.162   4.876 -1.1325  2.9189 -4.4454
 6851SOL    HW222561   1.097   5.293   4.943 -0.7898  1.1963 -1.0657
 6852SOL     OW22562   3.075  10.515   1.070 -0.1394 -0.1456  0.3407
 6852SOL    HW122563   2.980  10.504   1.079 -0.2406  0.4542  0.0567
 6852SOL    HW222564   3.096  10.585   1.132  0.1132 -0.2638  0.3869
 6853SOL     OW22565   5.589   1.941   9.901  0.5301  0.2585 -0.4512
 6853SOL    HW122566   5.503   1.906   9.878  0.7337  0.5490 -1.7247
 6853SOL    HW222567   5.625   1.973   9.818  0.9269  2.2056  0.4115
 6854SOL     OW22568   9.599   0.621   3.891 -0.3043 -0.3324  0.1390
 6854SOL    HW122569   9.692   0.637   3.906 -0.0147 -1.8855  0.1882
 6854SOL    HW222570   9.554   0.693   3.936  0.8549  0.3872  0.1842
 6855SOL     OW22571   0.447   3.275   1.830 -0.4626 -0.3623 -0.1252
 6855SOL    HW122572   0.393   3.205   1.793 -0.8846  1.0383 -2.3274
 6855SOL    HW222573   0.524   3.278   1.773  1.3362 -1.3306  2.0785
 6856SOL     OW22574   2.804   1.765   7.513  0.6758  0.5300  0.3508
 6856SOL    HW122575   2.709   1.767   7.529  0.8004 -0.0689  1.2968
 6856SOL    HW222576   2.813   1.745   7.420 -0.1324  0.1935  0.3373
 6857SOL     OW22577   0.840   4.819   2.185  0.4560  0.4189 -0.3910
 6857SOL    HW122578   0.831   4.750   2.252  0.6967  0.3638 -0.4108
 6857SOL    HW222579   0.787   4.789   2.112 -2.2615  1.9022  0.8558
 6858SOL     OW22580   7.997   1.582  10.254  0.2089 -0.7851  1.1738
 6858SOL    HW122581   8.043   1.552  10.332  1.6352 -0.8314  0.3618
 6858SOL    HW222582   8.067   1.597  10.190 -0.8281  0.2474  0.2377
 6859SOL     OW22583   0.035   2.970   5.991  0.5579  0.3187 -0.7163
 6859SOL    HW122584   0.023   2.887   6.037 -1.5978  0.6045 -0.6881
 6859SOL    HW222585  -0.051   2.991   5.955  1.4365  1.7119 -2.1771
 6860SOL     OW22586  10.076   5.510   2.197 -0.1780  0.5508 -0.5453
 6860SOL    HW122587  10.131   5.468   2.131 -0.1307 -1.6033  0.7503
 6860SOL    HW222588   9.988   5.481   2.177 -0.2668  0.5308 -0.1434
 6861SOL     OW22589   8.603  10.848   5.469  0.6214 -0.0599 -0.0993
 6861SOL    HW122590   8.580  10.876   5.558 -0.3874 -0.0605 -0.3457
 6861SOL    HW222591   8.694  10.874   5.458  0.4785  0.7770  0.6166
 6862SOL     OW22592   7.521   8.590   5.888  0.5243  0.4615 -0.0884
 6862SOL    HW122593   7.571   8.564   5.966 -0.6145 -0.2392  0.4301
 6862SOL    HW222594   7.574   8.658   5.848  1.3783  0.4967  1.0348
 6863SOL     OW22595   2.338   6.749   3.018  0.3360  0.4357 -0.1514
 6863SOL    HW122596   2.259   6.803   3.012  0.1166  0.0318 -1.0811
 6863SOL    HW222597   2.359   6.748   3.111 -2.9857 -2.5945  0.7533
 6864SOL     OW22598   2.383   6.731   3.274  0.4844  0.5399  0.2627
 6864SOL    HW122599   2.343   6.750   3.359 -0.3062  1.3402 -0.2622
 6864SOL    HW222600   2.384   6.636   3.268 -2.1735  0.4519 -0.0475
 6865SOL     OW22601   9.551   9.063   1.732  0.2540 -0.2845 -0.1289
 6865SOL    HW122602   9.470   9.093   1.772  0.6311  0.9634 -0.2700
 6865SOL    HW222603   9.526   9.037   1.644  0.3020  1.9612 -0.8598
 6866SOL     OW22604   9.599   4.508   3.971 -0.5097  0.1040  0.3371
 6866SOL    HW122605   9.558   4.514   3.885 -0.2098  1.2355  0.2561
 6866SOL    HW222606   9.568   4.586   4.018  0.6593  0.4115  0.6467
 6867SOL     OW22607   7.274   9.855   9.809  0.3915 -0.4701 -0.0521
 6867SOL    HW122608   7.340   9.910   9.853 -0.2149  0.4663 -0.2783
 6867SOL    HW222609   7.268   9.777   9.863 -1.1025  1.0659  2.1899
 6868SOL     OW22610  10.513   1.987   1.049 -0.1920 -0.1994  0.4027
 6868SOL    HW122611  10.474   1.901   1.065  1.3562 -1.3509 -1.5079
 6868SOL    HW222612  10.580   1.995   1.118 -2.6886  1.1943  2.8504
 6869SOL     OW22613   4.696   0.207   1.350 -0.3957 -0.3647 -0.0960
 6869SOL    HW122614   4.743   0.162   1.420  0.1366 -1.1176 -0.9129
 6869SOL    HW222615   4.739   0.293   1.344  0.3242 -0.7266 -0.2636
 6870SOL     OW22616   0.583  10.571   8.768  0.2599 -0.2206  0.3520
 6870SOL    HW122617   0.583  10.666   8.779  0.8058 -0.3572  1.7260
 6870SOL    HW222618   0.555  10.537   8.853  3.3990 -1.3635  1.0639
 6871SOL     OW22619   0.936   2.054   8.967 -0.9847  0.1326  0.1036
 6871SOL    HW122620   0.965   2.132   8.919 -0.4063 -0.4739 -0.5558
 6871SOL    HW222621   0.874   2.011   8.908  1.0366 -1.5514 -0.9409
 6872SOL     OW22622   0.694  10.212  10.799  0.2559 -0.4581  0.3382
 6872SOL    HW122623   0.658  10.301  10.802 -0.5516 -0.7759  0.3257
 6872SOL    HW222624   0.617  10.156  10.794  0.6340 -1.2801  2.7231
 6873SOL     OW22625   8.541   6.159   5.123 -0.5727  0.0607  0.0335
 6873SOL    HW122626   8.486   6.084   5.100  0.1949 -0.7494  0.7439
 6873SOL    HW222627   8.552   6.207   5.041 -2.0713  0.0796 -0.1847
 6874SOL     OW22628   7.944   9.860   6.205  0.3336  0.1708  0.6367
 6874SOL    HW122629   8.006   9.857   6.279  1.9570  0.5340 -0.6457
 6874SOL    HW222630   7.934   9.954   6.187 -1.0885  0.1423  1.2029
 6875SOL     OW22631   3.629   9.917   4.242 -0.0027 -0.1341  0.2152
 6875SOL    HW122632   3.651   9.864   4.318  1.1020  1.5589  1.1490
 6875SOL    HW222633   3.534   9.929   4.247  0.2032  1.1605  2.2427
 6876SOL     OW22634   7.006   8.087   3.892  0.1029 -0.0176 -0.4880
 6876SOL    HW122635   7.017   8.073   3.986  1.5969 -0.6690 -0.7359
 6876SOL    HW222636   7.003   8.182   3.882 -0.7369  0.0499  0.2660
 6877SOL     OW22637   1.767  10.588   6.762 -0.1419  0.2718  0.5635
 6877SOL    HW122638   1.735  10.517   6.816  3.2645 -0.1022  2.3605
 6877SOL    HW222639   1.761  10.555   6.672 -3.2585 -0.2032  0.8422
 6878SOL     OW22640   7.726   3.471   8.567 -0.3979 -0.1001  0.2633
 6878SOL    HW122641   7.714   3.560   8.532 -2.8936 -0.3572  0.2845
 6878SOL    HW222642   7.713   3.481   8.662  1.7887 -0.1456  0.6195
 6879SOL     OW22643   5.432  10.530   2.626 -0.1468 -0.0932  0.1860
 6879SOL    HW122644   5.510  10.510   2.574 -0.0486 -0.8108  0.5915
 6879SOL    HW222645   5.465  10.544   2.715 -0.4504 -0.1712  0.3127
 6880SOL     OW22646   3.443   8.318   4.530  0.8141  1.2034  0.2038
 6880SOL    HW122647   3.451   8.401   4.577  2.3904  0.3389  1.6123
 6880SOL    HW222648   3.507   8.325   4.459  0.2769  1.5350 -0.2530
 6881SOL     OW22649   1.805   6.632   7.473 -0.5317 -0.1744  0.7710
 6881SOL    HW122650   1.868   6.692   7.511  0.6931  0.0136 -1.4164
 6881SOL    HW222651   1.787   6.569   7.542  1.3067  0.3380  1.7707
 6882SOL     OW22652   7.143   7.511  10.875  0.0627  0.2313  0.3691
 6882SOL    HW122653   7.093   7.437  10.910 -0.7033  1.1655  1.3389
 6882SOL    HW222654   7.097   7.588  10.909 -1.1021  1.2870 -3.1715
 6883SOL     OW22655  10.775   6.573   3.082  0.0208  0.1485 -0.0908
 6883SOL    HW122656  10.819   6.580   3.167 -0.8342  1.7693  0.2694
 6883SOL    HW222657  10.844   6.548   3.021  0.6953 -0.8581  1.0384
 6884SOL     OW22658   0.438   7.317   5.017 -0.4141  0.3575 -0.1633
 6884SOL    HW122659   0.399   7.341   5.101  1.8002  1.1776  0.7160
 6884SOL    HW222660   0.368   7.274   4.969 -1.3651 -1.5556  2.7078
 6885SOL     OW22661   0.545   5.705  10.638  0.2662 -1.0229 -0.3627
 6885SOL    HW122662   0.456   5.706  10.672  0.3103  2.0671 -0.1094
 6885SOL    HW222663   0.601   5.714  10.715  0.6285  0.2067 -0.7523
 6886SOL     OW22664   7.310   5.404   0.521 -0.1956 -0.0086 -0.2049
 6886SOL    HW122665   7.378   5.365   0.576  0.3823 -0.8481 -1.4660
 6886SOL    HW222666   7.358   5.450   0.453 -0.8840 -0.1697 -0.8091
 6887SOL     OW22667   7.438  10.540   2.596  0.4830 -0.3991  0.4228
 6887SOL    HW122668   7.467  10.617   2.646  1.4000 -0.9678  0.7963
 6887SOL    HW222669   7.412  10.575   2.511 -1.3640  0.6259  1.3572
 6888SOL     OW22670   1.868   6.098   0.694 -0.4754 -0.4963  0.3962
 6888SOL    HW122671   1.846   6.047   0.617 -0.1518 -2.1229  1.3411
 6888SOL    HW222672   1.800   6.166   0.699 -2.5139 -2.4391  0.5650
 6889SOL     OW22673  10.896   0.705   5.697  0.2265  0.3118 -0.2612
 6889SOL    HW122674  10.893   0.741   5.785  1.8235  2.0799 -0.8406
 6889SOL    HW222675  10.812   0.662   5.685 -0.1064  0.2085  2.0268
 6890SOL     OW22676   3.550   7.402   4.247  0.2814 -0.3287 -0.1880
 6890SOL    HW122677   3.632   7.400   4.198  0.2768 -3.8717 -0.3104
 6890SOL    HW222678   3.526   7.310   4.258 -2.6319  0.5008  1.6539
 6891SOL     OW22679   4.612   2.976   5.111 -0.5741 -0.5601 -0.4462
 6891SOL    HW122680   4.562   2.913   5.164 -1.1537 -0.6160 -1.0381
 6891SOL    HW222681   4.643   2.925   5.036 -0.5662 -0.2696 -0.6424
 6892SOL     OW22682   7.298  10.965   6.242  0.0448 -0.4642 -0.5208
 6892SOL    HW122683   7.305  11.018   6.322 -1.2591 -2.2594  0.8917
 6892SOL    HW222684   7.305  10.875   6.273  1.4896 -1.1749 -2.7417
 6893SOL     OW22685   9.526  10.274   9.255  0.5161 -0.2233  0.2333
 6893SOL    HW122686   9.620  10.263   9.241  0.3213 -2.0437  0.1767
 6893SOL    HW222687   9.519  10.303   9.347  1.1409  0.6579  0.0201
 6894SOL     OW22688   5.162   5.516   5.739  0.3239  0.2053  0.3120
 6894SOL    HW122689   5.242   5.468   5.764 -0.1546 -2.4471 -2.5957
 6894SOL    HW222690   5.094   5.448   5.735 -1.2162  1.7385 -0.8000
 6895SOL     OW22691   7.134   5.881   2.609  0.7399  0.1809  0.5982
 6895SOL    HW122692   7.082   5.808   2.578  0.8365  0.5101 -0.3681
 6895SOL    HW222693   7.088   5.912   2.687  0.4474 -0.6069  0.7499
 6896SOL     OW22694   7.883   7.030   8.078  0.0753  0.1138  0.1987
 6896SOL    HW122695   7.857   6.963   8.015 -1.1657  0.2322  0.5657
 6896SOL    HW222696   7.843   7.002   8.160 -1.7938  2.0819  0.0356
 6897SOL     OW22697   0.296  10.612   7.662  0.5606  0.5379 -0.6394
 6897SOL    HW122698   0.380  10.658   7.661  0.7210  0.3650  1.3271
 6897SOL    HW222699   0.298  10.560   7.741 -0.7016 -0.8783 -1.4918
 6898SOL     OW22700   9.500   7.767   5.389 -0.5188  1.1400 -0.2017
 6898SOL    HW122701   9.408   7.781   5.369 -0.4312  0.2865 -1.2900
 6898SOL    HW222702   9.529   7.700   5.327  1.0811  2.0954 -0.5635
 6899SOL     OW22703   9.806   9.598   6.366 -0.8322  0.2536 -0.0202
 6899SOL    HW122704   9.739   9.645   6.416 -0.8286  1.8888 -1.4690
 6899SOL    HW222705   9.769   9.510   6.354 -1.1415  0.0312  2.1632
 6900SOL     OW22706  10.152   4.742   4.910  0.4339  0.5225  0.0656
 6900SOL    HW122707  10.242   4.732   4.878  0.0183  0.5367 -1.1362
 6900SOL    HW222708  10.159   4.730   5.005  1.3036 -2.2153 -0.2750
 6901SOL     OW22709   4.698   1.373   2.858  0.2853 -0.2436 -0.3090
 6901SOL    HW122710   4.751   1.452   2.858  2.1069 -1.3765  1.0168
 6901SOL    HW222711   4.624   1.393   2.915  1.1431  0.2806  0.6471
 6902SOL     OW22712   9.621   4.201   7.199 -0.3153 -0.2932  0.1630
 6902SOL    HW122713   9.634   4.108   7.184  0.8058  0.0583 -1.1947
 6902SOL    HW222714   9.531   4.218   7.171 -0.3660 -0.8683 -0.0256
 6903SOL     OW22715   9.091   4.907   9.258 -0.0220 -0.3354  0.1528
 6903SOL    HW122716   9.098   4.965   9.334  0.5573  0.9227 -0.8295
 6903SOL    HW222717   9.001   4.918   9.228 -0.7233 -1.9543  1.4696
 6904SOL     OW22718   6.747   0.644   9.354  0.0093  0.4363 -0.0632
 6904SOL    HW122719   6.810   0.608   9.416 -0.5910 -0.6129 -0.0512
 6904SOL    HW222720   6.680   0.684   9.408 -1.2247 -1.6632  0.0514
 6905SOL     OW22721   4.170   7.811   8.743  0.7391  0.1768  0.0044
 6905SOL    HW122722   4.261   7.842   8.738  1.9473 -2.5332  2.2970
 6905SOL    HW222723   4.167   7.736   8.683  0.4327 -0.5811  0.9515
 6906SOL     OW22724   2.911   7.279   7.608  0.4804  0.1668  0.1600
 6906SOL    HW122725   2.957   7.309   7.686 -0.2264  1.9235 -0.0418
 6906SOL    HW222726   2.980   7.242   7.552  1.2728  0.5961  0.8305
 6907SOL     OW22727  10.030   5.677   5.030  0.1546 -0.2411  0.4260
 6907SOL    HW122728   9.963   5.686   5.097 -1.6091  0.2313 -1.3167
 6907SOL    HW222729  10.033   5.583   5.011 -1.0190 -0.1215 -0.4301
 6908SOL     OW22730   9.408   7.379   7.121  0.8151 -0.1220  0.7130
 6908SOL    HW122731   9.377   7.314   7.057  0.5909  0.9268 -0.2826
 6908SOL    HW222732   9.497   7.400   7.093  0.6817  0.4114  0.6691
 6909SOL     OW22733   9.650   4.434   1.606 -0.5405  0.1618  0.6488
 6909SOL    HW122734   9.581   4.498   1.621 -0.0963  1.0558 -0.8952
 6909SOL    HW222735   9.671   4.442   1.513 -0.0935 -1.8673  0.5287
 6910SOL     OW22736   7.591   9.346   6.072  0.1639  0.1169  0.1551
 6910SOL    HW122737   7.535   9.422   6.085  1.3720  0.6446  2.9376
 6910SOL    HW222738   7.596   9.304   6.157 -0.9143 -3.5265 -1.3859
 6911SOL     OW22739   3.740   1.183   8.516 -0.6922  0.1539  0.3884
 6911SOL    HW122740   3.790   1.210   8.439  2.0076 -0.4658  1.8139
 6911SOL    HW222741   3.732   1.088   8.508 -1.0231  0.1664  0.5414
 6912SOL     OW22742   4.451   2.857  10.679 -0.3528  0.5084  0.1555
 6912SOL    HW122743   4.481   2.824  10.594  0.3277  0.7287  0.3071
 6912SOL    HW222744   4.361   2.886  10.663 -1.0684 -1.5697  0.0410
 6913SOL     OW22745   6.092   3.740  10.108  0.8203  0.2560 -0.0219
 6913SOL    HW122746   6.136   3.820  10.079 -0.3404  0.3950 -1.4666
 6913SOL    HW222747   6.050   3.705  10.030 -0.1552 -0.8326  0.9457
 6914SOL     OW22748   4.818   4.411   4.838  0.1821  0.1030  0.4665
 6914SOL    HW122749   4.811   4.320   4.865 -0.7546  0.4869  1.5725
 6914SOL    HW222750   4.774   4.461   4.907  0.0826  1.3376 -0.4501
 6915SOL     OW22751   9.242   0.699   7.912 -0.2953 -0.0668  0.3414
 6915SOL    HW122752   9.275   0.780   7.953  0.2477 -0.2772  0.3260
 6915SOL    HW222753   9.154   0.722   7.882  0.3476  0.9428 -0.8909
 6916SOL     OW22754   3.258   9.013   8.436 -0.3497  0.2355  0.6467
 6916SOL    HW122755   3.340   9.018   8.487 -0.2157  1.7135  0.3500
 6916SOL    HW222756   3.251   8.922   8.411  2.2380  0.3706 -0.9400
 6917SOL     OW22757   7.612   7.849   9.809 -0.2265  0.1082 -0.1554
 6917SOL    HW122758   7.707   7.863   9.807  0.1901 -1.9803  1.2467
 6917SOL    HW222759   7.586   7.872   9.898 -0.4398 -2.1789  0.4359
 6918SOL     OW22760   8.300   7.255   7.955  0.1490 -0.2267 -0.7118
 6918SOL    HW122761   8.357   7.328   7.929  1.3079 -0.1967  1.5785
 6918SOL    HW222762   8.252   7.288   8.031  1.1305 -1.9689  0.7478
 6919SOL     OW22763   0.390   5.869   1.323  0.4381 -0.4108 -0.6558
 6919SOL    HW122764   0.445   5.792   1.316  0.3633 -0.6481  1.0122
 6919SOL    HW222765   0.451   5.943   1.329  0.5978 -0.6439  0.8691
 6920SOL     OW22766   4.326   4.135   3.808 -0.0782  0.0604  0.3397
 6920SOL    HW122767   4.399   4.195   3.822 -0.7131  0.5346  1.8240
 6920SOL    HW222768   4.253   4.174   3.855 -1.1882 -0.6405 -0.7126
 6921SOL     OW22769   0.437  10.390   7.510  0.1263 -0.9798  0.3918
 6921SOL    HW122770   0.418  10.480   7.536  0.6842  0.3870 -3.3961
 6921SOL    HW222771   0.353  10.345   7.520 -0.1476 -0.1437  2.4009
 6922SOL     OW22772   7.114  10.049  10.776  0.0547 -0.2382  0.5135
 6922SOL    HW122773   7.200  10.063  10.816  0.0270 -1.6945  1.1226
 6922SOL    HW222774   7.053  10.047  10.849 -0.1502 -1.7680  0.3207
 6923SOL     OW22775   7.073   9.913  11.064 -0.0407 -0.4725  0.0400
 6923SOL    HW122776   7.136   9.982  11.042 -0.5332  0.8131  2.3040
 6923SOL    HW222777   7.098   9.885  11.152 -1.7928 -0.8865  0.4455
 6924SOL     OW22778   3.927   0.194   8.046  0.7185 -0.7150  0.4055
 6924SOL    HW122779   3.966   0.180   7.960 -0.3098  0.9799 -0.4069
 6924SOL    HW222780   3.998   0.232   8.098  1.0964 -0.8866  0.0263
 6925SOL     OW22781   9.016  10.554   0.813 -0.1140  0.1843  0.4675
 6925SOL    HW122782   8.936  10.607   0.817 -0.2252  0.0818 -0.3061
 6925SOL    HW222783   8.985  10.466   0.791 -0.0286 -0.4535  2.6333
 6926SOL     OW22784   4.794   1.756   9.004  0.1009  0.0158  0.8232
 6926SOL    HW122785   4.777   1.758   8.910  1.9197 -0.7022  0.4356
 6926SOL    HW222786   4.798   1.848   9.029 -0.6942  0.2110  0.2660
 6927SOL     OW22787   8.450   0.287   9.186  0.3813  0.5012 -0.1887
 6927SOL    HW122788   8.414   0.209   9.143  0.0805  1.4196 -1.6707
 6927SOL    HW222789   8.407   0.360   9.143  0.1572  1.4973  1.6384
 6928SOL     OW22790   1.644   0.412   1.333  0.2797  0.1810  0.1204
 6928SOL    HW122791   1.650   0.317   1.343 -0.3182  0.1662  0.3732
 6928SOL    HW222792   1.735   0.443   1.336  0.4006 -0.2427  1.4731
 6929SOL     OW22793   0.703   8.438   7.399 -0.3293 -0.3930 -0.3598
 6929SOL    HW122794   0.720   8.378   7.471 -1.8466 -0.2170  0.1935
 6929SOL    HW222795   0.687   8.381   7.324  0.1932 -0.6162 -0.3027
 6930SOL     OW22796  10.531   1.639   3.061 -0.5408  0.5647 -0.0378
 6930SOL    HW122797  10.582   1.636   2.981  2.1517 -1.9089  1.5862
 6930SOL    HW222798  10.593   1.671   3.127 -1.8609 -0.0427  1.5619
 6931SOL     OW22799   8.072  10.850   5.900 -0.0520 -0.2227 -0.1450
 6931SOL    HW122800   8.128  10.914   5.944  0.4063 -1.8937  1.8398
 6931SOL    HW222801   8.106  10.846   5.810  2.7628 -0.8380  0.8579
 6932SOL     OW22802   8.992   9.710   4.241 -0.0877 -0.7156 -0.0379
 6932SOL    HW122803   9.040   9.770   4.183  0.0946 -0.2384  0.5910
 6932SOL    HW222804   8.983   9.759   4.323 -0.8366 -1.1622  0.1563
 6933SOL     OW22805   3.472   0.216   4.546  0.8970 -0.3040 -0.4290
 6933SOL    HW122806   3.446   0.124   4.553 -0.1400  0.0910  2.2703
 6933SOL    HW222807   3.406   0.255   4.489 -0.9536 -0.5696  1.3853
 6934SOL     OW22808   4.669   9.546   8.802  0.0169 -0.2007 -0.5174
 6934SOL    HW122809   4.756   9.515   8.826 -0.5916 -1.3923  0.2930
 6934SOL    HW222810   4.622   9.466   8.778 -1.3592  0.2018  0.7308
 6935SOL     OW22811   1.679   8.063   6.608 -0.6708 -0.3124  0.3862
 6935SOL    HW122812   1.737   8.025   6.674  0.3763 -0.6971 -0.7296
 6935SOL    HW222813   1.695   8.157   6.614 -2.6457 -0.0138  2.5657
 6936SOL     OW22814   5.543   9.386   5.733 -0.9902 -0.5429  0.5102
 6936SOL    HW122815   5.621   9.440   5.732 -1.7234  0.5480 -0.3003
 6936SOL    HW222816   5.488   9.423   5.802 -1.1154 -0.8202  0.5620
 6937SOL     OW22817   5.639   5.268   6.589  0.0081 -0.2075 -0.1931
 6937SOL    HW122818   5.560   5.222   6.563 -1.3573  1.9032  0.0349
 6937SOL    HW222819   5.612   5.325   6.661  1.4333  1.4172 -0.8623
 6938SOL     OW22820   5.570   3.168   7.636 -0.0299  0.3637 -0.2413
 6938SOL    HW122821   5.653   3.119   7.636 -0.2572 -0.0350 -0.8336
 6938SOL    HW222822   5.559   3.196   7.726 -0.3639 -1.5017  0.3404
 6939SOL     OW22823   8.940   7.735   6.232 -0.3682 -0.5520 -0.8256
 6939SOL    HW122824   8.963   7.667   6.295 -2.8693 -2.4391 -1.8125
 6939SOL    HW222825   8.974   7.816   6.271  1.3353 -2.1009  1.1399
 6940SOL     OW22826   3.559   0.256  10.372  0.2197  0.0925  0.0591
 6940SOL    HW122827   3.465   0.237  10.369  0.3276 -0.7115  1.1596
 6940SOL    HW222828   3.571   0.306  10.453  0.7598  0.0606  0.0034
 6941SOL     OW22829   2.976  10.049   4.146  0.2613 -0.0204  0.9283
 6941SOL    HW122830   3.044  10.054   4.079  0.8653  0.5121  1.5582
 6941SOL    HW222831   2.988   9.963   4.186  0.6188  0.1029  1.0892
 6942SOL     OW22832   8.236   7.378   3.103  0.0742  0.2276 -0.0777
 6942SOL    HW122833   8.170   7.314   3.129 -1.9924  1.9457 -0.8607
 6942SOL    HW222834   8.210   7.459   3.146  3.0721  0.4832  1.5151
 6943SOL     OW22835   4.376   4.540   5.994 -0.1975  0.3216 -0.0184
 6943SOL    HW122836   4.354   4.455   5.956 -2.8670  0.1002  1.7652
 6943SOL    HW222837   4.355   4.603   5.925 -2.4752 -0.2288  0.1032
 6944SOL     OW22838   2.243   1.782   1.303  0.4630 -0.6702  0.3510
 6944SOL    HW122839   2.235   1.864   1.351  0.5964 -0.8057  0.6093
 6944SOL    HW222840   2.331   1.785   1.265 -0.0643 -0.0438 -0.8663
 6945SOL     OW22841   9.316   7.877   6.634 -0.2519  0.4147  0.1747
 6945SOL    HW122842   9.272   7.942   6.689 -0.3747 -0.7630  1.5088
 6945SOL    HW222843   9.283   7.793   6.665 -0.7997 -0.2835 -2.1270
 6946SOL     OW22844   2.259   0.905   7.187 -0.0470 -0.8337  0.2919
 6946SOL    HW122845   2.278   0.874   7.098 -0.5828 -1.6646  0.4582
 6946SOL    HW222846   2.164   0.917   7.188  0.1737  1.4661  0.0425
 6947SOL     OW22847   1.888   2.878   4.891 -0.5054 -0.1034 -0.4481
 6947SOL    HW122848   1.981   2.898   4.879 -0.0685 -2.2741 -1.0581
 6947SOL    HW222849   1.884   2.830   4.974 -1.0410 -0.2423 -0.5487
 6948SOL     OW22850   1.072   5.190   7.364 -0.0049  0.3507 -0.6689
 6948SOL    HW122851   1.028   5.250   7.304  0.0557 -0.0230 -1.0887
 6948SOL    HW222852   1.031   5.105   7.349 -0.5297  0.4041  0.3778
 6949SOL     OW22853   8.485   7.112   0.135 -0.6150 -0.0348  0.3479
 6949SOL    HW122854   8.398   7.133   0.168 -0.1054  1.7358  0.6827
 6949SOL    HW222855   8.504   7.183   0.073  0.0493 -1.1473 -0.7667
 6950SOL     OW22856   6.932   7.249   0.648 -0.3829  0.4229 -0.5903
 6950SOL    HW122857   6.998   7.186   0.618  0.3089  0.5966  0.5201
 6950SOL    HW222858   6.881   7.269   0.569  1.4111  0.9256 -1.6792
 6951SOL     OW22859   5.775   4.632   4.029 -0.3932  0.6685  0.1743
 6951SOL    HW122860   5.809   4.558   4.079 -0.2620  2.0142  2.1739
 6951SOL    HW222861   5.830   4.635   3.951  0.7634 -0.2700  0.9232
 6952SOL     OW22862   1.754   5.088   2.722 -0.3074  0.2912  0.0066
 6952SOL    HW122863   1.780   5.005   2.681 -4.0014 -1.3742  0.6534
 6952SOL    HW222864   1.774   5.154   2.656 -1.2500 -1.6581 -2.3934
 6953SOL     OW22865   1.195   1.323   6.347 -0.0677 -0.6319  0.4827
 6953SOL    HW122866   1.236   1.403   6.379 -2.0038  0.2852  0.7871
 6953SOL    HW222867   1.138   1.294   6.418 -0.9382 -1.1263 -0.3859
 6954SOL     OW22868  10.180   1.541   2.175 -0.5481  0.0184 -0.0524
 6954SOL    HW122869  10.176   1.523   2.269 -1.6925 -0.2118 -0.1354
 6954SOL    HW222870  10.254   1.489   2.144 -0.2510 -0.0168  0.6936
 6955SOL     OW22871  10.748   0.379   3.590  0.2067 -0.0498 -0.1262
 6955SOL    HW122872  10.822   0.439   3.598  2.3257 -2.2754 -1.4041
 6955SOL    HW222873  10.673   0.435   3.575  1.4036  2.3971  2.1166
 6956SOL     OW22874   5.310   2.137   9.778 -0.8201 -0.3862  0.0292
 6956SOL    HW122875   5.265   2.205   9.827 -0.1083  0.0142  0.1316
 6956SOL    HW222876   5.360   2.184   9.711  0.7288 -0.6771  0.9275
 6957SOL     OW22877   2.861   3.291   2.386  0.6339 -0.1070 -0.1163
 6957SOL    HW122878   2.945   3.248   2.369  0.4473 -0.5223 -0.0165
 6957SOL    HW222879   2.854   3.359   2.319  2.0026  1.3349  1.1190
 6958SOL     OW22880   5.666   9.257   7.483 -0.2968  0.4471 -0.2050
 6958SOL    HW122881   5.721   9.201   7.537  0.9610  0.8117 -1.0647
 6958SOL    HW222882   5.677   9.223   7.394 -0.4493  1.3137 -0.5625
 6959SOL     OW22883   5.517   9.674   8.318  0.2644 -0.3304  0.2863
 6959SOL    HW122884   5.449   9.731   8.281  0.2284  0.0235  0.8749
 6959SOL    HW222885   5.568   9.645   8.243  0.0704  0.2077 -0.0617
 6960SOL     OW22886   9.452   7.827   8.042 -0.2591  0.2941  0.0275
 6960SOL    HW122887   9.538   7.823   7.999 -0.9111 -0.8986 -1.2226
 6960SOL    HW222888   9.460   7.767   8.116  0.2687  0.9295  0.5066
 6961SOL     OW22889   3.209   3.784   9.750  0.1086 -0.3866  0.7391
 6961SOL    HW122890   3.276   3.837   9.794 -0.4455  1.7328 -0.7965
 6961SOL    HW222891   3.139   3.846   9.730 -0.9609 -1.8899 -0.4394
 6962SOL     OW22892   0.358   5.209   4.064 -0.0430 -0.2594  0.4772
 6962SOL    HW122893   0.361   5.283   4.125 -3.1657  1.0360 -0.7319
 6962SOL    HW222894   0.423   5.231   3.997 -0.6321  1.2352  0.3530
 6963SOL     OW22895   8.081   7.950   9.590  0.1567  0.6533 -0.1247
 6963SOL    HW122896   8.140   7.902   9.648 -0.1337 -1.1069 -1.2155
 6963SOL    HW222897   8.051   7.885   9.526 -1.3054  1.9905 -0.8869
 6964SOL     OW22898   6.578  10.480   0.978  0.0280 -0.5383  0.0591
 6964SOL    HW122899   6.640  10.409   0.989  1.1387  0.3439 -0.3809
 6964SOL    HW222900   6.622  10.543   0.922 -0.9674  0.4656  0.3563
 6965SOL     OW22901   3.118   9.285   2.107 -0.6329  0.7088 -0.0812
 6965SOL    HW122902   3.103   9.363   2.054 -0.1703  0.3597 -0.7340
 6965SOL    HW222903   3.069   9.301   2.187 -2.1941  0.7948 -1.0267
 6966SOL     OW22904   6.449   6.803   2.230 -0.6264 -0.1346  0.0991
 6966SOL    HW122905   6.517   6.741   2.204 -1.8162 -1.4180 -0.0817
 6966SOL    HW222906   6.376   6.748   2.259 -1.6697  1.1864  0.0910
 6967SOL     OW22907   0.566   8.960   7.675  0.5976 -0.0419 -0.0398
 6967SOL    HW122908   0.507   8.986   7.745 -0.4398  2.0071 -1.5617
 6967SOL    HW222909   0.631   9.030   7.670  0.8621 -0.3292 -0.8873
 6968SOL     OW22910   5.126   3.056   7.213  0.3489 -0.2172 -0.1690
 6968SOL    HW122911   5.109   2.964   7.192  0.7597 -0.4253  0.4084
 6968SOL    HW222912   5.220   3.068   7.195 -0.0177  0.5079 -1.7788
 6969SOL     OW22913   6.394   4.125   4.929  0.9231 -0.0225 -0.5534
 6969SOL    HW122914   6.442   4.090   5.005  0.1757 -1.2186 -0.6093
 6969SOL    HW222915   6.461   4.169   4.877  1.7816 -0.7489 -0.1030
 6970SOL     OW22916   0.872   4.081   5.490 -0.6294  0.0447  0.2251
 6970SOL    HW122917   0.945   4.081   5.428 -0.2336 -1.3670  0.6559
 6970SOL    HW222918   0.794   4.092   5.434 -0.1433  1.2094 -0.2676
 6971SOL     OW22919   9.479   7.214   0.993 -0.3749 -0.1617  0.0835
 6971SOL    HW122920   9.565   7.247   1.019 -0.3920 -0.1594  0.1372
 6971SOL    HW222921   9.493   7.179   0.904 -0.4444  0.3288 -0.1237
 6972SOL     OW22922   1.908   3.791  10.359  0.6185 -0.6027  0.2807
 6972SOL    HW122923   1.955   3.716  10.393 -1.4790 -2.1393  0.0184
 6972SOL    HW222924   1.947   3.807  10.273  3.0113  0.5328  1.4980
 6973SOL     OW22925   0.165  10.011   8.043  0.0704  0.4177  0.6239
 6973SOL    HW122926   0.110  10.088   8.057 -0.6075 -0.2084  1.5338
 6973SOL    HW222927   0.110   9.951   7.993 -0.7097 -0.8257  2.8152
 6974SOL     OW22928   3.223   5.096   7.140 -0.6313 -0.1043  0.4105
 6974SOL    HW122929   3.226   5.083   7.046  0.1288  1.5038  0.1747
 6974SOL    HW222930   3.311   5.127   7.163 -1.6574  2.5381  1.1137
 6975SOL     OW22931   4.137   7.215   6.257 -0.1308  0.0932 -0.4705
 6975SOL    HW122932   4.231   7.211   6.275 -0.2495 -1.7031 -0.0800
 6975SOL    HW222933   4.123   7.303   6.221  1.2502  1.3564  1.8584
 6976SOL     OW22934   6.791   2.681   3.778 -0.7231  0.0326  0.4078
 6976SOL    HW122935   6.831   2.656   3.695 -1.9849 -2.5819  0.5095
 6976SOL    HW222936   6.862   2.723   3.827  1.4323 -2.7278 -0.1374
 6977SOL     OW22937  10.663   1.759   5.420 -0.5139 -0.0909  0.1505
 6977SOL    HW122938  10.744   1.809   5.429 -0.2703 -0.1721 -1.3285
 6977SOL    HW222939  10.660   1.734   5.328 -1.5709 -1.2144  0.4551
 6978SOL     OW22940   4.879   2.568   6.275 -0.3195 -0.1986  0.3441
 6978SOL    HW122941   4.846   2.575   6.364 -1.3878 -0.2161 -0.0403
 6978SOL    HW222942   4.970   2.599   6.281 -0.5980  0.4828  1.2971
 6979SOL     OW22943   0.352   4.159   7.855 -0.1720 -0.2741  0.1327
 6979SOL    HW122944   0.359   4.089   7.790 -0.2061  0.8883 -1.1761
 6979SOL    HW222945   0.260   4.158   7.880 -0.1487 -0.7649  0.2229
 6980SOL     OW22946   7.472   7.379   3.788 -0.0657 -0.6725  0.5147
 6980SOL    HW122947   7.529   7.456   3.787 -1.3585  0.3828  2.1792
 6980SOL    HW222948   7.397   7.405   3.841 -1.0266 -2.7772  0.3131
 6981SOL     OW22949   4.683   0.529   9.089  0.1504  0.0521 -0.4953
 6981SOL    HW122950   4.736   0.530   9.169 -1.5358  0.4250  0.6618
 6981SOL    HW222951   4.631   0.609   9.094 -1.6350 -1.0288 -0.7919
 6982SOL     OW22952  10.692   3.473   1.088 -0.0938  0.7585  0.8752
 6982SOL    HW122953  10.639   3.521   1.152 -1.3775 -0.2135  0.5704
 6982SOL    HW222954  10.689   3.528   1.010 -1.2957  0.3781  0.6289
 6983SOL     OW22955   1.328   3.959   8.884  0.3535  0.4190  0.2375
 6983SOL    HW122956   1.256   3.952   8.948  0.2273 -0.4131  0.0246
 6983SOL    HW222957   1.322   3.878   8.833  0.9422  0.7177 -0.3182
 6984SOL     OW22958   2.179   6.809   7.319  0.2531 -0.2565  0.2359
 6984SOL    HW122959   2.152   6.894   7.285 -1.9389 -0.3608  1.5008
 6984SOL    HW222960   2.116   6.747   7.281  0.9255 -1.1110  0.4783
 6985SOL     OW22961   7.941   6.510   9.620 -0.2240 -0.3448  0.4275
 6985SOL    HW122962   7.986   6.451   9.681  2.2801  0.4573 -0.5336
 6985SOL    HW222963   7.973   6.597   9.644 -0.6433  0.1718 -0.8383
 6986SOL     OW22964   5.782   1.660   6.417 -0.1342  0.1147 -1.1774
 6986SOL    HW122965   5.811   1.669   6.326 -0.2202 -0.4719 -1.2664
 6986SOL    HW222966   5.726   1.737   6.432  1.1300  1.0540 -1.1207
 6987SOL     OW22967  10.809   1.311   4.447 -0.2148  0.1536  0.1508
 6987SOL    HW122968  10.749   1.250   4.491 -0.1161  0.5936  0.9206
 6987SOL    HW222969  10.829   1.269   4.364 -0.6618 -0.5598  0.3920
 6988SOL     OW22970   1.871   5.592   7.897 -0.9716  0.2149  0.1532
 6988SOL    HW122971   1.949   5.648   7.903  0.0487 -1.1240 -0.2793
 6988SOL    HW222972   1.814   5.637   7.835 -0.3329  0.9597  0.0940
 6989SOL     OW22973   0.314  10.166   2.019  0.1817  0.0347  0.3735
 6989SOL    HW122974   0.372  10.233   1.982 -0.9092 -0.2638 -2.0831
 6989SOL    HW222975   0.246  10.216   2.065  0.4176  0.5382  0.1856
 6990SOL     OW22976   5.784   3.106  10.079  0.0678  0.6524 -0.3587
 6990SOL    HW122977   5.804   3.100   9.985 -0.8506 -0.0748 -0.5282
 6990SOL    HW222978   5.796   3.017  10.111  4.0884  1.5275  1.0644
 6991SOL     OW22979   6.924  10.123   6.937  0.1813 -0.4953 -0.4596
 6991SOL    HW122980   6.968  10.120   6.852  1.6668 -0.1775  0.2679
 6991SOL    HW222981   6.977  10.067   6.994  0.4084  0.9013  0.7753
 6992SOL     OW22982   9.360   2.374  11.040  0.0794  0.3264 -0.2716
 6992SOL    HW122983   9.340   2.421  11.120 -2.1684  1.6596 -1.5102
 6992SOL    HW222984   9.324   2.286  11.053  0.2241  0.3587  0.3620
 6993SOL     OW22985   3.557   9.397   5.480 -0.2398  0.2101  0.1775
 6993SOL    HW122986   3.613   9.371   5.407 -1.1486 -2.0682  0.2114
 6993SOL    HW222987   3.535   9.489   5.461  0.6494  0.0919 -1.6823
 6994SOL     OW22988   3.029   9.147   5.575 -0.0380  0.5019 -0.1501
 6994SOL    HW122989   3.067   9.175   5.659 -0.0739 -2.5047  1.0244
 6994SOL    HW222990   2.949   9.198   5.567  1.0179  2.3760  0.5547
 6995SOL     OW22991   4.031   5.429   5.876 -0.4427 -0.7563 -0.0439
 6995SOL    HW122992   4.098   5.446   5.811  0.2137 -1.6294  0.3747
 6995SOL    HW222993   4.054   5.343   5.912  0.8492  0.7620  3.2499
 6996SOL     OW22994   5.252   5.291   7.335  0.4759 -0.4790  0.0219
 6996SOL    HW122995   5.164   5.320   7.358  1.3088  0.3342  2.6484
 6996SOL    HW222996   5.257   5.200   7.364 -0.0981 -1.2560 -2.1327
 6997SOL     OW22997   3.770   4.334   5.854  0.8493  0.1411 -1.0143
 6997SOL    HW122998   3.827   4.352   5.779  0.6540 -0.1606 -1.2378
 6997SOL    HW222999   3.826   4.348   5.931  1.4180 -0.7875 -1.2382
 6998SOL     OW23000   9.357   1.652   9.031 -0.1186 -0.1864 -0.0607
 6998SOL    HW123001   9.262   1.647   9.035 -0.2107  0.9507 -0.6825
 6998SOL    HW223002   9.378   1.642   8.939  0.6156 -3.8211  0.3512
 6999SOL     OW23003   6.949   4.740  10.040  0.1447 -0.2984 -0.4456
 6999SOL    HW123004   6.989   4.824  10.016  0.1633 -0.3901 -0.7407
 6999SOL    HW223005   6.865   4.740   9.995 -0.5057  0.1953  0.7289
 7000SOL     OW23006   3.349   7.454   9.005  0.0337 -0.1078 -0.5483
 7000SOL    HW123007   3.362   7.384   9.069 -0.2149 -0.5546 -0.9765
 7000SOL    HW223008   3.433   7.460   8.959  0.3214  0.4410  0.0297
 7001SOL     OW23009   4.978   3.340   9.653 -0.5096 -0.3113  0.1535
 7001SOL    HW123010   4.909   3.332   9.718 -1.2631  0.8846 -0.4631
 7001SOL    HW223011   4.973   3.431   9.624  2.0255  0.1362  0.8706
 7002SOL     OW23012   0.107   2.196   8.227 -0.0707  0.5014  0.1356
 7002SOL    HW123013   0.042   2.193   8.157  0.6823  0.5036 -0.5679
 7002SOL    HW223014   0.092   2.116   8.278 -1.7106  1.2974  0.9804
 7003SOL     OW23015   3.133   4.041   2.855  0.2070  0.0998 -0.7025
 7003SOL    HW123016   3.122   4.083   2.770  2.3259 -2.1208 -2.2134
 7003SOL    HW223017   3.105   3.951   2.842  0.2865 -0.2106  1.0397
 7004SOL     OW23018   5.839   5.446   5.654 -0.0805 -0.0310 -0.2175
 7004SOL    HW123019   5.882   5.419   5.734 -1.3020 -0.5702  0.2867
 7004SOL    HW223020   5.770   5.505   5.683  0.5815  1.1846 -1.0429
 7005SOL     OW23021   4.612   4.806   7.902  0.1620  0.1178  0.3673
 7005SOL    HW123022   4.637   4.738   7.964 -1.0528 -0.2462  0.4784
 7005SOL    HW223023   4.670   4.792   7.827  0.3543 -0.6263  0.6433
 7006SOL     OW23024  10.346   5.222   3.119  0.1474  0.4835 -0.0816
 7006SOL    HW123025  10.434   5.238   3.085 -0.3039  0.0429 -1.5307
 7006SOL    HW223026  10.290   5.283   3.070 -0.4818  0.0492  0.0843
 7007SOL     OW23027   2.075   5.953   1.603  0.2428 -0.4934  0.3504
 7007SOL    HW123028   2.031   5.872   1.628  0.1011 -0.1487  1.2760
 7007SOL    HW223029   2.084   6.001   1.686  1.8541 -0.3076  0.0946
 7008SOL     OW23030   6.748   0.147   6.266 -0.2206  0.3340  0.0219
 7008SOL    HW123031   6.735   0.231   6.222  1.0400  0.1759 -0.7153
 7008SOL    HW223032   6.687   0.088   6.223  1.2828  0.0806 -1.8988
 7009SOL     OW23033   3.097   3.039   4.113 -0.2004  0.1730  0.0507
 7009SOL    HW123034   3.169   3.000   4.163  0.0313 -1.0233 -1.1440
 7009SOL    HW223035   3.029   3.055   4.178 -1.1768 -4.3196  0.4547
 7010SOL     OW23036  10.414   1.564   7.096  0.2240  0.4811  0.3174
 7010SOL    HW123037  10.476   1.589   7.164  0.7712  0.6617 -0.2438
 7010SOL    HW223038  10.367   1.489   7.133 -0.1072  1.1321  1.2528
 7011SOL     OW23039   8.901   0.803   2.074  0.4136  0.4149  0.1167
 7011SOL    HW123040   8.838   0.857   2.122  0.5382  0.0113  0.7314
 7011SOL    HW223041   8.854   0.721   2.057  0.1050  0.8137 -1.1122
 7012SOL     OW23042   0.060   0.589   6.762  0.7150  0.1122 -0.4930
 7012SOL    HW123043   0.032   0.680   6.771  1.8396  0.3277  1.3031
 7012SOL    HW223044   0.126   0.591   6.693  1.9790  0.9961  0.6937
 7013SOL     OW23045   3.206   6.974   7.212 -0.3443 -0.3509  0.1774
 7013SOL    HW123046   3.228   6.917   7.139 -0.3122  0.8757 -0.8100
 7013SOL    HW223047   3.247   7.058   7.190  0.1130 -0.0886  1.8679
 7014SOL     OW23048   2.164   4.492   6.788 -0.3959 -0.1199  0.3030
 7014SOL    HW123049   2.218   4.414   6.772  0.7531  0.6652  0.2194
 7014SOL    HW223050   2.131   4.516   6.701 -1.9357 -1.3221  0.5269
 7015SOL     OW23051   8.732   5.062   3.799  0.0916 -0.1685  0.1775
 7015SOL    HW123052   8.756   5.061   3.707 -1.6149 -0.0544 -0.3072
 7015SOL    HW223053   8.696   5.149   3.814  2.1413  0.5270  1.4987
 7016SOL     OW23054   9.206   2.502   3.089 -0.0163 -0.0326  0.4112
 7016SOL    HW123055   9.131   2.532   3.039 -0.9371 -2.5931  0.0664
 7016SOL    HW223056   9.281   2.516   3.031 -0.6769 -0.2585 -0.5273
 7017SOL     OW23057  10.441  10.332   2.621 -0.2767  0.4819 -0.0708
 7017SOL    HW123058  10.349  10.354   2.607 -0.2651 -0.4863 -2.0485
 7017SOL    HW223059  10.482  10.416   2.645 -1.5068  1.0942 -0.0169
 7018SOL     OW23060   4.578   3.380   5.117 -0.1728 -0.2383  0.3405
 7018SOL    HW123061   4.605   3.401   5.027 -1.3628 -2.1804 -0.5367
 7018SOL    HW223062   4.651   3.329   5.152  0.1180  0.1802  0.3600
 7019SOL     OW23063   3.452   2.115   4.130 -0.0735 -0.2984 -0.9975
 7019SOL    HW123064   3.365   2.094   4.164  0.2610 -0.8035 -0.4367
 7019SOL    HW223065   3.446   2.206   4.103 -0.3394  0.1333  0.4705
 7020SOL     OW23066   0.060   5.886   8.141 -0.2919 -0.2387  0.4937
 7020SOL    HW123067   0.042   5.829   8.216 -2.0026 -1.1500 -0.5590
 7020SOL    HW223068   0.012   5.967   8.161  1.3786  0.5451  1.5496
 7021SOL     OW23069   9.103  10.354   7.386  0.7698  0.1884 -0.9109
 7021SOL    HW123070   9.138  10.418   7.448 -0.2593  0.9770 -1.1154
 7021SOL    HW223071   9.116  10.393   7.300 -0.3281  0.3823 -1.0086
 7022SOL     OW23072   9.974   0.664   1.795  0.3145  0.0582 -0.1618
 7022SOL    HW123073  10.010   0.691   1.880 -0.8026 -1.3773  0.8160
 7022SOL    HW223074  10.051   0.640   1.743  1.0089  0.8340  0.4826
 7023SOL     OW23075   2.851  10.729   3.365 -0.3492  0.2016 -0.5999
 7023SOL    HW123076   2.903  10.677   3.427 -0.6326 -1.0524 -1.3722
 7023SOL    HW223077   2.764  10.734   3.405 -0.3908 -0.1493 -0.6466
 7024SOL     OW23078   1.030   6.764   8.656  0.9105  0.6580  0.2951
 7024SOL    HW123079   1.056   6.774   8.564  1.2129 -1.2224  0.1340
 7024SOL    HW223080   0.935   6.750   8.653  1.3198 -3.2885 -0.2199
 7025SOL     OW23081   6.165   8.563   1.599 -0.1575  0.2570 -0.5465
 7025SOL    HW123082   6.206   8.599   1.678 -1.1630  5.0292 -1.8903
 7025SOL    HW223083   6.077   8.539   1.626  0.3650 -0.8207  0.2884
 7026SOL     OW23084   9.839   8.266  10.261 -0.2971  0.5639  0.9214
 7026SOL    HW123085   9.923   8.298  10.294  0.3538 -0.8443  0.7053
 7026SOL    HW223086   9.804   8.213  10.333  0.2493 -0.9884  0.0953
 7027SOL     OW23087   3.562   1.747  10.973  0.1844 -0.4490  0.5384
 7027SOL    HW123088   3.536   1.760  11.064  1.0921 -1.7655  1.0123
 7027SOL    HW223089   3.529   1.660  10.951 -1.7559  0.6014 -1.0540
 7028SOL     OW23090   0.829   3.559   2.876 -0.0881  1.1813 -0.5706
 7028SOL    HW123091   0.890   3.604   2.817  1.5532 -0.2765 -0.0464
 7028SOL    HW223092   0.783   3.630   2.921  3.1634  2.4686  1.0407
 7029SOL     OW23093   9.639   2.668   3.577  0.5979 -0.2827  0.7970
 7029SOL    HW123094   9.665   2.591   3.626  0.0709  0.5668  2.4985
 7029SOL    HW223095   9.618   2.733   3.644 -2.1518  0.3078 -0.4922
 7030SOL     OW23096   2.683   2.561   3.334  0.0807 -0.2619 -0.1581
 7030SOL    HW123097   2.711   2.554   3.243 -1.4289  0.1232 -0.6893
 7030SOL    HW223098   2.642   2.477   3.354 -0.1223 -0.1356 -0.0323
 7031SOL     OW23099   1.181   7.352   2.882 -0.1224  0.3281  0.2332
 7031SOL    HW123100   1.217   7.276   2.928 -0.5263  0.2380  0.4057
 7031SOL    HW223101   1.212   7.343   2.792 -0.9753 -0.5851  0.0081
 7032SOL     OW23102  11.057   4.609   7.669  0.2366 -0.3419 -0.5602
 7032SOL    HW123103  11.036   4.542   7.733 -0.1676 -0.1391 -0.4770
 7032SOL    HW223104  11.151   4.625   7.680  0.1745 -0.3303 -0.0483
 7033SOL     OW23105   9.078   1.175   7.595  0.3188  0.0255  0.3351
 7033SOL    HW123106   9.084   1.269   7.578  1.5831 -0.3184 -1.4415
 7033SOL    HW223107   9.139   1.135   7.532  2.2241 -1.8016  3.1092
 7034SOL     OW23108   9.948   5.015   4.626 -0.4570  0.0185  0.4872
 7034SOL    HW123109   9.874   5.075   4.621 -1.0707 -0.8229 -2.5464
 7034SOL    HW223110   9.952   4.975   4.539  0.5167 -3.6206  2.0226
 7035SOL     OW23111   3.955   6.238   6.408  0.7046 -0.4783 -0.2539
 7035SOL    HW123112   3.883   6.294   6.379  0.2939 -0.9020 -0.0757
 7035SOL    HW223113   3.994   6.206   6.327  1.1880  0.3649 -0.3619
 7036SOL     OW23114   2.055   3.376   4.140  0.2985  0.3222 -0.2518
 7036SOL    HW123115   1.981   3.436   4.149  0.7372  0.8080  0.1972
 7036SOL    HW223116   2.098   3.402   4.058  2.3193  2.7567  1.4142
 7037SOL     OW23117  11.001   3.995   4.435 -0.7102  0.0902  0.0792
 7037SOL    HW123118  10.923   3.979   4.382  0.2506 -2.6248 -0.6989
 7037SOL    HW223119  11.029   4.083   4.412 -3.5130  1.1392  0.3915
 7038SOL     OW23120   3.569   3.090   5.888 -0.0204 -0.2451 -0.4756
 7038SOL    HW123121   3.544   3.023   5.951  1.7771  0.4306  1.0593
 7038SOL    HW223122   3.562   3.173   5.937  1.1985  0.3188 -1.2025
 7039SOL     OW23123   1.760   6.511   1.399  0.1699 -0.2057  0.4558
 7039SOL    HW123124   1.815   6.438   1.369  0.7292  1.9003 -4.6369
 7039SOL    HW223125   1.709   6.536   1.322 -3.0223  2.2971  3.1011
 7040SOL     OW23126   0.512   0.650   2.256  0.2431  0.5194  0.1967
 7040SOL    HW123127   0.457   0.718   2.215 -2.4981 -2.4580 -1.6179
 7040SOL    HW223128   0.491   0.655   2.349 -1.3540  1.0097 -0.1501
 7041SOL     OW23129   8.529   0.583   4.571 -0.1570  0.1491  0.1671
 7041SOL    HW123130   8.509   0.671   4.602 -0.5340 -0.5161  1.9362
 7041SOL    HW223131   8.445   0.547   4.544 -0.3050 -0.2551  1.1159
 7042SOL     OW23132  11.046  10.300   9.808 -0.1902 -0.6971  0.3310
 7042SOL    HW123133  11.012  10.386   9.781 -1.1007 -0.7934  1.1113
 7042SOL    HW223134  11.074  10.312   9.898  1.2834 -0.8060 -0.0811
 7043SOL     OW23135   7.350   8.540   1.228  0.8172  0.2301  0.3729
 7043SOL    HW123136   7.430   8.515   1.274  1.7752 -0.1580 -1.4074
 7043SOL    HW223137   7.379   8.597   1.157 -0.5165  0.2909 -0.1632
 7044SOL     OW23138   6.826  10.573   9.199  0.2193  0.0480 -0.1284
 7044SOL    HW123139   6.881  10.512   9.248 -1.2185 -0.7279  0.5877
 7044SOL    HW223140   6.793  10.522   9.125  0.8870  0.6671 -0.8643
 7045SOL     OW23141   2.009   9.886   5.220 -0.1464  0.1110  0.4644
 7045SOL    HW123142   2.078   9.946   5.192 -0.7590  0.1029 -1.1600
 7045SOL    HW223143   2.010   9.891   5.316  1.1913  1.1226  0.4247
 7046SOL     OW23144   1.146   0.161   1.958 -0.0482 -0.9218  0.3295
 7046SOL    HW123145   1.060   0.189   1.927  0.3796 -1.2166 -1.2165
 7046SOL    HW223146   1.139   0.066   1.966  0.9668 -1.3770 -2.8470
 7047SOL     OW23147   9.962   8.118   0.627 -0.3813 -0.9880 -0.1666
 7047SOL    HW123148  10.049   8.123   0.666 -0.3978 -2.4486  0.1301
 7047SOL    HW223149   9.930   8.208   0.628  0.9714 -0.4898  0.0652
 7048SOL     OW23150   0.612   1.692   6.846 -0.1815  0.8381  0.2035
 7048SOL    HW123151   0.628   1.598   6.858  0.4366  0.9213  0.0693
 7048SOL    HW223152   0.646   1.732   6.926  2.6924  1.2605 -1.0882
 7049SOL     OW23153   0.211   6.618   8.332 -0.2153 -0.4269 -0.5482
 7049SOL    HW123154   0.241   6.552   8.394 -1.1812 -0.8581 -0.5188
 7049SOL    HW223155   0.202   6.698   8.385 -0.2064 -0.5759 -0.3212
 7050SOL     OW23156  11.007   0.261   0.333  0.2004 -0.0237  0.6321
 7050SOL    HW123157  11.010   0.168   0.355  0.0584  0.0483  0.9635
 7050SOL    HW223158  11.013   0.306   0.417  0.3484  0.2702  0.4685
 7051SOL     OW23159   3.733   5.913   9.320  0.0886 -0.3685  0.0750
 7051SOL    HW123160   3.646   5.951   9.313  0.5541  0.8362  0.5267
 7051SOL    HW223161   3.719   5.819   9.310 -0.9488 -0.0314 -2.4322
 7052SOL     OW23162   4.509   1.306   8.062 -0.5270 -0.4432 -0.3869
 7052SOL    HW123163   4.451   1.273   8.130  1.9307 -1.9388  1.1494
 7052SOL    HW223164   4.456   1.306   7.983 -3.0502 -0.1194  1.2071
 7053SOL     OW23165   9.827   9.861   0.500  0.4925  0.4637 -0.0521
 7053SOL    HW123166   9.868   9.824   0.422  2.3409  0.4718  0.8717
 7053SOL    HW223167   9.809   9.952   0.476  0.1138  0.2073 -0.7883
 7054SOL     OW23168   4.917   5.382   4.051  0.6855 -0.2267  0.6586
 7054SOL    HW123169   4.990   5.432   4.089  4.2658 -2.8868 -2.0550
 7054SOL    HW223170   4.908   5.416   3.962 -1.3015 -0.1487  0.8517
 7055SOL     OW23171   6.208  10.826   7.000  0.3035 -0.0319 -0.3770
 7055SOL    HW123172   6.216  10.848   6.907  0.2044 -0.7361 -0.5567
 7055SOL    HW223173   6.278  10.875   7.043  0.3770  0.2636 -0.8271
 7056SOL     OW23174   3.642   0.167   3.812 -0.4128 -0.4947 -0.2562
 7056SOL    HW123175   3.679   0.252   3.835 -0.2589 -0.7336  0.4052
 7056SOL    HW223176   3.616   0.128   3.896  1.4966 -2.0164 -0.2904
 7057SOL     OW23177   4.196   1.611   9.838  0.0853  0.6091  0.1652
 7057SOL    HW123178   4.250   1.534   9.822 -1.9092 -1.2423  1.7170
 7057SOL    HW223179   4.256   1.677   9.870  1.5558 -1.0414  0.9572
 7058SOL     OW23180   5.124   5.979  10.588  0.9893  0.4083 -1.1578
 7058SOL    HW123181   5.219   5.975  10.577  0.9453  1.1249 -1.9539
 7058SOL    HW223182   5.099   6.062  10.546  0.0053  0.1707 -1.0585
 7059SOL     OW23183   5.667   8.984   8.696 -0.3841  0.1124 -0.4471
 7059SOL    HW123184   5.690   8.987   8.789  3.8141 -1.7615 -1.1933
 7059SOL    HW223185   5.612   8.906   8.688  0.8429 -0.8865  0.2919
 7060SOL     OW23186   8.565   8.891  10.620  0.4781 -0.0028 -0.1612
 7060SOL    HW123187   8.497   8.833  10.654 -0.3882 -0.9730 -3.2486
 7060SOL    HW223188   8.621   8.834  10.567  2.0739  1.2934  0.0550
 7061SOL     OW23189   2.106   6.793   0.320  0.3085  0.2468  0.2264
 7061SOL    HW123190   2.012   6.812   0.324  0.3492  0.9285 -1.2426
 7061SOL    HW223191   2.145   6.853   0.384 -0.1893  0.6220  0.1884
 7062SOL     OW23192   9.334   3.881   4.125 -0.0280  0.5121 -0.1130
 7062SOL    HW123193   9.264   3.825   4.092 -0.5498  1.3741 -0.5020
 7062SOL    HW223194   9.406   3.821   4.142 -0.4934 -0.2466 -0.7362
 7063SOL     OW23195   2.071   6.024   1.327  0.9552 -0.0662  0.1413
 7063SOL    HW123196   2.150   5.998   1.280  0.3861 -1.6752  0.0444
 7063SOL    HW223197   2.076   5.979   1.411  0.0965 -0.2757  0.0923
 7064SOL     OW23198   0.537   2.888   9.885  0.0425  0.1532  0.1301
 7064SOL    HW123199   0.509   2.875   9.795  3.3828 -0.2860 -0.9763
 7064SOL    HW223200   0.456   2.886   9.936 -1.7250 -3.0086 -2.4352
 7065SOL     OW23201   5.196   0.703   7.764  0.4708  0.4476 -0.6334
 7065SOL    HW123202   5.277   0.748   7.741  1.8617 -1.7385 -0.3056
 7065SOL    HW223203   5.224   0.630   7.820 -1.9219  0.6462  0.9530
 7066SOL     OW23204   9.857   2.055   7.323 -0.2276  0.7055  0.7637
 7066SOL    HW123205   9.942   2.017   7.346 -0.5666  0.8188  2.3189
 7066SOL    HW223206   9.835   2.016   7.238 -0.1199 -1.8398  1.8251
 7067SOL     OW23207   5.572   4.055   8.327  0.3386  0.7271 -0.5658
 7067SOL    HW123208   5.540   4.001   8.254 -1.3492  2.0872 -0.9088
 7067SOL    HW223209   5.615   3.993   8.385  0.0614 -0.7002 -1.8029
 7068SOL     OW23210   8.083   5.740   7.690  0.4691 -0.4083 -0.1315
 7068SOL    HW123211   8.041   5.738   7.605  0.4760  0.0389 -0.1491
 7068SOL    HW223212   8.162   5.792   7.676  1.2220 -1.5298 -0.1854
 7069SOL     OW23213   6.108   9.907   4.468 -0.2146 -0.0712  0.1959
 7069SOL    HW123214   6.027   9.951   4.494  0.0177  0.0749  0.7065
 7069SOL    HW223215   6.107   9.825   4.518  0.3400  0.3081  0.8590
 7070SOL     OW23216   7.978   5.183   3.375 -0.0416 -0.3574 -0.3834
 7070SOL    HW123217   7.903   5.140   3.416 -1.5862  1.7717 -0.7808
 7070SOL    HW223218   8.045   5.184   3.443 -1.3140  0.0359  0.9284
 7071SOL     OW23219   7.527   0.685   8.372  0.1285  0.0458 -0.4580
 7071SOL    HW123220   7.524   0.780   8.385 -0.6477  0.1381 -1.2658
 7071SOL    HW223221   7.611   0.659   8.410 -0.4157  0.7941  1.3733
 7072SOL     OW23222   7.814   6.995   3.526 -0.7621  0.1561 -0.4053
 7072SOL    HW123223   7.879   7.053   3.565 -1.0769  0.4865 -0.3600
 7072SOL    HW223224   7.762   7.052   3.469 -0.2667 -0.3327 -1.3653
 7073SOL     OW23225   7.131  10.487   7.423 -0.2367 -0.2237  0.1374
 7073SOL    HW123226   7.162  10.559   7.478  1.9888 -0.0538 -1.2231
 7073SOL    HW223227   7.067  10.527   7.364  0.2169  0.4317  0.0810
 7074SOL     OW23228   9.084  10.421   3.341  0.0524 -0.7389  0.8594
 7074SOL    HW123229   9.048  10.370   3.414  1.0114 -1.0528  1.1280
 7074SOL    HW223230   9.144  10.361   3.297  1.9842  0.4066  1.7826
 7075SOL     OW23231   4.026   8.121   7.290 -0.5842 -0.2876 -0.5132
 7075SOL    HW123232   4.116   8.107   7.321 -1.2761  0.2350  1.9599
 7075SOL    HW223233   4.035   8.181   7.215  0.9874  2.3260  1.5836
 7076SOL     OW23234   2.139  10.940   6.861  0.1398  0.1641 -0.0827
 7076SOL    HW123235   2.057  10.894   6.843  0.5069  0.0016 -1.5107
 7076SOL    HW223236   2.194  10.874   6.903  0.0674 -0.2149 -0.5659
 7077SOL     OW23237   3.771   0.531   9.671 -0.5141  0.1012 -0.4137
 7077SOL    HW123238   3.801   0.444   9.695  0.1003  0.1784 -0.8480
 7077SOL    HW223239   3.754   0.525   9.577 -0.4857  0.4407 -0.4430
 7078SOL     OW23240   9.412   2.790   7.489 -0.2018 -0.6317  0.3859
 7078SOL    HW123241   9.347   2.837   7.435 -2.2494 -1.5192  1.9361
 7078SOL    HW223242   9.441   2.856   7.553 -0.0329 -0.3956  0.0694
 7079SOL     OW23243   0.353   3.735   5.970  0.7211  0.5624 -0.1978
 7079SOL    HW123244   0.379   3.805   5.910 -0.7099  1.5682  0.3071
 7079SOL    HW223245   0.336   3.660   5.914  0.2391  1.2338 -0.9618
 7080SOL     OW23246   4.975   1.473  10.073 -0.4611  0.3048  0.4482
 7080SOL    HW123247   4.971   1.546  10.012  0.7492  0.6503  0.7456
 7080SOL    HW223248   5.048   1.419  10.040 -0.9432 -0.4446  0.5829
 7081SOL     OW23249   9.905   2.401   9.644 -0.0903  0.7672  0.4970
 7081SOL    HW123250   9.910   2.431   9.553  1.2145  0.4467  0.4548
 7081SOL    HW223251   9.874   2.478   9.692 -1.7200  0.6620 -0.3338
 7082SOL     OW23252  10.172   4.194   3.514 -0.5773 -0.8278 -0.9887
 7082SOL    HW123253  10.109   4.214   3.445 -0.4905  0.5020 -0.7035
 7082SOL    HW223254  10.196   4.279   3.551  2.7052 -1.0310 -2.2404
 7083SOL     OW23255   7.509   8.823   3.056  0.5404 -0.0729  0.5288
 7083SOL    HW123256   7.458   8.834   2.975  1.5012 -1.9952 -0.4102
 7083SOL    HW223257   7.458   8.868   3.123 -0.1254  1.8599 -1.1904
 7084SOL     OW23258   5.109   5.134   6.623  0.5870  0.0459 -0.5463
 7084SOL    HW123259   5.102   5.210   6.566 -0.1540  1.0109  0.7765
 7084SOL    HW223260   5.141   5.169   6.707 -1.1005 -0.8211  0.5243
 7085SOL     OW23261   1.167   9.294   1.219 -0.2661  0.9627  0.0673
 7085SOL    HW123262   1.148   9.286   1.125 -1.4006  1.4794  0.2315
 7085SOL    HW223263   1.138   9.210   1.256  1.3497  0.2558 -0.1949
 7086SOL     OW23264   1.036  10.990   3.536  0.6171  0.0215 -0.3075
 7086SOL    HW123265   1.130  10.992   3.517  1.0639 -0.3602  1.6161
 7086SOL    HW223266   1.024  11.056   3.605 -0.7788  0.9680 -1.3962
 7087SOL     OW23267  10.544  11.049   4.642  0.1853  0.4462 -0.4324
 7087SOL    HW123268  10.479  11.071   4.708 -0.5994  0.3687 -1.1662
 7087SOL    HW223269  10.496  11.048   4.560  0.8386 -0.8519 -0.8374
 7088SOL     OW23270  10.184   4.167   0.418 -0.7667 -0.3376  0.3533
 7088SOL    HW123271  10.185   4.074   0.395 -0.5741 -1.0009  2.7745
 7088SOL    HW223272  10.125   4.207   0.353  0.1104 -1.8809 -1.4992
 7089SOL     OW23273   2.685   9.810   9.428  0.4702  0.9710  0.1396
 7089SOL    HW123274   2.735   9.768   9.498  0.1596 -2.3548 -1.4356
 7089SOL    HW223275   2.594   9.803   9.457  0.4781  1.3715  0.2624
 7090SOL     OW23276   7.748   0.676   3.534 -0.0599 -0.8432 -0.0690
 7090SOL    HW123277   7.707   0.598   3.571 -0.4504 -0.9038 -0.6111
 7090SOL    HW223278   7.718   0.677   3.443 -0.1260 -0.0088 -0.0383
 7091SOL     OW23279   5.364   6.594   8.403 -0.2025  0.2721  0.7385
 7091SOL    HW123280   5.373   6.596   8.499  0.6419  0.5080  0.6669
 7091SOL    HW223281   5.411   6.672   8.374 -1.1422  0.6327  0.1706
 7092SOL     OW23282   3.171   1.716   6.357 -0.3049 -0.5812  0.4718
 7092SOL    HW123283   3.178   1.628   6.395 -0.8957  0.0356  2.0724
 7092SOL    HW223284   3.160   1.774   6.432 -3.7797  0.5029 -0.6981
 7093SOL     OW23285   1.430   3.544  10.080 -1.0686  0.1479  0.1513
 7093SOL    HW123286   1.495   3.551  10.010 -2.1584  1.7732 -0.7732
 7093SOL    HW223287   1.476   3.501  10.151  0.5135 -0.2640 -1.0564
 7094SOL     OW23288   0.329   5.414   4.499 -0.4666  0.1568 -0.8537
 7094SOL    HW123289   0.257   5.355   4.519  1.3372 -1.8305  0.1173
 7094SOL    HW223290   0.356   5.448   4.584  0.8582 -0.5265 -0.9821
 7095SOL     OW23291  10.624   9.568   2.064 -0.4308 -0.0876 -0.2682
 7095SOL    HW123292  10.691   9.500   2.070  0.0788  0.4548  0.2297
 7095SOL    HW223293  10.659   9.641   2.115 -1.2455  0.3287 -0.2954
 7096SOL     OW23294   1.451   9.627   6.775 -0.2877  0.3260 -0.2679
 7096SOL    HW123295   1.471   9.570   6.700 -0.8298 -1.9644  1.2233
 7096SOL    HW223296   1.366   9.595   6.806  0.2919  0.6762  1.7753
 7097SOL     OW23297  10.338   9.820   3.053 -0.4427 -0.3896  0.4917
 7097SOL    HW123298  10.328   9.729   3.024 -0.2121 -0.1902 -0.2404
 7097SOL    HW223299  10.394   9.860   2.986  1.3204 -0.2701  1.9593
 7098SOL     OW23300   7.003   1.920  10.313 -0.1173 -0.0800  0.6890
 7098SOL    HW123301   6.997   1.871  10.231  0.9513 -0.8723  1.0608
 7098SOL    HW223302   6.932   1.887  10.367  0.0408 -0.5783  0.5961
 7099SOL     OW23303   9.155   5.603   6.595  0.1048  0.4899 -0.2933
 7099SOL    HW123304   9.221   5.568   6.655 -0.5927  1.1038  0.8662
 7099SOL    HW223305   9.179   5.568   6.509  0.8794 -0.7644  0.4105
 7100SOL     OW23306   0.126   0.022   4.809 -0.1490 -0.4447 -0.1457
 7100SOL    HW123307   0.200  -0.021   4.852  0.3322 -0.7180 -1.2166
 7100SOL    HW223308   0.069  -0.050   4.782 -0.0290 -0.3424 -0.6944
 7101SOL     OW23309   5.000   3.994   9.226  0.1790 -0.4433 -0.2411
 7101SOL    HW123310   4.985   4.084   9.198  0.7981 -0.5724 -1.0059
 7101SOL    HW223311   5.094   3.981   9.217  0.7528  0.0358  3.5437
 7102SOL     OW23312   0.973  10.293   9.852 -0.4623  0.4801  0.2566
 7102SOL    HW123313   1.008  10.289   9.762 -2.9508 -1.6707 -0.7222
 7102SOL    HW223314   1.051  10.293   9.907  1.1489  1.0024 -1.8621
 7103SOL     OW23315  11.006   8.848  10.958  0.3499  0.6588  0.5516
 7103SOL    HW123316  10.946   8.923  10.952  0.3381  0.9416  3.1413
 7103SOL    HW223317  11.092   8.886  10.938 -0.1362  0.2789 -3.0298
 7104SOL     OW23318   2.577   5.212   6.797 -0.2355 -0.4069  0.0113
 7104SOL    HW123319   2.487   5.226   6.827  0.4326  1.0630  1.4769
 7104SOL    HW223320   2.611   5.142   6.853  0.4586  1.1452  1.6208
 7105SOL     OW23321   0.648   6.061  10.102 -0.9683 -0.4662 -0.4906
 7105SOL    HW123322   0.694   5.982  10.131 -0.7186 -1.1413 -2.5889
 7105SOL    HW223323   0.615   6.039  10.015 -3.2033  0.8435 -0.0673
 7106SOL     OW23324   7.378   9.495   2.146  0.3318 -0.0080  0.5836
 7106SOL    HW123325   7.299   9.449   2.120  1.9902 -3.3566  0.9733
 7106SOL    HW223326   7.357   9.532   2.232 -0.4087 -2.2074  1.4210
 7107SOL     OW23327   8.981   7.585   4.393  0.4789  0.1521 -0.0010
 7107SOL    HW123328   8.926   7.530   4.338  2.0603 -0.4268 -1.0801
 7107SOL    HW223329   9.068   7.579   4.353  0.8886  2.7627  0.3571
 7108SOL     OW23330   6.607   7.401  10.692  0.4681  0.2146  0.1936
 7108SOL    HW123331   6.570   7.426  10.777  1.3387 -1.1874  1.0395
 7108SOL    HW223332   6.560   7.454  10.628 -1.9577 -0.4368  1.3287
 7109SOL     OW23333   4.259   0.459   9.246  0.0352  1.0768 -0.6811
 7109SOL    HW123334   4.305   0.407   9.180  0.0855  0.8020 -0.4276
 7109SOL    HW223335   4.238   0.397   9.315  0.1353  1.4018 -0.3594
 7110SOL     OW23336   9.929   4.558   6.217 -0.2630  0.1355 -0.0295
 7110SOL    HW123337   9.849   4.606   6.240 -0.2737  0.2953 -0.4039
 7110SOL    HW223338   9.958   4.597   6.135  0.8406  0.8773  0.6809
 7111SOL     OW23339   4.846   0.339   7.675 -0.7401 -0.0461 -0.1312
 7111SOL    HW123340   4.758   0.317   7.643 -1.4137 -0.1308  1.6904
 7111SOL    HW223341   4.901   0.333   7.597 -2.6225  1.8561 -1.7375
 7112SOL     OW23342   1.080   0.510   8.843  0.2552 -0.2613 -0.2984
 7112SOL    HW123343   1.070   0.443   8.775  2.0781 -1.1671  0.2617
 7112SOL    HW223344   1.140   0.573   8.806  2.7610 -1.7071  1.0297
 7113SOL     OW23345  10.193   5.524   8.953 -0.5996 -1.0386 -0.2191
 7113SOL    HW123346  10.286   5.506   8.944 -0.6741 -0.8351 -1.9119
 7113SOL    HW223347  10.179   5.536   9.046  1.9121  3.1060 -0.1232
 7114SOL     OW23348   3.425   7.056  10.606 -0.3144 -0.6341  0.3774
 7114SOL    HW123349   3.372   7.000  10.663  0.2082 -1.0945  0.4245
 7114SOL    HW223350   3.500   7.081  10.660 -0.7482  0.4795  0.4961
 7115SOL     OW23351  10.179   9.316   1.483 -0.1626  0.3292 -0.3935
 7115SOL    HW123352  10.262   9.312   1.435  0.0112  1.2359 -0.1754
 7115SOL    HW223353  10.170   9.407   1.509 -2.2810  0.7639 -2.2914
 7116SOL     OW23354  10.323   2.064   0.104  0.1277 -0.4145  0.5130
 7116SOL    HW123355  10.283   2.085   0.020 -0.4188 -0.6502  0.7069
 7116SOL    HW223356  10.351   1.973   0.097  0.7810 -0.2067  0.3261
 7117SOL     OW23357   6.710   4.488   5.035  0.0076  0.0329 -0.0093
 7117SOL    HW123358   6.784   4.544   5.058  0.3411  0.0292 -1.0517
 7117SOL    HW223359   6.633   4.542   5.053  0.2078 -0.1661  1.6452
 7118SOL     OW23360   1.341   0.598   5.385  0.2774 -0.1223 -0.2784
 7118SOL    HW123361   1.324   0.640   5.300  0.8373 -2.1706 -1.4608
 7118SOL    HW223362   1.255   0.571   5.416  0.0037  1.1060  0.1174
 7119SOL     OW23363   0.951   7.651   4.209  0.5626 -0.0404 -0.4963
 7119SOL    HW123364   0.993   7.737   4.215  1.2977 -0.4539  0.7580
 7119SOL    HW223365   0.966   7.612   4.295 -0.4868 -1.1010 -0.7778
 7120SOL     OW23366   0.832   1.880   4.741  0.0609  0.4102  0.2842
 7120SOL    HW123367   0.899   1.847   4.681  0.0084 -1.4828  1.1980
 7120SOL    HW223368   0.878   1.941   4.798  0.8354 -0.2663  0.3920
 7121SOL     OW23369   0.453   8.994   7.379 -0.1202 -0.9611 -0.2306
 7121SOL    HW123370   0.494   9.080   7.393 -0.0093 -0.9756 -0.4580
 7121SOL    HW223371   0.447   8.986   7.284  1.6883 -2.0600 -0.2938
 7122SOL     OW23372   5.414   6.499   7.916  0.8885  0.1230  0.4207
 7122SOL    HW123373   5.356   6.500   7.992  2.5615  1.6672  1.7700
 7122SOL    HW223374   5.444   6.590   7.907  0.1197  0.1899 -2.6508
 7123SOL     OW23375   9.354   1.656   9.455 -0.3416 -0.1513  0.2798
 7123SOL    HW123376   9.328   1.748   9.465 -0.6739 -0.0634 -1.1837
 7123SOL    HW223377   9.334   1.617   9.540  0.2999  1.2291  1.1109
 7124SOL     OW23378  10.751   4.113   1.638 -0.0495  0.2793  0.3980
 7124SOL    HW123379  10.801   4.062   1.702 -1.8702 -1.6417  0.4059
 7124SOL    HW223380  10.817   4.160   1.588  1.8651 -2.4493  0.1133
 7125SOL     OW23381   9.150   9.082   6.581 -0.2373 -0.6971 -0.5238
 7125SOL    HW123382   9.117   8.992   6.576 -1.7677 -0.3022  1.3433
 7125SOL    HW223383   9.168   9.096   6.674  0.6569  0.7096 -0.8831
 7126SOL     OW23384   6.546   4.349   0.589  0.6884 -0.8159 -0.2397
 7126SOL    HW123385   6.527   4.337   0.682  0.4381 -0.2475 -0.2110
 7126SOL    HW223386   6.607   4.279   0.567  2.6684  0.4662  0.9362
 7127SOL     OW23387   1.831   4.200   6.940 -0.2312  0.1169  0.2369
 7127SOL    HW123388   1.880   4.170   6.863 -0.5785 -0.5127  0.2543
 7127SOL    HW223389   1.881   4.167   7.015 -0.2107  0.2232  0.2701
 7128SOL     OW23390   7.886   9.800   0.534 -0.1928 -0.0504  0.4320
 7128SOL    HW123391   7.919   9.870   0.590  3.0633 -0.4088 -0.8353
 7128SOL    HW223392   7.964   9.758   0.499 -2.0001 -0.9805 -2.9812
 7129SOL     OW23393   8.514   4.701   9.108  0.8978 -0.1342 -0.1262
 7129SOL    HW123394   8.436   4.750   9.081  1.2544  0.0851 -0.7933
 7129SOL    HW223395   8.480   4.626   9.156  0.3435  0.8760  1.1221
 7130SOL     OW23396   8.493   5.846   5.189  0.1617 -0.2194  0.2744
 7130SOL    HW123397   8.422   5.788   5.161  1.3971 -0.8566 -1.7260
 7130SOL    HW223398   8.484   5.851   5.285 -2.5230 -0.2792  0.1000
 7131SOL     OW23399   2.828   7.500   4.386 -0.8093 -0.3364 -0.0420
 7131SOL    HW123400   2.760   7.436   4.407 -0.7482 -0.2513  0.4156
 7131SOL    HW223401   2.883   7.456   4.321 -0.6198 -0.8419  0.4570
 7132SOL     OW23402   4.799   8.131  11.085  0.4456 -0.3077  0.3477
 7132SOL    HW123403   4.844   8.052  11.116  0.2853  0.3422  2.3352
 7132SOL    HW223404   4.706   8.111  11.093  0.3946  0.4485  1.9411
 7133SOL     OW23405   5.480   4.926   2.859 -0.3010  0.3487  0.8865
 7133SOL    HW123406   5.567   4.922   2.898 -0.0360 -0.6788  0.2171
 7133SOL    HW223407   5.471   4.844   2.811 -0.2867  1.8313 -1.8882
 7134SOL     OW23408   1.197   3.987   4.673  0.2486 -0.1876  0.0228
 7134SOL    HW123409   1.282   4.016   4.640  1.7803 -3.6931  0.4333
 7134SOL    HW223410   1.152   3.952   4.596 -1.3891  2.4472 -0.3797
 7135SOL     OW23411   9.526   3.521   8.732 -0.0790 -0.4369  0.4722
 7135SOL    HW123412   9.547   3.462   8.660 -0.0097  1.0824 -0.8276
 7135SOL    HW223413   9.610   3.540   8.773 -0.0064 -0.6821  0.4359
 7136SOL     OW23414   2.011   2.726  10.167  0.0337  0.2112  0.2903
 7136SOL    HW123415   1.977   2.653  10.115 -0.9415 -0.3241  1.6244
 7136SOL    HW223416   1.992   2.803  10.114 -0.1544 -0.3882 -0.5337
 7137SOL     OW23417   5.379   6.303   7.746  0.0480 -0.6980 -0.6484
 7137SOL    HW123418   5.382   6.381   7.802 -2.5584 -2.1865  1.8610
 7137SOL    HW223419   5.465   6.299   7.705  1.9381  0.9302  2.7423
 7138SOL     OW23420  10.719   1.139   9.429  0.1059  0.0414  0.2424
 7138SOL    HW123421  10.780   1.069   9.404  0.5626  0.8802 -1.0531
 7138SOL    HW223422  10.649   1.093   9.476 -0.0647 -1.4291 -1.3431
 7139SOL     OW23423   2.326  10.981   9.570  0.5838  0.4242  0.2316
 7139SOL    HW123424   2.308  11.043   9.500  2.4735  1.4137  0.5421
 7139SOL    HW223425   2.276  10.903   9.547 -3.0227  2.4364  0.5284
 7140SOL     OW23426   7.221   0.678   1.352 -0.5452  0.5632 -0.1477
 7140SOL    HW123427   7.138   0.679   1.304 -0.4117 -1.9488 -0.5366
 7140SOL    HW223428   7.277   0.739   1.304 -1.6250  0.9943 -0.8982
 7141SOL     OW23429   2.618   3.105   4.695  0.8355  0.1931  0.3372
 7141SOL    HW123430   2.558   3.103   4.770  0.8690  0.5177  0.3718
 7141SOL    HW223431   2.610   3.017   4.657  0.9493 -0.0323  0.8233
 7142SOL     OW23432   7.332   3.835   1.672 -0.2458 -0.2143 -0.4632
 7142SOL    HW123433   7.412   3.818   1.623  0.6769 -1.9059  1.4866
 7142SOL    HW223434   7.289   3.750   1.678 -1.1295  0.2708  0.2692
 7143SOL     OW23435  10.550   4.678   4.560  0.3158 -0.1228  0.1153
 7143SOL    HW123436  10.569   4.770   4.546 -0.4931 -0.0226 -0.3891
 7143SOL    HW223437  10.609   4.632   4.501 -2.8734  0.2845 -3.8581
 7144SOL     OW23438   8.131  10.450   6.926  0.1234 -0.5251  0.3025
 7144SOL    HW123439   8.190  10.478   6.856 -0.0135 -2.0039 -0.4490
 7144SOL    HW223440   8.082  10.529   6.950 -0.1463 -0.0787 -1.5809
 7145SOL     OW23441   4.869   8.470   7.090 -0.4482  0.6188 -0.3323
 7145SOL    HW123442   4.915   8.534   7.145 -0.5326 -0.0898  0.5952
 7145SOL    HW223443   4.805   8.430   7.150 -1.4589  0.7502 -1.2879
 7146SOL     OW23444   3.108   9.185   2.604  0.1610 -0.0143  0.1685
 7146SOL    HW123445   3.100   9.262   2.660 -1.8070 -0.2595  0.3058
 7146SOL    HW223446   3.129   9.113   2.664  2.3625  0.4126 -0.0030
 7147SOL     OW23447   1.596   2.435   3.515 -0.5791 -0.6140 -0.1803
 7147SOL    HW123448   1.657   2.459   3.446 -1.0740 -1.2922 -0.8806
 7147SOL    HW223449   1.628   2.479   3.593  0.5980 -0.6743 -0.6149
 7148SOL     OW23450   4.370   7.113  10.486  0.5094  0.3196  0.1486
 7148SOL    HW123451   4.351   7.022  10.509  0.9392 -0.1192 -1.1601
 7148SOL    HW223452   4.288   7.160  10.502 -0.0181 -0.4897 -0.1642
 7149SOL     OW23453   9.683   6.167   7.625 -0.1947 -0.5513  0.7098
 7149SOL    HW123454   9.614   6.149   7.562 -2.2598 -1.8629  3.1349
 7149SOL    HW223455   9.733   6.085   7.629  0.9778  0.0843 -0.3619
 7150SOL     OW23456   6.039   9.609   9.857 -0.0913 -0.4926  0.1740
 7150SOL    HW123457   5.971   9.595   9.923  0.3938  1.1767  1.0723
 7150SOL    HW223458   6.024   9.698   9.825 -0.0127 -1.0938 -1.6468
 7151SOL     OW23459   2.534   6.436   9.292  0.2023  0.1209 -0.2917
 7151SOL    HW123460   2.497   6.360   9.246 -0.0671  1.5954 -2.6785
 7151SOL    HW223461   2.473   6.507   9.273  1.1252  1.2469  0.8037
 7152SOL     OW23462   5.474  10.691   8.201  0.4451  0.3617  0.6087
 7152SOL    HW123463   5.465  10.595   8.195  0.2832  0.3788  0.5591
 7152SOL    HW223464   5.429  10.724   8.123 -0.8638  0.5451  1.4188
 7153SOL     OW23465   6.358   5.758   3.054 -0.5035 -0.1891  0.3132
 7153SOL    HW123466   6.340   5.849   3.034 -0.0608  0.3017  1.9710
 7153SOL    HW223467   6.361   5.714   2.969  2.6503  1.9516 -0.8597
 7154SOL     OW23468   4.473   1.005   5.339 -0.8059  0.1419 -0.4304
 7154SOL    HW123469   4.508   0.925   5.378 -2.8631  0.1562  1.6374
 7154SOL    HW223470   4.469   0.986   5.245 -0.0794 -1.6809 -0.1334
 7155SOL     OW23471   8.022   7.978   5.139 -0.4353  0.2430  0.5053
 7155SOL    HW123472   7.966   7.958   5.214 -0.4391  0.5715  0.5926
 7155SOL    HW223473   7.975   8.046   5.092  0.3333  1.2301  1.1137
 7156SOL     OW23474   7.241   4.650  10.736  0.2103  0.3523  0.0191
 7156SOL    HW123475   7.245   4.580  10.802 -0.8817 -0.8766 -1.1352
 7156SOL    HW223476   7.250   4.604  10.652  0.4032  1.7260 -0.7462
 7157SOL     OW23477   8.773  10.508   0.630 -0.0335  0.2939  1.0481
 7157SOL    HW123478   8.719  10.458   0.569  0.0389  0.4324  0.8695
 7157SOL    HW223479   8.863  10.481   0.610 -0.0696 -0.5160  1.8574
 7158SOL     OW23480   7.341   8.644   9.374 -0.0585  0.2699  0.0171
 7158SOL    HW123481   7.344   8.576   9.442 -1.3581  0.8161  0.6633
 7158SOL    HW223482   7.261   8.626   9.326  0.3196  0.5232 -0.7189
 7159SOL     OW23483   6.667   0.969   0.871  0.4905 -0.0764  0.4623
 7159SOL    HW123484   6.667   1.057   0.908 -0.0453  0.4219 -0.6774
 7159SOL    HW223485   6.759   0.948   0.859  0.6086  1.3277 -1.4972
 7160SOL     OW23486   8.549  10.950   1.771  0.2249  0.0844  0.2541
 7160SOL    HW123487   8.608  10.922   1.700 -0.1587 -1.6344  0.5618
 7160SOL    HW223488   8.603  10.946   1.850 -0.3175 -1.8122  0.5858
 7161SOL     OW23489   9.623   0.773   9.056  0.1356  0.4336  0.5421
 7161SOL    HW123490   9.695   0.710   9.056 -1.9188 -2.1190 -1.1630
 7161SOL    HW223491   9.658   0.849   9.008  2.2986  0.1503  1.5656
 7162SOL     OW23492  10.339   1.032   9.796  0.2596  0.5389 -0.3447
 7162SOL    HW123493  10.427   1.030   9.834  0.7172 -0.9121 -1.3572
 7162SOL    HW223494  10.292   0.961   9.840 -1.2495  2.7883  1.9242
 7163SOL     OW23495   8.731   2.100   0.393 -0.0757 -0.6668 -0.3505
 7163SOL    HW123496   8.769   2.066   0.474  0.0824  0.3150  0.0054
 7163SOL    HW223497   8.763   2.041   0.325 -0.1380 -1.4548  0.2824
 7164SOL     OW23498   5.496   5.520   5.208 -0.6374 -0.7201 -0.0139
 7164SOL    HW123499   5.574   5.489   5.162  0.3602 -1.9583  2.3318
 7164SOL    HW223500   5.511   5.613   5.223  0.6825 -1.0518  0.8781
 7165SOL     OW23501   1.272   2.197   1.705  0.5035 -0.4780  0.3558
 7165SOL    HW123502   1.294   2.287   1.728 -0.9606 -0.0159  0.0779
 7165SOL    HW223503   1.239   2.159   1.787  0.7003 -0.6182  0.3695
 7166SOL     OW23504   7.811   4.398   5.671  0.9147 -0.1835  0.0226
 7166SOL    HW123505   7.848   4.451   5.742  0.3616  0.7424 -0.3676
 7166SOL    HW223506   7.728   4.365   5.705  1.4963 -1.2548  0.4529
 7167SOL     OW23507   3.616   5.640   9.564  0.1650 -0.3587 -0.8824
 7167SOL    HW123508   3.589   5.548   9.552  0.4043 -0.3556 -1.4378
 7167SOL    HW223509   3.708   5.641   9.538  0.5903 -0.2675  0.5505
 7168SOL     OW23510   5.548   4.487   4.278  0.1797 -0.2836 -0.1226
 7168SOL    HW123511   5.542   4.582   4.276  1.3646 -0.1562  0.8478
 7168SOL    HW223512   5.526   4.459   4.189 -1.7792  0.7573 -0.0047
 7169SOL     OW23513   0.796   6.165   1.968  0.5591 -0.5948 -0.3560
 7169SOL    HW123514   0.875   6.204   2.006  0.2813 -0.2813 -0.0982
 7169SOL    HW223515   0.739   6.239   1.948  0.5900 -0.7784 -1.1385
 7170SOL     OW23516   0.682   6.281   9.681 -0.3987  0.4281 -0.2542
 7170SOL    HW123517   0.729   6.214   9.730 -1.6256 -1.4225 -1.4873
 7170SOL    HW223518   0.650   6.342   9.749  2.3419  0.9061  0.7176
 7171SOL     OW23519   4.401  10.553   8.249  0.3802  0.0539  0.0184
 7171SOL    HW123520   4.474  10.496   8.273  0.2092 -0.7837 -1.3342
 7171SOL    HW223521   4.443  10.635   8.221  0.6976  0.1594  0.7745
 7172SOL     OW23522   1.826   8.256   4.427  0.0501 -0.7749  0.3177
 7172SOL    HW123523   1.817   8.162   4.414  0.7720 -0.6066 -1.6349
 7172SOL    HW223524   1.897   8.282   4.369 -0.6041  1.1091  0.2857
 7173SOL     OW23525  10.888   1.995   2.305  0.4177 -0.4781 -0.1805
 7173SOL    HW123526  10.827   2.058   2.266  0.3936 -2.0813 -3.0475
 7173SOL    HW223527  10.971   2.011   2.260  1.3871 -0.2662  1.5815
 7174SOL     OW23528   4.428   1.288   9.137  0.8272 -1.1414  0.2402
 7174SOL    HW123529   4.483   1.280   9.059  1.2469 -0.4377  0.4577
 7174SOL    HW223530   4.446   1.376   9.171 -1.2041 -0.4631 -0.2733
 7175SOL     OW23531   9.681   8.568   5.663 -0.2893  0.4642  0.0297
 7175SOL    HW123532   9.763   8.527   5.635  0.2935 -0.7282  3.0595
 7175SOL    HW223533   9.707   8.658   5.685  0.1891  0.1727  0.7124
 7176SOL     OW23534   1.366  10.014  10.009 -0.1386 -0.9827 -0.3004
 7176SOL    HW123535   1.277   9.981   9.997  0.0038 -1.8411  0.7683
 7176SOL    HW223536   1.396  10.036   9.921 -1.1912 -1.2440 -0.7429
 7177SOL     OW23537   9.818   1.722   7.510  0.3314  0.0761  0.5858
 7177SOL    HW123538   9.887   1.788   7.507  0.4402 -0.0355  0.6424
 7177SOL    HW223539   9.826   1.675   7.428 -0.5968  0.9898 -0.0568
 7178SOL     OW23540   8.144  10.858   8.294 -0.2000  0.4187 -0.2335
 7178SOL    HW123541   8.225  10.907   8.303  0.7635 -1.3230  1.1789
 7178SOL    HW223542   8.167  10.783   8.239 -1.2433  0.6575 -1.0353
 7179SOL     OW23543   5.592  10.679   8.780  0.1237  0.1689  0.1144
 7179SOL    HW123544   5.625  10.619   8.713  1.0366  1.9993 -1.1968
 7179SOL    HW223545   5.636  10.653   8.860 -0.1765 -1.4230 -0.2101
 7180SOL     OW23546   8.402   6.630   3.331  0.0507 -0.4242  1.1253
 7180SOL    HW123547   8.306   6.628   3.328 -0.2049  1.3176  3.8920
 7180SOL    HW223548   8.426   6.560   3.392  0.2730  0.7644  2.4619
 7181SOL     OW23549   1.034  10.036   5.306 -0.0017 -0.1648 -0.5943
 7181SOL    HW123550   1.093  10.012   5.377  0.9391  1.0341 -0.9203
 7181SOL    HW223551   0.949  10.002   5.332  0.2412  0.5488  1.2757
 7182SOL     OW23552   4.785   1.168   3.132 -0.0969  0.1566 -0.0145
 7182SOL    HW123553   4.723   1.099   3.156  0.2367 -0.0440  0.2872
 7182SOL    HW223554   4.752   1.246   3.177 -0.8103  0.3405 -0.8387
 7183SOL     OW23555   3.787   0.412   2.606 -0.0457 -0.3552 -0.0394
 7183SOL    HW123556   3.839   0.450   2.676  1.7840 -0.2954 -1.3515
 7183SOL    HW223557   3.728   0.482   2.578 -0.0586 -0.0551  0.7310
 7184SOL     OW23558   7.608   4.780   9.949  0.6567 -0.6700 -0.3780
 7184SOL    HW123559   7.703   4.767   9.941  0.5637 -1.8428  0.2569
 7184SOL    HW223560   7.588   4.846   9.883  1.8923 -0.5181 -0.6345
 7185SOL     OW23561   7.116  10.982   9.549 -0.4331 -0.1529 -0.0503
 7185SOL    HW123562   7.189  10.920   9.546 -0.7743 -0.6169  0.8494
 7185SOL    HW223563   7.146  11.053   9.605  0.2713  0.9580 -1.7361
 7186SOL     OW23564   8.716   2.061   3.727 -0.1744 -0.0214 -0.5409
 7186SOL    HW123565   8.746   2.139   3.678 -0.0358  0.3836  0.1776
 7186SOL    HW223566   8.791   2.038   3.782 -1.3770  1.4449  1.8431
 7187SOL     OW23567   1.556   2.152   4.548 -0.0674  0.0403 -0.5788
 7187SOL    HW123568   1.517   2.069   4.523 -1.7086  0.6842 -0.2793
 7187SOL    HW223569   1.608   2.132   4.626  3.5414 -1.6020 -3.0963
 7188SOL     OW23570   8.121   4.144   2.855 -0.9832 -0.3376  0.1999
 7188SOL    HW123571   8.067   4.174   2.781  0.1281  1.0266 -0.1085
 7188SOL    HW223572   8.058   4.120   2.922 -2.0228 -1.3231 -1.0736
 7189SOL     OW23573   6.933   8.795   0.757  0.2276  1.1261  0.8106
 7189SOL    HW123574   6.934   8.756   0.669 -1.3920  1.0222  0.8121
 7189SOL    HW223575   6.882   8.875   0.748 -0.3316  0.8926  1.7390
 7190SOL     OW23576   6.128   6.087   0.011  0.7367 -0.8611 -0.3009
 7190SOL    HW123577   6.141   6.035   0.090 -1.3870 -0.3611  0.4299
 7190SOL    HW223578   6.106   6.022  -0.056  2.5119 -1.2819 -0.5412
 7191SOL     OW23579   5.828   7.157   1.356 -0.1877  0.2403 -0.2118
 7191SOL    HW123580   5.891   7.122   1.419 -0.9742 -1.1378 -0.1335
 7191SOL    HW223581   5.824   7.091   1.287 -2.3480 -0.2983  0.3348
 7192SOL     OW23582   7.218   6.481  11.074  0.0359 -0.2815 -0.4154
 7192SOL    HW123583   7.189   6.438  11.155  0.2063  0.3630 -0.0036
 7192SOL    HW223584   7.139   6.491  11.022 -0.0945 -0.5966 -0.2818
 7193SOL     OW23585   6.140   1.161   8.801 -0.0729  0.4611  0.6667
 7193SOL    HW123586   6.193   1.213   8.741 -1.0454  3.2915  2.0527
 7193SOL    HW223587   6.050   1.176   8.772 -0.3745 -0.7711  0.9170
 7194SOL     OW23588  10.575  10.497   3.556 -0.6559 -0.8650 -0.8264
 7194SOL    HW123589  10.507  10.563   3.552  1.3735  1.3543 -0.8572
 7194SOL    HW223590  10.629  10.523   3.631  1.1104 -1.5213 -1.8094
 7195SOL     OW23591   2.324   6.264   9.444 -0.3927  0.3766 -0.6763
 7195SOL    HW123592   2.407   6.252   9.489  0.7839  0.6319 -2.6655
 7195SOL    HW223593   2.266   6.199   9.484  1.5409 -1.7065 -1.0370
 7196SOL     OW23594   7.183   4.740   0.835  0.4707 -0.1838  0.5716
 7196SOL    HW123595   7.179   4.783   0.750 -0.2850 -0.4514  0.4655
 7196SOL    HW223596   7.171   4.810   0.899 -0.6917 -0.2136  0.4013
 7197SOL     OW23597   3.520   7.088   2.172 -0.0865  0.2299  0.1042
 7197SOL    HW123598   3.511   7.072   2.078 -1.8388  1.8608 -0.0762
 7197SOL    HW223599   3.574   7.016   2.204  1.3001  0.1100 -2.2851
 7198SOL     OW23600   9.371   7.800   1.240 -0.5652  0.7059  0.1198
 7198SOL    HW123601   9.377   7.896   1.239  0.2357  0.6709  0.7604
 7198SOL    HW223602   9.462   7.770   1.242 -0.8150 -0.0721  0.2380
 7199SOL     OW23603   7.756   3.748   0.830  0.0196 -0.0914  0.8602
 7199SOL    HW123604   7.727   3.837   0.808  1.8742  0.5553  0.8826
 7199SOL    HW223605   7.851   3.750   0.819 -0.0302 -2.5660 -0.8278
 7200SOL     OW23606   9.109   2.791   5.782 -0.5540  0.1730 -0.0521
 7200SOL    HW123607   9.198   2.824   5.771 -0.6595  0.7633  0.7752
 7200SOL    HW223608   9.055   2.869   5.790 -1.1473 -0.1810 -0.4505
 7201SOL     OW23609   2.558   4.397   2.130 -0.3248 -0.7391 -0.1595
 7201SOL    HW123610   2.490   4.338   2.097  2.0212 -2.9238 -1.4026
 7201SOL    HW223611   2.565   4.465   2.063 -0.4653 -1.1649 -0.6140
 7202SOL     OW23612   2.345   5.115   0.597  0.5259  0.0010 -0.2336
 7202SOL    HW123613   2.405   5.053   0.555 -0.9026 -2.7213  1.4111
 7202SOL    HW223614   2.318   5.070   0.677 -4.7779  0.3561 -1.4834
 7203SOL     OW23615   2.543   7.019   2.959 -0.1177  0.2588  0.0259
 7203SOL    HW123616   2.532   7.054   3.047 -0.6147  0.7540 -0.2296
 7203SOL    HW223617   2.489   6.940   2.958 -1.2827  1.0364 -0.2758
 7204SOL     OW23618   2.203   0.534   5.239 -0.2073  0.1707  0.0156
 7204SOL    HW123619   2.248   0.600   5.292  0.3861 -0.9725  0.9607
 7204SOL    HW223620   2.253   0.454   5.253 -0.6396 -0.3984 -1.4925
 7205SOL     OW23621   0.713   1.301   8.608  0.5306 -0.0992 -0.0478
 7205SOL    HW123622   0.745   1.376   8.658  0.9914 -0.6278  0.4645
 7205SOL    HW223623   0.789   1.273   8.556  0.4971 -0.4950  0.1135
 7206SOL     OW23624   6.389   1.446   5.174  0.4623 -0.2000  0.6971
 7206SOL    HW123625   6.406   1.534   5.142 -0.1831 -0.3332 -0.0509
 7206SOL    HW223626   6.293   1.439   5.174  0.5161 -1.2320 -0.2240
 7207SOL     OW23627   3.099   3.855   3.934  0.3965  0.3251 -0.1394
 7207SOL    HW123628   3.113   3.836   4.027 -1.3257  1.6045  0.4287
 7207SOL    HW223629   3.004   3.860   3.924  0.5804  1.8383 -1.5985
 7208SOL     OW23630   1.617   9.797   0.165  0.1154 -0.0936  0.4028
 7208SOL    HW123631   1.683   9.797   0.235 -0.6372  3.6474  1.3075
 7208SOL    HW223632   1.559   9.870   0.187 -3.3899 -2.1562 -1.2877
 7209SOL     OW23633   7.151   2.333  10.149 -0.0152  0.1644  0.0154
 7209SOL    HW123634   7.118   2.390  10.218  1.0636 -0.7936  1.3898
 7209SOL    HW223635   7.244   2.354  10.143  0.4867 -1.5953  0.7868
 7210SOL     OW23636   4.126   6.196   2.912 -0.0363 -0.3532  0.2206
 7210SOL    HW123637   4.208   6.209   2.960 -0.3562 -0.8287  0.9249
 7210SOL    HW223638   4.117   6.273   2.857 -0.3722  0.9316  1.9902
 7211SOL     OW23639   3.047  10.331  10.378  0.3322 -0.0240  0.3351
 7211SOL    HW123640   2.986  10.384  10.430  1.1128  2.5876 -1.2308
 7211SOL    HW223641   3.044  10.370  10.291 -0.5581 -3.9305 -1.5622
 7212SOL     OW23642   8.818   6.654   5.114  0.7472 -0.6536  0.2100
 7212SOL    HW123643   8.780   6.678   5.030 -1.1621  0.1393  1.2210
 7212SOL    HW223644   8.744   6.620   5.165  1.6810 -0.4041  1.8228
 7213SOL     OW23645   1.095   1.157   7.101 -0.1216  0.0140 -0.4080
 7213SOL    HW123646   1.120   1.232   7.047 -0.6650 -1.9853 -3.6595
 7213SOL    HW223647   1.001   1.147   7.087 -0.2611 -0.6813  0.8638
 7214SOL     OW23648  10.250   3.012   2.384 -0.7425 -0.1903  0.0692
 7214SOL    HW123649  10.206   3.091   2.416 -2.2168 -0.4446 -1.2526
 7214SOL    HW223650  10.342   3.038   2.376 -1.3478  1.7097 -1.2656
 7215SOL     OW23651   0.380   8.682   7.924  0.0679  0.1735  0.3338
 7215SOL    HW123652   0.301   8.632   7.941 -1.0739  1.5262 -0.7539
 7215SOL    HW223653   0.349   8.767   7.894  1.9326  0.5813 -0.6223
 7216SOL     OW23654  10.435   4.276   0.685  0.3112 -0.0297  0.6530
 7216SOL    HW123655  10.357   4.309   0.730 -0.5619 -0.7100 -0.2868
 7216SOL    HW223656  10.475   4.216   0.747 -0.5816 -0.5626  0.7387
 7217SOL     OW23657   6.895   1.370   9.066 -0.3981 -0.3789  0.1498
 7217SOL    HW123658   6.816   1.403   9.108 -0.0379  1.4733 -0.5395
 7217SOL    HW223659   6.875   1.372   8.972 -0.3860 -2.2955  0.0610
 7218SOL     OW23660   2.852   2.481   1.954  0.3397 -0.1421 -0.4444
 7218SOL    HW123661   2.928   2.526   1.918  1.8857  0.6008  3.2815
 7218SOL    HW223662   2.784   2.548   1.959 -0.4118 -0.6007 -2.9950
 7219SOL     OW23663   7.805   1.721   6.589  0.3629  0.2483 -0.1789
 7219SOL    HW123664   7.738   1.704   6.523 -0.0267  0.9867  0.0167
 7219SOL    HW223665   7.869   1.777   6.545 -0.4253  1.6086  0.3504
 7220SOL     OW23666   6.986   0.764   5.257  0.3538  0.4035  1.0578
 7220SOL    HW123667   6.922   0.804   5.197 -0.2876  0.6019  1.8571
 7220SOL    HW223668   6.943   0.766   5.342  1.3786  0.4005  1.5884
 7221SOL     OW23669   3.751   9.998   0.540  0.3269  0.1387  0.9004
 7221SOL    HW123670   3.723  10.067   0.481 -0.1328 -0.7632  0.0235
 7221SOL    HW223671   3.823   9.954   0.494 -0.3744 -0.8989  0.7484
 7222SOL     OW23672   4.814   1.253   0.179  0.3011 -0.0629  0.1076
 7222SOL    HW123673   4.902   1.246   0.140 -0.4580 -0.1230 -1.6728
 7222SOL    HW223674   4.785   1.163   0.189  0.5103 -0.0506  0.9160
 7223SOL     OW23675  10.961   2.199   5.210  0.0798  0.0793 -0.2202
 7223SOL    HW123676  11.035   2.249   5.244  0.6956  0.6187 -2.2732
 7223SOL    HW223677  10.908   2.180   5.288  1.9070  0.4205  1.1665
 7224SOL     OW23678   6.074  11.037   7.432 -0.0635 -0.0296 -0.4097
 7224SOL    HW123679   6.044  11.027   7.342 -0.0660  1.1213 -0.5616
 7224SOL    HW223680   6.001  11.006   7.486  0.5946 -2.3876 -0.7757
 7225SOL     OW23681   2.810   3.818   4.012  0.7749 -0.0295 -0.2206
 7225SOL    HW123682   2.845   3.733   3.984  1.7890  0.8023 -1.6103
 7225SOL    HW223683   2.744   3.840   3.947  2.7270  1.6481 -1.7519
 7226SOL     OW23684   0.908  10.722   2.385  0.3135  0.1328 -0.3999
 7226SOL    HW123685   0.952  10.714   2.300  1.7372 -0.3062  0.3317
 7226SOL    HW223686   0.852  10.798   2.376  0.7723  0.3530 -1.6012
 7227SOL     OW23687   3.466   0.231   9.729 -0.6665 -0.0956  0.0176
 7227SOL    HW123688   3.533   0.262   9.668 -1.5738 -0.0659 -1.0032
 7227SOL    HW223689   3.504   0.244   9.816  0.0318  1.3526 -0.4793
 7228SOL     OW23690   3.841   8.545   5.373  0.9271  0.1135 -0.1006
 7228SOL    HW123691   3.919   8.511   5.417  1.3138 -0.0370 -0.8860
 7228SOL    HW223692   3.787   8.468   5.357  2.0260 -0.2775 -2.3276
 7229SOL     OW23693   0.707   1.601   3.321 -0.3041  0.1547 -0.1219
 7229SOL    HW123694   0.746   1.655   3.253  1.1699 -0.6582  0.0322
 7229SOL    HW223695   0.682   1.663   3.389 -0.4466  0.8256 -0.7694
 7230SOL     OW23696   0.824   3.500   3.555  0.0579  0.3235 -0.7416
 7230SOL    HW123697   0.757   3.438   3.584  0.4458  0.1446 -0.2098
 7230SOL    HW223698   0.873   3.452   3.488 -0.3554  0.4654 -1.1536
 7231SOL     OW23699   7.108   5.712   5.104  0.8054  0.0185  0.3970
 7231SOL    HW123700   7.046   5.683   5.037  0.2607  0.1969  0.8196
 7231SOL    HW223701   7.159   5.780   5.060 -0.0573  0.6740  0.3788
 7232SOL     OW23702   0.403   4.619   9.955  0.1302 -0.4214 -0.0428
 7232SOL    HW123703   0.313   4.604   9.928  0.1210  0.7985 -0.7411
 7232SOL    HW223704   0.414   4.714   9.953  1.1615 -0.4934  0.9398
 7233SOL     OW23705   7.711   2.227  10.821  0.0005 -0.5312  0.1845
 7233SOL    HW123706   7.642   2.192  10.765 -0.0786 -0.9738  0.5548
 7233SOL    HW223707   7.743   2.151  10.871 -0.3443 -0.0356  1.1829
 7234SOL     OW23708   5.429   6.629   8.980 -0.5302  0.1512 -0.2185
 7234SOL    HW123709   5.339   6.636   8.946 -0.8830  0.3733  0.7277
 7234SOL    HW223710   5.446   6.534   8.981 -0.5365  0.1385 -0.9398
 7235SOL     OW23711   7.467  10.054   9.922 -0.1429 -0.7353 -0.0926
 7235SOL    HW123712   7.398  10.071   9.987  2.0066 -0.2893  2.2358
 7235SOL    HW223713   7.514   9.978   9.956  0.7840 -0.7769 -1.3894
 7236SOL     OW23714   8.648   4.099   7.679  0.2624  0.0930 -0.1285
 7236SOL    HW123715   8.679   4.012   7.706  1.5993  0.0875 -1.5611
 7236SOL    HW223716   8.657   4.153   7.758 -2.7042 -1.4843  1.4898
 7237SOL     OW23717   6.182  10.543   6.640  0.4213  0.3684  0.0944
 7237SOL    HW123718   6.095  10.582   6.651  0.9517  1.1334  2.0190
 7237SOL    HW223719   6.169  10.449   6.654 -0.2983  0.2909 -1.0104
 7238SOL     OW23720  10.794   6.880   7.732  0.0332  0.4183 -0.0828
 7238SOL    HW123721  10.775   6.885   7.639 -1.6438 -0.9392  0.1539
 7238SOL    HW223722  10.871   6.824   7.738 -1.1809 -1.3661 -0.5477
 7239SOL     OW23723   1.972   1.790   6.289  0.1368  0.3907 -0.2791
 7239SOL    HW123724   1.954   1.839   6.209 -1.4690 -0.7835 -0.6859
 7239SOL    HW223725   1.967   1.698   6.262  1.3946 -0.0283  0.8130
 7240SOL     OW23726  10.742   8.221   0.790 -0.1976  0.2028  0.6721
 7240SOL    HW123727  10.790   8.206   0.708  1.8671  1.4709  1.5537
 7240SOL    HW223728  10.757   8.314   0.810 -1.9299  0.2970  1.7331
 7241SOL     OW23729   8.202   2.529   3.701 -0.3529 -0.0037 -0.2846
 7241SOL    HW123730   8.291   2.494   3.700 -0.4845 -0.3467  0.1479
 7241SOL    HW223731   8.174   2.526   3.609 -0.0399 -0.1928 -0.3739
 7242SOL     OW23732   5.002   1.624   5.168  0.0316 -0.1442 -0.2282
 7242SOL    HW123733   5.072   1.617   5.103 -0.3461  2.2637 -1.0171
 7242SOL    HW223734   4.967   1.535   5.176  1.6799 -0.9562 -1.5023
 7243SOL     OW23735  10.200   5.317   9.829  0.1620  0.6174  0.3667
 7243SOL    HW123736  10.270   5.289   9.771  0.5148 -0.1450  1.1519
 7243SOL    HW223737  10.169   5.237   9.871 -1.8012  0.7852 -0.6231
 7244SOL     OW23738   2.285   5.858   8.334 -0.0054  0.2334 -0.2079
 7244SOL    HW123739   2.238   5.775   8.326  0.0899  0.1379  0.2283
 7244SOL    HW223740   2.228   5.913   8.388  1.3492 -0.6256  2.2211
 7245SOL     OW23741   3.870   8.540   4.925  0.6936  0.4612 -0.2150
 7245SOL    HW123742   3.832   8.460   4.888 -0.0418 -0.0325  1.4996
 7245SOL    HW223743   3.794   8.595   4.945  1.1007  0.9438  0.0121
 7246SOL     OW23744   9.476   6.524   8.519 -0.2697  0.6114 -0.0408
 7246SOL    HW123745   9.459   6.611   8.482 -2.6640 -0.3892 -1.4557
 7246SOL    HW223746   9.524   6.478   8.450  0.9851  0.7541  0.7038
 7247SOL     OW23747   5.895  10.620   8.377  0.0895  0.5187 -0.1049
 7247SOL    HW123748   5.935  10.695   8.333 -1.5330  1.4728 -0.0504
 7247SOL    HW223749   5.809  10.652   8.405  0.8179 -0.1303  3.4175
 7248SOL     OW23750   7.709   3.033   3.451  0.2741  0.1071  0.2565
 7248SOL    HW123751   7.723   2.949   3.493 -0.5564 -0.0086  0.3129
 7248SOL    HW223752   7.708   3.096   3.524 -1.7450 -0.1623  0.5018
 7249SOL     OW23753   5.591   1.354   2.400  0.6253  0.1638  0.5921
 7249SOL    HW123754   5.566   1.292   2.331  1.1599 -0.4263  0.9125
 7249SOL    HW223755   5.509   1.376   2.444  0.3889 -0.0857  0.2752
 7250SOL     OW23756   4.999   7.381   0.375 -0.0898  0.2266  0.0607
 7250SOL    HW123757   5.059   7.429   0.319  1.6003  0.9744  2.3622
 7250SOL    HW223758   5.047   7.301   0.399 -0.2628  0.4893  1.3517
 7251SOL     OW23759  10.209   8.950   2.386  0.1396 -0.0616  0.3826
 7251SOL    HW123760  10.195   9.044   2.378  0.0181  0.2068  3.0604
 7251SOL    HW223761  10.295   8.941   2.427  1.1252 -1.2527 -1.7569
 7252SOL     OW23762   1.090   1.778   9.065  0.0738  0.0201 -0.1289
 7252SOL    HW123763   1.017   1.825   9.025  1.5057  1.5108 -1.1322
 7252SOL    HW223764   1.128   1.726   8.994  1.4239  1.1356 -0.2722
 7253SOL     OW23765   9.715   2.766   0.777  0.0069  0.0986 -0.1806
 7253SOL    HW123766   9.716   2.725   0.864  0.6162 -0.9065 -0.6426
 7253SOL    HW223767   9.635   2.819   0.777  0.4757  0.8805  1.3185
 7254SOL     OW23768   8.672   7.089   1.536  0.2339  0.2244 -0.4250
 7254SOL    HW123769   8.702   7.051   1.619  0.0832 -0.5289 -0.7023
 7254SOL    HW223770   8.663   7.013   1.477  0.2154  0.7317 -1.0894
 7255SOL     OW23771   1.260   5.457   8.938 -0.1488  0.1162  0.1296
 7255SOL    HW123772   1.184   5.455   8.996 -0.2409  1.0810  0.0546
 7255SOL    HW223773   1.260   5.371   8.896 -1.3392  0.1811 -0.0444
 7256SOL     OW23774   4.831   2.518   9.276 -0.5192  0.2021 -0.2539
 7256SOL    HW123775   4.862   2.465   9.202 -2.5566 -1.0735 -0.2761
 7256SOL    HW223776   4.876   2.483   9.352 -0.6292 -0.4736 -0.4980
 7257SOL     OW23777   2.452   5.528   6.623  0.3334  0.0967  0.2678
 7257SOL    HW123778   2.519   5.463   6.602 -0.9061 -0.9948 -0.5616
 7257SOL    HW223779   2.373   5.476   6.639 -0.1244  1.2689  2.1555
 7258SOL     OW23780   2.908   1.507   5.387  0.0727  0.7125 -0.5359
 7258SOL    HW123781   2.979   1.557   5.348 -0.3570  2.6657  1.0274
 7258SOL    HW223782   2.952   1.443   5.443  0.8371  3.9712  3.0000
 7259SOL     OW23783  10.064   4.876   1.873  0.3418  0.0363  0.1060
 7259SOL    HW123784  10.052   4.896   1.966 -1.6205 -0.1225 -0.0809
 7259SOL    HW223785  10.118   4.949   1.841 -0.2778  0.9440  1.0429
 7260SOL     OW23786   4.128  10.050   0.735  0.7139 -0.5382  0.0715
 7260SOL    HW123787   4.152   9.994   0.808  3.8147 -0.5537 -0.8060
 7260SOL    HW223788   4.032  10.050   0.734  0.5690 -1.2230  3.5337
 7261SOL     OW23789   4.788   8.598   8.831  0.5098 -0.2057 -0.7309
 7261SOL    HW123790   4.801   8.556   8.746  1.5980  0.0497 -0.7098
 7261SOL    HW223791   4.704   8.644   8.823  0.7231  0.0276 -1.7614
 7262SOL     OW23792   1.040   8.615   0.561 -0.5059 -0.2717 -0.0809
 7262SOL    HW123793   1.020   8.675   0.633  0.1067 -1.1600  0.8596
 7262SOL    HW223794   0.995   8.653   0.485 -2.0383  0.1411  0.9731
 7263SOL     OW23795   6.129   5.526   6.274  0.4536  0.4332  1.1567
 7263SOL    HW123796   6.049   5.474   6.272  1.4464 -1.1556 -0.3268
 7263SOL    HW223797   6.111   5.601   6.218 -0.1748  0.3796  1.2848
 7264SOL     OW23798   3.749   0.411   3.858 -0.3663 -0.5556  0.1698
 7264SOL    HW123799   3.695   0.455   3.923 -1.9988 -0.2353 -1.3179
 7264SOL    HW223800   3.825   0.469   3.847  0.6944 -1.3131  2.7273
 7265SOL     OW23801   0.493  10.119   9.665  0.1843 -0.0392 -0.3841
 7265SOL    HW123802   0.537  10.181   9.606 -0.0730  1.1254  0.6159
 7265SOL    HW223803   0.459  10.051   9.607 -0.8743  1.5397 -1.7111
 7266SOL     OW23804   7.455   1.557   0.425 -0.1120  0.0482  0.0196
 7266SOL    HW123805   7.532   1.593   0.469 -0.3900  1.9536 -0.9528
 7266SOL    HW223806   7.382   1.607   0.460 -0.6844 -0.4111 -0.4926
 7267SOL     OW23807   4.917   0.100   7.263  0.2695  0.0370  0.4771
 7267SOL    HW123808   4.972   0.157   7.317 -1.3083  1.4963  0.6511
 7267SOL    HW223809   4.918   0.015   7.307  2.3147  0.0229  0.4811
 7268SOL     OW23810  10.215   4.208   4.734  0.5430  0.2706 -0.7940
 7268SOL    HW123811  10.239   4.169   4.650 -0.8972 -1.9982 -0.2498
 7268SOL    HW223812  10.126   4.240   4.721  0.4746  0.2972 -0.2630
 7269SOL     OW23813   9.776  10.115   7.068  0.4578 -0.5165  0.1268
 7269SOL    HW123814   9.787  10.021   7.081 -0.5844 -0.6748 -0.0556
 7269SOL    HW223815   9.865  10.150   7.069  0.7871 -1.2554  2.0019
 7270SOL     OW23816   4.482   4.505   2.546 -1.5429  0.4019 -0.0820
 7270SOL    HW123817   4.577   4.504   2.536 -1.3361 -1.7089  1.4791
 7270SOL    HW223818   4.465   4.585   2.596 -0.1434 -0.8562  2.6232
 7271SOL     OW23819  10.156   3.101  10.421  0.2666 -0.0387  0.7229
 7271SOL    HW123820  10.232   3.042  10.426  1.3778  1.4004  1.8004
 7271SOL    HW223821  10.194   3.189  10.430 -1.6355  0.6646  2.8734
 7272SOL     OW23822   2.882   9.914   8.406 -0.3250  0.0250 -0.2214
 7272SOL    HW123823   2.941   9.989   8.394  0.4711 -0.9441 -3.5161
 7272SOL    HW223824   2.935   9.850   8.454  0.9650 -0.3092 -1.9544
 7273SOL     OW23825  11.041   3.417   1.833  0.4797  0.2824 -0.2315
 7273SOL    HW123826  11.137   3.415   1.826  0.4949  0.2932 -0.0106
 7273SOL    HW223827  11.013   3.335   1.793  0.4294  1.4537 -2.8075
 7274SOL     OW23828   2.937   5.239   9.542  0.2222 -0.1509  0.0510
 7274SOL    HW123829   2.865   5.279   9.590 -0.2144 -0.2572 -0.4981
 7274SOL    HW223830   2.935   5.282   9.456  2.0616  1.2760  0.6471
 7275SOL     OW23831  10.549   5.113  10.991  0.2040 -0.1315 -0.1928
 7275SOL    HW123832  10.596   5.165  11.056 -2.8523 -0.1671  2.2304
 7275SOL    HW223833  10.516   5.037  11.039 -1.3162 -0.7300 -2.0486
 7276SOL     OW23834   2.695   9.748   6.468 -0.0110  0.5081 -0.4075
 7276SOL    HW123835   2.736   9.812   6.527 -2.5952 -0.6342  2.9650
 7276SOL    HW223836   2.650   9.688   6.527 -2.1577 -1.2829 -3.6332
 7277SOL     OW23837   6.412  10.156  10.783 -0.8308 -0.3450  0.8782
 7277SOL    HW123838   6.438  10.217  10.714 -1.4258  0.1247  1.0591
 7277SOL    HW223839   6.419  10.070  10.743  1.3488 -0.3073  1.0238
 7278SOL     OW23840   3.583   6.138   9.146 -0.4615 -0.0396 -0.2533
 7278SOL    HW123841   3.527   6.190   9.087  0.2847 -1.1893 -2.0466
 7278SOL    HW223842   3.527   6.120   9.222 -1.7575  0.7291 -0.9792
 7279SOL     OW23843   9.871   3.492   8.006 -0.3124  0.0085  0.0623
 7279SOL    HW123844   9.841   3.406   7.977 -1.3424  0.1371  0.7100
 7279SOL    HW223845   9.857   3.549   7.930  0.8331 -0.4702 -0.5395
 7280SOL     OW23846   1.724   3.055   5.895 -0.2879 -0.2901  0.5059
 7280SOL    HW123847   1.675   3.127   5.857 -0.6722 -0.9046 -0.1934
 7280SOL    HW223848   1.669   3.022   5.966 -0.6952 -0.6925  0.0113
 7281SOL     OW23849   7.987   9.774   6.922 -0.3070  0.1143 -0.1509
 7281SOL    HW123850   8.072   9.799   6.886 -0.0753  2.1452  1.5759
 7281SOL    HW223851   7.923   9.810   6.861  0.0016 -1.6718 -1.6126
 7282SOL     OW23852   4.957   2.265   1.244 -0.5541  0.6544  0.4127
 7282SOL    HW123853   5.010   2.229   1.314  0.2106  1.3833  0.2360
 7282SOL    HW223854   4.891   2.199   1.226 -0.5510  0.3178  1.5812
 7283SOL     OW23855   9.307   3.158   3.564  0.2033  0.0513 -0.3214
 7283SOL    HW123856   9.360   3.082   3.540 -0.4690 -0.4741 -0.1983
 7283SOL    HW223857   9.370   3.226   3.588  0.8267 -1.1351  1.6031
 7284SOL     OW23858  11.024   7.293   6.678 -0.0541 -0.3174 -0.3691
 7284SOL    HW123859  11.067   7.300   6.593  0.4140  2.0093 -0.0275
 7284SOL    HW223860  10.930   7.298   6.658  0.0833  2.5340 -0.6965
 7285SOL     OW23861   6.942   5.207   2.098 -0.1417 -0.0588 -0.1386
 7285SOL    HW123862   6.993   5.243   2.025 -1.5908  0.1784 -1.0788
 7285SOL    HW223863   6.953   5.112   2.091  0.3231 -0.0024 -0.2029
 7286SOL     OW23864   1.447   4.042   4.579  0.8191 -0.7174  0.2613
 7286SOL    HW123865   1.459   3.980   4.507 -0.1166 -1.9210  1.0882
 7286SOL    HW223866   1.500   4.006   4.650 -2.2431 -2.5233  1.8364
 7287SOL     OW23867   9.216   2.950   9.244  0.7846  0.1895 -0.4721
 7287SOL    HW123868   9.182   3.025   9.196 -0.6231 -0.7747 -1.0644
 7287SOL    HW223869   9.200   2.970   9.336 -0.8469  0.0640 -0.6985
 7288SOL     OW23870  10.950   6.923   3.909 -0.6228  0.0374  0.1140
 7288SOL    HW123871  10.965   6.918   3.815  0.5507  1.7602  0.1439
 7288SOL    HW223872  11.011   6.860   3.947 -1.1407 -0.7022 -0.2731
 7289SOL     OW23873  10.784   6.250   9.814  0.3990  0.2591 -0.7164
 7289SOL    HW123874  10.703   6.199   9.820 -0.1557  1.1355 -0.5908
 7289SOL    HW223875  10.800   6.280   9.903  0.9222  0.0222 -0.7249
 7290SOL     OW23876   6.360  11.001   3.377 -0.3282  0.4663  0.0170
 7290SOL    HW123877   6.431  10.942   3.352 -0.7229  0.3181 -0.7597
 7290SOL    HW223878   6.337  10.974   3.466 -0.5172 -0.5724 -0.3295
 7291SOL     OW23879   7.936   8.678   3.690 -0.1579  0.5652 -0.4929
 7291SOL    HW123880   7.884   8.635   3.622  1.7798 -0.8849 -1.1544
 7291SOL    HW223881   7.994   8.609   3.722  1.7796  2.2418 -0.2464
 7292SOL     OW23882   9.724   7.801   0.832 -0.3788 -0.1077 -0.1266
 7292SOL    HW123883   9.799   7.752   0.865 -1.0110 -0.3371  1.0445
 7292SOL    HW223884   9.744   7.817   0.740  1.6940  0.9911  0.4573
 7293SOL     OW23885   1.935   6.940   9.774 -0.6159  0.0084  0.2630
 7293SOL    HW123886   1.979   7.024   9.785  0.2240 -0.1168 -1.7665
 7293SOL    HW223887   1.842   6.961   9.782 -0.3504  0.5544  2.9232
 7294SOL     OW23888   0.629   9.132   8.200 -0.1857 -0.1885  0.7094
 7294SOL    HW123889   0.554   9.139   8.259 -0.1463  1.3812  0.6200
 7294SOL    HW223890   0.669   9.220   8.202  0.0546 -0.2072 -1.3283
 7295SOL     OW23891   6.205   9.691   5.613  0.8468 -0.2182 -0.1454
 7295SOL    HW123892   6.277   9.701   5.551  1.8294 -2.4686  0.5461
 7295SOL    HW223893   6.224   9.609   5.659 -1.7027 -0.4273  0.6758
 7296SOL     OW23894   0.732   4.484   6.179 -0.1673  0.1820 -0.2637
 7296SOL    HW123895   0.678   4.413   6.214  0.4290  0.0923  0.4897
 7296SOL    HW223896   0.765   4.451   6.096 -0.3267 -0.2145 -0.1693
 7297SOL     OW23897   4.449   0.129   9.189 -0.5393 -0.5407  0.3876
 7297SOL    HW123898   4.452   0.092   9.277 -2.6809 -0.6535  0.4722
 7297SOL    HW223899   4.359   0.115   9.161  0.1141 -0.5629 -1.8657
 7298SOL     OW23900   8.746   3.175   3.420 -0.1797  0.1071  0.6222
 7298SOL    HW123901   8.838   3.149   3.432 -0.1241 -0.7291 -1.2814
 7298SOL    HW223902   8.743   3.266   3.450  1.0269 -0.1491  1.6299
 7299SOL     OW23903   8.139   0.789   3.654 -0.3161  0.8379 -0.5946
 7299SOL    HW123904   8.211   0.852   3.654 -1.1687  1.8621  0.6033
 7299SOL    HW223905   8.163   0.726   3.586  1.0279  1.9166 -1.1801
 7300SOL     OW23906   2.748   6.106   4.278 -1.1374 -0.1169  0.4800
 7300SOL    HW123907   2.743   6.089   4.184  1.1841 -2.9297  0.7489
 7300SOL    HW223908   2.668   6.155   4.297  0.1370  4.3422 -3.5581
 7301SOL     OW23909   8.788   2.777   1.073  0.1224 -0.2483  0.2862
 7301SOL    HW123910   8.819   2.711   1.135  1.3939  1.1577  1.2214
 7301SOL    HW223911   8.821   2.749   0.988 -0.8102 -1.6881  0.3685
 7302SOL     OW23912   9.450   3.414   2.081  0.7608 -0.4739  0.1519
 7302SOL    HW123913   9.450   3.430   1.987 -1.9548 -2.7149 -0.3477
 7302SOL    HW223914   9.370   3.455   2.113  0.4172 -1.7637  1.0341
 7303SOL     OW23915   3.039  10.439   6.167  0.4348  0.1200  0.0908
 7303SOL    HW123916   3.122  10.397   6.190  0.2265 -0.2593  0.1658
 7303SOL    HW223917   2.974  10.369   6.175 -0.0560  0.6749  1.1304
 7304SOL     OW23918   8.338   1.380   4.106 -0.1513  0.1977 -0.0086
 7304SOL    HW123919   8.329   1.455   4.165 -3.7378 -0.6145  0.6917
 7304SOL    HW223920   8.378   1.311   4.160  2.5155  1.2626 -0.4682
 7305SOL     OW23921   3.295   8.615   2.314  0.3659 -0.5917 -0.6957
 7305SOL    HW123922   3.355   8.551   2.276 -0.6372 -1.2463 -1.2018
 7305SOL    HW223923   3.208   8.587   2.286 -0.1728  0.4546 -0.1378
 7306SOL     OW23924   2.893   3.061   5.332 -0.0023 -1.1220 -0.6642
 7306SOL    HW123925   2.870   3.021   5.248  4.2812 -1.6575 -1.8087
 7306SOL    HW223926   2.810   3.069   5.378 -2.9471  0.8284 -5.5262
 7307SOL     OW23927   8.554   0.506   0.833 -0.0787 -0.7432 -0.4514
 7307SOL    HW123928   8.537   0.599   0.821  0.0126 -0.7883 -0.9722
 7307SOL    HW223929   8.511   0.464   0.758 -0.6510 -1.1783  0.1107
 7308SOL     OW23930   4.059   9.865   8.573 -0.2681 -0.2221 -0.0262
 7308SOL    HW123931   4.035   9.899   8.659 -0.7527 -1.7604  0.4724
 7308SOL    HW223932   4.037   9.772   8.576 -0.0246 -0.3744 -1.7221
 7309SOL     OW23933   9.554  10.517   3.647  0.4536  0.2906 -0.1407
 7309SOL    HW123934   9.491  10.589   3.638  1.6977  1.1671 -4.3491
 7309SOL    HW223935   9.631  10.558   3.687 -0.7007 -0.2369  2.8486
 7310SOL     OW23936   2.227   3.838  10.611  0.2212 -0.1522  0.1219
 7310SOL    HW123937   2.155   3.777  10.597  1.4929 -1.9533  1.0959
 7310SOL    HW223938   2.203   3.885  10.690  0.4535 -1.3227  0.9127
 7311SOL     OW23939   8.503   8.627  11.024  0.2901 -0.0835 -0.0222
 7311SOL    HW123940   8.567   8.578  10.973 -1.8331 -1.7759 -1.2292
 7311SOL    HW223941   8.492   8.710  10.977  2.7967  1.0419  1.1912
 7312SOL     OW23942   2.769   7.541   6.365  0.1519 -0.5770  1.1237
 7312SOL    HW123943   2.825   7.545   6.287 -0.8999  0.2478  0.3766
 7312SOL    HW223944   2.826   7.507   6.434  1.4963  0.0011  0.3349
 7313SOL     OW23945   9.289   6.806   7.028 -0.2087 -0.5551 -0.4039
 7313SOL    HW123946   9.211   6.856   7.054 -0.2040 -0.1248 -1.1963
 7313SOL    HW223947   9.266   6.715   7.048 -1.0595 -0.4753 -0.9453
 7314SOL     OW23948   2.163   9.023   4.157  0.1357  0.3172  0.4823
 7314SOL    HW123949   2.254   9.036   4.185  0.3003 -0.9125  0.5713
 7314SOL    HW223950   2.156   9.076   4.077  0.1764  2.4159  1.7754
 7315SOL     OW23951   8.799   8.618  10.249  0.1011  0.0944  0.3387
 7315SOL    HW123952   8.738   8.545  10.235 -0.6813  1.1009 -2.2398
 7315SOL    HW223953   8.860   8.612  10.175  2.0944  0.1739  1.8863
 7316SOL     OW23954   4.593  10.745   2.498  0.1904  0.1561 -0.2499
 7316SOL    HW123955   4.531  10.789   2.556 -0.7616 -0.8877 -0.4466
 7316SOL    HW223956   4.557  10.756   2.410 -0.9840 -2.3590 -0.1636
 7317SOL     OW23957   9.125   6.496   1.185 -0.4191  0.1093  0.2003
 7317SOL    HW123958   9.211   6.517   1.222 -0.0926  0.5785 -0.7838
 7317SOL    HW223959   9.144   6.441   1.109 -1.0034  0.0509  0.0882
 7318SOL     OW23960   4.566   2.293   7.280  0.1735 -0.1760 -0.3908
 7318SOL    HW123961   4.572   2.197   7.278 -1.4656 -0.3075 -0.3720
 7318SOL    HW223962   4.643   2.320   7.330  0.8523 -1.4545 -0.6833
 7319SOL     OW23963   8.713   2.956   8.829  0.0364  1.0515  1.0270
 7319SOL    HW123964   8.633   2.910   8.804 -0.2539  1.5140  1.0791
 7319SOL    HW223965   8.767   2.889   8.871 -0.7580  0.9440  1.9341
 7320SOL     OW23966   1.469   8.923   2.460  0.0523 -0.1877  0.2283
 7320SOL    HW123967   1.536   8.989   2.477  0.5300  0.2689 -2.8972
 7320SOL    HW223968   1.503   8.872   2.387 -2.1741 -1.1559 -0.2096
 7321SOL     OW23969   2.999   0.064   9.372  0.2388  0.1866 -0.0810
 7321SOL    HW123970   3.042   0.021   9.446  0.5386  0.9137  0.1681
 7321SOL    HW223971   3.065   0.062   9.302  1.0407  2.0851  0.5647
 7322SOL     OW23972   1.367   5.857   1.647 -0.0732 -0.3094  0.1710
 7322SOL    HW123973   1.382   5.948   1.671 -0.6343 -0.1669 -0.0051
 7322SOL    HW223974   1.374   5.857   1.551 -0.7650 -0.3143  0.1157
 7323SOL     OW23975   6.915  10.330   9.686  0.1298  0.2448 -0.0026
 7323SOL    HW123976   6.944  10.239   9.678  1.1153  0.6769 -1.7252
 7323SOL    HW223977   6.843  10.337   9.625 -2.4288 -0.2456  2.7082
 7324SOL     OW23978   5.415   9.759   9.394 -0.4873  0.3947  0.1771
 7324SOL    HW123979   5.377   9.700   9.330  0.2689 -0.8205  0.8004
 7324SOL    HW223980   5.489   9.800   9.349  0.1529 -0.5909  0.2949
 7325SOL     OW23981   1.829  10.431   1.942  0.2036  0.9333  0.5232
 7325SOL    HW123982   1.750  10.472   1.979 -0.1375 -1.6229  2.9060
 7325SOL    HW223983   1.795  10.363   1.884  0.6973  0.8464  0.3358
 7326SOL     OW23984   9.421  10.619   0.199 -1.0137 -0.1690 -0.8077
 7326SOL    HW123985   9.441  10.702   0.155  1.2696 -0.8235 -1.1347
 7326SOL    HW223986   9.422  10.641   0.292 -0.5778  0.2090 -0.8951
 7327SOL     OW23987   7.215   1.823   7.904  0.1705  0.1825 -0.3770
 7327SOL    HW123988   7.139   1.878   7.886 -1.4673 -0.3852  3.5675
 7327SOL    HW223989   7.217   1.760   7.832 -1.6005  1.7256 -1.8630
 7328SOL     OW23990   1.102   9.344   9.569  0.6743 -0.1632  0.6336
 7328SOL    HW123991   1.063   9.265   9.607  1.5228 -1.0898 -0.3698
 7328SOL    HW223992   1.148   9.386   9.642 -1.7561  0.7463  1.7609
 7329SOL     OW23993   9.484   0.120   1.383  0.0902  0.6003  0.2965
 7329SOL    HW123994   9.442   0.191   1.431 -1.5776  1.0405 -1.6704
 7329SOL    HW223995   9.411   0.068   1.348  1.2106 -0.0077 -1.2584
 7330SOL     OW23996   0.865   4.731   4.988 -0.1634  0.4472 -0.1592
 7330SOL    HW123997   0.945   4.696   5.024 -1.1370 -1.5066  0.2419
 7330SOL    HW223998   0.798   4.664   5.007 -1.1447  0.1860 -3.7263
 7331SOL     OW23999   2.548  10.444   9.662 -0.2401  0.4719  0.1948
 7331SOL    HW124000   2.495  10.366   9.648  1.3859 -0.2933 -2.3937
 7331SOL    HW224001   2.506  10.490   9.735 -1.6249 -2.4645  1.3770
 7332SOL     OW24002  10.113   1.748   7.147 -0.3335  0.1438 -0.4628
 7332SOL    HW124003  10.124   1.839   7.118 -3.9245  1.2374  0.9764
 7332SOL    HW224004  10.162   1.743   7.229  1.0960  0.2661 -1.2755
 7333SOL     OW24005   7.061   8.019   0.271 -0.0709 -0.6266  0.0169
 7333SOL    HW124006   7.095   7.940   0.314  0.1857 -1.3692 -1.4796
 7333SOL    HW224007   7.081   8.090   0.332  0.8087 -1.5560  0.8518
 7334SOL     OW24008   4.728  10.273   4.965 -0.2340  0.0200  0.2335
 7334SOL    HW124009   4.786  10.197   4.958  0.2571  0.3789  0.3505
 7334SOL    HW224010   4.766  10.338   4.906 -0.9026  0.0228 -0.2051
 7335SOL     OW24011   1.171   5.830  10.429  0.8182 -0.6156 -0.1362
 7335SOL    HW124012   1.187   5.758  10.369  2.8152  1.0887 -1.7989
 7335SOL    HW224013   1.216   5.805  10.510  0.8123 -1.5622 -0.4201
 7336SOL     OW24014   6.593   3.311   0.705 -0.3185 -0.5112 -1.2996
 7336SOL    HW124015   6.609   3.313   0.611 -1.3101  0.3564 -1.4685
 7336SOL    HW224016   6.582   3.218   0.725  2.2060 -0.9451 -1.5921
 7337SOL     OW24017   1.613   9.101   8.922  0.1883  0.3002  0.0699
 7337SOL    HW124018   1.639   9.010   8.938 -0.7671  0.3495  2.3406
 7337SOL    HW224019   1.518   9.096   8.909  0.0987  0.9847  0.4313
 7338SOL     OW24020   5.851  10.294   6.525 -1.0501 -0.4836  0.3303
 7338SOL    HW124021   5.837  10.252   6.441 -0.5249  0.1753 -0.1019
 7338SOL    HW224022   5.773  10.272   6.577 -1.2648 -1.0863 -0.2398
 7339SOL     OW24023   1.261   0.464   5.772  0.4943  0.3130  0.0820
 7339SOL    HW124024   1.303   0.549   5.786  2.4817 -0.9597  2.7206
 7339SOL    HW224025   1.334   0.403   5.760 -0.6716 -1.5934  2.0346
 7340SOL     OW24026   7.582  10.162  10.454 -0.2636  0.1430  0.2039
 7340SOL    HW124027   7.521  10.112  10.399  1.3929  0.8967 -2.5489
 7340SOL    HW224028   7.595  10.244  10.406  3.6741 -0.3970 -0.0226
 7341SOL     OW24029   1.960   9.778   7.360 -0.8072  0.2578  0.1797
 7341SOL    HW124030   1.913   9.740   7.286  1.3998  0.4447 -1.4228
 7341SOL    HW224031   2.042   9.810   7.323 -0.4416  2.1542  2.3666
 7342SOL     OW24032   5.092   9.596  10.960 -0.0951 -0.1161 -0.2110
 7342SOL    HW124033   5.127   9.663  11.019  0.2993 -1.3359  0.9915
 7342SOL    HW224034   5.090   9.516  11.013  1.1889 -1.5108 -2.1204
 7343SOL     OW24035   3.156   8.742   2.949  0.2334  0.4572 -0.5584
 7343SOL    HW124036   3.100   8.669   2.973 -0.4988  1.5025  1.0618
 7343SOL    HW224037   3.236   8.729   3.000  0.3321  0.4696 -0.7100
 7344SOL     OW24038   0.669   7.470   3.898 -0.3284 -0.4355 -0.1818
 7344SOL    HW124039   0.747   7.418   3.916 -0.3959 -0.3837  0.2631
 7344SOL    HW224040   0.627   7.482   3.983 -1.3622 -1.3186 -0.5375
 7345SOL     OW24041   1.891   5.327   1.079  0.0217  0.4058 -0.0816
 7345SOL    HW124042   1.976   5.287   1.099 -0.6988  0.0773  2.7737
 7345SOL    HW224043   1.905   5.421   1.090  0.1028  0.3755  0.0788
 7346SOL     OW24044   4.254   9.716   8.858 -0.0485 -0.5572  0.3641
 7346SOL    HW124045   4.238   9.763   8.940 -1.9788 -1.7592  0.7559
 7346SOL    HW224046   4.301   9.778   8.803  0.5332  0.5836  2.0657
 7347SOL     OW24047   1.375   8.871   8.536 -0.3798  0.1191 -0.3973
 7347SOL    HW124048   1.338   8.867   8.625 -1.5096  0.5236 -0.8290
 7347SOL    HW224049   1.320   8.811   8.486 -0.5665  0.8600 -1.0946
 7348SOL     OW24050   2.510   8.364   8.564 -0.9427  0.1410 -0.4426
 7348SOL    HW124051   2.522   8.347   8.470 -0.5578 -0.5424 -0.2819
 7348SOL    HW224052   2.471   8.451   8.568 -2.0609 -0.2981 -1.2818
 7349SOL     OW24053   8.561   0.587  11.007  0.0649 -0.8730 -0.7647
 7349SOL    HW124054   8.641   0.640  11.015  1.9971 -3.3345 -2.2169
 7349SOL    HW224055   8.493   0.651  10.986  2.1771  1.1287 -2.1263
 7350SOL     OW24056   1.317   6.478   5.700 -0.4092  0.0944  0.3892
 7350SOL    HW124057   1.279   6.534   5.633 -0.6443 -1.9507 -1.2911
 7350SOL    HW224058   1.241   6.434   5.740 -0.2832  1.3901  2.1358
 7351SOL     OW24059   6.397   0.140   4.828  0.2391 -0.3425 -0.4848
 7351SOL    HW124060   6.350   0.058   4.840  0.9808 -0.4705  2.1454
 7351SOL    HW224061   6.456   0.124   4.754 -2.5857 -0.6678 -2.8717
 7352SOL     OW24062   9.389   5.244   6.684  0.3876 -0.7201  0.1710
 7352SOL    HW124063   9.323   5.239   6.754  1.5462 -1.7535  1.2196
 7352SOL    HW224064   9.452   5.176   6.705  1.4873 -0.1586 -1.1620
 7353SOL     OW24065   7.303  10.387   7.089 -0.0577 -0.0121  0.5017
 7353SOL    HW124066   7.392  10.421   7.077 -0.6316  1.3552 -0.1037
 7353SOL    HW224067   7.287  10.333   7.011  0.5640 -1.0677  1.0759
 7354SOL     OW24068   6.312   3.006  10.177 -0.3512  0.4170 -0.5593
 7354SOL    HW124069   6.252   3.009  10.252  0.0548  2.3908 -0.2635
 7354SOL    HW224070   6.380   2.945  10.203 -0.2817  0.9758  0.6594
 7355SOL     OW24071   8.726   1.897   9.703  0.7684 -0.0786  0.2629
 7355SOL    HW124072   8.790   1.879   9.634 -0.3709 -0.0124 -0.8488
 7355SOL    HW224073   8.675   1.971   9.670  0.7174  0.4919  1.5550
 7356SOL     OW24074   8.776   7.187   4.806 -0.2127 -0.1689 -0.0649
 7356SOL    HW124075   8.825   7.130   4.747  0.9846  0.8153 -0.0706
 7356SOL    HW224076   8.832   7.264   4.817 -1.9495  1.2073 -0.3884
 7357SOL     OW24077   5.082   3.368   6.922  0.8221  0.2379 -0.2886
 7357SOL    HW124078   5.172   3.366   6.889  1.0678  0.5090  0.3518
 7357SOL    HW224079   5.060   3.461   6.923  0.5712  0.1785 -0.3428
 7358SOL     OW24080   9.817   0.873   1.680  0.1543 -0.2714  0.3394
 7358SOL    HW124081   9.849   0.792   1.720  1.2685  0.2071  0.4588
 7358SOL    HW224082   9.776   0.921   1.751  0.0830 -0.4381  0.4118
 7359SOL     OW24083   1.583   0.868   9.830 -0.2279 -0.3046 -0.1254
 7359SOL    HW124084   1.497   0.887   9.793 -0.5000  0.0511  0.6546
 7359SOL    HW224085   1.566   0.851   9.923  0.7694  2.2270  0.6290
 7360SOL     OW24086   1.910   5.923   9.505  0.3674 -0.2064  0.1799
 7360SOL    HW124087   1.870   5.866   9.570  1.0770  0.3755  1.1493
 7360SOL    HW224088   2.003   5.918   9.523  0.3969  1.9011  0.8548
 7361SOL     OW24089   3.537   1.527   0.868  0.6217 -0.0115  0.1101
 7361SOL    HW124090   3.595   1.511   0.942  0.2840  0.8891  0.5790
 7361SOL    HW224091   3.500   1.442   0.847  2.2306 -0.6485 -0.3066
 7362SOL     OW24092   8.262   5.764   2.502 -0.6556  0.4563 -0.1267
 7362SOL    HW124093   8.212   5.821   2.444 -2.4810 -0.8905  0.0227
 7362SOL    HW224094   8.340   5.741   2.452 -1.9987 -0.3712 -1.9859
 7363SOL     OW24095   2.244   9.991   1.351  0.3976  0.4153 -0.2868
 7363SOL    HW124096   2.174   9.955   1.296 -0.3567  1.7890 -0.2690
 7363SOL    HW224097   2.276   9.916   1.400 -2.0781 -0.0341  0.7926
 7364SOL     OW24098   4.750   1.211  10.847  0.0732  0.7917 -0.5097
 7364SOL    HW124099   4.704   1.212  10.763  1.4141 -0.3482 -1.3179
 7364SOL    HW224100   4.785   1.300  10.856 -0.6170  1.1056 -0.8292
 7365SOL     OW24101   4.474   4.840   3.302 -0.2066 -0.0677 -0.4838
 7365SOL    HW124102   4.422   4.760   3.301  2.2252 -1.7786  0.6891
 7365SOL    HW224103   4.418   4.905   3.259 -3.2358 -1.7207  0.6401
 7366SOL     OW24104   2.512   7.022   9.130  0.3180 -0.3811  0.6972
 7366SOL    HW124105   2.434   6.982   9.169 -0.8654  1.1902  0.0452
 7366SOL    HW224106   2.512   7.112   9.165  0.2779  0.4808 -1.3960
 7367SOL     OW24107   8.412  10.319   2.235  0.1162 -0.0259 -0.3394
 7367SOL    HW124108   8.319  10.298   2.224  0.6951 -2.3189 -1.5228
 7367SOL    HW224109   8.422  10.338   2.328 -1.2190 -1.8263  0.2369
 7368SOL     OW24110   1.998   8.081   9.239  0.6640 -0.6777 -0.4847
 7368SOL    HW124111   1.903   8.073   9.227  0.4012 -0.1396  1.0647
 7368SOL    HW224112   2.015   8.038   9.323  1.9011 -1.3688 -1.0647
 7369SOL     OW24113   4.357   8.341   5.907 -0.3018 -0.1611 -0.4008
 7369SOL    HW124114   4.401   8.386   5.979 -1.5005 -0.4785  0.5660
 7369SOL    HW224115   4.308   8.271   5.949 -2.8797  1.0469 -1.1944
 7370SOL     OW24116   9.307   1.265   3.515  0.1586  0.2920  0.2856
 7370SOL    HW124117   9.307   1.293   3.424 -0.9739 -1.4361 -0.2850
 7370SOL    HW224118   9.391   1.221   3.527  0.2366  0.3739  0.0334
 7371SOL     OW24119   1.843   1.159   2.461  0.1813 -0.1341 -0.1433
 7371SOL    HW124120   1.921   1.214   2.459 -0.2862  0.5207 -0.7700
 7371SOL    HW224121   1.847   1.114   2.545  0.8839  0.4056  0.1150
 7372SOL     OW24122   2.428   1.455   8.019 -0.3200 -0.1635 -0.1471
 7372SOL    HW124123   2.339   1.431   8.047 -0.2733 -1.8896 -1.3469
 7372SOL    HW224124   2.419   1.545   7.987 -2.1813 -1.0016 -2.2600
 7373SOL     OW24125   8.284   1.249  10.941  0.5038 -1.0339 -0.1720
 7373SOL    HW124126   8.354   1.207  10.890 -0.9537 -2.9386 -0.7552
 7373SOL    HW224127   8.205   1.201  10.915 -1.1187  1.3994  0.0374
 7374SOL     OW24128   9.763   7.807   5.820  0.4218  0.1053 -0.5683
 7374SOL    HW124129   9.683   7.788   5.770  0.0540 -1.6574  0.5811
 7374SOL    HW224130   9.784   7.724   5.863  0.5337  1.5366  2.4345
 7375SOL     OW24131   1.670   5.644   0.127  0.4439  0.8542 -0.4058
 7375SOL    HW124132   1.735   5.627   0.196 -1.1078 -0.5523  0.8092
 7375SOL    HW224133   1.614   5.712   0.164 -1.0912 -0.7147  0.3072
 7376SOL     OW24134   0.386   7.460   8.782 -0.2620  0.1533 -0.1692
 7376SOL    HW124135   0.341   7.416   8.854  0.7896  0.9809  1.0297
 7376SOL    HW224136   0.438   7.528   8.824  3.3742 -1.6756 -1.2553
 7377SOL     OW24137  11.000  10.259  10.184  0.1905  0.0001  0.1934
 7377SOL    HW124138  10.954  10.176  10.178 -0.2098  0.3216 -2.2344
 7377SOL    HW224139  11.085  10.237  10.222 -0.2222 -1.3816  0.3544
 7378SOL     OW24140   8.569   0.728   1.386  0.2282  0.4236  0.2643
 7378SOL    HW124141   8.505   0.721   1.315 -1.9448  0.7443  2.0924
 7378SOL    HW224142   8.654   0.725   1.342 -1.0212  0.5151 -2.3186
 7379SOL     OW24143   6.618   4.016   1.579 -0.7017 -0.2524 -0.0233
 7379SOL    HW124144   6.571   4.077   1.522 -0.1540 -0.9467 -1.2655
 7379SOL    HW224145   6.565   3.936   1.578 -1.0815 -0.0296  1.0746
 7380SOL     OW24146   0.621   9.683   2.336 -0.0957 -0.6042 -0.1041
 7380SOL    HW124147   0.647   9.596   2.308 -1.1737 -1.1152  0.4478
 7380SOL    HW224148   0.702   9.734   2.335  0.7559 -1.9101  0.7062
 7381SOL     OW24149   6.591  10.523   5.492 -0.3598  0.2526  0.3453
 7381SOL    HW124150   6.588  10.434   5.455  0.8903 -0.3948  1.6816
 7381SOL    HW224151   6.662  10.566   5.444 -1.8197  1.0174 -1.2213
 7382SOL     OW24152   8.896   0.672   1.444  0.8783 -0.0984  0.1841
 7382SOL    HW124153   8.897   0.594   1.388 -0.8157  1.2202 -1.8418
 7382SOL    HW224154   8.879   0.744   1.384  4.3211  2.2121  1.6417
 7383SOL     OW24155   0.370   2.318   0.951 -0.2456  0.5342 -0.5366
 7383SOL    HW124156   0.450   2.365   0.975 -0.1023  1.2011 -2.1872
 7383SOL    HW224157   0.351   2.347   0.862 -0.5339 -2.0110 -1.4078
 7384SOL     OW24158   3.752   0.100   6.053 -0.3621  0.4479  0.2415
 7384SOL    HW124159   3.713   0.187   6.063 -0.6926  0.1792  1.5690
 7384SOL    HW224160   3.678   0.044   6.030 -0.5250  0.2024  1.2898
 7385SOL     OW24161   5.694   4.979   8.390  0.4060  0.4811  0.2789
 7385SOL    HW124162   5.613   4.976   8.339  0.4874 -1.6423  0.2053
 7385SOL    HW224163   5.760   5.010   8.328  0.0760  0.0937 -0.2724
 7386SOL     OW24164   4.271   0.380  10.014 -0.0792 -0.2651 -0.2418
 7386SOL    HW124165   4.197   0.421   9.970 -0.1688  0.5615  0.6431
 7386SOL    HW224166   4.317   0.453  10.056  0.4857 -0.9200  0.3013
 7387SOL     OW24167   4.661   6.760   5.946  0.1353 -0.5558 -0.4179
 7387SOL    HW124168   4.649   6.673   5.986  1.3295 -0.1307  0.9466
 7387SOL    HW224169   4.748   6.788   5.975 -1.0411  1.9952  0.9823
 7388SOL     OW24170   1.043   6.750   2.332 -0.0587  0.3174  0.6977
 7388SOL    HW124171   1.094   6.815   2.380  1.3976 -0.7180  0.6175
 7388SOL    HW224172   1.001   6.698   2.400  0.6025 -0.0575  0.8313
 7389SOL     OW24173   1.871   3.075   0.995 -0.3919 -0.2376  0.0616
 7389SOL    HW124174   1.805   3.006   0.989  1.4423 -2.1228  0.2902
 7389SOL    HW224175   1.897   3.092   0.905 -0.4889 -0.2235  0.0365
 7390SOL     OW24176   6.722  10.748   8.232 -0.2874  0.0609  0.4354
 7390SOL    HW124177   6.642  10.695   8.241  0.1134 -0.5642  0.3549
 7390SOL    HW224178   6.739  10.748   8.138  0.0089 -0.0939  0.4917
 7391SOL     OW24179  10.776   8.705   7.056  0.4556  0.4225  0.7571
 7391SOL    HW124180  10.720   8.704   7.134 -1.4376  0.3899 -0.5335
 7391SOL    HW224181  10.791   8.613   7.035  0.4884  0.4264  0.7643
 7392SOL     OW24182   9.271   7.095   4.881  0.6205  0.2115  0.5370
 7392SOL    HW124183   9.304   7.130   4.963  0.5031 -1.4592  1.3252
 7392SOL    HW224184   9.268   7.171   4.822  2.6819  1.0440  1.4171
 7393SOL     OW24185   5.281   8.697   2.608 -0.1061  0.2571 -0.3317
 7393SOL    HW124186   5.269   8.603   2.623  2.8530 -0.1687 -0.0449
 7393SOL    HW224187   5.288   8.706   2.513  0.7349 -0.0013 -0.2992
 7394SOL     OW24188   7.136   5.584   9.008  0.2685 -0.2021  0.7086
 7394SOL    HW124189   7.058   5.613   8.961  0.8048  0.2940  0.1133
 7394SOL    HW224190   7.159   5.657   9.065 -1.0007 -1.1901  2.5953
 7395SOL     OW24191   8.470   7.220   2.211 -1.3737  0.1348 -0.5981
 7395SOL    HW124192   8.503   7.248   2.297  1.8128 -1.5856 -1.1098
 7395SOL    HW224193   8.491   7.294   2.153 -0.0616 -0.1462 -0.5264
 7396SOL     OW24194   0.808   4.770   5.699 -0.8206  0.6184 -0.0888
 7396SOL    HW124195   0.725   4.778   5.652 -0.5729  2.1746 -0.3059
 7396SOL    HW224196   0.814   4.677   5.721 -1.4780  0.0443 -2.1467
 7397SOL     OW24197  10.809   8.159   0.478  0.3943 -0.4816  0.6963
 7397SOL    HW124198  10.726   8.190   0.442  0.4208 -0.2984  0.7943
 7397SOL    HW224199  10.788   8.074   0.518  0.1543 -0.1968  1.1727
 7398SOL     OW24200   5.051   5.406   1.130 -0.3239 -0.4242 -0.7191
 7398SOL    HW124201   5.069   5.500   1.139  0.9933 -0.6370 -0.9669
 7398SOL    HW224202   4.983   5.402   1.062  0.1748  0.3065 -1.2835
 7399SOL     OW24203   7.374   2.447   5.712 -0.9308 -0.7251  0.6559
 7399SOL    HW124204   7.297   2.417   5.760 -1.4345 -0.4395  0.0490
 7399SOL    HW224205   7.357   2.421   5.622 -1.5573  1.5942  0.0210
 7400SOL     OW24206   2.767   9.311   1.010  0.1054 -0.0473 -0.7771
 7400SOL    HW124207   2.782   9.274   1.097  0.9981  0.0066 -0.8939
 7400SOL    HW224208   2.679   9.348   1.014  1.1478  2.4958  1.0465
 7401SOL     OW24209   4.376   1.769   4.755 -0.3695 -0.6450  0.5834
 7401SOL    HW124210   4.417   1.756   4.841  0.5595  1.4189  0.5204
 7401SOL    HW224211   4.290   1.805   4.776  0.7226  2.2032  0.7729
 7402SOL     OW24212   8.385   5.287   7.589 -0.5560 -0.3787  0.5199
 7402SOL    HW124213   8.449   5.245   7.646  0.0891  1.6540  1.3775
 7402SOL    HW224214   8.321   5.327   7.649 -2.8732 -2.5977 -0.3110
 7403SOL     OW24215   7.840   2.865   5.679 -0.7002 -0.6203 -0.6568
 7403SOL    HW124216   7.776   2.858   5.750  0.6919 -1.3608  0.5976
 7403SOL    HW224217   7.788   2.879   5.600 -2.3296 -0.1199  0.4519
 7404SOL     OW24218  10.386   3.266   1.049 -0.5307 -0.2649  0.5819
 7404SOL    HW124219  10.333   3.186   1.051 -0.1963 -0.5185 -0.2818
 7404SOL    HW224220  10.476   3.235   1.063 -0.5050  0.0672  1.1625
 7405SOL     OW24221   3.806   3.873  10.697  1.2960  1.0843 -0.5310
 7405SOL    HW124222   3.803   3.867  10.793  0.2979  2.4683 -0.4387
 7405SOL    HW224223   3.726   3.829  10.668  1.6301  0.6086 -0.7518
 7406SOL     OW24224   8.461  10.032   1.048  0.1574  0.0090  0.1787
 7406SOL    HW124225   8.471  10.077   0.964 -1.1259  1.7525  0.9130
 7406SOL    HW224226   8.516  10.081   1.109 -0.5656  0.0402  0.8142
 7407SOL     OW24227  11.039   7.109   8.357 -0.4699  0.3681 -0.0769
 7407SOL    HW124228  11.003   7.031   8.315 -0.5469  1.1642 -1.5600
 7407SOL    HW224229  11.048   7.173   8.286  1.4706  1.0613  0.7023
 7408SOL     OW24230   4.931   9.494   3.115 -0.1950  0.2049 -0.0504
 7408SOL    HW124231   4.908   9.519   3.026 -0.3832  0.1160 -0.0266
 7408SOL    HW224232   4.901   9.404   3.123  1.3978 -0.3961 -0.4739
 7409SOL     OW24233   5.923   3.097  11.034  0.4894  0.4381  0.4671
 7409SOL    HW124234   5.921   3.002  11.041  4.0254 -0.1603 -3.0664
 7409SOL    HW224235   5.941   3.115  10.942  0.3291  4.5506  1.0256
 7410SOL     OW24236   2.306   3.103   7.259  0.4284 -0.1556 -0.0478
 7410SOL    HW124237   2.244   3.034   7.239 -0.0185  0.1224  0.3405
 7410SOL    HW224238   2.382   3.058   7.294  0.4576 -0.5017 -0.5491
 7411SOL     OW24239   6.267   3.540  10.947 -0.3272 -0.1333 -0.2453
 7411SOL    HW124240   6.323   3.512  10.875 -1.1866  1.1471 -1.4500
 7411SOL    HW224241   6.328   3.561  11.018  0.5370 -1.2613 -0.6303
 7412SOL     OW24242   0.520   4.307   3.117 -0.7010 -0.1624  0.2792
 7412SOL    HW124243   0.580   4.351   3.057 -0.2225  0.1352  0.9638
 7412SOL    HW224244   0.437   4.354   3.106 -1.0929 -1.1679 -1.3429
 7413SOL     OW24245   7.378   7.587   9.516 -0.7398 -0.4737  0.5079
 7413SOL    HW124246   7.408   7.515   9.461 -0.0667 -1.0125  1.5258
 7413SOL    HW224247   7.457   7.614   9.565 -1.7665 -1.7191  3.0445
 7414SOL     OW24248   7.777   8.993   8.055  0.0204  0.2246 -0.7378
 7414SOL    HW124249   7.706   9.026   8.110  1.6223  0.0395  1.5812
 7414SOL    HW224250   7.738   8.918   8.008 -1.2206 -0.1334  0.7736
 7415SOL     OW24251   6.960   5.511   6.162  0.2947  0.3182  0.2611
 7415SOL    HW124252   6.966   5.498   6.257  0.9749  0.4539  0.2386
 7415SOL    HW224253   6.926   5.428   6.129  1.9348 -0.4400  0.4217
 7416SOL     OW24254   7.056   8.785   0.248 -0.0351 -0.8671  1.1537
 7416SOL    HW124255   7.092   8.868   0.280 -0.6044  0.3068 -0.9876
 7416SOL    HW224256   7.004   8.810   0.171  0.3241 -3.2934  0.0252
 7417SOL     OW24257   3.101   9.820   2.222 -0.1310 -0.6618 -0.3594
 7417SOL    HW124258   3.168   9.756   2.195  2.4815  1.8134 -0.1864
 7417SOL    HW224259   3.058   9.845   2.141 -1.6189 -2.9371 -0.3717
 7418SOL     OW24260   3.154   7.600   2.122  0.8249 -0.0566 -0.6252
 7418SOL    HW124261   3.116   7.513   2.118  0.0161  0.2436  0.1862
 7418SOL    HW224262   3.130   7.633   2.209  0.0650  1.4511 -1.3736
 7419SOL     OW24263   7.038   0.786  11.003  0.2801  0.2123 -0.0655
 7419SOL    HW124264   7.008   0.787  11.093 -2.3678 -1.0297 -0.8424
 7419SOL    HW224265   7.104   0.717  11.000  0.2608  0.1468  0.8499
 7420SOL     OW24266   0.869   2.310   1.907  0.1344  0.0896  0.0066
 7420SOL    HW124267   0.837   2.391   1.947  0.8727  0.2230  0.3323
 7420SOL    HW224268   0.961   2.306   1.931  0.0974 -0.8583  0.0018
 7421SOL     OW24269   5.931   6.961  11.055 -0.1848  0.2995  0.0944
 7421SOL    HW124270   5.953   6.896  11.122 -0.4759 -0.4810 -0.5450
 7421SOL    HW224271   5.980   6.932  10.978 -0.2319  0.9081 -0.1680
 7422SOL     OW24272   1.711   9.958   2.522 -0.4730  0.5569 -0.1345
 7422SOL    HW124273   1.690  10.022   2.454  0.8476 -0.9457 -2.0356
 7422SOL    HW224274   1.736  10.011   2.598  0.3822  2.3078 -1.5750
 7423SOL     OW24275   5.721  10.855  10.408 -0.9154  0.1870 -0.3561
 7423SOL    HW124276   5.672  10.913  10.468  0.2592  0.0145  0.8178
 7423SOL    HW224277   5.654  10.815  10.353 -2.0099  0.6312  0.6155
 7424SOL     OW24278   2.013   1.985   3.410  0.0520  0.2841 -0.9750
 7424SOL    HW124279   1.969   2.070   3.419 -0.2789  0.1241 -1.0515
 7424SOL    HW224280   2.004   1.963   3.317 -0.5267 -0.1839 -0.8144
 7425SOL     OW24281   2.065   8.930   3.882 -0.0830  0.3209 -0.1126
 7425SOL    HW124282   2.043   8.984   3.806  2.1062  0.8652 -0.4291
 7425SOL    HW224283   2.155   8.903   3.867  0.0904 -0.3439  1.8536
 7426SOL     OW24284   1.665   8.747   7.198 -0.0617  0.4749  0.4869
 7426SOL    HW124285   1.667   8.664   7.245 -2.8790 -0.8183 -1.3882
 7426SOL    HW224286   1.753   8.784   7.210  1.0691 -2.4073  1.9717
 7427SOL     OW24287   5.258   0.582   4.592 -0.1938  0.3123  0.3256
 7427SOL    HW124288   5.217   0.590   4.678  2.2713 -3.1332  2.0468
 7427SOL    HW224289   5.329   0.646   4.593 -0.5143  0.6689  0.6034
 7428SOL     OW24290  10.147  10.366  10.954 -0.2531  0.0371 -0.5014
 7428SOL    HW124291  10.161  10.423  10.878 -0.9693 -0.0356 -0.6972
 7428SOL    HW224292  10.155  10.277  10.919  0.5373  0.0065 -0.2612
 7429SOL     OW24293   9.686   4.737   6.151 -0.5275 -0.6959  0.1206
 7429SOL    HW124294   9.669   4.769   6.062 -1.4782 -0.5283  0.3433
 7429SOL    HW224295   9.614   4.676   6.168 -1.9052  1.2109  1.6983
 7430SOL     OW24296   5.193  10.181   9.763  0.2761  0.3811 -0.6109
 7430SOL    HW124297   5.126  10.153   9.825  0.8665 -2.4054 -1.0850
 7430SOL    HW224298   5.275  10.150   9.802  0.6932 -1.1439 -2.5710
 7431SOL     OW24299   8.840   2.090  10.341 -0.1918  0.5077  0.1538
 7431SOL    HW124300   8.889   2.125  10.267 -0.4712  0.0358 -0.2614
 7431SOL    HW224301   8.857   1.995  10.339 -0.1433  0.5007  0.7313
 7432SOL     OW24302   5.916   2.118   9.980 -0.4509  0.0381 -0.1076
 7432SOL    HW124303   5.847   2.181  10.000  1.3920  1.9203  0.6780
 7432SOL    HW224304   5.923   2.064  10.059 -0.9478 -0.1124 -0.1641
 7433SOL     OW24305   9.926   4.257  10.601  0.4249 -1.1061  0.2550
 7433SOL    HW124306   9.944   4.239  10.693 -0.4097 -0.8640  0.4784
 7433SOL    HW224307   9.978   4.335  10.581 -0.1870 -0.5325  0.8285
 7434SOL     OW24308   9.547  10.126   7.805  1.0054 -0.6988  0.5247
 7434SOL    HW124309   9.596  10.144   7.725  1.1532 -0.5634  0.6445
 7434SOL    HW224310   9.504  10.209   7.826 -0.7661 -1.2927 -0.5809
 7435SOL     OW24311   0.424   1.985   8.883 -0.1192  0.2185  0.0088
 7435SOL    HW124312   0.408   1.892   8.864  1.8759 -0.1616 -0.0106
 7435SOL    HW224313   0.499   1.985   8.942 -0.4779  1.8114  0.5059
 7436SOL     OW24314   0.496   6.589   2.903  0.0909  0.4014 -0.1371
 7436SOL    HW124315   0.459   6.591   2.814 -1.5794  0.2308  0.5231
 7436SOL    HW224316   0.584   6.551   2.891 -1.6073 -3.7515 -1.2473
 7437SOL     OW24317   2.348   1.817   2.316  0.7670 -0.0977  0.2379
 7437SOL    HW124318   2.400   1.857   2.246 -1.1713 -0.5085 -1.5485
 7437SOL    HW224319   2.257   1.837   2.293 -0.0067 -1.3718  1.9369
 7438SOL     OW24320   4.203  10.974   3.807  0.2675  0.3909 -0.2939
 7438SOL    HW124321   4.180  10.881   3.802  2.3348 -0.1809 -0.1176
 7438SOL    HW224322   4.188  11.007   3.718  0.9449 -0.4981 -0.7595
 7439SOL     OW24323   6.622   0.265  10.345 -0.6042 -0.3410 -0.2689
 7439SOL    HW124324   6.550   0.249  10.406 -1.1593  1.8170 -0.2659
 7439SOL    HW224325   6.580   0.274  10.260 -0.1536 -0.6106 -0.5228
 7440SOL     OW24326   3.301   6.605   6.027  0.2094  0.5504 -0.1416
 7440SOL    HW124327   3.305   6.689   5.980  0.4503  0.4578 -0.2859
 7440SOL    HW224328   3.229   6.558   5.985 -1.1132  1.3843  1.0933
 7441SOL     OW24329   9.406   3.584   7.813 -0.5059 -0.1449  0.4460
 7441SOL    HW124330   9.365   3.649   7.871  0.8547  0.6878  0.5259
 7441SOL    HW224331   9.381   3.612   7.725  0.2447  0.6439  0.4678
 7442SOL     OW24332   1.138   5.992   3.572 -0.3600 -0.7072  0.1675
 7442SOL    HW124333   1.138   5.940   3.652  1.9373 -0.9896  0.0470
 7442SOL    HW224334   1.099   6.075   3.598  0.1255 -0.8816  1.5294
 7443SOL     OW24335   9.541   0.297   5.695  0.5358  0.9086 -0.0729
 7443SOL    HW124336   9.589   0.222   5.659 -1.6990 -1.1605  0.9258
 7443SOL    HW224337   9.557   0.293   5.789 -1.0260  0.5250  0.2062
 7444SOL     OW24338   8.816   5.815   9.143 -0.0760 -0.5542 -0.4945
 7444SOL    HW124339   8.789   5.746   9.083 -0.1835 -0.7919 -0.1710
 7444SOL    HW224340   8.790   5.784   9.230 -2.1433  0.8218 -0.5288
 7445SOL     OW24341   9.578   0.298   5.966  0.1049  0.0595 -0.2887
 7445SOL    HW124342   9.621   0.337   6.042  0.1014  1.2003 -0.8538
 7445SOL    HW224343   9.490   0.336   5.966 -0.0043 -0.1863 -0.6806
 7446SOL     OW24344   0.638   6.441   7.345  0.1637 -0.1761 -0.2227
 7446SOL    HW124345   0.657   6.448   7.439 -2.8770  1.0492  0.4218
 7446SOL    HW224346   0.609   6.529   7.320 -2.2840 -1.2334 -1.4582
 7447SOL     OW24347   1.221   8.423   9.590 -0.1085  0.5513  0.1333
 7447SOL    HW124348   1.170   8.384   9.518 -1.6278 -0.4841  1.6881
 7447SOL    HW224349   1.241   8.511   9.560 -0.1465 -0.0598 -1.8177
 7448SOL     OW24350   1.562   0.573  10.194 -0.2319  0.0271 -0.6609
 7448SOL    HW124351   1.622   0.511  10.152  0.1469 -0.5589  0.6774
 7448SOL    HW224352   1.620   0.642  10.228 -0.2306 -0.7967  1.0778
 7449SOL     OW24353   4.274   9.413   0.077  0.0979  0.0806  0.1883
 7449SOL    HW124354   4.315   9.329   0.096  1.9334  0.9418  0.2294
 7449SOL    HW224355   4.272   9.417  -0.019 -0.1081 -0.0631  0.1864
 7450SOL     OW24356   4.038   5.067   4.446 -0.7475  0.0976  0.3709
 7450SOL    HW124357   4.105   5.133   4.461 -2.7750  2.2750  0.2774
 7450SOL    HW224358   3.955   5.110   4.465 -2.3306 -1.7981 -1.6074
 7451SOL     OW24359   5.240  10.643   6.198 -0.6602 -0.1463 -0.8879
 7451SOL    HW124360   5.191  10.561   6.189 -0.6847 -0.5220  1.7752
 7451SOL    HW224361   5.173  10.712   6.190 -1.1985 -0.5427  0.0855
 7452SOL     OW24362   1.505   1.896   3.549  0.7528  0.4663  1.0398
 7452SOL    HW124363   1.453   1.926   3.474  2.5178  0.6952 -0.1547
 7452SOL    HW224364   1.585   1.947   3.545  1.8479 -1.1050  1.7594
 7453SOL     OW24365   7.755   3.292   9.806  0.1994  0.2997 -0.0446
 7453SOL    HW124366   7.822   3.249   9.860 -0.0396  1.9258  1.6864
 7453SOL    HW224367   7.773   3.262   9.717  0.4388 -2.7890  0.9058
 7454SOL     OW24368   9.561   1.135   4.970  0.5828 -0.2443  0.6320
 7454SOL    HW124369   9.631   1.102   4.914  1.2425  1.3042  0.4902
 7454SOL    HW224370   9.571   1.086   5.052  1.3837 -0.5435  0.3650
 7455SOL     OW24371   9.314   8.416   6.562 -0.4134 -0.0790  0.1726
 7455SOL    HW124372   9.271   8.357   6.500  0.1982 -0.9219  0.5345
 7455SOL    HW224373   9.315   8.369   6.645  0.7734  0.1146  0.2864
 7456SOL     OW24374   4.311   5.553   3.392 -0.4566  0.6188  0.0064
 7456SOL    HW124375   4.363   5.626   3.359 -1.5649  2.2067  1.5948
 7456SOL    HW224376   4.224   5.566   3.355  0.2172 -2.3630 -3.1512
 7457SOL     OW24377   2.914   9.434   4.303  0.3540  0.3306 -0.3515
 7457SOL    HW124378   2.993   9.407   4.348 -0.1330 -0.9358 -0.2184
 7457SOL    HW224379   2.942   9.508   4.248  1.3259  0.7458  0.6556
 7458SOL     OW24380   2.376   1.026   0.007  0.5935  0.2868  0.0270
 7458SOL    HW124381   2.401   1.056   0.094  1.9392 -0.8967  0.0789
 7458SOL    HW224382   2.458   0.998  -0.034  0.0422  1.1461 -1.7665
 7459SOL     OW24383   9.405   2.857   0.954 -0.7523  0.4682  0.5044
 7459SOL    HW124384   9.392   2.769   0.988  1.9127 -0.4766 -0.5799
 7459SOL    HW224385   9.378   2.915   1.025 -1.7688 -1.2266  1.5664
 7460SOL     OW24386   0.202   7.254   9.555 -0.3669 -0.3320  0.1844
 7460SOL    HW124387   0.287   7.238   9.514  0.4476  0.9516  1.2789
 7460SOL    HW224388   0.145   7.280   9.482  0.8280  1.0988 -0.2917
 7461SOL     OW24389   6.878   9.139   2.613 -0.4677  0.2548 -0.6178
 7461SOL    HW124390   6.854   9.230   2.630 -0.1228  0.6376 -2.0337
 7461SOL    HW224391   6.908   9.138   2.521 -0.6233 -1.3121 -0.6898
 7462SOL     OW24392   0.835   9.066  10.062  1.0455  0.3844  0.2834
 7462SOL    HW124393   0.906   9.067  10.126  0.6603 -0.3486  0.7396
 7462SOL    HW224394   0.866   9.122   9.991  2.4733 -0.6063  0.0626
 7463SOL     OW24395   9.979   6.135  10.562 -0.3125  0.3710 -0.0686
 7463SOL    HW124396  10.033   6.171  10.492  2.3618  1.9195  2.5212
 7463SOL    HW224397   9.889   6.145  10.532  0.6887  0.3484 -3.4619
 7464SOL     OW24398   4.801   2.846   4.763 -0.9842  0.6791  0.7943
 7464SOL    HW124399   4.888   2.854   4.802 -1.1427  0.8735  1.1102
 7464SOL    HW224400   4.817   2.806   4.677 -0.4722  1.7259  0.3896
 7465SOL     OW24401   3.305   9.479   4.083 -0.1467 -0.3239 -0.5966
 7465SOL    HW124402   3.382   9.428   4.058  0.9488  0.0983  1.6744
 7465SOL    HW224403   3.340   9.565   4.107 -1.4420  0.1268 -0.2741
 7466SOL     OW24404   9.989  10.300   4.950 -0.2414  0.2367  0.0246
 7466SOL    HW124405  10.036  10.384   4.943  2.9042 -1.4140 -0.3624
 7466SOL    HW224406   9.917  10.308   4.888 -0.2795  2.7864  0.2936
 7467SOL     OW24407   1.381   9.883   4.847  0.0013  0.2870  0.0039
 7467SOL    HW124408   1.321   9.858   4.777 -1.1276  3.3184 -0.2197
 7467SOL    HW224409   1.385   9.805   4.903 -2.3888 -0.7874 -1.1602
 7468SOL     OW24410  10.747   2.266   8.614 -0.0321  0.0897  0.6032
 7468SOL    HW124411  10.795   2.324   8.554  1.7497 -1.1866  0.7017
 7468SOL    HW224412  10.766   2.301   8.701 -1.4318  1.0764  0.5568
 7469SOL     OW24413   0.068   8.971   1.576  0.2732  0.3361 -0.1378
 7469SOL    HW124414   0.091   8.892   1.528  1.3237  1.2307 -1.1807
 7469SOL    HW224415   0.019   8.940   1.653  1.3800 -1.3567 -0.0766
 7470SOL     OW24416   1.035   1.404   9.523  0.0226  0.5869 -0.1487
 7470SOL    HW124417   1.028   1.326   9.578  2.5159  0.2169 -0.2477
 7470SOL    HW224418   1.119   1.444   9.547 -0.6162  2.5941 -0.9630
 7471SOL     OW24419   7.483  10.966   7.201 -0.0894  0.1839  0.3455
 7471SOL    HW124420   7.412  11.029   7.214  0.2592  0.6147  0.1816
 7471SOL    HW224421   7.522  10.990   7.118  0.7703  0.4639  0.8126
 7472SOL     OW24422   8.297   9.714   2.288  0.1890 -0.0710  0.3110
 7472SOL    HW124423   8.355   9.790   2.284  0.8970 -0.6088  0.0510
 7472SOL    HW224424   8.314   9.677   2.375 -1.2125  0.8618  1.0189
 7473SOL     OW24425   0.026   0.799  10.150 -0.4443  0.2935 -0.8473
 7473SOL    HW124426  -0.065   0.792  10.181  0.2818 -1.2396  1.1190
 7473SOL    HW224427   0.066   0.863  10.208  0.3602 -0.9322 -0.0090
 7474SOL     OW24428   0.777   7.787   5.963  0.3773  0.1110 -0.2396
 7474SOL    HW124429   0.720   7.729   6.013  1.1636 -0.9012 -0.4704
 7474SOL    HW224430   0.834   7.728   5.913  0.3658  1.0899 -1.4634
 7475SOL     OW24431   5.839   6.338   8.561  0.0055 -0.3551 -0.2286
 7475SOL    HW124432   5.818   6.318   8.470  0.8750  0.9530 -0.7434
 7475SOL    HW224433   5.753   6.345   8.605 -0.4675  0.2283 -1.2207
 7476SOL     OW24434   9.591   2.012   5.857 -0.2291 -0.5678 -0.1849
 7476SOL    HW124435   9.604   1.963   5.776  3.0675 -1.4383  0.7116
 7476SOL    HW224436   9.632   2.097   5.840 -0.8907 -0.1796  0.1180
 7477SOL     OW24437   0.701   3.414   2.236 -0.8754 -0.4563 -0.0159
 7477SOL    HW124438   0.761   3.449   2.301 -1.2388  0.7467 -0.3075
 7477SOL    HW224439   0.650   3.348   2.284 -0.0947 -0.6892  0.5113
 7478SOL     OW24440   3.438   6.802  10.325  0.0823  0.3714  0.8088
 7478SOL    HW124441   3.426   6.714  10.289  2.4937  0.3386 -0.1016
 7478SOL    HW224442   3.349   6.835  10.340 -0.8838 -1.8611  0.3366
 7479SOL     OW24443   4.906   9.140   9.570 -0.4501 -0.2555  0.5544
 7479SOL    HW124444   4.883   9.049   9.550 -0.2411 -0.1854 -0.0428
 7479SOL    HW224445   4.825   9.189   9.553 -0.1204 -0.1206 -0.7207
 7480SOL     OW24446   0.588   7.944   8.256  0.3914 -0.4186 -0.2141
 7480SOL    HW124447   0.680   7.968   8.249  0.2925 -0.4501 -2.2416
 7480SOL    HW224448   0.549   8.013   8.311  1.5264 -0.1875  0.3210
 7481SOL     OW24449   4.532   7.769   9.035  0.9181 -0.8188  0.6839
 7481SOL    HW124450   4.591   7.694   9.036 -0.1169 -1.7304 -1.0736
 7481SOL    HW224451   4.525   7.792   8.942 -1.7037 -0.9648  0.7797
 7482SOL     OW24452   2.786   3.544  10.635  0.0116 -0.2674 -0.4938
 7482SOL    HW124453   2.849   3.611  10.664 -0.3683 -0.6285  1.3416
 7482SOL    HW224454   2.732   3.588  10.570  1.9339  0.1403 -1.9137
 7483SOL     OW24455  10.336   7.131   4.629 -0.4568 -0.4580 -0.3538
 7483SOL    HW124456  10.359   7.180   4.708 -1.8715  0.2317 -0.3323
 7483SOL    HW224457  10.419   7.117   4.584  0.1836  0.5253  0.4723
 7484SOL     OW24458   5.931   2.336   0.001 -0.7425  0.4595  0.1810
 7484SOL    HW124459   5.917   2.425   0.035  1.4043  1.4868 -1.3864
 7484SOL    HW224460   5.899   2.340  -0.089 -2.4747 -1.0055  0.6693
 7485SOL     OW24461   6.344   4.436   2.903  0.5536  0.6167  0.0837
 7485SOL    HW124462   6.293   4.509   2.869  0.0675  0.0059 -0.5126
 7485SOL    HW224463   6.297   4.409   2.982 -0.4557 -0.3707 -0.8191
 7486SOL     OW24464   4.987   1.904   9.206 -0.4682 -0.4279 -0.3850
 7486SOL    HW124465   5.025   1.957   9.136  0.2347  1.2384  1.1812
 7486SOL    HW224466   4.933   1.965   9.256 -2.2957 -1.9406 -0.3706
 7487SOL     OW24467   7.825   4.028   2.533 -0.2596  0.1973 -0.0207
 7487SOL    HW124468   7.852   3.972   2.606 -0.0557  1.0282  0.5570
 7487SOL    HW224469   7.819   3.969   2.458  3.8082  0.0173 -0.3928
 7488SOL     OW24470   6.576   7.778   6.390  0.4092  0.1959  0.6577
 7488SOL    HW124471   6.544   7.694   6.357 -1.7806  1.0826  0.4030
 7488SOL    HW224472   6.640   7.807   6.325 -1.5129  0.4141 -1.2261
 7489SOL     OW24473   2.255   1.987   4.385  0.4924  0.2501 -0.1666
 7489SOL    HW124474   2.289   1.920   4.325  0.9892 -0.5374  0.9686
 7489SOL    HW224475   2.288   2.069   4.350  0.3689 -0.1416 -1.2482
 7490SOL     OW24476   0.012   4.957   6.391 -0.4061  0.1545 -0.6262
 7490SOL    HW124477  -0.041   4.879   6.405  0.6161 -0.7558 -1.6565
 7490SOL    HW224478   0.100   4.924   6.375  0.2161  1.5625 -0.2904
 7491SOL     OW24479   7.637   7.193   1.711 -0.3008 -0.1761  0.2767
 7491SOL    HW124480   7.567   7.256   1.727 -0.7799  0.3403 -3.1542
 7491SOL    HW224481   7.714   7.247   1.692  0.9513 -0.7461  3.1215
 7492SOL     OW24482   0.694   1.760   9.311 -0.1418  0.0880 -0.2568
 7492SOL    HW124483   0.766   1.824   9.309 -0.4306  0.4961  1.0260
 7492SOL    HW224484   0.735   1.680   9.344  0.4056 -0.6910 -2.6815
 7493SOL     OW24485   0.363   2.490   1.719 -0.5927  0.3152  0.2587
 7493SOL    HW124486   0.271   2.466   1.724 -0.4803  0.0064  1.0493
 7493SOL    HW224487   0.404   2.445   1.794  0.4716 -0.7271 -0.9014
 7494SOL     OW24488  10.194   4.794   4.580  0.1130  0.1222 -0.2643
 7494SOL    HW124489  10.268   4.854   4.577 -0.3064  0.9726  3.0405
 7494SOL    HW224490  10.171   4.781   4.488  1.7847  3.0580 -1.2432
 7495SOL     OW24491   1.048   8.220   4.295  0.1546 -0.4539 -0.3097
 7495SOL    HW124492   1.063   8.225   4.200  0.9123 -0.7425 -0.2123
 7495SOL    HW224493   0.974   8.278   4.311 -0.0525 -0.4899 -1.0962
 7496SOL     OW24494   3.203   1.893   8.139  0.4597  0.1528  0.0717
 7496SOL    HW124495   3.296   1.886   8.114  0.1514 -0.0078 -1.0829
 7496SOL    HW224496   3.161   1.930   8.062 -0.7736 -1.6376 -0.1546
 7497SOL     OW24497   1.384  10.054   7.148  0.4851 -0.5299  0.5089
 7497SOL    HW124498   1.461  10.106   7.172 -0.3066 -0.4238  3.1854
 7497SOL    HW224499   1.392   9.974   7.201 -0.7048 -0.9865  0.0367
 7498SOL     OW24500   1.120   4.580  10.575  0.4889  0.0471  0.2985
 7498SOL    HW124501   1.053   4.512  10.583  0.7267 -0.3599 -0.9483
 7498SOL    HW224502   1.138   4.585  10.481 -1.6844  3.9411 -0.0920
 7499SOL     OW24503   2.078   0.046   5.943  0.6624 -0.4437 -0.6133
 7499SOL    HW124504   2.135   0.083   6.011  0.9253 -1.0552 -0.4999
 7499SOL    HW224505   2.138   0.017   5.874  0.3122  2.2472 -2.1905
 7500SOL     OW24506   3.139   8.392   6.611  0.0169 -0.2906  0.1290
 7500SOL    HW124507   3.182   8.458   6.557  1.7239 -2.6808 -1.6489
 7500SOL    HW224508   3.163   8.414   6.701 -0.5418  2.1618 -0.2526
 7501SOL     OW24509   1.182   5.535   3.174 -0.2477  0.3671  0.3458
 7501SOL    HW124510   1.236   5.494   3.242  1.6458  3.3918  0.8952
 7501SOL    HW224511   1.199   5.484   3.095  0.3069 -1.1250  1.3880
 7502SOL     OW24512  10.226   8.416   0.568  0.5063  0.0843 -0.0192
 7502SOL    HW124513  10.173   8.360   0.512  0.8102  1.1042 -1.3622
 7502SOL    HW224514  10.186   8.502   0.560 -0.1061  0.0688  2.2079
 7503SOL     OW24515   2.190   0.066   8.337  0.2509 -0.3089  0.2217
 7503SOL    HW124516   2.212   0.066   8.244 -1.4803 -0.3072 -0.2079
 7503SOL    HW224517   2.245  -0.003   8.374 -0.6220 -1.8374 -1.2194
 7504SOL     OW24518  10.612   2.224  10.686  0.0651  0.4135  0.4232
 7504SOL    HW124519  10.526   2.195  10.717  0.2207 -0.7151 -0.1603
 7504SOL    HW224520  10.666   2.226  10.765 -0.5121  1.2531  0.8145
 7505SOL     OW24521   9.571   5.620   4.415 -0.5100 -0.5509 -0.4698
 7505SOL    HW124522   9.624   5.603   4.336 -0.8318 -0.8242 -0.6322
 7505SOL    HW224523   9.610   5.698   4.454 -1.8087  1.0593 -2.2063
 7506SOL     OW24524   9.676   2.060   4.215  0.8515 -0.1687 -0.6326
 7506SOL    HW124525   9.736   2.065   4.289  0.7550  0.0851 -0.5729
 7506SOL    HW224526   9.594   2.027   4.252  0.2451  1.6134 -0.2893
 7507SOL     OW24527   6.982  10.015   0.395 -0.1842 -0.4819  0.1275
 7507SOL    HW124528   6.902   9.963   0.391 -0.4189 -0.0522 -1.2426
 7507SOL    HW224529   6.968  10.086   0.333  1.1942 -0.3111 -0.0251
 7508SOL     OW24530   6.336   6.416   1.290  0.6223  0.1158 -0.9584
 7508SOL    HW124531   6.388   6.452   1.362 -1.5853 -0.2617  0.9415
 7508SOL    HW224532   6.322   6.490   1.232  2.7649  0.3421 -1.2750
 7509SOL     OW24533  10.492   7.437   6.419  0.7777 -0.6612  0.4396
 7509SOL    HW124534  10.521   7.498   6.487 -0.9262  2.0781 -1.1026
 7509SOL    HW224535  10.401   7.417   6.442  0.4252 -0.3017 -0.5601
 7510SOL     OW24536   9.417   9.154   5.729  0.2265 -0.0414 -0.1951
 7510SOL    HW124537   9.405   9.225   5.667  3.2541  0.9996  0.1976
 7510SOL    HW224538   9.425   9.198   5.814 -2.3273 -1.3060  0.7955
 7511SOL     OW24539   0.586   2.402   2.192  0.0467  0.4038  0.0686
 7511SOL    HW124540   0.651   2.422   2.125  1.0091 -0.4534  0.7125
 7511SOL    HW224541   0.617   2.320   2.232 -1.9008 -0.5240 -0.1961
 7512SOL     OW24542   9.769   9.380   7.698 -0.2013 -0.4030  0.0779
 7512SOL    HW124543   9.824   9.321   7.648 -0.7020 -0.8975  0.1008
 7512SOL    HW224544   9.816   9.464   7.697  1.4859 -1.2654  1.6819
 7513SOL     OW24545   4.468   7.640   1.449 -0.1377  0.5714 -0.0748
 7513SOL    HW124546   4.474   7.593   1.532  0.6773 -0.8139 -0.8871
 7513SOL    HW224547   4.500   7.728   1.469 -0.1314  0.3142  1.1058
 7514SOL     OW24548   9.550   6.968  10.729 -0.6451 -0.2217 -0.3061
 7514SOL    HW124549   9.616   6.904  10.701 -0.7363  0.4292 -2.1220
 7514SOL    HW224550   9.469   6.937  10.690 -1.0108  0.1554  0.1418
 7515SOL     OW24551   6.261   6.787   1.994 -0.3734  0.1721 -0.2181
 7515SOL    HW124552   6.281   6.881   1.989 -0.5408  0.3451  1.5216
 7515SOL    HW224553   6.316   6.755   2.065  0.1896 -1.2180 -1.2479
 7516SOL     OW24554   2.883   3.074   4.570  0.1168 -0.0175 -0.3812
 7516SOL    HW124555   2.803   3.115   4.603 -1.1320 -1.5856 -1.3379
 7516SOL    HW224556   2.950   3.098   4.635 -1.2503  0.7688  0.8072
 7517SOL     OW24557   9.521   2.431   1.782  0.2438 -0.4888 -0.2103
 7517SOL    HW124558   9.583   2.503   1.792  0.2798 -0.4704 -0.5654
 7517SOL    HW224559   9.441   2.472   1.752 -0.2828 -0.3724  1.2693
 7518SOL     OW24560   3.643   9.557   8.676  0.2861  0.2144  0.2496
 7518SOL    HW124561   3.560   9.541   8.721  0.1074  3.6882  1.4181
 7518SOL    HW224562   3.618   9.581   8.587 -0.0253  1.5000  0.6687
 7519SOL     OW24563  10.308   0.570   4.670  0.5124  0.6394 -0.6039
 7519SOL    HW124564  10.263   0.487   4.687  1.1283  0.2992 -0.5891
 7519SOL    HW224565  10.253   0.616   4.607 -0.9561  1.1791  1.0066
 7520SOL     OW24566   3.980   0.982   1.713  0.1654  0.8885 -0.3272
 7520SOL    HW124567   3.941   0.957   1.629 -0.0535  1.7108 -0.4722
 7520SOL    HW224568   3.909   0.972   1.777  0.6516 -0.9246 -0.0114
 7521SOL     OW24569   3.404   7.208   6.949 -0.3914 -0.0788 -0.0325
 7521SOL    HW124570   3.367   7.285   6.906  1.0828  0.2054 -0.8704
 7521SOL    HW224571   3.372   7.213   7.039 -0.4218  1.4540 -0.1008
 7522SOL     OW24572   0.393   4.021   1.042 -0.3835  0.6179 -0.0204
 7522SOL    HW124573   0.358   4.043   0.955 -0.7373 -1.4835 -0.4765
 7522SOL    HW224574   0.364   4.092   1.098 -1.2876  1.3694 -1.3743
 7523SOL     OW24575   7.612  10.102   2.629 -0.3891 -1.0719 -0.3895
 7523SOL    HW124576   7.675  10.052   2.681  0.7432  0.0453 -0.6391
 7523SOL    HW224577   7.615  10.190   2.665 -1.8747 -1.0001 -0.3760
 7524SOL     OW24578   8.282   2.749   9.029  0.2631  0.3455 -0.2015
 7524SOL    HW124579   8.345   2.772   9.098 -1.0103  1.4093  0.6612
 7524SOL    HW224580   8.211   2.705   9.075  0.3933 -0.9364 -1.1747
 7525SOL     OW24581   6.253   0.888   9.733  0.0295 -0.4157  0.6695
 7525SOL    HW124582   6.222   0.822   9.672  1.5573  0.1325 -0.7887
 7525SOL    HW224583   6.193   0.962   9.722 -0.9555 -1.0778  1.4209
 7526SOL     OW24584   5.756   7.915   4.263  0.3964  0.2301  0.1027
 7526SOL    HW124585   5.841   7.878   4.240  0.7334  0.1320  1.4084
 7526SOL    HW224586   5.771   7.958   4.348 -1.4807 -2.3165  1.8763
 7527SOL     OW24587   0.025   3.727   6.324 -0.3558 -0.4828  0.3174
 7527SOL    HW124588  -0.039   3.658   6.306 -2.7906  1.8230 -0.5600
 7527SOL    HW224589   0.026   3.735   6.420 -3.8048  1.3189  0.3834
 7528SOL     OW24590   9.939   2.681   7.270  0.3459  0.0639  0.7341
 7528SOL    HW124591  10.028   2.644   7.267  0.7657  1.1036 -1.5876
 7528SOL    HW224592   9.938   2.733   7.350  1.8857  0.1486  0.7409
 7529SOL     OW24593   2.778   0.791   0.706  0.0821  0.1290 -0.8892
 7529SOL    HW124594   2.696   0.831   0.736 -0.0524 -0.0473 -1.0197
 7529SOL    HW224595   2.764   0.774   0.612 -0.1608 -0.9488 -0.6751
 7530SOL     OW24596   4.753   3.660  10.076  0.1792 -0.4504  0.4773
 7530SOL    HW124597   4.771   3.570  10.104  0.5092  0.1979  2.5280
 7530SOL    HW224598   4.692   3.694  10.141 -0.3272  0.6738 -0.5439
 7531SOL     OW24599   9.567   4.308   1.070  0.1955  0.1766  0.5325
 7531SOL    HW124600   9.620   4.255   1.010  1.1843  1.4661  0.2185
 7531SOL    HW224601   9.519   4.244   1.122  0.3001 -0.9991 -0.7603
 7532SOL     OW24602   9.150   8.776   3.777 -0.8673  0.0225 -0.2864
 7532SOL    HW124603   9.124   8.689   3.809 -2.3962  0.2923 -0.6852
 7532SOL    HW224604   9.123   8.836   3.848  1.3573  0.1015  0.5699
 7533SOL     OW24605   8.684   2.508   6.945 -0.2310  0.2819 -0.0649
 7533SOL    HW124606   8.689   2.571   7.016 -0.7172  2.4241 -1.8188
 7533SOL    HW224607   8.769   2.463   6.947  1.2476  2.8878 -0.3693
 7534SOL     OW24608   8.516   0.815   6.687  0.2530 -0.5962 -0.1436
 7534SOL    HW124609   8.445   0.872   6.718  0.8757  0.2730 -0.2874
 7534SOL    HW224610   8.552   0.776   6.767  2.0040  1.8115  0.3725
 7535SOL     OW24611   5.320   5.753   0.486  0.0584 -0.1399 -0.1225
 7535SOL    HW124612   5.292   5.664   0.464 -1.0565  0.2024 -0.1531
 7535SOL    HW224613   5.414   5.754   0.465  0.0747 -1.2767 -0.1944
 7536SOL     OW24614   7.497   5.244  10.255  0.1838 -0.6171  0.1861
 7536SOL    HW124615   7.541   5.169  10.215  0.7054  0.8899 -2.2897
 7536SOL    HW224616   7.446   5.282  10.184  0.4357  1.7310  1.1673
 7537SOL     OW24617  10.313  10.938   1.461  0.2684 -0.3018 -0.2792
 7537SOL    HW124618  10.346  10.916   1.549  0.4810 -0.5904 -0.4309
 7537SOL    HW224619  10.220  10.956   1.475  0.2421 -0.6116 -0.0370
 7538SOL     OW24620   4.660   0.795   4.532 -0.3561  0.2115  0.4091
 7538SOL    HW124621   4.727   0.862   4.517 -0.5816  0.5497  0.9236
 7538SOL    HW224622   4.690   0.749   4.610 -0.5653  0.1655  0.4621
 7539SOL     OW24623   5.795  10.316   8.282 -0.3847 -0.3080  0.0553
 7539SOL    HW124624   5.882  10.355   8.290 -1.1588  1.5703 -0.1829
 7539SOL    HW224625   5.760  10.316   8.371 -0.3828 -0.4748  0.0562
 7540SOL     OW24626   9.835   8.751   8.524  0.7771 -0.6504 -0.0842
 7540SOL    HW124627   9.800   8.737   8.436 -1.6592 -0.7553  0.8243
 7540SOL    HW224628   9.842   8.846   8.532  0.1715 -0.6008 -0.1072
 7541SOL     OW24629   9.681   1.386   0.872 -0.2405 -0.4808 -0.8141
 7541SOL    HW124630   9.589   1.391   0.898 -0.8172 -3.0669 -1.9926
 7541SOL    HW224631   9.720   1.325   0.936  0.8369  0.9956 -0.0013
 7542SOL     OW24632   4.030   1.902   8.292 -0.2902  0.1734  0.3071
 7542SOL    HW124633   4.051   1.940   8.207 -1.1937  0.1243  0.0468
 7542SOL    HW224634   4.074   1.817   8.292  0.6276  0.6425  0.3461
 7543SOL     OW24635   3.189   7.845   2.913 -0.3008 -0.2122  0.3959
 7543SOL    HW124636   3.257   7.892   2.961 -1.7944  1.5548  0.8714
 7543SOL    HW224637   3.112   7.849   2.970 -1.2320 -0.8762 -0.7677
 7544SOL     OW24638   7.222   2.796   9.834  0.0188  0.4642  0.1476
 7544SOL    HW124639   7.311   2.801   9.800  0.3334  1.2715  1.0277
 7544SOL    HW224640   7.187   2.884   9.822  0.8957  1.4737  3.7170
 7545SOL     OW24641   2.340   7.149   1.227  0.5833 -0.4187  0.2576
 7545SOL    HW124642   2.337   7.067   1.276 -1.9238 -1.0895 -0.8596
 7545SOL    HW224643   2.379   7.126   1.143  2.0874  0.0914  0.7834
 7546SOL     OW24644   7.541   2.371   0.780  0.1905  0.3679  0.1997
 7546SOL    HW124645   7.448   2.378   0.803  0.2877  2.2462  0.1689
 7546SOL    HW224646   7.565   2.458   0.748  1.8136 -0.2560 -0.4164
 7547SOL     OW24647   7.975   0.436  10.190  0.7134  0.0689  0.1578
 7547SOL    HW124648   7.900   0.492  10.173  2.7028  3.5636  1.7741
 7547SOL    HW224649   8.014   0.422  10.104  0.1553  1.2414 -0.3142
 7548SOL     OW24650   9.537   6.430   6.921 -0.7107  0.1292  0.3097
 7548SOL    HW124651   9.626   6.401   6.899 -0.2336  2.8480 -2.0272
 7548SOL    HW224652   9.489   6.423   6.839 -1.2248  3.1742  0.2290
 7549SOL     OW24653  10.628   5.446  10.677 -0.5884  0.4339 -0.1021
 7549SOL    HW124654  10.579   5.386  10.620 -0.6337 -0.9056  1.2812
 7549SOL    HW224655  10.599   5.533  10.650 -2.9537 -0.2674 -0.0443
 7550SOL     OW24656   2.241   8.218   4.693  0.1100 -0.1617  0.4304
 7550SOL    HW124657   2.290   8.269   4.757 -0.4073  1.5223 -0.4385
 7550SOL    HW224658   2.165   8.273   4.671 -0.5539 -1.3737 -0.4621
 7551SOL     OW24659   6.057   7.595   9.566 -0.3827  0.2094 -0.2001
 7551SOL    HW124660   6.116   7.552   9.504 -0.4875 -0.8656  0.4317
 7551SOL    HW224661   5.982   7.622   9.512  0.0950  0.4369 -0.7655
 7552SOL     OW24662   8.827   4.775   1.618  0.2672  0.1211  0.5206
 7552SOL    HW124663   8.811   4.856   1.570  0.8308  1.2287  2.1025
 7552SOL    HW224664   8.812   4.798   1.710  0.7083 -1.4975  1.0427
 7553SOL     OW24665   4.152   2.460   0.547 -0.3790 -0.4342 -0.1886
 7553SOL    HW124666   4.183   2.378   0.585  2.2458  1.2876  1.8119
 7553SOL    HW224667   4.093   2.497   0.613  0.6771  0.5224  0.2611
 7554SOL     OW24668  10.867   0.470  10.348  0.3134  0.2391  0.0615
 7554SOL    HW124669  10.862   0.382  10.387 -1.1343 -0.8131 -2.2543
 7554SOL    HW224670  10.793   0.517  10.387  0.4945  0.1116  0.5744
 7555SOL     OW24671   5.520  10.795   1.440  0.1159 -0.0897  0.2708
 7555SOL    HW124672   5.489  10.882   1.414  1.7918  0.4054 -0.1701
 7555SOL    HW224673   5.451  10.761   1.497 -1.4834  0.7188 -1.0870
 7556SOL     OW24674   3.419   2.206   7.433 -0.4954 -0.1730 -0.1831
 7556SOL    HW124675   3.494   2.151   7.411  0.0991  0.4994  0.1228
 7556SOL    HW224676   3.366   2.207   7.353  0.3077  0.1087 -0.7233
 7557SOL     OW24677   2.854   3.274   9.398  1.0705  0.2894 -0.7329
 7557SOL    HW124678   2.758   3.276   9.396  1.1013  2.2285 -2.6383
 7557SOL    HW224679   2.876   3.309   9.485  0.0707  0.3170 -0.4705
 7558SOL     OW24680   8.996   9.404   9.407 -0.2051 -0.2728  0.4218
 7558SOL    HW124681   9.029   9.325   9.449  2.4332  0.4914 -0.0267
 7558SOL    HW224682   9.074   9.458   9.392 -1.6218  1.4669 -1.2710
 7559SOL     OW24683  10.662   1.692   1.349  0.3144 -0.8316  0.2007
 7559SOL    HW124684  10.743   1.650   1.378  0.7082  0.1597  0.5953
 7559SOL    HW224685  10.670   1.782   1.380  0.7289  0.3162 -2.9384
 7560SOL     OW24686   1.996   3.768   3.657  0.7685  0.4501 -0.2253
 7560SOL    HW124687   1.908   3.769   3.619  0.6289  0.7953  0.0880
 7560SOL    HW224688   2.028   3.679   3.644  0.5102  0.4174 -0.6531
 7561SOL     OW24689   7.843   8.552   6.479  0.2590  0.6795 -0.9349
 7561SOL    HW124690   7.805   8.469   6.507  2.0677  0.6935  1.9350
 7561SOL    HW224691   7.908   8.528   6.413  1.7959 -0.4605  0.8923
 7562SOL     OW24692   4.787   2.931   9.692 -0.2890 -0.4515  0.4566
 7562SOL    HW124693   4.727   2.990   9.737  0.3497 -0.3671  1.2377
 7562SOL    HW224694   4.866   2.982   9.678 -0.5076 -0.4522 -0.8870
 7563SOL     OW24695   1.368   6.659   8.221  0.0729 -0.0485 -0.3611
 7563SOL    HW124696   1.429   6.720   8.180 -0.3885 -0.0221 -1.0251
 7563SOL    HW224697   1.336   6.706   8.298  1.2535 -0.2608  0.2766
 7564SOL     OW24698   9.261   8.330  10.067  0.1824 -0.0091  0.0824
 7564SOL    HW124699   9.236   8.405  10.013  1.9167  1.3614  1.0792
 7564SOL    HW224700   9.311   8.368  10.139  1.1298 -2.1453  0.6215
 7565SOL     OW24701   9.952   2.958   3.723  0.9482 -0.6637  0.6675
 7565SOL    HW124702  10.015   2.987   3.789 -0.5459  1.3277  1.3579
 7565SOL    HW224703   9.869   2.999   3.750 -0.2974 -1.9059 -1.0299
 7566SOL     OW24704  11.038  10.332   8.467 -0.0439  0.8315 -0.2863
 7566SOL    HW124705  11.096  10.266   8.430 -0.2573 -0.0408  0.8804
 7566SOL    HW224706  11.010  10.385   8.392  0.3250 -0.2443 -1.2050
 7567SOL     OW24707   0.546   0.710   7.312  0.4240 -0.3799 -0.1935
 7567SOL    HW124708   0.555   0.755   7.396 -4.7019  1.2987 -0.1924
 7567SOL    HW224709   0.569   0.776   7.247  1.5954 -0.7444 -0.1618
 7568SOL     OW24710   3.722   6.617   2.478 -1.0154  0.1077  0.5565
 7568SOL    HW124711   3.792   6.565   2.518 -1.8494 -0.9164  0.7345
 7568SOL    HW224712   3.748   6.626   2.387 -0.4178  0.1478  0.7286
 7569SOL     OW24713   4.833   2.058   2.808  0.3773  0.1214 -0.0299
 7569SOL    HW124714   4.928   2.064   2.795  0.0558 -0.1212 -3.1205
 7569SOL    HW224715   4.798   2.138   2.770 -0.6980  0.2738  1.2011
 7570SOL     OW24716   0.833   0.901   7.414  0.3113 -0.6335 -0.0246
 7570SOL    HW124717   0.809   0.927   7.503  1.3651 -1.5124  0.5448
 7570SOL    HW224718   0.884   0.821   7.426 -1.9093 -2.3832 -1.6267
 7571SOL     OW24719   0.837   5.611   3.188 -0.0128 -0.2305 -0.0927
 7571SOL    HW124720   0.898   5.559   3.136 -1.2118 -2.9878  1.0291
 7571SOL    HW224721   0.893   5.664   3.245  1.3070 -0.9473 -0.6773
 7572SOL     OW24722   0.104   2.267   3.308 -0.4620 -0.1280  0.9192
 7572SOL    HW124723   0.066   2.278   3.220  0.3982  0.2983  0.5843
 7572SOL    HW224724   0.128   2.175   3.312  2.5297  0.4334 -0.6323
 7573SOL     OW24725   8.871   6.793   7.859  0.0412 -0.1456  0.0521
 7573SOL    HW124726   8.939   6.785   7.925 -0.0035  1.0188  0.2526
 7573SOL    HW224727   8.801   6.735   7.890  0.8571 -1.2469 -0.0885
 7574SOL     OW24728   2.519   8.443   9.913  0.1380 -0.1229  0.0243
 7574SOL    HW124729   2.427   8.449   9.938 -0.3324  1.5658 -1.9216
 7574SOL    HW224730   2.562   8.511   9.964  0.2084 -0.4593  0.4225
 7575SOL     OW24731   7.148   3.441   0.279  0.1680  0.4319 -0.7181
 7575SOL    HW124732   7.129   3.352   0.251  0.0223  0.3608 -0.3944
 7575SOL    HW224733   7.189   3.482   0.203  0.7022 -0.0633 -0.6973
 7576SOL     OW24734   0.789   9.374   2.407  1.0023  0.0916  0.1518
 7576SOL    HW124735   0.717   9.373   2.344  1.7413 -1.3034 -0.7261
 7576SOL    HW224736   0.863   9.410   2.358  0.5492  3.1881  1.5481
 7577SOL     OW24737   4.151   9.145  10.744 -0.6247 -0.2924  0.1905
 7577SOL    HW124738   4.172   9.235  10.769  0.3391 -0.6477  0.7222
 7577SOL    HW224739   4.236   9.100  10.744 -1.1109 -1.2344  0.0560
 7578SOL     OW24740   0.931   9.669   6.547  0.4595 -0.1258  0.0935
 7578SOL    HW124741   0.942   9.587   6.595  3.7837 -0.5542 -1.1143
 7578SOL    HW224742   0.971   9.735   6.603  0.7729  0.0678 -0.3534
 7579SOL     OW24743   1.182   3.238   7.139 -0.7879 -0.4703 -0.0602
 7579SOL    HW124744   1.242   3.184   7.088 -0.5896 -0.3745  0.0728
 7579SOL    HW224745   1.163   3.312   7.082 -0.2130 -0.1361  0.1814
 7580SOL     OW24746   9.773   0.486   4.527 -0.0202  0.5947 -0.3539
 7580SOL    HW124747   9.683   0.514   4.514  0.4522  1.5408 -1.8512
 7580SOL    HW224748   9.823   0.530   4.458  1.7919  1.0598  1.1656
 7581SOL     OW24749   1.927   5.541   6.967 -0.0822 -0.2211 -0.5058
 7581SOL    HW124750   1.877   5.463   6.941 -0.9410  0.5261 -1.1737
 7581SOL    HW224751   1.912   5.603   6.896  2.7802 -0.3419 -1.3144
 7582SOL     OW24752   6.109   1.482  10.773 -0.0088 -0.1535 -0.1752
 7582SOL    HW124753   6.123   1.557  10.830 -2.6164  0.1734  0.1565
 7582SOL    HW224754   6.111   1.406  10.831 -0.6546 -0.0190  0.0227
 7583SOL     OW24755   4.874   2.000   4.316  0.4479  0.0391  1.1509
 7583SOL    HW124756   4.918   2.037   4.392 -1.4117 -0.1435  2.3955
 7583SOL    HW224757   4.788   2.043   4.315 -0.4190 -1.6161  0.5327
 7584SOL     OW24758   6.367   5.494   3.137  0.2598  0.3373  0.4268
 7584SOL    HW124759   6.396   5.478   3.047 -0.1829  0.8616  0.1866
 7584SOL    HW224760   6.328   5.581   3.135 -0.3818  0.0743  0.9779
 7585SOL     OW24761   3.112   4.739   5.093  0.3204 -0.8938 -0.2120
 7585SOL    HW124762   3.204   4.746   5.068  0.9261 -0.2972  1.9718
 7585SOL    HW224763   3.092   4.824   5.134 -0.3751 -1.9661  1.8135
 7586SOL     OW24764   9.038  10.123   7.319  0.1603 -0.5606 -0.0338
 7586SOL    HW124765   9.047  10.213   7.348 -0.0525 -0.6141  0.1980
 7586SOL    HW224766   9.125  10.084   7.333  1.0448  0.2871 -2.5188
 7587SOL     OW24767   9.632   4.948   5.323 -0.4769  0.1858 -0.3587
 7587SOL    HW124768   9.575   4.988   5.257 -1.0358  1.4613  0.8535
 7587SOL    HW224769   9.684   4.884   5.274 -0.5580  1.4011 -2.1258
 7588SOL     OW24770   1.773   4.869   8.461 -0.0782 -0.4118  0.3376
 7588SOL    HW124771   1.753   4.895   8.551 -0.0532 -0.1301  0.2615
 7588SOL    HW224772   1.787   4.775   8.466  0.5965 -0.2935  0.7527
 7589SOL     OW24773   3.650   4.475   0.813  0.5394  0.4237  0.5686
 7589SOL    HW124774   3.737   4.478   0.773  0.1661 -1.1458 -0.4815
 7589SOL    HW224775   3.606   4.553   0.781  1.0776  0.4559 -0.1116
 7590SOL     OW24776   0.911   5.847   0.639  0.1619 -0.0244  0.2100
 7590SOL    HW124777   0.847   5.780   0.614 -1.4702  1.5745 -0.0533
 7590SOL    HW224778   0.907   5.849   0.735  1.1361 -1.1239  0.3007
 7591SOL     OW24779   7.577   2.142   5.143  0.6772 -0.1502  0.3448
 7591SOL    HW124780   7.568   2.098   5.227 -2.4435 -0.5323 -0.0932
 7591SOL    HW224781   7.512   2.212   5.145  1.0340  0.2875 -1.4964
 7592SOL     OW24782   3.737   3.158   0.570  0.2325  0.2702 -0.4433
 7592SOL    HW124783   3.661   3.103   0.589 -0.1851  0.7499 -0.7085
 7592SOL    HW224784   3.761   3.195   0.654  0.6377 -0.4613 -0.2246
 7593SOL     OW24785   5.658   3.945  10.776 -0.9375 -0.3544  0.3422
 7593SOL    HW124786   5.721   3.955  10.847 -1.7604 -0.4472  1.1042
 7593SOL    HW224787   5.672   4.022  10.721 -3.0741  2.0517  2.8638
 7594SOL     OW24788  10.022  10.779   1.424  0.7552  0.2651 -0.2393
 7594SOL    HW124789  10.089  10.713   1.445 -0.2149 -1.0673 -1.1549
 7594SOL    HW224790  10.026  10.841   1.497  1.8476 -0.6857  0.5532
 7595SOL     OW24791   3.844   5.176   9.972 -1.1772  0.3857 -0.2352
 7595SOL    HW124792   3.920   5.144  10.021 -1.6871 -2.2216 -1.0441
 7595SOL    HW224793   3.770   5.164  10.031 -1.1970  1.6482  0.0374
 7596SOL     OW24794   5.337   9.843  10.161  0.5004 -0.6851  0.4836
 7596SOL    HW124795   5.318   9.935  10.182  1.4535 -0.6639  1.3306
 7596SOL    HW224796   5.320   9.835  10.067 -1.2119 -0.0641  0.6960
 7597SOL     OW24797   9.880   5.514   1.271  0.0652  0.3912 -0.2154
 7597SOL    HW124798   9.818   5.531   1.341 -0.5916 -1.3897 -0.3060
 7597SOL    HW224799   9.866   5.585   1.208 -3.2927 -0.9059 -1.1462
 7598SOL     OW24800   9.561   5.679   3.272 -0.6116  0.1230 -0.6472
 7598SOL    HW124801   9.528   5.739   3.338 -0.6840 -1.8781  1.2565
 7598SOL    HW224802   9.607   5.735   3.209 -0.4837  2.1188  1.1194
 7599SOL     OW24803   0.686   2.164   7.308 -0.4512 -0.2852 -0.6837
 7599SOL    HW124804   0.695   2.180   7.402 -1.5869  0.7876 -0.7135
 7599SOL    HW224805   0.672   2.070   7.300  0.1858 -0.4597  0.1673
 7600SOL     OW24806   3.013   2.140  10.035 -0.2054  0.5377 -0.0934
 7600SOL    HW124807   2.930   2.187  10.026  0.8292  2.8027  1.3687
 7600SOL    HW224808   3.002   2.087  10.114 -1.5208 -2.2275 -1.9635
 7601SOL     OW24809   7.728   8.372   7.425 -0.0422 -0.3172 -0.2140
 7601SOL    HW124810   7.735   8.360   7.520  0.4093 -0.0611 -0.2168
 7601SOL    HW224811   7.766   8.292   7.388  3.7405  1.3174 -0.2451
 7602SOL     OW24812   9.158   7.667   7.649  0.1263  0.2624  0.2285
 7602SOL    HW124813   9.158   7.669   7.744 -2.0775 -0.0003  0.2870
 7602SOL    HW224814   9.150   7.574   7.627  3.9096 -0.0816 -0.3638
 7603SOL     OW24815   3.045   9.904   7.443 -0.0965  0.3541 -0.2403
 7603SOL    HW124816   3.076   9.961   7.513 -2.5829 -0.1754  1.4128
 7603SOL    HW224817   2.963   9.943   7.414 -0.1663 -0.5840 -1.4037
 7604SOL     OW24818   0.553   9.574   6.872 -0.1650  0.1853  0.0073
 7604SOL    HW124819   0.468   9.533   6.858 -0.7991  1.5407 -0.1781
 7604SOL    HW224820   0.570   9.624   6.792  0.9437 -0.2821 -0.0740
 7605SOL     OW24821   5.596   9.251   8.227  0.2173 -0.2620  0.2259
 7605SOL    HW124822   5.646   9.248   8.309 -0.1349 -1.9418  0.4121
 7605SOL    HW224823   5.657   9.284   8.162  0.8361  0.0245  0.9419
 7606SOL     OW24824   4.893  10.091   5.129 -0.3272  0.9640  0.1706
 7606SOL    HW124825   4.883  10.166   5.189  1.1776  1.0949  0.2973
 7606SOL    HW224826   4.942  10.026   5.180  0.9964  1.0810 -0.8959
 7607SOL     OW24827   0.846   3.825   0.375  0.3888  0.1608  0.1339
 7607SOL    HW124828   0.906   3.803   0.305  1.7559  1.6165  0.7859
 7607SOL    HW224829   0.761   3.836   0.332  1.1750  0.9491 -1.2894
 7608SOL     OW24830  10.504   1.497   9.738 -0.1229 -0.2022 -0.1963
 7608SOL    HW124831  10.482   1.500   9.645 -0.1654 -1.6809 -0.2725
 7608SOL    HW224832  10.425   1.525   9.783 -0.4873 -0.5757 -0.5927
 7609SOL     OW24833   9.505   6.683  10.904  0.1585 -0.5086  0.1418
 7609SOL    HW124834   9.514   6.631  10.984 -0.1204 -0.7014  0.0514
 7609SOL    HW224835   9.414   6.712  10.905  0.9014  2.1406  1.4954
 7610SOL     OW24836  10.806   0.422   5.928 -0.0702  0.1238 -0.4141
 7610SOL    HW124837  10.774   0.476   6.000  3.0205  2.5651 -0.6650
 7610SOL    HW224838  10.892   0.390   5.957  0.8980  0.4976 -2.6259
 7611SOL     OW24839   9.082  10.763   5.988 -0.5384 -0.4015  0.0635
 7611SOL    HW124840   9.037  10.736   6.068  1.6854 -1.8922  0.9117
 7611SOL    HW224841   9.094  10.858   5.998  0.2711 -0.6581  1.8340
 7612SOL     OW24842   0.203   5.755   7.958 -0.3475 -0.0461  0.2500
 7612SOL    HW124843   0.251   5.706   8.025 -1.6751 -0.3060  1.0326
 7612SOL    HW224844   0.172   5.834   8.003  1.9611  1.7538 -1.0393
 7613SOL     OW24845   1.606  10.071   6.066 -0.0057 -0.2496 -0.1335
 7613SOL    HW124846   1.678  10.008   6.067  0.1021 -0.1478 -0.9691
 7613SOL    HW224847   1.625  10.129   6.140  0.5595 -0.4584 -0.1071
 7614SOL     OW24848   3.333  10.147   3.816  1.1393 -0.0796 -0.2725
 7614SOL    HW124849   3.382  10.229   3.820 -0.6632  1.0085  0.4690
 7614SOL    HW224850   3.399  10.079   3.828  2.6577  1.2555 -0.7702
 7615SOL     OW24851   2.792   0.677   7.607 -0.2801 -0.1390  0.4461
 7615SOL    HW124852   2.708   0.651   7.570 -0.5235  0.5940  0.4639
 7615SOL    HW224853   2.845   0.704   7.532 -0.5703  0.7831  0.5601
 7616SOL     OW24854   1.983   7.540   8.512 -0.5023  0.6440  0.1251
 7616SOL    HW124855   1.888   7.544   8.504 -0.3890  0.9939 -1.5017
 7616SOL    HW224856   2.011   7.632   8.506 -0.0560  0.5390  0.5509
 7617SOL     OW24857   9.091   7.762   2.879  0.4867  0.0316 -0.2949
 7617SOL    HW124858   9.108   7.810   2.960 -0.3515  2.4284 -1.4286
 7617SOL    HW224859   8.998   7.777   2.861  1.1793  1.9658 -3.0205
 7618SOL     OW24860   0.939   4.541   0.289 -0.0709 -0.0542 -0.5075
 7618SOL    HW124861   0.993   4.484   0.344  2.1600 -0.0652 -2.5017
 7618SOL    HW224862   0.912   4.484   0.217  1.7546  1.1454 -2.2486
 7619SOL     OW24863   1.925   8.246   0.076 -0.5950  0.1387  0.2403
 7619SOL    HW124864   1.860   8.311   0.048  0.1533  1.4606  1.3974
 7619SOL    HW224865   1.874   8.171   0.105 -1.6538  1.3368  1.5903
 7620SOL     OW24866   4.337   0.079   4.392 -0.0788 -0.2798  0.1169
 7620SOL    HW124867   4.342  -0.014   4.370 -0.3398 -0.5158  1.0022
 7620SOL    HW224868   4.400   0.089   4.464  0.5003  0.3914 -0.4655
 7621SOL     OW24869   9.436   1.687   8.765 -0.2308  0.2138 -1.2005
 7621SOL    HW124870   9.448   1.600   8.726 -2.1568 -1.9919  2.5368
 7621SOL    HW224871   9.348   1.713   8.739 -0.4242  0.0621 -0.7186
 7622SOL     OW24872   1.275  10.254   6.962  0.6556  0.2448 -0.6393
 7622SOL    HW124873   1.318  10.203   7.031  0.6525  0.0045 -0.8160
 7622SOL    HW224874   1.185  10.266   6.993  0.6292  0.0585 -0.6474
 7623SOL     OW24875   1.876   4.572   7.587  0.2338  0.2669  0.8358
 7623SOL    HW124876   1.840   4.628   7.518  1.3224 -0.5415 -0.4559
 7623SOL    HW224877   1.969   4.594   7.590  0.7544 -1.5926  0.1006
 7624SOL     OW24878  10.246   2.519   3.270  0.2573 -0.2839  0.1423
 7624SOL    HW124879  10.308   2.472   3.326  0.8743 -2.3826 -2.1225
 7624SOL    HW224880  10.258   2.611   3.293  0.9859 -0.9837  2.8738
 7625SOL     OW24881   6.923   9.596   6.224 -0.0111  0.5771  0.6048
 7625SOL    HW124882   6.846   9.578   6.278 -1.0699 -1.0361 -1.2948
 7625SOL    HW224883   6.890   9.652   6.153  0.9481  1.1783  0.6122
 7626SOL     OW24884   8.661   4.029   4.566  0.0107  1.0352 -0.4496
 7626SOL    HW124885   8.653   4.084   4.489  1.6672 -0.3623 -1.7059
 7626SOL    HW224886   8.599   3.957   4.552  0.6044  0.5618 -0.7038
 7627SOL     OW24887   5.002  10.439   1.294  0.6070  0.1619 -0.0324
 7627SOL    HW124888   4.963  10.379   1.358  0.6965  1.1387  0.9673
 7627SOL    HW224889   5.080  10.473   1.338  0.2472  1.4355 -0.3512
 7628SOL     OW24890  10.236   4.308   8.475 -0.2449  0.1142 -0.4576
 7628SOL    HW124891  10.299   4.336   8.541 -1.2589  2.1485 -0.2660
 7628SOL    HW224892  10.188   4.236   8.517  0.7066 -0.2304  0.0704
 7629SOL     OW24893   4.026  10.586   0.877 -0.0905 -0.6080  0.1359
 7629SOL    HW124894   3.987  10.513   0.924 -0.7308 -1.8433 -2.1706
 7629SOL    HW224895   4.039  10.554   0.788  1.8907  1.3019 -0.3813
 7630SOL     OW24896   1.736   9.036  10.747 -0.5577  0.4484 -0.6856
 7630SOL    HW124897   1.651   9.002  10.774  0.1505  0.3994  1.7170
 7630SOL    HW224898   1.795   8.960  10.753 -0.1180  0.7478 -1.1710
 7631SOL     OW24899  10.394   1.901   1.490 -0.2439  0.2418  0.2600
 7631SOL    HW124900  10.351   1.816   1.489  0.8228 -0.3147 -0.2221
 7631SOL    HW224901  10.390   1.930   1.581  0.6247 -0.9805  0.7031
 7632SOL     OW24902   1.369   2.511  10.540 -0.3212 -0.1682  0.2655
 7632SOL    HW124903   1.438   2.447  10.521  0.8843  0.7897  1.2071
 7632SOL    HW224904   1.320   2.519  10.459 -0.0137 -1.6952 -0.0975
 7633SOL     OW24905   3.753   5.265   3.592 -0.4812 -0.2556 -0.1108
 7633SOL    HW124906   3.822   5.289   3.529 -1.8126 -0.0763 -1.5637
 7633SOL    HW224907   3.672   5.297   3.552 -1.5694 -1.5523  0.9628
 7634SOL     OW24908   3.696   1.207   1.729  0.3358 -0.3409 -0.0214
 7634SOL    HW124909   3.746   1.184   1.650  0.4900  1.6331 -0.5554
 7634SOL    HW224910   3.688   1.125   1.777  3.0236 -0.9928 -0.5225
 7635SOL     OW24911   5.117   0.178   7.042 -0.0782  0.2917 -0.1494
 7635SOL    HW124912   5.064   0.159   7.120 -1.3532  0.6860 -0.9011
 7635SOL    HW224913   5.084   0.262   7.010  1.1241  0.6327 -0.5539
 7636SOL     OW24914   2.217   3.641   7.412  0.1057 -0.6307  0.6818
 7636SOL    HW124915   2.223   3.615   7.320 -0.1439 -1.1913  0.8185
 7636SOL    HW224916   2.308   3.642   7.442  0.0789 -2.2895  0.9141
 7637SOL     OW24917   7.825   9.493   3.909 -0.3648 -0.0383  0.2816
 7637SOL    HW124918   7.899   9.432   3.905 -1.0453 -0.9296  0.9062
 7637SOL    HW224919   7.859   9.575   3.872  0.3792 -0.9724 -1.1659
 7638SOL     OW24920  10.738  10.257   1.293 -0.0740 -0.1356 -0.0075
 7638SOL    HW124921  10.668  10.193   1.307 -0.6567 -0.5145 -3.5128
 7638SOL    HW224922  10.818  10.203   1.287 -0.1282 -0.2013 -0.1431
 7639SOL     OW24923   0.267   2.170   5.713 -0.5008 -0.6764 -0.7980
 7639SOL    HW124924   0.332   2.225   5.756  0.1385 -1.7867 -0.2916
 7639SOL    HW224925   0.247   2.215   5.631  2.3919 -1.2195 -1.9436
 7640SOL     OW24926   9.365   3.321   8.228  0.1897  0.5719  0.2631
 7640SOL    HW124927   9.398   3.411   8.236  0.0386  0.6581 -0.0422
 7640SOL    HW224928   9.361   3.306   8.133 -1.9439  1.0633  0.2247
 7641SOL     OW24929   3.756   0.810  10.805 -0.2271 -0.1015 -0.6929
 7641SOL    HW124930   3.798   0.885  10.762 -0.4370  0.0540 -0.6259
 7641SOL    HW224931   3.727   0.844  10.889  1.7120 -0.8236  0.3255
 7642SOL     OW24932   9.561   8.718   7.185  0.0152 -0.0511 -0.3004
 7642SOL    HW124933   9.597   8.797   7.226  0.1785 -2.3487  4.6470
 7642SOL    HW224934   9.637   8.662   7.171 -0.5804 -1.5354  1.9459
 7643SOL     OW24935   7.123   5.658   1.294  0.1985  0.2115 -0.9228
 7643SOL    HW124936   7.187   5.587   1.296  0.5477  0.5149 -1.3665
 7643SOL    HW224937   7.174   5.738   1.286 -0.1421  0.6152  0.5506
 7644SOL     OW24938  10.354   6.101   2.553  0.0043 -0.2500  0.1119
 7644SOL    HW124939  10.423   6.158   2.585 -1.5779  1.3542  0.7705
 7644SOL    HW224940  10.332   6.136   2.467  1.3538 -2.0289 -1.0632
 7645SOL     OW24941   4.313   6.079   5.366  0.0477 -0.0346  0.3120
 7645SOL    HW124942   4.349   6.166   5.345 -0.7103 -0.2558 -2.1646
 7645SOL    HW224943   4.287   6.043   5.282  0.1541 -2.6247  1.3042
 7646SOL     OW24944   9.134   4.874   7.035  0.2783  0.3133 -0.2381
 7646SOL    HW124945   9.111   4.967   7.034 -0.5662  0.1037 -0.7896
 7646SOL    HW224946   9.075   4.835   7.100  2.2668  0.5422  1.8322
 7647SOL     OW24947   1.538   7.985   1.740  0.1770 -0.1479  0.2870
 7647SOL    HW124948   1.618   8.006   1.788 -0.6309  0.7047  1.2982
 7647SOL    HW224949   1.524   8.060   1.683 -0.3680  0.1218  0.7608
 7648SOL     OW24950   1.236   3.480   9.784  0.1893 -0.4297  0.0270
 7648SOL    HW124951   1.266   3.466   9.874 -2.0556  1.1679  1.1067
 7648SOL    HW224952   1.175   3.409   9.767  0.8327 -0.8976 -0.3687
 7649SOL     OW24953  10.093   0.804   7.713 -0.1310  0.4322 -0.3869
 7649SOL    HW124954  10.102   0.747   7.789 -0.4661  1.8620  0.7512
 7649SOL    HW224955  10.091   0.743   7.638  0.6256 -0.9690  0.6828
 7650SOL     OW24956  10.710   7.525   4.316  0.0299 -0.1020 -0.7949
 7650SOL    HW124957  10.728   7.437   4.349 -0.3445 -0.4795 -1.5806
 7650SOL    HW224958  10.644   7.561   4.375  1.6249  0.4328  0.7479
 7651SOL     OW24959   7.133  10.212   4.417  0.2124  0.1191 -0.4540
 7651SOL    HW124960   7.198  10.281   4.428  0.9314 -0.2177 -2.2726
 7651SOL    HW224961   7.068  10.229   4.486  1.3243  1.4736  0.3117
 7652SOL     OW24962   4.903   0.760   1.301  0.2600 -0.2937  0.0239
 7652SOL    HW124963   4.922   0.722   1.215  0.3825  0.2765 -0.2009
 7652SOL    HW224964   4.812   0.788   1.296  0.1290 -0.6718  0.2364
 7653SOL     OW24965   2.025   2.758   3.508 -0.2151 -0.1846  0.2073
 7653SOL    HW124966   2.051   2.844   3.473  0.8300  0.1006  1.6092
 7653SOL    HW224967   2.082   2.696   3.464  2.2245  0.3274  2.4378
 7654SOL     OW24968   8.995   2.981   2.490 -0.1436 -0.1085  0.1276
 7654SOL    HW124969   9.046   2.920   2.543  1.5139  1.8803  0.9899
 7654SOL    HW224970   9.027   2.968   2.401 -0.1616 -0.8207  0.2223
 7655SOL     OW24971   6.730   3.275   6.023 -0.0694  0.6712  0.2068
 7655SOL    HW124972   6.790   3.304   6.093  0.3880 -0.0963  0.1510
 7655SOL    HW224973   6.654   3.239   6.070  0.2955  0.0335  0.3331
 7656SOL     OW24974   7.554   1.166   2.530 -0.4937 -0.0216  0.3992
 7656SOL    HW124975   7.484   1.137   2.472  0.6848 -1.4173 -0.3867
 7656SOL    HW224976   7.511   1.182   2.614 -1.6128 -1.7254  0.1813
 7657SOL     OW24977   1.226  10.404   6.438 -0.5948  0.3723  0.1143
 7657SOL    HW124978   1.280  10.483   6.436 -1.1564  0.7534 -0.9458
 7657SOL    HW224979   1.169  10.412   6.361 -2.1994  0.0058  1.1984
 7658SOL     OW24980  10.439   5.643   9.111 -0.0707  0.4199  0.2682
 7658SOL    HW124981  10.446   5.564   9.165 -1.2945  1.0197  1.3462
 7658SOL    HW224982  10.433   5.715   9.174  0.4255  1.3309 -0.6949
 7659SOL     OW24983   4.617   1.360   0.918 -1.0135  0.0742 -1.1255
 7659SOL    HW124984   4.570   1.438   0.948  0.8137  1.2582 -1.2109
 7659SOL    HW224985   4.695   1.394   0.875 -0.3764 -1.8075 -1.5340
 7660SOL     OW24986   6.816   5.908   3.653  0.2337 -0.3774 -0.2464
 7660SOL    HW124987   6.740   5.852   3.634 -0.2430  0.3562 -0.5668
 7660SOL    HW224988   6.826   5.904   3.748  0.8724 -1.8444 -0.3467
 7661SOL     OW24989   8.659   1.774   4.719  0.0511 -0.4519 -0.0239
 7661SOL    HW124990   8.695   1.694   4.759  0.0280 -0.9792 -1.0118
 7661SOL    HW224991   8.564   1.760   4.721  0.0025 -0.0669  0.5550
 7662SOL     OW24992   5.527   4.492   0.498 -0.0584 -0.7715  0.6867
 7662SOL    HW124993   5.616   4.484   0.532  0.8130  0.2301 -1.1783
 7662SOL    HW224994   5.477   4.528   0.570  1.2929 -0.3774  1.4673
 7663SOL     OW24995   1.442   0.590   7.696 -0.9095 -0.9785  0.2521
 7663SOL    HW124996   1.532   0.558   7.689 -0.9884 -0.9738 -0.8457
 7663SOL    HW224997   1.442   0.644   7.775 -0.0238 -1.2227  0.4259
 7664SOL     OW24998   1.642   0.069   7.596  0.2765  0.3524 -0.8598
 7664SOL    HW124999   1.729   0.063   7.556  0.8133  0.5514  0.2501
 7664SOL    HW225000   1.591   0.001   7.553  1.1859 -0.2339 -1.0246
 7665SOL     OW25001   1.758   3.850   1.489  0.6075 -0.0600  0.0656
 7665SOL    HW125002   1.674   3.824   1.528  0.0426 -2.0218 -2.2457
 7665SOL    HW225003   1.772   3.940   1.521 -2.4859  0.4356  0.3367
 7666SOL     OW25004   0.014   7.341   1.231  0.1985 -0.0509  0.1194
 7666SOL    HW125005   0.081   7.284   1.268  0.9587  0.5466 -0.2981
 7666SOL    HW225006   0.061   7.423   1.213 -0.6380  0.3528 -0.2303
 7667SOL     OW25007   2.985   6.520   7.520 -0.1213 -0.6009  0.2779
 7667SOL    HW125008   3.033   6.451   7.565  1.6745 -0.0687 -0.7387
 7667SOL    HW225009   3.050   6.565   7.467 -1.8441 -0.2090 -1.6589
 7668SOL     OW25010   7.048   9.565   1.758  0.2181  0.0571  0.3041
 7668SOL    HW125011   7.125   9.513   1.782  0.6331  0.9023  0.8442
 7668SOL    HW225012   7.030   9.541   1.667  0.6327 -0.7359  0.4238
 7669SOL     OW25013   3.550   4.888   5.226  0.5150  0.6340  0.9970
 7669SOL    HW125014   3.552   4.833   5.147  1.0415 -3.5587  3.6272
 7669SOL    HW225015   3.492   4.961   5.202 -1.0237 -1.4676 -2.5934
 7670SOL     OW25016   4.569   8.138   4.707 -0.6830  0.3523 -0.4353
 7670SOL    HW125017   4.555   8.090   4.624  0.6583  1.0407 -1.0837
 7670SOL    HW225018   4.485   8.182   4.723 -0.4525  1.6654 -2.4210
 7671SOL     OW25019   0.555   8.855   1.384  0.7567  0.0903  0.1389
 7671SOL    HW125020   0.506   8.882   1.461  1.8506  1.3889  0.4281
 7671SOL    HW225021   0.618   8.790   1.417 -0.1094 -0.8662 -0.0569
 7672SOL     OW25022  10.719   8.774   2.503  0.2368  0.1437  0.3980
 7672SOL    HW125023  10.746   8.684   2.488 -0.2536 -0.1199  1.0284
 7672SOL    HW225024  10.729   8.787   2.598 -1.0643  0.2783  0.5378
 7673SOL     OW25025   3.762   5.415   7.486 -0.0044  0.3891  0.1784
 7673SOL    HW125026   3.783   5.354   7.557  0.8821 -2.2912 -2.2009
 7673SOL    HW225027   3.843   5.464   7.472 -0.0484  0.6207  0.7294
 7674SOL     OW25028   1.618  10.784   5.730 -0.1422  0.2087 -1.1106
 7674SOL    HW125029   1.579  10.719   5.672  1.1237  0.1042 -1.8641
 7674SOL    HW225030   1.602  10.868   5.687  1.4973  0.0682 -2.0625
 7675SOL     OW25031   3.920   3.503   5.114 -0.3087  0.1708 -0.5780
 7675SOL    HW125032   3.956   3.589   5.134 -0.8229  0.6483 -1.6298
 7675SOL    HW225033   3.825   3.514   5.123 -0.4261 -0.0861 -1.4136
 7676SOL     OW25034   3.340   9.754   9.665  0.2946  0.0697  0.0523
 7676SOL    HW125035   3.288   9.686   9.622  1.5686 -2.1230  1.7346
 7676SOL    HW225036   3.327   9.737   9.759  0.0779  2.6805  0.5503
 7677SOL     OW25037   7.180   8.820   1.164  0.5476 -1.1410  0.3284
 7677SOL    HW125038   7.199   8.897   1.217  1.5765 -0.5328 -0.8617
 7677SOL    HW225039   7.149   8.754   1.226  4.6608 -1.5406  2.2276
 7678SOL     OW25040   7.515   4.229   3.915 -0.2191 -0.0672  0.7351
 7678SOL    HW125041   7.420   4.229   3.925 -0.0389 -2.1301  4.7681
 7678SOL    HW225042   7.534   4.154   3.859 -0.9437  0.5250 -0.3237
 7679SOL     OW25043  10.287   1.112   2.834  0.7201  0.6347  0.5298
 7679SOL    HW125044  10.306   1.020   2.850 -0.5987  0.1956 -0.2152
 7679SOL    HW225045  10.225   1.111   2.761 -0.4695  2.0236  1.4618
 7680SOL     OW25046   2.682   8.751  10.452 -0.2880  0.1994  0.0789
 7680SOL    HW125047   2.768   8.747  10.493 -0.8144 -2.7699  1.1259
 7680SOL    HW225048   2.689   8.692  10.376 -0.4354  2.7118 -2.0145
 7681SOL     OW25049   0.108  10.425   7.029 -0.0495  0.3519  0.4090
 7681SOL    HW125050   0.095  10.484   7.104  2.4115 -1.5167  2.4930
 7681SOL    HW225051   0.079  10.340   7.060  0.5803 -0.3856 -0.9432
 7682SOL     OW25052   4.602   4.145   9.233 -0.0318 -0.7689 -0.4712
 7682SOL    HW125053   4.595   4.193   9.316 -1.3488 -1.1922 -0.3040
 7682SOL    HW225054   4.524   4.171   9.184  0.3235 -1.1445 -1.2461
 7683SOL     OW25055   4.812   7.020   7.529 -0.0131  0.1378 -0.8380
 7683SOL    HW125056   4.755   6.973   7.590  0.7928  0.5719  0.2820
 7683SOL    HW225057   4.816   6.964   7.452  2.2612 -2.5786  1.0220
 7684SOL     OW25058   1.677   7.671   9.402  0.3200  0.0082 -0.2383
 7684SOL    HW125059   1.609   7.640   9.342  0.2546  0.9777 -0.6758
 7684SOL    HW225060   1.631   7.730   9.461  0.4174 -0.8178  0.6874
 7685SOL     OW25061  11.036   5.401   8.979  0.3220  0.3315 -0.2713
 7685SOL    HW125062  10.989   5.344   9.040 -0.3994 -0.4950 -1.5369
 7685SOL    HW225063  10.994   5.486   8.987 -0.9565 -0.2211 -0.8747
 7686SOL     OW25064   1.730   0.269  10.222  0.3655 -0.2871 -0.2193
 7686SOL    HW125065   1.680   0.254  10.142  0.6686  0.5936 -0.5927
 7686SOL    HW225066   1.674   0.237  10.293  0.5723 -2.1584 -0.8552
 7687SOL     OW25067   0.469   9.892   2.233  0.3808  0.2264 -0.0957
 7687SOL    HW125068   0.528   9.938   2.174 -0.1401 -0.6788 -1.3758
 7687SOL    HW225069   0.498   9.801   2.230 -0.6819 -0.1246 -0.2938
 7688SOL     OW25070   7.393   4.036   7.563 -0.4134  0.5950  0.2433
 7688SOL    HW125071   7.339   4.113   7.549 -0.1322  0.6055 -0.8744
 7688SOL    HW225072   7.442   4.025   7.481  0.9045  0.2930  1.0407
 7689SOL     OW25073   2.877   2.381   9.795 -0.7222  0.5197  0.1239
 7689SOL    HW125074   2.941   2.446   9.765 -1.2099  1.0761  0.2549
 7689SOL    HW225075   2.870   2.319   9.722 -1.8683  1.8390 -0.9403
 7690SOL     OW25076   1.580   9.135  10.325 -0.2423 -0.3022 -0.5035
 7690SOL    HW125077   1.584   9.221  10.282  2.1355 -0.4652 -0.7158
 7690SOL    HW225078   1.650   9.138  10.391 -2.7636 -0.6129  2.4528
 7691SOL     OW25079  10.076   0.347   7.553 -0.2310 -0.1434 -0.4166
 7691SOL    HW125080  10.073   0.320   7.462  0.3600 -0.2985 -0.3939
 7691SOL    HW225081  10.004   0.300   7.595 -1.4938  1.1047 -1.1000
 7692SOL     OW25082  10.222   1.128   6.371 -0.2289 -0.3063  0.0944
 7692SOL    HW125083  10.256   1.208   6.331  1.4200 -1.0721 -0.1128
 7692SOL    HW225084  10.141   1.109   6.322 -0.5607  1.1176  0.0475
 7693SOL     OW25085   9.283   9.520   7.932 -0.3566  0.5270 -0.4096
 7693SOL    HW125086   9.284   9.615   7.935  0.7288  0.5590 -1.0053
 7693SOL    HW225087   9.321   9.498   7.847 -2.5391 -0.4329 -1.2153
 7694SOL     OW25088   3.151   1.146   4.324 -0.1174  0.6151  0.6984
 7694SOL    HW125089   3.233   1.119   4.283 -1.7831 -0.0263 -2.5943
 7694SOL    HW225090   3.111   1.064   4.354 -0.3417  0.6991  0.6338
 7695SOL     OW25091   1.317   8.241  10.414  0.9220  0.8118  0.4625
 7695SOL    HW125092   1.300   8.152  10.447  1.9521 -0.2564 -1.6963
 7695SOL    HW225093   1.233   8.286  10.424  0.3051 -0.4665  1.3971
 7696SOL     OW25094   7.894   8.371   2.115 -0.5356  0.2765 -0.3088
 7696SOL    HW125095   7.856   8.300   2.063  1.6316 -0.8946 -0.3833
 7696SOL    HW225096   7.987   8.371   2.092  0.3822  0.2090  2.9701
 7697SOL     OW25097   6.858   9.038   5.202  0.0722 -0.4144  0.6580
 7697SOL    HW125098   6.816   9.004   5.123 -1.7281  0.6318  1.1011
 7697SOL    HW225099   6.867   8.962   5.259 -1.4468 -0.6675  0.6123
 7698SOL     OW25100   2.097  10.442   5.695  0.7978  0.0823 -0.6960
 7698SOL    HW125101   2.163  10.396   5.747 -2.2619 -1.2663  2.3602
 7698SOL    HW225102   2.129  10.532   5.691  2.7488 -0.4686  0.7523
 7699SOL     OW25103   7.679   9.744   0.911 -0.3054  0.3185  0.0715
 7699SOL    HW125104   7.621   9.758   0.836 -0.5331  2.0864  0.5340
 7699SOL    HW225105   7.767   9.743   0.872 -0.5735 -2.1627 -0.6008
 7700SOL     OW25106  10.857   4.530   4.743 -0.4540 -0.0379  0.0600
 7700SOL    HW125107  10.828   4.481   4.666  1.7243 -2.0214  0.4058
 7700SOL    HW225108  10.922   4.592   4.709 -0.5637  0.1003  0.1028
 7701SOL     OW25109   1.162  10.576   5.986 -0.0622 -0.1529  0.2799
 7701SOL    HW125110   1.232  10.601   6.047  0.6206 -0.9361 -0.1543
 7701SOL    HW225111   1.205  10.518   5.922 -0.4850  1.5198 -1.6311
 7702SOL     OW25112   5.076   1.886   5.951  0.3665 -0.0558 -0.4840
 7702SOL    HW125113   5.044   1.952   5.889 -1.1491  0.2385  0.5531
 7702SOL    HW225114   5.018   1.811   5.938  0.3571 -0.1760  0.2154
 7703SOL     OW25115   6.301   1.021   4.451  0.4450  0.2420  0.0770
 7703SOL    HW125116   6.230   0.962   4.428 -0.2672  0.6952  1.0763
 7703SOL    HW225117   6.371   0.963   4.483  0.7015 -0.2304 -1.2543
 7704SOL     OW25118   0.956  10.000   7.502 -0.0526  0.8659  0.4195
 7704SOL    HW125119   0.894  10.043   7.444 -0.6516  0.9367  1.0955
 7704SOL    HW225120   0.939   9.906   7.491  2.2954  0.6003 -2.2244
 7705SOL     OW25121   8.450   2.636   5.045  0.0414 -0.0740  0.5601
 7705SOL    HW125122   8.528   2.658   4.995 -2.7384  3.1047 -3.0028
 7705SOL    HW225123   8.423   2.551   5.011  0.3272  0.2450 -0.5168
 7706SOL     OW25124   8.066  10.079   6.641  0.3145 -0.2258 -0.7598
 7706SOL    HW125125   8.027  10.162   6.668  0.4130 -1.2055  2.8957
 7706SOL    HW225126   8.153  10.104   6.610  0.3895  1.0880  0.3716
 7707SOL     OW25127   0.825   7.523   9.939  0.1897  0.1719 -0.2940
 7707SOL    HW125128   0.730   7.521   9.952  0.2338  2.6636  1.0353
 7707SOL    HW225129   0.837   7.504   9.846 -1.9480  2.9050 -1.2881
 7708SOL     OW25130   3.708   2.055   9.134 -0.3701 -0.4854  0.1791
 7708SOL    HW125131   3.780   2.092   9.185  0.1974 -0.6494 -0.4808
 7708SOL    HW225132   3.752   2.008   9.063 -1.0870 -2.0719  0.7620
 7709SOL     OW25133  10.074   0.574   0.442 -0.3533 -0.3255 -0.6351
 7709SOL    HW125134  10.067   0.594   0.536 -2.3030  0.2944 -0.8681
 7709SOL    HW225135   9.996   0.524   0.422  0.6318 -1.5025 -1.7319
 7710SOL     OW25136   4.444   0.021   3.726  0.0241  0.3585  0.1993
 7710SOL    HW125137   4.384  -0.047   3.754  1.8883 -1.3035  0.3886
 7710SOL    HW225138   4.457   0.006   3.633  2.5167 -1.3634  0.7415
 7711SOL     OW25139  11.025   7.941   9.911  0.2188 -0.0077 -0.4801
 7711SOL    HW125140  10.971   7.863   9.903 -2.0040  1.3442  0.4745
 7711SOL    HW225141  11.062   7.936   9.999 -2.0003  1.1834  0.5942
 7712SOL     OW25142   4.264   8.159   8.259  0.4546  0.3073  0.4647
 7712SOL    HW125143   4.339   8.116   8.218  1.2446  1.3233  0.8050
 7712SOL    HW225144   4.259   8.244   8.214 -0.3610  0.3310  0.5970
 7713SOL     OW25145   4.440   3.615   6.236  0.2958  0.4422 -0.3385
 7713SOL    HW125146   4.349   3.607   6.207 -0.1570 -0.0317  1.1341
 7713SOL    HW225147   4.484   3.541   6.193  0.0280  0.7512 -1.1681
 7714SOL     OW25148   5.282   5.451   8.374 -0.0233  0.2416  0.9730
 7714SOL    HW125149   5.199   5.471   8.417 -0.8173 -2.1374  0.7282
 7714SOL    HW225150   5.266   5.466   8.281  0.7683  2.5142  1.1469
 7715SOL     OW25151   7.481   3.963   0.444 -0.0191 -0.6341 -0.2169
 7715SOL    HW125152   7.511   3.964   0.535 -1.7437 -0.7782  0.3932
 7715SOL    HW225153   7.557   3.933   0.394  1.1771  0.1290  1.0733
 7716SOL     OW25154  10.282   2.824   4.916  0.3535  0.2306 -0.1902
 7716SOL    HW125155  10.299   2.744   4.866 -0.4767 -2.1318  3.0056
 7716SOL    HW225156  10.327   2.811   4.999 -0.9788  2.4834  0.9861
 7717SOL     OW25157   2.665   6.833   3.496 -0.1990 -0.2073  0.2080
 7717SOL    HW125158   2.712   6.785   3.565 -0.2235  0.8519  0.9791
 7717SOL    HW225159   2.692   6.789   3.415 -0.3759 -1.6497  0.8915
 7718SOL     OW25160   3.891   8.011   0.221 -0.2492  0.4717  0.6190
 7718SOL    HW125161   3.904   8.087   0.165 -2.2048  0.2507 -0.2179
 7718SOL    HW225162   3.797   7.994   0.217  0.2265 -2.7099 -0.2327
 7719SOL     OW25163   6.815   8.797   4.530  0.5685  0.2432 -0.0895
 7719SOL    HW125164   6.824   8.850   4.609  0.5965  1.6754 -1.0203
 7719SOL    HW225165   6.734   8.749   4.542  0.3342  0.7956  0.6146
 7720SOL     OW25166   7.030   8.887   2.131 -0.5036  0.4418 -0.2162
 7720SOL    HW125167   7.098   8.832   2.169 -1.1601  0.7029  1.4387
 7720SOL    HW225168   7.067   8.920   2.049  1.8802  1.6283  1.2425
 7721SOL     OW25169   5.498  11.019   7.696 -0.4125  0.0490 -0.0189
 7721SOL    HW125170   5.547  11.034   7.615  1.7485  0.3535  1.2555
 7721SOL    HW225171   5.514  10.928   7.718  2.0110  0.8076  1.8120
 7722SOL     OW25172   6.669   7.169   9.608  0.4161  0.3912 -0.7180
 7722SOL    HW125173   6.597   7.219   9.646  1.2975 -0.4215  2.3005
 7722SOL    HW225174   6.747   7.221   9.626  1.2416 -1.5053  1.6974
 7723SOL     OW25175   0.288   6.832   4.831  0.3233 -0.1663  0.2963
 7723SOL    HW125176   0.216   6.849   4.892 -0.9805  0.2836 -1.2619
 7723SOL    HW225177   0.316   6.743   4.851 -1.3294 -0.7162  0.3702
 7724SOL     OW25178   9.968   5.887  10.656  0.5052 -0.1094  0.0750
 7724SOL    HW125179   9.976   5.963  10.599 -0.0445 -0.1741 -0.0963
 7724SOL    HW225180  10.057   5.852  10.663  0.9269  1.0592  0.8717
 7725SOL     OW25181  10.713   0.858  10.785 -0.1661 -0.0069 -0.2862
 7725SOL    HW125182  10.790   0.900  10.822 -0.4954  0.6818 -0.3790
 7725SOL    HW225183  10.716   0.877  10.692 -0.2280 -0.3353 -0.3589
 7726SOL     OW25184   3.068   8.067   9.270  0.6668 -0.3359  0.1165
 7726SOL    HW125185   3.095   7.978   9.247  1.3338  0.1921 -1.2588
 7726SOL    HW225186   3.048   8.108   9.186  3.8383  1.8951  0.2786
 7727SOL     OW25187   6.792   4.722   3.641  0.0357 -0.6407 -0.8531
 7727SOL    HW125188   6.818   4.812   3.660 -2.2387 -0.2845  1.0391
 7727SOL    HW225189   6.795   4.715   3.545 -1.0463  1.8822 -1.1336
 7728SOL     OW25190   1.415   9.470   1.445 -0.7268 -0.3841 -0.4545
 7728SOL    HW125191   1.384   9.529   1.513  0.8053  0.8696 -0.7880
 7728SOL    HW225192   1.422   9.385   1.488 -0.4791  0.2379  0.7537
 7729SOL     OW25193   3.805   2.710   4.876 -0.2239  0.1052  0.0803
 7729SOL    HW125194   3.786   2.780   4.812  0.4317  1.0646  0.9014
 7729SOL    HW225195   3.724   2.701   4.925 -0.2277  0.5062  0.1561
 7730SOL     OW25196  10.664   0.100   8.748  0.1965  0.3322 -0.6006
 7730SOL    HW125197  10.641   0.067   8.661  3.2603 -1.6982 -0.8273
 7730SOL    HW225198  10.673   0.021   8.802 -0.3028  1.4583  1.2205
 7731SOL     OW25199   6.697   0.485   2.142  0.2094  0.3657  0.0913
 7731SOL    HW125200   6.708   0.457   2.233  3.1268  1.5685  0.2387
 7731SOL    HW225201   6.756   0.428   2.093  1.4021  1.9757 -0.4644
 7732SOL     OW25202   7.828   9.001   8.920  0.5233  0.8856 -0.7588
 7732SOL    HW125203   7.858   9.076   8.971 -1.1384  1.5451 -0.6799
 7732SOL    HW225204   7.840   9.028   8.829  1.3717  0.6118 -0.7362
 7733SOL     OW25205   3.482   8.339   2.133 -0.1904 -0.9250 -0.5538
 7733SOL    HW125206   3.498   8.257   2.086 -0.6943 -0.4699 -1.5533
 7733SOL    HW225207   3.566   8.384   2.133 -0.2724 -0.7469 -1.4193
 7734SOL     OW25208   4.467   9.869   1.103  0.3313  0.4730 -0.3414
 7734SOL    HW125209   4.523   9.874   1.025 -0.3939 -1.5790 -1.0651
 7734SOL    HW225210   4.378   9.872   1.069 -0.0679  2.6871  0.7187
 7735SOL     OW25211   6.873   2.482   4.121  0.3768  0.7539  0.2492
 7735SOL    HW125212   6.837   2.467   4.033  0.9689 -0.4714  0.1931
 7735SOL    HW225213   6.876   2.577   4.130  3.2545  1.0372 -2.2964
 7736SOL     OW25214   4.390   6.214   2.686 -0.4015 -0.0001 -0.7980
 7736SOL    HW125215   4.401   6.204   2.592 -2.1099 -1.6121 -0.8941
 7736SOL    HW225216   4.330   6.287   2.696 -1.1755 -0.5863 -1.0529
 7737SOL     OW25217   7.661   4.976   3.030 -0.4317 -0.4727  0.1700
 7737SOL    HW125218   7.643   5.008   2.942  2.1680 -0.5651 -0.4803
 7737SOL    HW225219   7.687   5.054   3.079  1.8591 -0.8760 -0.2746
 7738SOL     OW25220   5.378  10.588   9.335 -0.9412  0.5337 -0.3033
 7738SOL    HW125221   5.298  10.620   9.377  0.0558  0.6833  1.5534
 7738SOL    HW225222   5.400  10.656   9.271 -2.1054  0.6355 -0.6207
 7739SOL     OW25223   6.892  10.273  11.054  0.2266  0.0209  0.3059
 7739SOL    HW125224   6.854  10.214  10.989  0.0627 -1.9917  2.1150
 7739SOL    HW225225   6.978  10.294  11.019 -1.1484  2.0176 -2.2755
 7740SOL     OW25226   6.330   1.587   4.404 -0.1151  0.0520 -0.0635
 7740SOL    HW125227   6.348   1.674   4.368  0.3627 -0.3384 -0.7969
 7740SOL    HW225228   6.416   1.545   4.408 -0.3715 -0.4688  0.0495
 7741SOL     OW25229   3.536   2.102  10.214 -0.4318  0.4892 -0.3863
 7741SOL    HW125230   3.459   2.127  10.266  0.0989 -0.1147  0.7281
 7741SOL    HW225231   3.605   2.161  10.242  1.1078 -2.5593  3.0018
 7742SOL     OW25232   9.413   0.340   1.572  0.4006 -0.1946 -0.2902
 7742SOL    HW125233   9.441   0.352   1.663  1.6904  0.9545 -0.7994
 7742SOL    HW225234   9.328   0.382   1.567  0.2636 -0.3705  0.4100
 7743SOL     OW25235   1.522   0.217   1.660  0.4570  0.0954 -0.1372
 7743SOL    HW125236   1.480   0.210   1.746  1.3152  0.4895  0.3216
 7743SOL    HW225237   1.566   0.302   1.661 -0.1447  0.4412 -1.2553
 7744SOL     OW25238   4.924   5.255   5.115 -0.0773  0.4022  0.5532
 7744SOL    HW125239   5.005   5.232   5.162  0.8804  2.7484  0.2204
 7744SOL    HW225240   4.864   5.283   5.183 -0.2769 -0.4314  0.7251
 7745SOL     OW25241   3.525   2.435   3.532  0.3070 -0.0129  0.5614
 7745SOL    HW125242   3.605   2.434   3.585 -0.4458  0.4061  1.7260
 7745SOL    HW225243   3.454   2.418   3.594 -0.5421 -0.1519 -0.4182
 7746SOL     OW25244   9.627   5.884  10.291  0.0201  0.1534  0.5376
 7746SOL    HW125245   9.547   5.872  10.240 -0.2244 -0.1150  0.9879
 7746SOL    HW225246   9.631   5.979  10.306  0.1011  0.2398  0.0171
 7747SOL     OW25247   1.181   4.714   9.774 -0.2433 -0.0955  0.1760
 7747SOL    HW125248   1.192   4.633   9.823  1.0365 -1.2479 -1.8822
 7747SOL    HW225249   1.094   4.745   9.798 -0.4771 -1.6888  1.5575
 7748SOL     OW25250  10.928   0.163   2.638  0.0127 -0.4282 -0.3566
 7748SOL    HW125251  10.975   0.080   2.645  0.9265 -0.1200 -2.0676
 7748SOL    HW225252  10.899   0.166   2.547  2.3540  2.2690 -1.1650
 7749SOL     OW25253   8.222   8.226   6.724 -0.1524 -0.8626 -0.0232
 7749SOL    HW125254   8.147   8.177   6.691 -1.6968  0.7314  0.9315
 7749SOL    HW225255   8.216   8.311   6.681 -0.2202  0.0526  1.7001
 7750SOL     OW25256   3.887   3.728   7.417  0.2406 -0.7547 -0.4124
 7750SOL    HW125257   3.885   3.774   7.333  0.2037 -0.5544 -0.3008
 7750SOL    HW225258   3.941   3.650   7.400  1.3779 -0.0185 -0.2766
 7751SOL     OW25259   5.256   3.620   3.952 -0.1453 -0.0913 -0.2861
 7751SOL    HW125260   5.337   3.591   3.910 -1.8478  0.3112 -4.3032
 7751SOL    HW225261   5.264   3.591   4.043  4.2705 -0.4047 -0.5646
 7752SOL     OW25262   5.231   2.888   6.901  0.6095  0.2362 -0.4470
 7752SOL    HW125263   5.309   2.838   6.876  1.3875 -0.0762  2.3236
 7752SOL    HW225264   5.254   2.979   6.881  1.4692  0.0822 -0.2138
 7753SOL     OW25265   5.996   5.391   0.840 -0.6437  0.5753  0.1364
 7753SOL    HW125266   6.074   5.386   0.895  0.4117 -3.7016 -1.3435
 7753SOL    HW225267   5.949   5.309   0.856 -1.5662  0.2310 -3.4152
 7754SOL     OW25268   2.110   7.561   2.555  0.5653 -0.5825 -0.2168
 7754SOL    HW125269   2.188   7.517   2.590 -0.1006 -1.7274 -0.1457
 7754SOL    HW225270   2.144   7.642   2.517  1.7226 -0.8147  0.2798
 7755SOL     OW25271   1.657   9.292   4.933  0.3715  0.1076 -0.1159
 7755SOL    HW125272   1.741   9.318   4.896  0.2534 -2.0962 -2.1292
 7755SOL    HW225273   1.666   9.199   4.953 -1.6706 -0.2953 -0.7792
 7756SOL     OW25274   4.572   9.242   8.709  0.1607  0.5065  0.0052
 7756SOL    HW125275   4.582   9.249   8.614 -2.0285  0.5438 -0.2748
 7756SOL    HW225276   4.605   9.154   8.730  2.1991  1.1048 -0.5022
 7757SOL     OW25277   4.743   1.862   1.432  0.4458  0.7599 -0.3057
 7757SOL    HW125278   4.806   1.867   1.360  0.8956 -0.4513 -0.0161
 7757SOL    HW225279   4.782   1.915   1.502  0.3530  1.3413 -0.6830
 7758SOL     OW25280   7.326   5.036   2.301  0.2868  1.3631 -0.8460
 7758SOL    HW125281   7.257   5.095   2.331 -0.2522  0.9402 -1.2238
 7758SOL    HW225282   7.406   5.070   2.340  0.0791  2.7114 -1.5601
 7759SOL     OW25283  10.148   4.552   4.689 -0.0507 -0.4940 -0.1606
 7759SOL    HW125284  10.133   4.569   4.782 -0.0864  1.2224 -0.4477
 7759SOL    HW225285  10.136   4.637   4.647 -3.3368 -1.7962 -2.1910
 7760SOL     OW25286   4.407   4.396   3.593  0.0396  0.2313 -0.2470
 7760SOL    HW125287   4.416   4.488   3.567  0.0996 -0.2777 -2.1642
 7760SOL    HW225288   4.313   4.384   3.606  0.0942  0.7107  0.6678
 7761SOL     OW25289   1.579  10.780   3.953 -0.2224  0.6497 -0.6781
 7761SOL    HW125290   1.579  10.710   3.887  1.3013 -0.1964  0.1766
 7761SOL    HW225291   1.528  10.744   4.025  0.3289  0.5267 -0.3485
 7762SOL     OW25292   3.932   9.342   1.906  0.0676  0.0833 -0.8086
 7762SOL    HW125293   3.894   9.339   1.819  0.9474  1.5996 -1.2858
 7762SOL    HW225294   3.861   9.376   1.962 -0.4076 -0.6200 -0.9749
 7763SOL     OW25295  10.512   7.995   4.566 -0.0616  0.1776  0.8285
 7763SOL    HW125296  10.582   8.022   4.507 -1.7912  2.0573 -0.4719
 7763SOL    HW225297  10.445   7.958   4.509 -1.7189  1.9049  1.5361
 7764SOL     OW25298   4.762   2.577   7.752  0.4007  0.1656  0.4437
 7764SOL    HW125299   4.682   2.613   7.713 -0.2966  0.9774  2.4836
 7764SOL    HW225300   4.756   2.483   7.738  0.5908  0.4622 -2.0356
 7765SOL     OW25301   9.224   0.546   2.655  0.0216  0.0333  0.3282
 7765SOL    HW125302   9.249   0.459   2.686  1.4551  0.9374  1.8305
 7765SOL    HW225303   9.209   0.597   2.734 -1.6257  0.9694 -0.5258
 7766SOL     OW25304   4.222   4.775   6.967  0.1200 -0.1520  0.4711
 7766SOL    HW125305   4.181   4.820   7.041 -0.2875  1.0528 -0.4535
 7766SOL    HW225306   4.261   4.846   6.915  0.5484 -0.9883 -0.3799
 7767SOL     OW25307   7.461   0.968   5.541 -0.2087 -0.2646 -0.1146
 7767SOL    HW125308   7.483   1.060   5.526 -0.5700 -0.1962 -0.2431
 7767SOL    HW225309   7.541   0.930   5.577  0.1881 -0.0761 -0.7845
 7768SOL     OW25310  10.578   2.125   3.057  0.6276  0.2736 -0.2860
 7768SOL    HW125311  10.516   2.138   3.129  1.0235  0.0329  0.1042
 7768SOL    HW225312  10.528   2.145   2.978  0.4042  1.3264  0.1043
 7769SOL     OW25313   7.512   2.141   9.890 -0.6224  0.5798  0.3098
 7769SOL    HW125314   7.451   2.069   9.907 -2.2821  1.5595 -1.1940
 7769SOL    HW225315   7.538   2.171   9.977 -1.1106 -0.7979  0.9694
 7770SOL     OW25316   4.080   6.810   6.653  0.5122 -0.0812  0.1605
 7770SOL    HW125317   3.988   6.835   6.656 -0.1907 -2.4930  1.2985
 7770SOL    HW225318   4.127   6.891   6.636 -1.8410  1.1268 -1.0402
 7771SOL     OW25319  10.511   9.947   4.186 -0.8370  0.0961 -0.0860
 7771SOL    HW125320  10.538   9.881   4.251 -0.9922  1.0230  0.9539
 7771SOL    HW225321  10.540   9.911   4.102  0.1453 -0.7425  0.5846
 7772SOL     OW25322   1.959  10.131   4.412 -0.0637 -0.0035 -0.6114
 7772SOL    HW125323   1.884  10.185   4.388 -0.2382 -0.7712 -1.8793
 7772SOL    HW225324   2.035  10.188   4.398 -0.3177  0.3055 -0.7509
 7773SOL     OW25325   0.008   9.867   2.982 -0.5484 -0.0307  0.1351
 7773SOL    HW125326  -0.015   9.912   2.901 -0.3550  0.2150  0.2144
 7773SOL    HW225327   0.082   9.810   2.958 -1.0800 -0.6424 -0.0657
 7774SOL     OW25328   8.864   8.394   8.281 -0.0956 -0.2818  0.3526
 7774SOL    HW125329   8.903   8.365   8.199  1.5366 -2.8413  1.8709
 7774SOL    HW225330   8.933   8.443   8.325 -0.9749  1.1232  0.2226
 7775SOL     OW25331   2.152   9.150   0.177  1.1220  0.5573 -0.1928
 7775SOL    HW125332   2.178   9.071   0.224 -0.4741 -0.7994 -1.4467
 7775SOL    HW225333   2.219   9.214   0.198  2.2714 -1.0148  1.1814
 7776SOL     OW25334   0.833   7.216   5.562  0.4479  0.2208  0.3740
 7776SOL    HW125335   0.808   7.134   5.606 -1.2295  0.6574  0.3173
 7776SOL    HW225336   0.778   7.282   5.603  0.1658  0.9474 -1.1175
 7777SOL     OW25337   5.278   1.765   0.971  0.4623 -0.5312  0.6366
 7777SOL    HW125338   5.284   1.732   1.061  0.8274  0.3871  0.9530
 7777SOL    HW225339   5.227   1.846   0.978  1.6287  0.2685  0.2195
 7778SOL     OW25340   2.672   8.993   4.443 -0.4682 -0.5773 -0.5505
 7778SOL    HW125341   2.745   9.017   4.385 -2.3318 -0.3241 -2.9600
 7778SOL    HW225342   2.703   9.014   4.531  2.0377  0.2833 -1.5521
 7779SOL     OW25343   8.795   3.622  10.082  0.5883 -0.3199 -0.5442
 7779SOL    HW125344   8.861   3.577  10.030  1.5086  0.1874  0.1610
 7779SOL    HW225345   8.793   3.711  10.046 -0.3640 -0.5725 -1.1480
 7780SOL     OW25346   0.789  10.265   8.770  0.4884 -0.0212  0.4798
 7780SOL    HW125347   0.839  10.280   8.851  0.9498  0.5562  0.0967
 7780SOL    HW225348   0.840  10.310   8.702 -0.8590  1.1142  0.1765
 7781SOL     OW25349   1.481   1.956   2.455  0.0108 -0.3313  0.1088
 7781SOL    HW125350   1.554   1.967   2.393  0.3524  0.4683  0.6353
 7781SOL    HW225351   1.522   1.922   2.534 -0.4016 -1.1917 -0.0381
 7782SOL     OW25352   6.029   9.377   2.614  0.3902  0.1977 -0.3731
 7782SOL    HW125353   5.981   9.437   2.557 -0.0411  0.6697  0.4665
 7782SOL    HW225354   6.083   9.433   2.669 -2.1052  0.1202  2.3932
 7783SOL     OW25355   7.095   5.844   1.737 -0.1391 -0.2397  0.6493
 7783SOL    HW125356   7.005   5.837   1.769  0.2164 -2.5126  1.3674
 7783SOL    HW225357   7.091   5.906   1.665 -2.3247 -0.4803  0.5181
 7784SOL     OW25358   2.553   8.079  10.673  0.1676  0.9849 -0.1339
 7784SOL    HW125359   2.537   8.141  10.601  0.2315  1.2695  0.0943
 7784SOL    HW225360   2.467   8.040  10.690  0.6422 -1.2224 -2.2744
 7785SOL     OW25361   5.953   4.679   9.004  0.6881  0.1270 -0.4293
 7785SOL    HW125362   5.936   4.764   8.963 -1.7093  0.4213  0.9783
 7785SOL    HW225363   5.917   4.616   8.942 -3.2926  0.5899  1.0951
 7786SOL     OW25364   1.426   3.940   7.388 -0.1975  0.7094  0.5943
 7786SOL    HW125365   1.369   3.890   7.330  2.4579  1.1786 -2.6803
 7786SOL    HW225366   1.388   4.028   7.390 -1.6479  0.1076  1.6825
 7787SOL     OW25367   2.694   8.621   9.195 -0.8838 -0.3292 -0.4932
 7787SOL    HW125368   2.651   8.537   9.215  0.7433 -2.1561 -3.7608
 7787SOL    HW225369   2.787   8.605   9.215 -0.9820  2.3187  2.9759
 7788SOL     OW25370   3.860   7.970   4.008 -0.1712  0.1085 -1.0715
 7788SOL    HW125371   3.869   7.921   3.927 -1.0254 -0.7130 -0.6897
 7788SOL    HW225372   3.852   7.903   4.076  0.1640  0.7821 -0.3520
 7789SOL     OW25373   4.245   4.933   6.034 -0.3872 -0.6975 -0.1018
 7789SOL    HW125374   4.297   5.012   6.044 -1.1235 -0.0574 -1.0560
 7789SOL    HW225375   4.288   4.884   5.964 -1.0347 -0.1729 -0.8837
 7790SOL     OW25376   2.085   4.664   5.294  0.1108 -0.0449  0.1207
 7790SOL    HW125377   2.168   4.672   5.342  0.2152 -0.8093  0.0857
 7790SOL    HW225378   2.091   4.731   5.225  0.0847  0.8599  0.9809
 7791SOL     OW25379   3.061   6.551   4.551  0.0517 -0.0518  0.0013
 7791SOL    HW125380   2.979   6.581   4.590 -0.9544 -0.7744 -1.5216
 7791SOL    HW225381   3.051   6.457   4.541 -0.4278  0.2651 -3.4756
 7792SOL     OW25382   7.104   2.225   9.863 -0.0006  0.2764 -0.2259
 7792SOL    HW125383   7.064   2.222   9.950  1.2015  0.0181  0.3301
 7792SOL    HW225384   7.075   2.309   9.827  0.5363  0.9882  0.9448
 7793SOL     OW25385   6.008   1.939   4.206 -0.3704  0.0824  0.1286
 7793SOL    HW125386   6.032   1.849   4.227  0.5643  0.1658 -0.4990
 7793SOL    HW225387   6.052   1.957   4.123 -1.7913  0.6260 -0.5492
 7794SOL     OW25388   7.861   8.069   4.113  0.0976  0.2127  0.0120
 7794SOL    HW125389   7.948   8.107   4.100  0.8349 -0.8008  1.5977
 7794SOL    HW225390   7.843   8.021   4.032  0.3404  1.6154 -0.9147
 7795SOL     OW25391   4.341   0.622   1.191  0.1351  0.1140  0.1789
 7795SOL    HW125392   4.371   0.700   1.238 -1.5993  0.8898  0.1048
 7795SOL    HW225393   4.415   0.562   1.193  1.1844  1.3810  1.1092
 7796SOL     OW25394   8.864   8.523   9.772 -0.1332  0.1067 -0.3483
 7796SOL    HW125395   8.866   8.468   9.693  2.2210  0.2433 -0.4557
 7796SOL    HW225396   8.868   8.612   9.739  0.8111  0.1661 -0.1124
 7797SOL     OW25397   5.976   7.832   5.619  0.2494 -0.1499 -0.7332
 7797SOL    HW125398   5.898   7.865   5.663  0.8082 -1.1296  1.1247
 7797SOL    HW225399   5.979   7.878   5.536 -1.9207  0.4069 -0.5484
 7798SOL     OW25400  10.946   2.456  10.454 -0.3472 -0.7447  0.1932
 7798SOL    HW125401  10.949   2.466  10.549  0.6381  0.0555  0.0998
 7798SOL    HW225402  10.947   2.361  10.440 -0.9497 -0.8747  0.9873
 7799SOL     OW25403  10.516   3.381   2.837 -1.0329 -0.7785 -0.1291
 7799SOL    HW125404  10.471   3.368   2.920  0.1954 -1.1843  0.5008
 7799SOL    HW225405  10.596   3.428   2.860 -0.9930 -0.2924 -1.1771
 7800SOL     OW25406   0.273   8.350   2.486 -0.5672  0.9778 -0.0617
 7800SOL    HW125407   0.353   8.339   2.433  0.2423  0.8905  1.1366
 7800SOL    HW225408   0.301   8.328   2.575 -1.6151  2.2587  0.6009
 7801SOL     OW25409  10.281   3.844   2.173  0.5707 -0.2187  0.0514
 7801SOL    HW125410  10.323   3.821   2.090 -1.1157  1.8057 -1.4907
 7801SOL    HW225411  10.194   3.875   2.147 -0.4815 -0.6943  2.7322
 7802SOL     OW25412   0.830  10.373   5.872 -0.4203 -0.1354 -0.2578
 7802SOL    HW125413   0.917  10.335   5.883 -0.4608  0.5521  4.4887
 7802SOL    HW225414   0.771  10.304   5.902 -1.2734  0.4476 -0.5658
 7803SOL     OW25415   6.348   0.119   8.881 -0.0809  0.1342  0.1223
 7803SOL    HW125416   6.396   0.199   8.902  0.8690 -0.3825 -0.0044
 7803SOL    HW225417   6.266   0.149   8.843  0.0869  1.0491  0.4590
 7804SOL     OW25418   8.715  10.125   8.340 -0.4385 -0.5042 -0.0378
 7804SOL    HW125419   8.700  10.198   8.281  0.0499  0.2966  0.8142
 7804SOL    HW225420   8.628  10.085   8.350 -0.7551  0.0923 -0.3299
 7805SOL     OW25421   5.808   3.010   2.939  0.1642 -0.0031 -0.6872
 7805SOL    HW125422   5.773   2.989   3.025  0.2282  2.7866  0.1058
 7805SOL    HW225423   5.735   3.053   2.893  0.9871  1.2141 -0.8967
 7806SOL     OW25424   6.930   6.970   4.282 -0.0744 -0.2383 -0.0732
 7806SOL    HW125425   6.908   6.940   4.370 -1.5327 -1.7449 -0.8962
 7806SOL    HW225426   6.896   7.060   4.279  1.3446  0.3975  1.3455
 7807SOL     OW25427   3.379   5.978   0.094  0.4548 -0.1131 -0.6512
 7807SOL    HW125428   3.322   5.920   0.144  0.5253  0.4196  0.0496
 7807SOL    HW225429   3.383   5.937   0.007  0.7604 -1.3268 -0.0907
 7808SOL     OW25430  11.061   0.978   6.266 -0.3957  0.0577  0.2427
 7808SOL    HW125431  11.128   1.046   6.257 -1.0332  0.7943  0.9902
 7808SOL    HW225432  11.098   0.916   6.329 -0.3126  0.3281  0.4595
 7809SOL     OW25433  10.338   9.229   5.236  0.0254 -0.3580  0.1470
 7809SOL    HW125434  10.252   9.270   5.250  0.4020  1.5870 -2.3811
 7809SOL    HW225435  10.401   9.294   5.266  0.6573 -1.5454  1.4701
 7810SOL     OW25436   6.674  10.406  10.973  0.1351 -0.4488  0.0019
 7810SOL    HW125437   6.616  10.351  11.025  1.5122  0.6932  2.9177
 7810SOL    HW225438   6.761  10.394  11.010  0.7132  2.6431 -0.0445
 7811SOL     OW25439   0.045   1.237   8.309 -0.6118 -0.0728  0.0263
 7811SOL    HW125440  -0.044   1.214   8.281 -0.2113  0.9205 -2.3053
 7811SOL    HW225441   0.102   1.188   8.250  0.2821  2.8110 -1.7091
 7812SOL     OW25442   1.195   8.750   3.220  0.0622  0.6423 -0.4745
 7812SOL    HW125443   1.226   8.829   3.264 -1.2814  0.6128  0.5543
 7812SOL    HW225444   1.140   8.706   3.284  1.4806 -1.6379 -0.6857
 7813SOL     OW25445   8.192   8.859   7.714  0.1020  0.5321  0.2098
 7813SOL    HW125446   8.223   8.788   7.658  0.8131 -0.4917  1.8265
 7813SOL    HW225447   8.109   8.827   7.750  0.1001  0.8027  0.4504
 7814SOL     OW25448   0.988   9.845   4.675  0.0109 -0.0608 -0.3369
 7814SOL    HW125449   1.006   9.785   4.748  3.0026  1.4367  0.3176
 7814SOL    HW225450   0.987   9.932   4.716  0.5878  0.7202 -1.9243
 7815SOL     OW25451   3.653   5.868   0.088 -0.6978 -0.2731 -0.2937
 7815SOL    HW125452   3.684   5.795   0.142 -1.1988  1.1673  2.1163
 7815SOL    HW225453   3.557   5.864   0.095 -0.7797  2.5644  2.9856
 7816SOL     OW25454   7.789   8.712   9.968 -0.1867 -0.5167 -0.4187
 7816SOL    HW125455   7.798   8.619   9.989  0.5304 -0.7050 -1.4579
 7816SOL    HW225456   7.843   8.724   9.890 -1.7868  0.3703 -1.4385
 7817SOL     OW25457   0.679   9.868   0.200 -0.3511  0.0541 -0.2158
 7817SOL    HW125458   0.617   9.937   0.221  0.4181  0.8985 -0.6560
 7817SOL    HW225459   0.631   9.810   0.141 -1.5424 -0.7204  1.4360
 7818SOL     OW25460   1.628  10.753   0.572  0.3146 -0.2684  0.0849
 7818SOL    HW125461   1.682  10.828   0.548 -1.1034  1.0710  0.9789
 7818SOL    HW225462   1.681  10.677   0.546  1.2237  1.0012 -2.0672
 7819SOL     OW25463   1.314   6.035   3.322 -0.2533 -0.2328 -0.6615
 7819SOL    HW125464   1.305   5.940   3.318  1.6414 -0.5750  1.2616
 7819SOL    HW225465   1.261   6.062   3.397  1.7644 -0.2814  0.8780
 7820SOL     OW25466   5.067   1.882   5.285 -1.1105  0.2995 -0.2342
 7820SOL    HW125467   5.055   1.790   5.262 -1.1319 -0.4458  2.4619
 7820SOL    HW225468   5.091   1.924   5.202  0.0358 -2.3017 -1.3351
 7821SOL     OW25469   3.696   3.807   1.267 -0.1463 -0.5059  0.4869
 7821SOL    HW125470   3.739   3.877   1.218 -2.0215  0.2645 -0.1543
 7821SOL    HW225471   3.676   3.846   1.352 -0.4181 -0.5469  0.4424
 7822SOL     OW25472   8.232   9.308   7.595  0.3174  0.2521 -0.3532
 7822SOL    HW125473   8.294   9.302   7.522 -0.1594  0.0422 -0.7450
 7822SOL    HW225474   8.172   9.234   7.582 -0.6924  1.0985 -0.6144
 7823SOL     OW25475   9.255   2.852   7.101  0.2959 -0.2154  0.0235
 7823SOL    HW125476   9.218   2.814   7.180  0.2559 -0.0525  0.0824
 7823SOL    HW225477   9.183   2.848   7.037  0.1310  0.2251  0.1771
 7824SOL     OW25478   6.311   4.432   0.430 -0.0623 -0.0103 -0.0697
 7824SOL    HW125479   6.380   4.367   0.420  0.1899  0.2437  0.0219
 7824SOL    HW225480   6.292   4.460   0.340  0.1875  0.1651 -0.0676
 7825SOL     OW25481   6.071   6.958   9.198  0.0747 -0.4932  0.4549
 7825SOL    HW125482   5.984   6.997   9.204  0.8339  1.1173  2.0072
 7825SOL    HW225483   6.091   6.959   9.104 -0.8599  0.8409  0.2319
 7826SOL     OW25484   0.005  10.735   7.647  0.2417  0.3076  0.6108
 7826SOL    HW125485   0.022  10.800   7.716 -0.6650  1.0411  0.1746
 7826SOL    HW225486   0.091  10.700   7.625  0.6838  0.9461  1.2722
 7827SOL     OW25487   6.549   3.586   0.831  0.3893 -0.0875 -0.3396
 7827SOL    HW125488   6.542   3.538   0.913 -1.3635 -0.9857 -0.9686
 7827SOL    HW225489   6.561   3.519   0.764  0.8207  0.5640 -0.9378
 7828SOL     OW25490   6.808   1.183   7.250 -0.1717 -0.7032  0.4733
 7828SOL    HW125491   6.746   1.224   7.190  0.2026 -1.2642 -0.3042
 7828SOL    HW225492   6.791   1.089   7.243  3.1428 -1.2880 -2.5821
 7829SOL     OW25493   0.775   5.005   8.881 -0.1166  0.0543  0.5731
 7829SOL    HW125494   0.826   4.924   8.888 -0.0778 -0.0288 -0.4697
 7829SOL    HW225495   0.689   4.976   8.851 -0.2958  0.3426  0.8070
 7830SOL     OW25496  10.265   1.354   3.610 -0.2095  0.2147  0.1107
 7830SOL    HW125497  10.245   1.308   3.528 -0.3229 -0.3440  0.4541
 7830SOL    HW225498  10.213   1.435   3.605  0.6561  0.7342 -0.8854
 7831SOL     OW25499   9.763   1.746   2.016 -0.3758  0.5854  0.2785
 7831SOL    HW125500   9.796   1.727   2.104 -0.0877  1.7053  0.4299
 7831SOL    HW225501   9.830   1.802   1.977 -1.5383  1.9490  0.1653
 7832SOL     OW25502   7.134   9.138  10.544 -0.1723  0.5748 -0.0301
 7832SOL    HW125503   7.135   9.108  10.453 -1.4318 -0.0333  0.1423
 7832SOL    HW225504   7.108   9.229  10.539 -0.2983  0.5263 -0.2821
 7833SOL     OW25505  10.286   8.128   9.758 -0.0205 -0.4945 -0.0634
 7833SOL    HW125506  10.259   8.036   9.763  0.0483 -0.4536  1.3011
 7833SOL    HW225507  10.242   8.161   9.679 -0.5851 -1.5119 -0.2002
 7834SOL     OW25508   2.102   2.552   9.091 -0.3489 -0.1749  0.1135
 7834SOL    HW125509   2.124   2.558   9.184 -0.8573  0.5754  0.2014
 7834SOL    HW225510   2.122   2.639   9.056 -2.8976  0.5230  0.1621
 7835SOL     OW25511   7.852   1.453   4.971  0.2239 -0.2524 -0.3477
 7835SOL    HW125512   7.763   1.417   4.967  0.0653  0.2365 -1.8677
 7835SOL    HW225513   7.900   1.405   4.904  0.8278  0.2294 -0.2646
 7836SOL     OW25514   1.389   9.497   5.118 -0.0894 -0.2779  0.0323
 7836SOL    HW125515   1.461   9.466   5.172 -0.0999  0.1427  0.2949
 7836SOL    HW225516   1.429   9.559   5.057 -0.5316  1.7857  1.7027
 7837SOL     OW25517   6.437   1.711   5.115  0.1329  0.3508 -0.4787
 7837SOL    HW125518   6.513   1.735   5.168  1.0361 -0.4752 -1.3833
 7837SOL    HW225519   6.415   1.792   5.068 -0.0020  0.7865  0.3086
 7838SOL     OW25520   3.011   1.891   7.949 -0.1437 -0.6046 -0.1576
 7838SOL    HW125521   2.981   1.912   7.861 -0.9908 -1.9373 -0.2102
 7838SOL    HW225522   2.933   1.901   8.004  0.1287 -0.7758  0.2642
 7839SOL     OW25523   9.639   0.074  10.959 -0.2811 -0.2565  0.6066
 7839SOL    HW125524   9.550   0.080  10.993 -1.1125  0.3259 -1.5221
 7839SOL    HW225525   9.631   0.022  10.879  1.2321  0.1521  0.1535
 7840SOL     OW25526   1.399   4.057   7.904 -0.4089  0.4288  0.3217
 7840SOL    HW125527   1.372   4.061   7.996  0.0862  2.6319  0.4378
 7840SOL    HW225528   1.364   4.138   7.866  0.7849  0.3482 -1.0254
 7841SOL     OW25529   3.817   7.857   3.745  0.3842 -0.0880 -0.1904
 7841SOL    HW125530   3.848   7.921   3.681 -1.8000  1.4872  0.1950
 7841SOL    HW225531   3.725   7.878   3.757  0.2264 -1.6574  1.9603
 7842SOL     OW25532   4.332   5.326   4.498 -0.0900 -0.0252 -0.1877
 7842SOL    HW125533   4.377   5.403   4.464 -0.9114  0.8087  0.5730
 7842SOL    HW225534   4.393   5.286   4.560  0.7710 -0.6343 -1.3810
 7843SOL     OW25535   4.458   3.464   4.326 -0.1593  0.8590  0.6128
 7843SOL    HW125536   4.400   3.400   4.284  2.0645  0.1544 -1.6804
 7843SOL    HW225537   4.435   3.547   4.285  0.4792  0.5480 -0.4408
 7844SOL     OW25538   8.677   4.165   3.328  0.1662  0.2199 -0.4259
 7844SOL    HW125539   8.692   4.249   3.284 -0.1677  0.9500  0.8045
 7844SOL    HW225540   8.594   4.176   3.373 -0.4304 -1.1800 -1.1251
 7845SOL     OW25541   1.094   2.451   1.899  0.8484 -0.1759 -0.0311
 7845SOL    HW125542   1.127   2.541   1.896  2.0088 -0.5087  1.7723
 7845SOL    HW225543   1.003   2.459   1.869  1.3888  1.3307 -1.4648
 7846SOL     OW25544   5.611   3.870   0.604 -0.4561 -0.2717 -0.1663
 7846SOL    HW125545   5.703   3.857   0.583 -0.5382  1.7111 -2.2848
 7846SOL    HW225546   5.599   3.832   0.691  2.2162 -1.0115 -0.0505
 7847SOL     OW25547   1.081   0.211   5.596 -0.2189 -0.4799  0.2432
 7847SOL    HW125548   1.066   0.141   5.532  2.6659  0.9443 -2.2700
 7847SOL    HW225549   1.156   0.181   5.648 -0.5765 -0.3125  0.8637
 7848SOL     OW25550   0.563   1.084   7.780  0.4319 -0.3517  0.3935
 7848SOL    HW125551   0.502   1.156   7.795  2.6330  1.6315  0.3963
 7848SOL    HW225552   0.536   1.017   7.842 -1.3442  0.6907  0.8196
 7849SOL     OW25553   7.039   0.831   2.724  0.2559  0.2820  0.0284
 7849SOL    HW125554   6.982   0.780   2.781  0.5702 -1.1809 -0.9176
 7849SOL    HW225555   7.021   0.922   2.747 -1.6325 -0.1787  0.5223
 7850SOL     OW25556   4.224   2.200   2.083 -0.5767 -0.4317 -0.5586
 7850SOL    HW125557   4.281   2.149   2.026  0.2731  0.5805 -0.6362
 7850SOL    HW225558   4.235   2.159   2.169 -0.8096 -1.1015 -0.8388
 7851SOL     OW25559  10.762  10.410   9.986  0.3204 -0.2763 -0.1158
 7851SOL    HW125560  10.705  10.425  10.061 -0.6907 -0.1559 -0.8882
 7851SOL    HW225561  10.779  10.316   9.988 -0.1743 -0.3666 -0.0671
 7852SOL     OW25562   6.235   2.099   9.980  1.2274  0.9919 -0.0564
 7852SOL    HW125563   6.272   2.162  10.042  1.0003  1.3097 -0.2352
 7852SOL    HW225564   6.146   2.083  10.014  1.7572 -0.3155  0.7724
 7853SOL     OW25565   8.352   0.045   1.239  0.3519 -0.1408 -0.5818
 7853SOL    HW125566   8.381   0.001   1.319  0.2803  0.2257 -0.3502
 7853SOL    HW225567   8.354   0.138   1.261 -1.5717 -0.1042 -0.3399
 7854SOL     OW25568   0.532   9.022  10.648  0.2196  0.3923  0.2021
 7854SOL    HW125569   0.540   9.082  10.722  0.8430  1.0556 -0.3815
 7854SOL    HW225570   0.440   8.996  10.648  0.2354  0.2876  1.2731
 7855SOL     OW25571   2.296   3.100   9.531 -0.2545  0.0736 -0.6791
 7855SOL    HW125572   2.304   3.188   9.494  1.0216 -0.2109 -1.1451
 7855SOL    HW225573   2.204   3.092   9.554 -0.1603  2.0328  0.6527
 7856SOL     OW25574   4.953   8.327   9.886 -0.5355  0.0026 -0.1978
 7856SOL    HW125575   4.907   8.393   9.833 -1.0317  0.8248  1.1952
 7856SOL    HW225576   4.908   8.245   9.866  0.1492  0.0221 -2.0411
 7857SOL     OW25577   3.269  10.382   1.759 -0.0228 -0.0949 -0.3664
 7857SOL    HW125578   3.358  10.349   1.758 -0.6396 -1.9185  0.8139
 7857SOL    HW225579   3.214  10.304   1.767 -1.6075  1.1206  1.5567
 7858SOL     OW25580  10.827   8.844   5.269  0.3580  0.8805  0.3631
 7858SOL    HW125581  10.804   8.807   5.354  1.2033  2.8155  1.4931
 7858SOL    HW225582  10.884   8.778   5.229  0.3921  0.1843  1.5131
 7859SOL     OW25583   0.092   6.095   2.426 -0.4269 -0.1722  0.1193
 7859SOL    HW125584   0.024   6.029   2.408  0.0687 -0.6839  0.0711
 7859SOL    HW225585   0.066   6.171   2.374 -0.1478 -0.9064 -1.1472
 7860SOL     OW25586   3.142   9.785   1.581  0.1374  0.1118 -0.0029
 7860SOL    HW125587   3.233   9.756   1.594  0.1079  0.2215  0.4841
 7860SOL    HW225588   3.113   9.810   1.669  0.5030  2.6497 -0.5523
 7861SOL     OW25589   9.675   4.767  10.917  0.0861  0.0968  0.1932
 7861SOL    HW125590   9.742   4.790  10.853  1.4741  2.5922  2.2996
 7861SOL    HW225591   9.645   4.851  10.952 -0.1448 -1.0802  3.1812
 7862SOL     OW25592   8.420   9.397   9.845  0.0042  1.2199 -0.6044
 7862SOL    HW125593   8.386   9.483   9.818 -0.7379  0.6757 -1.5052
 7862SOL    HW225594   8.440   9.353   9.762  1.1614  0.8255 -0.1262
 7863SOL     OW25595  10.587   6.144   8.907  0.0614 -0.7050  0.4917
 7863SOL    HW125596  10.529   6.111   8.838 -2.2832  0.9121  1.5348
 7863SOL    HW225597  10.611   6.066   8.957  0.7906 -1.7346 -1.3707
 7864SOL     OW25598   7.066   5.620   7.694 -0.1736  0.4262  0.3166
 7864SOL    HW125599   7.129   5.686   7.667 -0.6088  0.6123 -0.2725
 7864SOL    HW225600   7.106   5.536   7.669  0.5161  0.4375  1.3456
 7865SOL     OW25601   1.661   6.877   1.519  0.7704  0.0966  0.1306
 7865SOL    HW125602   1.727   6.808   1.531  1.2398  0.6149  0.5649
 7865SOL    HW225603   1.687   6.922   1.439 -1.1638 -2.0134 -1.8553
 7866SOL     OW25604  10.173   5.642   6.804  0.3972 -0.1602 -0.5018
 7866SOL    HW125605  10.247   5.631   6.862  1.2565  0.6167 -1.4089
 7866SOL    HW225606  10.202   5.604   6.721 -0.8911 -1.4801 -0.3788
 7867SOL     OW25607   5.641   7.045  10.708 -0.0390  0.2240 -0.6667
 7867SOL    HW125608   5.729   7.065  10.677  1.6099 -4.8608 -0.0455
 7867SOL    HW225609   5.598   7.004  10.633 -0.9901  0.3019 -0.1781
 7868SOL     OW25610   5.350   4.282   9.388 -1.4982  0.4378  0.0634
 7868SOL    HW125611   5.300   4.345   9.439 -1.0309 -0.2314  1.3702
 7868SOL    HW225612   5.433   4.273   9.434 -0.2120  1.3151 -1.8996
 7869SOL     OW25613   3.975   9.801   5.217  0.0742  0.3879  0.4145
 7869SOL    HW125614   3.942   9.840   5.298  0.6233  0.2509  0.7060
 7869SOL    HW225615   3.903   9.744   5.187 -0.7979  1.7134 -0.1050
 7870SOL     OW25616   6.705   1.633   0.779  0.2725 -0.1987  0.0590
 7870SOL    HW125617   6.732   1.542   0.792  0.1737 -0.1254  0.8019
 7870SOL    HW225618   6.631   1.628   0.718  0.0705 -0.6410  0.3412
 7871SOL     OW25619   5.156   8.952   0.418  0.2082  0.1693 -0.0125
 7871SOL    HW125620   5.222   8.918   0.357  0.0255 -0.1480 -0.0392
 7871SOL    HW225621   5.176   9.045   0.427  1.1069 -0.0545  0.5296
 7872SOL     OW25622   3.045   1.898   2.531  0.4653 -0.9207  0.4906
 7872SOL    HW125623   3.053   1.863   2.619  1.4983  0.1469  0.8388
 7872SOL    HW225624   2.998   1.830   2.482  0.8184 -1.9738  1.5842
 7873SOL     OW25625   2.618   5.534   0.171  0.5061  0.5687 -0.1168
 7873SOL    HW125626   2.539   5.585   0.187  0.2271 -0.6279  3.1206
 7873SOL    HW225627   2.687   5.600   0.159  0.0624  1.8955  3.3649
 7874SOL     OW25628   4.445   2.943   5.982 -0.4682 -0.1059 -0.2931
 7874SOL    HW125629   4.469   2.859   5.943 -0.1139 -0.1938  0.0992
 7874SOL    HW225630   4.368   2.972   5.933  0.0294 -0.1597 -1.1157
 7875SOL     OW25631   8.399   0.173   6.790  0.0970  0.2020  0.0753
 7875SOL    HW125632   8.335   0.103   6.775  1.6327 -1.3460  0.5547
 7875SOL    HW225633   8.360   0.227   6.859 -0.9781 -0.3091 -0.1129
 7876SOL     OW25634   4.775   9.526   2.160  0.1322  0.2529  0.0090
 7876SOL    HW125635   4.846   9.531   2.096 -2.2495  1.0840 -2.8254
 7876SOL    HW225636   4.749   9.434   2.161 -0.2373  0.3336 -0.8217
 7877SOL     OW25637   4.155   3.745   1.007 -0.1826 -0.2245 -0.3920
 7877SOL    HW125638   4.067   3.723   1.037 -0.9126  0.7862 -1.7199
 7877SOL    HW225639   4.174   3.682   0.938  0.0779 -0.3469 -0.2100
 7878SOL     OW25640   0.831   6.864   1.859 -0.2910  0.1402 -0.1290
 7878SOL    HW125641   0.889   6.934   1.829  0.5649  0.4709  2.0971
 7878SOL    HW225642   0.757   6.910   1.898  0.4576 -0.1437  1.6869
 7879SOL     OW25643   6.686   6.625  10.643 -0.4046 -0.1209  0.2860
 7879SOL    HW125644   6.738   6.657  10.716 -0.9438 -0.2566  0.7375
 7879SOL    HW225645   6.624   6.696  10.624 -0.4474 -0.1949  0.1487
 7880SOL     OW25646   4.010   2.282   4.576  0.0426  0.0160  0.0827
 7880SOL    HW125647   3.976   2.334   4.648 -0.3998  0.4097 -0.4043
 7880SOL    HW225648   3.964   2.315   4.499  0.8233 -0.1108 -0.4411
 7881SOL     OW25649   1.085   2.928   2.032 -0.3886  0.6469 -1.1498
 7881SOL    HW125650   0.999   2.891   2.052  0.8237 -1.6703  0.2143
 7881SOL    HW225651   1.127   2.864   1.975  1.6674 -0.0600  1.0040
 7882SOL     OW25652   4.730   1.239   4.908  0.1944  0.1566 -0.3152
 7882SOL    HW125653   4.678   1.318   4.924 -2.0198 -1.0614 -1.0333
 7882SOL    HW225654   4.818   1.272   4.887 -0.2392  2.3129  0.9851
 7883SOL     OW25655   1.205  10.892   0.606  0.0939  0.0754 -0.6515
 7883SOL    HW125656   1.129  10.869   0.659  2.2177 -1.8001  1.9018
 7883SOL    HW225657   1.172  10.895   0.516 -2.9276 -0.6504  0.3060
 7884SOL     OW25658   2.839   2.960  10.988 -0.3864  0.0854 -0.2746
 7884SOL    HW125659   2.769   2.900  11.013  1.9672 -1.5500  2.9367
 7884SOL    HW225660   2.873   2.924  10.906  0.7474 -2.9435  1.3896
 7885SOL     OW25661   4.503   0.886   1.817 -0.0412  0.7341  0.5865
 7885SOL    HW125662   4.454   0.967   1.831 -0.8783  0.2699  0.3884
 7885SOL    HW225663   4.528   0.857   1.905 -0.5102  0.7398  0.7243
 7886SOL     OW25664   2.634   0.629   6.433  0.0398 -0.1853 -0.2587
 7886SOL    HW125665   2.693   0.554   6.425  0.1650 -0.0464 -0.6849
 7886SOL    HW225666   2.646   0.677   6.351 -0.0268  0.3096  0.0184
 7887SOL     OW25667   2.826   1.925   0.501 -0.6074 -1.0972  0.3697
 7887SOL    HW125668   2.815   1.961   0.412 -1.4424 -0.3288  0.7733
 7887SOL    HW225669   2.741   1.886   0.522 -1.8434  2.2458  2.3488
 7888SOL     OW25670   8.155   8.834   6.192 -0.2222 -0.1299  0.7723
 7888SOL    HW125671   8.183   8.743   6.201  2.1883  0.3981 -0.4355
 7888SOL    HW225672   8.235   8.881   6.168 -1.0412  2.5891  2.8688
 7889SOL     OW25673   8.601  10.027   4.989 -0.8427 -0.5283  0.4064
 7889SOL    HW125674   8.506  10.011   4.985 -1.4581  2.3894 -3.7284
 7889SOL    HW225675   8.611  10.093   5.058 -1.6257 -1.5503  1.5312
 7890SOL     OW25676   8.494   8.569   7.937 -0.3301  0.1774 -0.1777
 7890SOL    HW125677   8.479   8.597   7.846 -2.3256 -0.1600  0.0010
 7890SOL    HW225678   8.577   8.522   7.934 -0.1420  0.5409 -1.7432
 7891SOL     OW25679   4.845  11.093   5.841  0.6148 -0.8770  0.1010
 7891SOL    HW125680   4.759  11.111   5.879  0.3416 -0.9306 -0.4795
 7891SOL    HW225681   4.865  11.171   5.789  1.4564 -0.3604  1.1708
 7892SOL     OW25682   9.132  10.487   3.743 -0.3015 -0.3712  0.2489
 7892SOL    HW125683   9.083  10.549   3.691  0.5655  1.8087  1.8594
 7892SOL    HW225684   9.070  10.455   3.809 -1.0828 -2.2573 -1.3105
 7893SOL     OW25685   5.561   7.264   0.503 -0.3962 -0.1263 -0.9105
 7893SOL    HW125686   5.636   7.280   0.445  1.1505 -1.2522  0.6682
 7893SOL    HW225687   5.506   7.203   0.454  0.5393 -0.5397 -1.4784
 7894SOL     OW25688  10.777   7.610   9.654  0.1158 -0.5199 -0.4207
 7894SOL    HW125689  10.805   7.538   9.597  0.5836 -2.0622  1.6022
 7894SOL    HW225690  10.682   7.601   9.659  0.1801 -1.0673 -0.1078
 7895SOL     OW25691   4.849   4.955   4.288 -0.1565 -0.0814 -0.0067
 7895SOL    HW125692   4.822   5.042   4.259 -0.2682  0.4477  1.5464
 7895SOL    HW225693   4.828   4.897   4.216 -0.5625  1.1102 -0.8754
 7896SOL     OW25694   2.409  10.660   6.750  0.2667 -0.4530 -0.0317
 7896SOL    HW125695   2.479  10.601   6.719  0.6049 -0.1639  0.1817
 7896SOL    HW225696   2.383  10.709   6.672 -0.1565 -1.0218 -0.2554
 7897SOL     OW25697   9.544  10.494   2.034 -0.3951 -0.0190  0.1689
 7897SOL    HW125698   9.542  10.399   2.046  0.3657 -0.2299 -1.2601
 7897SOL    HW225699   9.496  10.509   1.953 -0.2842  0.8084  0.2492
 7898SOL     OW25700   6.024   6.752   1.350 -0.2141 -0.2608 -0.8103
 7898SOL    HW125701   5.989   6.664   1.342 -0.6838 -0.3349  1.3906
 7898SOL    HW225702   5.962   6.797   1.408  1.4724  0.6584  0.3648
 7899SOL     OW25703   1.383  11.050   5.734  0.0715  0.1117 -0.4114
 7899SOL    HW125704   1.323  10.979   5.758  1.7762 -0.2784  3.5094
 7899SOL    HW225705   1.377  11.055   5.639 -2.6153 -3.0123 -0.6004
 7900SOL     OW25706   1.450   2.405   1.671 -0.2254 -0.0092  0.1671
 7900SOL    HW125707   1.432   2.449   1.754 -0.5052  0.5424 -0.1835
 7900SOL    HW225708   1.540   2.429   1.649 -0.4227  0.4983 -0.0904
 7901SOL     OW25709   1.022   4.311   9.032  0.0139 -0.4052  0.1812
 7901SOL    HW125710   1.013   4.224   9.072 -0.6938 -2.5809 -4.0496
 7901SOL    HW225711   0.933   4.339   9.013  0.2846 -0.8390 -2.1199
 7902SOL     OW25712   3.774   8.496   6.468  0.4991  0.3823  0.5450
 7902SOL    HW125713   3.753   8.487   6.375  2.1300  0.5848  0.1343
 7902SOL    HW225714   3.864   8.526   6.470  1.3377 -1.9111  2.2089
 7903SOL     OW25715   8.219   7.683   6.663  0.3338 -0.0983 -0.0599
 7903SOL    HW125716   8.207   7.627   6.740 -0.1111  0.1415  0.0508
 7903SOL    HW225717   8.237   7.770   6.699 -1.1705  0.2961 -0.2046
 7904SOL     OW25718   5.795   3.153   0.447 -0.4391 -0.0271  0.2743
 7904SOL    HW125719   5.851   3.198   0.384  1.0958  0.2282  1.7522
 7904SOL    HW225720   5.724   3.214   0.465 -0.9928 -0.1701 -1.2787
 7905SOL     OW25721   2.935   2.598   0.696  0.2427  0.4424  0.4780
 7905SOL    HW125722   2.877   2.643   0.635  0.7757  2.2456  1.2105
 7905SOL    HW225723   2.887   2.519   0.721 -2.3285  2.2009  1.6408
 7906SOL     OW25724   8.930  10.347   1.861  0.1071 -0.3823 -0.3602
 7906SOL    HW125725   8.910  10.378   1.773  2.0242  1.9672 -0.0585
 7906SOL    HW225726   9.025  10.336   1.862  0.0884 -0.6064  1.3471
 7907SOL     OW25727   5.045   6.693   7.784  0.0349  0.0626 -0.8699
 7907SOL    HW125728   4.994   6.650   7.852 -0.6441 -0.3596 -1.6264
 7907SOL    HW225729   5.081   6.771   7.827  0.7467 -0.8937  0.3369
 7908SOL     OW25730   3.990   4.879   5.930  0.4888  0.0771 -0.1904
 7908SOL    HW125731   4.063   4.907   5.985  1.3891  0.4417 -1.4993
 7908SOL    HW225732   3.983   4.785   5.945  1.4799 -0.0288 -0.2948
 7909SOL     OW25733   2.118   3.741   9.512  0.6211  0.6408 -0.2105
 7909SOL    HW125734   2.174   3.778   9.443  1.0216 -2.0876 -1.5008
 7909SOL    HW225735   2.033   3.728   9.469  0.3641  0.4980  0.3354
 7910SOL     OW25736   7.243   6.487   2.300 -0.6752 -0.3070  0.4655
 7910SOL    HW125737   7.257   6.533   2.382 -2.9322  0.8467  0.3021
 7910SOL    HW225738   7.329   6.485   2.258  0.2169  0.4207  2.1579
 7911SOL     OW25739   1.644  11.005   4.116  0.1112 -0.1350 -0.1040
 7911SOL    HW125740   1.612  10.920   4.087 -0.5355  0.5521 -1.4674
 7911SOL    HW225741   1.565  11.052   4.144  0.3847  0.2433  0.0437
 7912SOL     OW25742  10.780   0.882   2.345  0.9270 -0.1417  0.1162
 7912SOL    HW125743  10.708   0.892   2.407  1.1126  0.0110  0.3098
 7912SOL    HW225744  10.829   0.964   2.351 -1.1188  1.5087 -2.9631
 7913SOL     OW25745   9.586  10.289   1.410  0.9710 -0.2685 -0.4043
 7913SOL    HW125746   9.538  10.231   1.469 -0.1503  1.6828  0.7211
 7913SOL    HW225747   9.580  10.247   1.324 -1.1287 -1.0561  0.0740
 7914SOL     OW25748   6.352  10.684  10.291 -0.1832 -0.3847  0.0483
 7914SOL    HW125749   6.322  10.700  10.201  1.2677 -1.7005 -0.7274
 7914SOL    HW225750   6.321  10.596  10.311  1.2828 -0.9309  0.0127
 7915SOL     OW25751   5.216   0.890   1.438 -0.6227  0.2551 -0.9852
 7915SOL    HW125752   5.233   0.983   1.450  0.3393  0.1148 -1.1210
 7915SOL    HW225753   5.124   0.878   1.462 -1.3706  1.6007 -2.9755
 7916SOL     OW25754   0.928   1.837   8.369  0.0842  0.0264 -0.3944
 7916SOL    HW125755   0.975   1.848   8.287 -0.3813  0.5404 -0.5979
 7916SOL    HW225756   0.857   1.901   8.365  0.9194  1.1092  1.0314
 7917SOL     OW25757   4.671   7.092   6.461 -0.4972 -0.3464 -0.3018
 7917SOL    HW125758   4.687   7.185   6.443 -1.7252  0.2071  1.2620
 7917SOL    HW225759   4.604   7.092   6.530 -0.5634 -2.3996 -0.3147
 7918SOL     OW25760   1.906   2.003   8.100 -0.5089 -0.2331  0.1299
 7918SOL    HW125761   1.835   1.943   8.124 -0.5844  0.5152  1.9432
 7918SOL    HW225762   1.983   1.948   8.096 -0.0905 -0.2388  4.2599
 7919SOL     OW25763   7.243   1.431   2.523 -0.5972  0.2942  0.2517
 7919SOL    HW125764   7.187   1.361   2.491 -0.4225 -0.1167  0.8221
 7919SOL    HW225765   7.320   1.428   2.467 -0.6125  0.0559  0.2406
 7920SOL     OW25766   7.784  10.146   6.384 -0.1229  0.4775  0.1385
 7920SOL    HW125767   7.692  10.133   6.360 -0.1883  1.4190 -0.1618
 7920SOL    HW225768   7.830  10.155   6.301  1.0492 -4.3171 -0.0717
 7921SOL     OW25769   2.423   9.689   5.971  0.0133 -0.5403  0.3868
 7921SOL    HW125770   2.421   9.764   6.029  1.1321 -0.4473  0.3340
 7921SOL    HW225771   2.513   9.687   5.937 -0.3913 -1.0626 -0.7058
 7922SOL     OW25772   4.356   1.038   3.362 -0.0695 -0.6816 -0.0216
 7922SOL    HW125773   4.268   1.026   3.397 -0.0495 -1.7207 -0.3032
 7922SOL    HW225774   4.349   1.117   3.308 -0.4663  0.0661  1.0709
 7923SOL     OW25775   6.641  10.004   6.985 -0.4196 -0.8733 -0.1138
 7923SOL    HW125776   6.713  10.066   6.972 -1.1749  0.2887  0.9208
 7923SOL    HW225777   6.647   9.944   6.911 -0.3120  1.0986 -1.8088
 7924SOL     OW25778   7.196   2.705   9.188 -0.3027  0.1930 -0.5284
 7924SOL    HW125779   7.209   2.653   9.109 -0.6792  1.8726 -1.7657
 7924SOL    HW225780   7.138   2.777   9.160 -0.9802  0.4769  1.4397
 7925SOL     OW25781   4.235   4.633   8.859 -0.1238  0.5522  0.4444
 7925SOL    HW125782   4.175   4.625   8.932  0.6070 -1.6724  0.8634
 7925SOL    HW225783   4.209   4.715   8.816 -1.3866  1.2579  2.4082
 7926SOL     OW25784   1.745   5.563   6.157  0.3955  0.0509 -0.6890
 7926SOL    HW125785   1.768   5.654   6.133  1.7172 -0.5283 -1.7958
 7926SOL    HW225786   1.739   5.518   6.073  1.4682 -1.2570 -0.0941
 7927SOL     OW25787   3.516  11.028   0.104  0.4988  0.2499  0.1779
 7927SOL    HW125788   3.580  11.035   0.175 -1.5522 -0.8759  2.2924
 7927SOL    HW225789   3.432  11.045   0.146 -0.7096  0.8739 -2.3125
 7928SOL     OW25790   5.697   6.179   1.961 -0.3203 -0.5330 -0.7075
 7928SOL    HW125791   5.657   6.260   1.993  0.9844 -0.4922  0.9437
 7928SOL    HW225792   5.762   6.208   1.897  0.9914 -0.1035  0.7408
 7929SOL     OW25793   2.954   5.987   6.597 -1.1130  0.4058  0.0955
 7929SOL    HW125794   2.863   6.015   6.605 -0.9871  0.6503  0.7840
 7929SOL    HW225795   2.951   5.907   6.546 -1.6885  0.5649 -0.1259
 7930SOL     OW25796   6.555   8.214   1.769 -0.1228  0.3654 -0.3660
 7930SOL    HW125797   6.522   8.158   1.839 -1.7584 -0.3735 -1.6469
 7930SOL    HW225798   6.488   8.208   1.700 -0.7879  4.4989 -0.3416
 7931SOL     OW25799   6.745   0.003   4.919 -0.2229  0.2293  0.0781
 7931SOL    HW125800   6.753  -0.004   4.824  3.2363  1.1025  0.2017
 7931SOL    HW225801   6.698  -0.077   4.945  1.3802 -1.5406 -2.1127
 7932SOL     OW25802   4.916   2.837   6.567  0.2926  0.1497 -0.3122
 7932SOL    HW125803   5.000   2.791   6.573  0.5908  0.6997 -0.1941
 7932SOL    HW225804   4.882   2.836   6.656 -0.2590 -0.8648 -0.5284
 7933SOL     OW25805   3.489   5.404  10.666  0.0786 -0.6441 -0.0031
 7933SOL    HW125806   3.558   5.384  10.603 -0.0284  1.5199 -0.9182
 7933SOL    HW225807   3.512   5.355  10.744  3.4919  1.0147  0.2117
 7934SOL     OW25808   4.456   6.316   0.732 -0.1704  0.0219 -0.6085
 7934SOL    HW125809   4.527   6.362   0.774  0.3317 -0.2993 -1.0857
 7934SOL    HW225810   4.492   6.229   0.712 -0.4757  0.0806 -1.4495
 7935SOL     OW25811   8.803   3.954  10.763 -1.1165  0.9660  0.2118
 7935SOL    HW125812   8.836   3.976  10.676  0.0070 -2.4857 -0.3893
 7935SOL    HW225813   8.769   3.864  10.753  0.9630 -0.3994  3.7375
 7936SOL     OW25814   2.507   1.708   8.777 -0.5822  0.1033 -0.6213
 7936SOL    HW125815   2.472   1.717   8.688  1.2503  0.1843 -1.3673
 7936SOL    HW225816   2.495   1.794   8.816 -1.5053  0.0376 -0.7253
 7937SOL     OW25817   4.784   3.744   5.995 -0.8977 -0.1867 -0.8164
 7937SOL    HW125818   4.781   3.652   5.970  1.3484 -0.6226  0.2877
 7937SOL    HW225819   4.862   3.778   5.952  0.1499  0.3344  1.3475
 7938SOL     OW25820   9.865   8.190   1.894  0.1730 -0.1768  0.0240
 7938SOL    HW125821   9.775   8.175   1.864  0.1518  0.6103 -0.3311
 7938SOL    HW225822   9.898   8.103   1.915 -0.7017 -0.4657  0.2421
 7939SOL     OW25823   4.003   6.167   3.430  0.0627 -0.7725 -0.3572
 7939SOL    HW125824   3.922   6.182   3.382  0.6375 -1.1396 -1.4626
 7939SOL    HW225825   4.031   6.255   3.458 -1.2604 -0.7370  0.9947
 7940SOL     OW25826   3.459   6.631   0.617 -0.2151  0.0294  0.9416
 7940SOL    HW125827   3.535   6.680   0.650  0.1928 -0.8288  1.3016
 7940SOL    HW225828   3.458   6.550   0.668  0.1231 -1.1213 -0.7922
 7941SOL     OW25829   1.646   3.121   7.158 -0.2120  0.2527 -0.3667
 7941SOL    HW125830   1.713   3.105   7.225  0.9897 -0.0161 -1.6018
 7941SOL    HW225831   1.568   3.145   7.208  0.5269 -0.3774  1.1483
 7942SOL     OW25832   7.036   8.961   4.051  0.9452 -0.0745  0.7267
 7942SOL    HW125833   7.115   8.929   4.095  0.5065  1.8174  3.1560
 7942SOL    HW225834   6.965   8.934   4.109 -0.4544 -2.6924 -1.9527
 7943SOL     OW25835   5.407   6.238  10.813  0.0179  0.4963 -0.1212
 7943SOL    HW125836   5.473   6.230  10.882 -0.8092 -1.5680  0.4910
 7943SOL    HW225837   5.367   6.151  10.807 -2.7306  1.6736 -0.4101
 7944SOL     OW25838   3.202  10.209   8.166 -0.3167  0.5991  0.2686
 7944SOL    HW125839   3.244  10.261   8.098 -1.7506 -0.3031 -1.3777
 7944SOL    HW225840   3.114  10.245   8.175 -0.0147  1.0161  2.0466
 7945SOL     OW25841   5.898   5.417   6.542 -0.4146  0.5479 -0.3121
 7945SOL    HW125842   5.858   5.462   6.467 -1.7879 -1.7239 -1.0858
 7945SOL    HW225843   5.825   5.371   6.583  0.5389  0.7535  1.7110
 7946SOL     OW25844   2.502   4.081   3.680  0.4512  0.5431 -0.3973
 7946SOL    HW125845   2.447   4.129   3.618  0.9009 -3.0570 -3.9733
 7946SOL    HW225846   2.581   4.135   3.688  0.0435  1.5360 -2.4163
 7947SOL     OW25847   3.589   8.118   2.556 -0.4095  0.4987  0.2104
 7947SOL    HW125848   3.673   8.142   2.518 -0.0594  1.3885  1.4953
 7947SOL    HW225849   3.534   8.196   2.544 -0.2268  0.8842  1.6516
 7948SOL     OW25850   8.900   6.954   4.685  0.6691  0.4117  0.3064
 7948SOL    HW125851   8.916   6.940   4.591  1.0394 -0.3243  0.4726
 7948SOL    HW225852   8.815   6.915   4.701  0.3238  1.0925  0.1556
 7949SOL     OW25853   7.865   5.834  10.637 -0.9032  0.4661 -0.6155
 7949SOL    HW125854   7.779   5.824  10.596 -1.1505  1.6560 -0.4225
 7949SOL    HW225855   7.848   5.883  10.717 -0.3616 -1.4134  0.7274
 7950SOL     OW25856  10.902   7.624   1.433 -0.0496 -0.2822 -0.5761
 7950SOL    HW125857  10.931   7.660   1.350 -0.7588  1.0891 -0.2632
 7950SOL    HW225858  10.807   7.614   1.423 -0.2893  0.8420  0.3879
 7951SOL     OW25859   0.722   8.534   4.097  0.0137  0.3748  0.4422
 7951SOL    HW125860   0.804   8.566   4.060 -1.3447  1.9462 -1.3429
 7951SOL    HW225861   0.712   8.582   4.180  0.9620  0.0159  0.7751
 7952SOL     OW25862   9.549   4.454   9.335  0.8047 -0.0965 -0.1008
 7952SOL    HW125863   9.455   4.460   9.314  0.1769 -2.9678  1.3080
 7952SOL    HW225864   9.552   4.400   9.414  3.7191 -1.4492 -0.9995
 7953SOL     OW25865   7.061   3.712   9.051  0.3609 -0.6409  0.3035
 7953SOL    HW125866   6.989   3.651   9.035 -0.0699 -0.5057  1.6199
 7953SOL    HW225867   7.018   3.794   9.078  0.9942 -0.5418  1.0478
 7954SOL     OW25868   3.386   8.525   9.613  0.4387  0.2985 -0.7875
 7954SOL    HW125869   3.354   8.557   9.529 -2.4714  0.7062  0.3648
 7954SOL    HW225870   3.382   8.430   9.606 -0.4669  0.3341 -0.9404
 7955SOL     OW25871   7.931   0.148   0.501  0.1913  0.5212 -0.1048
 7955SOL    HW125872   7.892   0.080   0.556  1.5474 -0.0559  0.1807
 7955SOL    HW225873   8.017   0.113   0.477  0.7600  1.9706 -0.2677
 7956SOL     OW25874   3.062   1.477   2.886 -0.1271 -0.5262  0.2970
 7956SOL    HW125875   2.966   1.477   2.884 -0.1611  0.4762  0.9047
 7956SOL    HW225876   3.084   1.399   2.937 -0.5721 -1.2858 -0.6373
 7957SOL     OW25877   5.842   0.100   1.138 -0.5048  0.4203  0.1780
 7957SOL    HW125878   5.913   0.164   1.133 -0.3877  0.2050 -2.6517
 7957SOL    HW225879   5.767   0.144   1.100 -1.3483 -0.0583  1.2348
 7958SOL     OW25880   0.897   0.970   3.284  0.1399 -0.3463  0.5678
 7958SOL    HW125881   0.839   1.008   3.350  0.4595 -0.7174  1.0697
 7958SOL    HW225882   0.858   0.885   3.265 -0.4402  0.1115 -0.3760
 7959SOL     OW25883   3.521   5.534   6.916 -0.3292  0.6502  0.1351
 7959SOL    HW125884   3.491   5.578   6.996 -1.5009 -1.4471  0.9228
 7959SOL    HW225885   3.454   5.555   6.851 -1.2805 -0.4950  0.7092
 7960SOL     OW25886   3.406   1.491   4.335 -0.5066  0.0356 -0.5268
 7960SOL    HW125887   3.418   1.582   4.307  1.2001 -0.2491 -0.8213
 7960SOL    HW225888   3.313   1.473   4.320 -0.4578  1.0999 -2.3635
 7961SOL     OW25889   3.584  10.341   5.218 -0.0150 -0.1625 -0.2134
 7961SOL    HW125890   3.572  10.256   5.259  1.4746 -0.2408  0.1143
 7961SOL    HW225891   3.600  10.401   5.291 -0.5204  0.3048 -0.4779
 7962SOL     OW25892   9.219   7.727   5.292  0.2461 -0.3215  0.6590
 7962SOL    HW125893   9.163   7.687   5.224  0.3256 -2.0448  1.5478
 7962SOL    HW225894   9.161   7.785   5.340 -0.2385 -0.4176  0.1990
 7963SOL     OW25895   9.408   1.452   5.909  0.3407 -0.8695 -0.4208
 7963SOL    HW125896   9.383   1.429   5.819  1.4362 -0.9256 -0.7233
 7963SOL    HW225897   9.476   1.518   5.899 -1.3461  1.0999  0.4258
 7964SOL     OW25898   4.419   1.538   6.008  0.2070  0.1542  0.3639
 7964SOL    HW125899   4.464   1.455   5.992  0.9695  0.5734  0.2940
 7964SOL    HW225900   4.436   1.559   6.099  0.6025  0.5730  0.2001
 7965SOL     OW25901   8.144   2.471   8.272  0.2288 -0.3109 -0.1504
 7965SOL    HW125902   8.133   2.377   8.278  3.0569 -0.7375 -0.3666
 7965SOL    HW225903   8.122   2.493   8.181  0.5568 -0.9457 -0.3863
 7966SOL     OW25904   9.955   4.560   2.702 -0.5289  0.2179  0.5312
 7966SOL    HW125905   9.871   4.603   2.716  0.1065  2.3388 -1.4571
 7966SOL    HW225906   9.969   4.564   2.607  0.3658 -3.0553  0.4030
 7967SOL     OW25907   9.508   6.632   5.564 -0.0740  0.0351  0.5385
 7967SOL    HW125908   9.439   6.659   5.504  0.3747 -1.0008 -0.4769
 7967SOL    HW225909   9.478   6.548   5.599  0.7725 -0.5452 -0.0985
 7968SOL     OW25910   2.023   2.067   7.323  0.2972 -1.0864  0.2722
 7968SOL    HW125911   2.025   1.971   7.330 -0.9658 -1.3888 -2.2809
 7968SOL    HW225912   2.077   2.087   7.247 -1.0081  0.0314 -0.4033
 7969SOL     OW25913   9.641  10.213   8.155 -0.2586 -0.1933  0.1967
 7969SOL    HW125914   9.587  10.211   8.075 -1.6339 -1.0263  1.1072
 7969SOL    HW225915   9.699  10.288   8.142 -0.9019  0.0910 -1.3035
 7970SOL     OW25916   5.560   5.198   2.090  0.3622 -0.3167  0.4183
 7970SOL    HW125917   5.483   5.140   2.091 -0.1963  0.3968  1.8289
 7970SOL    HW225918   5.536   5.271   2.147  2.5827 -0.7363  2.0138
 7971SOL     OW25919  10.783   6.953   4.619  0.0947  0.4554  0.4563
 7971SOL    HW125920  10.861   6.939   4.566 -0.2914 -1.6658  0.3772
 7971SOL    HW225921  10.763   6.867   4.657 -4.3867 -0.2191 -2.6141
 7972SOL     OW25922   0.335   9.933   3.565 -0.3775 -0.0907  0.0206
 7972SOL    HW125923   0.400   9.979   3.512 -0.9876  0.2665 -0.4294
 7972SOL    HW225924   0.382   9.857   3.600  0.0496 -0.3011 -0.9779
 7973SOL     OW25925   7.700   8.489   9.527 -0.1196  0.0113  0.2500
 7973SOL    HW125926   7.766   8.463   9.462  2.8252  0.5623  2.7755
 7973SOL    HW225927   7.696   8.415   9.588 -2.9345 -0.5696 -0.5134
 7974SOL     OW25928   3.177   5.150   2.024 -0.1973 -0.2971  0.0821
 7974SOL    HW125929   3.109   5.195   1.973  0.5311 -0.4134 -1.0320
 7974SOL    HW225930   3.244   5.217   2.039  0.3388 -0.6812 -0.5394
 7975SOL     OW25931   6.751   1.790   1.399  0.5715  0.4292  0.3402
 7975SOL    HW125932   6.663   1.820   1.375  0.3324 -0.8609 -0.5716
 7975SOL    HW225933   6.752   1.698   1.371  2.2037  0.4221  0.3641
 7976SOL     OW25934   1.378   1.358   2.649  0.0808 -0.4531  0.1251
 7976SOL    HW125935   1.303   1.407   2.615  1.3973  1.0530 -0.7158
 7976SOL    HW225936   1.447   1.372   2.584  2.0557  0.7755  2.3438
 7977SOL     OW25937   2.343  10.972   2.969  0.0185 -0.2517  0.4169
 7977SOL    HW125938   2.418  11.025   2.997  0.6407 -0.3738 -0.9282
 7977SOL    HW225939   2.326  11.000   2.879 -2.2297  0.4857  1.0205
 7978SOL     OW25940   0.422   1.910   1.074  0.4726 -0.3306  0.2804
 7978SOL    HW125941   0.468   1.915   1.157  1.2639 -2.7241  0.0559
 7978SOL    HW225942   0.353   1.845   1.087  0.0494 -0.1106 -0.6974
 7979SOL     OW25943   1.951  11.097   9.996 -0.3223  0.0862 -0.1457
 7979SOL    HW125944   1.944  11.117  10.090  0.3202  1.1954 -0.3183
 7979SOL    HW225945   2.011  11.023   9.992  0.3459  0.5948  0.2690
 7980SOL     OW25946   6.921   1.225   9.963  0.0415  0.0287 -0.0753
 7980SOL    HW125947   6.939   1.141  10.006  1.6347 -1.4540 -3.2712
 7980SOL    HW225948   7.007   1.260   9.940 -0.6743  1.4619 -0.7394
 7981SOL     OW25949   9.984   9.324   9.477  0.1378 -0.1143  0.0325
 7981SOL    HW125950   9.980   9.253   9.542 -1.4422  2.0050  2.4877
 7981SOL    HW225951  10.057   9.301   9.420  1.2004 -2.5041  2.1636
 7982SOL     OW25952   2.897   5.157   6.897 -0.4212 -0.8515  0.0747
 7982SOL    HW125953   2.955   5.218   6.941 -1.1460  0.1252 -0.2826
 7982SOL    HW225954   2.937   5.143   6.811 -0.1502 -1.0444  0.2313
 7983SOL     OW25955   8.306   8.556   6.884 -0.2791 -0.2037  0.5821
 7983SOL    HW125956   8.382   8.508   6.850  0.5102  0.5719  1.2019
 7983SOL    HW225957   8.281   8.508   6.964 -0.5554 -0.5488  0.2960
 7984SOL     OW25958   9.807   3.360   0.236 -0.5911  0.0158 -0.4929
 7984SOL    HW125959   9.876   3.295   0.248 -0.6748  0.2017  1.2751
 7984SOL    HW225960   9.726   3.312   0.252 -0.7539  0.2320 -0.6561
 7985SOL     OW25961   3.457  10.403   8.249 -0.3349  0.3124  0.2751
 7985SOL    HW125962   3.544  10.363   8.250 -0.3638  0.2688  0.9096
 7985SOL    HW225963   3.460  10.462   8.173  0.0099 -0.2050 -0.1218
 7986SOL     OW25964   4.431   6.565   5.922  0.3703 -0.0489 -0.0004
 7986SOL    HW125965   4.418   6.578   6.016 -1.6780  1.5602 -0.4314
 7986SOL    HW225966   4.456   6.651   5.889  2.3043 -0.8555 -0.8183
 7987SOL     OW25967   4.778   0.263   9.038 -0.0809 -0.3168  0.4068
 7987SOL    HW125968   4.710   0.214   8.991 -1.6664  0.0619  2.1872
 7987SOL    HW225969   4.732   0.339   9.075  1.7913  1.1528 -0.1284
 7988SOL     OW25970   9.275   5.125   1.489  0.4937  0.0121  0.2585
 7988SOL    HW125971   9.244   5.049   1.438 -0.5702  0.9130 -0.4938
 7988SOL    HW225972   9.200   5.147   1.545  0.5442  0.8971 -0.0098
 7989SOL     OW25973   2.981   0.504   0.684 -0.0209 -0.1475 -0.5931
 7989SOL    HW125974   2.956   0.581   0.632 -0.6687 -0.4847 -0.7906
 7989SOL    HW225975   2.898   0.462   0.706  0.3180 -0.6755 -0.3042
 7990SOL     OW25976   3.266   8.116   9.824  0.2473  0.1855  0.1844
 7990SOL    HW125977   3.330   8.157   9.766 -0.6818  1.5499  0.0561
 7990SOL    HW225978   3.214   8.060   9.767  0.3514  0.2802 -0.0032
 7991SOL     OW25979   9.628   7.312   0.724  0.8837  0.0738  0.4681
 7991SOL    HW125980   9.589   7.399   0.719  1.1388  0.1498 -0.4249
 7991SOL    HW225981   9.668   7.299   0.638  0.5103 -1.0854  0.4605
 7992SOL     OW25982   0.778   4.339   2.805 -0.0333 -0.3789  0.1980
 7992SOL    HW125983   0.710   4.334   2.738 -0.1782  1.8361  0.0942
 7992SOL    HW225984   0.858   4.359   2.757  0.3298 -1.0843  0.4970
 7993SOL     OW25985   1.772  10.264   7.679  0.4662  0.3209  0.0061
 7993SOL    HW125986   1.754  10.278   7.772 -1.1716 -1.1333 -0.0342
 7993SOL    HW225987   1.690  10.228   7.644  0.9985  0.9526 -2.0343
 7994SOL     OW25988   3.305   1.043   5.041 -0.1391 -0.1715 -0.3862
 7994SOL    HW125989   3.334   1.025   4.951  0.4362 -1.0375 -0.0322
 7994SOL    HW225990   3.310   0.959   5.086 -1.7740 -0.0472  0.1039
 7995SOL     OW25991   2.712   0.621   3.790 -0.1505 -1.1333 -0.1978
 7995SOL    HW125992   2.719   0.528   3.811  0.1013 -0.8466  1.0286
 7995SOL    HW225993   2.636   0.652   3.839 -0.6227 -0.8169 -1.0985
 7996SOL     OW25994   2.065   6.872   4.396  0.0315  0.2584  0.6134
 7996SOL    HW125995   2.064   6.957   4.352  2.3014  0.5476  0.9836
 7996SOL    HW225996   2.008   6.884   4.473  1.4193  1.9574  1.4550
 7997SOL     OW25997   1.733   7.522   5.507  0.5941 -0.0812 -0.1601
 7997SOL    HW125998   1.699   7.567   5.430  2.4813  0.7151 -0.5872
 7997SOL    HW225999   1.655   7.487   5.551 -0.6966  1.2528 -1.2853
 7998SOL     OW26000   4.634   5.435   5.233  0.0494 -0.2066 -0.3022
 7998SOL    HW126001   4.669   5.519   5.263 -2.2166  0.9293 -0.6373
 7998SOL    HW226002   4.685   5.369   5.280  0.3206  1.4030  1.7778
 7999SOL     OW26003   0.976   8.692   7.433  0.2973 -0.2376 -0.3317
 7999SOL    HW126004   1.004   8.782   7.415  0.9060 -0.5217 -0.8786
 7999SOL    HW226005   1.044   8.657   7.491 -0.1470 -0.2237  0.2002
 8000SOL     OW26006   2.556   6.398   4.093 -0.2381  0.5948 -0.7228
 8000SOL    HW126007   2.559   6.350   4.010 -2.8760  0.8512 -1.0421
 8000SOL    HW226008   2.606   6.477   4.076 -0.8426  0.7113 -2.1468
 8001SOL     OW26009   4.866   4.423   4.294  0.5136 -0.6788  0.5182
 8001SOL    HW126010   4.858   4.507   4.340 -1.4911 -0.8052  0.4921
 8001SOL    HW226011   4.910   4.366   4.357 -1.7697 -0.7233  2.2168
 8002SOL     OW26012   1.240   9.360   8.488 -0.5327  0.2984  0.5976
 8002SOL    HW126013   1.280   9.377   8.403 -2.1538 -0.1552 -0.2876
 8002SOL    HW226014   1.171   9.424   8.496 -3.5866 -2.5388 -0.6719
 8003SOL     OW26015   1.618   3.975   7.781 -0.3084 -0.3926  0.8500
 8003SOL    HW126016   1.537   3.970   7.832  0.4176  0.9536  2.2417
 8003SOL    HW226017   1.639   4.068   7.780  0.6465 -0.6037 -0.4468
 8004SOL     OW26018   4.414   8.324   1.706  0.0909 -0.4363  0.5245
 8004SOL    HW126019   4.391   8.374   1.784 -1.7414 -1.2098  0.5235
 8004SOL    HW226020   4.330   8.291   1.673  0.9327 -0.9612 -1.2001
 8005SOL     OW26021   1.488  10.500   9.093 -0.0083  0.0646  0.5774
 8005SOL    HW126022   1.439  10.523   9.014 -1.1445 -0.7805  1.0065
 8005SOL    HW226023   1.424  10.505   9.163 -0.1664 -3.3535  0.8419
 8006SOL     OW26024   7.617   8.101   4.249  0.2967 -0.2577 -0.1184
 8006SOL    HW126025   7.694   8.139   4.207  0.1491  0.0305 -0.1379
 8006SOL    HW226026   7.625   8.007   4.237 -0.3996 -0.1145 -1.9198
 8007SOL     OW26027   4.900   6.841   7.297  0.3528 -0.2856  0.6297
 8007SOL    HW126028   4.970   6.906   7.300  1.2068 -1.0562 -1.2300
 8007SOL    HW226029   4.930   6.770   7.354 -0.0554  0.4112  1.7474
 8008SOL     OW26030   1.432   6.914   9.443  0.3906 -0.5588 -0.3867
 8008SOL    HW126031   1.392   6.944   9.524 -0.2968  1.3656 -1.3630
 8008SOL    HW226032   1.526   6.913   9.461  0.3102  0.7195  0.2066
 8009SOL     OW26033   2.539   0.611   6.099  0.1280  0.5186 -0.1745
 8009SOL    HW126034   2.553   0.706   6.096 -1.8145  0.8207 -1.1348
 8009SOL    HW226035   2.627   0.575   6.109  0.9817  2.3867 -0.4226
 8010SOL     OW26036   0.605   1.792   4.046 -0.5166  0.6824  0.5145
 8010SOL    HW126037   0.651   1.755   3.971 -0.5992  0.1628  0.7120
 8010SOL    HW226038   0.521   1.822   4.010 -0.9475 -0.4087  0.5497
 8011SOL     OW26039   5.117   1.887   9.464  0.1757 -1.1327 -0.5133
 8011SOL    HW126040   5.128   1.802   9.507 -0.0419 -0.5631  0.7068
 8011SOL    HW226041   5.125   1.868   9.370  0.5678 -2.4234 -0.2331
 8012SOL     OW26042   5.364   5.830   6.582 -0.0712 -0.3801 -0.0495
 8012SOL    HW126043   5.387   5.787   6.500 -2.5278  1.6749 -1.9720
 8012SOL    HW226044   5.401   5.918   6.574 -0.8883  0.0492  0.7301
 8013SOL     OW26045   9.914   3.454   1.306 -0.6413  0.2644 -0.2002
 8013SOL    HW126046   9.961   3.399   1.243 -1.1884  1.2389 -1.4963
 8013SOL    HW226047   9.847   3.499   1.254  0.9141  3.5382  0.4070
 8014SOL     OW26048  10.197   6.364   0.467  0.1575 -0.1516  0.5052
 8014SOL    HW126049  10.146   6.359   0.386  2.1345 -0.7514 -0.7657
 8014SOL    HW226050  10.180   6.281   0.511  1.3803 -1.1581 -0.8112
 8015SOL     OW26051   7.764  10.899   2.226  0.4194  0.7335  0.4434
 8015SOL    HW126052   7.713  10.978   2.245 -1.2682 -0.2440  0.2574
 8015SOL    HW226053   7.726  10.866   2.145  2.6220  0.9109 -0.7424
 8016SOL     OW26054   0.950   3.615   9.810  0.2791  0.1489 -0.1675
 8016SOL    HW126055   1.017   3.571   9.863 -1.4217 -0.0349  1.9875
 8016SOL    HW226056   0.994   3.692   9.775  1.0810  1.3766  3.1761
 8017SOL     OW26057   1.441   3.195  11.023  0.2529 -0.0182  0.5591
 8017SOL    HW126058   1.532   3.166  11.013 -0.2732 -1.4710 -0.3264
 8017SOL    HW226059   1.414   3.220  10.935  0.9250  4.2450  1.3657
 8018SOL     OW26060  11.022  10.213   4.937 -0.0611 -0.7738 -0.1943
 8018SOL    HW126061  11.016  10.178   5.026 -3.5531  0.8384  0.3710
 8018SOL    HW226062  11.052  10.138   4.885 -0.7915 -2.6644  1.8948
 8019SOL     OW26063   1.372   7.658  10.622  0.1267  0.3532 -0.4893
 8019SOL    HW126064   1.458   7.625  10.596  0.7116  0.8804  0.7212
 8019SOL    HW226065   1.311   7.612  10.564  1.1936 -0.1675 -1.2446
 8020SOL     OW26066   6.240   9.872   2.775  0.3620 -0.6070 -0.7208
 8020SOL    HW126067   6.241   9.854   2.869  1.9310 -0.1194 -0.6137
 8020SOL    HW226068   6.171   9.936   2.763  0.6456 -0.1080  0.2329
 8021SOL     OW26069   8.120   6.856   5.364  0.0444  0.2304  0.6696
 8021SOL    HW126070   8.111   6.910   5.442 -2.0330 -0.1721  0.7568
 8021SOL    HW226071   8.044   6.878   5.310  2.0294  1.4493 -1.8887
 8022SOL     OW26072   8.299   2.868   4.224 -0.1805 -0.0442  0.1637
 8022SOL    HW126073   8.337   2.780   4.214 -1.1124 -0.5176  0.6511
 8022SOL    HW226074   8.375   2.926   4.227  0.4282 -0.7083 -1.2336
 8023SOL     OW26075   3.120   7.030   3.053  0.8209  0.4664 -0.1999
 8023SOL    HW126076   3.056   7.010   2.984  1.3246  1.5753 -1.0252
 8023SOL    HW226077   3.069   7.028   3.134  0.0114  0.0597 -0.7052
 8024SOL     OW26078   9.005  10.645   7.493  0.5325  0.0153  0.7469
 8024SOL    HW126079   9.004  10.706   7.419  1.0373 -0.3158  0.4603
 8024SOL    HW226080   9.066  10.683   7.555  3.3088 -1.6781 -0.7478
 8025SOL     OW26081   4.159   9.447   6.326 -0.0235  0.2497  0.0293
 8025SOL    HW126082   4.106   9.465   6.248  0.4548  2.6592  0.2015
 8025SOL    HW226083   4.248   9.440   6.293 -0.1003 -1.2813  0.0732
 8026SOL     OW26084   0.720   8.338   5.997  0.1975 -0.5232  0.4932
 8026SOL    HW126085   0.720   8.434   5.999  0.0277 -0.5224  0.5490
 8026SOL    HW226086   0.807   8.314   5.967  0.5680 -0.3714  1.4255
 8027SOL     OW26087   0.170   6.913   4.289 -0.0798  0.1791 -0.0123
 8027SOL    HW126088   0.232   6.872   4.349  1.0981  2.8051  0.7412
 8027SOL    HW226089   0.171   7.006   4.313 -1.9116  0.8471 -2.1123
 8028SOL     OW26090   4.687   1.670   5.222 -0.1620 -0.0405 -0.7855
 8028SOL    HW126091   4.629   1.653   5.148 -0.3951 -0.2718 -0.5512
 8028SOL    HW226092   4.752   1.600   5.219  0.7632  0.8155 -1.6865
 8029SOL     OW26093   4.033   8.692   5.623 -0.5261  0.0840 -0.2271
 8029SOL    HW126094   4.033   8.691   5.719  0.5879 -0.8937 -0.2091
 8029SOL    HW226095   4.106   8.636   5.599  0.0560  1.3925 -1.6556
 8030SOL     OW26096  10.257   4.821   2.724 -0.3813 -0.6666  0.1635
 8030SOL    HW126097  10.277   4.870   2.645  2.5449  0.0987  1.2315
 8030SOL    HW226098  10.179   4.864   2.760  0.3340  1.2854 -0.4872
 8031SOL     OW26099   0.871   0.559   6.827 -0.0909 -0.1256 -0.0479
 8031SOL    HW126100   0.886   0.576   6.921 -2.2048 -0.9361  0.4909
 8031SOL    HW226101   0.847   0.645   6.791 -1.1225 -0.1330  0.5796
 8032SOL     OW26102   3.740   9.714   3.764 -0.3154  0.6054 -0.4982
 8032SOL    HW126103   3.768   9.736   3.853  2.0446 -0.6289 -0.8604
 8032SOL    HW226104   3.816   9.735   3.709 -1.7806  1.5157 -2.2776
 8033SOL     OW26105   2.845   0.751   4.306  0.0263  0.2715 -0.0645
 8033SOL    HW126106   2.874   0.805   4.379 -0.8520  0.1442  0.3793
 8033SOL    HW226107   2.835   0.812   4.233  1.7463  0.2775 -0.3572
 8034SOL     OW26108   2.182   1.217   7.466 -0.2295 -0.1238  0.2056
 8034SOL    HW126109   2.184   1.313   7.469  1.0802 -0.1204  0.0325
 8034SOL    HW226110   2.102   1.196   7.420  0.7289  0.9964 -2.1340
 8035SOL     OW26111  10.037   3.967   5.197  0.1097 -0.0004 -0.4729
 8035SOL    HW126112  10.093   3.955   5.274 -0.3740 -2.1429 -0.3968
 8035SOL    HW226113  10.085   3.926   5.125 -0.6208 -0.4036 -0.7444
 8036SOL     OW26114   3.582   2.896  10.442 -0.4016  0.3883 -0.3064
 8036SOL    HW126115   3.564   2.842  10.365  0.6332 -1.1313  0.4743
 8036SOL    HW226116   3.649   2.958  10.413 -1.1131  0.8523 -1.0228
 8037SOL     OW26117   1.717  10.991  10.564  0.1685  0.3794 -0.3851
 8037SOL    HW126118   1.643  10.954  10.611  1.2835 -2.0256 -0.3739
 8037SOL    HW226119   1.744  11.067  10.616 -1.2052  0.2545  0.5370
 8038SOL     OW26120   1.235   0.468   7.589  0.7432  0.7122 -0.4130
 8038SOL    HW126121   1.322   0.506   7.601  0.0270  1.7515  2.1550
 8038SOL    HW226122   1.218   0.420   7.670  0.0068 -1.9353 -1.9926
 8039SOL     OW26123   1.099  10.532   3.912 -0.4132 -0.0771 -0.5136
 8039SOL    HW126124   1.123  10.617   3.876 -0.1284  1.3826  2.7711
 8039SOL    HW226125   1.183  10.486   3.923 -0.1735  0.6380  0.8472
 8040SOL     OW26126   6.348   8.252   0.800  0.3901  0.2622  0.2797
 8040SOL    HW126127   6.438   8.257   0.770 -0.3089  1.2294 -1.8159
 8040SOL    HW226128   6.340   8.324   0.862  0.8956  0.5561  0.0101
 8041SOL     OW26129   3.410   1.262   3.610 -0.3138 -0.0332 -0.0092
 8041SOL    HW126130   3.318   1.246   3.634  0.0360  0.4521  1.8439
 8041SOL    HW226131   3.419   1.357   3.615  0.2558 -0.0629 -0.3932
 8042SOL     OW26132   4.599   8.478   5.583  0.9246 -0.2438 -0.2730
 8042SOL    HW126133   4.687   8.503   5.556  0.7768 -0.5234 -1.0429
 8042SOL    HW226134   4.597   8.383   5.573  1.1719 -0.5093  1.6872
 8043SOL     OW26135   4.678   1.559   9.122  0.0812  0.2060 -0.1668
 8043SOL    HW126136   4.734   1.629   9.087  0.8447 -0.5538 -0.5052
 8043SOL    HW226137   4.610   1.548   9.055  1.0787 -0.6916 -1.0723
 8044SOL     OW26138   8.740   7.768   3.530  0.7924  0.0391  0.2282
 8044SOL    HW126139   8.651   7.795   3.554  1.0596  0.4531  0.7880
 8044SOL    HW226140   8.755   7.809   3.445 -0.0667 -1.2112 -0.5599
 8045SOL     OW26141   3.116   7.224   8.823  0.2514 -0.7138  0.3060
 8045SOL    HW126142   3.103   7.235   8.729  1.9315 -1.1589 -0.0094
 8045SOL    HW226143   3.027   7.227   8.860 -0.3369  1.4006 -1.0492
 8046SOL     OW26144   4.099   0.853   0.228 -0.8215  0.0924  0.2066
 8046SOL    HW126145   4.179   0.828   0.182 -1.2001  1.3310 -1.2524
 8046SOL    HW226146   4.035   0.865   0.158 -1.4844  1.9109  1.0533
 8047SOL     OW26147   5.257   5.958   5.564 -0.1859 -0.3163  0.0937
 8047SOL    HW126148   5.318   5.894   5.600 -0.6774  0.5928  2.7301
 8047SOL    HW226149   5.276   6.039   5.611 -2.2983  0.4236 -0.2023
 8048SOL     OW26150   9.779   9.757   3.019  0.5525  0.0824  1.1066
 8048SOL    HW126151   9.794   9.814   3.094 -0.1003 -0.3145  1.5522
 8048SOL    HW226152   9.838   9.682   3.033  0.6723  0.1668  1.0527
 8049SOL     OW26153   1.049   2.294   8.816  0.6877  0.4296  0.2548
 8049SOL    HW126154   1.017   2.263   8.731  2.4764 -1.2827  0.1139
 8049SOL    HW226155   1.077   2.384   8.799 -0.0175  0.4921 -0.6715
 8050SOL     OW26156   3.686   2.386   7.223  0.3114  0.0309 -0.2453
 8050SOL    HW126157   3.677   2.321   7.292  1.7816 -0.4708 -0.4941
 8050SOL    HW226158   3.759   2.442   7.252 -0.1037  0.7893 -0.6400
 8051SOL     OW26159   9.927   2.622   1.959 -0.6292 -0.3642 -0.1530
 8051SOL    HW126160  10.019   2.635   1.934 -0.3549 -1.9378 -0.1031
 8051SOL    HW226161   9.929   2.624   2.055 -0.0823 -3.2735 -0.0136
 8052SOL     OW26162   8.382   4.368   0.679  0.1935 -0.2734 -0.6594
 8052SOL    HW126163   8.365   4.406   0.593 -2.0510 -0.9411 -0.5873
 8052SOL    HW226164   8.475   4.382   0.695  0.7672 -0.5711 -3.4061
 8053SOL     OW26165   4.025   0.339   8.962 -0.3887 -0.2063  0.0506
 8053SOL    HW126166   4.001   0.432   8.965  1.4658  0.3800 -1.6658
 8053SOL    HW226167   4.028   0.318   8.869  1.9241 -1.2111  0.2971
 8054SOL     OW26168   3.615   7.228   9.830 -0.0465  0.0158  0.2220
 8054SOL    HW126169   3.686   7.166   9.846 -0.1923 -0.0471  0.6485
 8054SOL    HW226170   3.639   7.306   9.879  0.9194  0.9049 -1.5949
 8055SOL     OW26171   7.584   6.378   7.891 -0.0657  0.1256  0.0858
 8055SOL    HW126172   7.595   6.433   7.969 -0.0123 -0.8662  0.8016
 8055SOL    HW226173   7.652   6.408   7.831 -0.0929  0.8914  0.4174
 8056SOL     OW26174   6.723  10.744   9.556  1.2922  0.2004  0.3940
 8056SOL    HW126175   6.701  10.734   9.649  2.0800 -1.6786  0.4275
 8056SOL    HW226176   6.659  10.689   9.511  1.2492  0.6795 -0.1348
 8057SOL     OW26177   7.964  10.184   6.179 -0.4513  0.0236  0.1034
 8057SOL    HW126178   7.910  10.220   6.109  0.1717 -0.2030 -0.5140
 8057SOL    HW226179   8.046  10.159   6.135 -0.3755 -0.9202  0.7508
 8058SOL     OW26180  10.488   0.515  10.650  0.1031  0.3797  0.1900
 8058SOL    HW126181  10.457   0.473  10.730  1.7408  1.2334  1.3263
 8058SOL    HW226182  10.580   0.490  10.644  0.2100  0.9857 -0.9908
 8059SOL     OW26183   8.773   8.045   5.884 -0.6509  0.5705 -0.1127
 8059SOL    HW126184   8.692   8.094   5.868  0.7352  3.5028  1.1739
 8059SOL    HW226185   8.770   7.973   5.820 -4.2023  0.5273 -0.1335
 8060SOL     OW26186   3.000   0.552   7.904  0.3098  0.4498 -0.1669
 8060SOL    HW126187   3.057   0.601   7.845  1.0900 -1.8598 -1.4614
 8060SOL    HW226188   2.916   0.548   7.858 -0.3345  2.0166  0.7706
 8061SOL     OW26189   3.276   3.434   8.152  0.6179  0.4736 -0.2168
 8061SOL    HW126190   3.218   3.419   8.078  1.9022 -0.7198 -1.0284
 8061SOL    HW226191   3.326   3.512   8.129  0.1847  0.8053 -0.0493
 8062SOL     OW26192   3.774   0.800  10.416 -0.1698  0.0766  0.4111
 8062SOL    HW126193   3.861   0.838  10.432 -0.6431  0.6265  1.8786
 8062SOL    HW226194   3.790   0.707  10.404  0.7910  0.4019 -1.0587
 8063SOL     OW26195   6.733   2.046   5.097 -0.2935 -0.3927  0.1183
 8063SOL    HW126196   6.813   2.097   5.081 -0.6019  0.3162  0.8270
 8063SOL    HW226197   6.764   1.956   5.103  0.4255 -0.1523  0.1386
 8064SOL     OW26198   6.408   5.520   9.870  0.5056 -0.3733 -0.0493
 8064SOL    HW126199   6.406   5.616   9.871 -0.0189 -0.3051 -2.3777
 8064SOL    HW226200   6.317   5.494   9.860  0.7920 -1.0491 -1.0382
 8065SOL     OW26201   8.342   5.463   2.303 -0.1111 -0.0972  0.6956
 8065SOL    HW126202   8.305   5.496   2.222  0.7297 -0.0187  0.3366
 8065SOL    HW226203   8.269   5.416   2.345 -0.3718 -0.7297 -0.4215
 8066SOL     OW26204   6.907   8.587   2.083  0.3888  0.5945  0.9341
 8066SOL    HW126205   6.888   8.640   2.161  0.6096 -1.5031  2.5122
 8066SOL    HW226206   6.969   8.521   2.114 -3.2067 -3.4545  0.4150
 8067SOL     OW26207   0.016   7.282   3.542  0.9644 -0.2634 -0.4241
 8067SOL    HW126208  -0.025   7.299   3.457 -4.1878  2.1592  2.0457
 8067SOL    HW226209  -0.003   7.190   3.560 -0.0659 -0.1829 -1.0096
 8068SOL     OW26210   4.954   5.927   4.811 -0.4047  0.0670 -0.1927
 8068SOL    HW126211   4.961   5.997   4.875 -1.8038  1.3760 -1.3940
 8068SOL    HW226212   5.044   5.909   4.784 -0.0680  1.9755 -0.4421
 8069SOL     OW26213   5.989   2.242   0.243 -0.0466  0.4717 -0.8047
 8069SOL    HW126214   5.979   2.278   0.155 -0.3515  1.2112 -0.4804
 8069SOL    HW226215   5.909   2.267   0.289  0.9397  1.8684  0.2657
 8070SOL     OW26216   5.615   6.060   7.945  0.2387 -0.3332  0.2371
 8070SOL    HW126217   5.525   6.070   7.975  0.4239 -0.7867  0.9647
 8070SOL    HW226218   5.658   6.141   7.970  0.2472 -0.4740  0.6885
 8071SOL     OW26219   1.269  10.004   0.672  0.2349  0.0410 -0.5327
 8071SOL    HW126220   1.349   9.983   0.625  0.5773  1.8024 -0.8000
 8071SOL    HW226221   1.214  10.048   0.607 -0.4022  0.0365 -0.0085
 8072SOL     OW26222   6.746   3.923   2.483 -0.1658 -0.6376  0.2457
 8072SOL    HW126223   6.673   3.912   2.543 -1.4725  0.1438 -1.1403
 8072SOL    HW226224   6.768   4.017   2.488 -0.3636 -0.5383 -0.5544
 8073SOL     OW26225   2.908   9.343   5.139  0.0680 -0.3882  0.1773
 8073SOL    HW126226   2.982   9.344   5.079  0.6074  0.5288  0.8353
 8073SOL    HW226227   2.831   9.349   5.083  0.5944  1.2880 -0.3964
 8074SOL     OW26228   1.890   1.670   9.659 -0.2051  0.6882  0.1328
 8074SOL    HW126229   1.846   1.686   9.576  0.9786  0.6998 -0.5031
 8074SOL    HW226230   1.932   1.753   9.681 -0.4375  0.6613  0.7049
 8075SOL     OW26231  10.134   9.917   1.627  0.0899 -0.7805 -0.1946
 8075SOL    HW126232  10.121   9.883   1.716 -0.2457 -1.1613 -0.3838
 8075SOL    HW226233  10.223   9.952   1.627 -0.5359  0.9128  0.8197
 8076SOL     OW26234   8.117   0.536   9.945 -0.8402 -0.2474  0.2841
 8076SOL    HW126235   8.112   0.461   9.886  0.8521  0.4936 -0.8915
 8076SOL    HW226236   8.112   0.612   9.887 -0.6021  0.5186  1.2468
 8077SOL     OW26237   7.741   8.225   8.519 -0.4104  0.5322 -0.3513
 8077SOL    HW126238   7.739   8.147   8.574 -1.2946  0.6774 -0.1614
 8077SOL    HW226239   7.832   8.253   8.521  0.2098 -1.2233 -1.4693
 8078SOL     OW26240   8.105   3.571   6.308 -1.2901  0.4730  0.7555
 8078SOL    HW126241   8.029   3.517   6.285 -1.6880  0.7678  1.3640
 8078SOL    HW226242   8.073   3.630   6.376 -0.1306 -0.3922  2.1090
 8079SOL     OW26243   1.109   3.914   1.934 -0.1463 -0.0377  0.4150
 8079SOL    HW126244   1.149   3.920   1.848 -0.2215  1.5598  0.4688
 8079SOL    HW226245   1.085   4.004   1.956 -4.0701 -0.8467  0.2225
 8080SOL     OW26246   7.851   1.548   2.864 -0.4400  0.4903 -0.0693
 8080SOL    HW126247   7.895   1.493   2.799 -0.5285 -1.4449  1.3961
 8080SOL    HW226248   7.824   1.626   2.816  1.9369  0.4238 -1.6949
 8081SOL     OW26249   9.562   6.045   0.692  0.6487 -0.0322 -0.1581
 8081SOL    HW126250   9.483   6.039   0.638  0.7455 -0.7338 -0.2266
 8081SOL    HW226251   9.628   5.997   0.644  1.5940  1.8978 -0.8963
 8082SOL     OW26252   1.928   9.278   1.022 -0.4163 -0.2022 -0.4925
 8082SOL    HW126253   1.855   9.287   1.084 -3.4253  0.8517 -3.8619
 8082SOL    HW226254   1.897   9.214   0.958  1.3593  0.7715 -2.4268
 8083SOL     OW26255   1.278   2.850   2.457 -0.2062 -0.7688  0.4736
 8083SOL    HW126256   1.275   2.907   2.535  1.0758  0.0265 -0.0244
 8083SOL    HW226257   1.240   2.903   2.387 -0.3163 -1.0638  0.3084
 8084SOL     OW26258   9.343   0.173  10.160 -0.0736 -0.4697 -0.4975
 8084SOL    HW126259   9.427   0.176  10.114 -0.5589 -1.3207 -1.4948
 8084SOL    HW226260   9.278   0.169  10.090 -0.8658 -1.3587  0.2648
 8085SOL     OW26261   6.790   3.533   8.730 -0.3861  0.0921 -0.1988
 8085SOL    HW126262   6.790   3.584   8.648  0.4381 -1.2894 -1.1018
 8085SOL    HW226263   6.717   3.472   8.720 -1.0016  0.6741  0.6211
 8086SOL     OW26264   5.761   7.102   1.994 -0.0615 -0.0191 -0.2080
 8086SOL    HW126265   5.772   7.096   2.089 -1.3798  1.7191  0.1059
 8086SOL    HW226266   5.690   7.165   1.982 -0.6405 -0.9869 -2.3452
 8087SOL     OW26267   4.977   2.313   6.166 -0.1011 -0.1837  0.8238
 8087SOL    HW126268   5.049   2.346   6.113  0.6762 -0.8454  1.4327
 8087SOL    HW226269   4.937   2.390   6.205  0.3129  0.1827  0.5220
 8088SOL     OW26270   0.981   8.768   0.844  0.4694 -0.0671  0.6533
 8088SOL    HW126271   0.899   8.727   0.871 -0.3553  0.6424 -0.6660
 8088SOL    HW226272   0.970   8.860   0.866 -0.4609  0.6494 -2.4107
 8089SOL     OW26273   5.651   6.243   7.672  0.1022  0.0468  0.2745
 8089SOL    HW126274   5.704   6.298   7.730  1.1503 -1.2376  0.5954
 8089SOL    HW226275   5.686   6.155   7.685 -2.1554 -0.8813  0.5226
 8090SOL     OW26276   5.701   7.644   1.840 -0.4570 -0.1225 -0.4452
 8090SOL    HW126277   5.627   7.598   1.801 -0.1745 -0.8430 -0.1564
 8090SOL    HW226278   5.778   7.598   1.806 -0.2017 -1.9326  2.2466
 8091SOL     OW26279   2.916  10.938   6.244  0.8397  0.0479 -0.4721
 8091SOL    HW126280   2.943  11.011   6.189 -1.5455  1.5147  0.1528
 8091SOL    HW226281   2.823  10.954   6.261  0.9106 -1.6273  2.0092
 8092SOL     OW26282   7.636   9.055   1.873  0.1336  0.1065  0.1475
 8092SOL    HW126283   7.648   9.143   1.838 -0.9849 -0.6212 -2.3096
 8092SOL    HW226284   7.724   9.017   1.872  0.5313  0.9731  0.6710
 8093SOL     OW26285   2.064   3.433   1.101  0.2875 -0.5598 -0.7660
 8093SOL    HW126286   2.128   3.477   1.156 -0.0039  0.4223 -1.1962
 8093SOL    HW226287   2.103   3.347   1.082  1.4657  0.0139 -1.0248
 8094SOL     OW26288   4.494   8.568   1.634 -0.3243 -0.2118 -0.2298
 8094SOL    HW126289   4.470   8.475   1.630 -1.9477  0.2167 -2.7697
 8094SOL    HW226290   4.518   8.591   1.544 -0.0104  1.8675  0.3216
 8095SOL     OW26291   7.732  10.650   2.640 -0.3442  0.1448 -0.0395
 8095SOL    HW126292   7.775  10.613   2.563 -0.5534  1.8558 -1.0175
 8095SOL    HW226293   7.724  10.743   2.622 -3.8373  0.0722  0.3628
 8096SOL     OW26294   9.270  10.869  10.437  0.1008  0.4651 -0.6428
 8096SOL    HW126295   9.345  10.915  10.474  0.1094 -0.1779  0.1612
 8096SOL    HW226296   9.198  10.932  10.443  0.3689  0.7617 -0.5647
 8097SOL     OW26297   0.396   9.324  10.655 -0.0891  0.0782  0.4445
 8097SOL    HW126298   0.302   9.326  10.673 -0.6900 -2.6739 -1.7582
 8097SOL    HW226299   0.434   9.278  10.730 -0.5568  0.7114  1.0827
 8098SOL     OW26300   3.067   9.192   0.927  1.1988  0.0196 -0.3127
 8098SOL    HW126301   3.061   9.199   0.832  0.7166  0.4521 -0.2584
 8098SOL    HW226302   2.987   9.235   0.959  0.8762 -0.9803  0.2607
 8099SOL     OW26303   6.583  10.967   1.378  0.4872  0.1206 -0.9227
 8099SOL    HW126304   6.591  10.940   1.287  1.1172  2.0097 -1.4713
 8099SOL    HW226305   6.491  10.992   1.387  0.1724 -1.0497 -0.7213
 8100SOL     OW26306   5.021   3.412  10.857  0.2935 -0.2972  0.2333
 8100SOL    HW126307   5.092   3.429  10.795  0.3532  0.7207  0.5622
 8100SOL    HW226308   5.062   3.361  10.926  1.4413  2.4864  1.7698
 8101SOL     OW26309   3.063   9.799   1.847  0.1668  0.7955 -0.2524
 8101SOL    HW126310   3.108   9.867   1.899  1.3804  1.2372 -1.7994
 8101SOL    HW226311   2.971   9.809   1.870  0.4009  2.5110  0.1099
 8102SOL     OW26312   7.907   5.904   3.259 -0.0366 -0.1452 -0.4101
 8102SOL    HW126313   7.823   5.934   3.295  0.3800 -1.7888  2.2763
 8102SOL    HW226314   7.951   5.865   3.335  2.0972 -1.5728 -2.2922
 8103SOL     OW26315   9.064   5.505   7.208  0.2188 -0.1198 -0.1624
 8103SOL    HW126316   9.054   5.533   7.299 -0.8166 -0.8077 -0.0533
 8103SOL    HW226317   9.118   5.426   7.213 -1.7000 -1.4786  0.1073
 8104SOL     OW26318   4.773   1.293   9.903  0.3458  0.5153  0.0085
 8104SOL    HW126319   4.681   1.317   9.908  0.0150 -0.7461  0.3724
 8104SOL    HW226320   4.816   1.347   9.969 -0.3670  0.1277  0.8089
 8105SOL     OW26321   3.643   5.064   2.326  0.8776  0.2250  0.2527
 8105SOL    HW126322   3.626   4.976   2.290  2.5260 -0.6144  1.4149
 8105SOL    HW226323   3.621   5.123   2.254 -1.3544 -1.0276 -0.2189
 8106SOL     OW26324   0.884   4.386   8.407  0.4515  0.3241 -0.3704
 8106SOL    HW126325   0.939   4.408   8.483  0.7847  0.4390 -0.6392
 8106SOL    HW226326   0.933   4.318   8.361 -0.4751 -0.8582  0.3370
 8107SOL     OW26327   6.015   3.556   2.827 -0.2726 -0.0294  0.1285
 8107SOL    HW126328   6.090   3.524   2.877 -1.2588 -0.0052  1.6822
 8107SOL    HW226329   5.958   3.480   2.818  0.2369 -0.2486 -1.7284
 8108SOL     OW26330   8.816   3.094   0.511  0.4246  0.2619  0.1520
 8108SOL    HW126331   8.885   3.063   0.452 -0.9635 -0.8574 -0.9631
 8108SOL    HW226332   8.759   3.018   0.522  0.2826  0.6485  2.4509
 8109SOL     OW26333   3.090  10.299   0.740 -0.9847 -0.4710  0.5010
 8109SOL    HW126334   3.043  10.316   0.822  0.7424  0.6851  1.3000
 8109SOL    HW226335   3.121  10.385   0.711  1.9991 -1.2977  0.8931
 8110SOL     OW26336   5.639   5.226   5.025  0.2858 -0.2741 -0.9195
 8110SOL    HW126337   5.564   5.167   5.027  0.8224 -0.9616  0.4614
 8110SOL    HW226338   5.651   5.247   4.933  0.1716 -2.4767 -1.4882
 8111SOL     OW26339   0.376   2.467   3.040 -0.6293  0.0670 -0.8157
 8111SOL    HW126340   0.308   2.434   2.981 -1.6563  0.9938 -0.1956
 8111SOL    HW226341   0.458   2.433   3.004 -1.3458 -0.4279 -2.0429
 8112SOL     OW26342   9.706  10.875   3.848  0.5339 -0.3515 -0.2475
 8112SOL    HW126343   9.705  10.971   3.842  0.1459 -0.4192 -3.7922
 8112SOL    HW226344   9.614  10.850   3.840  0.6905 -1.0435  0.0929
 8113SOL     OW26345   6.056   9.294   8.173  0.2904 -0.4269 -0.1098
 8113SOL    HW126346   6.140   9.273   8.214  0.5263 -1.2941 -0.9956
 8113SOL    HW226347   6.028   9.211   8.134 -0.7345 -0.0215 -0.2587
 8114SOL     OW26348   8.826   8.714   9.029 -0.1870  0.7838 -0.9750
 8114SOL    HW126349   8.772   8.790   9.053 -0.0622  0.6637 -0.3099
 8114SOL    HW226350   8.889   8.706   9.100 -0.5739 -0.3033 -0.7399
 8115SOL     OW26351   5.904   9.810   8.700  0.0152  0.1339 -0.2358
 8115SOL    HW126352   5.852   9.783   8.625  0.0869  1.5876 -0.8380
 8115SOL    HW226353   5.849   9.792   8.776 -0.9889  0.7273 -0.8004
 8116SOL     OW26354  10.152   3.356   2.091 -0.4312 -0.2413 -0.1036
 8116SOL    HW126355  10.230   3.404   2.119  0.2528 -1.2600 -0.2081
 8116SOL    HW226356  10.182   3.266   2.079 -1.2414 -0.3370 -1.7391
 8117SOL     OW26357   1.342   7.841   7.166 -0.2851  0.0715  0.1815
 8117SOL    HW126358   1.360   7.933   7.188  0.5335  0.2885 -1.2339
 8117SOL    HW226359   1.385   7.791   7.235 -0.1636  0.7378  0.6010
 8118SOL     OW26360   6.607   3.012  10.847  0.1028  0.0926 -0.1270
 8118SOL    HW126361   6.585   2.919  10.841 -1.6856  0.3122  1.9531
 8118SOL    HW226362   6.649   3.032  10.763 -0.4522 -2.3179 -1.0579
 8119SOL     OW26363   7.205   1.726   9.726 -0.3997 -0.5740  0.5490
 8119SOL    HW126364   7.150   1.760   9.797  0.6575 -2.3346  2.3115
 8119SOL    HW226365   7.142   1.697   9.660 -1.4681  0.1718  1.1894
 8120SOL     OW26366   3.783  10.936   8.455 -0.1696 -0.1484 -0.2131
 8120SOL    HW126367   3.772  10.841   8.465 -2.4254  0.0284 -0.4964
 8120SOL    HW226368   3.737  10.957   8.373  0.6186  1.1429 -0.3497
 8121SOL     OW26369  10.094   8.722   6.028 -0.7191 -0.4055 -0.3531
 8121SOL    HW126370  10.113   8.702   5.936 -0.5589 -3.2829  0.2026
 8121SOL    HW226371  10.006   8.759   6.027 -0.9553 -0.9503 -1.6405
 8122SOL     OW26372   3.408   8.502  10.518  0.0577  0.6459 -0.0832
 8122SOL    HW126373   3.478   8.491  10.582  1.4729  1.7706 -1.3580
 8122SOL    HW226374   3.341   8.439  10.545  0.7026  0.8707  2.3115
 8123SOL     OW26375  10.725   1.231   0.771 -0.2344 -0.8409  0.0043
 8123SOL    HW126376  10.659   1.163   0.757 -1.9608  0.6411  0.4922
 8123SOL    HW226377  10.769   1.207   0.852 -2.7471  0.0073  1.7196
 8124SOL     OW26378   1.776   5.077  11.061  0.8726 -0.0318 -0.0443
 8124SOL    HW126379   1.759   5.167  11.032  1.9063  0.3767  0.5382
 8124SOL    HW226380   1.690   5.043  11.086  0.4810  0.8511 -0.1397
 8125SOL     OW26381   6.721   4.846   8.582 -0.0777  0.2038  0.3182
 8125SOL    HW126382   6.784   4.793   8.631  0.2400  0.0784 -0.2107
 8125SOL    HW226383   6.672   4.893   8.649 -0.4600 -0.8526  0.8068
 8126SOL     OW26384   3.501   1.455   3.320 -0.4919  0.3353 -0.1686
 8126SOL    HW126385   3.447   1.376   3.311  1.4070 -1.5135  2.7090
 8126SOL    HW226386   3.451   1.511   3.380 -0.5214 -0.0872  0.2126
 8127SOL     OW26387   5.943   1.018   0.029 -0.6542  0.7355  0.0177
 8127SOL    HW126388   5.903   1.094  -0.013  1.2386  2.7804  1.6859
 8127SOL    HW226389   5.927   1.031   0.123  0.7229 -0.2630  0.4304
 8128SOL     OW26390   0.410   1.341   7.844  0.3261  0.1693 -0.3062
 8128SOL    HW126391   0.319   1.312   7.843 -0.3121  1.7899  2.0273
 8128SOL    HW226392   0.432   1.356   7.752 -2.0583  0.5668 -0.8828
 8129SOL     OW26393   6.075   7.688  10.203 -0.2408 -0.3635 -0.2296
 8129SOL    HW126394   6.169   7.671  10.209  0.2180  1.6803 -0.9599
 8129SOL    HW226395   6.044   7.628  10.135  0.6462 -0.6538 -0.3857
 8130SOL     OW26396   8.110   0.199   6.894 -0.2113  0.3782  0.4502
 8130SOL    HW126397   8.067   0.271   6.940 -1.0885  0.0329  0.1792
 8130SOL    HW226398   8.145   0.144   6.964  0.2461  0.9229  0.6632
 8131SOL     OW26399   8.189  10.976   4.300  0.0537  0.2845  0.1481
 8131SOL    HW126400   8.214  11.047   4.241  2.1140 -0.8946 -0.5129
 8131SOL    HW226401   8.150  10.910   4.243 -1.8028  0.8069  0.7522
 8132SOL     OW26402   4.140   3.590   1.655  0.6341  0.3904  1.2020
 8132SOL    HW126403   4.221   3.605   1.703  1.7080 -0.3867 -0.2658
 8132SOL    HW226404   4.168   3.575   1.565 -0.9668 -1.5758  0.9393
 8133SOL     OW26405   6.333   1.124  11.006  0.1297 -0.4670  0.3104
 8133SOL    HW126406   6.374   1.166  10.930  0.8309  0.9093  1.4015
 8133SOL    HW226407   6.398   1.060  11.036 -0.5148 -1.6629 -0.7375
 8134SOL     OW26408   0.786   4.474  10.443 -0.6343 -0.2290 -0.5462
 8134SOL    HW126409   0.848   4.402  10.443  0.6714  0.8424 -0.1292
 8134SOL    HW226410   0.747   4.472  10.530  0.5360  0.4635  0.0221
 8135SOL     OW26411   3.107   8.150   7.768 -0.5273  0.9453  0.4884
 8135SOL    HW126412   3.053   8.207   7.823  1.2959  2.9142  0.3872
 8135SOL    HW226413   3.098   8.186   7.680 -1.1952 -0.4335 -0.0337
 8136SOL     OW26414  10.031  10.024   3.806  0.8847 -0.4426 -0.3426
 8136SOL    HW126415  10.057  10.096   3.748  0.6804 -1.0337 -1.1917
 8136SOL    HW226416  10.032  10.062   3.894 -1.2867  1.2075 -0.9340
 8137SOL     OW26417   8.526   9.074   0.608  0.0151  1.1376  0.3895
 8137SOL    HW126418   8.620   9.094   0.611  0.6677 -1.7043  2.6617
 8137SOL    HW226419   8.495   9.094   0.696 -0.8824 -0.5033  0.4777
 8138SOL     OW26420   8.773   8.722  10.556 -0.2170  0.4620 -0.0370
 8138SOL    HW126421   8.866   8.709  10.539 -0.1876  0.5577  0.0539
 8138SOL    HW226422   8.731   8.643  10.523 -0.1315  0.5302 -0.3114
 8139SOL     OW26423   0.045   8.651   5.864  0.2880 -0.0797  0.2540
 8139SOL    HW126424  -0.032   8.634   5.918  0.7039 -0.7869  0.6272
 8139SOL    HW226425   0.113   8.594   5.899  0.7276 -0.1325 -0.6545
 8140SOL     OW26426   5.147   9.399   5.879  0.4483 -0.2802 -0.3636
 8140SOL    HW126427   5.113   9.346   5.808  0.9818 -0.7514 -0.2751
 8140SOL    HW226428   5.087   9.473   5.885 -0.5090 -1.0465 -0.2523
 8141SOL     OW26429   7.557   9.295   7.257  0.1362  0.1748 -1.0396
 8141SOL    HW126430   7.511   9.214   7.279  0.2526 -0.3656 -2.6134
 8141SOL    HW226431   7.582   9.283   7.165  3.6245  0.3306 -0.2280
 8142SOL     OW26432   7.819  11.076  10.242  0.4017  0.8156  0.3593
 8142SOL    HW126433   7.807  11.074  10.147  1.1792 -0.4586  0.2478
 8142SOL    HW226434   7.904  11.119  10.254 -0.1972  1.9755  0.5669
 8143SOL     OW26435   7.180   6.801   3.329 -0.3794 -0.1380  0.2723
 8143SOL    HW126436   7.139   6.747   3.262 -0.5204 -1.5278  1.4262
 8143SOL    HW226437   7.235   6.863   3.280  1.7160 -2.8604 -1.0985
 8144SOL     OW26438  10.904   2.300   4.198  0.3465  0.2606 -0.0492
 8144SOL    HW126439  10.953   2.348   4.131  0.4549 -1.6425 -1.4175
 8144SOL    HW226440  10.962   2.228   4.223 -0.2755  0.1207  1.0416
 8145SOL     OW26441   2.872   6.868  10.331 -0.0837  0.2097 -0.9149
 8145SOL    HW126442   2.952   6.857  10.280  0.0601  2.4134 -1.2285
 8145SOL    HW226443   2.900   6.910  10.412 -0.5252 -1.9364  0.4433
 8146SOL     OW26444   4.019   5.794   8.329 -0.9434 -0.3835 -0.4046
 8146SOL    HW126445   4.018   5.785   8.424 -2.9938  0.5681 -0.2881
 8146SOL    HW226446   4.061   5.878   8.313 -0.3147 -0.6875 -0.3642
 8147SOL     OW26447   5.839   0.611  10.555 -0.0921 -0.3944  0.3110
 8147SOL    HW126448   5.875   0.590  10.468 -1.5140 -1.8854  0.0296
 8147SOL    HW226449   5.843   0.706  10.560 -1.1559 -0.1479 -1.9497
 8148SOL     OW26450   8.333   1.022   7.572 -0.1542 -0.2033 -0.1068
 8148SOL    HW126451   8.286   1.104   7.559 -0.0477 -0.3894 -1.9277
 8148SOL    HW226452   8.291   0.961   7.511 -1.3334 -2.0168  2.3276
 8149SOL     OW26453  10.922   6.047   7.737 -0.7844  0.1282  0.2877
 8149SOL    HW126454  10.915   6.037   7.642 -1.3864 -1.5862  0.4778
 8149SOL    HW226455  11.009   6.016   7.759 -0.9898 -0.3721  0.3966
 8150SOL     OW26456   3.292   0.383   5.721 -0.3015  0.3160  0.2378
 8150SOL    HW126457   3.261   0.352   5.806 -0.1328 -2.9225 -0.7507
 8150SOL    HW226458   3.363   0.444   5.742 -0.5033 -0.1178  2.4149
 8151SOL     OW26459   4.161  10.717   7.011 -0.5023 -0.0922 -0.9440
 8151SOL    HW126460   4.246  10.673   7.010 -0.5607 -0.3461  1.3767
 8151SOL    HW226461   4.109  10.670   6.946  1.3697  0.6937 -3.1381
 8152SOL     OW26462   8.467   8.469  10.142 -0.2093  0.0526 -0.4347
 8152SOL    HW126463   8.390   8.449  10.088 -1.2886 -3.6048  2.1347
 8152SOL    HW226464   8.542   8.448  10.085 -1.2326 -1.1986 -1.3873
 8153SOL     OW26465   6.825   8.199   3.456  0.0302 -0.1484  0.8339
 8153SOL    HW126466   6.878   8.268   3.416 -2.0349  1.3559  0.6011
 8153SOL    HW226467   6.882   8.122   3.453  2.0797  1.3009  0.3076
 8154SOL     OW26468   8.270   9.082   7.857 -0.0709 -0.3601 -0.7695
 8154SOL    HW126469   8.202   9.019   7.829 -1.8203  0.8511  0.4956
 8154SOL    HW226470   8.311   9.039   7.933  0.1226 -0.8213 -1.1302
 8155SOL     OW26471   5.308   6.559   6.681 -0.5762  0.1199 -0.6095
 8155SOL    HW126472   5.317   6.493   6.612 -1.4747 -0.8867  0.2135
 8155SOL    HW226473   5.258   6.630   6.640 -2.8451 -1.3151 -0.4903
 8156SOL     OW26474   9.585   1.387   0.161  0.1975 -0.0181  0.0824
 8156SOL    HW126475   9.598   1.296   0.134  0.3718 -0.1561  0.6153
 8156SOL    HW226476   9.535   1.381   0.243 -3.4172  0.4917 -1.9017
 8157SOL     OW26477   5.198   6.945   0.040 -0.4470 -0.6479 -0.7191
 8157SOL    HW126478   5.135   6.912  -0.024  0.0386 -2.1175 -0.4758
 8157SOL    HW226479   5.282   6.946  -0.007 -0.0571 -1.8966 -0.0941
 8158SOL     OW26480   6.457   3.482   8.357  0.1245 -0.0747 -0.3655
 8158SOL    HW126481   6.422   3.539   8.426 -0.6032 -1.3890  0.3868
 8158SOL    HW226482   6.409   3.508   8.278  1.5467  2.0076 -0.6300
 8159SOL     OW26483   9.135   8.282   6.304  0.4015  0.4780  0.0303
 8159SOL    HW126484   9.049   8.324   6.308  0.5574  0.7762  0.3195
 8159SOL    HW226485   9.162   8.290   6.213  0.3950  0.9367  0.0677
 8160SOL     OW26486   4.815   5.919   2.881 -0.1197  0.1767  0.1283
 8160SOL    HW126487   4.879   5.866   2.835 -0.9192  0.0239 -0.8477
 8160SOL    HW226488   4.778   5.861   2.947 -1.7202 -0.8726 -1.5985
 8161SOL     OW26489  10.936   1.589   5.929  0.0562  0.3957 -0.3448
 8161SOL    HW126490  10.914   1.681   5.944  1.8526  0.5147  2.3505
 8161SOL    HW226491  11.030   1.590   5.911 -0.3358 -0.7769 -2.8150
 8162SOL     OW26492   9.902   8.441   0.645  0.8402 -0.4176 -0.2530
 8162SOL    HW126493   9.855   8.499   0.705  0.8781 -1.7686  1.1199
 8162SOL    HW226494   9.848   8.441   0.566 -1.1725 -1.3846  1.0310
 8163SOL     OW26495   3.685   1.296   1.444  0.5507 -0.5257 -0.2540
 8163SOL    HW126496   3.610   1.336   1.486  0.5950 -0.3191 -0.3744
 8163SOL    HW226497   3.761   1.340   1.483  0.5646  0.6592 -1.5583
 8164SOL     OW26498  11.098  10.256   6.490  0.0484  1.0623  0.5976
 8164SOL    HW126499  11.185  10.294   6.478  0.1897 -0.0702 -3.9685
 8164SOL    HW226500  11.038  10.330   6.479  0.4464  1.0768 -2.1386
 8165SOL     OW26501   3.847   2.745   2.842  0.1789 -0.1213  0.0806
 8165SOL    HW126502   3.816   2.818   2.895  1.3630  1.1646 -0.9125
 8165SOL    HW226503   3.914   2.702   2.896 -1.4482 -1.3827  1.2173
 8166SOL     OW26504   6.599   4.000   2.191  0.3172  0.0055  0.1645
 8166SOL    HW126505   6.582   3.948   2.113  2.1968  0.2977 -0.4671
 8166SOL    HW226506   6.623   3.937   2.258 -2.5918 -0.3864  0.9805
 8167SOL     OW26507   3.839  10.334   4.719  0.5002  0.5273  0.6991
 8167SOL    HW126508   3.918  10.284   4.699  0.5833  1.0251 -0.2584
 8167SOL    HW226509   3.768  10.282   4.681  0.3203 -0.0201  1.7286
 8168SOL     OW26510   4.250   7.089   0.366 -0.0088  0.2063  0.0788
 8168SOL    HW126511   4.341   7.100   0.341  0.2432  0.7928  1.1994
 8168SOL    HW226512   4.201   7.104   0.285  0.7715  2.0240 -0.1015
 8169SOL     OW26513   5.196   1.971   8.730 -0.1030  0.1951 -0.4861
 8169SOL    HW126514   5.242   1.888   8.735 -2.1864 -1.0460 -0.6267
 8169SOL    HW226515   5.185   1.986   8.636 -0.2791  0.3155 -0.4470
 8170SOL     OW26516   3.252   2.967   2.813 -0.2919 -0.0644  0.1545
 8170SOL    HW126517   3.175   3.022   2.822  0.8505  1.4526  1.0667
 8170SOL    HW226518   3.277   2.946   2.903  0.6891 -0.0602 -0.1080
 8171SOL     OW26519  10.179   8.061   6.569 -0.3966 -0.3651  0.3263
 8171SOL    HW126520  10.261   8.076   6.617 -0.3496  1.6422 -0.2771
 8171SOL    HW226521  10.205   8.068   6.477 -1.3192  0.8860  0.1405
 8172SOL     OW26522  10.182   1.124   0.453 -0.1616  0.1382  0.6155
 8172SOL    HW126523  10.157   1.128   0.545  0.4072 -1.0060  0.8483
 8172SOL    HW226524  10.175   1.031   0.431 -0.9777  0.4738 -0.7091
 8173SOL     OW26525   5.135   1.294   2.562  0.1002  0.0298 -0.1315
 8173SOL    HW126526   5.053   1.247   2.546 -0.4303  0.4878  1.1210
 8173SOL    HW226527   5.119   1.345   2.642  1.4296  0.5412 -0.1593
 8174SOL     OW26528   9.423   2.128   7.122 -0.7650  0.0699 -0.3167
 8174SOL    HW126529   9.419   2.094   7.033  0.2827 -0.0060 -0.3452
 8174SOL    HW226530   9.450   2.219   7.112  0.8599 -0.3573 -0.0155
 8175SOL     OW26531   7.636   0.552   5.909 -0.2090  0.0803  0.0086
 8175SOL    HW126532   7.633   0.460   5.883  0.6092  0.3868 -1.2615
 8175SOL    HW226533   7.694   0.553   5.986 -1.7792 -0.6882  1.2732
 8176SOL     OW26534   9.852   7.072   9.319 -0.1434  0.1940  0.4080
 8176SOL    HW126535   9.757   7.063   9.327 -0.4736  3.5586  2.1405
 8176SOL    HW226536   9.864   7.136   9.250  1.0231 -1.0906 -0.6432
 8177SOL     OW26537   5.851   5.301   5.902 -0.0341  0.3385  0.4308
 8177SOL    HW126538   5.914   5.279   5.970 -2.3056 -1.5421  2.0797
 8177SOL    HW226539   5.790   5.362   5.944 -1.1675 -0.4375 -0.0194
 8178SOL     OW26540   8.471   1.840   2.476 -0.2708 -0.2704 -0.3680
 8178SOL    HW126541   8.491   1.762   2.425 -3.5394 -0.5310 -1.4953
 8178SOL    HW226542   8.510   1.912   2.427 -2.1304 -0.6830 -2.6351
 8179SOL     OW26543   1.208   8.830  10.226 -0.2304  0.3101  0.0030
 8179SOL    HW126544   1.241   8.776  10.153 -2.9164  0.9274 -1.8427
 8179SOL    HW226545   1.189   8.767  10.295  0.1013 -0.6430 -0.7467
 8180SOL     OW26546   0.267   9.936   3.988 -1.3766 -0.4795 -0.7480
 8180SOL    HW126547   0.283   9.852   3.945 -1.3650 -0.7071 -0.3018
 8180SOL    HW226548   0.272  10.000   3.917  1.0622 -0.5716 -0.7393
 8181SOL     OW26549  10.774   7.101   0.541  0.8435 -0.1313 -0.1211
 8181SOL    HW126550  10.735   7.081   0.626  0.6733 -3.6376 -0.8685
 8181SOL    HW226551  10.867   7.080   0.552  0.4098 -3.2250 -1.3518
 8182SOL     OW26552   8.224   3.439   1.424 -0.2052  0.1029  0.6855
 8182SOL    HW126553   8.293   3.474   1.480 -1.2992  0.5510  1.7968
 8182SOL    HW226554   8.143   3.462   1.468 -1.1654  1.1972 -1.5152
 8183SOL     OW26555   7.390   2.611   6.073 -0.0508  0.0138 -0.5740
 8183SOL    HW126556   7.376   2.535   6.129 -0.1243 -0.1773 -0.8503
 8183SOL    HW226557   7.473   2.593   6.029  1.5886  1.5080  1.6676
 8184SOL     OW26558  10.512   6.577   3.077 -0.0463 -0.0134 -0.2306
 8184SOL    HW126559  10.595   6.547   3.114 -1.0415 -0.4989  1.7326
 8184SOL    HW226560  10.536   6.623   2.997  2.0483 -0.7427 -0.0586
 8185SOL     OW26561   2.250   5.164  10.401  0.2830 -0.5293  0.4538
 8185SOL    HW126562   2.314   5.155  10.330  1.5731 -1.7470  1.6911
 8185SOL    HW226563   2.169   5.128  10.366  0.6718 -0.3734 -0.6497
 8186SOL     OW26564   9.711   5.762  10.610 -0.1504  0.1923  0.3062
 8186SOL    HW126565   9.706   5.738  10.702  0.1233  2.2193  0.9061
 8186SOL    HW226566   9.804   5.784  10.596  0.3112 -2.2778 -1.1003
 8187SOL     OW26567   4.962   7.333  10.572 -0.4532 -0.3093  0.3058
 8187SOL    HW126568   4.879   7.345  10.617  0.6465  2.3570  1.8546
 8187SOL    HW226569   5.021   7.397  10.613  2.0510 -1.2942 -1.5083
 8188SOL     OW26570   6.348   2.753   7.596  0.2296  0.0296 -0.2012
 8188SOL    HW126571   6.380   2.697   7.667 -0.5525  3.1168  2.8435
 8188SOL    HW226572   6.396   2.835   7.607 -3.5402  2.4121  0.1230
 8189SOL     OW26573   1.493   6.223   2.742 -0.5947 -0.3333  0.1159
 8189SOL    HW126574   1.587   6.212   2.752  0.3281  2.7792 -3.0911
 8189SOL    HW226575   1.462   6.250   2.828  1.4493 -1.1917  1.1855
 8190SOL     OW26576  10.037   2.842  10.888 -0.2897 -0.2863  0.2324
 8190SOL    HW126577  10.006   2.886  10.810  0.3132 -0.7471 -0.2756
 8190SOL    HW226578  10.032   2.908  10.957  3.8616  1.8041 -1.1252
 8191SOL     OW26579   6.158   3.024   9.678 -0.6384  0.1837  0.1681
 8191SOL    HW126580   6.166   3.117   9.659  0.7604  0.1498  0.4365
 8191SOL    HW226581   6.170   3.018   9.773  0.2256 -0.3392  0.0381
 8192SOL     OW26582   0.243   2.177   6.912  0.5561  0.7222 -0.9681
 8192SOL    HW126583   0.289   2.101   6.876  1.0091  0.3543  0.3019
 8192SOL    HW226584   0.311   2.228   6.956  0.3116  2.0714 -2.0981
 8193SOL     OW26585   2.306   3.825   0.401  0.2303 -0.3402  0.1957
 8193SOL    HW126586   2.385   3.873   0.376 -0.4045  1.1202  0.8479
 8193SOL    HW226587   2.317   3.808   0.494 -0.1743 -0.2229  0.2668
 8194SOL     OW26588   6.328   0.411   3.690  0.7580 -0.3359 -0.1302
 8194SOL    HW126589   6.287   0.447   3.768  0.9464 -0.2331 -0.0767
 8194SOL    HW226590   6.312   0.475   3.622 -0.1260 -0.8162 -0.3835
 8195SOL     OW26591  10.244   0.123   5.175 -0.4343  0.1363  0.0900
 8195SOL    HW126592  10.226   0.154   5.264  1.4072 -0.3197  0.6656
 8195SOL    HW226593  10.337   0.098   5.176 -0.4243 -0.1202 -1.8951
 8196SOL     OW26594   5.976   4.285   8.186  0.3113  0.1615 -0.1941
 8196SOL    HW126595   5.971   4.375   8.156 -1.2222 -0.2500 -1.3121
 8196SOL    HW226596   5.963   4.232   8.106  0.9266 -1.0358  0.4686
 8197SOL     OW26597   8.266   5.550   9.139  0.7033 -0.2662 -0.0623
 8197SOL    HW126598   8.357   5.581   9.141  0.1530  1.6275 -1.1637
 8197SOL    HW226599   8.255   5.502   9.221  2.1739  1.0353  0.9664
 8198SOL     OW26600   2.720   9.228   0.741 -0.0803 -0.0798  0.1386
 8198SOL    HW126601   2.767   9.204   0.821 -1.2420 -2.0099  0.2843
 8198SOL    HW226602   2.753   9.316   0.720  1.3017 -0.1154  1.9164
 8199SOL     OW26603   0.367  10.574   8.409 -0.7225  0.1143  1.0991
 8199SOL    HW126604   0.358  10.647   8.470  1.4489  0.2287  1.3558
 8199SOL    HW226605   0.442  10.523   8.442  0.4037  0.0596 -1.3056
 8200SOL     OW26606   1.769   4.121   8.949  0.0497  0.6756  0.7355
 8200SOL    HW126607   1.813   4.165   8.876  0.8101  1.0102  1.3854
 8200SOL    HW226608   1.683   4.097   8.914  1.0867 -0.8958 -0.8960
 8201SOL     OW26609   6.140   4.310   4.161 -0.7245  0.1885 -0.6152
 8201SOL    HW126610   6.189   4.275   4.086 -1.3212  0.9033 -1.3570
 8201SOL    HW226611   6.174   4.261   4.236 -0.5846 -1.0273 -1.4307
 8202SOL     OW26612   3.297   3.954   8.931  0.2023  0.1491 -0.4355
 8202SOL    HW126613   3.279   3.918   8.844  0.7075 -3.5075  0.7926
 8202SOL    HW226614   3.389   3.936   8.946 -0.2512 -0.8813  1.4405
 8203SOL     OW26615   3.182   2.728   7.830 -0.0946  0.0199  0.3997
 8203SOL    HW126616   3.196   2.643   7.870 -3.1603 -1.2453 -0.9151
 8203SOL    HW226617   3.138   2.709   7.747 -1.1162  2.8766  0.1624
 8204SOL     OW26618   2.445   9.511   8.039  0.1472 -0.3030 -0.1965
 8204SOL    HW126619   2.479   9.423   8.020 -1.1256 -0.9281  0.2640
 8204SOL    HW226620   2.428   9.510   8.133  0.2997  0.5067 -0.1576
 8205SOL     OW26621   9.391   2.184   4.011 -0.5941 -0.4542  0.5097
 8205SOL    HW126622   9.329   2.256   4.022  0.2555  0.3036  0.4469
 8205SOL    HW226623   9.464   2.223   3.963  0.1682 -1.1950  1.0527
 8206SOL     OW26624   0.985   0.055   4.817 -0.9128  0.2686 -0.3951
 8206SOL    HW126625   1.026  -0.027   4.844  1.6897  1.1389 -1.3152
 8206SOL    HW226626   1.033   0.122   4.865 -0.9331  1.4003 -1.8743
 8207SOL     OW26627   5.168   7.875   1.712 -0.1017 -0.5995  0.1189
 8207SOL    HW126628   5.098   7.812   1.701 -1.1481  0.4464  0.5376
 8207SOL    HW226629   5.166   7.927   1.632 -0.2242 -0.1800  0.3894
 8208SOL     OW26630   1.398   5.184   5.006  0.1040  0.1714  0.6620
 8208SOL    HW126631   1.354   5.256   5.052 -0.0707 -0.0635  0.8688
 8208SOL    HW226632   1.487   5.186   5.040 -0.1473 -0.3017  1.3888
 8209SOL     OW26633   5.431  10.579   0.594 -0.0833  0.0637  0.0138
 8209SOL    HW126634   5.477  10.616   0.519  0.5362 -1.3206 -0.3160
 8209SOL    HW226635   5.338  10.587   0.571  0.1003 -0.4484 -0.9507
 8210SOL     OW26636   7.410   5.549   0.333 -0.0960 -0.1287  0.7085
 8210SOL    HW126637   7.325   5.582   0.302 -0.0709 -1.8905 -1.5266
 8210SOL    HW226638   7.471   5.621   0.317 -0.9552  0.7496  1.2635
 8211SOL     OW26639   9.024  10.865   5.121  0.0867 -0.1187  0.1634
 8211SOL    HW126640   9.050  10.905   5.038  0.2156  0.2742  0.3902
 8211SOL    HW226641   8.998  10.776   5.097  0.9169 -0.2851 -0.1877
 8212SOL     OW26642   7.130   2.951   1.476 -0.2693  0.6407  0.0726
 8212SOL    HW126643   7.085   3.025   1.516 -1.1296  0.6783 -0.9036
 8212SOL    HW226644   7.059   2.895   1.443  0.3869 -0.0112 -0.2710
 8213SOL     OW26645   7.987   9.033   6.100  0.4408  0.3408  0.0391
 8213SOL    HW126646   8.061   9.094   6.100  0.6860  0.0520 -0.3156
 8213SOL    HW226647   8.024   8.952   6.135 -0.0019  0.5305  0.9615
 8214SOL     OW26648   3.687   6.076   7.942  0.4762  0.5416 -0.6489
 8214SOL    HW126649   3.640   6.132   8.004  0.3258  2.0281 -2.0319
 8214SOL    HW226650   3.634   5.996   7.938  1.2361 -0.2293  2.1351
 8215SOL     OW26651   9.305   7.530   6.031  0.9048 -0.2744 -0.1106
 8215SOL    HW126652   9.345   7.445   6.015 -0.4107 -0.6769 -1.4595
 8215SOL    HW226653   9.216   7.510   6.059  0.1926  0.6481 -1.5952
 8216SOL     OW26654   4.085  10.138   8.656  0.5779  0.1781 -0.2312
 8216SOL    HW126655   4.075  10.149   8.561 -0.7966 -0.0839 -0.1255
 8216SOL    HW226656   4.145  10.209   8.681  0.7583  0.4134 -1.2494
 8217SOL     OW26657   8.614   9.245   8.053 -0.4231 -0.0440  0.0119
 8217SOL    HW126658   8.548   9.288   7.999 -1.9698 -0.9289  1.0947
 8217SOL    HW226659   8.576   9.245   8.141  1.8225  0.9992  1.0558
 8218SOL     OW26660   4.557   9.328   5.840  0.1827 -0.1702 -0.1896
 8218SOL    HW126661   4.640   9.364   5.871  0.8120  0.5619 -2.5121
 8218SOL    HW226662   4.496   9.401   5.844  0.1320 -0.2132 -0.1761
 8219SOL     OW26663   1.918   4.252   5.780 -0.9262 -0.0049  0.3678
 8219SOL    HW126664   1.988   4.312   5.805 -1.5624  0.9870 -0.1957
 8219SOL    HW226665   1.952   4.208   5.702 -0.6753  0.0044  0.4680
 8220SOL     OW26666   5.519   9.059   0.678  0.6970  0.1459  0.1713
 8220SOL    HW126667   5.559   9.137   0.717  1.1950 -0.8504  1.7783
 8220SOL    HW226668   5.593   9.005   0.651  0.3522  0.5309 -1.6573
 8221SOL     OW26669   4.896   8.830   5.439  0.3835  0.7594 -0.8368
 8221SOL    HW126670   4.904   8.911   5.489 -0.5756  0.4652 -0.1730
 8221SOL    HW226671   4.888   8.859   5.348  0.1595  1.4082 -0.6184
 8222SOL     OW26672  10.825   3.553   8.533 -0.6609 -0.2381  0.5157
 8222SOL    HW126673  10.852   3.501   8.608 -1.1722 -2.0470 -0.5129
 8222SOL    HW226674  10.745   3.597   8.562 -0.2621 -0.0421  1.3663
 8223SOL     OW26675   3.801   0.133   5.113  0.5774 -0.3965 -0.4799
 8223SOL    HW126676   3.864   0.199   5.084 -0.1023  0.3324 -0.3359
 8223SOL    HW226677   3.720   0.155   5.067 -0.2362  0.1450  1.1345
 8224SOL     OW26678   1.606  10.082   3.138 -0.0443  0.6729 -0.1582
 8224SOL    HW126679   1.630  10.118   3.223 -0.8309  0.4721  0.1614
 8224SOL    HW226680   1.599  10.158   3.081 -0.7764  0.9553  0.2853
 8225SOL     OW26681  10.908   8.464  10.131  0.3483  0.3054  0.6865
 8225SOL    HW126682  10.899   8.553  10.095 -1.2620  0.1639  0.6581
 8225SOL    HW226683  10.980   8.425  10.082  1.3613  1.7246  0.9862
 8226SOL     OW26684   2.841  10.994   3.752  0.0894 -0.1349  0.1281
 8226SOL    HW126685   2.837  10.943   3.833 -1.6025 -1.0897 -0.4905
 8226SOL    HW226686   2.926  10.972   3.714  0.4681 -0.4655  1.1455
 8227SOL     OW26687   5.301   4.458   2.698  0.0986 -0.0194  0.6020
 8227SOL    HW126688   5.221   4.501   2.727 -0.1687 -0.6162  0.7605
 8227SOL    HW226689   5.271   4.381   2.649  0.5666 -0.9921  1.7796
 8228SOL     OW26690   6.889   0.235   7.458 -0.0390  0.2332  0.3994
 8228SOL    HW126691   6.901   0.143   7.481 -0.7692  0.1746  0.5746
 8228SOL    HW226692   6.804   0.258   7.496  0.1254  0.9715  0.3316
 8229SOL     OW26693   6.169   9.559   7.324 -0.1119 -0.0295 -0.3212
 8229SOL    HW126694   6.180   9.540   7.417 -3.0579  1.6972  0.4868
 8229SOL    HW226695   6.144   9.475   7.285 -2.1754 -0.1394  1.1138
 8230SOL     OW26696   7.960   9.788   5.626  0.0176 -0.0008  0.1375
 8230SOL    HW126697   7.946   9.704   5.669  1.9729 -1.3321 -1.6153
 8230SOL    HW226698   7.895   9.791   5.556 -0.2270  0.0811  0.3664
 8231SOL     OW26699   1.997   5.516   7.606 -0.3938 -0.2244  0.8190
 8231SOL    HW126700   1.975   5.451   7.540  0.1504 -1.2351  1.5990
 8231SOL    HW226701   1.912   5.553   7.633 -1.1053 -2.7564  2.4826
 8232SOL     OW26702  10.154   0.118   5.759  0.0642  0.1653 -0.2810
 8232SOL    HW126703  10.166   0.167   5.840  2.4229  0.0874 -0.5188
 8232SOL    HW226704  10.242   0.109   5.723 -0.2988 -3.5013 -0.6943
 8233SOL     OW26705   3.187   5.348   4.207 -0.6589  0.3597 -0.3978
 8233SOL    HW126706   3.108   5.355   4.261 -0.9641 -3.5852 -0.0403
 8233SOL    HW226707   3.165   5.283   4.140  1.6849  0.5780 -1.4804
 8234SOL     OW26708   5.110  10.430   8.510  0.6093 -0.2599  0.5047
 8234SOL    HW126709   5.136  10.342   8.482  1.0430  0.1098 -0.3068
 8234SOL    HW226710   5.024  10.444   8.471  2.0969  1.0862 -2.7116
 8235SOL     OW26711   8.890   2.050  10.931  0.0225 -0.1280 -0.2930
 8235SOL    HW126712   8.831   2.024  10.860 -0.0232 -0.2627 -0.2059
 8235SOL    HW226713   8.952   2.110  10.890 -0.3887  0.2893 -0.3063
 8236SOL     OW26714   3.528   9.719  10.137 -0.1524 -0.0862 -0.0746
 8236SOL    HW126715   3.434   9.707  10.126  0.0643  0.2459 -2.9998
 8236SOL    HW226716   3.565   9.632  10.118  0.2877  0.5688 -2.4429
 8237SOL     OW26717   9.774  10.598   9.022  0.3470  0.0030 -0.2756
 8237SOL    HW126718   9.864  10.628   9.016 -0.1932  1.6816 -0.5871
 8237SOL    HW226719   9.778  10.518   9.073  1.7438  1.5035  2.1755
 8238SOL     OW26720   8.399   9.833   5.618  0.5520 -0.6393  0.2042
 8238SOL    HW126721   8.475   9.787   5.581  0.5585 -2.5515  2.3744
 8238SOL    HW226722   8.358   9.769   5.675  0.3395  1.9179  3.1721
 8239SOL     OW26723   3.508   0.678  10.316  0.0887  0.1152 -0.5030
 8239SOL    HW126724   3.583   0.734  10.298  0.4190  0.0385  0.5585
 8239SOL    HW226725   3.495   0.628  10.235  1.7787 -0.5594 -0.3881
 8240SOL     OW26726   4.440   2.014   8.836  0.5953  0.3356 -0.1101
 8240SOL    HW126727   4.486   1.957   8.897  0.9252  0.0496 -0.6125
 8240SOL    HW226728   4.485   2.098   8.844  0.7077  0.2695 -0.0325
 8241SOL     OW26729   3.910   3.420   1.018  0.3194  0.1377 -1.0629
 8241SOL    HW126730   3.987   3.368   0.992 -0.0020 -0.9383  0.0287
 8241SOL    HW226731   3.947   3.495   1.066  0.7032 -0.9962  0.5136
 8242SOL     OW26732   7.316   9.336   9.373  0.0662 -0.2865 -0.3448
 8242SOL    HW126733   7.368   9.347   9.453 -3.5457 -0.8565  2.3117
 8242SOL    HW226734   7.293   9.243   9.371 -1.8973  0.1556 -0.6210
 8243SOL     OW26735   3.737   9.925   2.967 -0.6684  0.6075 -0.0782
 8243SOL    HW126736   3.817   9.973   2.990  1.0180 -2.1221  0.2851
 8243SOL    HW226737   3.685   9.987   2.918  1.9725  2.3765 -0.8778
 8244SOL     OW26738   3.023  11.100   3.446 -0.2734 -0.2429 -0.3623
 8244SOL    HW126739   2.980  11.151   3.515  1.0790  0.0922  0.2602
 8244SOL    HW226740   3.033  11.013   3.483 -2.6811 -1.0912 -1.4664
 8245SOL     OW26741   5.569   8.133   9.893 -0.0065  0.1372  0.0420
 8245SOL    HW126742   5.540   8.206   9.838 -2.2671 -0.7153  0.0217
 8245SOL    HW226743   5.661   8.153   9.912 -0.2379  2.3903 -0.8905
 8246SOL     OW26744  11.000   2.568   5.191 -0.2209  0.1612 -0.0659
 8246SOL    HW126745  10.996   2.512   5.268 -0.9586  1.1679  0.6446
 8246SOL    HW226746  11.024   2.654   5.225 -1.0667  0.7415 -0.8920
 8247SOL     OW26747   1.315   3.969   6.169  0.0718 -0.1803  1.3600
 8247SOL    HW126748   1.285   4.059   6.179  0.3010  0.3764 -1.7709
 8247SOL    HW226749   1.408   3.971   6.192  0.6723  1.0107 -0.8862
 8248SOL     OW26750   3.928  10.427   4.238 -0.2078  0.6710 -0.2561
 8248SOL    HW126751   3.845  10.392   4.270 -1.8354  2.1751 -2.5603
 8248SOL    HW226752   3.994  10.387   4.295 -2.2693 -2.3962  0.2037
 8249SOL     OW26753   7.397  10.862   5.763 -0.4649 -0.6351  0.1901
 8249SOL    HW126754   7.444  10.862   5.680 -0.1420 -1.1181  0.3755
 8249SOL    HW226755   7.442  10.798   5.818 -0.0941  0.3326  1.0727
 8250SOL     OW26756   2.446  10.182   8.435  0.3551 -0.0484 -0.2727
 8250SOL    HW126757   2.394  10.243   8.383  1.8067 -0.2419 -2.0477
 8250SOL    HW226758   2.384  10.143   8.497 -0.7741  2.6293  0.4117
 8251SOL     OW26759   4.854   3.766  10.947 -0.1818  0.3577  0.1291
 8251SOL    HW126760   4.936   3.783  10.993 -0.1834  2.9217 -0.6496
 8251SOL    HW226761   4.880   3.717  10.869  0.5034  0.4971  0.2641
 8252SOL     OW26762   9.705   9.325   5.293  0.2956  0.6254 -0.2414
 8252SOL    HW126763   9.690   9.296   5.203 -0.3657 -0.2635  0.1429
 8252SOL    HW226764   9.794   9.294   5.313 -0.4011 -1.2733  0.1711
 8253SOL     OW26765   7.270   0.752   8.497  0.3511  0.5774 -0.5068
 8253SOL    HW126766   7.341   0.719   8.442 -0.2238 -0.1786 -0.8112
 8253SOL    HW226767   7.313   0.813   8.557  1.2506  0.1588 -0.7025
 8254SOL     OW26768   2.027   8.020   3.624  0.0582  0.7158  0.2457
 8254SOL    HW126769   2.110   8.030   3.577  3.2077 -1.2813  4.6748
 8254SOL    HW226770   2.018   8.102   3.673 -1.5937  1.5527 -1.3208
 8255SOL     OW26771   1.848   4.062   4.281  0.3367 -0.1522 -0.1432
 8255SOL    HW126772   1.882   4.038   4.195  0.9781  0.2409 -0.0062
 8255SOL    HW226773   1.851   3.981   4.332 -2.9671 -1.2026 -1.3705
 8256SOL     OW26774   4.392   2.543   2.337  0.2613 -0.0953  0.0059
 8256SOL    HW126775   4.419   2.493   2.415  1.2493  0.8632  0.3134
 8256SOL    HW226776   4.372   2.630   2.371 -1.4277 -0.2504 -0.5206
 8257SOL     OW26777   6.073   3.797   4.453  0.1497 -0.4004 -0.4366
 8257SOL    HW126778   6.102   3.829   4.539 -0.0835 -1.2384 -0.0358
 8257SOL    HW226779   6.012   3.864   4.422  0.9631  0.3845 -0.3913
 8258SOL     OW26780   7.689   0.816   7.915  0.1995  0.1765 -0.0712
 8258SOL    HW126781   7.739   0.832   7.835  0.3343 -1.4797 -0.3557
 8258SOL    HW226782   7.747   0.844   7.986  0.0903  1.6346 -0.5154
 8259SOL     OW26783   5.217  10.323  10.985 -0.1718  0.1250 -0.1501
 8259SOL    HW126784   5.175  10.269  10.918 -1.1520  1.1881 -0.4470
 8259SOL    HW226785   5.302  10.345  10.948  0.0037 -0.7351 -0.2710
 8260SOL     OW26786   8.992   7.035   6.052 -0.0987 -0.0031 -0.0047
 8260SOL    HW126787   8.930   7.030   6.124 -1.3034  2.1022 -0.8226
 8260SOL    HW226788   8.950   6.987   5.980  0.3210 -0.5984  0.1332
 8261SOL     OW26789   0.388   3.829  10.127  0.1788 -0.0448  0.1445
 8261SOL    HW126790   0.406   3.912  10.172  0.5875  0.6729 -1.2711
 8261SOL    HW226791   0.295   3.813  10.142  0.5104 -0.4190  2.1273
 8262SOL     OW26792   7.476   4.360   9.210  0.2027  0.0953 -0.0937
 8262SOL    HW126793   7.451   4.335   9.121 -0.0153 -0.8695  0.2352
 8262SOL    HW226794   7.527   4.286   9.243 -1.0036 -0.2216  1.1316
 8263SOL     OW26795   3.901   9.380   3.322  0.1780  0.2935  0.0204
 8263SOL    HW126796   3.946   9.323   3.385 -0.5716  1.1154  1.3451
 8263SOL    HW226797   3.830   9.419   3.372 -0.0336  1.5007 -1.1726
 8264SOL     OW26798   9.816   9.232   2.501 -0.1896  0.2089  0.2736
 8264SOL    HW126799   9.791   9.185   2.581 -0.6423  0.8424  0.5103
 8264SOL    HW226800   9.829   9.323   2.529 -0.3528  0.4376 -0.3733
 8265SOL     OW26801   7.782   9.564   1.944  0.4556  0.1764  0.2791
 8265SOL    HW126802   7.783   9.656   1.916  0.5783 -1.0111 -4.4843
 8265SOL    HW226803   7.694   9.534   1.923  0.8227 -1.1388  0.5605
 8266SOL     OW26804   4.615   6.479   8.673  0.5531  0.0524  0.1818
 8266SOL    HW126805   4.640   6.392   8.704 -0.4700 -0.3430 -0.0576
 8266SOL    HW226806   4.565   6.463   8.593  2.0711  0.9881 -1.0118
 8267SOL     OW26807   6.216   1.129   6.505  0.0569  0.0650 -0.3808
 8267SOL    HW126808   6.267   1.084   6.573  1.3655 -1.7154 -2.3890
 8267SOL    HW226809   6.264   1.210   6.489 -0.0184  0.2937  0.5067
 8268SOL     OW26810   5.441   5.778   2.609 -0.1338 -0.2616  0.7312
 8268SOL    HW126811   5.412   5.689   2.591 -2.5427  0.7087 -0.5841
 8268SOL    HW226812   5.537   5.771   2.614  0.1033 -2.3035 -3.2302
 8269SOL     OW26813   1.636   3.093   1.932 -0.0259  0.4101 -0.1972
 8269SOL    HW126814   1.541   3.092   1.922 -0.5540 -0.2680  3.5799
 8269SOL    HW226815   1.659   3.186   1.933 -0.7313  0.5927 -0.4817
 8270SOL     OW26816   9.540   8.436   7.735  0.0218 -0.1374  0.6487
 8270SOL    HW126817   9.562   8.519   7.692 -0.4748 -1.1161 -1.6000
 8270SOL    HW226818   9.609   8.425   7.800  1.4958  0.8630 -0.6608
 8271SOL     OW26819   7.784   4.750   2.946  0.6688 -0.1285  0.4690
 8271SOL    HW126820   7.749   4.829   2.986  2.2108  1.6014 -1.3343
 8271SOL    HW226821   7.854   4.722   3.005  0.4561  0.1842  0.8696
 8272SOL     OW26822   8.431   3.356  10.884  0.8288  0.2214  0.2142
 8272SOL    HW126823   8.480   3.277  10.858 -0.9822 -0.1745 -2.3913
 8272SOL    HW226824   8.479   3.390  10.960  1.7520 -3.3213  1.4266
 8273SOL     OW26825   7.151   4.897  10.750  0.2994 -0.3348 -0.3204
 8273SOL    HW126826   7.165   4.803  10.744  2.6090 -0.0851 -0.0832
 8273SOL    HW226827   7.066   4.907  10.792 -0.6648 -2.2843 -1.6907
 8274SOL     OW26828   0.347   1.476   1.304  0.5272 -0.1416 -0.5885
 8274SOL    HW126829   0.292   1.405   1.337 -0.2665  0.2827 -0.9910
 8274SOL    HW226830   0.343   1.467   1.209 -0.7961  1.3368 -0.7057
 8275SOL     OW26831   2.145   2.239   5.089 -0.6257  0.1223  0.4637
 8275SOL    HW126832   2.080   2.290   5.138  0.5156  1.7874  0.3637
 8275SOL    HW226833   2.129   2.262   4.998 -0.2472  0.1149  0.3944
 8276SOL     OW26834   2.324   9.530   7.788 -0.5552 -0.2670 -0.5219
 8276SOL    HW126835   2.375   9.452   7.765 -3.1644 -2.2949  0.0979
 8276SOL    HW226836   2.384   9.584   7.839  1.3236 -1.9152 -0.8708
 8277SOL     OW26837   6.137   7.148   6.274  0.3919  0.2784  0.0306
 8277SOL    HW126838   6.115   7.068   6.227 -1.7401  1.8279 -1.7895
 8277SOL    HW226839   6.172   7.207   6.207 -3.0745  2.6781  0.0789
 8278SOL     OW26840   2.103   2.446  10.927  0.0017 -0.4193 -0.6696
 8278SOL    HW126841   2.096   2.378  10.860 -0.1062 -0.9882 -0.0971
 8278SOL    HW226842   2.017   2.448  10.968 -0.0209  0.1288 -0.7446
 8279SOL     OW26843   4.821   4.767  11.004  1.1777  0.7373  0.4157
 8279SOL    HW126844   4.802   4.803  10.917 -0.3948  1.9545  1.2081
 8279SOL    HW226845   4.856   4.680  10.986  2.9287  1.7560 -1.4927
 8280SOL     OW26846   3.826   5.273   7.741  0.1448 -0.2023  0.1951
 8280SOL    HW126847   3.878   5.315   7.810 -1.5563  0.1332  1.3352
 8280SOL    HW226848   3.886   5.210   7.701  1.0098 -0.8786  2.4014
 8281SOL     OW26849   0.053   1.994   3.306 -0.2240  0.2908  0.1668
 8281SOL    HW126850   0.104   1.953   3.237 -1.1968 -1.4010  0.4119
 8281SOL    HW226851  -0.019   2.038   3.261 -0.8663 -0.8243  0.0702
 8282SOL     OW26852   8.696   3.843  11.055  0.0694  0.3056  0.3388
 8282SOL    HW126853   8.785   3.828  11.089  0.1334  0.4914  0.2541
 8282SOL    HW226854   8.692   3.937  11.039 -0.0526  0.2593  0.0899
 8283SOL     OW26855   6.857   9.577  10.347 -0.3092  0.0077  0.3284
 8283SOL    HW126856   6.823   9.645  10.405  0.5015  1.1445 -0.4681
 8283SOL    HW226857   6.949   9.601  10.333 -0.7640  0.5324 -2.4072
 8284SOL     OW26858   4.801   8.308   1.789  0.2647 -0.6707 -0.2311
 8284SOL    HW126859   4.865   8.303   1.860 -0.5768 -0.0251  0.5955
 8284SOL    HW226860   4.842   8.363   1.723  0.0336  0.8902  0.8808
 8285SOL     OW26861   3.346   5.548   4.952 -0.6521 -0.3471  0.1361
 8285SOL    HW126862   3.267   5.540   5.005 -0.5627 -0.3669  0.2658
 8285SOL    HW226863   3.352   5.464   4.905 -1.0100 -0.1381 -0.2931
 8286SOL     OW26864   6.487   4.221   1.797  0.1366 -0.1314 -0.2711
 8286SOL    HW126865   6.488   4.193   1.889  0.7426 -0.2426 -0.3075
 8286SOL    HW226866   6.480   4.139   1.747  1.4242 -0.1942 -0.3650
 8287SOL     OW26867   1.080   4.989   9.832  0.2629  0.2517  0.4064
 8287SOL    HW126868   1.057   4.960   9.744  1.3063 -2.0791  0.8214
 8287SOL    HW226869   1.156   4.936   9.856  1.0574  2.0062  2.1024
 8288SOL     OW26870   7.740   8.312   7.681  0.7387  0.5834  0.7971
 8288SOL    HW126871   7.712   8.385   7.736  2.7033  0.9311  1.4326
 8288SOL    HW226872   7.721   8.234   7.734 -3.8712  0.2457 -0.9410
 8289SOL     OW26873   8.767   4.753  10.570  0.4185  0.3504  0.3037
 8289SOL    HW126874   8.821   4.732  10.646 -1.3615 -1.3381  1.1838
 8289SOL    HW226875   8.830   4.767  10.500  2.1655  2.8425  2.2104
 8290SOL     OW26876   1.609   0.929   6.570  0.1035 -0.2218 -0.1590
 8290SOL    HW126877   1.699   0.906   6.544  0.0003  1.9982 -3.0923
 8290SOL    HW226878   1.554   0.882   6.508 -1.0500 -2.8810  2.6232
 8291SOL     OW26879   1.937   8.711   5.649 -0.5219  0.8466 -0.6617
 8291SOL    HW126880   1.933   8.615   5.648  1.2637  0.5811  2.8536
 8291SOL    HW226881   2.030   8.731   5.640 -0.6979  2.1574  0.2109
 8292SOL     OW26882   3.341   0.700   1.735  0.5584 -0.1735 -0.8858
 8292SOL    HW126883   3.436   0.707   1.724  0.7668 -2.7283 -1.2604
 8292SOL    HW226884   3.315   0.634   1.671 -1.2787 -0.4913  0.1376
 8293SOL     OW26885   5.029   1.077   6.828 -0.2027 -0.1385  0.4425
 8293SOL    HW126886   4.958   1.028   6.871  0.1183  1.9343  3.6853
 8293SOL    HW226887   5.098   1.012   6.814 -0.6660 -1.1314  2.4268
 8294SOL     OW26888   0.901   2.353   3.435  0.5712 -0.6260 -0.3225
 8294SOL    HW126889   0.954   2.305   3.372  1.2260 -1.1845  0.6287
 8294SOL    HW226890   0.836   2.399   3.382 -0.3359 -2.8439 -1.2690
 8295SOL     OW26891   4.967   7.809   9.718  0.2128  0.2737 -0.4383
 8295SOL    HW126892   4.903   7.873   9.688 -0.5959 -0.2849  0.0582
 8295SOL    HW226893   4.976   7.826   9.811 -0.3278 -0.6065 -0.2208
 8296SOL     OW26894   8.346   5.222   3.426  0.0119  0.9518  0.4420
 8296SOL    HW126895   8.262   5.266   3.439 -1.7499 -1.6380 -1.2372
 8296SOL    HW226896   8.391   5.230   3.510 -2.1190  1.9575  1.5608
 8297SOL     OW26897   8.862   5.436   7.897  0.1089  0.3924 -0.3164
 8297SOL    HW126898   8.818   5.363   7.943  2.8033 -1.6621 -0.7439
 8297SOL    HW226899   8.795   5.504   7.892 -2.8663 -2.2893 -0.5157
 8298SOL     OW26900   1.994   3.646   0.805  0.1186  0.1479  0.0523
 8298SOL    HW126901   1.922   3.685   0.756 -0.3907  0.3137  0.9057
 8298SOL    HW226902   2.073   3.682   0.764 -0.3137  3.2002  1.5955
 8299SOL     OW26903   6.983   0.109   5.615 -0.2675 -0.2025 -0.0471
 8299SOL    HW126904   6.991   0.017   5.642  0.6532 -0.6127 -1.5605
 8299SOL    HW226905   6.986   0.158   5.697 -2.3889 -1.5731  0.9239
 8300SOL     OW26906   1.645   2.448   2.324 -0.1559 -0.0268 -0.1886
 8300SOL    HW126907   1.617   2.461   2.414  3.3289  2.8441  0.7267
 8300SOL    HW226908   1.606   2.521   2.275  0.1283 -0.0101 -0.3953
 8301SOL     OW26909   8.061   4.289   3.744  0.1621  0.0591 -0.0937
 8301SOL    HW126910   8.001   4.315   3.674  3.0859  0.2778 -2.7063
 8301SOL    HW226911   8.065   4.366   3.802 -0.9951  0.5361 -0.6147
 8302SOL     OW26912   8.383   8.537   9.863 -0.5031 -0.2848 -0.4353
 8302SOL    HW126913   8.300   8.577   9.890 -1.1702 -1.4684 -0.6550
 8302SOL    HW226914   8.434   8.610   9.826 -1.1482  0.5917  0.3531
 8303SOL     OW26915   4.140  10.733  10.816 -0.2601  0.1137  0.2213
 8303SOL    HW126916   4.149  10.670  10.887  0.8288  0.8092  0.7243
 8303SOL    HW226917   4.110  10.681  10.742 -0.2954 -0.8289  0.8745
 8304SOL     OW26918  11.019   7.025   9.934  0.0966 -0.0023 -0.0591
 8304SOL    HW126919  11.050   6.960   9.997  0.8643  1.7191  1.4019
 8304SOL    HW226920  11.082   7.021   9.862  2.0920  1.3474  1.5116
 8305SOL     OW26921   8.605   4.682   9.905  0.0763  0.2881  0.8261
 8305SOL    HW126922   8.559   4.598   9.899 -0.3515  0.2723  3.2512
 8305SOL    HW226923   8.697   4.659   9.915  0.4715  0.2733 -2.0039
 8306SOL     OW26924   7.229   1.856   6.639  0.2598  0.4515 -0.4443
 8306SOL    HW126925   7.210   1.790   6.572  1.2044  0.1819 -0.4732
 8306SOL    HW226926   7.173   1.832   6.713  1.1993 -0.9287 -0.1292
 8307SOL     OW26927   3.861   8.483   2.567 -0.3188  0.0640 -0.1652
 8307SOL    HW126928   3.866   8.421   2.495  0.0667 -1.6708  1.2914
 8307SOL    HW226929   3.848   8.429   2.645 -2.0540  1.9369  0.9565
 8308SOL     OW26930   0.364   7.665  10.753  0.3533  0.2619 -0.0048
 8308SOL    HW126931   0.272   7.647  10.733 -0.1285  0.1167  2.1195
 8308SOL    HW226932   0.411   7.636  10.675 -1.3246 -0.4514 -0.8115
 8309SOL     OW26933  10.466   4.160   0.389 -0.4951 -0.3311 -0.3509
 8309SOL    HW126934  10.371   4.171   0.392 -0.8625 -2.9392 -0.0149
 8309SOL    HW226935  10.487   4.110   0.468  0.7931 -1.8116 -1.5583
 8310SOL     OW26936   8.792   4.773   8.953 -0.1673  0.0649  0.5496
 8310SOL    HW126937   8.744   4.730   9.024 -0.0574 -2.1040 -0.6170
 8310SOL    HW226938   8.822   4.702   8.897  0.3359  1.6557 -1.3355
 8311SOL     OW26939   2.775   6.052   3.977 -0.6533  0.2417 -0.3070
 8311SOL    HW126940   2.766   5.967   3.935  1.1902  0.2355 -0.7958
 8311SOL    HW226941   2.870   6.068   3.977 -0.9834  2.5192 -0.7101
 8312SOL     OW26942  10.980   8.763   0.625  0.5184 -0.8558 -0.7146
 8312SOL    HW126943  10.932   8.686   0.594  1.5502 -1.4074 -0.9739
 8312SOL    HW226944  10.993   8.816   0.546  0.4092 -0.7540 -0.6629
 8313SOL     OW26945   3.267   6.240   6.267 -0.1556 -0.1311  0.0771
 8313SOL    HW126946   3.324   6.317   6.272 -1.5042  1.1852 -2.8225
 8313SOL    HW226947   3.213   6.245   6.346 -0.6083  2.2543 -0.3165
 8314SOL     OW26948   9.242   1.974   2.093  0.3476 -0.3769 -0.0609
 8314SOL    HW126949   9.225   1.933   2.177 -1.2491 -2.2440 -1.2191
 8314SOL    HW226950   9.337   1.964   2.079  1.2388  2.5988  2.7271
 8315SOL     OW26951   6.539   9.916   2.701 -0.1756  0.2875  0.1910
 8315SOL    HW126952   6.449   9.936   2.728 -0.2126  0.1102  0.2000
 8315SOL    HW226953   6.568   9.993   2.653 -0.0622  0.6742  0.8639
 8316SOL     OW26954   4.770   9.078   4.953 -0.3365 -0.1136 -0.0368
 8316SOL    HW126955   4.791   9.149   4.893 -0.4200  1.4749  1.7268
 8316SOL    HW226956   4.849   9.024   4.955  1.6421  2.5894  2.1303
 8317SOL     OW26957   3.551  10.558   5.017  0.0003  0.0852 -0.2088
 8317SOL    HW126958   3.562  10.484   5.076  1.2843 -0.0881 -0.6315
 8317SOL    HW226959   3.632  10.610   5.028 -0.2447  0.6517 -0.9651
 8318SOL     OW26960   4.496   7.989   4.478  0.9994 -0.3462 -0.0513
 8318SOL    HW126961   4.530   7.901   4.496  1.1082 -0.6368 -1.5382
 8318SOL    HW226962   4.401   7.979   4.485  1.0086 -0.5994 -0.2611
 8319SOL     OW26963   4.263   9.893   2.139 -0.4086 -0.0975 -0.2662
 8319SOL    HW126964   4.291   9.873   2.228  0.1142 -0.3884 -0.4867
 8319SOL    HW226965   4.308   9.974   2.117 -0.9400  0.2474 -0.0864
 8320SOL     OW26966   7.357  10.607  10.161 -0.6755  0.3936  0.4571
 8320SOL    HW126967   7.405  10.669  10.216  0.6795 -0.1862 -0.0111
 8320SOL    HW226968   7.389  10.521  10.189 -0.6846  0.0452 -0.5603
 8321SOL     OW26969   1.463   9.180   0.367  0.3649  0.4766  0.6445
 8321SOL    HW126970   1.383   9.129   0.353 -1.1731  2.9989 -0.5796
 8321SOL    HW226971   1.482   9.217   0.281  2.6805  0.2782  1.0090
 8322SOL     OW26972   1.540   2.186   8.999  0.5658  0.2908 -0.5719
 8322SOL    HW126973   1.537   2.187   9.095 -0.1628  3.3636 -0.5318
 8322SOL    HW226974   1.460   2.139   8.974  0.2302  0.3601  0.3292
 8323SOL     OW26975   0.628   6.641   6.916 -0.3210 -0.0905  0.1644
 8323SOL    HW126976   0.574   6.720   6.909 -0.3988 -0.1711 -0.1735
 8323SOL    HW226977   0.565   6.569   6.914 -0.1921 -0.1960 -0.4984
 8324SOL     OW26978   3.898   5.420   0.878 -0.4592 -0.8787  0.0358
 8324SOL    HW126979   3.899   5.326   0.895  0.8363 -0.5217  2.3212
 8324SOL    HW226980   3.856   5.458   0.956  1.2057  0.5660  0.2969
 8325SOL     OW26981   0.322   8.329  10.387  0.2466  0.3345  0.5034
 8325SOL    HW126982   0.379   8.291  10.320  0.3014 -0.0778  0.7770
 8325SOL    HW226983   0.265   8.388  10.338  1.4190  1.3615  0.3382
 8326SOL     OW26984   4.590   3.153   6.518 -0.1085  0.2261 -0.1856
 8326SOL    HW126985   4.633   3.239   6.512 -0.7309  0.6639  1.2208
 8326SOL    HW226986   4.497   3.172   6.506 -0.3131 -0.1543  0.7424
 8327SOL     OW26987   1.910   2.813   5.824 -0.2837 -0.7832 -0.4467
 8327SOL    HW126988   1.852   2.880   5.787 -0.8299 -0.9651  0.0789
 8327SOL    HW226989   1.882   2.732   5.782 -0.5060 -0.8966 -0.0719
 8328SOL     OW26990   3.867   5.361   4.735  0.4636 -0.1802  0.7166
 8328SOL    HW126991   3.780   5.376   4.698  0.4302  0.2351  0.9475
 8328SOL    HW226992   3.925   5.353   4.659  0.1038 -1.2995  0.5414
 8329SOL     OW26993   1.100   0.614   5.009 -0.1717  0.3062 -1.1746
 8329SOL    HW126994   1.057   0.658   5.083  1.3033  0.8187 -0.5936
 8329SOL    HW226995   1.100   0.679   4.939  0.8086  0.7859 -0.7468
 8330SOL     OW26996   5.316  10.069   8.893  0.8904  0.4168 -0.3046
 8330SOL    HW126997   5.272  10.090   8.975  0.1713 -0.6740 -0.3867
 8330SOL    HW226998   5.246  10.042   8.834  1.4971  0.2123 -0.9537
 8331SOL     OW26999   3.488   5.475   9.847  0.2771  0.3721  0.1674
 8331SOL    HW127000   3.478   5.408   9.915  0.9617 -2.3523 -2.1958
 8331SOL    HW227001   3.552   5.437   9.786 -2.1026  1.4620 -3.2739
 8332SOL     OW27002   6.767   7.667   0.142 -0.4075  0.8169 -0.2023
 8332SOL    HW127003   6.711   7.714   0.080 -0.8991  2.1245  1.1715
 8332SOL    HW227004   6.834   7.731   0.166 -0.9394  0.7837  1.5131
 8333SOL     OW27005   0.519   4.697   8.184 -0.1115 -0.0565 -0.2754
 8333SOL    HW127006   0.603   4.726   8.148  0.5908 -0.5862  0.8984
 8333SOL    HW227007   0.501   4.759   8.255 -0.5584 -0.1470 -0.3072
 8334SOL     OW27008  10.239   3.957   1.715  0.3551 -0.3554  0.7504
 8334SOL    HW127009  10.165   4.012   1.688 -1.4819 -3.3221 -0.8049
 8334SOL    HW227010  10.316   4.001   1.678 -1.0611  0.9109 -0.9111
 8335SOL     OW27011   8.858   8.502   3.462 -0.1146  0.2962 -0.7636
 8335SOL    HW127012   8.763   8.494   3.450 -0.0588 -2.0354 -0.0366
 8335SOL    HW227013   8.878   8.590   3.430 -2.3239  0.3870 -2.1499
 8336SOL     OW27014  10.842   8.700  10.309  0.2308  0.0253  0.1952
 8336SOL    HW127015  10.779   8.718  10.239  0.8887 -0.9211 -0.6745
 8336SOL    HW227016  10.856   8.605  10.305 -1.4261 -0.4532  3.1189
 8337SOL     OW27017   9.884   4.631   9.514 -0.3310  0.6718 -0.7799
 8337SOL    HW127018   9.870   4.632   9.419 -0.5556  2.2652 -0.7724
 8337SOL    HW227019   9.976   4.608   9.526 -0.8361 -1.7938 -1.2493
 8338SOL     OW27020   3.713   1.528   4.230  0.1295 -0.1003 -0.6195
 8338SOL    HW127021   3.733   1.548   4.138 -0.4257 -1.5860 -1.0866
 8338SOL    HW227022   3.642   1.589   4.252 -0.8245 -0.7737 -1.6853
 8339SOL     OW27023   0.776   2.224   4.153 -0.0608  0.0500  0.3777
 8339SOL    HW127024   0.739   2.279   4.084  1.3797  0.8182  0.1622
 8339SOL    HW227025   0.871   2.235   4.143  0.1852  0.6906  2.8735
 8340SOL     OW27026   0.580   2.922   0.737  0.2726  0.6027 -1.2779
 8340SOL    HW127027   0.648   2.987   0.753  0.9676  0.6758 -3.9769
 8340SOL    HW227028   0.619   2.838   0.761 -0.1278  0.9652  0.8548
 8341SOL     OW27029   5.057   9.455  10.436 -0.6108 -0.4420 -0.4682
 8341SOL    HW127030   5.104   9.380  10.400 -0.5926 -0.5021 -0.3190
 8341SOL    HW227031   5.119   9.497  10.496 -0.2751  0.2770 -1.2988
 8342SOL     OW27032   7.873   9.339   9.546 -0.0875 -0.1408  0.0714
 8342SOL    HW127033   7.824   9.395   9.608 -0.3710  0.3239 -0.5643
 8342SOL    HW227034   7.814   9.329   9.472  0.2936 -0.6220 -0.1690
 8343SOL     OW27035   3.450   8.175  10.041  0.1922  0.3233 -0.3404
 8343SOL    HW127036   3.466   8.195  10.133  1.1660  1.9656 -0.8243
 8343SOL    HW227037   3.364   8.213  10.022  0.0220  0.0417 -0.1405
 8344SOL     OW27038   3.422   1.024   3.987  0.1183  0.7504  1.0858
 8344SOL    HW127039   3.330   1.042   3.966  0.3254  2.3980  1.4655
 8344SOL    HW227040   3.450   1.100   4.038  1.6180  0.1259  1.2315
 8345SOL     OW27041   7.874   0.752   2.020  0.1439 -0.1366 -0.2945
 8345SOL    HW127042   7.839   0.668   1.990  0.2143  0.3805 -1.9193
 8345SOL    HW227043   7.965   0.753   1.989  0.6472 -0.1212  1.1184
 8346SOL     OW27044   2.473   6.553  10.357 -0.0192  0.0069 -0.2809
 8346SOL    HW127045   2.562   6.586  10.369 -0.2287 -0.4466  4.2062
 8346SOL    HW227046   2.419   6.609  10.413 -2.3259 -0.8434 -1.5127
 8347SOL     OW27047   6.746   6.231   5.513  0.0489 -0.6754  0.2715
 8347SOL    HW127048   6.745   6.238   5.608 -0.5925  0.3418  0.2036
 8347SOL    HW227049   6.734   6.321   5.482 -0.0591 -1.0348 -0.7680
 8348SOL     OW27050   1.092  10.771   0.372  0.7607  0.5196  0.0365
 8348SOL    HW127051   1.086  10.690   0.422  1.7419  0.7023  0.4841
 8348SOL    HW227052   1.006  10.782   0.332  1.1788 -1.7870 -1.7050
 8349SOL     OW27053   0.366   1.979   8.020 -0.4527  0.2046 -0.3509
 8349SOL    HW127054   0.310   1.954   7.947  1.2847  1.1086 -2.0836
 8349SOL    HW227055   0.443   2.018   7.979  0.4499  1.0637  1.9892
 8350SOL     OW27056   6.843   7.630   2.173 -0.2746  0.3235  0.0021
 8350SOL    HW127057   6.800   7.694   2.117  1.1673  1.2791 -0.0618
 8350SOL    HW227058   6.832   7.664   2.262 -1.5649 -0.6058  0.2357
 8351SOL     OW27059   8.572  10.343   9.831  0.2721 -0.2412  0.4457
 8351SOL    HW127060   8.575  10.263   9.778 -0.0549 -1.5427  2.2956
 8351SOL    HW227061   8.598  10.314   9.919 -0.6700  1.5337  1.3495
 8352SOL     OW27062   6.686   9.378   1.214  0.1898  0.2992  0.4324
 8352SOL    HW127063   6.779   9.358   1.223  0.2478  1.2042  2.4020
 8352SOL    HW227064   6.654   9.316   1.148  1.7041 -1.6209  1.3982
 8353SOL     OW27065   7.713   9.839   0.074 -0.3551 -0.1099  0.0235
 8353SOL    HW127066   7.742   9.754   0.041  0.8269 -0.7988  2.5614
 8353SOL    HW227067   7.702   9.892  -0.005  0.7347 -2.0311 -1.5444
 8354SOL     OW27068   5.352   6.062   6.303  0.4183 -0.3603  0.5342
 8354SOL    HW127069   5.344   6.144   6.254 -1.4709 -1.0946 -0.4968
 8354SOL    HW227070   5.363   6.089   6.394 -3.1962  1.1615  0.6981
 8355SOL     OW27071   5.900   1.346   4.202 -0.1421  0.3013  0.4058
 8355SOL    HW127072   5.956   1.291   4.147 -1.1925  0.0844 -0.4644
 8355SOL    HW227073   5.900   1.302   4.287 -0.4848 -0.7311 -0.1110
 8356SOL     OW27074  10.417   0.252  10.809 -0.2551  0.6404 -0.1187
 8356SOL    HW127075  10.443   0.214  10.726 -0.7356  0.3051 -0.1233
 8356SOL    HW227076  10.426   0.181  10.873  1.0859  1.1758  0.3116
 8357SOL     OW27077   7.942   6.004   9.688 -0.4850  0.6564  0.6600
 8357SOL    HW127078   8.025   6.046   9.665  0.4352 -0.8449  1.0500
 8357SOL    HW227079   7.882   6.077   9.705  1.3998  1.8685  2.6712
 8358SOL     OW27080   1.736   5.751  10.058 -0.6176 -0.5846 -0.5319
 8358SOL    HW127081   1.684   5.743   9.979 -2.7761 -1.4708  0.8850
 8358SOL    HW227082   1.682   5.803  10.117  1.4211  1.0469  0.0301
 8359SOL     OW27083   6.476   4.824   7.804 -0.2262  0.6480 -0.1065
 8359SOL    HW127084   6.568   4.843   7.786  0.4840  0.0503  2.5769
 8359SOL    HW227085   6.458   4.745   7.753  1.0815  0.1128  0.2270
 8360SOL     OW27086   7.998  10.594   8.080 -0.5205  0.1044 -0.6537
 8360SOL    HW127087   8.023  10.520   8.136 -0.1913  1.4995  1.1611
 8360SOL    HW227088   8.081  10.623   8.042 -0.8302 -1.2317 -2.4343
 8361SOL     OW27089   8.192   0.489   6.317 -0.6972 -0.2226  0.2131
 8361SOL    HW127090   8.157   0.492   6.228 -0.6621 -0.1543  0.2024
 8361SOL    HW227091   8.117   0.510   6.372 -0.6686 -0.0534  0.1882
 8362SOL     OW27092   8.532   2.636   8.286 -0.1634  0.6461 -0.5878
 8362SOL    HW127093   8.610   2.687   8.306 -0.2761  1.1303 -1.3614
 8362SOL    HW227094   8.477   2.694   8.234 -2.1454  1.1952  1.8851
 8363SOL     OW27095   5.751   3.973   0.855  0.6673 -0.1144  0.5139
 8363SOL    HW127096   5.810   3.929   0.795  0.1139 -0.4847  0.2293
 8363SOL    HW227097   5.780   4.064   0.855 -0.3956  0.2969 -1.6898
 8364SOL     OW27098   5.911   7.155   5.987 -0.5029 -0.1935  0.2249
 8364SOL    HW127099   5.951   7.242   5.997 -1.6875  0.3259  0.7532
 8364SOL    HW227100   5.830   7.172   5.940  0.8744 -1.5208 -2.8976
 8365SOL     OW27101   0.968   7.090   1.765  0.8849 -0.1509 -0.4437
 8365SOL    HW127102   0.908   7.143   1.713 -0.4457 -1.0757  0.0908
 8365SOL    HW227103   1.021   7.153   1.813 -1.3965  0.7628  1.0439
 8366SOL     OW27104   4.468  10.194   2.423  0.0737  0.0104  0.0174
 8366SOL    HW127105   4.405  10.266   2.424 -1.1426 -0.9281 -2.2634
 8366SOL    HW227106   4.419  10.118   2.454  0.0309 -0.7054 -1.6817
 8367SOL     OW27107   3.943   2.101   5.617 -0.2469  0.1381  0.0807
 8367SOL    HW127108   3.885   2.164   5.660  0.5087 -0.4320  2.0167
 8367SOL    HW227109   3.933   2.020   5.667  3.2527  0.4043  1.5070
 8368SOL     OW27110   8.844   7.671   0.809 -0.2576  0.5864 -0.0846
 8368SOL    HW127111   8.937   7.654   0.823 -0.4760  0.9440  2.0156
 8368SOL    HW227112   8.822   7.741   0.870 -2.6141 -1.6683  1.8535
 8369SOL     OW27113  10.459  10.761   5.674  0.1767  0.1987 -0.4677
 8369SOL    HW127114  10.397  10.692   5.650 -2.7256  2.7630 -0.9974
 8369SOL    HW227115  10.426  10.840   5.631  1.7822  2.4957  2.1071
 8370SOL     OW27116   4.892   5.914   0.254  0.1144  0.6524  0.7538
 8370SOL    HW127117   4.812   5.956   0.286 -0.3967 -0.0496  0.4305
 8370SOL    HW227118   4.942   5.894   0.333  1.5916  4.0914  0.8763
 8371SOL     OW27119   9.936   5.959   4.519 -0.0857 -0.0023  0.3826
 8371SOL    HW127120  10.004   5.955   4.452  0.1470  2.7551  0.3196
 8371SOL    HW227121   9.975   6.008   4.591 -2.1112  2.2847  0.0725
 8372SOL     OW27122   5.115   6.641   4.266  0.7001 -0.3044  0.8608
 8372SOL    HW127123   5.146   6.566   4.215  1.8988  0.5408  0.2856
 8372SOL    HW227124   5.192   6.697   4.275  0.6177 -0.5377  3.8906
 8373SOL     OW27125   4.184   1.643   0.509  0.1704  0.0922 -0.5474
 8373SOL    HW127126   4.268   1.664   0.467  0.3697  2.6131  0.9531
 8373SOL    HW227127   4.118   1.675   0.447  0.4268  1.7573 -0.0077
 8374SOL     OW27128   6.999   0.569   9.646 -0.3787  0.3996 -0.2441
 8374SOL    HW127129   7.044   0.639   9.693  2.7802 -0.8153 -1.2405
 8374SOL    HW227130   6.918   0.556   9.696  0.5396  2.3662  1.9839
 8375SOL     OW27131  10.178   5.828   7.494 -0.1857 -0.2639 -0.6126
 8375SOL    HW127132  10.242   5.865   7.555 -0.4001  1.2814 -1.2758
 8375SOL    HW227133  10.142   5.904   7.448 -1.2649 -1.2498 -1.4580
 8376SOL     OW27134   2.401   1.508   0.387 -0.1306  0.1729  0.3581
 8376SOL    HW127135   2.338   1.554   0.443 -0.7577 -0.0611 -0.1372
 8376SOL    HW227136   2.465   1.574   0.363 -0.5628  0.5851  0.3284
 8377SOL     OW27137   5.283   0.325   9.382  0.1361  0.3723 -0.3574
 8377SOL    HW127138   5.299   0.249   9.325  2.4676 -2.4135  3.4803
 8377SOL    HW227139   5.371   0.358   9.402 -0.6875  2.1840  0.4541
 8378SOL     OW27140   9.480   0.921   3.875 -0.2148 -0.0663 -0.6630
 8378SOL    HW127141   9.398   0.875   3.886  0.7708 -1.5014  1.1264
 8378SOL    HW227142   9.470   1.001   3.927 -0.5771 -0.0786 -0.7106
 8379SOL     OW27143   9.696   7.288   1.392 -0.0370  0.5225  0.0472
 8379SOL    HW127144   9.758   7.281   1.465 -0.7659 -0.4930  0.5802
 8379SOL    HW227145   9.633   7.354   1.421 -0.7876 -0.4611  0.6935
 8380SOL     OW27146   1.435   6.612   2.753 -0.3961  0.9416  0.4917
 8380SOL    HW127147   1.398   6.578   2.671 -0.0661  0.9032  0.3568
 8380SOL    HW227148   1.366   6.598   2.818  0.0773 -0.8939  0.6606
 8381SOL     OW27149   3.785   2.165   7.591  0.3824  0.2670  0.0201
 8381SOL    HW127150   3.737   2.123   7.520  0.9997  1.3866 -1.1112
 8381SOL    HW227151   3.749   2.254   7.595  2.8165  1.4301 -1.4412
 8382SOL     OW27152   1.393   4.499   2.189 -0.1773  0.0016  0.0451
 8382SOL    HW127153   1.303   4.477   2.213 -0.8975  2.4456 -0.1452
 8382SOL    HW227154   1.425   4.551   2.262  1.7585 -2.2064  0.9037
 8383SOL     OW27155   3.696   8.195   6.874 -0.1373  0.5856  0.1468
 8383SOL    HW127156   3.700   8.275   6.926 -1.7213  1.7758 -1.4591
 8383SOL    HW227157   3.768   8.203   6.811  1.7009 -0.7972  1.9425
 8384SOL     OW27158   0.859   1.407   5.661 -0.2985  0.0201 -0.1069
 8384SOL    HW127159   0.859   1.474   5.592  0.2021  0.8860  0.7181
 8384SOL    HW227160   0.767   1.385   5.672 -0.3881 -0.1253 -1.0447
 8385SOL     OW27161   6.911   2.784   3.322 -0.0999 -0.6066 -0.2928
 8385SOL    HW127162   6.826   2.803   3.284 -1.8962  0.8429  3.9053
 8385SOL    HW227163   6.900   2.700   3.365  0.4124 -0.2008  0.6590
 8386SOL     OW27164   1.960   0.294  10.542  0.3839  0.1327  0.4180
 8386SOL    HW127165   2.052   0.274  10.523  0.2745 -0.2777  0.3190
 8386SOL    HW227166   1.946   0.380  10.504  1.4426  1.3761  2.6351
 8387SOL     OW27167  10.254   5.787   5.172  0.5609  0.0820  0.3410
 8387SOL    HW127168  10.222   5.762   5.258 -1.1227  2.0853  0.3975
 8387SOL    HW227169  10.180   5.771   5.113  0.9609  0.6568 -0.3439
 8388SOL     OW27170   9.435   2.490   3.467  0.1277  0.1839  0.2146
 8388SOL    HW127171   9.508   2.550   3.480  0.1865  0.0501  0.5138
 8388SOL    HW227172   9.403   2.471   3.555 -0.3164  0.2968  0.0796
 8389SOL     OW27173   2.799   4.353   9.630 -0.2562 -0.2822  0.1746
 8389SOL    HW127174   2.786   4.262   9.603  1.1422 -1.3471  2.7796
 8389SOL    HW227175   2.845   4.347   9.713  0.9873  2.8656 -0.1581
 8390SOL     OW27176   2.507   6.703   7.456  0.9643 -0.0570  0.0244
 8390SOL    HW127177   2.592   6.747   7.458  0.0807  1.8468 -1.0525
 8390SOL    HW227178   2.469   6.728   7.372 -1.7632  1.4174  1.5525
 8391SOL     OW27179   3.686   2.353   6.248 -0.5761  0.4837 -0.2064
 8391SOL    HW127180   3.685   2.372   6.155  1.2460  1.1948 -0.1149
 8391SOL    HW227181   3.760   2.293   6.260 -0.2113  1.1279  0.8944
 8392SOL     OW27182   7.940   5.129  11.057 -0.2265  0.3416  0.0456
 8392SOL    HW127183   7.896   5.197  11.006 -5.4596 -2.8256 -0.3531
 8392SOL    HW227184   7.970   5.066  10.992 -1.0753 -0.6379  0.5738
 8393SOL     OW27185   7.275   4.087   1.724  0.1958 -0.7381 -0.0288
 8393SOL    HW127186   7.258   4.098   1.630 -0.4835 -1.1462  0.0481
 8393SOL    HW227187   7.240   4.001   1.746  0.7001 -0.8109  0.5223
 8394SOL     OW27188   9.469   6.206   2.507 -0.1630  0.0343 -0.0759
 8394SOL    HW127189   9.554   6.193   2.465  0.0492 -1.2895  0.7103
 8394SOL    HW227190   9.491   6.225   2.599 -0.7136 -0.1637  0.0962
 8395SOL     OW27191   1.472   6.627   1.369  0.0966 -0.8133 -0.6513
 8395SOL    HW127192   1.429   6.639   1.454  3.4133 -1.9465  1.3981
 8395SOL    HW227193   1.493   6.716   1.341  1.2194 -0.4461  1.1263
 8396SOL     OW27194   5.711   1.081   9.691 -0.2209  0.3876 -0.5051
 8396SOL    HW127195   5.746   1.148   9.749  1.4318 -0.1016 -0.8775
 8396SOL    HW227196   5.620   1.070   9.719  0.2934  0.7245  1.4553
 8397SOL     OW27197   5.529   2.139   3.702 -0.6247 -0.0055 -0.4736
 8397SOL    HW127198   5.459   2.074   3.692  0.4294 -1.0482 -1.2525
 8397SOL    HW227199   5.588   2.123   3.628  1.1187 -0.0030  0.8532
 8398SOL     OW27200   3.661   1.134   0.748 -0.7060 -0.1233 -0.0836
 8398SOL    HW127201   3.620   1.104   0.829 -0.5945 -0.0534 -0.0007
 8398SOL    HW227202   3.613   1.088   0.678  1.1565 -2.5833  0.1328
 8399SOL     OW27203   8.385   8.159   0.940  0.3790 -0.1610 -0.2067
 8399SOL    HW127204   8.447   8.183   0.871 -0.2227  0.4172 -0.5575
 8399SOL    HW227205   8.360   8.243   0.980 -1.2756 -0.2115 -1.0357
 8400SOL     OW27206   5.014   2.752   9.532  0.4746 -0.7047 -0.4640
 8400SOL    HW127207   5.104   2.748   9.500 -0.0702 -0.9819 -2.0676
 8400SOL    HW227208   5.007   2.679   9.594  1.3556 -0.6641 -0.3144
 8401SOL     OW27209   2.994   3.615   8.960  0.3425 -0.5191 -0.5582
 8401SOL    HW127210   2.992   3.528   9.002  0.9191 -0.4444 -0.3661
 8401SOL    HW227211   3.060   3.607   8.892 -0.6817 -0.6748 -1.5703
 8402SOL     OW27212   0.331   3.346   8.669 -0.0956  0.0694  0.5699
 8402SOL    HW127213   0.313   3.302   8.752 -0.6524 -0.7159  0.0587
 8402SOL    HW227214   0.390   3.418   8.691 -1.3970  0.7843  1.8693
 8403SOL     OW27215   9.290  10.003   7.299 -0.6357  0.0284  0.1234
 8403SOL    HW127216   9.353  10.019   7.228  0.7301 -0.3967  1.1886
 8403SOL    HW227217   9.263   9.912   7.287 -0.5118 -0.0009  0.0729
 8404SOL     OW27218   1.158   8.333   1.786  0.1091  0.2290  0.6568
 8404SOL    HW127219   1.152   8.259   1.847 -0.4597  0.6136  1.0718
 8404SOL    HW227220   1.228   8.308   1.725 -0.9248 -1.2259  0.0105
 8405SOL     OW27221   4.708   9.681   9.446 -0.6521 -0.5131 -0.3636
 8405SOL    HW127222   4.654   9.760   9.447 -0.0708 -0.0909  1.5759
 8405SOL    HW227223   4.647   9.610   9.423 -1.3687  0.3449 -1.2118
 8406SOL     OW27224   1.568   4.036   4.183  0.2011 -0.4348 -0.2951
 8406SOL    HW127225   1.525   4.099   4.125 -0.6863 -0.5721  0.1812
 8406SOL    HW227226   1.645   4.082   4.216 -1.3010  1.0888  1.3458
 8407SOL     OW27227   8.910   4.264   1.141 -0.3447  0.3443  0.1369
 8407SOL    HW127228   8.851   4.205   1.188  0.1237  0.1234  0.4531
 8407SOL    HW227229   8.973   4.293   1.207 -0.7187  1.4101  0.0506
 8408SOL     OW27230   6.175  10.599   4.535  0.2029 -0.2098  0.0698
 8408SOL    HW127231   6.231  10.617   4.611 -2.3293  2.0405  1.6026
 8408SOL    HW227232   6.101  10.550   4.572 -0.4338 -0.2552 -1.2200
 8409SOL     OW27233   0.195   0.906   9.541  0.0507 -0.0089  0.4746
 8409SOL    HW127234   0.187   0.996   9.512 -0.8492 -0.0590  0.5352
 8409SOL    HW227235   0.121   0.861   9.500 -1.3799 -0.0512  2.9142
 8410SOL     OW27236   9.660   6.047   9.324  0.2954  0.3467  0.1026
 8410SOL    HW127237   9.715   6.005   9.257  1.6142  2.2099 -0.0435
 8410SOL    HW227238   9.574   6.056   9.282  0.5260 -0.3794 -0.5564
 8411SOL     OW27239   1.184  10.825   5.824 -0.1665  0.6659 -0.1408
 8411SOL    HW127240   1.233  10.818   5.906 -0.0646  0.4726 -0.2180
 8411SOL    HW227241   1.167  10.735   5.798 -2.1873  0.7251  0.8459
 8412SOL     OW27242   9.915   9.110   0.509  0.6944 -0.0584 -0.2588
 8412SOL    HW127243   9.959   9.177   0.562  1.0944 -1.2763  0.9932
 8412SOL    HW227244   9.881   9.048   0.573  1.7446 -1.9182 -1.4247
 8413SOL     OW27245   4.513   2.090  10.172 -0.2597 -0.4364 -0.2872
 8413SOL    HW127246   4.490   2.140  10.093 -1.9077 -1.9488 -0.8361
 8413SOL    HW227247   4.523   2.000  10.141  0.2430 -0.8538  1.0491
 8414SOL     OW27248   5.508   5.244   9.840  0.1929 -0.0821 -0.7364
 8414SOL    HW127249   5.531   5.222   9.930  0.7010  0.9645 -0.5989
 8414SOL    HW227250   5.592   5.245   9.793 -0.1365 -1.3394 -1.4021
 8415SOL     OW27251   3.777  10.416   3.743  0.0583  0.0547  0.0705
 8415SOL    HW127252   3.798  10.323   3.753 -1.6958 -0.4578 -0.5849
 8415SOL    HW227253   3.829  10.445   3.668  0.4288 -0.4538  0.1275
 8416SOL     OW27254   0.867   1.658   9.529  0.0776 -0.5561 -0.0935
 8416SOL    HW127255   0.930   1.587   9.542 -1.4298 -1.7643  0.9606
 8416SOL    HW227256   0.808   1.651   9.603 -2.3438 -0.6161 -1.8952
 8417SOL     OW27257   5.063   1.655  10.280 -0.4097  0.4928  1.0258
 8417SOL    HW127258   5.129   1.724  10.267  1.7769 -1.7338 -0.7959
 8417SOL    HW227259   5.039   1.628  10.191 -2.3005 -0.1596  1.6937
 8418SOL     OW27260   5.040   6.392   6.538 -0.6700  0.2655 -0.3315
 8418SOL    HW127261   5.087   6.360   6.615 -0.1917  0.6342 -0.4706
 8418SOL    HW227262   5.109   6.419   6.478 -1.0288 -0.4132 -1.0631
 8419SOL     OW27263   6.808   2.770   6.549  0.3998 -0.7986 -0.8235
 8419SOL    HW127264   6.849   2.855   6.565 -3.0445  0.5033  3.0499
 8419SOL    HW227265   6.864   2.707   6.594 -0.0351  0.4808  1.7218
 8420SOL     OW27266   1.821   0.180   6.866  0.8678 -0.2516 -0.8659
 8420SOL    HW127267   1.910   0.171   6.900  0.5825 -0.5409 -0.1849
 8420SOL    HW227268   1.810   0.274   6.852  1.0072 -0.1348 -0.1949
 8421SOL     OW27269   0.677   7.270   1.813  0.4257  0.1800 -0.2433
 8421SOL    HW127270   0.602   7.315   1.773  0.7638 -0.0394 -1.1576
 8421SOL    HW227271   0.748   7.283   1.750  0.3869 -2.1314 -0.8476
 8422SOL     OW27272   4.736  10.207   6.347 -0.4180 -0.2587 -0.1760
 8422SOL    HW127273   4.688  10.262   6.408 -1.4794 -0.9951 -0.3191
 8422SOL    HW227274   4.752  10.126   6.395  2.0869  0.5006  0.4172
 8423SOL     OW27275   7.583   6.270   1.535 -0.4665 -0.2965  0.4100
 8423SOL    HW127276   7.584   6.353   1.581  0.2890 -0.5245  0.8219
 8423SOL    HW227277   7.586   6.294   1.442  0.4623  0.1360  0.5396
 8424SOL     OW27278   2.316  10.051   3.430 -0.0225  0.4206  0.9406
 8424SOL    HW127279   2.285   9.995   3.502  3.3531 -3.7517 -0.4073
 8424SOL    HW227280   2.274  10.015   3.352 -0.1076  1.8674  0.2916
 8425SOL     OW27281   7.183   1.287   4.865  0.3264  0.3569  0.0895
 8425SOL    HW127282   7.248   1.218   4.854 -0.0221  0.1638 -0.8852
 8425SOL    HW227283   7.213   1.358   4.809 -0.3839  0.1908 -0.5255
 8426SOL     OW27284   8.473  10.736   0.704  0.5011 -0.1853  0.0458
 8426SOL    HW127285   8.473  10.658   0.649  0.6998 -0.7331  0.8073
 8426SOL    HW227286   8.393  10.727   0.757  2.0928 -1.5186  2.3780
 8427SOL     OW27287   8.961   9.355   2.746 -0.1464 -0.4854 -0.2216
 8427SOL    HW127288   9.020   9.388   2.815 -0.2411  0.2060 -0.4697
 8427SOL    HW227289   8.895   9.423   2.736 -0.8854 -1.1786 -0.0822
 8428SOL     OW27290  10.635   4.142   9.239 -0.2093  0.0697  0.7890
 8428SOL    HW127291  10.607   4.161   9.150 -1.0045 -1.6779  0.6227
 8428SOL    HW227292  10.728   4.122   9.231 -0.7101 -2.1575 -0.0381
 8429SOL     OW27293   9.087   6.723   4.011  0.2603 -0.0491 -0.3048
 8429SOL    HW127294   9.094   6.808   3.968 -0.1527 -1.0961 -2.5424
 8429SOL    HW227295   9.033   6.670   3.953 -1.8919 -1.0590  2.3768
 8430SOL     OW27296   8.617   1.898  10.247 -0.1203  0.3853  0.4265
 8430SOL    HW127297   8.589   1.920  10.336  0.9026  1.7484  0.4398
 8430SOL    HW227298   8.670   1.972  10.219  1.2944 -0.9340 -0.5622
 8431SOL     OW27299   1.603   5.803   0.352  0.3164  0.1374 -0.5776
 8431SOL    HW127300   1.554   5.881   0.324  0.1540 -0.3597 -1.7294
 8431SOL    HW227301   1.547   5.763   0.418  0.2319  0.7996 -0.2376
 8432SOL     OW27302  10.240   3.831  10.154  0.1677  0.9245  0.5132
 8432SOL    HW127303  10.183   3.859  10.083  1.0069  0.5690 -0.3251
 8432SOL    HW227304  10.281   3.750  10.122  1.6703  1.5424  0.7762
 8433SOL     OW27305   3.193   1.421   1.325  0.0227 -0.2569 -0.7386
 8433SOL    HW127306   3.108   1.463   1.337 -0.2714 -0.8650 -0.6380
 8433SOL    HW227307   3.234   1.470   1.254  0.9455  2.0925  1.2732
 8434SOL     OW27308   0.742   1.428   6.241 -0.0612  0.0990 -0.1612
 8434SOL    HW127309   0.686   1.380   6.180  1.9859  0.5211 -2.4933
 8434SOL    HW227310   0.830   1.396   6.223  0.7996  1.3542  1.5583
 8435SOL     OW27311   1.309  10.722   8.882 -0.4203 -0.5193 -0.1341
 8435SOL    HW127312   1.273  10.790   8.940 -0.9817 -0.7890 -0.1689
 8435SOL    HW227313   1.244  10.652   8.883 -1.4865  0.3216 -2.7401
 8436SOL     OW27314   2.792   5.924   3.330 -0.6929  0.1659  0.1583
 8436SOL    HW127315   2.718   5.964   3.375 -0.3224  0.9277  0.1115
 8436SOL    HW227316   2.867   5.942   3.387 -0.9349 -3.1515  1.7118
 8437SOL     OW27317   4.197   5.529   4.731  0.7125 -0.1522  0.1330
 8437SOL    HW127318   4.236   5.443   4.741 -3.4361 -2.0252  2.7353
 8437SOL    HW227319   4.227   5.579   4.806  0.7175 -0.4190  0.3068
 8438SOL     OW27320   4.369   1.484   5.595 -0.5285 -0.1341  0.0450
 8438SOL    HW127321   4.344   1.428   5.522 -0.0108  0.1871 -0.3836
 8438SOL    HW227322   4.425   1.428   5.650  1.2114  0.3708 -1.1426
 8439SOL     OW27323   2.383   8.510   1.644  0.8489 -0.2469 -0.0834
 8439SOL    HW127324   2.478   8.511   1.643  0.8457 -0.0480 -0.3433
 8439SOL    HW227325   2.359   8.420   1.663  1.0977 -0.0574  1.1779
 8440SOL     OW27326   8.897   4.145   2.364  0.6808 -0.7835 -0.3974
 8440SOL    HW127327   8.826   4.209   2.355 -0.5126 -1.6586  1.8112
 8440SOL    HW227328   8.972   4.196   2.394 -0.0910 -0.3006  0.7721
 8441SOL     OW27329   3.337   9.215   0.610 -0.2060 -0.7574  0.3330
 8441SOL    HW127330   3.381   9.138   0.647  1.6202  0.3340  0.5532
 8441SOL    HW227331   3.245   9.205   0.638  0.4464 -1.6439  2.4193
 8442SOL     OW27332   6.887   5.009   9.393 -0.4848  0.2732 -0.3579
 8442SOL    HW127333   6.803   4.981   9.358 -0.1963  0.2675 -1.0664
 8442SOL    HW227334   6.939   4.929   9.398 -0.3086  0.3771 -0.5303
 8443SOL     OW27335   8.755   9.927   8.802  0.0357  0.0818  0.2042
 8443SOL    HW127336   8.802   9.877   8.735  2.5552  4.6567 -1.9501
 8443SOL    HW227337   8.800   9.906   8.884  2.1836  0.1575 -0.8998
 8444SOL     OW27338   8.215   4.452  10.900  0.0384  0.0879 -0.8054
 8444SOL    HW127339   8.182   4.531  10.857 -0.3630 -0.5450 -1.6893
 8444SOL    HW227340   8.143   4.422  10.955 -0.5622 -0.7495 -1.9916
 8445SOL     OW27341   5.571   3.500   4.970 -0.3166  0.4417 -0.2630
 8445SOL    HW127342   5.663   3.472   4.972 -0.6473 -0.7422 -0.6238
 8445SOL    HW227343   5.552   3.527   5.060 -0.1669 -1.2690  0.3209
 8446SOL     OW27344   2.441   5.527   9.129  0.3102  0.3301  0.3084
 8446SOL    HW127345   2.522   5.528   9.179  0.3321 -1.0579  0.3542
 8446SOL    HW227346   2.403   5.441   9.148 -0.4003  0.3521 -0.9316
 8447SOL     OW27347   0.743   7.491   7.546  0.2345 -0.0564 -0.1907
 8447SOL    HW127348   0.812   7.497   7.481  1.6266  0.0930  1.2388
 8447SOL    HW227349   0.785   7.514   7.629 -1.5171 -0.0040  0.7475
 8448SOL     OW27350   3.950   0.537   4.493 -0.8881 -0.1599 -0.0841
 8448SOL    HW127351   4.032   0.498   4.523  0.0048  1.7939  0.1248
 8448SOL    HW227352   3.914   0.472   4.432 -0.0899 -1.8230  1.1351
 8449SOL     OW27353   1.230   9.155   0.620  0.2934 -0.3682  0.5147
 8449SOL    HW127354   1.297   9.151   0.688 -0.4216  1.3722  1.3828
 8449SOL    HW227355   1.278   9.146   0.538  1.2845 -1.5162  1.1912
 8450SOL     OW27356   0.766  10.967   2.854 -0.2278  0.7068 -0.1175
 8450SOL    HW127357   0.729  10.948   2.768  0.8831 -2.7149 -0.0202
 8450SOL    HW227358   0.818  11.047   2.841  0.0736  0.1890 -2.6998
 8451SOL     OW27359   4.772   7.854   4.509 -0.4684  0.3413  0.0975
 8451SOL    HW127360   4.740   7.890   4.427 -2.5803 -1.4212  0.0698
 8451SOL    HW227361   4.784   7.761   4.492  0.6869  0.2161  1.3547
 8452SOL     OW27362   5.122   0.709   8.781 -0.0573 -0.8161 -0.5649
 8452SOL    HW127363   5.067   0.784   8.802  1.9034  0.2700  1.0822
 8452SOL    HW227364   5.177   0.739   8.708  0.8801 -0.5291  0.2366
 8453SOL     OW27365  11.076   1.402   1.364 -0.4960  0.3792 -0.2159
 8453SOL    HW127366  11.007   1.367   1.307 -1.2572  0.8305  0.4037
 8453SOL    HW227367  11.144   1.335   1.362 -0.4188  0.4613 -1.7844
 8454SOL     OW27368   3.015   9.414  11.000 -0.3745 -0.5056  0.0175
 8454SOL    HW127369   2.996   9.358  10.924  2.3577 -2.0305  0.3349
 8454SOL    HW227370   3.035   9.353  11.071  0.8472  0.8727  0.9180
 8455SOL     OW27371   6.216   4.602   3.507  0.2413 -1.2343  0.6672
 8455SOL    HW127372   6.308   4.588   3.527  0.5281 -0.0085  0.2588
 8455SOL    HW227373   6.180   4.514   3.495  1.2467 -1.7391  1.2606
 8456SOL     OW27374   2.846  10.284   9.105  0.0004  0.4827 -0.6660
 8456SOL    HW127375   2.751  10.284   9.121  0.0029  2.1323 -0.4732
 8456SOL    HW227376   2.858  10.221   9.034 -1.0668 -0.7123  0.1543
 8457SOL     OW27377   6.302   0.680   0.842  0.0146  0.5853 -0.3132
 8457SOL    HW127378   6.240   0.698   0.771  2.7864  0.5558 -2.9618
 8457SOL    HW227379   6.364   0.617   0.804  1.7467  0.7168  2.0831
 8458SOL     OW27380   6.967   8.531   7.465 -0.1558  0.1120  0.1193
 8458SOL    HW127381   7.009   8.528   7.380 -0.0999 -2.6705  0.1467
 8458SOL    HW227382   7.020   8.592   7.516  0.7173  0.6411 -1.3647
 8459SOL     OW27383   0.080   1.781   5.552  0.2042  0.4932  0.4437
 8459SOL    HW127384   0.121   1.843   5.492  1.9673 -0.9962  0.0131
 8459SOL    HW227385   0.153   1.734   5.592 -1.0302 -1.0474  1.0146
 8460SOL     OW27386  10.370   6.049   4.807  0.7796  0.2246  0.3946
 8460SOL    HW127387  10.413   6.130   4.836  2.5235 -0.8800  1.0718
 8460SOL    HW227388  10.440   6.000   4.764  0.3114 -1.8254  1.8491
 8461SOL     OW27389   9.705   6.408   3.403 -0.3704  0.2521 -0.2451
 8461SOL    HW127390   9.624   6.436   3.445 -1.2014 -1.9863 -0.2167
 8461SOL    HW227391   9.689   6.316   3.380  2.5372 -0.5641  0.6839
 8462SOL     OW27392   7.789   1.435   7.036 -0.8492  0.1565  0.1371
 8462SOL    HW127393   7.796   1.466   6.946  3.7919  1.0786  0.5837
 8462SOL    HW227394   7.787   1.339   7.028 -1.2352  0.2391 -0.9281
 8463SOL     OW27395   6.870  10.560   6.475  0.2661  0.2562  0.1023
 8463SOL    HW127396   6.828  10.527   6.555 -0.3067  1.2865  0.2462
 8463SOL    HW227397   6.797  10.592   6.422  0.8464  1.9082  0.2625
 8464SOL     OW27398   2.144   7.918   5.213 -0.3378 -0.6166  0.5439
 8464SOL    HW127399   2.143   7.879   5.300  1.9164  1.0892  1.4274
 8464SOL    HW227400   2.206   7.865   5.163 -0.8895 -0.9968  0.2441
 8465SOL     OW27401   7.249   2.839   5.568  0.2001 -0.0801  0.2601
 8465SOL    HW127402   7.321   2.894   5.601  0.0994  0.3860 -0.2833
 8465SOL    HW227403   7.216   2.794   5.646 -1.3666  2.5271  1.2324
 8466SOL     OW27404   0.224   3.168   7.009  0.2351  0.0801 -0.0343
 8466SOL    HW127405   0.272   3.122   6.940 -0.6318 -1.4334  0.3199
 8466SOL    HW227406   0.134   3.137   7.000 -0.0278  0.3655  1.3551
 8467SOL     OW27407   7.343   4.823   7.291 -0.5967 -0.4359 -0.2921
 8467SOL    HW127408   7.267   4.809   7.235 -0.2909  0.4343 -0.9312
 8467SOL    HW227409   7.306   4.843   7.377 -1.0815 -0.0906 -0.5810
 8468SOL     OW27410   6.707   9.667   2.778 -0.4282 -0.7385 -0.0344
 8468SOL    HW127411   6.735   9.587   2.733  0.1651 -1.1533  1.0252
 8468SOL    HW227412   6.681   9.637   2.865  1.6367  0.4465  1.0581
 8469SOL     OW27413   5.229   3.245   7.622  0.1564  0.1725 -0.0410
 8469SOL    HW127414   5.288   3.289   7.561  2.1430 -0.2060  1.4714
 8469SOL    HW227415   5.213   3.310   7.690 -3.3398  1.1641 -1.5910
 8470SOL     OW27416   6.934   8.988   8.494  0.2138  0.9033  1.1896
 8470SOL    HW127417   6.890   9.073   8.491 -1.0745  0.2413  0.0111
 8470SOL    HW227418   6.896   8.939   8.421  0.7470 -0.7795  1.9955
 8471SOL     OW27419   1.257   3.091   6.489  0.5355 -0.0127 -0.5495
 8471SOL    HW127420   1.259   2.996   6.500 -0.0138  0.1825  1.7434
 8471SOL    HW227421   1.316   3.108   6.416  3.2569 -1.8652  1.0513
 8472SOL     OW27422   7.175   2.836   2.776  0.2371 -0.5192  0.7296
 8472SOL    HW127423   7.131   2.775   2.716 -2.1357  1.5159  0.2024
 8472SOL    HW227424   7.145   2.923   2.748  1.4666  0.7298  2.9790
 8473SOL     OW27425  10.251   0.145   3.507 -0.0590  0.0781  0.1788
 8473SOL    HW127426  10.311   0.184   3.570  0.6100  2.8663 -1.9669
 8473SOL    HW227427  10.307   0.100   3.444 -0.7017 -2.4358  1.2446
 8474SOL     OW27428   3.436   8.328   5.381  0.2841  0.1086  0.9791
 8474SOL    HW127429   3.526   8.336   5.349 -0.2085  0.8376 -0.3038
 8474SOL    HW227430   3.443   8.342   5.475  1.7957 -2.2439  1.2895
 8475SOL     OW27431   9.476   3.599   9.065  0.3695 -0.1475 -1.0104
 8475SOL    HW127432   9.472   3.545   8.986  0.1153 -0.3555 -0.8551
 8475SOL    HW227433   9.394   3.581   9.111 -0.8951  2.1527 -2.1369
 8476SOL     OW27434   1.242   9.803   6.567 -0.4719  0.2144 -0.1542
 8476SOL    HW127435   1.185   9.756   6.628 -1.5954 -2.3862 -2.9296
 8476SOL    HW227436   1.201   9.890   6.558 -2.7627 -0.8069 -0.3584
 8477SOL     OW27437   2.532   5.215   1.861 -0.7018 -0.2500  0.6696
 8477SOL    HW127438   2.465   5.257   1.914 -0.9903 -0.8569  0.7955
 8477SOL    HW227439   2.511   5.122   1.865  0.8098 -0.5781  1.6400
 8478SOL     OW27440   2.713   9.177   3.323  0.1064 -0.2919 -0.3344
 8478SOL    HW127441   2.697   9.257   3.272 -0.7578 -0.4101 -0.2682
 8478SOL    HW227442   2.664   9.110   3.277  0.3172 -0.6577 -0.0284
 8479SOL     OW27443   9.516   0.549   4.412 -0.6434  0.1299 -0.4841
 8479SOL    HW127444   9.470   0.468   4.391 -1.6088  0.8380 -1.2018
 8479SOL    HW227445   9.581   0.558   4.342  0.6555 -0.8728  0.5324
 8480SOL     OW27446   0.519   4.589   7.444 -0.1241 -0.6480 -0.1730
 8480SOL    HW127447   0.438   4.638   7.456  0.2951 -0.1796  0.8089
 8480SOL    HW227448   0.586   4.656   7.436  0.1418 -1.0260 -1.2997
 8481SOL     OW27449   0.457   8.174   4.635 -0.2031  0.7697  0.5869
 8481SOL    HW127450   0.447   8.232   4.710 -2.3861 -0.0359  0.9667
 8481SOL    HW227451   0.378   8.121   4.634  1.0356 -1.1890 -0.6423
 8482SOL     OW27452   0.217  10.547   8.194  0.5956 -0.1270 -0.1217
 8482SOL    HW127453   0.144  10.606   8.216 -0.4579 -1.4846  0.1395
 8482SOL    HW227454   0.280  10.561   8.265  0.5551  0.9758 -0.2803
 8483SOL     OW27455   0.697   1.939   9.592  0.3010  0.2376 -0.2078
 8483SOL    HW127456   0.726   1.887   9.517 -1.2229  0.2206 -0.8126
 8483SOL    HW227457   0.602   1.942   9.584  0.1231  0.4365  1.6084
 8484SOL     OW27458   8.613   6.409  10.875 -0.0066  0.5625  0.4044
 8484SOL    HW127459   8.628   6.458  10.956 -1.5623  0.7813  0.5939
 8484SOL    HW227460   8.615   6.317  10.903  0.6110  0.5894  0.4672
 8485SOL     OW27461   7.094   2.598   8.033  0.3678  0.1444 -0.0765
 8485SOL    HW127462   7.112   2.552   7.951  1.1715 -0.7769  0.5929
 8485SOL    HW227463   7.166   2.573   8.091 -0.1998  0.7485  0.9225
 8486SOL     OW27464   1.152   2.114   0.334 -0.0792  0.2312  0.5843
 8486SOL    HW127465   1.089   2.042   0.339  0.3251 -0.3730 -1.8798
 8486SOL    HW227466   1.237   2.072   0.346  0.1682  0.2223 -1.0019
 8487SOL     OW27467   2.009   6.447   4.841  0.5144  0.1780 -0.1360
 8487SOL    HW127468   2.091   6.434   4.890 -0.4725  2.3317  2.3704
 8487SOL    HW227469   1.958   6.505   4.897 -1.4799  1.4731 -3.0768
 8488SOL     OW27470   4.487   3.737   9.060  0.4453 -0.0144  0.4148
 8488SOL    HW127471   4.392   3.728   9.072  0.3661 -0.1468 -0.2709
 8488SOL    HW227472   4.517   3.647   9.044  0.4447  0.2200 -0.9984
 8489SOL     OW27473   7.079   7.929  10.705 -1.0091  0.3282  0.0048
 8489SOL    HW127474   7.143   7.888  10.763  0.1570  0.6295 -1.0256
 8489SOL    HW227475   7.061   7.862  10.638 -1.5298  0.3628  0.1083
 8490SOL     OW27476   7.535   8.715   4.668 -0.1831 -0.1272 -0.2607
 8490SOL    HW127477   7.484   8.774   4.724  0.2198  0.4082 -0.4423
 8490SOL    HW227478   7.540   8.761   4.584  0.3951 -0.2811 -0.3128
 8491SOL     OW27479   1.678   6.297   0.660  0.4989 -0.2318 -0.3672
 8491SOL    HW127480   1.602   6.240   0.669 -0.4550  0.8279 -1.4090
 8491SOL    HW227481   1.654   6.359   0.591  1.3202  1.7165  1.0188
 8492SOL     OW27482   0.788   7.232   6.361  0.1457  0.2131 -0.6522
 8492SOL    HW127483   0.846   7.306   6.342  1.5257 -0.7876 -0.4779
 8492SOL    HW227484   0.785   7.183   6.279 -0.8968  0.5361 -0.8141
 8493SOL     OW27485   5.469   2.307   3.075  0.2560  0.0607  0.0710
 8493SOL    HW127486   5.519   2.346   3.003  1.6361 -2.5300 -0.4790
 8493SOL    HW227487   5.414   2.241   3.033 -1.3384  0.6955  1.0783
 8494SOL     OW27488   5.722   4.182   8.105  0.6444  0.1905  1.0677
 8494SOL    HW127489   5.711   4.145   8.193 -2.9167 -2.0772 -0.1365
 8494SOL    HW227490   5.713   4.107   8.046 -0.6286  2.0774 -1.3305
 8495SOL     OW27491   0.689   0.184   1.536  0.7598 -0.9628 -0.2461
 8495SOL    HW127492   0.617   0.194   1.598 -0.2532  0.2265 -1.5613
 8495SOL    HW227493   0.713   0.091   1.543 -0.5820 -1.2809  0.5550
 8496SOL     OW27494   2.934   1.196   6.814 -0.8235 -0.2766  0.2337
 8496SOL    HW127495   2.997   1.215   6.744  0.3817 -1.1877  1.0455
 8496SOL    HW227496   2.849   1.200   6.771 -0.1419 -0.2647 -1.1658
 8497SOL     OW27497   1.149  11.035   1.194 -0.0780  0.6248 -0.0262
 8497SOL    HW127498   1.120  11.004   1.280  0.2748  1.1437  0.2868
 8497SOL    HW227499   1.121  11.126   1.191 -0.7424  0.3973 -0.7686
 8498SOL     OW27500   5.059   4.636   6.198  0.4059  0.2366 -0.5387
 8498SOL    HW127501   5.084   4.720   6.160  1.3091  0.3683  0.3329
 8498SOL    HW227502   4.990   4.604   6.140  0.2232  1.4551 -1.0231
 8499SOL     OW27503   7.980   0.866   8.941 -0.2268  0.1643  0.3110
 8499SOL    HW127504   7.986   0.780   8.899 -2.0817  0.6724 -1.1301
 8499SOL    HW227505   8.041   0.921   8.892  0.6745 -0.2043  0.9873
 8500SOL     OW27506   9.343   1.933   2.846  0.7264  0.2978 -0.5137
 8500SOL    HW127507   9.344   1.988   2.924 -2.9627  0.9425 -0.7567
 8500SOL    HW227508   9.328   1.845   2.879 -0.8922  0.5779 -0.4165
 8501SOL     OW27509   4.994   8.644   9.651 -0.5737  0.0077  0.5991
 8501SOL    HW127510   5.054   8.571   9.668 -2.9897 -2.3771 -0.3209
 8501SOL    HW227511   4.917   8.625   9.704 -1.8150  1.1475 -0.6858
 8502SOL     OW27512   9.235   1.272   9.407  0.4915  0.4150  0.1013
 8502SOL    HW127513   9.229   1.361   9.441  3.4492  0.4619  0.7111
 8502SOL    HW227514   9.265   1.220   9.481  0.4157 -0.7838 -0.6835
 8503SOL     OW27515   8.081   4.270   0.782  0.1658  0.0332 -0.5590
 8503SOL    HW127516   8.146   4.300   0.845 -0.7087 -0.0704  0.4225
 8503SOL    HW227517   8.053   4.349   0.735 -0.6364  0.4609  0.5952
 8504SOL     OW27518   9.921   1.915   0.139  0.7294 -0.0525 -0.7895
 8504SOL    HW127519   9.859   1.963   0.086 -0.8974  0.6136  1.5627
 8504SOL    HW227520  10.007   1.939   0.104 -0.2119  0.7549 -2.6874
 8505SOL     OW27521   2.848   1.660   0.975 -0.1960 -0.3108 -0.2186
 8505SOL    HW127522   2.878   1.704   1.055  2.6005 -0.6468 -0.9918
 8505SOL    HW227523   2.792   1.725   0.932 -0.3766  0.4945  1.1801
 8506SOL     OW27524   0.429   7.282   2.466 -0.1184  0.1790 -0.6007
 8506SOL    HW127525   0.340   7.264   2.496 -0.0418 -0.9840 -0.9954
 8506SOL    HW227526   0.480   7.291   2.546 -0.3721 -0.4203 -0.3641
 8507SOL     OW27527   0.115  10.556   1.465 -0.0078 -0.0253 -0.2074
 8507SOL    HW127528   0.089  10.600   1.384  0.8675  1.1851  0.1447
 8507SOL    HW227529   0.042  10.497   1.484 -0.5098  0.1224 -1.5364
 8508SOL     OW27530   8.065   9.442   9.256  0.4938 -0.4822  0.1961
 8508SOL    HW127531   8.159   9.429   9.267  0.2256 -2.5939  0.2846
 8508SOL    HW227532   8.025   9.365   9.296 -1.2663  0.1847 -0.1965
 8509SOL     OW27533   9.857  10.345   8.118  0.2084 -0.0674  0.8535
 8509SOL    HW127534   9.940  10.388   8.140  0.6620 -0.0723 -0.7397
 8509SOL    HW227535   9.882  10.273   8.060 -0.9595  0.4182 -0.2934
 8510SOL     OW27536   9.082   8.493   5.973  0.0676  0.3645  0.5981
 8510SOL    HW127537   9.150   8.461   6.034  0.5930 -0.8444 -0.5663
 8510SOL    HW227538   9.014   8.427   5.977  0.5517 -0.2575 -0.8339
 8511SOL     OW27539   2.905   8.105   4.954  0.4815 -0.3233 -1.0610
 8511SOL    HW127540   2.846   8.146   4.891 -0.4330 -1.2452 -0.8409
 8511SOL    HW227541   2.856   8.104   5.036  1.6610  0.8534 -0.3162
 8512SOL     OW27542   1.214   1.540   4.313 -0.5015  0.8176  0.4452
 8512SOL    HW127543   1.138   1.596   4.325 -1.1293  0.8037 -2.6958
 8512SOL    HW227544   1.178   1.451   4.309 -0.1137  0.6551  0.4796
 8513SOL     OW27545  10.496  10.590   0.225  0.0952 -0.1846 -0.0957
 8513SOL    HW127546  10.479  10.569   0.317  0.5220 -1.4405 -0.2854
 8513SOL    HW227547  10.550  10.669   0.228 -0.0791 -0.0874  0.7164
 8514SOL     OW27548   6.534   8.084   6.956  0.7882 -0.7087  0.2225
 8514SOL    HW127549   6.531   8.104   7.049 -0.3876 -1.9899  0.5075
 8514SOL    HW227550   6.536   8.169   6.913 -0.1088 -0.0593  1.3943
 8515SOL     OW27551   3.720   2.151   9.765 -0.1951 -0.8386  0.1811
 8515SOL    HW127552   3.755   2.174   9.851 -0.0661 -0.5865  0.0613
 8515SOL    HW227553   3.797   2.134   9.711 -0.2806 -2.3276  0.4676
 8516SOL     OW27554   7.735   4.588   9.428  0.7420 -0.0813 -0.1558
 8516SOL    HW127555   7.682   4.643   9.485  1.2162  0.4953 -0.2649
 8516SOL    HW227556   7.821   4.586   9.469  0.5960 -1.1980  0.1426
 8517SOL     OW27557   0.927   9.277   0.002 -0.2217  0.1927  0.1574
 8517SOL    HW127558   0.978   9.199  -0.018 -0.3383  0.4963 -1.4207
 8517SOL    HW227559   0.974   9.319   0.075  1.4742  0.1750 -0.8796
 8518SOL     OW27560   9.351   8.635   2.949 -0.4647 -0.6309 -0.0636
 8518SOL    HW127561   9.390   8.701   2.891  0.4974  0.1115  1.3650
 8518SOL    HW227562   9.372   8.552   2.907  0.8111 -0.1413 -0.4469
 8519SOL     OW27563   1.910   4.118   2.129  0.3646  0.1852  0.5110
 8519SOL    HW127564   1.904   4.201   2.083  3.0709 -0.4649 -1.2411
 8519SOL    HW227565   1.899   4.141   2.222 -1.5349  2.0454 -0.1073
 8520SOL     OW27566   0.262   8.314   6.797 -0.0257  0.1765  0.1008
 8520SOL    HW127567   0.210   8.243   6.836  1.1639 -0.7962 -0.0171
 8520SOL    HW227568   0.280   8.283   6.708  2.2050 -0.3524  0.6738
 8521SOL     OW27569   4.930  10.354   1.912 -0.1877  0.3726  0.0509
 8521SOL    HW127570   4.985  10.343   1.989  1.4483 -0.8778 -1.2268
 8521SOL    HW227571   4.881  10.273   1.905  1.0510 -0.3177 -1.2039
 8522SOL     OW27572   5.707   6.923  10.395 -0.3062  0.1941 -0.0217
 8522SOL    HW127573   5.648   6.864  10.440  0.9517 -0.5223  0.7377
 8522SOL    HW227574   5.787   6.873  10.383 -0.0319  0.9363 -1.5609
 8523SOL     OW27575   8.371   1.199   0.940  0.9440 -0.1704 -0.1107
 8523SOL    HW127576   8.284   1.160   0.952  0.3097  1.0472 -0.5324
 8523SOL    HW227577   8.410   1.149   0.868  0.3524 -0.3540 -0.3152
 8524SOL     OW27578   1.620   7.574   4.982 -0.1270  0.1369  0.6448
 8524SOL    HW127579   1.696   7.610   4.937 -1.8294 -0.0294 -2.6737
 8524SOL    HW227580   1.636   7.480   4.985 -0.1603  0.1054 -0.0132
 8525SOL     OW27581   1.998   5.833   8.144 -0.4960 -0.0784 -0.2987
 8525SOL    HW127582   2.013   5.817   8.237  2.2868  2.0298 -0.2336
 8525SOL    HW227583   1.911   5.873   8.140 -0.3410  0.5589  1.5491
 8526SOL     OW27584   4.766   6.726   8.627 -0.2401  0.8468 -0.1244
 8526SOL    HW127585   4.760   6.631   8.635  0.2361  0.7502 -0.8321
 8526SOL    HW227586   4.688   6.751   8.577 -0.8004  0.9357  0.7608
 8527SOL     OW27587   7.165   1.290   4.217  0.1336  0.1348  0.1774
 8527SOL    HW127588   7.122   1.375   4.220 -2.7482 -1.2665  1.5476
 8527SOL    HW227589   7.174   1.271   4.123  2.0173  2.3949 -0.1952
 8528SOL     OW27590   6.667   1.743   7.488  0.0287 -0.6559  0.0648
 8528SOL    HW127591   6.712   1.765   7.406 -1.7923  1.0509 -0.5429
 8528SOL    HW227592   6.585   1.704   7.461  0.8104 -3.2605  1.1624
 8529SOL     OW27593  10.936   1.264   8.840  0.5182 -0.2834 -0.9303
 8529SOL    HW127594  10.999   1.202   8.802 -0.2918 -1.9179  0.3022
 8529SOL    HW227595  10.858   1.256   8.785 -0.5017 -2.3356  0.6743
 8530SOL     OW27596  10.296   0.261   7.314 -0.6672 -0.4558 -0.2125
 8530SOL    HW127597  10.353   0.337   7.308 -1.2325 -0.0320 -0.2802
 8530SOL    HW227598  10.303   0.218   7.229 -1.9930  0.7191 -0.9463
 8531SOL     OW27599   8.792   7.754   2.759  0.2073  0.5363  0.0716
 8531SOL    HW127600   8.717   7.784   2.809 -0.4216  0.4465 -0.8051
 8531SOL    HW227601   8.829   7.683   2.811  0.0449  0.9766  0.7958
 8532SOL     OW27602   9.924   4.060   3.802  0.4077  0.3203 -0.4753
 8532SOL    HW127603  10.001   4.003   3.810 -1.0528 -1.6485  0.2877
 8532SOL    HW227604   9.920   4.107   3.886  1.2988  1.1958 -0.8973
 8533SOL     OW27605   9.990   3.338   5.591 -0.0301 -0.5240  1.4297
 8533SOL    HW127606  10.012   3.429   5.613  0.1675 -0.6338  1.6901
 8533SOL    HW227607   9.939   3.345   5.511 -1.9821 -0.0001  2.6616
 8534SOL     OW27608  10.582   3.225  11.094  0.1424 -1.1054  0.1260
 8534SOL    HW127609  10.537   3.298  11.051 -2.4148 -3.0490 -0.7205
 8534SOL    HW227610  10.614   3.171  11.022  1.9769 -0.8936  0.7449
 8535SOL     OW27611   3.327   0.444   2.372  0.0562 -0.0351  0.3366
 8535SOL    HW127612   3.352   0.376   2.433  1.0184 -1.1381 -1.2150
 8535SOL    HW227613   3.313   0.398   2.289 -1.0898  1.4118 -0.3225
 8536SOL     OW27614   0.727   0.599   8.906 -0.1544 -0.1273 -0.1768
 8536SOL    HW127615   0.794   0.608   8.838 -1.8365  0.2003 -1.8876
 8536SOL    HW227616   0.684   0.685   8.908 -1.7940 -0.8897 -0.5852
 8537SOL     OW27617   8.237   1.710   5.298  0.0440  0.3358 -0.0979
 8537SOL    HW127618   8.195   1.796   5.302 -0.5609 -0.0040  2.6695
 8537SOL    HW227619   8.167   1.650   5.273 -0.5492  0.1323  1.9424
 8538SOL     OW27620   7.086   1.753   4.333  0.8343 -0.0045 -0.3850
 8538SOL    HW127621   7.108   1.702   4.255  2.5506 -0.4985  0.3707
 8538SOL    HW227622   6.995   1.731   4.351  0.5104 -0.1378 -2.0401
 8539SOL     OW27623   1.968   7.870   5.634  0.6005  0.1971 -0.0795
 8539SOL    HW127624   1.950   7.780   5.659  1.1461 -0.5361 -2.1457
 8539SOL    HW227625   2.051   7.891   5.678  0.4410 -0.2644  0.4538
 8540SOL     OW27626   1.073   6.045   6.431  0.3380  0.2081  0.0947
 8540SOL    HW127627   1.154   6.065   6.385  0.1986  0.4281 -0.0626
 8540SOL    HW227628   1.023   6.127   6.427  0.2078  0.1444  0.3944
 8541SOL     OW27629   9.995   4.573   3.709  0.7568  0.5512  0.6264
 8541SOL    HW127630   9.955   4.542   3.790 -0.5180 -0.5605 -0.3659
 8541SOL    HW227631   9.974   4.666   3.706 -2.4594 -0.0779 -0.1379
 8542SOL     OW27632   4.947   6.172   3.039 -0.0381 -0.7419 -0.4913
 8542SOL    HW127633   5.006   6.111   2.996  0.2976  0.0143 -1.1350
 8542SOL    HW227634   4.997   6.207   3.112  0.1304 -0.5015 -0.7183
 8543SOL     OW27635   3.907   0.118   5.777 -0.5608  0.3905  0.9970
 8543SOL    HW127636   3.863   0.073   5.849  0.7435  0.5175  1.9031
 8543SOL    HW227637   3.934   0.202   5.814  2.0541 -0.3971  1.0878
 8544SOL     OW27638   2.928   2.761   4.086  0.7602  0.0828  0.0128
 8544SOL    HW127639   2.910   2.853   4.105  2.2843  0.2636  0.7507
 8544SOL    HW227640   2.957   2.760   3.994  0.2192  0.2409 -0.1647
 8545SOL     OW27641   2.363   2.588   4.095 -0.5804  0.0050 -0.1897
 8545SOL    HW127642   2.444   2.639   4.091 -1.5719  1.6350 -0.1280
 8545SOL    HW227643   2.388   2.509   4.143  1.2071 -0.0030 -1.0309
 8546SOL     OW27644  10.488   7.280   4.347  0.4843 -0.4737  0.4086
 8546SOL    HW127645  10.510   7.329   4.268  0.0494  0.2651  0.7381
 8546SOL    HW227646  10.493   7.188   4.321  0.4898 -0.2363 -0.4367
 8547SOL     OW27647   3.109   3.766   8.305  0.1475 -0.7040 -0.0576
 8547SOL    HW127648   3.139   3.767   8.214  2.3718 -2.0132  0.5609
 8547SOL    HW227649   3.168   3.826   8.351 -1.0641  0.0895  0.5198
 8548SOL     OW27650   5.798   9.496   7.900  0.2735  0.4198 -0.0717
 8548SOL    HW127651   5.739   9.550   7.952  0.8607  0.2755  0.7777
 8548SOL    HW227652   5.749   9.417   7.881  0.1123  0.3869  0.4555
 8549SOL     OW27653   1.134   1.275   1.193  0.1930  0.2647 -0.2449
 8549SOL    HW127654   1.055   1.329   1.195  0.4619  0.6580 -0.1935
 8549SOL    HW227655   1.123   1.214   1.267 -0.1400  0.1995 -0.3445
 8550SOL     OW27656   5.635   6.440   0.828 -0.4349  0.0053  0.8900
 8550SOL    HW127657   5.675   6.381   0.892  0.0656  0.2609  0.8215
 8550SOL    HW227658   5.581   6.383   0.774  0.6705 -0.5439  0.3115
 8551SOL     OW27659   8.655   1.607  10.265  0.4869  0.0467 -0.3348
 8551SOL    HW127660   8.561   1.609  10.283 -0.1619 -2.3912 -2.7876
 8551SOL    HW227661   8.674   1.693  10.229 -0.7715  0.5732  0.1782
 8552SOL     OW27662   4.440   9.390   0.376  0.2264 -0.1953  0.8932
 8552SOL    HW127663   4.503   9.406   0.446 -0.2802 -0.0477  1.3173
 8552SOL    HW227664   4.447   9.468   0.320 -0.9642  0.7416  1.9977
 8553SOL     OW27665   5.317   1.514   3.201 -0.0551 -0.0127  0.1912
 8553SOL    HW127666   5.259   1.540   3.129  0.2917  2.5686  0.7386
 8553SOL    HW227667   5.377   1.451   3.162  0.7005  1.9738 -2.1041
 8554SOL     OW27668   1.289   9.595   3.136 -0.0589 -0.1527  0.2062
 8554SOL    HW127669   1.238   9.547   3.070  1.8513 -1.0350 -0.7099
 8554SOL    HW227670   1.255   9.684   3.132 -0.6582 -0.4205 -1.3003
 8555SOL     OW27671   9.367   9.679   6.243  0.2699 -0.7527  0.2678
 8555SOL    HW127672   9.400   9.765   6.270 -0.8306  0.4613 -1.9524
 8555SOL    HW227673   9.434   9.618   6.271  0.4882  0.6248  3.1180
 8556SOL     OW27674   5.261   6.445   0.512 -0.1188  0.0000 -0.1798
 8556SOL    HW127675   5.167   6.451   0.527 -0.0705 -0.2956  0.2713
 8556SOL    HW227676   5.300   6.490   0.587  0.0655  3.2726 -2.0850
 8557SOL     OW27677   1.582   8.117   0.737  0.0387  0.2202 -0.3150
 8557SOL    HW127678   1.554   8.139   0.648  0.3858  0.2220 -0.4237
 8557SOL    HW227679   1.594   8.023   0.735  0.8094  0.3174 -0.4878
 8558SOL     OW27680   3.660   6.710   5.808  0.2653 -0.0553 -0.0464
 8558SOL    HW127681   3.749   6.701   5.843 -0.6710 -1.0964  2.2504
 8558SOL    HW227682   3.611   6.750   5.880 -1.1417  0.4843 -1.2799
 8559SOL     OW27683   0.203   2.432   7.574 -0.0767  0.0193 -0.4243
 8559SOL    HW127684   0.178   2.426   7.482  1.6041  2.0755 -1.1085
 8559SOL    HW227685   0.120   2.430   7.621 -0.9951 -0.8097 -1.9807
 8560SOL     OW27686   0.922   1.979   7.048 -0.8603  0.1027  0.0330
 8560SOL    HW127687   0.913   2.071   7.071  0.5788 -0.0317  1.2847
 8560SOL    HW227688   0.984   1.979   6.975  3.2116 -0.0464  3.1400
 8561SOL     OW27689   8.615  10.040   5.724  0.2642  0.1606  0.2183
 8561SOL    HW127690   8.531  10.074   5.692  1.1510  1.6335 -0.7052
 8561SOL    HW227691   8.593   9.994   5.805 -1.4658  0.2718 -0.1410
 8562SOL     OW27692   6.873   1.351   4.803  0.0357  0.0046  0.2021
 8562SOL    HW127693   6.814   1.393   4.741  0.0302 -0.9901 -0.4826
 8562SOL    HW227694   6.960   1.360   4.764  0.3326  1.1995  1.0640
 8563SOL     OW27695   3.358   7.283   8.150  0.0215 -0.4900 -0.3512
 8563SOL    HW127696   3.302   7.241   8.086  0.3531 -1.5046  0.0158
 8563SOL    HW227697   3.431   7.317   8.098  0.8561 -2.2698 -0.4171
 8564SOL     OW27698   7.586   5.371   7.175 -0.3432  0.2317 -0.2758
 8564SOL    HW127699   7.544   5.288   7.152  1.1136 -0.8434  0.7868
 8564SOL    HW227700   7.673   5.367   7.134 -0.4633  1.5348 -0.7410
 8565SOL     OW27701   6.972   1.474   8.119 -0.2692  0.2263 -0.7509
 8565SOL    HW127702   6.993   1.435   8.204 -2.4155 -1.7231 -1.0185
 8565SOL    HW227703   6.969   1.568   8.136 -0.0707 -0.0771  1.2026
 8566SOL     OW27704   1.611   8.942   3.350  0.2706  0.4451  0.2071
 8566SOL    HW127705   1.641   9.029   3.321 -2.5938  1.4189 -0.1685
 8566SOL    HW227706   1.516   8.949   3.349 -0.0210 -2.4378  1.1520
 8567SOL     OW27707   1.484   5.614   2.207  0.2497 -0.9801 -0.2999
 8567SOL    HW127708   1.579   5.610   2.192  0.7460  1.6822  1.4978
 8567SOL    HW227709   1.470   5.698   2.250 -3.0178 -1.1456 -0.8090
 8568SOL     OW27710   4.372   4.018   7.180  0.6719 -0.8191  0.4261
 8568SOL    HW127711   4.305   3.958   7.213 -0.8947  0.2501 -0.6611
 8568SOL    HW227712   4.424   4.041   7.257 -0.8369 -0.9150  1.5214
 8569SOL     OW27713   2.653   1.243   3.066 -0.0255  0.1288 -0.3034
 8569SOL    HW127714   2.667   1.182   2.993  1.5235 -0.6869  0.6129
 8569SOL    HW227715   2.632   1.186   3.140 -1.3350  0.9321 -0.0232
 8570SOL     OW27716   6.076   8.741   9.160  0.0660  0.1532  0.5820
 8570SOL    HW127717   6.001   8.765   9.214 -0.4919 -0.1552 -0.0402
 8570SOL    HW227718   6.042   8.675   9.100  0.9478 -0.3058  0.5789
 8571SOL     OW27719   2.518   2.201   7.460  0.5472  0.0289  0.3382
 8571SOL    HW127720   2.559   2.197   7.374 -0.3685  0.5535 -0.1377
 8571SOL    HW227721   2.492   2.110   7.478 -0.5583  0.1317 -0.6073
 8572SOL     OW27722   8.563   7.149   0.992 -0.2167 -0.0655 -0.5738
 8572SOL    HW127723   8.622   7.220   1.014 -0.2168  0.4794 -2.2041
 8572SOL    HW227724   8.479   7.192   0.975 -0.7446 -0.6846  0.3355
 8573SOL     OW27725   1.069   6.297   8.042 -0.1042  0.3157 -0.0148
 8573SOL    HW127726   1.133   6.367   8.045  1.5528 -0.7844 -3.6408
 8573SOL    HW227727   0.999   6.330   7.986 -0.3957 -0.1547  0.0589
 8574SOL     OW27728   7.586   8.513   7.069  0.1793  0.2461 -0.4182
 8574SOL    HW127729   7.605   8.603   7.045 -1.5994  0.3549 -1.6417
 8574SOL    HW227730   7.598   8.463   6.988  0.7394 -0.5627  0.1432
 8575SOL     OW27731   5.050   4.791   5.830  0.3911 -0.0083 -0.3340
 8575SOL    HW127732   5.119   4.848   5.797  0.9790  0.1274  1.0635
 8575SOL    HW227733   5.049   4.717   5.768  1.0289  0.5098 -0.9856
 8576SOL     OW27734   1.488   2.064   5.493  0.0740 -0.6235 -0.4706
 8576SOL    HW127735   1.570   2.111   5.504  0.5200 -1.4231 -0.2866
 8576SOL    HW227736   1.438   2.081   5.572  0.0353 -0.0850 -0.6109
 8577SOL     OW27737   9.114   8.802   6.689 -0.2097 -0.4767 -0.0227
 8577SOL    HW127738   9.123   8.722   6.740 -2.6526 -1.2520 -0.6687
 8577SOL    HW227739   9.104   8.871   6.755 -2.7982 -1.3900  0.6737
 8578SOL     OW27740   8.326   6.036  11.012  0.1518  0.1262 -0.0723
 8578SOL    HW127741   8.270   6.039  10.935 -1.1358  1.9860  0.8587
 8578SOL    HW227742   8.322   6.125  11.048  3.9415  0.4430 -0.0668
 8579SOL     OW27743   6.199   0.026   1.724  0.1356 -0.4616 -0.2785
 8579SOL    HW127744   6.242   0.006   1.807  0.8587 -0.3856 -0.6255
 8579SOL    HW227745   6.154   0.109   1.740  0.8094 -0.1107 -0.1504
 8580SOL     OW27746   4.135   0.186   7.826  0.2068  0.3714  0.1613
 8580SOL    HW127747   4.162   0.168   7.736  3.3917 -0.7667  1.2252
 8580SOL    HW227748   4.215   0.214   7.871 -1.3142  1.1021  2.6203
 8581SOL     OW27749   6.143   6.391   1.938 -0.1199 -0.2192 -0.3374
 8581SOL    HW127750   6.072   6.364   1.997 -0.9206 -0.7883 -1.5322
 8581SOL    HW227751   6.098   6.435   1.866  0.9630  2.1435  0.3125
 8582SOL     OW27752   7.075   2.245   7.404  0.0966  0.2167  1.0613
 8582SOL    HW127753   6.996   2.289   7.435 -2.6728 -2.4155 -1.5454
 8582SOL    HW227754   7.063   2.153   7.429  0.7615 -0.8290 -2.0154
 8583SOL     OW27755   2.484   4.407   5.906 -0.0769  0.5099 -0.2939
 8583SOL    HW127756   2.393   4.389   5.885  0.2622 -1.2948 -0.3397
 8583SOL    HW227757   2.522   4.322   5.928  1.9040  1.0022 -1.5036
 8584SOL     OW27758   5.824  11.004   9.511 -0.1031 -0.6097 -0.0837
 8584SOL    HW127759   5.909  10.997   9.469  0.0324 -0.3644  0.1491
 8584SOL    HW227760   5.831  11.079   9.569 -0.7211 -0.1238 -0.6157
 8585SOL     OW27761   8.618   0.515   1.824 -0.0451 -0.0328 -0.3183
 8585SOL    HW127762   8.678   0.545   1.893  0.9626  0.5327 -1.4030
 8585SOL    HW227763   8.675   0.490   1.751 -1.0179 -1.9850 -0.4734
 8586SOL     OW27764   2.382   5.109  10.173  0.3338  0.2596 -0.5496
 8586SOL    HW127765   2.471   5.133  10.150  0.9089 -0.3337  0.9220
 8586SOL    HW227766   2.340   5.089  10.089  1.3531  1.2504 -1.3239
 8587SOL     OW27767   0.023   5.084   0.741 -0.1036 -0.1789 -0.5883
 8587SOL    HW127768  -0.014   4.995   0.739 -2.5539  0.7461  0.4572
 8587SOL    HW227769   0.053   5.096   0.831  0.5692 -0.0549 -0.8231
 8588SOL     OW27770   5.731   3.613   9.475 -0.2503  0.1203 -0.0492
 8588SOL    HW127771   5.716   3.649   9.563  1.9857 -1.9763  1.3054
 8588SOL    HW227772   5.701   3.682   9.416 -0.7141  2.1203  2.3398
 8589SOL     OW27773   4.353   3.846   8.763  0.0845  0.4142  0.0008
 8589SOL    HW127774   4.318   3.778   8.820  0.1685 -0.0655 -0.5221
 8589SOL    HW227775   4.442   3.818   8.743  0.4480  1.1397  0.5233
 8590SOL     OW27776   3.672   2.018   1.499 -0.5434 -0.5733  0.2599
 8590SOL    HW127777   3.744   2.079   1.511 -1.7066  1.0256 -0.4900
 8590SOL    HW227778   3.617   2.031   1.576  0.0020 -1.9066  0.9147
 8591SOL     OW27779  10.765   5.600   1.545 -0.6264  0.0784 -0.2853
 8591SOL    HW127780  10.824   5.636   1.610  0.6378  1.6189 -2.1634
 8591SOL    HW227781  10.702   5.670   1.528 -0.5113 -0.0261 -1.1973
 8592SOL     OW27782   0.113   0.350   2.063 -0.1641 -0.5831  0.4694
 8592SOL    HW127783   0.174   0.343   1.990 -0.5461 -0.9742  0.1849
 8592SOL    HW227784   0.079   0.440   2.057 -0.7353 -0.8433 -0.2658
 8593SOL     OW27785   7.175   6.244   0.644  0.6515 -0.0696 -0.5083
 8593SOL    HW127786   7.173   6.258   0.739 -1.0841  1.3104 -0.7035
 8593SOL    HW227787   7.182   6.332   0.607  0.2207 -0.5162 -1.6879
 8594SOL     OW27788   2.810   5.882   2.427 -0.3113  0.0542  0.6470
 8594SOL    HW127789   2.722   5.903   2.460  0.2819  1.2715  1.5217
 8594SOL    HW227790   2.824   5.791   2.455 -1.6583 -0.5053 -0.3722
 8595SOL     OW27791   5.197   9.850   4.853 -0.4245  0.3769  0.5315
 8595SOL    HW127792   5.231   9.829   4.940  0.7735 -0.4703 -0.1173
 8595SOL    HW227793   5.253   9.920   4.821 -0.3801  0.1678  0.1406
 8596SOL     OW27794   3.390   8.596   4.081  0.0672  0.0819 -0.3864
 8596SOL    HW127795   3.312   8.627   4.128  1.1870  0.9114  0.9988
 8596SOL    HW227796   3.383   8.636   3.994 -0.8014  0.5147 -0.1272
 8597SOL     OW27797   4.900   8.598   5.617 -0.5776 -0.6299 -0.3595
 8597SOL    HW127798   4.920   8.677   5.567  1.7263  0.1875  1.6463
 8597SOL    HW227799   4.954   8.529   5.576  0.1121 -0.3228  0.0159
 8598SOL     OW27800   5.859   3.046   3.733 -0.1737  0.0626  0.1051
 8598SOL    HW127801   5.841   3.135   3.703  0.7559  0.5674  0.9946
 8598SOL    HW227802   5.932   3.055   3.794  0.1222 -1.3464  0.0024
 8599SOL     OW27803   6.130  11.034  11.033 -0.0284 -0.1400 -0.1870
 8599SOL    HW127804   6.148  11.017  11.126  1.1623 -0.5759 -0.4754
 8599SOL    HW227805   6.126  11.130  11.027  0.4769 -0.0873  0.2191
 8600SOL     OW27806   1.080   4.959   4.443  0.6492 -0.5236  0.6108
 8600SOL    HW127807   1.110   4.890   4.384  0.7211  1.6117 -2.0881
 8600SOL    HW227808   0.988   4.939   4.460  0.8968 -1.7195  0.6249
 8601SOL     OW27809   1.883   1.236   7.782  0.1671 -0.1855  0.1554
 8601SOL    HW127810   1.905   1.148   7.753 -2.9775 -1.5753  1.5104
 8601SOL    HW227811   1.818   1.267   7.719 -3.0790 -1.3036  2.6817
 8602SOL     OW27812   8.441   0.808   9.616 -0.6218 -0.0572  0.1973
 8602SOL    HW127813   8.484   0.724   9.601 -3.5907 -2.1317  2.1467
 8602SOL    HW227814   8.430   0.813   9.711 -0.9167  2.3931  0.1081
 8603SOL     OW27815   2.468   4.236  10.651  0.2551 -0.1315  0.0338
 8603SOL    HW127816   2.538   4.221  10.714  1.5485  2.7017 -0.5313
 8603SOL    HW227817   2.487   4.178  10.578  2.7925  1.3340 -0.5835
 8604SOL     OW27818   9.188   2.351   0.840  0.1426  0.8092 -0.0863
 8604SOL    HW127819   9.176   2.353   0.745 -2.3376  1.0404  0.1763
 8604SOL    HW227820   9.161   2.263   0.866  0.0545  1.0025  0.4899
 8605SOL     OW27821   0.237   3.675   1.533 -0.1832  0.5688  0.2303
 8605SOL    HW127822   0.159   3.694   1.585 -1.0405  1.4825 -1.3093
 8605SOL    HW227823   0.205   3.618   1.463  0.1620  2.2546 -1.3489
 8606SOL     OW27824   1.107   6.810   7.895  0.1900 -0.1684 -0.5128
 8606SOL    HW127825   1.100   6.849   7.982  0.5217 -1.7847  0.2846
 8606SOL    HW227826   1.147   6.879   7.841 -2.9853  2.0693 -0.2897
 8607SOL     OW27827   4.398   0.345   6.113 -0.1688  0.0740 -0.5440
 8607SOL    HW127828   4.342   0.375   6.042  0.2296 -0.3594 -1.0518
 8607SOL    HW227829   4.465   0.413   6.121 -0.3997  0.2803 -0.3647
 8608SOL     OW27830  10.039   2.390   1.019  0.0797 -0.4001 -0.1188
 8608SOL    HW127831  10.058   2.475   1.060 -0.2208  0.5064 -1.7681
 8608SOL    HW227832   9.945   2.394   0.999 -0.1068 -1.4486  0.4635
 8609SOL     OW27833   0.612   8.236   4.006 -0.3959 -0.5939 -0.0915
 8609SOL    HW127834   0.705   8.220   4.020  0.1284  1.3558 -0.9672
 8609SOL    HW227835   0.568   8.189   4.077  1.3298 -0.6719  0.9779
 8610SOL     OW27836   4.282   4.064   2.309 -0.2711 -0.1713 -0.1441
 8610SOL    HW127837   4.361   4.102   2.348  0.3218 -0.6737 -0.8353
 8610SOL    HW227838   4.229   4.140   2.284  0.8149  0.2325 -1.3296
 8611SOL     OW27839   8.735   4.509   1.572  0.0506 -0.5740 -0.3372
 8611SOL    HW127840   8.716   4.560   1.494  0.4948 -0.6759 -0.5153
 8611SOL    HW227841   8.775   4.571   1.633 -1.6926 -0.1369  0.4009
 8612SOL     OW27842   7.093  10.557   0.986 -0.4469  0.1984  0.1230
 8612SOL    HW127843   7.071  10.650   0.978 -1.6792 -0.1652 -1.3865
 8612SOL    HW227844   7.055  10.530   1.069  0.6961  1.2048  1.0153
 8613SOL     OW27845   4.476   3.339   7.872  0.4958  0.4875  0.1025
 8613SOL    HW127846   4.560   3.364   7.910  0.1902  1.9972 -0.1510
 8613SOL    HW227847   4.457   3.253   7.911  1.6980  0.5480  0.8851
 8614SOL     OW27848   3.473   2.650   8.696 -0.1316 -0.0735 -0.2430
 8614SOL    HW127849   3.516   2.667   8.780 -0.3389 -0.2275 -0.1047
 8614SOL    HW227850   3.543   2.658   8.631  0.0370  0.0099 -0.0521
 8615SOL     OW27851   3.200   5.847   7.606 -0.1742  0.4926 -0.3576
 8615SOL    HW127852   3.113   5.883   7.593  0.8159  3.0110 -0.6961
 8615SOL    HW227853   3.258   5.908   7.559  2.0810  0.8448  2.5990
 8616SOL     OW27854   4.572   9.803   8.903  1.4187  0.4894 -0.0434
 8616SOL    HW127855   4.606   9.738   8.842 -1.0661 -0.4235 -0.5715
 8616SOL    HW227856   4.550   9.753   8.981  0.7981  0.9365  0.0764
 8617SOL     OW27857   8.348   2.465   4.422  0.2266 -0.2760  0.1432
 8617SOL    HW127858   8.301   2.474   4.505 -0.5073  2.6589 -0.4792
 8617SOL    HW227859   8.435   2.436   4.448  0.6232  2.3262  2.2495
 8618SOL     OW27860   3.553  10.723   4.692  0.3718 -0.1095  0.1375
 8618SOL    HW127861   3.576  10.765   4.775 -1.3999  0.5342  0.3403
 8618SOL    HW227862   3.567  10.791   4.626 -0.9409  0.3243  0.2753
 8619SOL     OW27863   0.753   8.565   5.813 -0.5584 -0.7736  0.4865
 8619SOL    HW127864   0.815   8.631   5.845 -0.6964  0.5151 -1.7574
 8619SOL    HW227865   0.807   8.505   5.761 -0.8395 -0.9690  0.4207
 8620SOL     OW27866   6.378   6.879   0.962 -0.5853 -0.0236 -0.2818
 8620SOL    HW127867   6.433   6.873   1.040 -1.1889 -1.0684  0.0865
 8620SOL    HW227868   6.413   6.812   0.903 -1.0890 -0.2985 -0.2754
 8621SOL     OW27869   1.285   3.035   2.255  0.6551  0.8328  0.4050
 8621SOL    HW127870   1.233   2.994   2.186  2.9952 -1.5891 -0.0875
 8621SOL    HW227871   1.283   3.128   2.235 -2.4201  0.7410 -0.2397
 8622SOL     OW27872   2.521   3.129  10.993 -0.1004  0.4212  0.2707
 8622SOL    HW127873   2.470   3.164  11.066 -1.5949 -1.2229  0.0858
 8622SOL    HW227874   2.482   3.169  10.915 -0.2898  0.1071  0.2045
 8623SOL     OW27875   4.845   0.974   7.640  0.7314 -0.3265  0.1497
 8623SOL    HW127876   4.910   0.918   7.596 -0.1085 -0.2917 -1.2057
 8623SOL    HW227877   4.761   0.940   7.610  0.0551 -0.8036  2.4094
 8624SOL     OW27878   0.855   3.085   5.175 -0.2556 -0.1287  0.1561
 8624SOL    HW127879   0.781   3.048   5.224 -0.1878 -0.0101  0.3472
 8624SOL    HW227880   0.873   3.019   5.107  0.0435 -0.5776  0.6678
 8625SOL     OW27881   4.001   5.523   8.231  0.0007  0.2978 -0.4322
 8625SOL    HW127882   3.946   5.541   8.155 -0.2829 -3.0684 -1.1887
 8625SOL    HW227883   4.050   5.604   8.245 -2.1548  2.0520 -2.2567
 8626SOL     OW27884   0.497   9.449   7.853 -0.7039  0.5867  0.1325
 8626SOL    HW127885   0.460   9.529   7.889  1.7718  0.3154  3.9019
 8626SOL    HW227886   0.561   9.479   7.788 -2.4449  1.3322 -1.3317
 8627SOL     OW27887   1.414   4.840  11.063  0.1248  0.0191  0.7854
 8627SOL    HW127888   1.475   4.766  11.061  1.1683  0.8798 -0.5647
 8627SOL    HW227889   1.432   4.883  11.147 -0.5552 -1.2700  1.6250
 8628SOL     OW27890   3.299   2.082  10.401  0.4151 -0.2035 -0.5252
 8628SOL    HW127891   3.262   2.001  10.438 -1.2122  1.6064  2.1983
 8628SOL    HW227892   3.383   2.092  10.445  0.0443  0.1662  0.1302
 8629SOL     OW27893   6.216   0.568  10.520  0.1906 -0.3087 -0.3248
 8629SOL    HW127894   6.283   0.527  10.575  0.1318 -1.3209 -0.9817
 8629SOL    HW227895   6.249   0.656  10.504  0.8781 -0.4667  0.1820
 8630SOL     OW27896   1.384   9.185   1.553 -0.1531 -0.6116 -0.0862
 8630SOL    HW127897   1.368   9.151   1.465 -0.3329 -2.2701  0.5531
 8630SOL    HW227898   1.423   9.111   1.600 -0.7134  0.0261  1.4241
 8631SOL     OW27899   2.639   1.494   8.268  0.1501 -0.3837 -0.4304
 8631SOL    HW127900   2.655   1.553   8.342  0.9428 -0.9606 -0.1276
 8631SOL    HW227901   2.544   1.493   8.258  0.1051  0.6734 -0.2258
 8632SOL     OW27902   9.123  10.908  10.032  0.1349  0.5515 -0.0896
 8632SOL    HW127903   9.200  10.929   9.980 -0.0376 -0.4035 -0.7411
 8632SOL    HW227904   9.143  10.825  10.074 -0.7016  0.0838 -0.5929
 8633SOL     OW27905   3.246   8.172   1.396 -0.1884  0.1141 -0.1911
 8633SOL    HW127906   3.164   8.203   1.357  0.1592  0.9825 -0.2423
 8633SOL    HW227907   3.239   8.077   1.393 -0.6747  0.1722 -1.2909
 8634SOL     OW27908   4.631   7.085   3.001  0.0588  0.5076 -0.7208
 8634SOL    HW127909   4.676   7.049   2.925 -0.2039 -0.9446 -0.2261
 8634SOL    HW227910   4.551   7.123   2.966 -1.2722 -2.2648 -0.9971
 8635SOL     OW27911   4.186   4.191   1.323  0.1593 -0.1898  0.1819
 8635SOL    HW127912   4.148   4.258   1.266  0.9711  0.9765  0.9902
 8635SOL    HW227913   4.124   4.118   1.317 -0.5075  0.4351 -1.0706
 8636SOL     OW27914   9.590   3.819  10.359  0.5820  0.1110  1.0559
 8636SOL    HW127915   9.510   3.768  10.369  0.1800  0.3062 -0.8315
 8636SOL    HW227916   9.610   3.817  10.265  3.5417 -1.0056  1.5839
 8637SOL     OW27917   6.440   7.859   7.890  0.4346 -0.5077  0.5475
 8637SOL    HW127918   6.488   7.833   7.811 -0.7595 -0.8262 -0.1001
 8637SOL    HW227919   6.377   7.924   7.859  0.5431  0.0113  1.4080
 8638SOL     OW27920   0.622   3.264  10.010  0.3110  0.2510 -0.0329
 8638SOL    HW127921   0.630   3.315   9.929  2.7543  0.6984  0.4230
 8638SOL    HW227922   0.689   3.196  10.003  0.2035 -0.0394  1.3794
 8639SOL     OW27923   8.980   1.010   8.349  0.7582 -0.0963  0.3052
 8639SOL    HW127924   9.070   1.041   8.335  0.5385 -0.0329 -1.1421
 8639SOL    HW227925   8.932   1.040   8.272 -0.4068 -0.5502  0.8251
 8640SOL     OW27926  10.935  10.944   6.385 -0.2865  0.3497  0.6158
 8640SOL    HW127927  11.012  10.959   6.440 -0.7887 -0.4036  1.5650
 8640SOL    HW227928  10.935  10.850   6.368  0.0104  0.6037 -0.9447
 8641SOL     OW27929   0.654   5.119   4.218  0.5186  0.3248 -0.1181
 8641SOL    HW127930   0.626   5.163   4.137 -0.6157  2.4918  1.3459
 8641SOL    HW227931   0.743   5.152   4.233  1.0077 -0.6232 -0.7869
 8642SOL     OW27932   6.016   0.585   6.929  0.0936 -0.1683  0.3897
 8642SOL    HW127933   6.065   0.666   6.947  0.8006 -0.1794 -1.3727
 8642SOL    HW227934   5.935   0.615   6.887  0.3774 -0.3696 -0.3092
 8643SOL     OW27935   5.438   3.091   7.123  0.4885  0.2659  0.2465
 8643SOL    HW127936   5.485   3.031   7.181  2.8932  1.4525 -0.2969
 8643SOL    HW227937   5.479   3.078   7.037 -1.5985 -0.0127 -0.7672
 8644SOL     OW27938   0.537   1.511   8.497 -0.1745  0.2197  0.1269
 8644SOL    HW127939   0.597   1.520   8.423  0.7600  1.9841  1.0205
 8644SOL    HW227940   0.519   1.417   8.502  1.4667 -0.2085 -0.9802
 8645SOL     OW27941   2.357   0.954   3.576  0.4727  0.4827  1.1326
 8645SOL    HW127942   2.311   1.028   3.537  0.8692  0.2246  0.1326
 8645SOL    HW227943   2.288   0.889   3.591  0.3404  0.5049  0.6419
 8646SOL     OW27944   0.766   0.424   1.406 -0.3523 -0.0099  0.0846
 8646SOL    HW127945   0.693   0.426   1.345  0.0922 -2.3403 -0.6310
 8646SOL    HW227946   0.742   0.357   1.470  0.8488 -0.3142  0.2461
 8647SOL     OW27947   7.073   1.975   0.442 -0.4957  0.2223 -0.3254
 8647SOL    HW127948   7.089   1.941   0.530 -3.4936 -1.6298 -0.3788
 8647SOL    HW227949   7.116   1.913   0.384  0.4092  0.7474 -0.2321
 8648SOL     OW27950  10.382   5.398   1.860 -0.7108 -0.3502 -0.3535
 8648SOL    HW127951  10.461   5.348   1.879 -0.8630 -0.1409  0.9568
 8648SOL    HW227952  10.312   5.352   1.907 -1.1542  0.1247 -0.5368
 8649SOL     OW27953   3.220  10.840   8.131  0.0756 -0.0690 -0.5967
 8649SOL    HW127954   3.230  10.820   8.224  0.3442  0.1888 -0.5683
 8649SOL    HW227955   3.243  10.933   8.124  2.9477 -0.7437 -1.3701
 8650SOL     OW27956   3.373   6.276   2.082  0.1194  0.2950 -0.0136
 8650SOL    HW127957   3.370   6.192   2.036  0.8099  0.2567  0.0074
 8650SOL    HW227958   3.317   6.263   2.158 -1.4283  0.5059 -1.0581
 8651SOL     OW27959   5.916   4.129   5.653 -0.7383  0.0822 -0.4415
 8651SOL    HW127960   5.938   4.121   5.560 -1.8834 -0.2238 -0.6942
 8651SOL    HW227961   5.927   4.041   5.687  0.9741  0.4439  0.0286
 8652SOL     OW27962   4.552   2.126   4.861  0.3821 -0.7388  0.2042
 8652SOL    HW127963   4.488   2.054   4.859 -1.2839  0.7059 -0.4636
 8652SOL    HW227964   4.524   2.186   4.792  2.1011  0.2796  0.3335
 8653SOL     OW27965   1.909   2.922  10.026  0.0103  0.4742 -0.1702
 8653SOL    HW127966   1.972   2.994  10.025  1.1931 -0.5359 -0.5576
 8653SOL    HW227967   1.890   2.905   9.933  0.4104 -0.2755 -0.1213
 8654SOL     OW27968   8.535   2.189   5.991  0.0878  0.1123 -0.4614
 8654SOL    HW127969   8.560   2.280   6.010  1.0357 -0.2466  0.1077
 8654SOL    HW227970   8.448   2.179   6.030  0.9550  0.1176  1.6394
 8655SOL     OW27971   3.253   4.638   8.574  0.1904 -0.4257  0.6578
 8655SOL    HW127972   3.312   4.618   8.501 -1.7924 -1.2336 -0.8496
 8655SOL    HW227973   3.172   4.592   8.552 -1.3448  1.3935  2.1005
 8656SOL     OW27974   0.172   0.839   3.092  0.0523 -0.1346 -0.0424
 8656SOL    HW127975   0.159   0.926   3.053 -1.0421 -0.8491 -1.3656
 8656SOL    HW227976   0.205   0.785   3.020 -1.3265 -1.3164  0.1500
 8657SOL     OW27977   0.732   9.506   4.494 -0.4587  0.0393 -0.1075
 8657SOL    HW127978   0.810   9.457   4.470 -0.2366 -0.5987  1.7903
 8657SOL    HW227979   0.751   9.596   4.467  0.7138 -0.1989 -0.1237
 8658SOL     OW27980   2.716   8.947   4.806  0.3578 -0.2549  0.8715
 8658SOL    HW127981   2.626   8.980   4.810  0.9787  1.6963 -0.0742
 8658SOL    HW227982   2.770   9.023   4.823  1.8858 -0.6615 -1.6189
 8659SOL     OW27983   8.716   6.563   0.311  0.1362 -0.3349  0.3707
 8659SOL    HW127984   8.752   6.601   0.391 -0.9555  2.6788 -0.4319
 8659SOL    HW227985   8.787   6.571   0.247  0.1541 -0.3412  0.3896
 8660SOL     OW27986   0.963   8.719   4.934 -0.0126  1.0638  0.1343
 8660SOL    HW127987   0.883   8.744   4.981 -0.1120  1.8139 -0.4115
 8660SOL    HW227988   0.937   8.642   4.883  0.3848 -0.4382  2.0841
 8661SOL     OW27989   9.033   3.218   2.843  0.4067  0.1654 -0.0210
 8661SOL    HW127990   9.119   3.191   2.875  0.0515  2.1089  2.9966
 8661SOL    HW227991   8.974   3.149   2.870  0.2500  1.3899  3.1841
 8662SOL     OW27992   0.916  10.728   7.103  0.4429 -0.5217 -0.2721
 8662SOL    HW127993   0.895  10.704   7.193  0.1557 -0.1412 -0.2351
 8662SOL    HW227994   0.941  10.645   7.061 -2.2861 -1.2599 -0.6594
 8663SOL     OW27995   0.523   6.436   5.636  0.2248  1.2572 -0.3589
 8663SOL    HW127996   0.474   6.414   5.714  2.8088 -2.6975  0.4466
 8663SOL    HW227997   0.591   6.496   5.666  1.6822 -0.8369  0.7820
 8664SOL     OW27998   2.321   0.363   9.922 -0.3348  0.4092 -0.3707
 8664SOL    HW127999   2.363   0.303   9.984 -0.3819 -2.1345 -2.6599
 8664SOL    HW228000   2.385   0.434   9.912  0.8664 -0.4914  0.5167
 8665SOL     OW28001   0.966   9.154   8.946 -0.5084 -0.2946 -0.2607
 8665SOL    HW128002   1.045   9.105   8.971 -1.5882 -1.7126  0.5231
 8665SOL    HW228003   0.983   9.243   8.975  0.7188 -0.6272  0.0986
 8666SOL     OW28004   1.899   2.639  10.793  0.7145  0.7530  0.1977
 8666SOL    HW128005   1.962   2.602  10.855  1.0989  1.0005 -0.0352
 8666SOL    HW228006   1.841   2.692  10.846  1.2361  1.2186  0.3059
 8667SOL     OW28007   0.978   2.922   4.758 -0.0399  0.3924 -0.2085
 8667SOL    HW128008   0.907   2.880   4.710 -0.9712 -0.0997  1.5069
 8667SOL    HW228009   1.057   2.876   4.728 -0.2173  1.6006 -2.8637
 8668SOL     OW28010   9.148   4.289   0.562 -0.0042 -0.6248 -0.0458
 8668SOL    HW128011   9.055   4.307   0.573 -0.2217  0.9515 -3.1757
 8668SOL    HW228012   9.151   4.199   0.528 -0.4703 -0.4239 -0.6288
 8669SOL     OW28013   3.596   2.063   8.664 -0.0737 -0.3808 -0.1111
 8669SOL    HW128014   3.648   2.025   8.734  1.1887  0.8031 -0.3703
 8669SOL    HW228015   3.521   2.003   8.655  1.1861 -2.1077  0.3083
 8670SOL     OW28016   7.463   8.094   6.203  0.0963  0.3575  0.1715
 8670SOL    HW128017   7.477   8.005   6.172 -0.4471 -0.3779  1.9352
 8670SOL    HW228018   7.382   8.122   6.160 -1.6477 -1.3065  2.1506
 8671SOL     OW28019   4.655   8.508   6.781  0.7192 -0.2148 -0.7996
 8671SOL    HW128020   4.681   8.465   6.699  2.5296 -0.3090 -0.2101
 8671SOL    HW228021   4.711   8.469   6.848 -0.3812  0.2260  0.4235
 8672SOL     OW28022   8.113  10.455   2.167  0.3024 -0.0957  0.0254
 8672SOL    HW128023   8.020  10.461   2.188  0.3508 -0.2592  0.3085
 8672SOL    HW228024   8.146  10.544   2.178  0.1581 -0.0167 -0.1799
 8673SOL     OW28025   8.597   8.442   5.401 -0.2266 -0.3414 -0.0923
 8673SOL    HW128026   8.669   8.412   5.457  0.9125  1.2106 -0.6735
 8673SOL    HW228027   8.559   8.516   5.449 -2.9458 -2.4329  1.2829
 8674SOL     OW28028   3.962   6.852   4.554 -0.3727 -0.5601  0.0615
 8674SOL    HW128029   3.965   6.898   4.638 -0.7179 -0.1992 -0.1218
 8674SOL    HW228030   3.941   6.761   4.578 -2.9845  0.0043  0.2238
 8675SOL     OW28031   8.014   5.456  10.973  0.0985  0.4919 -0.2816
 8675SOL    HW128032   8.046   5.546  10.969  0.9884  0.6836  4.6935
 8675SOL    HW228033   8.088   5.405  11.005 -1.2461 -1.3817  0.0694
 8676SOL     OW28034   9.701   0.065   3.867  0.0567  0.4559  1.4195
 8676SOL    HW128035   9.753   0.144   3.856  0.1947  0.4850  2.2363
 8676SOL    HW228036   9.613   0.091   3.839  0.1845  0.7871  1.3156
 8677SOL     OW28037   0.005   1.049   8.735 -0.3778  0.9701 -0.6546
 8677SOL    HW128038  -0.041   0.976   8.776 -1.8486  2.2503  0.0751
 8677SOL    HW228039   0.062   1.008   8.670  0.3066 -0.9544  1.0437
 8678SOL     OW28040   3.165   8.562   7.188 -0.2354 -0.0690  0.5202
 8678SOL    HW128041   3.161   8.625   7.117  1.4718 -0.2596  0.2135
 8678SOL    HW228042   3.087   8.507   7.175  0.7982 -1.0566 -2.1422
 8679SOL     OW28043   2.004   8.366   7.807  0.5885 -0.4595  0.0206
 8679SOL    HW128044   2.015   8.288   7.861 -0.1780 -0.6780 -0.1240
 8679SOL    HW228045   1.935   8.342   7.745  1.4062 -0.1919 -1.0182
 8680SOL     OW28046   3.041   6.427   1.257  0.0830 -0.6806 -0.2161
 8680SOL    HW128047   2.979   6.441   1.186  0.6833 -0.1880 -0.6503
 8680SOL    HW228048   3.101   6.501   1.251  0.3487 -0.8253  0.5862
 8681SOL     OW28049   4.241  10.911   9.739 -0.4368 -0.0064  0.9317
 8681SOL    HW128050   4.212  10.936   9.826  0.6292 -2.1496  1.9818
 8681SOL    HW228051   4.317  10.966   9.722  0.4496 -0.8122  2.1682
 8682SOL     OW28052   0.156   9.055   5.849  0.0314 -0.7839  0.1334
 8682SOL    HW128053   0.238   9.025   5.809 -0.1395  0.8492 -1.5414
 8682SOL    HW228054   0.093   9.056   5.778 -0.6251  0.9974  0.6965
 8683SOL     OW28055   4.474  10.908   7.453 -0.4612  0.2967  0.0525
 8683SOL    HW128056   4.549  10.967   7.450 -1.0424  1.0491 -0.3782
 8683SOL    HW228057   4.507  10.824   7.423  0.5557  0.2048  1.3797
 8684SOL     OW28058   9.975   1.294  10.382 -0.1219 -0.7315 -0.3318
 8684SOL    HW128059   9.988   1.268  10.291  1.1850  0.4699 -0.5226
 8684SOL    HW228060   9.940   1.383  10.377  1.6543  0.0562  0.3158
 8685SOL     OW28061   0.613  10.890   1.624 -0.2647  0.0728 -0.6145
 8685SOL    HW128062   0.663  10.828   1.572  1.2209  1.1463 -0.5315
 8685SOL    HW228063   0.601  10.966   1.567 -1.1486  0.1501 -0.3542
 8686SOL     OW28064   9.380   5.001   4.284 -0.0432  1.1233  0.1411
 8686SOL    HW128065   9.438   5.059   4.333  1.0300 -0.6719  1.0803
 8686SOL    HW228066   9.304   4.990   4.341 -0.3206  1.6876 -0.1060
 8687SOL     OW28067   3.604   2.611   4.679 -0.6673  0.5608 -0.0193
 8687SOL    HW128068   3.568   2.697   4.657 -2.5714 -0.3513 -0.6621
 8687SOL    HW228069   3.658   2.588   4.604 -0.0021  1.2605  0.2356
 8688SOL     OW28070   3.260   8.479   5.076  0.4938 -0.0888 -0.2409
 8688SOL    HW128071   3.240   8.479   5.169  3.1216  0.8200  0.4236
 8688SOL    HW228072   3.188   8.430   5.035 -0.6917 -0.5475  2.2419
 8689SOL     OW28073   7.338   2.157   0.525  0.4023  0.2079 -0.1936
 8689SOL    HW128074   7.419   2.109   0.508  0.1568 -0.0248 -0.7374
 8689SOL    HW228075   7.318   2.137   0.616  0.1118 -1.0411 -0.5015
 8690SOL     OW28076   2.349   6.738   1.731 -0.2448 -0.2146 -0.8571
 8690SOL    HW128077   2.425   6.680   1.719  0.5000  0.2271  1.2367
 8690SOL    HW228078   2.273   6.683   1.714  0.3785 -2.2855  2.2610
 8691SOL     OW28079   6.192  10.711  10.071 -0.6155  0.1200  0.0778
 8691SOL    HW128080   6.225  10.794  10.035 -0.7309  0.2397  0.2445
 8691SOL    HW228081   6.218  10.645  10.007  1.9775 -0.1286  1.2664
 8692SOL     OW28082   0.914   9.145   8.051  0.2055  0.4593 -0.4142
 8692SOL    HW128083   0.829   9.112   8.080 -0.4108 -0.1335 -2.6956
 8692SOL    HW228084   0.893   9.212   7.986  1.4268 -0.4525 -1.8340
 8693SOL     OW28085   2.089   2.535   4.379  0.1580  0.5974 -0.0957
 8693SOL    HW128086   2.184   2.529   4.384  0.7465  1.4918 -4.9016
 8693SOL    HW228087   2.060   2.446   4.360  0.2296  0.5641 -0.0456
 8694SOL     OW28088   8.660   9.445   7.569  0.1876 -0.2383 -0.8359
 8694SOL    HW128089   8.697   9.503   7.635  1.3469  0.3940 -1.9930
 8694SOL    HW228090   8.587   9.495   7.532  0.2060 -0.1583 -0.7646
 8695SOL     OW28091  10.204   1.832   1.896  0.5898  0.4324  0.2939
 8695SOL    HW128092  10.239   1.900   1.839  0.7068  0.9620  0.9849
 8695SOL    HW228093  10.281   1.780   1.921  0.8695  1.3759  1.5174
 8696SOL     OW28094   3.774  10.349   1.520 -0.2490 -0.0551 -0.3493
 8696SOL    HW128095   3.689  10.388   1.501 -1.0108  0.5196  3.4037
 8696SOL    HW228096   3.837  10.408   1.479 -1.5688  2.1668  0.6012
 8697SOL     OW28097   2.651   8.202   9.934  0.8416 -0.0906  0.3624
 8697SOL    HW128098   2.669   8.204  10.028 -1.5006  0.9635  0.8433
 8697SOL    HW228099   2.602   8.283   9.917 -0.5419 -1.2219 -1.3704
 8698SOL     OW28100   1.899  10.068   9.472 -0.8891 -0.0959 -0.1516
 8698SOL    HW128101   1.845  10.096   9.398  0.2809 -0.2363 -1.0988
 8698SOL    HW228102   1.840  10.071   9.548 -1.9799  0.5633 -0.9923
 8699SOL     OW28103   0.880   2.968   6.903 -0.3440  0.4544  0.6003
 8699SOL    HW128104   0.831   3.039   6.863 -0.8842 -1.1991 -1.9402
 8699SOL    HW228105   0.814   2.918   6.951 -0.6673 -0.1947 -0.4780
 8700SOL     OW28106   7.250  10.637   7.661 -0.4255 -1.0475  0.3078
 8700SOL    HW128107   7.306  10.562   7.682 -1.5331 -1.5122  1.6855
 8700SOL    HW228108   7.244  10.686   7.743 -1.0146 -0.3165 -0.1656
 8701SOL     OW28109   2.630   5.678   5.129 -0.7686  0.3177 -0.3467
 8701SOL    HW128110   2.673   5.752   5.171  1.3832  0.0954 -2.0258
 8701SOL    HW228111   2.678   5.601   5.160 -0.8140 -0.0720 -1.2230
 8702SOL     OW28112  10.017   9.253   8.932  0.4566  0.5896 -0.7524
 8702SOL    HW128113  10.066   9.296   9.003  0.8653  0.7614 -1.1345
 8702SOL    HW228114  10.067   9.273   8.853  0.4873 -0.3222 -0.9835
 8703SOL     OW28115   7.107   4.419   6.982  0.6318 -0.1476 -0.6926
 8703SOL    HW128116   7.183   4.477   6.981 -0.2533  1.0886  0.7163
 8703SOL    HW228117   7.145   4.331   6.985  2.1426  0.4499  2.6234
 8704SOL     OW28118  10.895   1.575   1.441 -0.5431  0.7379  0.2785
 8704SOL    HW128119  10.965   1.515   1.416 -2.1527 -1.4579  0.7597
 8704SOL    HW228120  10.928   1.618   1.520  1.2421  1.6745 -0.8996
 8705SOL     OW28121   8.627   6.155   8.782 -0.4070 -0.0097  0.3127
 8705SOL    HW128122   8.586   6.239   8.759 -0.8055  0.0022  1.0452
 8705SOL    HW228123   8.581   6.091   8.727 -3.2021 -0.3548  2.8277
 8706SOL     OW28124   8.209   6.276   8.333 -0.2602  0.4690 -0.3814
 8706SOL    HW128125   8.189   6.219   8.258 -2.3393  1.3769 -0.5736
 8706SOL    HW228126   8.276   6.228   8.382 -1.0529 -1.5566 -1.1809
 8707SOL     OW28127   9.386   9.310   9.105  0.0983 -0.6350 -0.1213
 8707SOL    HW128128   9.291   9.305   9.091  0.1825 -0.5422 -0.7475
 8707SOL    HW228129   9.416   9.378   9.044  0.5391 -0.5104  0.2288
 8708SOL     OW28130   2.802   9.890  10.889 -1.0770  0.2458 -0.5481
 8708SOL    HW128131   2.764   9.966  10.933 -0.5363 -1.6794  3.8248
 8708SOL    HW228132   2.893   9.916  10.873 -1.0056  0.7488  0.5146
 8709SOL     OW28133   6.225  10.342   7.333  0.7622  0.0592  0.2460
 8709SOL    HW128134   6.212  10.410   7.399  3.2291 -0.2756  1.2268
 8709SOL    HW228135   6.320  10.340   7.321  0.4130  0.3063 -3.6273
 8710SOL     OW28136   9.221   3.835   7.776 -0.3014  0.0316 -0.2616
 8710SOL    HW128137   9.293   3.888   7.811 -0.1101  0.0299 -0.6518
 8710SOL    HW228138   9.151   3.898   7.759 -2.0060 -0.3785  4.0108
 8711SOL     OW28139   0.864   2.297  10.875  0.3873 -0.8343 -0.5160
 8711SOL    HW128140   0.938   2.268  10.928  1.7297  0.0654 -1.8269
 8711SOL    HW228141   0.802   2.332  10.938  2.1572  0.6775  0.4821
 8712SOL     OW28142   0.994   8.612   3.377 -0.3470 -0.1456  0.6375
 8712SOL    HW128143   1.088   8.599   3.387  0.2658  2.8500 -0.4499
 8712SOL    HW228144   0.970   8.559   3.301  1.1223  1.3526 -0.9629
 8713SOL     OW28145   4.578   3.455   9.085 -0.7872 -0.0076 -0.3233
 8713SOL    HW128146   4.509   3.404   9.127 -1.4032  1.3949  0.4325
 8713SOL    HW228147   4.651   3.452   9.148 -1.1872  0.8624  0.2022
 8714SOL     OW28148  11.012   0.309   5.620  0.1816  0.4146 -0.5088
 8714SOL    HW128149  11.105   0.333   5.623  0.7919 -1.6332 -1.5800
 8714SOL    HW228150  10.973   0.357   5.693  1.9977  1.6052 -0.2566
 8715SOL     OW28151   1.996   0.381   0.015  0.2540  0.4129 -0.1276
 8715SOL    HW128152   1.926   0.398   0.078  0.4321  1.4324 -0.1993
 8715SOL    HW228153   2.051   0.315   0.058 -1.4473 -1.4342 -0.6104
 8716SOL     OW28154   9.296   3.804   9.840 -0.1883 -0.1582 -0.3475
 8716SOL    HW128155   9.271   3.839   9.755 -0.4940  0.9408  0.1665
 8716SOL    HW228156   9.317   3.712   9.824  1.1543  0.3769 -1.8524
 8717SOL     OW28157   4.649   3.961  10.743  0.4705  0.1208  0.0036
 8717SOL    HW128158   4.605   3.893  10.795 -0.9312  1.3118  0.4321
 8717SOL    HW228159   4.712   4.000  10.803  1.3715 -0.8382 -0.2781
 8718SOL     OW28160   7.575   6.933   6.074  0.4008  0.3591  0.6680
 8718SOL    HW128161   7.479   6.938   6.075  0.4413  1.2457  0.6922
 8718SOL    HW228162   7.595   6.852   6.120 -0.2585  1.3890  2.9016
 8719SOL     OW28163   6.971   5.808   0.654 -0.3088  0.5295  0.0613
 8719SOL    HW128164   7.055   5.841   0.685 -0.4902 -0.6808  2.0247
 8719SOL    HW228165   6.984   5.714   0.645 -1.6983  0.1681  1.4065
 8720SOL     OW28166   5.815   0.308   0.324 -0.1587 -0.1221  0.1332
 8720SOL    HW128167   5.785   0.398   0.308 -0.9135  0.4197  3.8425
 8720SOL    HW228168   5.900   0.303   0.280 -0.1784  2.3438 -0.3445
 8721SOL     OW28169   7.640   8.825   7.479  0.0161 -0.5732  0.5301
 8721SOL    HW128170   7.664   8.781   7.561  0.8784 -1.6315 -0.2700
 8721SOL    HW228171   7.723   8.848   7.438 -0.4109  0.0687  0.0037
 8722SOL     OW28172   0.445   6.970   5.967 -0.4110  0.6204 -0.3678
 8722SOL    HW128173   0.434   6.990   5.874 -1.1686  0.8315 -0.2411
 8722SOL    HW228174   0.503   6.894   5.969  0.6557  1.3844 -0.9529
 8723SOL     OW28175   3.679   2.867   8.410  0.3522  0.1920  0.3990
 8723SOL    HW128176   3.596   2.914   8.402 -0.7763 -1.2746  2.6229
 8723SOL    HW228177   3.695   2.862   8.504  3.4992  1.2421  0.0231
 8724SOL     OW28178   0.235   5.108   0.392 -0.1806 -0.1804 -0.1441
 8724SOL    HW128179   0.276   5.038   0.341 -1.1374 -1.1628  0.3936
 8724SOL    HW228180   0.264   5.093   0.482 -1.8073 -1.0213  0.2855
 8725SOL     OW28181   1.825   4.978   6.673  0.3648  0.1826  0.0091
 8725SOL    HW128182   1.809   4.885   6.658 -0.4261  0.1913  0.7334
 8725SOL    HW228183   1.740   5.014   6.696  0.7090  1.0439 -0.0167
 8726SOL     OW28184   1.984  10.779   1.957 -0.3140  0.7001  0.4272
 8726SOL    HW128185   2.078  10.770   1.938 -0.3573  0.8326  0.1421
 8726SOL    HW228186   1.978  10.775   2.052 -0.0459  0.4171  0.4340
 8727SOL     OW28187   7.276   2.346   0.855  0.4344  0.2186 -0.3170
 8727SOL    HW128188   7.259   2.390   0.938 -1.7930  0.0142 -0.6118
 8727SOL    HW228189   7.316   2.262   0.881  1.5608  0.9507  0.4108
 8728SOL     OW28190   8.704   2.497   8.691  0.4299  0.0136 -0.1881
 8728SOL    HW128191   8.680   2.453   8.772 -0.4088  0.7188 -0.0423
 8728SOL    HW228192   8.758   2.570   8.718  1.5574 -0.7181 -0.4060
 8729SOL     OW28193   9.391   2.109   0.421  0.3130  0.4333 -0.1076
 8729SOL    HW128194   9.312   2.137   0.376 -0.4953  1.2590  1.7187
 8729SOL    HW228195   9.412   2.024   0.382 -1.0336  0.5392 -1.1388
 8730SOL     OW28196   4.790   7.156   3.515 -0.0749 -0.3234 -0.3235
 8730SOL    HW128197   4.735   7.144   3.592 -2.4733  0.7202 -1.7583
 8730SOL    HW228198   4.730   7.184   3.446  2.0696 -0.4593 -2.4071
 8731SOL     OW28199   6.893   1.975   3.546  0.5632  0.4738 -0.7362
 8731SOL    HW128200   6.814   1.929   3.519  0.5873 -0.5233  0.7414
 8731SOL    HW228201   6.948   1.908   3.585  1.5041  1.4092 -0.3951
 8732SOL     OW28202   1.359   1.318   9.006 -0.3080 -0.2487 -0.1125
 8732SOL    HW128203   1.444   1.362   9.009 -1.2210  1.8833 -1.9288
 8732SOL    HW228204   1.296   1.387   9.027 -1.7591 -0.9192 -1.9601
 8733SOL     OW28205   1.341   2.162  10.273  0.3404  0.0819  0.2707
 8733SOL    HW128206   1.259   2.181  10.227 -0.0194 -2.5372 -0.3707
 8733SOL    HW228207   1.409   2.207  10.222 -0.4030 -0.1531 -0.9730
 8734SOL     OW28208   8.130   5.459   9.696 -0.1788 -0.0264  0.5497
 8734SOL    HW128209   8.142   5.380   9.643 -0.6387 -0.0658  0.4959
 8734SOL    HW228210   8.148   5.531   9.636 -1.3942 -0.0499  0.1263
 8735SOL     OW28211   8.120   6.432   1.951 -1.1810 -0.5076 -0.1052
 8735SOL    HW128212   8.097   6.507   2.006  1.1291 -0.1158  0.4439
 8735SOL    HW228213   8.039   6.409   1.907 -1.7733  3.1160 -1.2770
 8736SOL     OW28214   2.235   3.396   9.754  0.4471 -0.3438  0.3464
 8736SOL    HW128215   2.187   3.335   9.697  0.7956 -0.3492  0.0589
 8736SOL    HW228216   2.270   3.341   9.824 -1.5789 -0.0768  1.6456
 8737SOL     OW28217   7.961   3.299   1.255 -1.1140 -0.0566 -0.0194
 8737SOL    HW128218   8.044   3.267   1.220 -0.1391  0.2759  1.8664
 8737SOL    HW228219   7.897   3.232   1.231  0.1959 -1.6519  0.7201
 8738SOL     OW28220   4.071   7.057   9.440 -0.3502 -0.1453  0.2234
 8738SOL    HW128221   4.071   7.123   9.370  0.0187 -0.7973 -0.4044
 8738SOL    HW228222   3.985   7.016   9.435  0.5680 -2.0487 -1.6774
 8739SOL     OW28223   5.227   8.988   8.388  0.2909  0.1981  0.3563
 8739SOL    HW128224   5.320   8.980   8.411  0.2754  0.6812  0.6109
 8739SOL    HW228225   5.186   9.024   8.467  0.0980  1.1109 -0.1406
 8740SOL     OW28226  10.990   8.922  10.265 -0.8819  0.3316 -0.8465
 8740SOL    HW128227  11.070   8.896  10.218 -0.6650 -0.1523 -0.2270
 8740SOL    HW228228  10.932   8.846  10.256 -1.6555  1.0435 -2.1057
 8741SOL     OW28229   5.112   7.567   3.612  0.2340 -0.4268 -0.7099
 8741SOL    HW128230   5.190   7.535   3.658 -0.9376 -1.6217  0.5040
 8741SOL    HW228231   5.095   7.501   3.545 -1.5461 -1.8876  1.0890
 8742SOL     OW28232  10.878   2.190  10.188 -0.4307  0.9020  0.3639
 8742SOL    HW128233  10.834   2.126  10.244 -0.9823  1.1091  0.1758
 8742SOL    HW228234  10.961   2.149  10.165  0.1447  1.1140  1.9372
 8743SOL     OW28235   7.554   8.123   4.696 -0.0557 -0.6027 -0.4269
 8743SOL    HW128236   7.632   8.152   4.744  0.7699 -1.2215 -1.3411
 8743SOL    HW228237   7.484   8.124   4.760  0.5262  0.7526  0.2371
 8744SOL     OW28238  10.493   9.503   8.809  0.0175  0.0400  0.5535
 8744SOL    HW128239  10.588   9.495   8.798 -0.1279 -0.2348 -0.7002
 8744SOL    HW228240  10.469   9.429   8.865  0.8171  1.4519  2.8813
 8745SOL     OW28241   2.158   6.031   7.685  0.2479  0.8499  0.6662
 8745SOL    HW128242   2.080   6.072   7.648 -1.0686 -1.7009  0.4095
 8745SOL    HW228243   2.133   5.940   7.699  3.2072 -0.0819  0.5420
 8746SOL     OW28244   8.167   4.329   4.921 -0.0518 -0.4967 -0.3311
 8746SOL    HW128245   8.131   4.297   4.838 -1.0023  0.3324 -0.2598
 8746SOL    HW228246   8.227   4.399   4.895 -1.6651  0.9547 -0.2580
 8747SOL     OW28247  10.745   9.031   2.217 -0.3365  0.0261  0.7982
 8747SOL    HW128248  10.803   9.017   2.143  0.0565  0.2142  1.0698
 8747SOL    HW228249  10.660   8.999   2.187 -0.0939 -0.2540  0.4029
 8748SOL     OW28250   6.354   8.166   1.976 -0.5000  0.3787  0.3005
 8748SOL    HW128251   6.388   8.077   1.967 -0.0139  0.5791  0.1310
 8748SOL    HW228252   6.261   8.154   1.993 -0.4570 -0.1609  0.1799
 8749SOL     OW28253   6.779   2.340   4.395  0.1688  0.1794  0.2544
 8749SOL    HW128254   6.752   2.280   4.326  0.2486  1.1630 -0.6674
 8749SOL    HW228255   6.775   2.427   4.354  0.5612  0.7560  1.3857
 8750SOL     OW28256   7.016   3.190   8.592  0.5615 -0.6467 -0.2565
 8750SOL    HW128257   7.060   3.265   8.633 -1.5561  0.4315  0.1641
 8750SOL    HW228258   6.961   3.229   8.524 -2.0351 -1.5308  1.2099
 8751SOL     OW28259   8.399   5.120   7.297  0.1430  0.0694 -0.6641
 8751SOL    HW128260   8.447   5.062   7.357  0.7172 -1.0965 -2.1767
 8751SOL    HW228261   8.322   5.069   7.271 -0.8411  1.1058  0.1015
 8752SOL     OW28262   4.687   6.695   0.398  0.2994 -0.8194 -0.0136
 8752SOL    HW128263   4.676   6.628   0.330 -2.1199 -1.6015  1.0460
 8752SOL    HW228264   4.701   6.645   0.479 -0.3715 -0.0329  0.6086
 8753SOL     OW28265   7.547  10.873   1.165  0.5801  0.1319 -0.2778
 8753SOL    HW128266   7.454  10.871   1.145  0.6478  0.3769 -0.6263
 8753SOL    HW228267   7.551  10.905   1.255  0.3555  0.7838 -0.4904
 8754SOL     OW28268   1.872   7.462   4.603  0.0065  0.2810 -0.2899
 8754SOL    HW128269   1.832   7.383   4.566  0.6526 -0.7739  1.1285
 8754SOL    HW228270   1.803   7.528   4.601 -1.6370 -1.2508  1.3684
 8755SOL     OW28271   1.235   4.584   0.432 -0.3945  0.2240  0.1730
 8755SOL    HW128272   1.277   4.612   0.350 -0.1394  1.2363  0.6324
 8755SOL    HW228273   1.165   4.648   0.445 -1.2162 -0.6494  0.1257
 8756SOL     OW28274   5.512   1.680   7.232 -0.0764  0.2914  0.0740
 8756SOL    HW128275   5.552   1.595   7.249 -1.5115 -0.6060 -0.8357
 8756SOL    HW228276   5.541   1.703   7.144 -2.5269 -1.0550 -1.2118
 8757SOL     OW28277   8.764   1.110   2.943  0.1541 -0.1144  0.0566
 8757SOL    HW128278   8.845   1.069   2.975  1.1286  1.4189 -0.3278
 8757SOL    HW228279   8.708   1.117   3.021  1.5324  1.3717  0.9808
 8758SOL     OW28280  10.834   8.256   7.517  0.1728 -0.5695  0.5175
 8758SOL    HW128281  10.860   8.261   7.609  0.0982 -0.5639  0.5382
 8758SOL    HW228282  10.828   8.347   7.488 -1.7955 -0.4852  1.0678
 8759SOL     OW28283   5.687  10.426   2.515 -0.0184  0.3401  0.5597
 8759SOL    HW128284   5.706  10.345   2.564 -1.8818 -0.4138  0.1317
 8759SOL    HW228285   5.758  10.432   2.451 -0.0527 -1.1930  0.3325
 8760SOL     OW28286   2.709   7.907   1.146 -0.3650 -0.0786 -0.5859
 8760SOL    HW128287   2.661   7.883   1.067 -2.2125  1.7706 -0.1173
 8760SOL    HW228288   2.677   7.995   1.168  1.1072  0.0237  1.4501
 8761SOL     OW28289   0.003   6.012   9.048 -0.0902  0.0839 -0.4234
 8761SOL    HW128290  -0.016   6.104   9.030 -0.8408  0.0215  0.0310
 8761SOL    HW228291   0.041   5.980   8.966 -2.1161  0.1668 -1.4680
 8762SOL     OW28292   3.348   3.884   3.246 -0.3754  0.0527  0.6539
 8762SOL    HW128293   3.341   3.790   3.231 -0.4258  0.2149 -0.4453
 8762SOL    HW228294   3.348   3.922   3.158 -2.5046  1.2526  1.1244
 8763SOL     OW28295   9.874   2.077   9.600  0.7305 -0.5145  0.9775
 8763SOL    HW128296   9.918   2.096   9.518 -0.9825 -1.8556 -0.3197
 8763SOL    HW228297   9.827   2.158   9.621 -0.7251 -0.8733 -0.6738
 8764SOL     OW28298   3.681   4.151   0.379 -0.3655  0.3265 -0.1711
 8764SOL    HW128299   3.681   4.116   0.468  0.4513 -0.8156 -0.5982
 8764SOL    HW228300   3.747   4.220   0.380  0.2172 -0.2211 -0.0792
 8765SOL     OW28301   4.339   7.987   3.373 -0.9520  0.1533 -0.0099
 8765SOL    HW128302   4.293   7.915   3.331 -0.6862  0.4417 -0.8139
 8765SOL    HW228303   4.291   8.002   3.455  0.2696 -2.3666  1.2845
 8766SOL     OW28304   0.049   7.965   9.049 -0.0754  0.1184 -0.5996
 8766SOL    HW128305   0.106   7.947   9.124  0.1746 -1.3740 -1.1128
 8766SOL    HW228306   0.023   7.878   9.018 -0.7625  0.7344 -1.7934
 8767SOL     OW28307   9.486   1.779   3.257 -0.1426  0.4125 -0.1647
 8767SOL    HW128308   9.559   1.756   3.315 -0.9657  1.3655  1.3152
 8767SOL    HW228309   9.457   1.695   3.221 -0.1260 -0.3364  1.4584
 8768SOL     OW28310   9.437   4.964   3.117  0.1175  0.0722  0.4585
 8768SOL    HW128311   9.447   5.051   3.157  0.6423  1.1723 -1.8852
 8768SOL    HW228312   9.507   4.912   3.157 -0.0156  0.7865  1.6887
 8769SOL     OW28313   2.441   3.923   1.835 -0.7505  0.1616  0.2405
 8769SOL    HW128314   2.415   3.843   1.789 -0.6044  0.9103 -1.1768
 8769SOL    HW228315   2.489   3.891   1.912 -1.2094 -1.1167  0.0291
 8770SOL     OW28316   1.396   9.796   8.825  0.7127 -0.2630  0.2164
 8770SOL    HW128317   1.453   9.873   8.829  2.0868 -1.2455  0.3385
 8770SOL    HW228318   1.451   9.727   8.789 -0.6686 -1.0512 -0.4683
 8771SOL     OW28319   8.887   2.488   5.738  0.3106  0.6472  0.7234
 8771SOL    HW128320   8.848   2.522   5.819  0.7192  0.4390  1.0140
 8771SOL    HW228321   8.833   2.524   5.668  0.9107  2.1551  0.9991
 8772SOL     OW28322   2.278   7.112   7.884  0.0611 -0.8660 -0.1371
 8772SOL    HW128323   2.321   7.198   7.888  1.7310 -1.6757  0.0958
 8772SOL    HW228324   2.275   7.091   7.790  0.0425 -0.7431 -0.1644
 8773SOL     OW28325   0.090   6.652   5.254 -0.1891 -0.0095  0.1254
 8773SOL    HW128326   0.136   6.587   5.200 -0.3737 -1.4631  1.6544
 8773SOL    HW228327   0.014   6.677   5.201  0.6281  0.0220 -1.0698
 8774SOL     OW28328   2.517  10.767  10.842 -0.4431 -0.1028 -0.1288
 8774SOL    HW128329   2.566  10.822  10.903 -0.1078  0.3081 -0.7534
 8774SOL    HW228330   2.426  10.778  10.867 -0.4711  1.5616 -0.8997
 8775SOL     OW28331   4.380   5.370   5.264  0.3171  0.2152  0.2248
 8775SOL    HW128332   4.349   5.440   5.322 -0.1551  0.5178 -0.3881
 8775SOL    HW228333   4.472   5.390   5.249  0.4717  0.0856  0.9353
 8776SOL     OW28334   6.204  10.197   4.386 -0.1881  1.1041 -0.2678
 8776SOL    HW128335   6.128  10.249   4.361 -0.2548  2.9403  3.0704
 8776SOL    HW228336   6.176  10.107   4.376 -2.1046  1.7345 -1.0057
 8777SOL     OW28337  10.028   1.264   5.450  0.3037 -0.9000  0.2117
 8777SOL    HW128338   9.950   1.306   5.487  0.2838 -0.0262 -0.7661
 8777SOL    HW228339  10.094   1.271   5.519 -0.4564 -1.5964  1.0305
 8778SOL     OW28340   9.120  10.231   5.472  0.3715  0.0617 -0.2809
 8778SOL    HW128341   9.061  10.250   5.399 -0.8127  0.0076  0.6414
 8778SOL    HW228342   9.081  10.275   5.547 -0.1817 -2.4652  1.0089
 8779SOL     OW28343   6.597   7.767   1.476  0.8889  0.0173  0.2606
 8779SOL    HW128344   6.643   7.818   1.409 -1.2532  1.1676 -0.4291
 8779SOL    HW228345   6.664   7.746   1.541  2.4649  1.1777 -0.9121
 8780SOL     OW28346  10.122   9.300   2.614  0.0509  0.0758  0.0399
 8780SOL    HW128347  10.092   9.305   2.705  2.0951 -2.0021  0.9181
 8780SOL    HW228348  10.217   9.294   2.620  0.2700  0.2753 -2.2942
 8781SOL     OW28349   2.966   8.432   2.775 -0.0789 -0.6101  0.1327
 8781SOL    HW128350   3.001   8.421   2.686  0.0352 -0.7345  0.1922
 8781SOL    HW228351   2.951   8.342   2.806  0.3215 -0.5813  0.4123
 8782SOL     OW28352   2.203   8.692   9.200 -0.1601 -0.4256 -0.3654
 8782SOL    HW128353   2.290   8.731   9.211 -0.3986  1.1108 -3.0917
 8782SOL    HW228354   2.221   8.603   9.169  0.3932 -0.8934  1.2074
 8783SOL     OW28355   0.807   2.888   0.203 -1.2568 -0.3881  0.4270
 8783SOL    HW128356   0.792   2.897   0.109 -2.9011 -3.2826  0.2990
 8783SOL    HW228357   0.797   2.976   0.238  0.7075  0.9900 -2.2267
 8784SOL     OW28358   3.182   5.683   8.457  0.3693 -0.2648 -0.1337
 8784SOL    HW128359   3.199   5.665   8.549 -1.1863 -0.7616  0.0880
 8784SOL    HW228360   3.267   5.710   8.421  1.1190 -0.6378  1.2975
 8785SOL     OW28361   0.093   0.452   8.725  0.1882 -0.6870 -0.1815
 8785SOL    HW128362   0.098   0.454   8.821  1.2005 -0.3420 -0.2337
 8785SOL    HW228363   0.140   0.530   8.697 -2.1952  0.5868 -0.9246
 8786SOL     OW28364   4.358  10.156   0.213  0.2944  0.2437  0.5452
 8786SOL    HW128365   4.340  10.133   0.304 -0.8170  3.6427  1.3452
 8786SOL    HW228366   4.311  10.090   0.162 -0.4029 -0.8172  2.4540
 8787SOL     OW28367   6.506   2.868   8.001  0.6710  0.2969 -0.1163
 8787SOL    HW128368   6.559   2.934   8.047  0.2429  1.6768 -1.4983
 8787SOL    HW228369   6.484   2.910   7.917 -0.9801 -0.9932 -0.3774
 8788SOL     OW28370   9.326   2.171   5.446 -0.2602 -0.3760  0.2857
 8788SOL    HW128371   9.293   2.153   5.534  1.4567  0.8021  1.2354
 8788SOL    HW228372   9.270   2.241   5.413 -0.0242  0.1850  1.0460
 8789SOL     OW28373  10.010   1.207   8.388  0.0350 -0.0153  0.2913
 8789SOL    HW128374   9.935   1.148   8.375 -1.4164  2.0106 -1.1579
 8789SOL    HW228375  10.084   1.160   8.349 -1.2162 -0.6384 -1.4679
 8790SOL     OW28376   8.716  10.821   3.651  0.0919  0.8713 -0.1846
 8790SOL    HW128377   8.648  10.888   3.643 -0.1044  0.7078  0.0740
 8790SOL    HW228378   8.733  10.816   3.746  0.1297  0.5793 -0.2064
 8791SOL     OW28379  10.226   1.367   4.946  0.3367 -0.1161  0.3459
 8791SOL    HW128380  10.251   1.310   5.019 -1.8303 -1.0119  0.4641
 8791SOL    HW228381  10.148   1.413   4.977  0.9887  1.6103 -0.4324
 8792SOL     OW28382   5.097  10.961   8.380 -0.1131  0.9565  0.7354
 8792SOL    HW128383   5.102  10.869   8.406  0.5742  1.3016  1.8734
 8792SOL    HW228384   5.115  11.010   8.460 -0.3046  2.0870  0.1089
 8793SOL     OW28385   7.949   1.531   4.433 -0.8261  0.1036  0.3628
 8793SOL    HW128386   7.895   1.452   4.440  0.6600 -1.0360 -0.4526
 8793SOL    HW228387   7.937   1.576   4.516 -2.5355 -0.4167  0.4312
 8794SOL     OW28388   1.050   5.741   5.395  0.0829  0.0174  0.2802
 8794SOL    HW128389   0.957   5.717   5.395 -0.0296  0.2634 -1.8966
 8794SOL    HW228390   1.088   5.693   5.322  1.1260  1.8171 -0.4382
 8795SOL     OW28391   2.343   2.696   5.822 -0.5039  0.1063 -0.1401
 8795SOL    HW128392   2.422   2.742   5.792 -1.4917  0.3757 -2.5040
 8795SOL    HW228393   2.343   2.708   5.917  2.6420 -0.4764  0.0546
 8796SOL     OW28394   3.997   2.943   6.112 -0.3056 -0.1443 -0.0342
 8796SOL    HW128395   4.037   2.921   6.028 -0.8668 -0.6304 -0.1843
 8796SOL    HW228396   3.936   2.871   6.129 -0.0121 -0.1798  0.9150
 8797SOL     OW28397   5.146   2.420   4.939 -0.4846 -0.9444 -0.1555
 8797SOL    HW128398   5.173   2.426   4.847 -2.7127  1.0928 -0.7627
 8797SOL    HW228399   5.051   2.416   4.937 -0.6746  0.2669  2.0655
 8798SOL     OW28400  10.046   9.531   7.302 -0.0417  0.0149  0.5059
 8798SOL    HW128401  10.129   9.577   7.312 -0.4431  1.7692 -2.8774
 8798SOL    HW228402  10.064   9.462   7.239 -1.1682  0.5898 -0.4871
 8799SOL     OW28403  10.415   6.275   5.492  0.0047  0.0897 -0.2270
 8799SOL    HW128404  10.322   6.283   5.471 -0.1830 -2.0014 -0.3522
 8799SOL    HW228405  10.460   6.301   5.411 -0.4449  1.0254 -0.1910
 8800SOL     OW28406   0.623   7.688   1.237  0.6677  0.0029 -0.2620
 8800SOL    HW128407   0.696   7.698   1.298  1.3295  0.8466 -1.1669
 8800SOL    HW228408   0.583   7.775   1.235  0.7195  0.0094 -1.1113
 8801SOL     OW28409   2.875   8.186   8.573 -0.4220  0.4608  0.2104
 8801SOL    HW128410   2.790   8.173   8.616 -0.9036  1.4263 -0.4188
 8801SOL    HW228411   2.867   8.270   8.529  0.8942  0.5949  0.1856
 8802SOL     OW28412   2.325   6.499   4.972  0.0398  0.7825  0.3418
 8802SOL    HW128413   2.316   6.594   4.982  1.9944  1.0485  0.0631
 8802SOL    HW228414   2.367   6.470   5.054  0.1383  0.2788  0.1188
 8803SOL     OW28415   6.617   4.493   2.413  0.3280 -0.1555  0.2710
 8803SOL    HW128416   6.535   4.511   2.368  0.9784 -0.3090 -1.0083
 8803SOL    HW228417   6.627   4.566   2.474 -0.1218  0.5456 -0.4743
 8804SOL     OW28418   9.462   9.795   1.358 -0.2348 -0.6005 -0.0944
 8804SOL    HW128419   9.408   9.717   1.362  0.9354 -1.4349  0.1786
 8804SOL    HW228420   9.540   9.768   1.308 -0.9622  1.1320 -2.3621
 8805SOL     OW28421   5.171   5.638   7.653 -0.2215 -0.1726 -0.3213
 8805SOL    HW128422   5.228   5.672   7.721 -0.3674  0.3729 -0.4716
 8805SOL    HW228423   5.098   5.598   7.700  1.7557 -3.7983  0.0651
 8806SOL     OW28424   2.051   4.408   4.470 -0.4538 -0.3933  0.1165
 8806SOL    HW128425   1.968   4.374   4.437  0.5881 -1.9881 -1.0214
 8806SOL    HW228426   2.056   4.497   4.436 -1.4782 -0.4422 -0.1942
 8807SOL     OW28427   7.441   5.604   1.304  0.0636 -0.5403  0.2697
 8807SOL    HW128428   7.434   5.700   1.301  3.3368 -0.2271 -0.6973
 8807SOL    HW228429   7.456   5.584   1.396  0.4135 -0.0287  0.3239
 8808SOL     OW28430   3.502   1.098   0.505 -0.3109 -0.6587 -0.5009
 8808SOL    HW128431   3.427   1.056   0.463 -0.9599 -0.3945  0.3727
 8808SOL    HW228432   3.498   1.189   0.474  0.5519 -0.9938 -1.6560
 8809SOL     OW28433   8.404   8.115   0.017 -0.2886 -0.6064  0.3527
 8809SOL    HW128434   8.398   8.207  -0.008  3.6858 -0.7362 -2.0178
 8809SOL    HW228435   8.414   8.116   0.113  0.3387  1.5056  0.3051
 8810SOL     OW28436   8.650   1.420   1.629 -0.2604 -0.3918  0.7768
 8810SOL    HW128437   8.701   1.492   1.667 -1.4311  0.1656  1.3421
 8810SOL    HW228438   8.576   1.410   1.688 -0.8645 -1.1144 -0.0819
 8811SOL     OW28439   3.387  10.852   6.379  0.2226 -0.4806  0.2358
 8811SOL    HW128440   3.302  10.890   6.400  0.6671  0.9150 -0.3722
 8811SOL    HW228441   3.419  10.817   6.462 -0.2746  0.3708  0.7991
 8812SOL     OW28442   4.372   0.895   6.667  0.7584  0.1163  0.1805
 8812SOL    HW128443   4.429   0.889   6.590 -0.7283  1.4319 -1.0947
 8812SOL    HW228444   4.382   0.986   6.696 -0.6553  0.3687 -0.0671
 8813SOL     OW28445   1.910  10.797   8.049  0.2249  0.7172 -0.0524
 8813SOL    HW128446   1.949  10.744   8.118  0.0378  2.1307  1.1995
 8813SOL    HW228447   1.900  10.737   7.975  1.5787 -0.5374  0.7190
 8814SOL     OW28448   0.766   0.736   4.875 -0.0035  0.2939  0.3159
 8814SOL    HW128449   0.787   0.768   4.963 -1.7037 -0.9192  1.2304
 8814SOL    HW228450   0.848   0.742   4.827  0.8876  1.3350  1.8691
 8815SOL     OW28451   0.658   1.193   7.543  0.4088 -0.0226  0.1576
 8815SOL    HW128452   0.686   1.258   7.607 -0.1297 -0.4944  0.8839
 8815SOL    HW228453   0.606   1.130   7.593  0.3439 -0.6413 -0.6577
 8816SOL     OW28454   5.280   1.687   9.588  0.3450 -0.1634  0.8455
 8816SOL    HW128455   5.266   1.777   9.617  2.1166  0.8241 -1.1489
 8816SOL    HW228456   5.372   1.683   9.563  0.4352 -2.6843  1.2812
 8817SOL     OW28457   3.533   3.076  10.226 -0.0909 -0.2662 -0.7068
 8817SOL    HW128458   3.483   3.157  10.239 -1.4258 -1.1493 -0.1453
 8817SOL    HW228459   3.479   3.024  10.166  1.0020 -0.5555 -1.4707
 8818SOL     OW28460   9.107   6.304   6.899 -0.4290 -0.4153 -0.0239
 8818SOL    HW128461   9.071   6.357   6.828  0.9521  2.1583  1.0827
 8818SOL    HW228462   9.054   6.224   6.898 -2.8499  1.0689 -1.5912
 8819SOL     OW28463   7.233   4.173  10.696 -0.5193  0.7299 -0.0658
 8819SOL    HW128464   7.202   4.230  10.625  0.5736  1.2239 -0.1650
 8819SOL    HW228465   7.316   4.212  10.723 -0.9007  0.5287  1.4776
 8820SOL     OW28466   2.442   3.362   6.712 -0.1975  0.5170  0.8603
 8820SOL    HW128467   2.529   3.378   6.748 -0.2013 -2.4393  2.4812
 8820SOL    HW228468   2.398   3.447   6.716  1.8510  1.5924  2.1244
 8821SOL     OW28469   4.902   5.309   6.429 -0.5756 -0.3703  0.3002
 8821SOL    HW128470   4.811   5.323   6.404 -0.8714 -2.0758  0.3139
 8821SOL    HW228471   4.927   5.228   6.383  1.0636  0.2874 -0.0444
 8822SOL     OW28472   3.092   4.651   7.586  0.1238 -0.4430 -0.6513
 8822SOL    HW128473   3.133   4.737   7.590  1.2424 -0.9162 -1.1928
 8822SOL    HW228474   3.163   4.590   7.606 -0.7492 -1.2244  0.1647
 8823SOL     OW28475  10.277   0.997   1.166 -0.2266  0.4392 -0.4314
 8823SOL    HW128476  10.314   1.048   1.238 -0.5680 -1.2093  0.9856
 8823SOL    HW228477  10.341   0.926   1.151 -1.9708 -1.5760  1.0368
 8824SOL     OW28478  10.769  10.896   2.187 -0.2555 -0.7601  0.1898
 8824SOL    HW128479  10.730  10.823   2.235 -1.1729 -1.2320 -1.2193
 8824SOL    HW228480  10.699  10.960   2.178 -0.0580 -0.6248 -0.4197
 8825SOL     OW28481   3.165  10.751   3.386 -0.5747 -0.6660  0.5352
 8825SOL    HW128482   3.233  10.816   3.404  0.9623 -1.5677 -1.5890
 8825SOL    HW228483   3.117  10.785   3.311 -0.5312 -1.4200  0.1544
 8826SOL     OW28484   2.179   8.083   6.956  0.1554  0.0127 -0.0509
 8826SOL    HW128485   2.131   8.012   6.998 -0.8043 -0.4841 -1.8716
 8826SOL    HW228486   2.244   8.039   6.901 -1.0466  0.4559 -1.9030
 8827SOL     OW28487   9.511   6.645   7.625 -0.8325 -0.1745 -0.4054
 8827SOL    HW128488   9.586   6.699   7.649 -0.7581 -1.0073  1.3508
 8827SOL    HW228489   9.549   6.568   7.582 -0.6122 -0.8027  0.8681
 8828SOL     OW28490   5.090   4.813   3.103 -0.7441  0.2905 -0.4051
 8828SOL    HW128491   5.098   4.730   3.057 -3.9534 -0.1517 -0.4225
 8828SOL    HW228492   5.149   4.872   3.057 -1.3099 -0.9953 -2.9553
 8829SOL     OW28493  10.156   2.300   8.988 -0.5935  0.3102  0.0105
 8829SOL    HW128494  10.106   2.235   9.038 -0.6847  0.0966 -0.3555
 8829SOL    HW228495  10.200   2.249   8.920 -0.1380  0.5437  0.1278
 8830SOL     OW28496   8.702   6.405   3.802 -0.1920 -0.4878  0.6014
 8830SOL    HW128497   8.754   6.413   3.722 -0.6025  1.7131  0.5073
 8830SOL    HW228498   8.669   6.315   3.799  0.4998 -0.7323 -1.2540
 8831SOL     OW28499   6.511   1.437   4.129 -0.4871  1.3630 -0.0025
 8831SOL    HW128500   6.438   1.375   4.121  0.3610  0.2433  0.6422
 8831SOL    HW228501   6.527   1.467   4.039  0.1492 -0.6464 -0.6086
 8832SOL     OW28502   9.532   5.015   3.409  0.6214 -0.1945  0.0353
 8832SOL    HW128503   9.536   5.108   3.387  0.5951 -0.5633 -1.7385
 8832SOL    HW228504   9.543   5.012   3.504 -0.7205  1.7068  0.3235
 8833SOL     OW28505   5.044   1.596   2.523  0.0381  0.1813 -0.5101
 8833SOL    HW128506   5.075   1.513   2.487  0.5717  0.1581 -0.0260
 8833SOL    HW228507   4.955   1.579   2.552 -1.5662  0.9582 -4.4041
 8834SOL     OW28508   2.953   5.034  11.009  0.2158  0.2632 -0.6338
 8834SOL    HW128509   2.918   5.053  10.922 -0.3694 -3.4434 -1.4043
 8834SOL    HW228510   3.020   4.967  10.993  0.3551 -0.2329  1.7154
 8835SOL     OW28511   4.111   5.292   7.644 -0.1277 -0.8933 -0.0312
 8835SOL    HW128512   4.113   5.256   7.555 -2.2146  0.7580 -0.8282
 8835SOL    HW228513   4.179   5.360   7.644 -1.4385  0.4861 -1.0782
 8836SOL     OW28514   1.121   6.688  10.903 -0.0145 -0.4916  0.9130
 8836SOL    HW128515   1.104   6.782  10.895  2.3342  0.0487  1.3487
 8836SOL    HW228516   1.054   6.647  10.849 -0.7225  1.4792  0.1793
 8837SOL     OW28517   7.440  10.976   2.683 -0.3922  0.1316  0.6645
 8837SOL    HW128518   7.357  10.939   2.712  0.0044 -1.0797  0.2861
 8837SOL    HW228519   7.417  11.031   2.608 -0.7984 -0.5924  0.2482
 8838SOL     OW28520   6.648   1.230   1.036 -0.4887 -0.1219 -0.1566
 8838SOL    HW128521   6.589   1.174   1.087  0.0857 -0.1972  0.4357
 8838SOL    HW228522   6.589   1.286   0.985 -1.0713 -0.3114  0.2975
 8839SOL     OW28523   0.566   2.631   2.594 -0.0042  0.0820 -0.7653
 8839SOL    HW128524   0.610   2.551   2.564 -0.1315  0.4475 -1.9790
 8839SOL    HW228525   0.475   2.605   2.607 -0.0742  0.0568 -1.2916
 8840SOL     OW28526  11.075   9.031   6.808 -0.0883  0.0126  0.4476
 8840SOL    HW128527  11.087   8.974   6.732 -1.9655  0.5576 -0.3173
 8840SOL    HW228528  11.056   8.970   6.880 -0.4464 -0.4247 -0.0070
 8841SOL     OW28529   2.171   4.369   7.593  0.0352 -0.7386  0.7376
 8841SOL    HW128530   2.225   4.313   7.650 -0.5137 -1.4426  0.5791
 8841SOL    HW228531   2.190   4.458   7.623  3.5143 -0.6618 -1.1802
 8842SOL     OW28532   5.975  10.770  11.043 -0.2928 -0.1260 -1.0058
 8842SOL    HW128533   6.004  10.791  10.954  0.1163 -1.2754 -1.1716
 8842SOL    HW228534   6.010  10.841  11.097  0.8762 -0.2728 -1.5412
 8843SOL     OW28535   5.886   1.697   9.082  0.2131 -0.1295  0.0931
 8843SOL    HW128536   5.824   1.761   9.048 -0.0541  0.8544  2.2562
 8843SOL    HW228537   5.969   1.718   9.039  0.5954  3.0011  2.0845
 8844SOL     OW28538   7.755   6.783   4.177  0.3195  0.6582 -0.6732
 8844SOL    HW128539   7.681   6.732   4.144  0.2151  0.8599 -0.7489
 8844SOL    HW228540   7.815   6.789   4.103  0.1467  0.9951 -0.7839
 8845SOL     OW28541   9.862   3.663   4.821 -0.1800  0.3525  0.0316
 8845SOL    HW128542   9.908   3.743   4.846  0.1991  0.3641 -0.7018
 8845SOL    HW228543   9.818   3.684   4.739 -1.9036  0.4917  0.9401
 8846SOL     OW28544   9.246   7.765   7.323 -0.8538 -0.0932 -0.5042
 8846SOL    HW128545   9.198   7.778   7.405  0.6769  3.3424  0.0370
 8846SOL    HW228546   9.337   7.782   7.346 -0.2224 -0.2469 -2.6745
 8847SOL     OW28547   5.837   1.111   5.857 -0.3418  0.3148 -0.1942
 8847SOL    HW128548   5.847   1.022   5.822 -1.1868 -0.8153  2.2200
 8847SOL    HW228549   5.771   1.103   5.926 -0.3753  2.8147  0.1726
 8848SOL     OW28550   3.958   1.363   6.568  0.1591 -0.3108  0.2351
 8848SOL    HW128551   3.898   1.419   6.617  0.1064 -0.3527  0.2173
 8848SOL    HW228552   3.915   1.278   6.564 -0.9555  0.2962 -1.9981
 8849SOL     OW28553   3.972   6.005   7.232  0.1722 -0.4889  0.8266
 8849SOL    HW128554   3.947   6.070   7.297  1.4000  1.0355 -0.1677
 8849SOL    HW228555   4.067   6.000   7.238  0.2620 -0.7441 -0.4543
 8850SOL     OW28556   1.022   8.060   9.915 -0.0306 -0.2379 -0.4565
 8850SOL    HW128557   1.054   8.104   9.994 -1.1331 -1.7677  0.9074
 8850SOL    HW228558   0.943   8.108   9.891 -1.0667 -1.2001  0.8569
 8851SOL     OW28559   8.706   9.111   2.892  0.2459 -0.1322 -0.1840
 8851SOL    HW128560   8.690   9.201   2.918  1.4702 -0.2681  1.1330
 8851SOL    HW228561   8.620   9.069   2.894  0.0389  0.3289  1.9317
 8852SOL     OW28562   5.586  10.894   2.437 -0.1771 -0.2590  0.2898
 8852SOL    HW128563   5.662  10.891   2.379  0.0938  1.0111  0.5489
 8852SOL    HW228564   5.511  10.877   2.379 -0.2949  4.1980 -1.2640
 8853SOL     OW28565   5.887   5.110  10.565  0.0460 -0.3763  0.2333
 8853SOL    HW128566   5.935   5.141  10.642 -0.2835 -0.2541  0.3892
 8853SOL    HW228567   5.933   5.149  10.490  0.0339 -0.0549  0.3937
 8854SOL     OW28568   1.094   3.300   0.201  0.3908 -0.4559 -0.3181
 8854SOL    HW128569   1.136   3.214   0.198  1.8044  0.1737  0.1863
 8854SOL    HW228570   1.130   3.341   0.280  0.6063  1.0071 -1.1473
 8855SOL     OW28571   3.950   7.964   2.865  0.2627  0.4065  0.3921
 8855SOL    HW128572   3.880   7.900   2.850  0.6845 -0.2034  0.9831
 8855SOL    HW228573   3.937   7.994   2.955  0.2061  0.9922  0.1952
 8856SOL     OW28574   3.003   6.284  10.220  0.4077 -0.5494  0.4058
 8856SOL    HW128575   3.085   6.262  10.176  0.9156 -0.2946  1.1939
 8856SOL    HW228576   2.935   6.242  10.167  0.4178  3.6091 -3.5095
 8857SOL     OW28577   8.128  10.141   5.659 -0.3693 -0.2731 -0.0416
 8857SOL    HW128578   8.099  10.174   5.744 -2.8144  1.6108 -1.4970
 8857SOL    HW228579   8.050  10.101   5.621  0.9111 -1.9261 -1.1066
 8858SOL     OW28580   7.987   5.200   1.357  0.9482  1.0423 -0.5199
 8858SOL    HW128581   8.069   5.217   1.404 -0.0965  1.4680  1.2460
 8858SOL    HW228582   7.918   5.228   1.417 -0.5647 -0.6427 -1.3388
 8859SOL     OW28583   2.688  10.208   1.223 -0.1142 -0.4894  0.3280
 8859SOL    HW128584   2.653  10.241   1.140  2.1483 -2.1460 -1.4135
 8859SOL    HW228585   2.668  10.277   1.286 -1.2638  1.1952 -1.7311
 8860SOL     OW28586  10.069   6.279   4.184 -0.4406 -0.0589  0.4946
 8860SOL    HW128587  10.058   6.335   4.107  1.3383 -0.4477 -0.0923
 8860SOL    HW228588  10.013   6.204   4.168  2.8151 -2.1477 -2.4863
 8861SOL     OW28589   4.084   1.612   5.685 -0.2079  0.5614  0.4769
 8861SOL    HW128590   4.147   1.548   5.650  0.2640  0.3803  1.6104
 8861SOL    HW228591   4.083   1.594   5.779 -4.5287 -1.8341  0.2434
 8862SOL     OW28592   6.774   1.768   7.723  0.2472 -0.6013  0.2198
 8862SOL    HW128593   6.756   1.740   7.633  1.4210  2.1098 -0.9810
 8862SOL    HW228594   6.815   1.692   7.764 -0.3315 -1.9115 -1.5385
 8863SOL     OW28595   9.212   3.991   0.647 -0.0496 -0.1946  0.5837
 8863SOL    HW128596   9.148   3.926   0.675 -0.5030  0.1911  0.4437
 8863SOL    HW228597   9.244   4.030   0.729 -1.0753  0.6474  0.5890
 8864SOL     OW28598   2.205   5.934  10.970  0.1570 -0.2565 -0.0896
 8864SOL    HW128599   2.251   5.991  10.908 -0.4750 -0.2334 -0.5486
 8864SOL    HW228600   2.125   5.982  10.991  1.0787  0.4983  2.0133
 8865SOL     OW28601   6.568   1.635  10.077  0.5670 -0.1058 -0.3207
 8865SOL    HW128602   6.507   1.569  10.044  1.1469 -1.0693  0.4892
 8865SOL    HW228603   6.523   1.718  10.062 -0.8296 -0.7768 -0.0134
 8866SOL     OW28604   8.577   9.356   6.766  0.4424 -0.5085 -0.1971
 8866SOL    HW128605   8.652   9.308   6.732  0.0856 -1.3043  0.1207
 8866SOL    HW228606   8.605   9.388   6.851  0.4690 -0.6693 -0.1469
 8867SOL     OW28607   6.346   6.042   3.879 -0.5169 -0.1412 -0.3646
 8867SOL    HW128608   6.385   6.039   3.792  2.6897  1.0969  0.9132
 8867SOL    HW228609   6.407   5.994   3.934 -1.6013  0.5516  1.5235
 8868SOL     OW28610   7.058   2.579   4.330  0.6862  0.5199 -0.2534
 8868SOL    HW128611   7.136   2.623   4.298  0.0973  0.5379 -1.7397
 8868SOL    HW228612   6.990   2.602   4.267  0.2210 -2.0650 -0.8228
 8869SOL     OW28613   5.370   1.572   9.263 -0.1998  0.4936 -0.2149
 8869SOL    HW128614   5.285   1.591   9.224  0.2480 -0.5721 -1.7924
 8869SOL    HW228615   5.424   1.541   9.190  1.4746  0.9060  0.7908
 8870SOL     OW28616   5.540   1.100   5.266 -0.5571  0.0151 -0.0777
 8870SOL    HW128617   5.561   1.175   5.211 -0.2977 -0.2574 -0.3583
 8870SOL    HW228618   5.554   1.130   5.355 -2.7174  1.0224 -0.0313
 8871SOL     OW28619   2.768   9.893   0.634  0.2965  0.1469  0.5677
 8871SOL    HW128620   2.778   9.800   0.615 -3.0149 -0.1690 -0.3370
 8871SOL    HW228621   2.785   9.938   0.551 -1.9138 -0.0818 -0.0627
 8872SOL     OW28622   0.206   2.121   8.800 -1.1156  0.2137  0.7466
 8872SOL    HW128623   0.285   2.078   8.831 -0.6472  0.0427 -0.6285
 8872SOL    HW228624   0.227   2.149   8.711 -3.1760 -1.4981 -0.3822
 8873SOL     OW28625   1.060   1.899   3.274  0.4273 -0.3501  0.0535
 8873SOL    HW128626   1.033   1.828   3.216 -2.1767  0.4631  0.0998
 8873SOL    HW228627   1.092   1.855   3.353  2.7295 -1.4488 -1.3890
 8874SOL     OW28628  10.492   3.698   2.778  1.0651  0.4409  0.1384
 8874SOL    HW128629  10.491   3.640   2.701 -1.3517  0.5267  0.0329
 8874SOL    HW228630  10.536   3.647   2.846  0.3675 -0.9303 -0.4026
 8875SOL     OW28631   1.947   3.875   5.933 -0.1357 -0.3047 -0.1730
 8875SOL    HW128632   1.967   3.926   5.854  1.3715 -1.1923 -0.3994
 8875SOL    HW228633   1.889   3.932   5.984 -2.4828 -0.3306 -2.5899
 8876SOL     OW28634   9.509   9.524  10.980 -0.0376  0.0485  0.6999
 8876SOL    HW128635   9.547   9.440  11.007  0.1664 -1.3572 -3.3154
 8876SOL    HW228636   9.556   9.547  10.900 -3.0924  1.7109 -0.7891
 8877SOL     OW28637   2.816   5.943  10.528 -0.7089 -0.1774  0.5917
 8877SOL    HW128638   2.758   5.893  10.471  2.1762 -1.3145 -1.5953
 8877SOL    HW228639   2.863   5.877  10.579  0.7054  0.4595  0.1762
 8878SOL     OW28640   9.122   0.560   2.206  0.1917  0.1456  0.0854
 8878SOL    HW128641   9.107   0.523   2.118  0.4494 -0.4508  0.2855
 8878SOL    HW228642   9.198   0.512   2.239  2.1608  2.5260 -0.6042
 8879SOL     OW28643   2.949   6.991   0.267 -0.2133  0.4839 -0.1717
 8879SOL    HW128644   2.885   6.985   0.197  0.1872  1.4543 -0.6479
 8879SOL    HW228645   2.914   7.058   0.326  1.1016  2.2706 -1.3034
 8880SOL     OW28646   9.563  10.828   1.441 -0.0777  0.2756  0.5413
 8880SOL    HW128647   9.471  10.808   1.458 -0.1730  1.5831  1.7616
 8880SOL    HW228648   9.587  10.891   1.509  1.8099 -0.2583  0.4347
 8881SOL     OW28649   5.508   8.849   9.636 -0.3969 -0.8845 -0.3074
 8881SOL    HW128650   5.463   8.920   9.590  0.1560 -0.8254 -0.7702
 8881SOL    HW228651   5.485   8.861   9.728 -0.2495 -0.0587 -0.3732
 8882SOL     OW28652   1.765   4.065   3.406  0.0857  0.4469 -0.2001
 8882SOL    HW128653   1.716   3.984   3.395  2.1741 -1.4708  2.9681
 8882SOL    HW228654   1.702   4.126   3.444 -0.7100 -0.8187  0.5771
 8883SOL     OW28655   3.162   4.510   7.075  0.2779  0.3831 -0.4160
 8883SOL    HW128656   3.199   4.598   7.073  3.2103 -0.7787 -1.6902
 8883SOL    HW228657   3.213   4.465   7.142 -1.6625 -0.2547  0.7286
 8884SOL     OW28658   2.751   3.345   9.079  0.2255 -0.3510 -0.2953
 8884SOL    HW128659   2.768   3.336   8.985 -1.2387  0.5772 -0.6688
 8884SOL    HW228660   2.761   3.256   9.113 -1.1664 -1.0953 -1.6828
 8885SOL     OW28661   2.036   6.047   2.740 -0.2128 -0.1672  0.1031
 8885SOL    HW128662   1.953   6.004   2.763 -2.0186  1.2959 -3.0004
 8885SOL    HW228663   2.091   5.976   2.708 -0.0292 -1.2271  2.5540
 8886SOL     OW28664  10.017   4.791   2.256  0.2216  0.8797  0.6090
 8886SOL    HW128665   9.935   4.796   2.206  1.0492 -0.0260 -0.8993
 8886SOL    HW228666   9.996   4.734   2.329  0.2241 -1.9248 -1.4189
 8887SOL     OW28667   9.619   8.279   2.805  0.5874  0.0535  0.0950
 8887SOL    HW128668   9.667   8.358   2.779  2.0555  0.4053  3.4383
 8887SOL    HW228669   9.564   8.308   2.878  1.2799 -2.0093  1.5030
 8888SOL     OW28670  11.045   5.392   5.824 -0.1341  0.0503 -0.6627
 8888SOL    HW128671  11.097   5.450   5.768 -0.3489  0.9023 -0.0074
 8888SOL    HW228672  10.971   5.446   5.850 -1.0302 -0.9521 -1.0763
 8889SOL     OW28673   7.868   7.002  10.562 -0.2300  0.0994 -0.2298
 8889SOL    HW128674   7.951   7.050  10.562 -0.7793  1.1328  1.2979
 8889SOL    HW228675   7.830   7.019  10.476  0.5388  0.7016 -0.4617
 8890SOL     OW28676  10.045   3.636   1.461  0.1225  0.0202  0.2978
 8890SOL    HW128677   9.973   3.636   1.524  0.8849  1.4250  1.2322
 8890SOL    HW228678  10.017   3.577   1.392 -3.5034  3.0848 -1.2027
 8891SOL     OW28679   3.050   0.726   1.191 -0.2820  0.4576  0.3455
 8891SOL    HW128680   2.975   0.777   1.161  1.1268  2.1597 -0.4772
 8891SOL    HW228681   3.041   0.725   1.286 -2.4728 -1.2668  0.1895
 8892SOL     OW28682   0.538   9.886   5.890  0.1184  0.0772 -0.0603
 8892SOL    HW128683   0.461   9.884   5.946  1.2031 -0.3961  1.4749
 8892SOL    HW228684   0.503   9.885   5.801 -1.6936  2.1694  0.5510
 8893SOL     OW28685   7.315   2.310   3.780 -0.9070 -0.8162 -0.2525
 8893SOL    HW128686   7.230   2.351   3.771  0.0025  1.1510 -0.2970
 8893SOL    HW228687   7.296   2.216   3.786 -3.2868 -0.2867  2.4673
 8894SOL     OW28688   7.466   9.156   6.307 -0.5091 -1.0079 -0.6433
 8894SOL    HW128689   7.424   9.104   6.239 -0.8127 -0.6284 -0.7493
 8894SOL    HW228690   7.560   9.139   6.296 -0.6530 -2.5337  0.1446
 8895SOL     OW28691   6.363   3.712   8.484 -0.1437  0.4145 -0.4929
 8895SOL    HW128692   6.340   3.737   8.573 -2.4117 -0.2525 -0.8094
 8895SOL    HW228693   6.348   3.791   8.432  1.5669  0.9207 -0.2719
 8896SOL     OW28694   1.456   5.620   0.528 -0.1561  0.5712 -0.2424
 8896SOL    HW128695   1.524   5.552   0.535  1.3023  1.8143 -1.4952
 8896SOL    HW228696   1.424   5.631   0.617  0.0755 -1.2430  0.1096
 8897SOL     OW28697   3.959   4.915   2.425  1.1089 -0.3182 -0.1617
 8897SOL    HW128698   3.927   4.908   2.515  0.5468  0.6827 -0.2728
 8897SOL    HW228699   3.924   4.837   2.381  2.7597 -1.7048  0.8627
 8898SOL     OW28700   8.543   4.965  10.490 -0.1823 -0.0208 -0.2952
 8898SOL    HW128701   8.522   4.900  10.424 -0.9349  0.4741 -0.5615
 8898SOL    HW228702   8.465   5.020  10.495 -0.2259 -0.1771  1.1641
 8899SOL     OW28703   2.928   0.145   3.651 -0.0683 -0.5722 -0.1383
 8899SOL    HW128704   3.014   0.166   3.688  0.4891 -2.2754 -0.3631
 8899SOL    HW228705   2.892   0.079   3.710  0.1336 -2.1122 -1.6625
 8900SOL     OW28706   3.604   7.836   8.891 -0.0890  0.2399  0.0808
 8900SOL    HW128707   3.649   7.771   8.837  2.3996 -0.0623  2.2978
 8900SOL    HW228708   3.579   7.787   8.970  0.3046  1.5373  1.0471
 8901SOL     OW28709  10.064   9.893   8.011 -0.2770  0.6029 -0.0468
 8901SOL    HW128710  10.018   9.897   7.927  1.8804 -0.1685 -1.3291
 8901SOL    HW228711  10.060   9.983   8.044 -1.1013  0.9362 -0.9901
 8902SOL     OW28712   0.203   7.158   4.000 -0.7769 -0.7989 -0.2735
 8902SOL    HW128713   0.119   7.198   3.977  0.4585  3.0042  1.1924
 8902SOL    HW228714   0.199   7.148   4.095 -0.2787 -2.5244 -0.3989
 8903SOL     OW28715   3.547   4.328  10.499 -0.1574 -0.7536 -0.0427
 8903SOL    HW128716   3.457   4.296  10.507 -0.4720  0.1797  0.2895
 8903SOL    HW228717   3.593   4.257  10.454 -1.6635 -0.2186 -2.6547
 8904SOL     OW28718   5.070   6.959   3.717  0.7196 -0.1914  0.7597
 8904SOL    HW128719   5.035   6.945   3.805 -2.5637 -2.2521 -0.6354
 8904SOL    HW228720   5.096   6.872   3.688 -0.8367 -0.0739 -1.1806
 8905SOL     OW28721   8.961  10.007   1.509  0.1644 -0.2167  0.4342
 8905SOL    HW128722   8.989   9.922   1.476  0.4742 -0.2496  0.7690
 8905SOL    HW228723   8.946   9.992   1.603  1.6725  0.4411  0.8114
 8906SOL     OW28724   8.904   0.681   3.695  0.1524  0.6640  0.2869
 8906SOL    HW128725   8.878   0.772   3.708  1.0797  1.0301 -0.3525
 8906SOL    HW228726   8.829   0.641   3.651 -0.0681  1.2334  0.1345
 8907SOL     OW28727   3.442   4.745   8.321 -0.1296 -0.4934  0.1027
 8907SOL    HW128728   3.350   4.760   8.300 -0.1062 -1.3382 -0.7093
 8907SOL    HW228729   3.445   4.653   8.347  0.4069 -0.3336  0.6086
 8908SOL     OW28730   0.995   8.150   3.634 -1.1347 -0.2827  0.2232
 8908SOL    HW128731   1.012   8.103   3.553 -1.4639 -1.0938  0.6222
 8908SOL    HW228732   1.083   8.174   3.666 -1.0571  2.0276 -1.4905
 8909SOL     OW28733   4.182   8.748   2.479 -0.7648  0.2562  0.1151
 8909SOL    HW128734   4.219   8.833   2.504  0.3475 -0.2864  0.3991
 8909SOL    HW228735   4.137   8.718   2.558  0.3527 -0.1976  0.5962
 8910SOL     OW28736   9.671   3.355   6.827  0.0084  0.0755 -0.3793
 8910SOL    HW128737   9.764   3.374   6.838  0.3007 -1.4645  0.0682
 8910SOL    HW228738   9.629   3.441   6.821  1.4843  0.7867 -0.9250
 8911SOL     OW28739   4.560   3.069  10.874  0.0578  0.1891  0.1452
 8911SOL    HW128740   4.487   3.008  10.886 -2.7557  2.7614 -2.0367
 8911SOL    HW228741   4.607   3.035  10.797 -1.0396  0.3362 -0.6113
 8912SOL     OW28742   3.171   6.922   2.705 -0.2451 -0.3713 -0.3004
 8912SOL    HW128743   3.096   6.980   2.715 -0.6429 -0.6234 -1.6834
 8912SOL    HW228744   3.141   6.838   2.738  0.0210 -0.0524  0.7993
 8913SOL     OW28745   1.833   2.240  10.338 -0.4517 -0.0128  0.0279
 8913SOL    HW128746   1.910   2.268  10.389 -0.8821 -2.3963  2.1989
 8913SOL    HW228747   1.869   2.207  10.256  0.7108  0.3091  0.3929
 8914SOL     OW28748   6.747   2.582   3.087 -0.4616 -0.1850 -0.1755
 8914SOL    HW128749   6.678   2.585   3.154  1.6681 -1.8779  2.3160
 8914SOL    HW228750   6.724   2.508   3.031 -0.8732 -0.5142  0.4188
 8915SOL     OW28751   4.320   1.971   5.404 -0.5906 -0.4239  0.3409
 8915SOL    HW128752   4.323   2.065   5.423 -1.7763 -0.7104  2.1484
 8915SOL    HW228753   4.402   1.936   5.440  0.3608  0.0247 -1.2777
 8916SOL     OW28754  10.093   1.083   3.743 -0.2829  0.7824 -1.0546
 8916SOL    HW128755  10.001   1.089   3.769 -0.1450 -0.7058 -0.0951
 8916SOL    HW228756  10.090   1.067   3.649 -1.1490 -1.7163 -0.6728
 8917SOL     OW28757   7.340   7.543   8.385  0.2100  0.0544 -0.2234
 8917SOL    HW128758   7.298   7.563   8.302 -1.4433 -0.6781  0.3968
 8917SOL    HW228759   7.268   7.539   8.448  1.1836 -1.3545  0.8713
 8918SOL     OW28760   2.239   1.311   6.402 -0.0424 -0.3268 -0.3293
 8918SOL    HW128761   2.303   1.363   6.353  0.6426 -0.5887  0.2640
 8918SOL    HW228762   2.226   1.233   6.348 -0.9173  0.3583 -1.1208
 8919SOL     OW28763   6.122   2.827   5.363 -0.6157 -0.0528  0.0324
 8919SOL    HW128764   6.066   2.802   5.436 -0.6499 -0.5040 -0.1465
 8919SOL    HW228765   6.115   2.755   5.301  2.0255 -1.3139  1.0414
 8920SOL     OW28766   9.875   3.362   9.508  1.0354  0.1194 -0.5721
 8920SOL    HW128767   9.893   3.411   9.588  1.4609 -1.6725  0.4814
 8920SOL    HW228768   9.960   3.322   9.485  0.2924 -1.7938 -0.1899
 8921SOL     OW28769   8.560   7.413   4.753  0.2331  0.0561  1.0345
 8921SOL    HW128770   8.631   7.478   4.752  0.6241 -0.3634  0.7690
 8921SOL    HW228771   8.492   7.452   4.808 -1.1201  2.3711 -1.9894
 8922SOL     OW28772   5.781   3.361  10.161 -0.5565 -0.3167  0.6218
 8922SOL    HW128773   5.688   3.377  10.143 -0.2226 -0.6820 -1.6273
 8922SOL    HW228774   5.802   3.281  10.115  1.7066  1.6226 -2.0702
 8923SOL     OW28775   4.593   7.407  10.376  0.5066 -0.1901  0.2967
 8923SOL    HW128776   4.658   7.369  10.317 -0.4910  1.3217 -1.9072
 8923SOL    HW228777   4.509   7.371  10.346  0.0903 -0.5433  1.7895
 8924SOL     OW28778   3.591   1.683   9.910  0.2717  0.3281 -0.3026
 8924SOL    HW128779   3.537   1.712   9.984  1.0826 -0.6113  0.7007
 8924SOL    HW228780   3.632   1.762   9.877 -0.5992  0.8510 -0.1558
 8925SOL     OW28781   3.001   0.749  10.074  0.0734 -0.4848 -0.0611
 8925SOL    HW128782   3.021   0.840  10.053 -0.5698 -0.2606  0.2698
 8925SOL    HW228783   3.086   0.704  10.070  0.5123  0.2775  0.5334
 8926SOL     OW28784   4.870   7.329   8.588  0.2842 -0.1933  0.1469
 8926SOL    HW128785   4.928   7.282   8.529  1.5031 -1.4057  2.2008
 8926SOL    HW228786   4.782   7.309   8.556  0.8570 -1.9013 -0.4776
 8927SOL     OW28787   5.388   3.745   0.469  0.2678  0.5606 -0.1737
 8927SOL    HW128788   5.446   3.713   0.538 -1.6479 -1.3983  0.6517
 8927SOL    HW228789   5.373   3.837   0.490  2.1279  0.8110  0.2155
 8928SOL     OW28790   5.329   3.558   6.496  0.1709  0.2615 -0.0778
 8928SOL    HW128791   5.411   3.600   6.470  0.3838  0.2004  0.4844
 8928SOL    HW228792   5.284   3.623   6.549 -0.3371  0.4432 -0.7149
 8929SOL     OW28793   8.389   8.413   0.361  0.6288  0.2174  0.6912
 8929SOL    HW128794   8.403   8.319   0.345  0.0060  0.4576 -1.6819
 8929SOL    HW228795   8.306   8.433   0.318  1.6583  2.2039 -0.5470
 8930SOL     OW28796   1.687   7.137   3.015 -0.0216 -0.5046  0.0989
 8930SOL    HW128797   1.666   7.069   2.950  1.0235 -0.7675  0.0185
 8930SOL    HW228798   1.680   7.093   3.099 -0.7608 -0.3274  0.1352
 8931SOL     OW28799   5.905   2.914   6.020  0.6084  0.0986  0.2125
 8931SOL    HW128800   5.866   2.826   6.017 -1.3675  0.8614  1.3351
 8931SOL    HW228801   5.957   2.914   6.100  3.7301 -1.1637 -1.6661
 8932SOL     OW28802   4.018   9.952   4.242  0.4108 -0.4860  0.2744
 8932SOL    HW128803   3.970   9.987   4.317  1.3850 -0.4574  0.9053
 8932SOL    HW228804   3.999   9.858   4.243 -1.2120 -0.2050 -0.6807
 8933SOL     OW28805   4.120   7.811   2.648 -0.0265 -0.6423  0.6085
 8933SOL    HW128806   4.073   7.895   2.647  1.6201  0.3326  0.7323
 8933SOL    HW228807   4.121   7.783   2.557 -0.7160 -0.6173  0.5865
 8934SOL     OW28808   9.625   3.815   8.928  0.1719  0.2600  0.1383
 8934SOL    HW128809   9.639   3.908   8.907 -1.2138  0.2177 -1.1550
 8934SOL    HW228810   9.555   3.817   8.994  1.6570  0.1963  1.7800
 8935SOL     OW28811   9.892   8.249   2.511 -0.3013 -0.1753  0.2948
 8935SOL    HW128812   9.852   8.275   2.428  0.0117 -3.4097 -1.0131
 8935SOL    HW228813   9.983   8.278   2.503 -0.7037  1.1980  0.3761
 8936SOL     OW28814   4.958   1.882   4.055  0.5867 -0.1896  0.1933
 8936SOL    HW128815   4.886   1.819   4.056  1.2240 -0.9589  1.3204
 8936SOL    HW228816   4.944   1.935   4.134  0.4160  0.6532 -0.4015
 8937SOL     OW28817   3.816   1.775   3.376  0.3464 -0.6476 -0.3065
 8937SOL    HW128818   3.722   1.788   3.390  0.5368 -1.5046  2.2598
 8937SOL    HW228819   3.857   1.846   3.426  1.0583 -1.9223  1.0188
 8938SOL     OW28820   4.832   0.008   6.148  0.8660  0.2090 -0.9884
 8938SOL    HW128821   4.787   0.091   6.159 -1.7731 -1.1715 -0.5590
 8938SOL    HW228822   4.857   0.006   6.056  0.3066  1.1695 -1.1706
 8939SOL     OW28823   3.629   0.622   2.534 -0.5799  0.4490 -0.1746
 8939SOL    HW128824   3.569   0.678   2.484 -3.1902  0.5978  2.7943
 8939SOL    HW228825   3.678   0.682   2.589  1.6854  0.2227 -1.8115
 8940SOL     OW28826   6.379   0.897   6.058  0.3838 -0.6953 -0.1488
 8940SOL    HW128827   6.450   0.834   6.068  0.1240 -0.7918  1.2948
 8940SOL    HW228828   6.320   0.858   5.993  1.6495 -0.5845 -1.4188
 8941SOL     OW28829   3.421   4.698   3.703  0.1109  0.1900 -0.8954
 8941SOL    HW128830   3.441   4.777   3.753 -2.0421  0.0634  0.2863
 8941SOL    HW228831   3.333   4.712   3.669 -0.4888 -1.8255 -0.3187
 8942SOL     OW28832   1.605   6.794   2.912 -0.0047  0.6367 -0.3919
 8942SOL    HW128833   1.546   6.749   2.851 -0.9302  2.9499 -1.3511
 8942SOL    HW228834   1.650   6.859   2.857  1.6064  0.5824  0.8153
 8943SOL     OW28835   1.502   4.340   4.494  0.3215 -0.7040  0.1945
 8943SOL    HW128836   1.425   4.361   4.442  0.0188 -1.5507  0.2737
 8943SOL    HW228837   1.480   4.256   4.535  0.8696 -0.4459  1.0426
 8944SOL     OW28838   6.605  10.584  10.365 -0.1787  0.3930  0.1823
 8944SOL    HW128839   6.512  10.591  10.341 -0.0687  0.9298 -0.1094
 8944SOL    HW228840   6.642  10.524  10.300 -0.8808 -2.1460  1.9655
 8945SOL     OW28841   0.746   4.244   0.239 -0.0858 -0.1429 -0.1537
 8945SOL    HW128842   0.685   4.172   0.256 -0.6222  0.0482 -1.1699
 8945SOL    HW228843   0.770   4.275   0.326 -0.4861 -1.0152  0.2908
 8946SOL     OW28844   0.399   5.581   3.258  0.0976 -0.1256 -0.5137
 8946SOL    HW128845   0.358   5.658   3.298 -1.6290  0.0239 -2.4167
 8946SOL    HW228846   0.367   5.507   3.310  1.6495  0.3722  1.2372
 8947SOL     OW28847   9.102   6.699   0.786 -0.4016 -0.2939 -0.2375
 8947SOL    HW128848   9.197   6.704   0.796 -0.4135 -2.5899  2.2818
 8947SOL    HW228849   9.084   6.605   0.780 -2.4585  0.1389 -2.2429
 8948SOL     OW28850   7.238   1.457  11.066  0.1423  0.6189  0.6085
 8948SOL    HW128851   7.281   1.540  11.044 -1.1058  1.7555  2.1967
 8948SOL    HW228852   7.289   1.422  11.139  0.8775 -0.2550 -0.2784
 8949SOL     OW28853   1.071  11.095   2.260 -0.1044  0.2258  0.3814
 8949SOL    HW128854   1.088  11.174   2.310  1.7924  0.6310 -0.8024
 8949SOL    HW228855   1.030  11.035   2.322 -0.4934  1.7160  1.5997
 8950SOL     OW28856   0.453   8.411   5.202  0.6469 -0.3361  0.0276
 8950SOL    HW128857   0.465   8.387   5.110  0.2139 -0.8430  0.0980
 8950SOL    HW228858   0.424   8.330   5.244  1.3166 -0.2346  0.7082
 8951SOL     OW28859  10.354   2.315   2.620  0.2267 -0.3073  0.5678
 8951SOL    HW128860  10.270   2.357   2.637 -0.0431 -0.2883 -0.7148
 8951SOL    HW228861  10.360   2.246   2.687 -0.4363  0.1852  1.1535
 8952SOL     OW28862   2.734   0.987   7.171 -0.3141 -0.0937  0.8290
 8952SOL    HW128863   2.747   0.892   7.182  0.8633  0.0464  0.8051
 8952SOL    HW228864   2.822   1.024   7.180 -0.6123  0.9044 -0.1639
 8953SOL     OW28865   2.870   5.605   9.055  0.4108  0.0882  0.3937
 8953SOL    HW128866   2.813   5.673   9.091  1.5929  0.3443  1.8865
 8953SOL    HW228867   2.893   5.637   8.968  1.1678  1.8083  1.1633
 8954SOL     OW28868   7.488   8.663   9.149 -0.2495  0.8421 -0.0722
 8954SOL    HW128869   7.419   8.630   9.206  0.7656 -0.0865  0.6574
 8954SOL    HW228870   7.442   8.692   9.070 -1.4404  0.0404  0.3028
 8955SOL     OW28871  10.519   5.433   7.545  0.2163  0.3697  0.5101
 8955SOL    HW128872  10.461   5.509   7.541 -0.0157  0.1754  0.0808
 8955SOL    HW228873  10.600   5.462   7.503 -0.1660  0.1355 -0.4378
 8956SOL     OW28874   6.833   1.777   6.076 -0.1668  0.7589  0.1249
 8956SOL    HW128875   6.760   1.728   6.038  0.6671 -0.6396  0.2291
 8956SOL    HW228876   6.791   1.851   6.121 -1.3225  1.2531 -1.6700
 8957SOL     OW28877   3.063   7.234  10.446 -0.3752 -0.6734  0.6343
 8957SOL    HW128878   3.115   7.232  10.366 -0.2070  0.4324  0.7020
 8957SOL    HW228879   2.983   7.187  10.424 -0.4080 -0.2198 -0.2332
 8958SOL     OW28880   6.995   6.306   2.885 -0.3945 -0.5108  0.2726
 8958SOL    HW128881   6.978   6.303   2.979  0.7648  1.1129  0.5748
 8958SOL    HW228882   6.954   6.387   2.855 -2.1622 -1.7935 -0.9723
 8959SOL     OW28883   4.814   1.129   2.102 -0.1023 -0.0548  0.0088
 8959SOL    HW128884   4.823   1.198   2.168  0.6117  0.8676 -1.0329
 8959SOL    HW228885   4.876   1.061   2.130 -0.9326 -0.3898  1.1322
 8960SOL     OW28886   5.538   1.430   5.302 -0.4468  0.0897 -0.4373
 8960SOL    HW128887   5.618   1.475   5.273 -0.1743 -1.4278 -2.1955
 8960SOL    HW228888   5.538   1.443   5.397  1.3946  0.9142 -0.4876
 8961SOL     OW28889   2.809   8.002   7.252 -0.2858 -0.0034 -0.1019
 8961SOL    HW128890   2.768   7.934   7.306  2.1596 -1.1481  0.4367
 8961SOL    HW228891   2.780   7.982   7.163  1.7323 -2.9830 -0.2473
 8962SOL     OW28892   3.306   9.235   7.137 -0.1643 -0.5832 -1.0019
 8962SOL    HW128893   3.356   9.234   7.219 -0.5997 -0.4458 -0.7308
 8962SOL    HW228894   3.250   9.157   7.143 -3.2730  1.5627  0.7828
 8963SOL     OW28895   7.610  10.004   4.506 -0.3118  0.2836 -0.4574
 8963SOL    HW128896   7.673  10.047   4.448 -0.8217 -0.2667 -1.4345
 8963SOL    HW228897   7.586   9.924   4.460  0.3720 -0.9156  1.1765
 8964SOL     OW28898   5.032   4.608   8.249  0.1426 -0.2371  0.1724
 8964SOL    HW128899   4.958   4.583   8.305  1.0398 -3.3298  0.1681
 8964SOL    HW228900   5.101   4.633   8.311 -0.7264  2.5301  0.1783
 8965SOL     OW28901   3.001   0.578   5.425 -0.5194  0.1352 -0.4768
 8965SOL    HW128902   2.934   0.643   5.449 -2.0809 -2.1612  1.9253
 8965SOL    HW228903   3.076   0.600   5.480 -0.6096  0.6131 -0.5403
 8966SOL     OW28904   2.562   7.824   0.785  0.0549  0.4496 -0.2864
 8966SOL    HW128905   2.483   7.793   0.829 -0.0866  1.5665  0.2820
 8966SOL    HW228906   2.557   7.785   0.698 -1.2288  0.6523 -0.3288
 8967SOL     OW28907   2.742   4.953   4.369  0.2369 -0.3236  0.0744
 8967SOL    HW128908   2.786   4.869   4.354  0.5564  0.0244 -1.0526
 8967SOL    HW228909   2.662   4.930   4.414  0.1676 -1.2873 -0.5022
 8968SOL     OW28910   9.418   2.288   4.350 -0.3565 -0.4269 -0.3808
 8968SOL    HW128911   9.358   2.214   4.347  1.4051 -1.9312 -0.1083
 8968SOL    HW228912   9.399   2.337   4.270 -0.6773 -1.8807 -1.2358
 8969SOL     OW28913   2.744   6.799   8.133  0.2631 -0.3153  0.2125
 8969SOL    HW128914   2.672   6.793   8.196  0.3302 -1.8796  0.1921
 8969SOL    HW228915   2.708   6.847   8.059 -1.4720 -2.7185 -0.6616
 8970SOL     OW28916   4.830   8.546   3.945 -0.0796  0.3987  0.3844
 8970SOL    HW128917   4.820   8.637   3.975 -2.6502  0.5314 -0.5869
 8970SOL    HW228918   4.879   8.552   3.864 -1.1311  1.0958 -0.2306
 8971SOL     OW28919   2.762   8.416  10.655  0.3906 -0.4133  0.1275
 8971SOL    HW128920   2.754   8.327  10.621  0.1412 -0.7506  1.0432
 8971SOL    HW228921   2.723   8.412  10.742  3.8202 -0.3462  1.8443
 8972SOL     OW28922   0.824   6.407   7.951  0.6866 -0.4400 -0.0292
 8972SOL    HW128923   0.749   6.369   7.996 -0.6874 -0.3838 -2.1014
 8972SOL    HW228924   0.822   6.367   7.864  0.8505  2.2536 -1.3745
 8973SOL     OW28925  10.766   1.153   6.679 -0.5367 -0.1494  0.2294
 8973SOL    HW128926  10.745   1.234   6.633 -0.2925  1.3167  2.5152
 8973SOL    HW228927  10.742   1.084   6.619 -2.8493  1.5910 -0.9883
 8974SOL     OW28928   1.083   8.842   2.014  0.0346 -0.6415  0.1337
 8974SOL    HW128929   1.164   8.874   2.053  0.0128  0.7139 -0.8458
 8974SOL    HW228930   1.014   8.886   2.062 -0.0174  0.3494 -0.8170
 8975SOL     OW28931  10.316   9.824   4.666 -0.7176  0.3917  0.2827
 8975SOL    HW128932  10.354   9.744   4.630  0.3668 -0.5101  3.1067
 8975SOL    HW228933  10.370   9.894   4.631  0.0700 -0.3882 -0.1060
 8976SOL     OW28934   1.882   5.359   0.748 -0.1345 -0.3080  0.6337
 8976SOL    HW128935   1.825   5.428   0.714  1.1103  2.0183  2.8844
 8976SOL    HW228936   1.822   5.295   0.787 -1.2974  0.6256  0.4335
 8977SOL     OW28937  10.853   3.098   1.317  0.5323 -0.8741  0.5283
 8977SOL    HW128938  10.910   3.038   1.269 -0.2261 -0.4505 -0.9422
 8977SOL    HW228939  10.808   3.041   1.380  0.1641 -1.7966 -0.5308
 8978SOL     OW28940   8.951  10.464   6.305  0.5771  0.1808  0.1056
 8978SOL    HW128941   8.994  10.407   6.368  0.0541 -0.2511  0.0832
 8978SOL    HW228942   8.858  10.439   6.309  0.4819  0.3915 -0.5683
 8979SOL     OW28943   2.826  10.087   5.785  0.2242 -0.7392  0.0523
 8979SOL    HW128944   2.807  10.095   5.878 -0.9021  1.8128 -0.3086
 8979SOL    HW228945   2.903  10.142   5.771 -1.3410  1.3495 -0.9143
 8980SOL     OW28946   2.127   3.414   0.680 -0.6877  0.5053  0.9550
 8980SOL    HW128947   2.089   3.487   0.728 -1.4850  1.0556 -0.4503
 8980SOL    HW228948   2.213   3.402   0.720 -0.7148  1.9214  1.5181
 8981SOL     OW28949   9.929  10.483   8.412 -0.4488  0.1518 -0.1881
 8981SOL    HW128950  10.007  10.454   8.366  1.8589  2.1450  2.1192
 8981SOL    HW228951   9.900  10.407   8.462 -1.2098 -1.1332 -2.4244
 8982SOL     OW28952   4.437   7.877   8.773 -0.3971 -0.1932  0.7202
 8982SOL    HW128953   4.493   7.953   8.789 -0.6823 -0.0088  0.8597
 8982SOL    HW228954   4.455   7.852   8.683  1.2461 -1.2451  1.2987
 8983SOL     OW28955   2.682   0.894   8.914 -0.1354 -0.1232 -0.1729
 8983SOL    HW128956   2.595   0.874   8.949 -0.1648  1.1935  0.5737
 8983SOL    HW228957   2.728   0.936   8.987  0.8546 -0.0867 -0.8038
 8984SOL     OW28958   4.465   4.116   8.714 -0.0881  0.3292 -0.3150
 8984SOL    HW128959   4.428   4.044   8.765 -2.2286  1.4082 -0.2214
 8984SOL    HW228960   4.523   4.161   8.775 -1.3636  0.6415  0.7195
 8985SOL     OW28961   8.227   0.007   5.368  0.1447  0.1720  0.1854
 8985SOL    HW128962   8.209  -0.009   5.275 -2.5256  0.0703  0.6558
 8985SOL    HW228963   8.250   0.100   5.372 -0.9277  0.4760 -0.4408
 8986SOL     OW28964   7.469   5.848   2.655  0.2301  0.0410 -1.0314
 8986SOL    HW128965   7.434   5.925   2.699  1.4355  0.1213 -0.1895
 8986SOL    HW228966   7.412   5.777   2.684 -0.2360  0.4348 -0.9668
 8987SOL     OW28967   6.806  10.402   4.811 -0.0864  0.0725 -0.9177
 8987SOL    HW128968   6.771  10.480   4.768 -1.1363 -0.1246 -0.4397
 8987SOL    HW228969   6.731  10.343   4.820  0.2004 -0.1165  0.6717
 8988SOL     OW28970   7.507   0.826   6.916 -0.0383 -0.2957  0.5446
 8988SOL    HW128971   7.587   0.784   6.885 -0.6552 -0.8111 -0.4095
 8988SOL    HW228972   7.437   0.782   6.868 -0.7091  2.2707 -1.0400
 8989SOL     OW28973  10.202   5.121   6.766 -0.4843 -0.2218  0.1886
 8989SOL    HW128974  10.256   5.051   6.729 -0.0156  0.7327 -0.9900
 8989SOL    HW228975  10.146   5.148   6.693 -0.5389  0.7496  0.5812
 8990SOL     OW28976   0.410   0.874   2.146 -0.3490  0.0663 -0.4928
 8990SOL    HW128977   0.397   0.828   2.063 -0.7839 -3.4675  1.3198
 8990SOL    HW228978   0.326   0.917   2.163 -0.9152 -0.7939 -1.0242
 8991SOL     OW28979   2.816   6.907   3.027  0.5397 -0.3731  0.1668
 8991SOL    HW128980   2.845   6.860   2.949  0.6797  0.3800 -0.2515
 8991SOL    HW228981   2.734   6.949   3.000 -0.1134 -1.1824  0.8433
 8992SOL     OW28982  10.643   0.283   1.224 -0.0702 -0.2777 -0.0987
 8992SOL    HW128983  10.593   0.241   1.295  0.2606 -0.1293  0.2230
 8992SOL    HW228984  10.643   0.218   1.153  1.8536 -1.5517  0.9722
 8993SOL     OW28985   7.800   7.598   5.366 -0.2956  0.9446 -0.0649
 8993SOL    HW128986   7.800   7.645   5.449 -2.8792 -1.0511  1.2032
 8993SOL    HW228987   7.708   7.576   5.351  0.5037 -1.7095 -1.6819
 8994SOL     OW28988   4.100   4.169   8.781 -0.8987  0.4155 -0.0798
 8994SOL    HW128989   4.161   4.109   8.738  2.0011  2.3042  1.0753
 8994SOL    HW228990   4.116   4.157   8.874 -1.9233  1.3455  0.2453
 8995SOL     OW28991   3.049   0.430   2.889  0.2564 -0.3334 -0.3803
 8995SOL    HW128992   3.056   0.508   2.943  0.0509 -1.4785  1.3811
 8995SOL    HW228993   3.020   0.462   2.804  3.3198  1.8866 -0.7734
 8996SOL     OW28994  11.067   9.865   7.804  1.1861  0.1648  0.1375
 8996SOL    HW128995  11.023   9.816   7.873 -0.4331 -2.0188 -2.2995
 8996SOL    HW228996  11.129   9.803   7.765  0.8044  0.7684 -1.5050
 8997SOL     OW28997   6.918   9.921   8.572  0.2164  0.5971  0.0951
 8997SOL    HW128998   6.940   9.830   8.589 -1.1466  0.2447  0.0785
 8997SOL    HW228999   6.908   9.927   8.477 -0.9160  0.4449  0.1865
 8998SOL     OW29000   3.669   0.834   5.729 -0.4234 -0.1045 -0.2733
 8998SOL    HW129001   3.707   0.919   5.706  0.6941 -0.7933 -1.1154
 8998SOL    HW229002   3.743   0.783   5.762 -1.7120  0.4612  4.1818
 8999SOL     OW29003   4.306   9.910   2.448  0.2496  0.3387 -0.6775
 8999SOL    HW129004   4.386   9.859   2.438 -0.4590 -0.7179 -1.2259
 8999SOL    HW229005   4.291   9.914   2.542  0.9147  0.4919 -0.5785
 9000SOL     OW29006   6.914   4.766   2.871  0.2301 -0.0116  0.1735
 9000SOL    HW129007   7.003   4.741   2.894 -0.1145 -0.2393  1.3424
 9000SOL    HW229008   6.861   4.736   2.945 -0.4346  2.5767  0.8524
 9001SOL     OW29009   5.861   0.155   4.540  1.1120  0.7846  0.1309
 9001SOL    HW129010   5.802   0.145   4.465  2.4146 -0.9127 -0.7259
 9001SOL    HW229011   5.877   0.249   4.546 -0.8198  1.1806 -0.2506
 9002SOL     OW29012   1.773   2.872   9.012  0.4102  0.5895 -0.1513
 9002SOL    HW129013   1.786   2.882   8.917 -0.8240  0.9644 -0.2955
 9002SOL    HW229014   1.740   2.783   9.022  3.6866 -0.6871  0.3065
 9003SOL     OW29015   2.964  10.761   2.309  0.6184  0.1583 -0.3343
 9003SOL    HW129016   3.036  10.765   2.246  0.5989  2.8085 -0.2930
 9003SOL    HW229017   2.991  10.817   2.381 -2.0321  2.5488 -1.0165
 9004SOL     OW29018   2.634   6.818   1.347 -0.3437 -0.2050  0.0002
 9004SOL    HW129019   2.664   6.859   1.427 -1.0520 -0.1649  0.2531
 9004SOL    HW229020   2.652   6.882   1.278  0.4323 -0.3161  0.0957
 9005SOL     OW29021  11.013   4.838   2.697 -0.2030  0.1440 -0.2293
 9005SOL    HW129022  11.033   4.853   2.604 -1.7354 -0.9509 -0.7972
 9005SOL    HW229023  11.064   4.761   2.720 -1.4807 -0.9289 -0.8461
 9006SOL     OW29024   0.833   2.790   8.178  0.2678 -0.4624 -0.8185
 9006SOL    HW129025   0.902   2.796   8.113  1.3874 -1.5519  0.2042
 9006SOL    HW229026   0.874   2.822   8.259 -1.1431  1.0618 -0.6502
 9007SOL     OW29027   3.006   9.076  10.659 -0.0418 -0.7090  0.5051
 9007SOL    HW129028   2.982   9.094  10.750 -1.9075 -0.0368 -0.0796
 9007SOL    HW229029   3.094   9.113  10.650 -1.0233  2.0760  1.2291
 9008SOL     OW29030   5.281   4.884   0.679 -0.4812  0.3469 -0.0915
 9008SOL    HW129031   5.200   4.875   0.730 -0.3439  1.7929  0.4405
 9008SOL    HW229032   5.337   4.813   0.709 -1.7575 -1.0955 -0.9351
 9009SOL     OW29033   2.713   3.104   2.552  0.2670  0.4019  0.9045
 9009SOL    HW129034   2.664   3.159   2.613 -1.3341 -0.7828  0.7380
 9009SOL    HW229035   2.724   3.158   2.474 -2.8064  0.0026  0.0798
 9010SOL     OW29036   0.032   6.273   7.452 -0.8178 -0.1059 -0.3015
 9010SOL    HW129037   0.052   6.351   7.504  0.6772 -1.3244  1.0577
 9010SOL    HW229038  -0.064   6.270   7.450 -1.0651  3.5336 -3.2879
 9011SOL     OW29039  10.891   7.761   4.328 -0.0102 -0.2991 -0.4469
 9011SOL    HW129040  10.834   7.687   4.311  0.5597 -1.1237  1.0022
 9011SOL    HW229041  10.951   7.763   4.254 -0.2146 -1.1001 -0.6453
 9012SOL     OW29042   4.957   6.653   3.986 -0.1277 -0.0927  0.4588
 9012SOL    HW129043   5.014   6.621   3.916 -0.1435  0.4121  0.2077
 9012SOL    HW229044   4.973   6.747   3.988 -0.1075 -0.1105  1.1581
 9013SOL     OW29045   1.997   0.761   8.284  0.3937 -0.0272 -0.2810
 9013SOL    HW129046   2.070   0.747   8.344  0.7245 -2.5659 -1.1601
 9013SOL    HW229047   2.038   0.775   8.199 -0.1139  0.7693 -0.4052
 9014SOL     OW29048   8.496   2.786   4.483  0.3959  0.1936 -0.1710
 9014SOL    HW129049   8.518   2.738   4.563  2.1559  0.1168 -0.6753
 9014SOL    HW229050   8.485   2.719   4.416  3.6017  0.3887 -1.0566
 9015SOL     OW29051   0.765   6.206   5.884  0.8996  0.0227  0.1230
 9015SOL    HW129052   0.841   6.149   5.881 -0.2098 -1.5904  0.9960
 9015SOL    HW229053   0.763   6.240   5.973  1.9823  2.1294 -0.5938
 9016SOL     OW29054   3.451   8.247   1.191 -0.4389 -0.0696  0.0203
 9016SOL    HW129055   3.436   8.171   1.133  1.4941 -0.9221  0.5533
 9016SOL    HW229056   3.364   8.268   1.226 -1.2905 -0.9615 -1.4399
 9017SOL     OW29057   1.677   8.360   6.686  0.6490  0.0353  0.0287
 9017SOL    HW129058   1.592   8.398   6.664  0.3571 -0.6603 -0.0867
 9017SOL    HW229059   1.696   8.391   6.774  0.3912  0.3972 -0.0429
 9018SOL     OW29060   8.189   0.055   4.791 -0.1450 -0.2646 -0.0650
 9018SOL    HW129061   8.245   0.031   4.717 -1.2481 -0.0450 -1.0166
 9018SOL    HW229062   8.231   0.015   4.867  0.3536 -1.5859 -0.9890
 9019SOL     OW29063   0.273   7.071   0.479 -0.2733 -0.3269  0.4980
 9019SOL    HW129064   0.221   7.100   0.404 -1.2450 -2.3485  0.3279
 9019SOL    HW229065   0.364   7.090   0.454 -0.7663  2.0976  0.2694
 9020SOL     OW29066   9.909   0.748  10.096  0.4997  0.2728  0.1332
 9020SOL    HW129067   9.853   0.745  10.173 -0.1852 -0.0225 -0.3719
 9020SOL    HW229068   9.935   0.840  10.089  0.0926  0.4073  0.3783
 9021SOL     OW29069   8.607   7.456   2.773  0.2404  0.0023  0.5111
 9021SOL    HW129070   8.688   7.421   2.808  0.1554  1.6229  2.5112
 9021SOL    HW229071   8.537   7.410   2.819 -0.0091 -1.0013 -0.8107
 9022SOL     OW29072   4.805   2.297   5.688  0.2495 -0.0011  0.4103
 9022SOL    HW129073   4.828   2.342   5.769  0.4289  2.6622 -1.0139
 9022SOL    HW229074   4.889   2.272   5.649  0.1857 -0.7405  0.7258
 9023SOL     OW29075   2.097   1.310   8.935  0.3787  0.0367  0.9820
 9023SOL    HW129076   2.166   1.320   8.870  0.1613  0.9920  0.8826
 9023SOL    HW229077   2.015   1.326   8.887  0.1271 -0.4865  1.2263
 9024SOL     OW29078   6.562   3.103   7.849 -0.6234 -0.0631 -0.4277
 9024SOL    HW129079   6.519   3.158   7.783 -0.1400  2.0164  0.8744
 9024SOL    HW229080   6.610   3.165   7.904  0.8541 -1.9284  0.5255
 9025SOL     OW29081   3.693   2.787   7.909  0.3647 -0.1046 -0.3520
 9025SOL    HW129082   3.657   2.850   7.972  0.5448 -0.0393 -0.3139
 9025SOL    HW229083   3.748   2.729   7.962  1.0156  0.3301 -0.5407
 9026SOL     OW29084   5.302   9.563   2.849 -0.0620 -0.5346 -0.3204
 9026SOL    HW129085   5.336   9.607   2.772  3.2301 -3.0715 -0.5165
 9026SOL    HW229086   5.365   9.494   2.868 -2.4452 -2.1589  2.7136
 9027SOL     OW29087   6.415   1.673   1.957 -0.1406  0.4894 -0.3591
 9027SOL    HW129088   6.453   1.624   1.884 -1.6202  0.1375 -0.9382
 9027SOL    HW229089   6.335   1.712   1.921 -0.5025  0.9436  0.8728
 9028SOL     OW29090   9.947   6.708   8.457  0.0336 -0.0891 -0.2767
 9028SOL    HW129091  10.033   6.707   8.498  0.5019 -1.0711 -1.2275
 9028SOL    HW229092   9.965   6.699   8.363 -1.0271  1.6905 -0.6955
 9029SOL     OW29093   2.095   0.442   7.400 -0.6356  0.0880  0.6874
 9029SOL    HW129094   2.051   0.520   7.436  0.6685  1.3682 -0.3927
 9029SOL    HW229095   2.135   0.473   7.319  1.1681 -1.3490  0.9908
 9030SOL     OW29096   6.171   1.815   1.500  0.3694 -0.0689  0.4479
 9030SOL    HW129097   6.198   1.795   1.411 -2.6859  0.6628 -0.7588
 9030SOL    HW229098   6.178   1.911   1.506 -0.3335 -0.0265  0.6573
 9031SOL     OW29099   6.125   0.669   3.139 -0.1411  0.7484  0.2629
 9031SOL    HW129100   6.191   0.725   3.099  0.7604 -0.9991 -0.8594
 9031SOL    HW229101   6.068   0.643   3.067  0.0930 -0.5691  0.5094
 9032SOL     OW29102   4.654   1.690   3.389 -0.8693  0.3519 -0.8081
 9032SOL    HW129103   4.643   1.733   3.304 -0.2979  0.1359 -0.9935
 9032SOL    HW229104   4.663   1.597   3.368 -0.4744  0.3261 -0.5346
 9033SOL     OW29105   8.314   5.476   6.662  0.1277  0.2501 -0.1018
 9033SOL    HW129106   8.229   5.502   6.628  0.1523 -0.8215 -1.0525
 9033SOL    HW229107   8.376   5.493   6.591  1.2259  3.4504  1.4151
 9034SOL     OW29108   8.840   4.561   9.986  0.5303 -0.0572 -0.8027
 9034SOL    HW129109   8.935   4.552   9.980  0.5528 -1.4778  0.8945
 9034SOL    HW229110   8.808   4.471   9.988 -0.5510  0.2823  2.0247
 9035SOL     OW29111   0.206   8.142   2.193  0.1127  0.4549 -0.6660
 9035SOL    HW129112   0.117   8.137   2.157 -0.0810  0.5293 -0.2114
 9035SOL    HW229113   0.246   8.216   2.149  0.4349 -0.4431 -1.9194
 9036SOL     OW29114   6.339   9.055   9.575 -0.2207 -0.3709 -0.0328
 9036SOL    HW129115   6.353   9.102   9.658  2.1043  1.6820 -1.4386
 9036SOL    HW229116   6.280   9.111   9.525  0.1561 -0.4643 -0.5921
 9037SOL     OW29117   1.804   2.158   6.797 -0.4429  0.4374  0.3126
 9037SOL    HW129118   1.892   2.124   6.781 -0.2628  0.7589  0.6049
 9037SOL    HW229119   1.809   2.249   6.766 -0.0233  1.1571  2.3806
 9038SOL     OW29120   7.874   6.294   3.106 -0.2400 -0.0562  0.0321
 9038SOL    HW129121   7.901   6.202   3.094 -0.4910 -0.0218 -0.8962
 9038SOL    HW229122   7.795   6.289   3.160 -0.0665 -0.3638  0.2594
 9039SOL     OW29123   6.780   4.845   2.393  0.3833 -0.3563 -0.0382
 9039SOL    HW129124   6.695   4.870   2.428 -0.7802 -1.5918 -1.8169
 9039SOL    HW229125   6.818   4.927   2.362 -0.2938  0.1634  0.4670
 9040SOL     OW29126   3.804   7.330   9.194 -0.3756  0.0074 -0.0411
 9040SOL    HW129127   3.756   7.307   9.114 -2.2542  0.1535  0.9866
 9040SOL    HW229128   3.773   7.418   9.215  1.2915  0.6099  0.0166
 9041SOL     OW29129   9.336   0.129   5.590  0.2162 -0.5281  0.4432
 9041SOL    HW129130   9.261   0.120   5.648  0.3838  0.1236  0.7678
 9041SOL    HW229131   9.410   0.097   5.641  0.2654 -0.5601  0.3534
 9042SOL     OW29132   5.297   0.524  10.693  0.0227  0.5819  0.3649
 9042SOL    HW129133   5.317   0.551  10.783  0.4160 -1.7218  1.0188
 9042SOL    HW229134   5.304   0.429  10.694 -4.9474 -0.0922 -0.8132
 9043SOL     OW29135   5.725  10.814   6.653  0.3046  0.4430 -0.0934
 9043SOL    HW129136   5.634  10.814   6.683 -0.0366  1.3488 -1.0662
 9043SOL    HW229137   5.730  10.741   6.591  0.1296  0.6711 -0.3737
 9044SOL     OW29138   7.644   7.912   0.995  1.0002  0.4289 -0.4202
 9044SOL    HW129139   7.691   7.995   0.997  0.5208  0.6894  0.2745
 9044SOL    HW229140   7.664   7.876   0.909  4.8213 -0.8345  0.7780
 9045SOL     OW29141   7.024   9.084  10.272  0.1660  0.0240  0.7033
 9045SOL    HW129142   7.016   9.177  10.293 -0.3230  0.1553 -0.0095
 9045SOL    HW229143   7.034   9.082  10.177  0.5669 -0.6334  0.7543
 9046SOL     OW29144   0.172   4.452  10.239 -0.1009 -0.8129  0.1049
 9046SOL    HW129145   0.226   4.435  10.162  0.8375  1.1078  0.2972
 9046SOL    HW229146   0.176   4.370  10.289  1.6585 -1.1388 -0.4897
 9047SOL     OW29147   4.920   1.286   1.054  0.0006 -0.5211  0.2476
 9047SOL    HW129148   4.897   1.378   1.048 -1.7190 -0.9716 -0.6140
 9047SOL    HW229149   5.003   1.278   1.007  0.6517  0.7211  1.1410
 9048SOL     OW29150   0.191   1.141   9.980 -0.8503  0.8658  0.1290
 9048SOL    HW129151   0.120   1.101   9.930 -1.9629  0.5697  1.8412
 9048SOL    HW229152   0.229   1.069  10.030  1.6001  0.7676 -1.7167
 9049SOL     OW29153   4.088   3.337   3.523  0.1809 -0.5016  0.8245
 9049SOL    HW129154   4.112   3.282   3.449 -0.1883  0.1792  0.1890
 9049SOL    HW229155   4.165   3.392   3.538 -0.7191  1.3503 -0.9100
 9050SOL     OW29156   3.728  10.040   7.376  0.2022  0.7706 -0.4142
 9050SOL    HW129157   3.816  10.043   7.339  0.1566  1.2554 -0.4922
 9050SOL    HW229158   3.715  10.126   7.416 -0.3913  0.8634 -0.7798
 9051SOL     OW29159  10.317   0.309  10.016 -0.4829 -0.4729  0.4450
 9051SOL    HW129160  10.247   0.360   9.977 -0.3345  0.4937  1.3937
 9051SOL    HW229161  10.273   0.244  10.071 -0.6549 -0.1809  0.6553
 9052SOL     OW29162   5.717   6.168   4.270 -0.1857 -0.1524 -0.2227
 9052SOL    HW129163   5.785   6.126   4.323  0.1529 -0.5154 -0.9211
 9052SOL    HW229164   5.660   6.096   4.243 -0.6280  0.0986  0.0483
 9053SOL     OW29165   6.406   7.356   9.695  0.1419 -0.3361 -0.3383
 9053SOL    HW129166   6.351   7.387   9.767  2.3076  0.9834  0.8625
 9053SOL    HW229167   6.416   7.432   9.637  0.5950 -0.5983 -0.6110
 9054SOL     OW29168  10.996   6.741   5.495  0.1816  0.0424 -0.7263
 9054SOL    HW129169  11.086   6.731   5.464  1.5871 -2.1248  3.3115
 9054SOL    HW229170  10.955   6.657   5.476 -1.1221  1.0271 -2.5699
 9055SOL     OW29171  10.304   8.856   1.149  0.3210  0.0659 -0.0487
 9055SOL    HW129172  10.295   8.768   1.110  0.7710 -0.0898  0.1940
 9055SOL    HW229173  10.386   8.890   1.113 -0.5039  0.9301 -1.1873
 9056SOL     OW29174   6.601   2.333   9.109  0.5199  0.8294 -0.3096
 9056SOL    HW129175   6.572   2.317   9.019  0.8629  0.2302 -0.3202
 9056SOL    HW229176   6.687   2.291   9.114 -0.6844 -1.6598  1.1038
 9057SOL     OW29177   5.551   3.319   8.264  0.1985  0.2817 -0.2653
 9057SOL    HW129178   5.516   3.385   8.204 -0.2033  0.5714  0.2780
 9057SOL    HW229179   5.552   3.238   8.214 -1.4517  0.2181 -0.2337
 9058SOL     OW29180   0.227   3.712   3.220  0.1905  0.0661  0.8002
 9058SOL    HW129181   0.142   3.720   3.263  0.8045  0.2148  2.0353
 9058SOL    HW229182   0.273   3.645   3.270  0.6015 -0.4271 -0.2070
 9059SOL     OW29183   3.602   2.351  10.659  0.1146  0.2424 -0.1301
 9059SOL    HW129184   3.601   2.446  10.653 -1.6822  0.1884 -3.8239
 9059SOL    HW229185   3.522   2.329  10.707 -1.7312  0.7114 -2.7419
 9060SOL     OW29186   4.492   1.957   1.516 -0.9925 -0.0633 -0.1185
 9060SOL    HW129187   4.581   1.925   1.499 -0.5726  1.1740 -0.3849
 9060SOL    HW229188   4.452   1.889   1.571 -0.2758 -1.1820 -0.9239
 9061SOL     OW29189   0.477   7.162   2.190 -0.0952 -0.3181  0.3991
 9061SOL    HW129190   0.454   7.073   2.218 -0.5233  0.1303  1.5477
 9061SOL    HW229191   0.448   7.217   2.262  1.4847  0.6304  0.3456
 9062SOL     OW29192   1.339   2.061   7.243  0.1877  0.4033  0.0062
 9062SOL    HW129193   1.358   1.989   7.183 -0.1497  1.5147 -1.4801
 9062SOL    HW229194   1.419   2.113   7.246  0.3265  0.1572  0.8209
 9063SOL     OW29195  10.638   6.053   2.421  0.3960 -0.6731 -0.2155
 9063SOL    HW129196  10.628   6.148   2.423  0.5588 -0.6354  2.6615
 9063SOL    HW229197  10.550   6.019   2.432  0.5531 -0.8068  0.6710
 9064SOL     OW29198   3.489   0.776   7.468 -0.0214  0.6677  0.1215
 9064SOL    HW129199   3.544   0.852   7.446 -0.8244  0.7072 -1.8928
 9064SOL    HW229200   3.549   0.702   7.466  0.0329  0.7026 -2.1050
 9065SOL     OW29201   5.775   1.451   8.545 -0.5601 -0.0265  0.1366
 9065SOL    HW129202   5.741   1.539   8.535  0.3257  0.2828 -0.2957
 9065SOL    HW229203   5.702   1.400   8.581 -0.9015  0.9985  0.9250
 9066SOL     OW29204   0.789   9.206   4.258  0.1846  0.1402 -0.1929
 9066SOL    HW129205   0.712   9.261   4.271 -1.0611 -0.8909 -2.5709
 9066SOL    HW229206   0.837   9.248   4.186  1.0898 -0.0037  0.3127
 9067SOL     OW29207   3.938   4.123   3.189  0.3108  0.9484  0.1159
 9067SOL    HW129208   3.843   4.116   3.177  0.0752 -0.5310  2.1991
 9067SOL    HW229209   3.975   4.071   3.119 -0.5932 -0.9752  0.9923
 9068SOL     OW29210   6.539   4.858   3.486  0.6895  0.1944 -0.1262
 9068SOL    HW129211   6.622   4.907   3.495  0.6676  0.2515 -0.2322
 9068SOL    HW229212   6.565   4.774   3.450  0.5450  0.7594 -1.6169
 9069SOL     OW29213   1.838   6.338   0.165  0.0453 -0.2651  0.3338
 9069SOL    HW129214   1.771   6.373   0.106  0.7321 -1.5703 -1.3074
 9069SOL    HW229215   1.921   6.363   0.124  0.5464 -2.7990 -0.3406
 9070SOL     OW29216   6.875   7.172   5.367 -0.1308  0.3430 -0.5386
 9070SOL    HW129217   6.872   7.250   5.311  0.0390  0.4537 -0.3976
 9070SOL    HW229218   6.954   7.126   5.340  0.9218  1.2969  0.7697
 9071SOL     OW29219   9.334   5.590   2.366 -0.3072  0.1986  0.1776
 9071SOL    HW129220   9.321   5.579   2.460 -0.4730  1.2914  0.3002
 9071SOL    HW229221   9.364   5.504   2.336  0.3902  0.0018  1.3374
 9072SOL     OW29222   3.904   3.232  10.423 -0.2830  0.7518  0.1357
 9072SOL    HW129223   3.847   3.261  10.494 -1.3998  1.9966 -1.1816
 9072SOL    HW229224   3.983   3.285  10.432 -0.3352  0.7624  0.5447
 9073SOL     OW29225   1.174   3.186   0.853 -0.7025  0.4800 -0.0137
 9073SOL    HW129226   1.130   3.112   0.811 -0.9959  0.7440 -0.1742
 9073SOL    HW229227   1.123   3.202   0.932 -2.8809  2.7990 -1.7251
 9074SOL     OW29228   5.101   1.947   2.571 -0.4675  0.2034 -0.0395
 9074SOL    HW129229   5.028   1.928   2.512 -0.5370  0.6933 -0.1154
 9074SOL    HW229230   5.165   1.879   2.553 -0.4415  0.4146 -0.7605
 9075SOL     OW29231   9.318   2.406   1.442 -0.0024  0.5113  0.5806
 9075SOL    HW129232   9.412   2.389   1.452  0.1845  0.2559 -1.2321
 9075SOL    HW229233   9.277   2.320   1.453 -0.0454  0.6349  1.4447
 9076SOL     OW29234   2.573   5.730   0.486  0.3180  0.2630  0.5105
 9076SOL    HW129235   2.629   5.808   0.481  0.0981  0.4049  0.2046
 9076SOL    HW229236   2.633   5.660   0.510  0.1948  0.8604  2.7626
 9077SOL     OW29237   6.833   8.068  10.643 -1.1264  0.0618  1.0504
 9077SOL    HW129238   6.928   8.067  10.644 -1.1184 -1.2357  3.1317
 9077SOL    HW229239   6.809   8.012  10.569 -0.3349  1.5881 -0.4303
 9078SOL     OW29240   8.550  10.630   9.057 -0.3943 -0.1467  0.3753
 9078SOL    HW129241   8.556  10.583   9.140  1.0245  0.6932  0.7730
 9078SOL    HW229242   8.635  10.618   9.016 -0.7598  0.2408 -0.5270
 9079SOL     OW29243   8.766   5.551   7.360  0.6128 -1.1536 -0.1055
 9079SOL    HW129244   8.804   5.614   7.421  0.8183  0.4009 -1.7735
 9079SOL    HW229245   8.674   5.545   7.386  0.8252 -0.9642  0.7164
 9080SOL     OW29246   5.690   4.212   4.482  0.3516 -0.0469  0.6633
 9080SOL    HW129247   5.772   4.166   4.465  0.4365  0.2040  0.3743
 9080SOL    HW229248   5.680   4.271   4.407 -0.0254  0.0188  0.7620
 9081SOL     OW29249   1.559   1.641   3.008 -0.0363  0.0491 -0.3881
 9081SOL    HW129250   1.502   1.717   2.999  0.8792  1.2707  2.6000
 9081SOL    HW229251   1.517   1.588   3.076  0.8188 -0.6080 -0.3560
 9082SOL     OW29252   5.688   0.476   2.637  0.3301 -0.4686 -0.3527
 9082SOL    HW129253   5.772   0.477   2.593  0.3118 -0.6669 -0.3914
 9082SOL    HW229254   5.695   0.406   2.702  0.9640  0.9251  1.1582
 9083SOL     OW29255   5.776   0.442  10.772 -0.1057 -0.1834 -0.1715
 9083SOL    HW129256   5.751   0.508  10.837 -1.5107 -0.2606 -0.6209
 9083SOL    HW229257   5.804   0.493  10.696 -0.2736 -0.1007 -0.1784
 9084SOL     OW29258   8.129  10.280   7.587  0.3204  0.3472 -0.2082
 9084SOL    HW129259   8.123  10.341   7.661  0.0503  0.4519 -0.3141
 9084SOL    HW229260   8.055  10.220   7.600 -0.1247  0.7727 -0.7570
 9085SOL     OW29261   5.901   4.421   7.011  0.2096  0.4307  0.1248
 9085SOL    HW129262   5.853   4.479   6.951  0.6824  1.8930  1.0952
 9085SOL    HW229263   5.963   4.479   7.056  1.5828 -1.0722  0.2590
 9086SOL     OW29264   4.185  10.333   1.714 -0.1318  0.1349 -0.0560
 9086SOL    HW129265   4.179  10.282   1.795 -1.1925  0.6132  0.1936
 9086SOL    HW229266   4.215  10.419   1.742  1.1249 -0.1698 -0.4067
 9087SOL     OW29267   4.962   8.015   8.803  0.0024 -0.1317  0.0142
 9087SOL    HW129268   5.046   7.998   8.761  0.7496  1.8584  0.5727
 9087SOL    HW229269   4.972   8.103   8.841 -3.1763  1.3391 -2.1173
 9088SOL     OW29270   0.453   8.716   5.127  0.3700 -0.5271 -0.3430
 9088SOL    HW129271   0.513   8.646   5.149  1.8929  0.8091 -0.0834
 9088SOL    HW229272   0.401   8.730   5.206  0.2493 -1.1532 -0.3092
 9089SOL     OW29273   6.007   9.621   3.735  0.1161 -0.0603 -0.1934
 9089SOL    HW129274   6.028   9.543   3.684  1.8580 -0.0872  0.5125
 9089SOL    HW229275   6.016   9.593   3.826 -2.4549  0.1184  0.2159
 9090SOL     OW29276   9.150   0.712   7.258  0.3646 -0.3330  0.9523
 9090SOL    HW129277   9.068   0.674   7.288  0.1218 -1.7344 -1.2233
 9090SOL    HW229278   9.125   0.790   7.209  0.2884 -0.8175  0.2005
 9091SOL     OW29279   8.807   5.121   8.711 -0.4175 -0.2707  0.5615
 9091SOL    HW129280   8.880   5.099   8.770 -0.2808  0.9518  0.8784
 9091SOL    HW229281   8.737   5.061   8.737 -0.0415 -0.3997  1.3307
 9092SOL     OW29282   8.077   1.485   1.369  0.0706 -0.3938 -0.2097
 9092SOL    HW129283   8.125   1.500   1.288 -2.1559 -0.3322 -1.5900
 9092SOL    HW229284   8.084   1.567   1.417  0.3050  0.0136 -0.9331
 9093SOL     OW29285  10.568  10.005   3.156 -0.7857 -0.4666 -0.2080
 9093SOL    HW129286  10.600   9.915   3.159 -0.2853 -0.2879 -0.0036
 9093SOL    HW229287  10.519  10.011   3.074  0.5141 -0.4962 -1.0115
 9094SOL     OW29288   8.344   7.586   8.732  0.4917  0.3802  0.1034
 9094SOL    HW129289   8.301   7.620   8.810  0.3215  1.2747 -0.3637
 9094SOL    HW229290   8.276   7.589   8.665  0.7010 -0.1636 -0.1378
 9095SOL     OW29291   2.147   9.110   4.608  0.3781 -0.2881  0.6596
 9095SOL    HW129292   2.129   9.139   4.519  3.3721 -1.2279 -0.3755
 9095SOL    HW229293   2.167   9.017   4.599  0.4646 -0.4638  2.3734
 9096SOL     OW29294   2.899   0.040   8.847 -0.3756 -0.7036 -0.1890
 9096SOL    HW129295   2.949  -0.005   8.915 -1.2049 -2.7877 -0.8636
 9096SOL    HW229296   2.809   0.040   8.880 -0.6137 -0.7914 -0.8201
 9097SOL     OW29297   3.068   8.401   6.041  0.6052  0.8581  0.1937
 9097SOL    HW129298   3.049   8.307   6.029  0.6219  1.0585 -1.8409
 9097SOL    HW229299   3.162   8.405   6.055  0.5337  0.5428  0.7945
 9098SOL     OW29300   5.575   3.142   9.685  0.0450  0.1237  0.4356
 9098SOL    HW129301   5.607   3.151   9.595  0.4238 -0.3015  0.5272
 9098SOL    HW229302   5.638   3.084   9.728 -1.1192 -1.2032  0.4637
 9099SOL     OW29303   3.612   0.778   4.211  0.1942  0.2505 -0.1056
 9099SOL    HW129304   3.666   0.785   4.290  1.4852 -0.9815 -0.8430
 9099SOL    HW229305   3.531   0.824   4.234  1.0186  0.9983  1.4939
 9100SOL     OW29306   8.686   0.489   2.728 -0.7120 -0.2867 -0.3866
 9100SOL    HW129307   8.670   0.418   2.666  1.0441 -0.0919 -1.1221
 9100SOL    HW229308   8.756   0.540   2.688  0.6861 -0.3013  1.8641
 9101SOL     OW29309   2.056   6.217   9.691 -0.0170  0.1796 -0.1505
 9101SOL    HW129310   1.980   6.174   9.730  0.3375  0.7286  1.1864
 9101SOL    HW229311   2.100   6.148   9.641  0.5063 -1.0599  1.8808
 9102SOL     OW29312   8.284   5.899   6.145  0.0302  0.7682 -0.2307
 9102SOL    HW129313   8.271   5.904   6.050 -1.2156  0.1029 -0.1228
 9102SOL    HW229314   8.373   5.931   6.159  0.0847  1.2867 -1.5795
 9103SOL     OW29315   8.126   1.697   8.072 -0.7170  1.1752 -0.1889
 9103SOL    HW129316   8.114   1.602   8.062 -1.3043  1.3997 -2.2367
 9103SOL    HW229317   8.218   1.712   8.052 -1.0968  1.2070 -2.1849
 9104SOL     OW29318   9.749  11.045   0.474  0.3830 -0.6455  0.1453
 9104SOL    HW129319   9.757  11.114   0.540 -0.7854 -0.2745 -0.0810
 9104SOL    HW229320   9.719  10.968   0.524 -3.4478  0.3759 -0.2393
 9105SOL     OW29321   7.484   6.391  10.173 -0.1560  0.0444 -0.1838
 9105SOL    HW129322   7.412   6.336  10.205 -0.6225  0.6420 -0.1824
 9105SOL    HW229323   7.444   6.477  10.159  0.4259  0.2365 -0.7456
 9106SOL     OW29324   5.715  10.800   3.582 -0.7925  0.4550 -0.4719
 9106SOL    HW129325   5.683  10.814   3.671 -0.7900  0.3888 -0.4609
 9106SOL    HW229326   5.638  10.772   3.533 -0.3629 -1.6949 -0.0004
 9107SOL     OW29327   6.991   3.171   4.386  0.7395 -0.0809  0.3234
 9107SOL    HW129328   7.073   3.217   4.404  1.0014 -1.6460  3.9149
 9107SOL    HW229329   7.012   3.079   4.397 -1.3314 -0.5625  0.5915
 9108SOL     OW29330   4.876   0.489   3.910  0.4425  0.1745 -0.9449
 9108SOL    HW129331   4.860   0.494   3.816 -1.8323  0.5545 -0.5769
 9108SOL    HW229332   4.873   0.395   3.930 -2.4037  0.2088 -0.8023
 9109SOL     OW29333   8.019   7.264   9.757 -0.6286 -0.7936 -0.0802
 9109SOL    HW129334   8.097   7.271   9.701 -0.5952  1.5648  0.1735
 9109SOL    HW229335   8.037   7.187   9.812  0.8702 -1.1343 -0.9662
 9110SOL     OW29336   2.185   2.840   4.436 -0.2262 -0.3148  0.0783
 9110SOL    HW129337   2.206   2.792   4.516  1.8203  0.2919 -0.0525
 9110SOL    HW229338   2.181   2.931   4.463 -0.0557 -0.1596 -0.4054
 9111SOL     OW29339   8.981   1.708   5.203  0.2554 -0.2700  0.1447
 9111SOL    HW129340   9.050   1.758   5.248  0.2735 -2.2806  2.5980
 9111SOL    HW229341   8.979   1.744   5.115  1.0893  3.1723  1.3667
 9112SOL     OW29342   7.894   0.933   0.454  0.2151 -0.6585  0.1220
 9112SOL    HW129343   7.844   0.886   0.520  1.0958 -0.3994  0.9961
 9112SOL    HW229344   7.881   1.026   0.476 -0.0855 -0.5383 -0.5247
 9113SOL     OW29345  10.223   6.944   7.844  0.3649 -0.0140  0.4098
 9113SOL    HW129346  10.157   7.006   7.813 -1.1832 -1.3631  0.8744
 9113SOL    HW229347  10.272   6.993   7.911  0.2236  1.1886 -0.3422
 9114SOL     OW29348   5.618  10.500   4.048  0.7671  0.0389 -0.0535
 9114SOL    HW129349   5.544  10.511   4.107 -0.0923 -0.3087 -1.0477
 9114SOL    HW229350   5.654  10.414   4.070 -0.0784 -0.4678 -0.5840
 9115SOL     OW29351   4.745   4.919   8.919  0.1547  0.7593  0.8385
 9115SOL    HW129352   4.699   4.979   8.860 -1.0443 -0.3653  0.5967
 9115SOL    HW229353   4.697   4.837   8.912  2.4951 -0.6623  0.1815
 9116SOL     OW29354   4.907   6.222   8.410  0.1398  0.1429  0.0251
 9116SOL    HW129355   4.998   6.227   8.383  0.2934  1.8129  0.7321
 9116SOL    HW229356   4.910   6.208   8.504 -0.3543 -0.7417 -0.0790
 9117SOL     OW29357   4.846   3.303   7.877  0.9058 -0.0444 -0.0800
 9117SOL    HW129358   4.927   3.353   7.868 -0.4544  2.4655  0.4805
 9117SOL    HW229359   4.783   3.350   7.822 -0.4654 -1.1966  0.4443
 9118SOL     OW29360   1.312  10.671   7.189 -0.0107 -0.5571  0.5919
 9118SOL    HW129361   1.300  10.593   7.243  2.0255 -1.0233  0.4574
 9118SOL    HW229362   1.302  10.640   7.099  2.0210 -1.0158  0.4595
 9119SOL     OW29363   9.047   2.143   3.262  0.2412  0.4770 -0.4428
 9119SOL    HW129364   9.087   2.180   3.183 -1.7480  1.6970 -0.9264
 9119SOL    HW229365   9.109   2.075   3.289  1.7578  1.0850 -2.1316
 9120SOL     OW29366   8.495   3.176   8.591  0.0995  0.2424 -0.2700
 9120SOL    HW129367   8.464   3.244   8.650 -3.8765 -1.7549  0.2853
 9120SOL    HW229368   8.565   3.217   8.541  1.0433  3.2207  3.1154
 9121SOL     OW29369   9.602   1.513   5.700 -0.3054 -0.1742  0.0855
 9121SOL    HW129370   9.531   1.576   5.707 -0.5220 -0.4163  0.0751
 9121SOL    HW229371   9.566   1.441   5.647 -0.6268 -1.1034  1.4968
 9122SOL     OW29372   2.120   8.855   0.417  0.1975  0.4181  0.1103
 9122SOL    HW129373   2.212   8.849   0.393 -0.5487 -2.8277 -2.8324
 9122SOL    HW229374   2.118   8.834   0.510  2.4026  0.7793  0.2934
 9123SOL     OW29375   9.818   5.164   6.471  0.4493 -0.2207  0.2727
 9123SOL    HW129376   9.834   5.249   6.432  0.1107 -0.9341 -1.5084
 9123SOL    HW229377   9.785   5.110   6.399 -2.9197 -0.8523  2.0579
 9124SOL     OW29378   5.164   6.329   4.208 -0.2948  0.4592 -0.0211
 9124SOL    HW129379   5.211   6.246   4.195 -0.5557  0.4272 -0.8375
 9124SOL    HW229380   5.091   6.324   4.146 -1.3116  0.5634  1.1488
 9125SOL     OW29381   3.472   4.346   3.078  0.1703  0.1992 -0.1482
 9125SOL    HW129382   3.418   4.348   2.999  1.6871  1.4064 -1.2064
 9125SOL    HW229383   3.544   4.287   3.055  1.5165  1.8459 -0.3312
 9126SOL     OW29384   2.342  11.051   5.951  0.7393 -0.4289  0.3395
 9126SOL    HW129385   2.289  10.971   5.959  1.8698 -1.2800 -0.4336
 9126SOL    HW229386   2.428  11.025   5.982  0.5214  1.2131  2.5167
 9127SOL     OW29387   1.608   4.981   3.533 -0.2567  0.1875  0.0735
 9127SOL    HW129388   1.557   4.974   3.453  0.3110 -1.9591 -0.1815
 9127SOL    HW229389   1.591   5.069   3.565 -4.5975 -0.5221  0.3377
 9128SOL     OW29390   0.745   5.710   1.781  0.4836  0.3007 -0.5235
 9128SOL    HW129391   0.774   5.802   1.777  3.1274 -0.1892  2.7817
 9128SOL    HW229392   0.817   5.661   1.741  1.3988 -0.5234  1.9392
 9129SOL     OW29393   5.367   8.247  10.862 -0.1356  0.1971  0.2578
 9129SOL    HW129394   5.273   8.234  10.875 -0.3351  2.2003  1.1966
 9129SOL    HW229395   5.386   8.206  10.778 -1.3772 -2.2118  1.0751
 9130SOL     OW29396   3.089   6.620  10.254 -0.3563 -0.2733  0.2528
 9130SOL    HW129397   3.030   6.591  10.184 -1.3353  0.1103  0.9030
 9130SOL    HW229398   3.114   6.709  10.229 -0.2957 -0.3235  0.1323
 9131SOL     OW29399   4.941   7.550   6.348  0.7175  0.5089 -0.0444
 9131SOL    HW129400   4.991   7.631   6.339  2.2489 -0.3767  0.1290
 9131SOL    HW229401   4.917   7.527   6.259  2.6609 -0.2496 -0.4279
 9132SOL     OW29402   2.485   2.319   7.017  0.8429 -0.5112  0.4430
 9132SOL    HW129403   2.432   2.244   6.991  0.6084  0.2556 -1.5103
 9132SOL    HW229404   2.563   2.314   6.961  1.3452  0.0875  1.0674
 9133SOL     OW29405   6.272   7.759   9.678 -0.5414 -0.5536 -0.4621
 9133SOL    HW129406   6.321   7.695   9.627  1.0685 -2.0313  2.6502
 9133SOL    HW229407   6.338   7.815   9.717 -1.6426  0.2693  0.3053
 9134SOL     OW29408   8.088  10.441   3.169  0.3797  0.1914 -0.4124
 9134SOL    HW129409   8.148  10.495   3.221  1.1234 -0.9033 -0.0974
 9134SOL    HW229410   8.051  10.379   3.233 -0.6302  0.4609 -0.7215
 9135SOL     OW29411   8.139   9.708   0.402 -0.4299  0.0917 -0.8508
 9135SOL    HW129412   8.186   9.790   0.385 -0.0786  0.1878  0.4634
 9135SOL    HW229413   8.205   9.639   0.391  0.1842  0.2497  1.3282
 9136SOL     OW29414   0.168   8.028   0.674 -0.0060  0.0436  0.2062
 9136SOL    HW129415   0.116   8.077   0.737 -1.6416 -0.0840 -0.9803
 9136SOL    HW229416   0.140   8.062   0.589  1.9959  0.0853 -0.4875
 9137SOL     OW29417   5.332   1.893   2.854  0.2178  0.0880 -0.2388
 9137SOL    HW129418   5.424   1.891   2.881 -0.1098  1.0673  1.0395
 9137SOL    HW229419   5.333   1.933   2.767  0.9895  0.3129 -0.1312
 9138SOL     OW29420   6.977   4.083   7.526 -0.3013 -0.3841  0.0743
 9138SOL    HW129421   6.985   4.033   7.444 -0.6106 -0.4974  0.1110
 9138SOL    HW229422   7.010   4.024   7.594  0.5509 -0.0587 -0.0440
 9139SOL     OW29423   0.712   2.691   9.813 -0.3322 -0.1260 -0.1299
 9139SOL    HW129424   0.650   2.745   9.862  0.4561 -0.2019  0.9984
 9139SOL    HW229425   0.759   2.753   9.757 -0.0125  0.2506  0.5393
 9140SOL     OW29426   2.796   4.182   8.498  0.2679  0.3274  0.0133
 9140SOL    HW129427   2.773   4.162   8.589 -0.2405 -0.0635 -0.1926
 9140SOL    HW229428   2.738   4.255   8.475  1.0210  1.0295  0.2716
 9141SOL     OW29429   3.345   7.518   5.677  0.0380 -0.1267  0.4904
 9141SOL    HW129430   3.272   7.567   5.641 -0.1365  0.6315  1.8360
 9141SOL    HW229431   3.305   7.446   5.724  0.2450 -0.7309 -0.2313
 9142SOL     OW29432   3.625   0.278   7.033  0.8043  0.1348  0.2114
 9142SOL    HW129433   3.681   0.230   6.972  0.6249 -0.9918  0.9018
 9142SOL    HW229434   3.683   0.303   7.105  1.3704  2.8002 -1.0484
 9143SOL     OW29435   9.481   8.434   6.791  0.7176  0.2668  0.1914
 9143SOL    HW129436   9.431   8.437   6.873  0.7898 -0.4513  0.2620
 9143SOL    HW229437   9.510   8.525   6.778  1.2619  0.2658  1.3030
 9144SOL     OW29438   6.175   3.923   2.629  0.1964 -0.2858 -0.2703
 9144SOL    HW129439   6.183   3.999   2.687  0.1502  0.5260 -1.3055
 9144SOL    HW229440   6.159   3.960   2.543  0.0066 -1.4878 -0.7689
 9145SOL     OW29441  10.616   2.728   5.579 -0.0983 -0.7032  0.5319
 9145SOL    HW129442  10.607   2.823   5.584 -0.6420 -0.6135 -1.5062
 9145SOL    HW229443  10.604   2.707   5.486  1.3932 -2.6205  0.7063
 9146SOL     OW29444   9.608   7.495   1.831 -0.7869  0.3615 -0.3174
 9146SOL    HW129445   9.614   7.407   1.794  2.6103 -0.1156  0.9907
 9146SOL    HW229446   9.551   7.486   1.907 -3.8329  0.3171 -2.4377
 9147SOL     OW29447   6.138   4.943   8.489 -0.1126  0.0396  0.3440
 9147SOL    HW129448   6.135   4.934   8.584  1.1566 -1.2257  0.3008
 9147SOL    HW229449   6.058   4.991   8.467 -1.2038 -0.9546  1.9103
 9148SOL     OW29450   9.956  10.223   6.701  0.4794  0.3131  0.0279
 9148SOL    HW129451  10.038  10.223   6.652  0.0567  1.4084 -0.7069
 9148SOL    HW229452   9.953  10.137   6.743  1.9601  0.2263  0.0005
 9149SOL     OW29453   1.342   1.712   3.261 -0.1157  0.2737 -0.0409
 9149SOL    HW129454   1.364   1.804   3.269  0.9858  0.1535 -1.3900
 9149SOL    HW229455   1.259   1.711   3.214  0.0595  0.5622 -0.3532
 9150SOL     OW29456   9.299   9.973   8.291  0.5029 -0.1321 -0.4833
 9150SOL    HW129457   9.283  10.034   8.219  0.8474 -1.0434 -1.3794
 9150SOL    HW229458   9.328   9.893   8.247 -0.6784 -1.1922  0.5899
 9151SOL     OW29459   2.780   2.509   3.845  0.5825 -0.2706  0.2459
 9151SOL    HW129460   2.762   2.446   3.775  0.8767  0.4620 -0.5113
 9151SOL    HW229461   2.694   2.549   3.863  0.7523  0.6524 -0.8282
 9152SOL     OW29462  10.776  10.514   5.655  0.2078  0.2064  0.4677
 9152SOL    HW129463  10.867  10.498   5.681 -0.0561 -0.6046  0.9231
 9152SOL    HW229464  10.735  10.428   5.658 -0.7000  0.6391  0.7350
 9153SOL     OW29465  10.665   6.629   1.816  0.1700 -0.0223  0.3695
 9153SOL    HW129466  10.618   6.580   1.883 -0.9712  1.3676  0.6248
 9153SOL    HW229467  10.744   6.660   1.861 -1.2886  2.1608  1.6099
 9154SOL     OW29468   9.937   2.927   6.150  0.3578  0.5884  0.4166
 9154SOL    HW129469  10.015   2.897   6.198 -0.9205 -0.3369  1.9949
 9154SOL    HW229470   9.920   3.014   6.187 -1.4462 -0.6695  2.8474
 9155SOL     OW29471   8.442   1.949   4.223  0.6346  1.1898 -0.5621
 9155SOL    HW129472   8.452   1.912   4.136  1.6649  0.1923 -0.0365
 9155SOL    HW229473   8.350   1.976   4.227  0.4440  0.7749 -1.7634
 9156SOL     OW29474   5.919   9.094  10.020 -0.3826 -1.5665  0.0737
 9156SOL    HW129475   5.998   9.073   9.971 -0.7408 -0.4310 -1.0466
 9156SOL    HW229476   5.847   9.063   9.965 -0.8310  0.5448 -0.6316
 9157SOL     OW29477  10.195  10.843   2.743  0.2553 -0.7690  0.5715
 9157SOL    HW129478  10.140  10.921   2.756  2.5041  0.9229  0.5763
 9157SOL    HW229479  10.158  10.801   2.665 -0.4772  0.8623 -0.0221
 9158SOL     OW29480   9.320   6.820   7.599  0.6066 -0.3306  0.1653
 9158SOL    HW129481   9.265   6.780   7.532  0.6566  1.4789 -1.0340
 9158SOL    HW229482   9.376   6.749   7.630 -3.5213 -2.8221  2.9011
 9159SOL     OW29483   7.910   2.324   9.193 -0.2754 -0.2905 -0.0789
 9159SOL    HW129484   7.835   2.382   9.184 -0.3930 -0.4585 -0.1952
 9159SOL    HW229485   7.884   2.263   9.263 -0.8992 -1.3406 -1.1862
 9160SOL     OW29486   5.486   1.268  10.524  0.1644  0.0693  0.2100
 9160SOL    HW129487   5.399   1.301  10.505 -0.2535  0.7875  2.9536
 9160SOL    HW229488   5.496   1.280  10.619  2.2480 -2.3940  0.3955
 9161SOL     OW29489   7.778   2.838   7.065  0.3377 -0.1796 -0.5975
 9161SOL    HW129490   7.721   2.791   7.005 -1.2145 -0.1787  0.8366
 9161SOL    HW229491   7.736   2.923   7.077  0.2752 -0.3971  0.9534
 9162SOL     OW29492   7.339   3.378   5.685  0.1732 -0.4683 -0.2224
 9162SOL    HW129493   7.381   3.460   5.709 -2.0983  0.2792  1.4408
 9162SOL    HW229494   7.270   3.403   5.624 -0.0184 -1.2644 -0.3444
 9163SOL     OW29495   5.022   5.394   7.477 -0.1076 -0.5969 -0.3500
 9163SOL    HW129496   5.046   5.329   7.544 -1.6154 -1.2083 -0.3851
 9163SOL    HW229497   4.970   5.459   7.524 -0.2016 -0.4075 -0.7127
 9164SOL     OW29498   3.789   4.725   6.704  0.1243  0.9341 -0.2726
 9164SOL    HW129499   3.695   4.734   6.690 -0.2477 -1.4421  0.2918
 9164SOL    HW229500   3.805   4.770   6.787 -0.9878 -0.6303  0.8410
 9165SOL     OW29501   1.980   3.872   3.367 -0.2770 -0.0701  0.7875
 9165SOL    HW129502   1.921   3.924   3.421 -0.1194 -0.2257  1.1129
 9165SOL    HW229503   2.046   3.935   3.337 -2.0375  0.7044 -1.7603
 9166SOL     OW29504  10.251   7.162   6.756 -0.3793 -0.2837 -0.1765
 9166SOL    HW129505  10.220   7.219   6.827  0.4133  0.2189 -0.2136
 9166SOL    HW229506  10.341   7.141   6.781  0.1675  0.5125 -1.3855
 9167SOL     OW29507   6.452   3.779   6.410 -0.0397 -0.0611  0.1070
 9167SOL    HW129508   6.378   3.839   6.400  1.4246  1.7400 -0.3590
 9167SOL    HW229509   6.527   3.835   6.427  0.8967 -1.9508  2.9331
 9168SOL     OW29510   2.859   1.337   4.749 -0.2601 -0.1864  0.6505
 9168SOL    HW129511   2.955   1.348   4.746 -0.0993 -1.6258 -0.8708
 9168SOL    HW229512   2.826   1.411   4.697  0.0031  0.3530  1.2292
 9169SOL     OW29513   5.590  10.050   9.957  0.0390 -1.0211 -0.4538
 9169SOL    HW129514   5.623  10.078  10.042 -1.0242 -0.1440 -0.3022
 9169SOL    HW229515   5.503  10.089   9.952 -0.2321 -1.7513 -1.5980
 9170SOL     OW29516   9.257   2.016   3.385  0.1544 -0.1552  0.7500
 9170SOL    HW129517   9.305   2.099   3.392 -0.0627 -0.0670  1.1939
 9170SOL    HW229518   9.323   1.953   3.355 -0.3743  0.8563 -3.1259
 9171SOL     OW29519  10.943   2.186   9.463  0.0168 -0.1526  0.2108
 9171SOL    HW129520  10.941   2.270   9.417 -0.1601 -0.5770 -0.5702
 9171SOL    HW229521  10.957   2.209   9.555  1.7160  0.6614 -0.2131
 9172SOL     OW29522   6.556   5.287   0.185 -0.0141  0.2561 -0.3785
 9172SOL    HW129523   6.575   5.194   0.197  3.3478  0.8996  0.1249
 9172SOL    HW229524   6.530   5.293   0.093  1.2060 -1.0082 -0.8548
 9173SOL     OW29525   2.550   0.307   4.324  0.3195 -0.2745 -0.2942
 9173SOL    HW129526   2.634   0.268   4.347 -0.1994 -1.6340 -0.6202
 9173SOL    HW229527   2.550   0.391   4.369  1.2086 -0.9177  0.9759
 9174SOL     OW29528   3.558   6.438   8.150  0.2917 -0.1480 -0.1773
 9174SOL    HW129529   3.582   6.346   8.160  1.8940  0.3144  0.4486
 9174SOL    HW229530   3.606   6.467   8.072  1.8528  0.7738  1.0591
 9175SOL     OW29531   4.606   3.271   9.327  0.1860  0.3420 -0.0868
 9175SOL    HW129532   4.518   3.262   9.292  0.6083 -1.3706 -0.8380
 9175SOL    HW229533   4.634   3.181   9.345  1.6207  0.8765  0.5454
 9176SOL     OW29534   8.804   5.039   9.238 -0.7552 -0.2103 -0.5566
 9176SOL    HW129535   8.794   5.107   9.304  2.1564 -1.6591  1.6371
 9176SOL    HW229536   8.718   4.999   9.230 -1.2936  0.2400  2.2101
 9177SOL     OW29537  10.273   8.038   5.691 -0.3878  0.0445 -0.0404
 9177SOL    HW129538  10.336   8.105   5.664 -0.4678  0.1028 -0.0845
 9177SOL    HW229539  10.216   8.026   5.614  1.2831 -2.0720 -1.0495
 9178SOL     OW29540   0.498   6.948   3.965  0.3401  0.6332  0.3075
 9178SOL    HW129541   0.507   6.864   3.921 -0.8068 -0.2559  1.7004
 9178SOL    HW229542   0.411   6.946   4.004  0.4923  2.2583  0.8044
 9179SOL     OW29543   0.225   3.824   2.216  0.0949  0.4067 -0.4291
 9179SOL    HW129544   0.179   3.902   2.249  0.5973  0.2365  0.7318
 9179SOL    HW229545   0.161   3.753   2.226  0.0915  0.4366 -0.2283
 9180SOL     OW29546   3.293   4.251   1.340  0.2486  0.0495 -0.2724
 9180SOL    HW129547   3.243   4.214   1.267 -0.1679  0.3632 -0.1464
 9180SOL    HW229548   3.367   4.295   1.298  0.3411 -0.2830 -0.4671
 9181SOL     OW29549  10.700   9.675  10.320 -0.9990  0.8836  0.2477
 9181SOL    HW129550  10.637   9.620  10.368 -1.7866  0.7657 -0.8727
 9181SOL    HW229551  10.717   9.748  10.379 -3.0962  1.5225  0.1562
 9182SOL     OW29552   5.897   9.905   5.842  0.0299 -0.6855 -0.3313
 9182SOL    HW129553   5.987   9.894   5.873  0.3533  1.0938 -0.5211
 9182SOL    HW229554   5.902   9.890   5.748 -0.0746 -1.5328 -0.2112
 9183SOL     OW29555  10.103   6.397  10.697  0.0585 -0.2916 -0.1789
 9183SOL    HW129556  10.091   6.328  10.763  2.0273 -0.1340  0.4042
 9183SOL    HW229557  10.157   6.357  10.630  0.9129  0.5395 -0.0151
 9184SOL     OW29558  10.572   5.329   5.507 -0.2169 -0.2121  0.5105
 9184SOL    HW129559  10.567   5.357   5.415  1.2408  1.6826  0.9504
 9184SOL    HW229560  10.657   5.285   5.514 -0.0373  0.2211  1.0922
 9185SOL     OW29561   1.262   4.140   8.407  0.1406 -0.5706 -0.0477
 9185SOL    HW129562   1.313   4.140   8.488 -0.9275 -1.9842  0.6544
 9185SOL    HW229563   1.326   4.163   8.339  1.6687 -1.9794  0.8303
 9186SOL     OW29564   0.516   8.819   3.961  0.1945  0.2806 -0.3584
 9186SOL    HW129565   0.571   8.882   3.915 -1.0051  1.4174 -0.3043
 9186SOL    HW229566   0.540   8.829   4.053  0.6502 -0.0031 -0.4453
 9187SOL     OW29567   0.928   9.678  10.758  0.3294 -0.3952 -0.1043
 9187SOL    HW129568   0.851   9.711  10.711 -0.1373 -1.1155  0.1425
 9187SOL    HW229569   0.925   9.583  10.745 -1.4764 -1.0580  3.7230
 9188SOL     OW29570   8.343  10.676   6.389 -0.2925 -0.7579 -0.0815
 9188SOL    HW129571   8.295  10.702   6.311  2.6160  4.1446 -0.6825
 9188SOL    HW229572   8.433  10.661   6.358  1.0903  1.9124  2.1387
 9189SOL     OW29573   1.873   8.841   1.266 -0.3065 -0.2622  0.4397
 9189SOL    HW129574   1.806   8.907   1.283  0.6815  0.5831  1.2383
 9189SOL    HW229575   1.953   8.892   1.250 -0.1916 -1.1858 -2.3080
 9190SOL     OW29576   6.359   0.363   9.817  0.5139 -0.2520  0.5933
 9190SOL    HW129577   6.382   0.400   9.732 -1.5990 -1.5377 -0.6162
 9190SOL    HW229578   6.433   0.384   9.873  1.9414  0.7104 -1.5348
 9191SOL     OW29579   2.085   8.792   8.917 -0.3784 -0.0804  0.1804
 9191SOL    HW129580   2.153   8.725   8.913 -0.9167 -0.6060 -0.4511
 9191SOL    HW229581   2.120   8.865   8.866 -0.2905 -0.3585 -0.1620
 9192SOL     OW29582   6.495   9.372   2.477 -0.3548 -0.6537 -0.3544
 9192SOL    HW129583   6.410   9.330   2.487  0.3819 -2.3009 -0.6592
 9192SOL    HW229584   6.480   9.440   2.411 -1.4284 -0.9247 -0.4128
 9193SOL     OW29585   1.445   3.482   9.600  0.3348 -0.0384  0.8190
 9193SOL    HW129586   1.438   3.546   9.530  4.1702 -0.2805 -0.0155
 9193SOL    HW229587   1.355   3.455   9.618 -1.2674  3.9904 -0.1971
 9194SOL     OW29588   8.224   3.184   9.346 -0.5018  0.3836  0.5695
 9194SOL    HW129589   8.207   3.241   9.271  1.5455 -1.1320 -1.1837
 9194SOL    HW229590   8.192   3.098   9.318 -0.1226 -0.1047  1.6021
 9195SOL     OW29591   3.873   4.733   9.395  0.3760  0.4020 -0.0645
 9195SOL    HW129592   3.873   4.662   9.460 -0.8240  0.5848  0.1488
 9195SOL    HW229593   3.881   4.813   9.447 -1.5300  0.6147 -0.0251
 9196SOL     OW29594   1.462   5.791  10.943 -0.0353 -0.1339 -0.1620
 9196SOL    HW129595   1.494   5.881  10.940  1.7279 -0.7483 -0.9997
 9196SOL    HW229596   1.367   5.799  10.942  0.0260  1.6649 -3.2029
 9197SOL     OW29597   9.301   0.080   4.658  0.0055  0.0281  0.4474
 9197SOL    HW129598   9.243   0.145   4.616 -1.5672  0.2489  2.7912
 9197SOL    HW229599   9.261  -0.004   4.637  0.1798  0.0294  0.1082
 9198SOL     OW29600   8.179   6.608   8.251  0.2901  0.0578 -0.3889
 9198SOL    HW129601   8.191   6.668   8.325 -1.5988  0.3339 -0.2495
 9198SOL    HW229602   8.216   6.525   8.282  1.3780  0.6889  0.0675
 9199SOL     OW29603   2.329   9.955   6.140 -0.1158 -0.3950 -0.3612
 9199SOL    HW129604   2.273  10.031   6.125 -0.1066 -0.3507 -0.1640
 9199SOL    HW229605   2.390   9.955   6.065 -0.3118 -0.3863 -0.5222
 9200SOL     OW29606   4.084   2.656   9.108  0.3672  0.1723 -0.6593
 9200SOL    HW129607   4.017   2.716   9.141  0.0103 -1.0526  1.0110
 9200SOL    HW229608   4.035   2.589   9.061  0.1880 -1.4210  1.6346
 9201SOL     OW29609   3.749   8.791   9.340 -0.1559  0.1836 -0.6611
 9201SOL    HW129610   3.764   8.841   9.260  2.5472  0.0213 -0.3633
 9201SOL    HW229611   3.809   8.830   9.404 -2.8240  0.8693  1.6096
 9202SOL     OW29612   1.091   6.597   9.986  0.1221 -0.0607 -0.1590
 9202SOL    HW129613   1.069   6.508  10.011  3.1156 -1.6836 -2.6446
 9202SOL    HW229614   1.107   6.642  10.069 -0.5328 -2.0736  1.1330
 9203SOL     OW29615   4.547   8.806  10.656 -0.0547  0.2429 -0.1528
 9203SOL    HW129616   4.633   8.773  10.681  0.4321  2.5895  1.6592
 9203SOL    HW229617   4.542   8.893  10.697 -2.8399  0.6573 -1.1529
 9204SOL     OW29618   2.033   0.296   8.002  0.0930 -0.0619  0.3498
 9204SOL    HW129619   2.078   0.370   7.961 -0.9610  0.0562 -0.6363
 9204SOL    HW229620   2.082   0.219   7.972 -0.8258 -0.0049 -1.4543
 9205SOL     OW29621   2.567  10.292   0.981 -0.4553 -0.1619 -0.0407
 9205SOL    HW129622   2.551  10.294   0.887 -1.1607  0.7165  0.0845
 9205SOL    HW229623   2.483  10.315   1.021 -0.1474 -0.4465  0.8079
 9206SOL     OW29624   0.584   2.313   9.237  0.5519 -1.0679  0.1216
 9206SOL    HW129625   0.587   2.349   9.148  0.4988 -0.2780  0.4331
 9206SOL    HW229626   0.541   2.228   9.227 -1.0041 -0.2728 -0.3847
 9207SOL     OW29627   0.971   0.745   1.073  0.1930 -0.1614  0.6626
 9207SOL    HW129628   0.894   0.712   1.120  0.0422 -6.0714 -2.7003
 9207SOL    HW229629   0.936   0.786   0.994  0.3603 -1.4521 -0.1134
 9208SOL     OW29630   8.675   9.808   7.317 -0.0966  0.6130  0.0772
 9208SOL    HW129631   8.769   9.809   7.302  0.0828  0.4353  1.1865
 9208SOL    HW229632   8.650   9.901   7.314  0.0910  0.6556 -0.2794
 9209SOL     OW29633   9.863   4.969   6.689 -0.1452  1.0468  0.4291
 9209SOL    HW129634   9.816   5.050   6.669 -1.2530  0.5641  0.9461
 9209SOL    HW229635   9.818   4.903   6.636 -1.4343  0.2076  2.4701
 9210SOL     OW29636   0.742   5.155   7.820 -0.0990 -0.4991 -0.7118
 9210SOL    HW129637   0.656   5.138   7.783  0.9479 -0.7861 -3.2322
 9210SOL    HW229638   0.732   5.237   7.869 -1.2857  0.7792 -2.9473
 9211SOL     OW29639   6.062   9.718   4.672 -0.7269  0.3390 -0.6923
 9211SOL    HW129640   6.102   9.634   4.653 -1.1538  0.3552 -1.7150
 9211SOL    HW229641   6.018   9.706   4.757  1.2475  0.2745  0.3810
 9212SOL     OW29642   7.643   0.681  11.085  0.2199 -0.1683  0.0985
 9212SOL    HW129643   7.644   0.607  11.024  0.8136 -2.4284  2.6661
 9212SOL    HW229644   7.702   0.654  11.156 -0.5014  2.2826  1.7300
 9213SOL     OW29645   1.958   3.890   6.907 -0.1686 -0.0893  0.8142
 9213SOL    HW129646   1.947   3.810   6.856 -0.3719  0.6966 -0.4034
 9213SOL    HW229647   2.050   3.915   6.893 -0.9436  1.7187 -1.6378
 9214SOL     OW29648   8.350   4.105   6.441 -0.6231 -0.7078  0.7397
 9214SOL    HW129649   8.444   4.110   6.459 -0.6111  0.9033  0.4163
 9214SOL    HW229650   8.332   4.012   6.433  1.0774 -1.0328  0.1886
 9215SOL     OW29651   5.941   5.986   4.826 -0.0833 -0.1032  0.3517
 9215SOL    HW129652   5.947   6.063   4.882 -3.2357  1.9583 -1.8176
 9215SOL    HW229653   6.031   5.973   4.794  0.7468  1.9876  1.5853
 9216SOL     OW29654   7.166   7.085   6.585  0.4627  0.1891  0.3287
 9216SOL    HW129655   7.124   7.013   6.633 -0.4308 -0.2440 -1.0219
 9216SOL    HW229656   7.134   7.164   6.628 -0.0142 -0.1833  0.6754
 9217SOL     OW29657   8.468   6.971   3.453  0.5008  0.2694  0.2850
 9217SOL    HW129658   8.382   6.983   3.412  0.4028 -3.9645 -1.3146
 9217SOL    HW229659   8.452   6.984   3.546 -1.6588  0.4801 -0.0498
 9218SOL     OW29660   9.779   4.108   4.735  0.0987  0.5866 -0.1992
 9218SOL    HW129661   9.832   4.187   4.734  1.1875 -0.1103 -1.5154
 9218SOL    HW229662   9.691   4.137   4.708  0.1022  1.5533  0.7846
 9219SOL     OW29663   7.188   0.487   0.201 -0.4727 -0.7729 -0.2208
 9219SOL    HW129664   7.251   0.557   0.215  0.8118 -2.0260  0.5378
 9219SOL    HW229665   7.137   0.515   0.125  0.8908  0.3642 -0.7557
 9220SOL     OW29666   4.297   8.197   3.198  0.2633 -0.1990  0.3809
 9220SOL    HW129667   4.238   8.138   3.150  1.9660 -1.5245 -0.1685
 9220SOL    HW229668   4.312   8.153   3.282  2.4477 -1.1711 -0.4749
 9221SOL     OW29669   3.949   4.943   3.257 -0.0205  0.3331  0.2866
 9221SOL    HW129670   3.874   4.900   3.217  0.0495  0.1316  0.3730
 9221SOL    HW229671   3.968   4.891   3.335  0.5371  0.0804 -0.0138
 9222SOL     OW29672   2.270  10.455   8.249 -0.7130  0.2640  0.2395
 9222SOL    HW129673   2.237  10.416   8.167  0.0739  0.0502  0.0093
 9222SOL    HW229674   2.354  10.494   8.224  0.7263 -1.8464  1.3947
 9223SOL     OW29675   9.364   2.494   2.875 -0.6907  0.0027  0.3951
 9223SOL    HW129676   9.422   2.550   2.823 -1.0315 -0.1655 -0.1750
 9223SOL    HW229677   9.370   2.408   2.833 -0.3797 -0.3241  1.1011
 9224SOL     OW29678  10.320   0.539   6.013 -0.0645 -0.4819 -0.2647
 9224SOL    HW129679  10.384   0.609   6.000  1.2075 -1.5265  0.0923
 9224SOL    HW229680  10.250   0.579   6.065  0.8611  0.4141  0.3333
 9225SOL     OW29681   4.366   8.664   8.528  0.5975  0.6108 -0.5362
 9225SOL    HW129682   4.306   8.591   8.514 -2.5801  3.1968 -1.6099
 9225SOL    HW229683   4.408   8.678   8.443  0.4317  0.6790 -0.6063
 9226SOL     OW29684   5.517  10.253   2.901 -0.1232  0.6762 -0.0477
 9226SOL    HW129685   5.431  10.275   2.936  0.1943  0.9128  0.5941
 9226SOL    HW229686   5.521  10.157   2.905 -0.2923  0.6742  0.0786
 9227SOL     OW29687   7.856   8.877   3.982 -0.3211 -0.3548 -0.3783
 9227SOL    HW129688   7.850   8.938   3.909 -0.4194 -1.4574 -1.3173
 9227SOL    HW229689   7.949   8.873   4.003 -0.3864  0.6613  0.1933
 9228SOL     OW29690   6.813   5.404   0.280  0.1187  0.4178  0.0436
 9228SOL    HW129691   6.775   5.380   0.195 -0.5797 -0.4173  0.5769
 9228SOL    HW229692   6.811   5.323   0.331 -0.1944  1.0854  1.1280
 9229SOL     OW29693   9.554   5.371   5.267 -0.3170  0.4640  0.1706
 9229SOL    HW129694   9.525   5.459   5.292 -1.0286  1.3447 -3.2707
 9229SOL    HW229695   9.621   5.385   5.202  0.2778 -1.5968  0.2609
 9230SOL     OW29696   9.413   8.573   4.795  0.0187  0.3323  0.0083
 9230SOL    HW129697   9.407   8.581   4.699  2.2089  0.9098 -0.1436
 9230SOL    HW229698   9.328   8.601   4.827 -0.1571  1.9666 -1.7070
 9231SOL     OW29699   2.541   6.324   8.822  0.4438 -0.2541  0.3135
 9231SOL    HW129700   2.448   6.342   8.809  0.1304 -0.7343  1.6946
 9231SOL    HW229701   2.543   6.250   8.883  1.7263  0.0938  0.7248
 9232SOL     OW29702   2.793  10.753   2.097  0.4253  0.0862  0.3277
 9232SOL    HW129703   2.843  10.763   2.178  0.1975 -0.0830  0.4883
 9232SOL    HW229704   2.779  10.842   2.066  2.1281  0.1000 -0.5149
 9233SOL     OW29705   5.743   6.965   8.081 -0.4141 -0.3162 -0.6249
 9233SOL    HW129706   5.820   6.915   8.110  0.7995 -0.0936 -3.1824
 9233SOL    HW229707   5.776   7.053   8.063 -1.6048  0.2013 -0.4215
 9234SOL     OW29708   9.698   3.514   8.245 -0.0872  0.0084  0.4818
 9234SOL    HW129709   9.748   3.522   8.164 -0.9475 -0.4090 -0.1061
 9234SOL    HW229710   9.613   3.481   8.217 -0.3531 -0.2627  1.5722
 9235SOL     OW29711   5.615   4.250   1.925 -0.2947 -0.3716  0.0158
 9235SOL    HW129712   5.688   4.196   1.895 -1.7595 -1.6230 -1.4993
 9235SOL    HW229713   5.617   4.241   2.021  0.9445 -1.1508 -0.0563
 9236SOL     OW29714  10.288   1.885   9.845 -0.3721  0.5991  0.1554
 9236SOL    HW129715  10.336   1.964   9.819 -0.7723  0.6150 -0.5437
 9236SOL    HW229716  10.223   1.873   9.777  1.2046 -1.6912 -1.0563
 9237SOL     OW29717   0.073   4.230   4.270  0.2940  0.4435  0.7156
 9237SOL    HW129718   0.029   4.247   4.353 -2.4439 -0.7610 -0.4041
 9237SOL    HW229719   0.025   4.282   4.206 -1.9694 -3.4676 -1.1266
 9238SOL     OW29720   1.199   1.907  10.945 -0.1060  0.3209 -0.6045
 9238SOL    HW129721   1.232   1.915  11.035 -3.1388  3.4806  0.4863
 9238SOL    HW229722   1.157   1.821  10.943  1.3491 -0.4563  0.4488
 9239SOL     OW29723   9.535   3.230   0.331 -0.2549 -0.3381 -0.2642
 9239SOL    HW129724   9.484   3.215   0.411 -1.0722 -0.4443 -0.7870
 9239SOL    HW229725   9.515   3.154   0.276  0.7957 -0.5767 -0.3249
 9240SOL     OW29726   7.558   5.277  10.789  0.6189 -0.2642  0.9061
 9240SOL    HW129727   7.571   5.360  10.743  0.8849 -0.9411 -0.2550
 9240SOL    HW229728   7.516   5.220  10.725 -0.0864 -0.8558  1.8752
 9241SOL     OW29729   5.732   1.789   2.474 -0.4175  0.1007 -0.1777
 9241SOL    HW129730   5.792   1.817   2.543 -0.4698  0.5640 -0.3146
 9241SOL    HW229731   5.785   1.733   2.418  0.0275  0.8639 -0.5489
 9242SOL     OW29732   3.917  10.410   9.893  0.9641 -0.2917 -0.1114
 9242SOL    HW129733   3.969  10.464   9.953 -0.5111  0.0597  0.9076
 9242SOL    HW229734   3.971  10.332   9.879  1.4140 -0.3393  1.6071
 9243SOL     OW29735  10.897   6.687   1.961  0.3443 -0.5153  0.3833
 9243SOL    HW129736  10.923   6.642   2.041  1.1005 -0.2962  0.2616
 9243SOL    HW229737  10.976   6.732   1.931  0.3205 -1.3180 -0.9719
 9244SOL     OW29738   7.009   7.371   2.277  0.0917 -0.4883 -0.6104
 9244SOL    HW129739   6.962   7.451   2.253 -0.7425 -0.7069  0.2521
 9244SOL    HW229740   6.949   7.323   2.334  1.4892 -0.5854  0.8741
 9245SOL     OW29741   1.988   9.802   9.931  0.1748 -0.4828  0.5695
 9245SOL    HW129742   1.995   9.762  10.018 -2.5311 -0.1625  1.0427
 9245SOL    HW229743   1.934   9.880   9.945  0.0801 -0.1581 -1.3242
 9246SOL     OW29744  10.006   2.769   3.543  0.0835  0.2171  0.0994
 9246SOL    HW129745  10.101   2.765   3.531 -0.0858  0.8809 -1.9485
 9246SOL    HW229746   9.992   2.839   3.607  1.0028 -1.0197  1.7190
 9247SOL     OW29747   1.410   9.270   5.489 -0.3429 -0.4328  0.1431
 9247SOL    HW129748   1.385   9.339   5.550 -3.0424 -1.5141  0.3806
 9247SOL    HW229749   1.471   9.312   5.429  0.8859  1.1689  2.3745
 9248SOL     OW29750   7.398   0.061   5.304  0.0235 -0.6400  0.6122
 9248SOL    HW129751   7.374   0.076   5.395  1.9185 -0.7480  1.1813
 9248SOL    HW229752   7.491   0.084   5.300 -0.0032 -0.6908 -1.2861
 9249SOL     OW29753   4.673   4.291   1.279  0.4172  0.1009 -0.1471
 9249SOL    HW129754   4.668   4.385   1.261  0.2785  0.3073  0.9036
 9249SOL    HW229755   4.689   4.285   1.373 -1.3000 -0.9523  0.1320
 9250SOL     OW29756   1.769  10.940   5.404 -0.4475  0.1692  1.1706
 9250SOL    HW129757   1.768  11.025   5.448  0.9994  1.4519 -1.0565
 9250SOL    HW229758   1.677  10.920   5.388 -0.8039  2.2394  0.1891
 9251SOL     OW29759  10.708   2.572   6.951 -0.7735  0.7173  0.7678
 9251SOL    HW129760  10.786   2.568   7.007 -1.1847 -1.2730  1.2905
 9251SOL    HW229761  10.639   2.534   7.005 -1.3979 -0.3667 -0.7260
 9252SOL     OW29762   9.066   2.232   2.992 -0.7513 -0.1810 -0.1864
 9252SOL    HW129763   9.028   2.211   2.906  0.6969 -1.7167 -0.5091
 9252SOL    HW229764   9.104   2.319   2.981 -4.0951  1.4461  0.1752
 9253SOL     OW29765   3.178   4.754   7.227  0.2671 -0.8108  0.1052
 9253SOL    HW129766   3.148   4.816   7.294 -0.0491 -1.0451  0.1890
 9253SOL    HW229767   3.269   4.735   7.251  0.6593  0.3150 -0.4594
 9254SOL     OW29768   5.297  10.428   7.500  0.3530  0.4512  0.3452
 9254SOL    HW129769   5.255  10.459   7.420  0.4458 -1.6977 -0.6067
 9254SOL    HW229770   5.317  10.507   7.549  1.2460  1.9378 -2.2401
 9255SOL     OW29771   3.968   0.612  10.201 -0.3451  0.2490  0.7593
 9255SOL    HW129772   3.953   0.614  10.295 -1.4086  1.1445  0.5907
 9255SOL    HW229773   4.063   0.607  10.192 -0.0736  2.3275  1.8972
 9256SOL     OW29774   0.662   5.354   2.098  0.2983  0.1229  0.9871
 9256SOL    HW129775   0.729   5.400   2.047 -1.0922 -0.1197 -1.2024
 9256SOL    HW229776   0.595   5.421   2.113 -0.5603 -0.4891  0.0218
 9257SOL     OW29777   2.415   5.083   5.600 -0.7099 -0.2954  0.2780
 9257SOL    HW129778   2.403   5.174   5.573  1.6311  1.3058  3.8957
 9257SOL    HW229779   2.361   5.074   5.678  0.4482 -1.4061  0.9872
 9258SOL     OW29780   1.243   8.657   0.827 -0.0983 -0.0788 -0.2048
 9258SOL    HW129781   1.276   8.734   0.782 -0.9193 -0.6013 -1.7854
 9258SOL    HW229782   1.155   8.681   0.855  0.1703  0.0230  0.5770
 9259SOL     OW29783   7.925   8.615  10.997  0.7084 -0.1901 -0.3844
 9259SOL    HW129784   7.840   8.592  10.960  0.8943 -2.4592  0.4619
 9259SOL    HW229785   7.980   8.633  10.921  0.0515 -0.9159 -1.0468
 9260SOL     OW29786   2.276   9.623   1.140  0.3734 -0.4049 -0.0173
 9260SOL    HW129787   2.213   9.692   1.160  1.9163  0.5613  1.8624
 9260SOL    HW229788   2.252   9.593   1.052 -1.8837  0.7720  0.1232
 9261SOL     OW29789   3.069   8.302   4.536 -0.0630  0.1046 -0.2784
 9261SOL    HW129790   3.021   8.233   4.489  2.2696 -0.9509 -1.2965
 9261SOL    HW229791   3.161   8.280   4.522  0.8050  0.7222  3.4649
 9262SOL     OW29792  10.856   1.452  10.042 -0.1186  0.2423  0.5517
 9262SOL    HW129793  10.797   1.434   9.968 -2.1866  2.6442  1.4637
 9262SOL    HW229794  10.818   1.403  10.115 -1.4255  2.1821  1.2624
 9263SOL     OW29795   1.826   2.603   9.689 -0.1661 -0.2259  0.4902
 9263SOL    HW129796   1.891   2.566   9.749  0.9355  0.3071 -0.3308
 9263SOL    HW229797   1.772   2.529   9.663  1.0985 -1.0056 -0.0088
 9264SOL     OW29798   0.051   1.556   2.760 -0.3001  0.0330 -0.3048
 9264SOL    HW129799   0.022   1.510   2.839 -1.6625 -0.6738 -1.1686
 9264SOL    HW229800   0.055   1.648   2.786  1.1932 -0.3916  1.1060
 9265SOL     OW29801   6.476  10.444   9.394 -0.0182 -0.6213  0.0494
 9265SOL    HW129802   6.407  10.428   9.330  0.9436  0.1865 -1.2273
 9265SOL    HW229803   6.429  10.467   9.474 -1.2615  1.9544 -1.3198
 9266SOL     OW29804   4.645   2.252   2.702  0.0083 -0.2463 -0.3454
 9266SOL    HW129805   4.650   2.345   2.723 -0.5993 -0.1221 -0.7410
 9266SOL    HW229806   4.607   2.212   2.780 -1.5580  0.1146 -0.8895
 9267SOL     OW29807   3.127   6.231   3.291 -0.0347  0.3168 -0.3942
 9267SOL    HW129808   3.213   6.269   3.273 -0.7122  1.4120 -1.4639
 9267SOL    HW229809   3.103   6.187   3.210 -2.1590  3.4013 -1.6353
 9268SOL     OW29810   9.326   3.544   9.858 -0.2334  0.5982  0.1140
 9268SOL    HW129811   9.277   3.478   9.809  0.8913 -0.1487 -0.0258
 9268SOL    HW229812   9.303   3.527   9.949  1.4249 -1.2088  0.2567
 9269SOL     OW29813   6.806   3.739   6.586  0.0335 -0.3058 -0.0539
 9269SOL    HW129814   6.847   3.823   6.566 -0.4402  0.0609  0.4751
 9269SOL    HW229815   6.855   3.706   6.661 -0.9596  0.3976  0.9398
 9270SOL     OW29816   3.450   3.745   9.591  0.2177 -0.2164  0.8580
 9270SOL    HW129817   3.357   3.751   9.616  0.1430 -0.7316  0.7138
 9270SOL    HW229818   3.448   3.735   9.496  0.4938  1.5913  0.6198
 9271SOL     OW29819   9.819   8.833  10.347 -0.2137 -0.2929  0.3683
 9271SOL    HW129820   9.762   8.769  10.390  0.4429 -1.2701 -0.2039
 9271SOL    HW229821   9.899   8.832  10.400  0.9190 -2.0977 -1.2724
 9272SOL     OW29822   3.876   0.704   2.794 -0.3862  0.2545  0.1348
 9272SOL    HW129823   3.919   0.704   2.708  1.0061 -0.8756  0.7755
 9272SOL    HW229824   3.941   0.664   2.852 -2.0316 -0.7876  1.3255
 9273SOL     OW29825   8.992   4.893   9.821 -0.2093 -0.1462  0.0912
 9273SOL    HW129826   8.977   4.966   9.761  0.0536  0.6775  1.0019
 9273SOL    HW229827   8.905   4.862   9.844 -0.3417  0.1641  0.0188
 9274SOL     OW29828   6.183   8.069   7.741 -0.3235  0.6545  0.6866
 9274SOL    HW129829   6.232   8.018   7.677 -1.4652 -0.6723  0.8325
 9274SOL    HW229830   6.135   8.133   7.688  0.5046  1.0902  0.4380
 9275SOL     OW29831   7.075   0.150   6.279  0.2695 -0.7460 -0.5203
 9275SOL    HW129832   7.020   0.204   6.221  1.4767  0.0282 -0.9776
 9275SOL    HW229833   7.147   0.121   6.223 -0.8065 -3.6843 -0.5501
 9276SOL     OW29834   7.662   8.453   2.237  0.1950 -0.8676  0.0569
 9276SOL    HW129835   7.732   8.417   2.183  0.2896 -1.4490  0.5564
 9276SOL    HW229836   7.593   8.386   2.235 -0.6275 -0.0208 -0.9587
 9277SOL     OW29837   1.514   9.217   5.898 -0.1245 -0.6451  0.3903
 9277SOL    HW129838   1.425   9.244   5.877 -0.4398 -1.1261  1.1123
 9277SOL    HW229839   1.535   9.265   5.978  0.6135  0.1797 -0.2641
 9278SOL     OW29840   0.869   6.927   7.091 -0.0453 -0.2191  0.7018
 9278SOL    HW129841   0.913   7.010   7.109 -1.3882  0.9226 -0.9252
 9278SOL    HW229842   0.941   6.865   7.076  0.9877  0.8429  1.0940
 9279SOL     OW29843   9.528   9.033   3.133 -0.7256 -0.3057 -1.0934
 9279SOL    HW129844   9.499   8.946   3.157 -0.2402  0.2691  2.0067
 9279SOL    HW229845   9.512   9.039   3.038  1.3027 -4.5178 -1.9464
 9280SOL     OW29846   4.141   1.207   5.150 -0.3462 -0.6314 -0.1984
 9280SOL    HW129847   4.130   1.187   5.057  2.8428  0.2756 -0.8761
 9280SOL    HW229848   4.197   1.285   5.151  0.6539 -1.3080  2.5018
 9281SOL     OW29849  10.918   1.141   7.296 -0.4884 -0.5914  0.3789
 9281SOL    HW129850  10.937   1.118   7.387  0.4720  0.3676  0.4434
 9281SOL    HW229851  10.907   1.236   7.298 -0.7402 -0.6009 -0.4644
 9282SOL     OW29852   7.972   1.363   4.754  0.2454  0.1306  0.2599
 9282SOL    HW129853   7.891   1.330   4.715  0.1093 -0.3334  0.9226
 9282SOL    HW229854   8.036   1.361   4.682 -0.3953  0.7720 -0.3366
 9283SOL     OW29855   0.029   4.433   8.391 -0.6085  0.2966 -0.0730
 9283SOL    HW129856  -0.043   4.441   8.454  0.9370  1.0151  1.7067
 9283SOL    HW229857   0.036   4.521   8.353 -0.3706  0.3441  0.0851
 9284SOL     OW29858   2.690   5.779   3.089 -0.1260  0.1966 -0.2408
 9284SOL    HW129859   2.735   5.696   3.078 -1.8908 -0.9677  0.7608
 9284SOL    HW229860   2.732   5.819   3.165 -0.5670 -0.7702  0.5448
 9285SOL     OW29861   3.429   1.380   3.892  0.1453 -0.7132 -0.3641
 9285SOL    HW129862   3.465   1.291   3.880 -0.3602 -1.4236  2.7115
 9285SOL    HW229863   3.506   1.434   3.912  0.2534 -0.7979 -0.5435
 9286SOL     OW29864   3.821  10.743   7.165  0.3146 -0.4739  0.1328
 9286SOL    HW129865   3.894  10.702   7.119 -1.3454  0.5990 -3.8526
 9286SOL    HW229866   3.767  10.670   7.195  0.9342 -1.2457 -0.5815
 9287SOL     OW29867   3.840   7.054   2.140 -0.2420  0.0514  0.6028
 9287SOL    HW129868   3.787   7.081   2.064  1.2070 -2.0052 -1.2233
 9287SOL    HW229869   3.776   7.019   2.202 -1.2064 -1.1590 -1.0054
 9288SOL     OW29870   1.840   2.502   6.067  0.0115  0.3003  0.2545
 9288SOL    HW129871   1.928   2.535   6.084  0.3543 -1.3364  1.9973
 9288SOL    HW229872   1.810   2.469   6.151 -2.1712  0.5176 -0.3748
 9289SOL     OW29873  10.626   1.778   9.465 -0.0636 -0.4245  0.6119
 9289SOL    HW129874  10.620   1.773   9.560 -0.0467  1.0063  0.7159
 9289SOL    HW229875  10.655   1.868   9.448  2.3872 -1.3588 -0.6434
 9290SOL     OW29876   5.737   1.672   4.042 -0.8136 -0.1394  0.6906
 9290SOL    HW129877   5.707   1.646   3.955  2.3292 -1.9395 -0.0056
 9290SOL    HW229878   5.697   1.758   4.057 -1.8174  0.0074 -2.3163
 9291SOL     OW29879  10.584  11.046   6.212  0.4439 -0.2035  0.6110
 9291SOL    HW129880  10.646  11.117   6.197  1.2046 -0.5288  2.0549
 9291SOL    HW229881  10.598  10.987   6.137  2.0921 -0.3963  1.0248
 9292SOL     OW29882  10.483   8.311   9.691 -0.2620 -0.2036  0.5864
 9292SOL    HW129883  10.412   8.273   9.744 -2.3953  1.8362 -0.6305
 9292SOL    HW229884  10.512   8.387   9.741  0.6791 -0.6626  0.7664
 9293SOL     OW29885   0.299   9.070   1.700  0.0791 -0.0710  0.1418
 9293SOL    HW129886   0.224   9.056   1.642 -1.6561  0.7193  2.0699
 9293SOL    HW229887   0.354   8.993   1.686 -1.3074 -0.9270 -1.0088
 9294SOL     OW29888   1.722   2.079   3.560 -0.0758 -0.1314 -0.3978
 9294SOL    HW129889   1.682   2.119   3.483 -0.0218  0.3383 -0.1806
 9294SOL    HW229890   1.804   2.126   3.573  0.6288 -1.1802 -0.9193
 9295SOL     OW29891   8.733   8.042   8.090 -0.4168 -0.0630  0.1502
 9295SOL    HW129892   8.782   7.963   8.066 -2.3583 -1.2531 -0.1364
 9295SOL    HW229893   8.766   8.110   8.031  1.6111 -0.5059  0.6983
 9296SOL     OW29894   6.434   6.638   8.611  0.3107  0.2854 -0.9605
 9296SOL    HW129895   6.404   6.619   8.700 -2.9080 -1.1435 -2.1803
 9296SOL    HW229896   6.505   6.576   8.596 -0.6384 -1.0717 -0.0995
 9297SOL     OW29897   5.765   0.030   2.563 -0.0252  0.1944  0.3452
 9297SOL    HW129898   5.785  -0.045   2.619 -1.1554  1.1996  2.2087
 9297SOL    HW229899   5.670   0.035   2.563  0.0289  1.5933  0.2461
 9298SOL     OW29900  10.071   0.521   4.947 -0.0055  0.0135  0.9887
 9298SOL    HW129901  10.006   0.470   4.899 -0.5252  2.4148 -1.0953
 9298SOL    HW229902  10.150   0.468   4.944 -0.9254 -1.3994  0.4464
 9299SOL     OW29903   1.625   4.641   9.138  0.3975 -0.0159 -0.6269
 9299SOL    HW129904   1.537   4.620   9.105  0.4005 -1.5776  0.2384
 9299SOL    HW229905   1.684   4.607   9.070  0.3634 -1.4625  0.0338
 9300SOL     OW29906  10.414   6.718   7.002 -1.0652  0.6094  0.0331
 9300SOL    HW129907  10.417   6.647   6.939 -0.0685 -0.7982  1.5670
 9300SOL    HW229908  10.351   6.780   6.966 -3.1439 -1.7374 -0.6482
 9301SOL     OW29909   2.003   3.603   4.367  0.3539  0.1706  0.2745
 9301SOL    HW129910   2.020   3.591   4.460  2.0852 -0.6978 -0.1211
 9301SOL    HW229911   1.975   3.516   4.336 -0.9208  0.6162  0.0915
 9302SOL     OW29912   9.388   6.901   3.138  0.2059 -0.6837  0.5959
 9302SOL    HW129913   9.334   6.974   3.108  0.9692  0.3227  1.5762
 9302SOL    HW229914   9.444   6.881   3.064 -0.8728 -1.1336 -0.1162
 9303SOL     OW29915   4.995   1.973   8.342 -0.2410  0.8169  0.5480
 9303SOL    HW129916   5.027   2.027   8.270  1.7917 -0.4151  0.4381
 9303SOL    HW229917   4.935   1.911   8.301 -0.5712  1.3369  0.2434
 9304SOL     OW29918   9.793   5.001   0.999  0.0787 -0.2116 -0.2529
 9304SOL    HW129919   9.770   4.985   1.090 -0.9432 -1.2956 -0.6799
 9304SOL    HW229920   9.811   4.914   0.962  1.6178  0.2980 -0.8151
 9305SOL     OW29921   8.788   3.931   3.848 -0.8214 -0.0754 -0.5682
 9305SOL    HW129922   8.793   3.979   3.765  2.0584  2.3449  0.8464
 9305SOL    HW229923   8.847   3.856   3.836 -0.4206  0.2609 -0.6931
 9306SOL     OW29924   2.068   2.252   0.241 -0.5836  0.2832 -0.0799
 9306SOL    HW129925   2.017   2.172   0.229 -1.8400  1.1365 -0.6834
 9306SOL    HW229926   2.086   2.283   0.152 -1.3271  1.3946  0.1343
 9307SOL     OW29927   4.464   6.053  10.303  0.3557  0.1364 -0.1223
 9307SOL    HW129928   4.391   6.078  10.246  2.1175  1.6754 -1.8177
 9307SOL    HW229929   4.452   6.106  10.381 -1.4638 -1.1841  0.5874
 9308SOL     OW29930   0.668   9.393   9.288  0.2484 -0.0961 -0.2773
 9308SOL    HW129931   0.753   9.421   9.322 -0.2848  2.3089 -0.7753
 9308SOL    HW229932   0.612   9.387   9.366  0.4370 -0.0457 -0.1389
 9309SOL     OW29933   2.789   5.795   4.596 -0.3762  0.3012 -0.1247
 9309SOL    HW129934   2.797   5.700   4.601 -2.8276 -0.0011 -0.8488
 9309SOL    HW229935   2.879   5.826   4.589  0.4006 -2.1035 -2.1987
 9310SOL     OW29936   4.200   3.458   4.580  0.9202  0.0047 -0.2641
 9310SOL    HW129937   4.259   3.382   4.572  1.1651  0.2205 -0.5177
 9310SOL    HW229938   4.259   3.533   4.584  0.6782  0.1816  0.0197
 9311SOL     OW29939   5.179   5.925   3.081  0.9843  0.0206 -0.4444
 9311SOL    HW129940   5.190   5.872   3.160  1.8590  2.0676  0.8905
 9311SOL    HW229941   5.175   5.861   3.010  0.3703 -1.8910  1.2050
 9312SOL     OW29942  10.955   4.424   7.058 -0.2988 -0.3130  0.2509
 9312SOL    HW129943  10.930   4.353   7.117 -2.6723  1.7609  1.9399
 9312SOL    HW229944  11.037   4.457   7.094 -0.2492 -0.8586  0.6592
 9313SOL     OW29945  10.189   1.261   5.676 -0.4500  0.1903  0.1927
 9313SOL    HW129946  10.148   1.181   5.709  2.5737 -1.0024  1.3550
 9313SOL    HW229947  10.173   1.326   5.744 -0.1397 -0.3406  0.7733
 9314SOL     OW29948   3.228   5.420   9.170 -0.4119  0.1972  0.1287
 9314SOL    HW129949   3.233   5.368   9.250 -0.8180  0.4805  0.3447
 9314SOL    HW229950   3.158   5.380   9.119 -0.1341 -0.0007 -0.0968
 9315SOL     OW29951   7.143   8.559   3.932  0.3411 -0.4678  0.2442
 9315SOL    HW129952   7.147   8.547   3.837 -1.0255  0.8680 -0.0104
 9315SOL    HW229953   7.182   8.479   3.968 -2.2386 -2.6217 -1.3938
 9316SOL     OW29954   8.993   2.419   6.872  0.0265  0.5615 -0.3397
 9316SOL    HW129955   9.025   2.496   6.825 -1.0638  1.8463  0.9232
 9316SOL    HW229956   9.066   2.393   6.928  0.1681  1.1190 -0.2585
 9317SOL     OW29957   7.040   2.900   4.441 -0.5730 -0.2068 -0.1053
 9317SOL    HW129958   7.030   2.806   4.424 -0.5412 -0.4818  1.3077
 9317SOL    HW229959   7.056   2.906   4.535  0.6825  1.1213 -0.3722
 9318SOL     OW29960   1.727   7.042   5.586 -0.0974 -0.0705 -0.5598
 9318SOL    HW129961   1.760   6.975   5.527 -0.6372 -0.0129 -0.9272
 9318SOL    HW229962   1.643   7.068   5.549  0.6599  1.7215 -1.1750
 9319SOL     OW29963   0.606   3.944   3.258  0.5494  0.2720  0.3049
 9319SOL    HW129964   0.605   3.994   3.340 -0.3412 -0.1452  0.5657
 9319SOL    HW229965   0.583   3.854   3.285 -1.4790  0.4762 -0.5867
 9320SOL     OW29966  10.915   4.519   8.561  0.0026  0.0996  0.6305
 9320SOL    HW129967  10.835   4.564   8.586 -0.9955 -1.0601 -0.3206
 9320SOL    HW229968  10.885   4.442   8.512  1.7093 -0.0290 -0.3076
 9321SOL     OW29969   4.245   3.740   0.152 -1.2116 -0.0408  0.4475
 9321SOL    HW129970   4.305   3.669   0.130 -0.0367  0.9252  0.4052
 9321SOL    HW229971   4.170   3.728   0.093 -0.8162 -0.9516  0.1173
 9322SOL     OW29972   9.615   3.451   9.837  0.1416 -0.5180 -0.0093
 9322SOL    HW129973   9.529   3.482   9.864  0.6580  0.2414  0.8468
 9322SOL    HW229974   9.611   3.356   9.846  0.0285 -0.3724  2.0930
 9323SOL     OW29975  10.663   1.794   7.411 -0.8365  0.6163  0.4771
 9323SOL    HW129976  10.692   1.830   7.495 -2.6082  2.3227  0.4390
 9323SOL    HW229977  10.674   1.866   7.349 -0.9353 -0.1425 -0.4439
 9324SOL     OW29978   6.688   0.725   7.441 -0.4589  0.5254  0.5931
 9324SOL    HW129979   6.676   0.655   7.377  1.1134  0.6956  0.0626
 9324SOL    HW229980   6.663   0.805   7.394 -0.0514  0.5645  0.4397
 9325SOL     OW29981   5.873   9.749   2.615  0.4327 -0.0086 -0.6321
 9325SOL    HW129982   5.832   9.711   2.692  0.7365  0.0001 -0.4649
 9325SOL    HW229983   5.866   9.681   2.548  1.1606 -0.4546 -0.2743
 9326SOL     OW29984   5.301   3.705   1.466 -0.2003 -0.5061 -0.3274
 9326SOL    HW129985   5.311   3.735   1.556  1.5590 -0.6778 -0.4174
 9326SOL    HW229986   5.210   3.679   1.459 -0.2127 -1.1596  1.6297
 9327SOL     OW29987   1.719   2.466   4.536  0.0245 -0.1647 -0.0417
 9327SOL    HW129988   1.713   2.373   4.557 -0.1808 -0.5893 -1.8140
 9327SOL    HW229989   1.735   2.508   4.620 -2.0408 -1.5729  1.1573
 9328SOL     OW29990   7.949   7.239   5.297 -0.0917 -0.3419 -0.3601
 9328SOL    HW129991   7.871   7.271   5.252 -0.1966 -0.3876 -0.2121
 9328SOL    HW229992   7.937   7.144   5.301  0.3412 -0.4310 -1.0278
 9329SOL     OW29993   1.360   6.713   4.951 -1.2482  0.1080 -0.0740
 9329SOL    HW129994   1.402   6.635   4.915 -0.7457 -0.1569  1.0191
 9329SOL    HW229995   1.428   6.781   4.946 -0.8075 -0.1960  1.2556
 9330SOL     OW29996   0.768   5.539   8.695 -0.1534 -0.0263  0.3245
 9330SOL    HW129997   0.741   5.476   8.629  0.8041  2.5491 -2.7868
 9330SOL    HW229998   0.838   5.589   8.654  0.6170  1.6847  3.3789
 9331SOL     OW29999   9.828  10.369  10.208  0.7639  0.5290  0.0928
 9331SOL    HW130000   9.834  10.293  10.151  0.0828  0.3183  0.2939
 9331SOL    HW230001   9.752  10.352  10.264 -0.1700  1.8905 -0.6784
 9332SOL     OW30002   9.995   9.567   7.597  0.3032 -0.0667 -0.1499
 9332SOL    HW130003  10.090   9.558   7.602  0.1038 -1.9909  0.8534
 9332SOL    HW230004   9.975   9.561   7.503  1.0905 -0.5044 -0.2930
 9333SOL     OW30005   4.018   0.417   3.654 -0.3493 -0.2166  0.0492
 9333SOL    HW130006   3.951   0.449   3.594 -1.2593 -0.3028  1.0137
 9333SOL    HW230007   3.999   0.324   3.664  1.0289 -0.6764 -1.0902
 9334SOL     OW30008   1.240   0.731   9.894  0.8168 -0.3414  0.1703
 9334SOL    HW130009   1.236   0.783   9.815 -0.1721 -0.1288  0.3484
 9334SOL    HW230010   1.305   0.775   9.949  0.7907  0.0619 -0.1219
 9335SOL     OW30011   3.689   2.916   6.099  0.3706 -0.2541 -0.1132
 9335SOL    HW130012   3.654   2.827   6.092  1.5196 -0.8657  1.4637
 9335SOL    HW230013   3.661   2.946   6.185 -1.2039  1.4991 -1.1526
 9336SOL     OW30014   9.893   2.253   1.413 -0.1435 -0.1754  0.1832
 9336SOL    HW130015   9.868   2.205   1.491  0.9733 -0.1520  0.5827
 9336SOL    HW230016   9.942   2.190   1.360  1.2123  0.4382  0.6479
 9337SOL     OW30017   5.360   8.520   8.247 -0.3713  0.2591  0.0234
 9337SOL    HW130018   5.312   8.576   8.186  2.4000  0.4071 -2.2289
 9337SOL    HW230019   5.409   8.581   8.302  0.1305  0.1211 -0.2557
 9338SOL     OW30020   7.728   6.600   7.332 -0.2065  0.0129  0.2887
 9338SOL    HW130021   7.774   6.608   7.416  0.5424 -1.7946  0.0963
 9338SOL    HW230022   7.637   6.623   7.353  0.0598  0.0646  1.4870
 9339SOL     OW30023   7.515   6.617   1.403  0.7161  0.1319  0.3938
 9339SOL    HW130024   7.477   6.542   1.448 -0.9168 -0.5521 -2.0013
 9339SOL    HW230025   7.461   6.691   1.432  0.7595 -0.0051  0.8438
 9340SOL     OW30026   4.258   5.930   2.609  0.1347  0.3453  0.2473
 9340SOL    HW130027   4.270   5.999   2.674  3.8916 -1.5372  1.8631
 9340SOL    HW230028   4.346   5.912   2.576 -0.7686 -2.9920 -0.7316
 9341SOL     OW30029   0.503   7.489   9.236 -0.0691  0.0578 -0.0839
 9341SOL    HW130030   0.552   7.563   9.271  0.7224 -1.6666  2.7410
 9341SOL    HW230031   0.565   7.446   9.176  0.7005 -0.1749  0.8504
 9342SOL     OW30032   9.533   1.869   8.950  0.5756 -0.5573  0.4866
 9342SOL    HW130033   9.451   1.836   8.987 -1.4601  4.1197  0.9473
 9342SOL    HW230034   9.533   1.837   8.860 -2.7079  0.4759 -0.0286
 9343SOL     OW30035   3.415   9.598   4.973 -0.0032 -0.1167  0.1954
 9343SOL    HW130036   3.426   9.509   5.006  1.4923 -0.3635 -0.8292
 9343SOL    HW230037   3.494   9.644   5.002  0.4846  0.1378 -1.4107
 9344SOL     OW30038   1.349   9.107   2.581 -0.1359 -0.1149  0.3308
 9344SOL    HW130039   1.281   9.089   2.646 -0.9503 -1.1963 -0.7602
 9344SOL    HW230040   1.388   9.022   2.563  1.9921  0.5795  1.3927
 9345SOL     OW30041  10.215   7.563   8.426 -0.3177  0.1744 -0.1883
 9345SOL    HW130042  10.149   7.502   8.393 -1.1401 -0.1027  1.8515
 9345SOL    HW230043  10.290   7.550   8.368 -0.9979 -1.7069 -0.7272
 9346SOL     OW30044   6.008   5.006   6.277  0.0141  0.6162  0.3777
 9346SOL    HW130045   5.987   4.918   6.246  0.3477  0.4206  0.7087
 9346SOL    HW230046   6.094   4.998   6.318  0.4918  1.2950 -0.4556
 9347SOL     OW30047   6.011   8.436   0.578  0.6157  0.2744  0.6680
 9347SOL    HW130048   6.028   8.446   0.672  1.6795 -0.4513  0.5702
 9347SOL    HW230049   5.958   8.356   0.573  2.0194 -0.6835  0.5392
 9348SOL     OW30050   4.380   2.032   4.582 -0.3728 -0.4696  0.1780
 9348SOL    HW130051   4.288   2.044   4.603 -1.0202 -2.3105 -1.3104
 9348SOL    HW230052   4.396   2.093   4.509 -0.3758 -0.0683  0.5117
 9349SOL     OW30053   5.651   4.764   4.267 -0.5318  0.0972 -0.5130
 9349SOL    HW130054   5.663   4.720   4.183 -1.4402  1.2203 -1.2695
 9349SOL    HW230055   5.738   4.801   4.287 -0.3256 -0.1099 -1.0021
 9350SOL     OW30056  10.867   3.319   2.272  0.1395 -0.7585  0.1488
 9350SOL    HW130057  10.781   3.361   2.280  0.5592  0.1475  0.0941
 9350SOL    HW230058  10.849   3.233   2.234 -0.5651  0.2023 -1.8044
 9351SOL     OW30059   7.540   5.359   0.191 -0.5831  0.2330 -0.6968
 9351SOL    HW130060   7.474   5.415   0.232 -0.1644  1.0764 -1.1463
 9351SOL    HW230061   7.575   5.412   0.120  3.6533  1.6082  2.0557
 9352SOL     OW30062  10.128   4.517   1.530 -0.1641 -0.0183  0.0900
 9352SOL    HW130063  10.086   4.596   1.565 -0.3610 -0.4549  0.8705
 9352SOL    HW230064  10.210   4.548   1.492  1.9892  0.1197  4.2252
 9353SOL     OW30065  10.067   9.679   4.676 -0.4263  0.2350 -0.6668
 9353SOL    HW130066  10.049   9.588   4.700 -0.3595  0.6908  1.2873
 9353SOL    HW230067  10.154   9.697   4.711 -0.5769  1.1619 -0.7224
 9354SOL     OW30068   4.103   1.028   9.912  0.0687  0.0976 -0.7371
 9354SOL    HW130069   4.190   1.061   9.888 -0.0769  0.5894 -0.6012
 9354SOL    HW230070   4.100   1.036  10.007  0.0942 -0.4698 -0.6886
 9355SOL     OW30071  10.968   8.580   3.224  0.2814  0.3435 -0.0576
 9355SOL    HW130072  10.973   8.675   3.241 -0.5478  0.4983 -0.6212
 9355SOL    HW230073  10.896   8.571   3.162  0.0763 -0.7131  0.3264
 9356SOL     OW30074   6.526   5.585   4.960  0.4374  0.2254  0.1893
 9356SOL    HW130075   6.460   5.520   4.937 -0.4366  0.6173  1.5095
 9356SOL    HW230076   6.549   5.626   4.876  1.2210 -1.9306 -0.7301
 9357SOL     OW30077   2.073   9.778   6.753  0.5167 -0.0782  0.5062
 9357SOL    HW130078   2.059   9.797   6.846 -1.7034  1.5765 -0.0845
 9357SOL    HW230079   2.022   9.698   6.738 -2.2703  1.6228  0.0610
 9358SOL     OW30080   2.975   1.901  10.390  0.3046 -0.6171  0.3998
 9358SOL    HW130081   2.936   1.819  10.361 -1.4299 -0.7477  2.7867
 9358SOL    HW230082   2.958   1.904  10.484 -1.5545  3.3679  0.1311
 9359SOL     OW30083   6.367   1.859   4.570  0.0876  0.1976  0.9358
 9359SOL    HW130084   6.354   1.816   4.485  1.3056  1.6614 -0.0652
 9359SOL    HW230085   6.336   1.796   4.634  1.9014 -2.2579 -0.4107
 9360SOL     OW30086   3.360  10.097   5.887 -0.0010 -0.4953 -0.1241
 9360SOL    HW130087   3.285  10.095   5.829 -1.2161  2.3467  1.1229
 9360SOL    HW230088   3.385  10.190   5.890  0.4535 -0.6075  3.2273
 9361SOL     OW30089  10.802   2.537   4.584 -0.2068  0.4357 -0.0999
 9361SOL    HW130090  10.754   2.463   4.621  0.1545  0.7408  1.0216
 9361SOL    HW230091  10.812   2.516   4.491 -1.1291 -0.3653 -0.0293
 9362SOL     OW30092   9.321   6.318   1.109 -0.4425 -0.2428 -0.6981
 9362SOL    HW130093   9.287   6.237   1.147  0.5614 -0.6096 -0.5574
 9362SOL    HW230094   9.336   6.298   1.017  0.4751 -0.4475 -0.5146
 9363SOL     OW30095  11.018  10.610  10.727 -0.4038  0.4706 -0.3092
 9363SOL    HW130096  10.929  10.582  10.707 -0.1667 -1.2171  0.7897
 9363SOL    HW230097  11.073  10.562  10.667 -0.0317 -1.1393  1.2303
 9364SOL     OW30098   8.068   9.041   2.520  0.4401  0.3604  0.6050
 9364SOL    HW130099   8.122   9.022   2.443  0.3872 -1.1886  0.9152
 9364SOL    HW230100   8.019   9.119   2.496  0.1969 -0.2590 -1.0664
 9365SOL     OW30101  10.904   0.976   4.576 -0.7161 -0.7532  0.1162
 9365SOL    HW130102  10.810   0.974   4.557 -0.5060 -1.1313 -0.9362
 9365SOL    HW230103  10.938   0.896   4.535  0.0175 -0.7839  0.7692
 9366SOL     OW30104   3.261   5.413   2.768  0.2829 -0.7080  0.1160
 9366SOL    HW130105   3.341   5.465   2.778  0.4611 -0.8706 -0.4152
 9366SOL    HW230106   3.226   5.405   2.857 -1.1018  2.3927 -0.0226
 9367SOL     OW30107   5.823   6.121   7.021  0.4843 -0.4735  0.2322
 9367SOL    HW130108   5.731   6.128   6.994  0.1012  4.7268  1.8707
 9367SOL    HW230109   5.822   6.054   7.090 -2.0541 -0.6139  0.1568
 9368SOL     OW30110   5.952   0.880   8.845 -0.0705 -0.1314 -0.4544
 9368SOL    HW130111   5.942   0.787   8.864 -1.1393 -0.2498 -1.5024
 9368SOL    HW230112   5.873   0.921   8.879  1.1105  0.6874  1.4989
 9369SOL     OW30113   3.483   2.360   6.459  0.6978 -0.2419 -0.1839
 9369SOL    HW130114   3.552   2.372   6.393  0.9041 -0.1796  0.0439
 9369SOL    HW230115   3.447   2.273   6.440  1.1782 -0.4862  0.0097
 9370SOL     OW30116   5.662   6.559  10.861  0.4989  0.0486  0.4927
 9370SOL    HW130117   5.634   6.638  10.816 -2.4847 -0.3379  1.4903
 9370SOL    HW230118   5.705   6.507  10.793 -0.0140  1.3229 -0.8551
 9371SOL     OW30119   4.450   5.295   0.126  0.0999  0.0394 -0.0023
 9371SOL    HW130120   4.500   5.254   0.197 -0.6374  0.6532  0.9011
 9371SOL    HW230121   4.502   5.278   0.047  0.5293 -1.3591  0.5473
 9372SOL     OW30122   8.756   7.331   9.816  0.6345  0.7609  0.0972
 9372SOL    HW130123   8.835   7.283   9.790 -0.0232 -0.3067 -0.0054
 9372SOL    HW230124   8.788   7.414   9.850  1.8362  0.1984  0.3900
 9373SOL     OW30125   3.329  10.001  10.075 -0.5028 -0.1324  0.0830
 9373SOL    HW130126   3.400   9.987  10.012  0.2165  1.9723  0.3692
 9373SOL    HW230127   3.371  10.041  10.151 -1.9170  0.8334  0.4056
 9374SOL     OW30128  10.986   7.946   4.869  0.1573 -0.4633 -0.3087
 9374SOL    HW130129  11.061   7.935   4.810  0.2923 -0.5350 -0.1261
 9374SOL    HW230130  11.013   7.902   4.949 -0.3372 -1.0396 -0.4561
 9375SOL     OW30131   8.317   6.977   9.971 -0.2842  0.1007 -0.1644
 9375SOL    HW130132   8.229   6.993   9.935 -0.1911  1.6275  0.2338
 9375SOL    HW230133   8.376   7.020   9.910  0.4658 -2.7469 -1.6654
 9376SOL     OW30134   2.158   5.202   7.335  0.2288  0.0703 -0.4335
 9376SOL    HW130135   2.249   5.225   7.316 -0.0811 -0.2466 -2.5531
 9376SOL    HW230136   2.132   5.261   7.406  2.4654 -0.7527  1.1600
 9377SOL     OW30137   6.266   9.477   6.601 -0.0410 -0.5968 -0.3215
 9377SOL    HW130138   6.182   9.519   6.618 -0.0774 -1.2029  1.1244
 9377SOL    HW230139   6.323   9.548   6.572 -0.8884 -0.0922 -0.8227
 9378SOL     OW30140   3.538   9.097   4.075  0.2171 -0.6883  0.0370
 9378SOL    HW130141   3.513   9.093   4.167 -1.0050 -2.2726 -0.3214
 9378SOL    HW230142   3.539   9.006   4.046 -0.2198 -0.1863 -1.7233
 9379SOL     OW30143   2.913   8.817   2.726  0.1602 -0.4074  0.1344
 9379SOL    HW130144   3.000   8.821   2.764  0.3286  1.0489 -0.3159
 9379SOL    HW230145   2.866   8.753   2.779  0.0308  2.2610  3.6258
 9380SOL     OW30146   3.392   0.381   7.606  0.1378  0.6823  0.2753
 9380SOL    HW130147   3.441   0.381   7.688 -0.4015 -0.9241  0.6438
 9380SOL    HW230148   3.447   0.430   7.545  2.0505 -0.6997  0.7679
 9381SOL     OW30149   0.984   1.456   7.194  0.3075 -0.4341  0.2606
 9381SOL    HW130150   1.026   1.538   7.220  1.3126 -0.8999  0.1389
 9381SOL    HW230151   0.990   1.401   7.272 -2.3045  0.3039  1.0998
 9382SOL     OW30152   0.371   3.244   8.921  0.6763  0.4274 -0.6887
 9382SOL    HW130153   0.328   3.159   8.927  1.9327 -0.4618 -3.2049
 9382SOL    HW230154   0.372   3.276   9.012 -0.9439 -1.6210  0.1435
 9383SOL     OW30155  11.093   8.085   7.962 -0.2796 -0.4255  0.2248
 9383SOL    HW130156  11.075   8.005   7.913 -1.3754 -0.6960  1.0325
 9383SOL    HW230157  11.036   8.080   8.038  0.6976  0.4371  1.0478
 9384SOL     OW30158   7.414   2.509  10.165 -0.2939  0.3363  0.0607
 9384SOL    HW130159   7.424   2.589  10.217 -0.0045  1.6559 -1.8935
 9384SOL    HW230160   7.410   2.540  10.075  1.4705 -1.9649 -0.9204
 9385SOL     OW30161  10.750  10.459   5.225  0.4749 -0.2670  0.1929
 9385SOL    HW130162  10.744  10.544   5.182  1.2880 -0.6740 -0.7444
 9385SOL    HW230163  10.710  10.397   5.164  0.6961 -0.7008  0.4792
 9386SOL     OW30164   5.601   2.672   5.824  0.3118  0.0002 -0.8044
 9386SOL    HW130165   5.654   2.603   5.782  0.1141  0.3418 -1.6409
 9386SOL    HW230166   5.651   2.697   5.901 -0.0737 -1.7511  0.0560
 9387SOL     OW30167   0.777   3.546   6.139 -0.1236  0.0748  0.1027
 9387SOL    HW130168   0.796   3.456   6.166  0.8918  0.7405  1.7517
 9387SOL    HW230169   0.718   3.536   6.064  0.6353 -1.9659 -0.2960
 9388SOL     OW30170   4.893   1.654   6.174 -0.6076  0.0385 -0.4273
 9388SOL    HW130171   4.909   1.679   6.083 -2.3247 -0.7631 -0.9886
 9388SOL    HW230172   4.800   1.671   6.189 -0.4597 -0.2556  1.0480
 9389SOL     OW30173   4.253  10.487   8.903 -0.1729  0.9255 -0.5238
 9389SOL    HW130174   4.347  10.482   8.917 -0.1258  1.0436 -0.7894
 9389SOL    HW230175   4.235  10.417   8.839 -0.4594  0.0496  0.4839
 9390SOL     OW30176   6.176   5.684   7.544  0.1616  0.2127 -0.4464
 9390SOL    HW130177   6.263   5.703   7.508  0.2263 -0.7237 -0.8056
 9390SOL    HW230178   6.163   5.591   7.527 -0.6988  0.2297  0.0749
 9391SOL     OW30179  10.283   8.488   4.502 -0.3900 -0.5348 -0.4039
 9391SOL    HW130180  10.318   8.543   4.572 -1.9735 -0.1257  0.0866
 9391SOL    HW230181  10.281   8.400   4.539  1.7304 -0.9315 -1.0440
 9392SOL     OW30182   8.360   3.278   6.222  0.2049 -0.1672 -0.0788
 9392SOL    HW130183   8.445   3.250   6.257 -1.8476 -4.1058  2.4611
 9392SOL    HW230184   8.332   3.205   6.167 -2.0234  0.5189  0.0713
 9393SOL     OW30185   9.204   0.228  10.369  0.1845 -0.1105  0.0211
 9393SOL    HW130186   9.259   0.215  10.292 -0.2185  0.3532 -0.3532
 9393SOL    HW230187   9.125   0.177  10.351 -0.3089  0.7450 -0.3046
 9394SOL     OW30188   5.513   7.149   7.396 -0.2966 -0.1699  0.0448
 9394SOL    HW130189   5.448   7.117   7.458 -1.0423  1.3263  0.0657
 9394SOL    HW230190   5.526   7.240   7.419  2.3725 -0.5967  0.4847
 9395SOL     OW30191   9.036   2.821   9.964  0.4297  0.0094 -0.0979
 9395SOL    HW130192   8.949   2.822  10.004  0.3814 -1.5639 -0.1053
 9395SOL    HW230193   9.085   2.887  10.013 -0.5363  0.3522  0.4364
 9396SOL     OW30194   1.308   8.231   6.941 -0.2583 -0.0896  0.4580
 9396SOL    HW130195   1.296   8.325   6.954  1.9904  0.1344  1.4047
 9396SOL    HW230196   1.403   8.219   6.937 -0.5005 -2.1269 -1.3690
 9397SOL     OW30197   5.241   1.942  10.279  0.3399 -0.4156 -0.0544
 9397SOL    HW130198   5.241   1.899  10.193 -0.1481 -1.3534  0.4074
 9397SOL    HW230199   5.181   2.015  10.269 -1.9815 -2.1734  0.2631
 9398SOL     OW30200  10.638   1.297   1.855  0.3879  0.3950 -0.6567
 9398SOL    HW130201  10.718   1.330   1.814  1.0411  0.0051  0.2787
 9398SOL    HW230202  10.661   1.284   1.947 -0.2425 -1.3611 -0.7129
 9399SOL     OW30203   8.995   8.291   8.043  0.1175 -0.0209 -0.1178
 9399SOL    HW130204   9.023   8.210   8.000 -1.8645 -0.1646 -1.2812
 9399SOL    HW230205   9.009   8.358   7.977 -2.1983 -0.1202 -0.8189
 9400SOL     OW30206   7.945  10.990   9.593 -0.4024  0.5865  0.1760
 9400SOL    HW130207   7.996  11.071   9.594 -0.1441  0.4372  1.7705
 9400SOL    HW230208   7.857  11.016   9.621 -0.7907  0.5774 -0.9906
 9401SOL     OW30209   6.990   0.798   8.073 -0.0617 -0.1553  0.4082
 9401SOL    HW130210   6.916   0.799   8.134 -0.7658 -1.5750 -0.3497
 9401SOL    HW230211   7.030   0.884   8.082 -2.2618  0.9574  0.3014
 9402SOL     OW30212  10.686   3.377   6.844 -0.1258 -0.1660 -0.1278
 9402SOL    HW130213  10.601   3.397   6.885  0.8318  1.5132  1.1690
 9402SOL    HW230214  10.745   3.365   6.918  1.1895  0.6521 -1.0155
 9403SOL     OW30215   1.806   9.875   5.846 -0.2106 -0.0624  0.1977
 9403SOL    HW130216   1.892   9.907   5.871  0.5395 -3.0147  1.9710
 9403SOL    HW230217   1.761   9.859   5.930 -1.5700 -0.7922 -0.6278
 9404SOL     OW30218   8.685   8.353   1.737 -0.4586 -0.7874  0.1605
 9404SOL    HW130219   8.735   8.272   1.736 -2.5439 -2.1660  1.2888
 9404SOL    HW230220   8.671   8.373   1.645  2.2036 -0.2367 -0.2227
 9405SOL     OW30221   3.989   7.993   6.673  0.8210 -0.2577 -0.1753
 9405SOL    HW130222   3.950   8.043   6.601  1.7263  1.2006  0.2844
 9405SOL    HW230223   4.023   7.914   6.632  1.6024  0.6920 -1.4457
 9406SOL     OW30224   3.513   9.518   1.151  0.2941  0.2955  0.3485
 9406SOL    HW130225   3.592   9.470   1.126  0.0795  0.4564 -0.6644
 9406SOL    HW230226   3.497   9.491   1.241  2.0110  0.9544  0.8895
 9407SOL     OW30227   2.059  10.361   1.310 -0.4014  0.6635 -0.7101
 9407SOL    HW130228   2.042  10.390   1.220  0.1986  0.7774 -0.7849
 9407SOL    HW230229   1.986  10.397   1.360  1.2438  3.9185 -0.4437
 9408SOL     OW30230  10.356   4.392   0.085 -0.1897 -0.1129  0.2812
 9408SOL    HW130231  10.415   4.360   0.018 -2.3633 -3.8145 -0.1405
 9408SOL    HW230232  10.302   4.458   0.041 -0.3777 -1.1629 -1.0973
 9409SOL     OW30233   8.715   3.855   3.191 -0.1514 -0.3719  0.1697
 9409SOL    HW130234   8.657   3.930   3.203 -0.4370 -0.9362  2.9373
 9409SOL    HW230235   8.669   3.799   3.128 -0.9930  0.7453 -0.2326
 9410SOL     OW30236   2.951   7.625   9.127 -0.4920 -0.1876 -0.2191
 9410SOL    HW130237   2.914   7.613   9.039  1.0869 -0.3184 -0.8905
 9410SOL    HW230238   2.984   7.538   9.151  1.2355  0.3495 -0.5309
 9411SOL     OW30239   1.047  10.730  10.918  0.3193  0.1030 -0.4589
 9411SOL    HW130240   1.046  10.660  10.984 -0.7385  1.6147  1.1975
 9411SOL    HW230241   1.118  10.788  10.946  1.2165 -0.2761 -1.8471
 9412SOL     OW30242  10.891   6.433   8.173  0.1373  0.0203  0.5355
 9412SOL    HW130243  10.811   6.480   8.149 -0.0176  0.3307  1.6199
 9412SOL    HW230244  10.916   6.387   8.093 -1.0627  0.0061  0.1405
 9413SOL     OW30245   1.381  10.982   3.837  0.5167 -0.4151 -0.1684
 9413SOL    HW130246   1.453  10.941   3.885  0.6901 -1.6243 -1.3709
 9413SOL    HW230247   1.358  11.059   3.888  1.0978 -1.2859  1.4940
 9414SOL     OW30248   6.488   4.770   8.972 -0.8568  1.2211 -0.1175
 9414SOL    HW130249   6.468   4.687   8.929 -0.6990  0.3290  1.4457
 9414SOL    HW230250   6.440   4.767   9.055  0.2966  2.0474  0.6207
 9415SOL     OW30251   3.594   5.116   0.082  0.3791 -0.4070 -0.1853
 9415SOL    HW130252   3.681   5.086   0.108  0.0376 -0.1738  1.3425
 9415SOL    HW230253   3.534   5.064   0.135 -0.5072 -1.4808 -2.1512
 9416SOL     OW30254   3.246   8.492   7.431  0.2919  0.3710 -0.1226
 9416SOL    HW130255   3.341   8.491   7.435  0.3146 -1.5115 -0.2068
 9416SOL    HW230256   3.226   8.510   7.339  0.6016 -0.0193 -0.2730
 9417SOL     OW30257   6.497   9.884   2.975 -0.6669 -0.4722 -0.2106
 9417SOL    HW130258   6.450   9.805   3.002 -2.5710  0.0790 -1.7013
 9417SOL    HW230259   6.528   9.865   2.887  0.5860 -0.2455  0.1675
 9418SOL     OW30260   2.710   5.274   3.629 -0.3409 -1.6740  0.6327
 9418SOL    HW130261   2.706   5.267   3.533 -0.2385  1.1109  0.3479
 9418SOL    HW230262   2.715   5.183   3.659  1.5422 -2.6083 -2.0770
 9419SOL     OW30263   3.128   3.706   0.047  0.5427 -0.2566  0.4811
 9419SOL    HW130264   3.080   3.632   0.009  0.3325  0.0858  0.0711
 9419SOL    HW230265   3.174   3.745  -0.027  3.0730 -1.7360  1.1467
 9420SOL     OW30266   3.914   1.301   9.887  0.0908  0.4789  0.6219
 9420SOL    HW130267   3.859   1.361   9.937  0.8329  1.7248 -0.0149
 9420SOL    HW230268   3.973   1.263   9.951  0.2567  1.1720  0.8842
 9421SOL     OW30269   5.655   0.784   3.778  0.3190  0.4924 -0.5654
 9421SOL    HW130270   5.727   0.723   3.764  0.9402  1.1614 -0.3180
 9421SOL    HW230271   5.690   0.869   3.753 -0.8044  0.6414 -1.7159
 9422SOL     OW30272   6.203   3.183   0.494  0.2322  0.4148  0.2082
 9422SOL    HW130273   6.252   3.145   0.567  0.1322  0.5363  0.3391
 9422SOL    HW230274   6.111   3.173   0.519  0.1448 -0.8795 -0.5682
 9423SOL     OW30275   1.946   6.254   5.168 -0.2812  0.2028  0.1230
 9423SOL    HW130276   1.928   6.177   5.222 -1.2964  0.6205  0.4001
 9423SOL    HW230277   2.019   6.298   5.213  1.1338 -1.1998 -0.6884
 9424SOL     OW30278   4.638   9.061   7.922 -0.1215 -0.6993 -0.1932
 9424SOL    HW130279   4.676   9.142   7.890 -1.3932  0.8646  1.9408
 9424SOL    HW230280   4.712   9.000   7.929  1.1752  0.8203 -0.2284
 9425SOL     OW30281   1.305   3.886   3.801 -0.3558  1.1063  0.3353
 9425SOL    HW130282   1.313   3.973   3.841  1.0905  1.6761 -1.0881
 9425SOL    HW230283   1.395   3.861   3.782 -0.7609 -0.7003  0.6376
 9426SOL     OW30284   6.798   1.714  10.866  0.1522  0.2641  0.2629
 9426SOL    HW130285   6.762   1.778  10.804 -0.2186  1.7658  1.9469
 9426SOL    HW230286   6.840   1.767  10.934  3.9393 -1.3572 -0.5493
 9427SOL     OW30287  10.875   1.374   1.807 -0.1932  0.2101  0.1549
 9427SOL    HW130288  10.921   1.297   1.773 -0.6811  0.8444 -2.1890
 9427SOL    HW230289  10.945   1.434   1.832  0.2209 -0.1090 -0.2190
 9428SOL     OW30290   2.615   0.421   0.661  0.5153 -0.4237 -0.7228
 9428SOL    HW130291   2.562   0.432   0.740 -0.1335 -0.5661 -1.1372
 9428SOL    HW230292   2.668   0.343   0.678  1.1811  0.1708  0.0143
 9429SOL     OW30293  10.318   2.687   2.745 -0.3504  0.0284 -0.4107
 9429SOL    HW130294  10.381   2.759   2.748  0.9505 -1.0693  0.3407
 9429SOL    HW230295  10.372   2.610   2.728 -1.0633 -1.3420  2.8311
 9430SOL     OW30296   7.468   5.664   5.846 -0.1131 -0.2185 -0.0292
 9430SOL    HW130297   7.458   5.677   5.752  1.5796  0.9160 -0.0752
 9430SOL    HW230298   7.440   5.746   5.885  2.3014  0.5611  0.2125
 9431SOL     OW30299   0.666   8.602   0.346  0.2744  0.4692 -0.0535
 9431SOL    HW130300   0.748   8.649   0.335  0.4731  0.2239  0.3510
 9431SOL    HW230301   0.607   8.641   0.282 -0.0569  2.3964  1.3085
 9432SOL     OW30302   4.378  10.353   7.955  0.0143 -0.4056  0.1576
 9432SOL    HW130303   4.375  10.446   7.979 -3.7794 -0.6233  1.1958
 9432SOL    HW230304   4.413  10.352   7.866 -0.6697  2.1193 -0.2085
 9433SOL     OW30305   1.869   0.365   9.823 -0.7864  0.0916 -0.0537
 9433SOL    HW130306   1.945   0.319   9.858 -1.9029 -1.7044  0.1448
 9433SOL    HW230307   1.905   0.446   9.787  0.6118  1.5767  4.1042
 9434SOL     OW30308   5.543   1.972   8.189  0.2388  0.4517  0.0521
 9434SOL    HW130309   5.586   2.055   8.164  1.4120 -0.2768 -0.4596
 9434SOL    HW230310   5.463   1.970   8.137  0.7647  0.7562 -0.8007
 9435SOL     OW30311   9.919   7.342   0.275 -0.2604 -0.0529 -0.0110
 9435SOL    HW130312   9.934   7.251   0.251 -1.2332  0.3476 -2.3072
 9435SOL    HW230313   9.986   7.391   0.227  0.0009  0.5179  0.8965
 9436SOL     OW30314   8.128   0.696   4.166  0.1536 -0.1774  0.0742
 9436SOL    HW130315   8.049   0.749   4.181 -0.3073 -0.4865 -1.0718
 9436SOL    HW230316   8.126   0.678   4.072  0.6748 -1.6411  0.3230
 9437SOL     OW30317   9.342   3.301   0.997 -0.0483  0.7183 -0.1602
 9437SOL    HW130318   9.305   3.388   0.981  0.9291  1.2455  0.3375
 9437SOL    HW230319   9.408   3.290   0.929  0.6315  0.8565  0.4713
 9438SOL     OW30320   5.308   1.112   5.818 -0.2568  0.8341 -0.3390
 9438SOL    HW130321   5.314   1.019   5.796  1.5156  0.9940 -0.6640
 9438SOL    HW230322   5.289   1.155   5.734 -1.8767  0.7339 -0.0608
 9439SOL     OW30323   3.851   2.170  10.012 -0.3258 -0.5197  0.0544
 9439SOL    HW130324   3.877   2.262  10.013  1.7096 -1.0182 -0.4321
 9439SOL    HW230325   3.880   2.136  10.097 -2.0467 -0.5106  0.6819
 9440SOL     OW30326   7.898  10.782   4.549  0.1291  0.5086  0.0287
 9440SOL    HW130327   7.971  10.830   4.508  0.1459 -0.0223 -0.5749
 9440SOL    HW230328   7.894  10.817   4.638  0.3683  1.3784 -0.2870
 9441SOL     OW30329   6.621   7.337   0.695  0.4832  0.1293 -0.2444
 9441SOL    HW130330   6.582   7.373   0.774  1.9455  1.7060 -0.1845
 9441SOL    HW230331   6.646   7.247   0.718 -1.3291 -0.2903  0.2609
 9442SOL     OW30332   8.955   0.344   0.017 -0.1838 -0.5324 -0.5579
 9442SOL    HW130333   9.007   0.263   0.021  1.9744  0.8461  0.9059
 9442SOL    HW230334   8.982   0.394   0.093 -2.6285  0.9508 -0.5743
 9443SOL     OW30335   2.524   8.154   7.581  0.6479 -0.2472 -0.4616
 9443SOL    HW130336   2.523   8.136   7.488  2.8055  0.1605 -0.6302
 9443SOL    HW230337   2.507   8.248   7.588 -0.0255 -0.3711 -0.3949
 9444SOL     OW30338   3.055   4.083   1.214 -0.4192 -0.8364  0.1369
 9444SOL    HW130339   3.068   3.991   1.238  0.4373 -0.7345  0.0892
 9444SOL    HW230340   2.960   4.092   1.206 -0.4306 -2.2755 -2.0683
 9445SOL     OW30341   0.518   7.986   8.872  0.0469  0.1401  0.4958
 9445SOL    HW130342   0.450   8.023   8.816 -0.7318 -1.9371 -0.0271
 9445SOL    HW230343   0.473   7.921   8.926  1.2557  0.2498  1.7059
 9446SOL     OW30344   3.089   0.260   7.891  0.3171  0.0730  0.1487
 9446SOL    HW130345   3.039   0.228   7.966 -0.2497  0.2261 -0.1627
 9446SOL    HW230346   3.068   0.353   7.886 -0.7039 -0.2019 -1.0061
 9447SOL     OW30347   7.152   6.321   1.501 -0.4491 -0.2714  0.1174
 9447SOL    HW130348   7.226   6.371   1.465 -2.1744 -0.1156 -3.7240
 9447SOL    HW230349   7.105   6.383   1.556  0.9755  0.2933  0.7464
 9448SOL     OW30350   5.619   8.259   0.372  0.3541 -0.8392  0.1154
 9448SOL    HW130351   5.673   8.237   0.448 -1.7953  1.0585  2.3624
 9448SOL    HW230352   5.645   8.348   0.348  0.3426 -1.0616 -0.7878
 9449SOL     OW30353   9.825  10.242   9.322  0.4964 -0.6888 -0.2147
 9449SOL    HW130354   9.840  10.288   9.404  0.2675 -0.9911 -0.0001
 9449SOL    HW230355   9.857  10.302   9.254 -2.5533  1.1260 -0.1967
 9450SOL     OW30356   5.515   1.614   8.775  0.3665  0.5489  0.3812
 9450SOL    HW130357   5.500   1.521   8.791  0.3014  0.7232  1.3814
 9450SOL    HW230358   5.608   1.627   8.794  0.0646  0.9589  1.7003
 9451SOL     OW30359   4.888   0.651   6.200 -0.2954  0.1417  0.1855
 9451SOL    HW130360   4.793   0.658   6.190 -0.1651  1.1843 -0.5113
 9451SOL    HW230361   4.901   0.630   6.292 -1.1480  1.7991  0.7294
 9452SOL     OW30362   9.976   7.130   7.097  0.4718 -0.0626 -0.7262
 9452SOL    HW130363   9.895   7.155   7.142  0.4723  1.9755 -1.7146
 9452SOL    HW230364   9.946   7.086   7.017  0.3701 -0.2713 -0.5730
 9453SOL     OW30365   5.624  11.070   8.123 -0.1371  0.0310 -0.3203
 9453SOL    HW130366   5.680  11.127   8.175 -0.9051 -0.5114  1.1809
 9453SOL    HW230367   5.583  11.012   8.188 -1.7811 -0.1323 -1.4425
 9454SOL     OW30368   7.391   1.525   9.738 -0.0003  0.1658 -0.1373
 9454SOL    HW130369   7.355   1.455   9.792 -1.5480 -1.2688 -2.7912
 9454SOL    HW230370   7.337   1.601   9.758 -0.6295 -0.3728  0.2492
 9455SOL     OW30371   5.879   9.675   2.108 -0.0585 -0.5860 -0.2162
 9455SOL    HW130372   5.793   9.699   2.142  0.4485  1.4202 -0.2656
 9455SOL    HW230373   5.860   9.613   2.037 -1.4346 -0.3096 -0.1203
 9456SOL     OW30374   0.448   2.859   4.522  0.0830  0.1362 -0.5433
 9456SOL    HW130375   0.401   2.940   4.543 -1.0457 -1.1585  2.4370
 9456SOL    HW230376   0.389   2.812   4.463 -1.1074 -0.1698  0.8269
 9457SOL     OW30377  10.056   6.416   6.375 -0.0010 -0.9424  0.0837
 9457SOL    HW130378   9.971   6.374   6.390  0.6823 -2.2128  0.5297
 9457SOL    HW230379  10.034   6.501   6.338 -1.4396 -1.7170 -0.9563
 9458SOL     OW30380   9.376   1.356   9.167  0.0164  0.4597 -0.2748
 9458SOL    HW130381   9.355   1.291   9.099  2.0330 -0.6433  0.0601
 9458SOL    HW230382   9.330   1.325   9.245 -0.1376  0.1999 -0.4684
 9459SOL     OW30383   2.637   1.207   7.284 -0.8481 -0.0971 -0.2012
 9459SOL    HW130384   2.679   1.126   7.254 -0.6213 -0.0941  0.1073
 9459SOL    HW230385   2.546   1.197   7.256 -0.5568  0.1043 -1.2864
 9460SOL     OW30386   7.128   6.369   3.447  0.3618 -0.3164 -0.0441
 9460SOL    HW130387   7.140   6.300   3.512  0.5193 -1.0964 -0.8757
 9460SOL    HW230388   7.162   6.331   3.365 -2.9174 -0.6732 -1.3808
 9461SOL     OW30389  10.465   9.253   3.289 -0.2688  0.1622 -0.0548
 9461SOL    HW130390  10.404   9.179   3.285  2.9727 -2.8276  1.2218
 9461SOL    HW230391  10.414   9.323   3.329 -3.3886 -1.4530 -0.8587
 9462SOL     OW30392   6.867   5.957   9.680 -0.2031  0.4385 -0.7720
 9462SOL    HW130393   6.847   6.044   9.644 -1.0507  0.3787 -0.4821
 9462SOL    HW230394   6.789   5.905   9.660 -0.1838  0.0724  0.0636
 9463SOL     OW30395   3.938   1.991   8.999  0.3136 -0.0817 -0.7109
 9463SOL    HW130396   3.991   1.924   8.956 -0.9464 -1.0515 -0.8044
 9463SOL    HW230397   4.000   2.060   9.022  1.2371  0.0179 -3.1482
 9464SOL     OW30398   0.967   5.098  10.930  0.0776 -0.8403  0.2594
 9464SOL    HW130399   1.028   5.073  11.000  0.6984  1.1294  0.4775
 9464SOL    HW230400   1.016   5.084  10.849  0.9095  0.7779  0.4348
 9465SOL     OW30401   2.689   3.508   1.388  0.4369  0.4741  0.4287
 9465SOL    HW130402   2.703   3.599   1.413  1.0139  0.2052  1.1086
 9465SOL    HW230403   2.764   3.486   1.334  0.1574  0.4822  0.0359
 9466SOL     OW30404   3.098   5.790   7.864 -0.0629  0.1275  0.1654
 9466SOL    HW130405   3.143   5.812   7.782  1.1335  2.2007  1.3028
 9466SOL    HW230406   3.095   5.694   7.864  0.4886  0.0466 -1.9723
 9467SOL     OW30407   6.111   6.478   5.712  0.0252 -0.3571 -0.5077
 9467SOL    HW130408   6.098   6.548   5.648  0.9126 -0.8204 -1.2217
 9467SOL    HW230409   6.201   6.491   5.743 -0.0016 -0.8452 -0.2264
 9468SOL     OW30410   5.142   1.085   2.290  0.0661 -0.2415  0.7231
 9468SOL    HW130411   5.189   1.120   2.214 -1.0679 -0.5158 -0.1262
 9468SOL    HW230412   5.148   1.154   2.356  0.3596  0.3403  0.1042
 9469SOL     OW30413   5.889   6.503   9.727  0.5555 -0.1160  0.1789
 9469SOL    HW130414   5.908   6.413   9.698  2.5656 -0.4284  2.1969
 9469SOL    HW230415   5.836   6.540   9.656 -0.7711 -3.0138 -0.5233
 9470SOL     OW30416   8.302   4.211   8.695 -0.8598 -0.8267 -0.6827
 9470SOL    HW130417   8.242   4.245   8.762 -1.9009 -1.8004 -1.0860
 9470SOL    HW230418   8.387   4.248   8.718 -0.6652 -2.9626  2.5855
 9471SOL     OW30419   2.512   6.633   2.848  0.0233 -0.1328  0.1644
 9471SOL    HW130420   2.437   6.679   2.886  0.6634  2.1802 -1.1777
 9471SOL    HW230421   2.587   6.659   2.902  0.6859  1.9540 -1.6602
 9472SOL     OW30422   9.477   0.157   2.989  0.1342  0.1524  0.7530
 9472SOL    HW130423   9.537   0.130   3.058  0.0659 -0.4920  0.5643
 9472SOL    HW230424   9.411   0.088   2.986 -0.3706  0.6313  0.6567
 9473SOL     OW30425   8.992   8.959  10.478 -0.3152  0.6514  0.5775
 9473SOL    HW130426   9.015   8.870  10.504 -1.1768  0.6972  1.5648
 9473SOL    HW230427   9.070   8.991  10.432  0.1247 -0.4912  0.4851
 9474SOL     OW30428   5.348   7.310   1.668 -0.4605 -0.2673  0.3840
 9474SOL    HW130429   5.300   7.380   1.623 -0.1205  0.0520  0.5072
 9474SOL    HW230430   5.325   7.230   1.621  0.0826  0.0872 -0.5076
 9475SOL     OW30431   4.703   9.022   3.156  0.2965  0.1772 -0.1990
 9475SOL    HW130432   4.657   9.029   3.072 -0.1471  2.1963  0.1559
 9475SOL    HW230433   4.640   8.978   3.214  0.6038 -1.2172 -0.8964
 9476SOL     OW30434   2.327   5.513  10.607  0.0883  0.1965 -0.8199
 9476SOL    HW130435   2.269   5.489  10.535  0.6657 -2.7333 -0.4567
 9476SOL    HW230436   2.396   5.447  10.604  0.2931  0.1433  2.1987
 9477SOL     OW30437   5.074   7.849   4.562  0.1517 -0.1799 -0.2801
 9477SOL    HW130438   4.994   7.811   4.600  0.1993  0.1056  0.1048
 9477SOL    HW230439   5.132   7.863   4.637  1.0944 -1.6379 -0.6962
 9478SOL     OW30440  10.394   5.060   7.937  0.0526 -0.3728  0.4596
 9478SOL    HW130441  10.307   5.094   7.958  0.3370 -0.2122  1.4148
 9478SOL    HW230442  10.440   5.135   7.899 -0.3970 -0.6108 -0.6027
 9479SOL     OW30443   9.878   9.484   2.547  0.3524 -0.5282  0.2590
 9479SOL    HW130444   9.974   9.481   2.538  0.6187  1.5126  1.7573
 9479SOL    HW230445   9.851   9.558   2.493 -0.4350 -1.2572 -0.3680
 9480SOL     OW30446   5.933   1.289   6.598 -0.1264 -0.4898  0.1838
 9480SOL    HW130447   5.868   1.357   6.614 -0.0781 -0.6762  1.3144
 9480SOL    HW230448   5.966   1.305   6.510  0.1467  1.1703  0.5629
 9481SOL     OW30449   8.196   1.472   1.130  0.1661 -0.2021 -0.6976
 9481SOL    HW130450   8.211   1.492   1.037  1.0888  1.0664 -0.3053
 9481SOL    HW230451   8.142   1.393   1.129 -0.7592  0.3988 -2.3263
 9482SOL     OW30452   4.387  10.653   9.150  0.1917 -0.2494  0.1250
 9482SOL    HW130453   4.302  10.623   9.184 -0.6585  1.2979 -0.5125
 9482SOL    HW230454   4.428  10.574   9.115 -1.1763 -0.9673  0.0744
 9483SOL     OW30455   0.567   1.165  10.196  0.2848  0.6963  0.5802
 9483SOL    HW130456   0.624   1.207  10.131  1.4194 -1.6742 -0.0451
 9483SOL    HW230457   0.597   1.075  10.200 -1.3112  0.1804  2.7107
 9484SOL     OW30458   1.048   3.670   1.729 -0.5449 -0.0006 -0.5159
 9484SOL    HW130459   0.956   3.643   1.720 -0.5953  0.7082 -2.7811
 9484SOL    HW230460   1.094   3.590   1.755 -1.5683 -0.7822 -1.0112
 9485SOL     OW30461   2.639   9.742   1.009  0.3238  0.5485  0.8013
 9485SOL    HW130462   2.656   9.817   0.952 -2.6805 -1.6914 -3.6393
 9485SOL    HW230463   2.550   9.756   1.041 -0.2414 -1.0365 -0.0145
 9486SOL     OW30464   5.396   2.234   4.331  0.1973  0.2216  0.1784
 9486SOL    HW130465   5.364   2.315   4.370  2.1506  0.4636  1.4215
 9486SOL    HW230466   5.489   2.232   4.353 -0.1159 -3.2653  1.7973
 9487SOL     OW30467   1.846   5.060   5.964  0.2386  0.7377  0.2605
 9487SOL    HW130468   1.911   4.996   5.936 -0.6567 -0.5055  0.9278
 9487SOL    HW230469   1.855   5.063   6.059 -0.4106  0.8427  0.3206
 9488SOL     OW30470   1.655  10.155   6.662 -0.2959 -0.4184 -0.0890
 9488SOL    HW130471   1.692  10.197   6.739 -1.9063 -0.1835  0.5984
 9488SOL    HW230472   1.727  10.103   6.625  1.7355  2.7302 -0.8908
 9489SOL     OW30473   1.315   7.765   8.229  0.3014 -0.3891 -0.1646
 9489SOL    HW130474   1.251   7.700   8.200  0.1755 -0.3053 -0.0772
 9489SOL    HW230475   1.354   7.727   8.307  3.3792 -2.3834 -2.4316
 9490SOL     OW30476   5.853   1.742   9.898  0.2651 -0.6742  0.4414
 9490SOL    HW130477   5.932   1.717   9.852 -0.0278  0.0640 -0.4947
 9490SOL    HW230478   5.883   1.804   9.965  0.2443  1.9367 -1.7599
 9491SOL     OW30479   8.953   8.419   6.802 -1.1592 -0.0277  0.2035
 9491SOL    HW130480   8.880   8.457   6.850 -0.4741 -0.3456  1.5453
 9491SOL    HW230481   9.021   8.486   6.803 -0.6045 -0.5833  0.9937
 9492SOL     OW30482   0.983   5.860  10.647  0.6841 -0.5559 -0.4125
 9492SOL    HW130483   0.935   5.789  10.690 -1.3438  0.3783 -1.0254
 9492SOL    HW230484   1.013   5.822  10.564 -0.6252 -0.6695 -0.8645
 9493SOL     OW30485   7.391   7.526   4.448 -0.7997  0.2224 -0.1245
 9493SOL    HW130486   7.383   7.566   4.361  1.2382 -0.1184 -0.5214
 9493SOL    HW230487   7.302   7.524   4.482 -1.7006  0.1219 -2.3221
 9494SOL     OW30488   9.400  10.905   5.696  0.3664  0.2469 -0.8440
 9494SOL    HW130489   9.417  10.826   5.748  0.9865 -1.4207 -3.3758
 9494SOL    HW230490   9.311  10.893   5.663 -0.7856  2.2427  1.2489
 9495SOL     OW30491   1.025   3.688   6.542  0.7120 -0.9174  0.0330
 9495SOL    HW130492   1.020   3.764   6.484  2.1159 -0.5519  0.3468
 9495SOL    HW230493   1.118   3.666   6.545  1.2539  0.8817  4.3609
 9496SOL     OW30494   8.616   8.396   9.907 -0.1801 -0.0424 -0.2343
 9496SOL    HW130495   8.550   8.440   9.854  0.8325  0.2904 -1.2589
 9496SOL    HW230496   8.699   8.425   9.870  0.5344 -0.8148  0.7299
 9497SOL     OW30497   3.699   5.385   2.744  0.3279  0.4801 -0.4724
 9497SOL    HW130498   3.677   5.373   2.837 -0.7556  0.5809 -0.7126
 9497SOL    HW230499   3.654   5.313   2.699  1.4956 -0.0428 -0.8462
 9498SOL     OW30500   0.514   1.429  10.570  0.4885 -0.4805 -0.1208
 9498SOL    HW130501   0.550   1.467  10.650  0.6643 -1.2844  0.1928
 9498SOL    HW230502   0.527   1.496  10.503 -1.2939  0.9509  0.8740
 9499SOL     OW30503   0.877   9.031   2.452 -0.5070 -0.6677  0.0567
 9499SOL    HW130504   0.863   9.100   2.518 -2.6296 -0.2899 -0.7051
 9499SOL    HW230505   0.961   8.992   2.476  1.1866  2.6646  0.0986
 9500SOL     OW30506   7.692   9.618   0.342 -0.2142 -0.3242  0.0587
 9500SOL    HW130507   7.749   9.626   0.265 -1.7382  0.9815 -1.0056
 9500SOL    HW230508   7.739   9.664   0.412  1.5011 -2.1067  0.1539
 9501SOL     OW30509   5.885   7.725  10.730 -0.4818 -0.5365 -0.6536
 9501SOL    HW130510   5.889   7.641  10.684 -1.6395 -0.2677 -1.2942
 9501SOL    HW230511   5.958   7.776  10.695 -0.0697 -1.1024 -0.6216
 9502SOL     OW30512   4.357  10.509   3.327  0.6697 -0.3475  0.4822
 9502SOL    HW130513   4.284  10.510   3.265  1.2423  2.3707 -0.2937
 9502SOL    HW230514   4.323  10.464   3.404 -1.6095  0.2033 -0.1274
 9503SOL     OW30515   6.595   1.589   6.365 -0.0968  0.8226 -0.2261
 9503SOL    HW130516   6.606   1.561   6.456 -0.7716  0.6351 -0.1937
 9503SOL    HW230517   6.679   1.570   6.323 -0.5433 -1.3485 -0.2265
 9504SOL     OW30518  10.501   0.858   5.127  0.7409 -0.3180 -0.1892
 9504SOL    HW130519  10.512   0.951   5.105 -0.5546 -0.1903 -0.4281
 9504SOL    HW230520  10.481   0.817   5.043 -1.3001 -0.3402  0.2505
 9505SOL     OW30521   7.362  10.531   1.774 -0.3082  0.1923  0.6072
 9505SOL    HW130522   7.437  10.589   1.789  0.0928 -0.2033  0.1557
 9505SOL    HW230523   7.301  10.553   1.844  0.2975  0.4075  1.0803
 9506SOL     OW30524   8.297   2.592   2.104  0.1658 -0.3298 -0.1412
 9506SOL    HW130525   8.240   2.649   2.155  0.3369  1.4764 -1.8392
 9506SOL    HW230526   8.266   2.601   2.014  0.7096 -2.3521 -0.5806
 9507SOL     OW30527   4.429   7.078  10.203 -0.2043  0.4623 -0.2298
 9507SOL    HW130528   4.491   7.005  10.190 -0.5757  0.3566 -1.5191
 9507SOL    HW230529   4.423   7.087  10.298  1.6932  0.3922 -0.0538
 9508SOL     OW30530   3.146   8.213   8.617  0.1820  0.4943  0.3078
 9508SOL    HW130531   3.195   8.133   8.594  0.6689  0.9007 -0.1024
 9508SOL    HW230532   3.055   8.190   8.601  0.2317 -0.2597  1.0189
 9509SOL     OW30533   2.727  10.575  10.248  0.4361 -0.5581  0.2644
 9509SOL    HW130534   2.684  10.660  10.255 -1.0625 -1.1953 -0.7032
 9509SOL    HW230535   2.661  10.518  10.207  2.1118 -1.6496 -1.0672
 9510SOL     OW30536   9.931   1.130   6.211  0.4568 -0.0124  0.2642
 9510SOL    HW130537   9.971   1.100   6.129  0.5493 -3.3163  1.3583
 9510SOL    HW230538   9.837   1.114   6.199  0.5525 -1.2269  1.0353
 9511SOL     OW30539   2.111   5.674   0.421  0.5184 -0.2175 -0.7356
 9511SOL    HW130540   2.116   5.747   0.481  0.4955 -2.0173  1.6080
 9511SOL    HW230541   2.201   5.641   0.415  0.4176 -0.4222 -1.1904
 9512SOL     OW30542   8.493   6.869   5.544 -0.5080  0.3191  0.0857
 9512SOL    HW130543   8.561   6.936   5.546 -1.6310  1.5017  0.1652
 9512SOL    HW230544   8.471   6.860   5.451 -0.8650  0.6095  0.1386
 9513SOL     OW30545   1.743   6.155   4.367 -0.3082 -0.2287  0.2075
 9513SOL    HW130546   1.715   6.171   4.457  0.2691 -1.0324  0.5525
 9513SOL    HW230547   1.724   6.236   4.320  2.0065  1.3250  1.7058
 9514SOL     OW30548   3.011   0.856   3.801  0.1491  0.1665 -0.3681
 9514SOL    HW130549   2.972   0.860   3.713 -0.1534 -0.6315 -0.2771
 9514SOL    HW230550   2.939   0.830   3.858  0.4180  0.3790  0.0725
 9515SOL     OW30551   2.141   4.254   8.719  0.3036  0.2050 -0.9447
 9515SOL    HW130552   2.115   4.194   8.650  0.3914  0.6260 -1.3491
 9515SOL    HW230553   2.174   4.331   8.673 -2.9432  2.0119 -0.5462
 9516SOL     OW30554   4.860   3.230   5.339 -0.4436 -0.0731  1.1199
 9516SOL    HW130555   4.880   3.220   5.246 -3.2374  0.8465  0.3098
 9516SOL    HW230556   4.871   3.142   5.375 -0.2070 -0.6494 -0.2897
 9517SOL     OW30557   0.630   6.369   1.961  0.1399 -0.8158  0.1077
 9517SOL    HW130558   0.557   6.390   2.020 -1.0560 -1.4487 -1.0846
 9517SOL    HW230559   0.607   6.413   1.879  1.3816 -0.5995 -0.1367
 9518SOL     OW30560   5.363   4.222   8.431 -0.2772 -0.5315 -0.9938
 9518SOL    HW130561   5.405   4.138   8.410  1.7557 -0.4006  1.9740
 9518SOL    HW230562   5.315   4.205   8.512 -0.8339  0.9053 -0.9965
 9519SOL     OW30563   5.840   3.111   8.813  0.2834 -0.6766 -0.3528
 9519SOL    HW130564   5.842   3.033   8.868  1.4684 -0.2627  0.2137
 9519SOL    HW230565   5.885   3.178   8.864 -0.1392  0.2052 -1.1039
 9520SOL     OW30566   1.266   0.912   7.099 -0.5994 -0.1989 -0.1450
 9520SOL    HW130567   1.224   0.998   7.097 -1.7800 -0.7642 -0.6547
 9520SOL    HW230568   1.197   0.852   7.125  0.1217 -1.0505 -0.1293
 9521SOL     OW30569   1.113   9.920   5.544 -0.7968  0.8285 -0.2471
 9521SOL    HW130570   1.096   9.895   5.635 -0.4303 -0.2040 -0.4482
 9521SOL    HW230571   1.079   9.848   5.492  2.2662 -0.4052 -0.7596
 9522SOL     OW30572  10.998  10.183   5.209  0.5918  0.1173 -0.4766
 9522SOL    HW130573  11.062  10.134   5.261  0.1517  0.2831  0.2335
 9522SOL    HW230574  10.963  10.247   5.270 -1.6924 -1.2514 -0.2468
 9523SOL     OW30575   3.772   1.594   6.551 -0.6037 -0.1615  0.1091
 9523SOL    HW130576   3.838   1.663   6.554  0.7383 -1.3551 -0.6988
 9523SOL    HW230577   3.695   1.632   6.593 -0.7183  2.6734 -2.3704
 9524SOL     OW30578   7.600   4.001   6.218 -0.3973 -0.4072  0.2262
 9524SOL    HW130579   7.620   4.094   6.231 -1.3091 -0.0625 -0.6962
 9524SOL    HW230580   7.675   3.955   6.256  0.0611  0.6981  0.7153
 9525SOL     OW30581   5.739   3.635   1.755 -0.5045  0.1202 -0.3322
 9525SOL    HW130582   5.757   3.559   1.810  0.9225 -1.4939 -2.8535
 9525SOL    HW230583   5.670   3.606   1.696  0.1603  0.7088 -1.4208
 9526SOL     OW30584   0.139   0.055   7.583  0.4818 -0.0316  0.0393
 9526SOL    HW130585   0.127   0.128   7.643  1.4139  0.1761 -0.0177
 9526SOL    HW230586   0.051   0.038   7.548  0.5158  2.3421 -1.4239
 9527SOL     OW30587  10.754  10.148   2.011  0.2302 -0.2440  0.0418
 9527SOL    HW130588  10.806  10.069   1.996 -0.4303 -0.5134 -0.8842
 9527SOL    HW230589  10.752  10.157   2.107  0.7056 -1.0789  0.1417
 9528SOL     OW30590   9.620   5.635   2.798 -0.6430 -0.3764  0.3026
 9528SOL    HW130591   9.628   5.544   2.769  0.7831 -0.1580 -0.0629
 9528SOL    HW230592   9.682   5.642   2.871  1.4270  0.9715 -1.4443
 9529SOL     OW30593   4.031   3.291   9.568 -0.5230  0.0796  0.0794
 9529SOL    HW130594   4.085   3.357   9.612 -0.3011  0.5494 -0.8724
 9529SOL    HW230595   3.966   3.266   9.634 -1.3745  2.1160  0.0884
 9530SOL     OW30596  10.092   8.387  10.218 -0.0698  0.1370  0.3187
 9530SOL    HW130597  10.146   8.465  10.227  0.0488  0.5553 -2.8813
 9530SOL    HW230598  10.153   8.319  10.188 -0.5621 -0.6231  0.9940
 9531SOL     OW30599   8.765   5.574   0.303 -0.2549  0.7399  0.0202
 9531SOL    HW130600   8.788   5.487   0.336 -2.0921  0.2228  0.0076
 9531SOL    HW230601   8.686   5.560   0.251  0.5665  2.1027 -1.7128
 9532SOL     OW30602   5.864   7.534   0.389 -0.4222 -0.5970  0.6625
 9532SOL    HW130603   5.858   7.487   0.472 -0.8223  0.2383  1.1150
 9532SOL    HW230604   5.942   7.589   0.398 -1.1843  0.4591  1.0004
 9533SOL     OW30605   1.230   6.246   2.462 -0.2656  0.1193 -0.2225
 9533SOL    HW130606   1.139   6.237   2.491  0.5728  0.8210  3.0735
 9533SOL    HW230607   1.264   6.156   2.464 -0.3166  0.1135  0.7805
 9534SOL     OW30608   4.702   1.521  10.180 -0.5404 -0.1419  0.3752
 9534SOL    HW130609   4.723   1.613  10.196 -2.2011  0.5602 -1.1491
 9534SOL    HW230610   4.779   1.486  10.135 -1.6808  1.9672 -3.7645
 9535SOL     OW30611   2.235   1.916   8.905 -0.4016  0.6211  0.7559
 9535SOL    HW130612   2.317   1.953   8.937  0.6907 -3.0850  2.7955
 9535SOL    HW230613   2.253   1.890   8.815  0.7404 -0.2306  1.2121
 9536SOL     OW30614   6.556   7.310   3.100  0.1396  0.7734  0.1453
 9536SOL    HW130615   6.486   7.247   3.079 -1.1007  1.7682  1.1927
 9536SOL    HW230616   6.632   7.255   3.120 -0.6484 -0.3705  0.0872
 9537SOL     OW30617   1.309   0.704  10.808  0.0761 -0.0528 -0.6710
 9537SOL    HW130618   1.319   0.765  10.882 -0.8391 -0.7231  0.0251
 9537SOL    HW230619   1.398   0.691  10.776  0.2655  1.9111 -1.0664
 9538SOL     OW30620   8.880   6.928   6.282  0.0113  0.7846 -0.4503
 9538SOL    HW130621   8.840   6.863   6.340  1.4113  0.7394  0.5121
 9538SOL    HW230622   8.829   7.007   6.297 -2.2181 -0.2033 -2.2082
 9539SOL     OW30623   6.140   5.661   6.559  0.0066  0.1866 -0.4646
 9539SOL    HW130624   6.093   5.738   6.526 -1.0565 -0.3570 -0.2400
 9539SOL    HW230625   6.165   5.612   6.480 -0.3255  0.1690 -0.5567
 9540SOL     OW30626   1.518   3.062   2.730 -0.1181 -0.2179 -0.3974
 9540SOL    HW130627   1.474   3.144   2.709 -0.7796 -0.5873 -0.5081
 9540SOL    HW230628   1.474   2.997   2.676  2.2141 -0.2583 -2.3904
 9541SOL     OW30629   8.067   8.808   2.661  0.5648  0.1216 -0.1632
 9541SOL    HW130630   8.152   8.776   2.632  1.4240  2.0718  0.0951
 9541SOL    HW230631   8.057   8.894   2.619 -1.5658 -0.3096 -0.6817
 9542SOL     OW30632   6.611  11.048   6.098 -0.3754  0.2490  0.5727
 9542SOL    HW130633   6.562  10.970   6.072 -0.3301  0.1742  0.7103
 9542SOL    HW230634   6.701  11.031   6.071 -0.3185  0.1494  0.8139
 9543SOL     OW30635   2.808   1.971   4.910 -0.2397  0.4960 -0.1805
 9543SOL    HW130636   2.776   2.055   4.943 -1.4388 -0.7631  2.1826
 9543SOL    HW230637   2.902   1.984   4.898 -0.5575  2.4315 -0.8443
 9544SOL     OW30638   2.111   6.359  10.477 -0.6556 -0.2262 -0.5178
 9544SOL    HW130639   2.133   6.439  10.524 -2.1304  0.3061 -0.6705
 9544SOL    HW230640   2.161   6.291  10.521  0.5620  0.7612 -0.3283
 9545SOL     OW30641   0.358   1.394   3.814  0.4641 -0.3378 -0.0087
 9545SOL    HW130642   0.370   1.418   3.906 -2.1498  1.3338  0.0110
 9545SOL    HW230643   0.439   1.419   3.771  1.6667 -0.9652  1.7929
 9546SOL     OW30644   7.603  10.758   2.028 -0.0937 -0.2648 -0.2559
 9546SOL    HW130645   7.590  10.799   1.942  1.5157  1.5341  0.2879
 9546SOL    HW230646   7.680  10.703   2.018  0.3259  0.2483  0.1211
 9547SOL     OW30647   6.887   6.532   0.738  0.6026  0.2743  0.4532
 9547SOL    HW130648   6.832   6.609   0.723  1.1269  0.6109  0.2407
 9547SOL    HW230649   6.843   6.485   0.810  0.2775  0.7674  0.5813
 9548SOL     OW30650   3.558   4.842   6.607 -0.1779 -0.4476 -0.1049
 9548SOL    HW130651   3.622   4.909   6.628 -1.0451  0.7510 -1.1392
 9548SOL    HW230652   3.475   4.889   6.600 -1.1643 -1.9183  0.9744
 9549SOL     OW30653   6.175   2.780   5.775 -0.1458 -0.8888 -0.2132
 9549SOL    HW130654   6.156   2.813   5.863 -1.1765 -0.8646 -0.4406
 9549SOL    HW230655   6.207   2.857   5.727 -0.2126 -0.7596 -0.0511
 9550SOL     OW30656   5.084   6.447   3.195  0.3627 -0.3165  0.2011
 9550SOL    HW130657   5.007   6.415   3.148 -0.0335  0.4150  0.3176
 9550SOL    HW230658   5.047   6.491   3.272  0.7416  1.8263 -0.7727
 9551SOL     OW30659   5.911   3.078   5.810 -0.0768 -0.1650 -0.7860
 9551SOL    HW130660   5.951   3.042   5.731  1.7746 -0.6960  0.3482
 9551SOL    HW230661   5.914   3.006   5.874  0.0500  0.7810  0.3043
 9552SOL     OW30662  10.040   3.212   3.009 -0.2626  0.5896  0.5742
 9552SOL    HW130663  10.121   3.221   2.958 -1.5327  0.6943 -1.5232
 9552SOL    HW230664  10.044   3.123   3.045  2.8013  1.9204  4.3633
 9553SOL     OW30665   6.010   1.496   8.781  0.4886 -0.3160  0.9491
 9553SOL    HW130666   6.103   1.508   8.765  0.8494 -1.1673  2.2556
 9553SOL    HW230667   6.001   1.499   8.876 -1.2833  2.8755  0.8309
 9554SOL     OW30668   2.784   4.258   5.954 -0.1073 -0.0060 -0.0140
 9554SOL    HW130669   2.749   4.311   6.026  0.5910  0.6362 -0.1330
 9554SOL    HW230670   2.762   4.168   5.978  1.0600  0.0901  1.5741
 9555SOL     OW30671   0.039   6.414   0.963 -1.1804 -0.1619  0.1941
 9555SOL    HW130672   0.121   6.391   1.007 -0.1207  0.1775 -1.5275
 9555SOL    HW230673   0.053   6.391   0.871 -3.6259 -1.6332  0.0975
 9556SOL     OW30674   0.904   1.430   6.581 -0.1202 -0.0791 -0.3067
 9556SOL    HW130675   0.948   1.430   6.665  2.0354  0.7058 -1.3734
 9556SOL    HW230676   0.908   1.339   6.552  1.0705  0.0185 -0.4950
 9557SOL     OW30677   7.723   8.063   5.107  0.2612  0.1416  0.0613
 9557SOL    HW130678   7.711   7.968   5.100  0.3740  0.1906 -0.8367
 9557SOL    HW230679   7.637   8.100   5.089  0.1515  0.2076  0.6884
 9558SOL     OW30680   5.900   4.982  10.059 -0.1282 -0.4175 -0.0928
 9558SOL    HW130681   5.852   5.041  10.001 -1.4970 -1.4437 -0.0387
 9558SOL    HW230682   5.955   4.930  10.001  0.2933  0.1672 -0.2316
 9559SOL     OW30683   6.595   7.279   2.574  0.1923 -0.0011  0.0047
 9559SOL    HW130684   6.614   7.211   2.511 -0.5878  0.5305 -0.8300
 9559SOL    HW230685   6.608   7.361   2.526  0.7088  0.4401  0.8666
 9560SOL     OW30686   6.448   4.083   9.013 -0.6572  0.0118 -0.2257
 9560SOL    HW130687   6.371   4.074   9.068 -0.0259 -0.7396  0.5729
 9560SOL    HW230688   6.421   4.050   8.927 -1.3092  0.0822 -0.0518
 9561SOL     OW30689   6.628   6.192   9.221  0.0594 -0.3918 -0.1732
 9561SOL    HW130690   6.665   6.267   9.173  0.5185 -0.1644  0.5182
 9561SOL    HW230691   6.665   6.115   9.177  2.2644 -0.1676  1.1164
 9562SOL     OW30692   9.263   9.383   8.156  0.6016  0.2807  0.2830
 9562SOL    HW130693   9.325   9.313   8.142  1.0982  0.6598  0.5735
 9562SOL    HW230694   9.275   9.442   8.081  3.3356  2.3662  2.1727
 9563SOL     OW30695   4.131   9.325   8.123 -0.3119 -0.1639 -0.6818
 9563SOL    HW130696   4.162   9.415   8.112 -0.3779 -0.3107 -2.1725
 9563SOL    HW230697   4.177   9.293   8.201 -0.2508  1.1376 -0.1661
 9564SOL     OW30698   5.837   1.275   8.153 -0.1370  0.0463 -0.2356
 9564SOL    HW130699   5.747   1.272   8.119  0.2823 -0.3787 -1.3439
 9564SOL    HW230700   5.854   1.185   8.182 -0.7023  0.5235  1.7645
 9565SOL     OW30701  10.462   3.085   7.455 -0.1266 -0.1682  0.9019
 9565SOL    HW130702  10.451   2.996   7.488  0.5572 -1.4195 -1.9883
 9565SOL    HW230703  10.374   3.121   7.454 -0.5690 -1.2009  1.1295
 9566SOL     OW30704   0.112   9.598   4.707 -0.2001  0.1753 -0.3194
 9566SOL    HW130705   0.205   9.618   4.706 -0.7292  3.0279 -0.6044
 9566SOL    HW230706   0.108   9.502   4.712  2.7267 -0.2053 -2.3897
 9567SOL     OW30707   8.184   3.176   4.075  0.3492  0.2544 -0.2485
 9567SOL    HW130708   8.169   3.113   4.005  0.0643 -2.3971  2.0346
 9567SOL    HW230709   8.276   3.165   4.098  0.0092 -0.2124  0.9451
 9568SOL     OW30710   5.900   5.744   8.625  0.5665  0.1884  0.3405
 9568SOL    HW130711   5.831   5.678   8.636  0.9993 -0.2471  0.4654
 9568SOL    HW230712   5.852   5.826   8.608  0.0255 -0.1721  0.0923
 9569SOL     OW30713   9.413   4.927   0.541 -0.3156  0.1627  0.0211
 9569SOL    HW130714   9.492   4.949   0.589 -0.7669  0.8003  0.4976
 9569SOL    HW230715   9.372   4.857   0.592 -0.5877  0.5596  0.3544
 9570SOL     OW30716   4.915   1.500   0.379 -0.0766 -0.3355 -0.5393
 9570SOL    HW130717   4.850   1.437   0.348 -1.6340  0.9964 -0.0924
 9570SOL    HW230718   4.941   1.467   0.466 -0.8282 -0.3934 -0.3337
 9571SOL     OW30719   9.220   1.845   5.353  0.1587  0.0112  0.2018
 9571SOL    HW130720   9.310   1.832   5.321  0.0551 -1.5262  0.4423
 9571SOL    HW230721   9.220   1.934   5.389  1.0905  0.6946 -1.3740
 9572SOL     OW30722   4.648   2.711   4.436 -0.1797  0.0087 -0.4018
 9572SOL    HW130723   4.711   2.690   4.367  0.5069  2.8703 -0.7754
 9572SOL    HW230724   4.701   2.750   4.505 -1.2822  0.5092  0.1828
 9573SOL     OW30725   9.135   0.981  10.979  0.3667 -0.0951  0.2871
 9573SOL    HW130726   9.219   0.973  11.025  0.3163 -1.8456  0.1510
 9573SOL    HW230727   9.100   0.892  10.978 -1.9619  0.7335  1.1512
 9574SOL     OW30728   9.416   1.135   6.322 -0.2274 -0.3152  0.0089
 9574SOL    HW130729   9.354   1.101   6.386 -0.3615  0.8680  0.5370
 9574SOL    HW230730   9.363   1.155   6.245 -0.0801 -1.6560 -0.4687
 9575SOL     OW30731   1.956   8.071   3.219 -0.5549 -0.3945 -0.0131
 9575SOL    HW130732   1.896   8.062   3.293 -2.0983 -1.6709 -1.3369
 9575SOL    HW230733   1.950   7.987   3.173  1.6422 -0.2597 -0.6737
 9576SOL     OW30734   3.177   0.734   4.465 -0.7083  0.7106  0.1451
 9576SOL    HW130735   3.228   0.792   4.521 -0.7813  0.4436  0.4860
 9576SOL    HW230736   3.092   0.779   4.455 -0.0756  1.6781 -1.2816
 9577SOL     OW30737   3.342   5.809   4.307 -0.3718  0.0545 -0.1812
 9577SOL    HW130738   3.378   5.720   4.304  0.9258  0.5873 -1.4070
 9577SOL    HW230739   3.323   5.831   4.216 -0.8101  0.9812  0.1193
 9578SOL     OW30740   3.320   3.162   2.258  0.3275 -0.0938  0.0896
 9578SOL    HW130741   3.247   3.223   2.261  0.3998 -0.0421  1.2978
 9578SOL    HW230742   3.347   3.152   2.349  0.0365 -2.2676 -0.0059
 9579SOL     OW30743   6.301   2.067   2.725 -0.1721 -1.0998 -0.4267
 9579SOL    HW130744   6.347   2.026   2.652 -0.4292 -0.7386 -0.7956
 9579SOL    HW230745   6.339   2.027   2.803  1.4599 -0.1225 -0.6788
 9580SOL     OW30746   5.445   0.498  10.462 -0.0533 -0.3035  0.7877
 9580SOL    HW130747   5.390   0.527  10.534  0.7407  1.3346  0.7877
 9580SOL    HW230748   5.511   0.442  10.503 -0.4743 -0.5852  1.0913
 9581SOL     OW30749   7.561   4.662   7.218 -0.6544  0.3351 -0.2909
 9581SOL    HW130750   7.508   4.718   7.275  1.9537  1.6093  1.0248
 9581SOL    HW230751   7.507   4.653   7.139 -2.2951  2.5953  0.4403
 9582SOL     OW30752   0.074   7.391   8.775 -0.1056  0.3568  0.3313
 9582SOL    HW130753   0.027   7.307   8.778 -0.1627  0.3714 -0.0995
 9582SOL    HW230754   0.006   7.456   8.760 -0.1580  0.5727  1.4547
 9583SOL     OW30755   9.166   0.691   3.775  0.1427 -0.4431 -0.7575
 9583SOL    HW130756   9.080   0.681   3.735  0.0285  0.4169 -0.7438
 9583SOL    HW230757   9.149   0.730   3.860  0.6543  1.5943 -1.5331
 9584SOL     OW30758   3.449   5.607   2.750 -0.3397 -0.3379  0.0542
 9584SOL    HW130759   3.539   5.634   2.765 -1.3087  3.6351 -0.3132
 9584SOL    HW230760   3.439   5.606   2.655 -0.6613 -1.0438  0.0829
 9585SOL     OW30761   5.266   3.080   8.415 -0.0305  0.4646  0.0325
 9585SOL    HW130762   5.301   3.065   8.327 -1.0958 -0.6061 -0.2340
 9585SOL    HW230763   5.232   2.995   8.442 -0.9295  1.0885  0.9318
 9586SOL     OW30764   4.080  10.878   0.059  0.1973 -1.0544  0.9784
 9586SOL    HW130765   4.143  10.807   0.046  0.6197 -1.0260  2.7421
 9586SOL    HW230766   4.131  10.958   0.050  0.0701 -0.9933  0.7777
 9587SOL     OW30767  10.603   7.630   6.579 -0.2671 -0.4683  0.3152
 9587SOL    HW130768  10.609   7.720   6.547  2.0349 -0.1696  1.3590
 9587SOL    HW230769  10.605   7.639   6.675  2.9341 -1.6601  0.4557
 9588SOL     OW30770   0.679   7.804   2.488 -0.4108  0.3061 -0.2244
 9588SOL    HW130771   0.692   7.806   2.583 -2.5298 -0.3722  0.1241
 9588SOL    HW230772   0.661   7.713   2.468  2.8915 -0.1583 -1.8057
 9589SOL     OW30773   8.214   0.151   0.084 -0.9823 -0.0898 -1.2022
 9589SOL    HW130774   8.252   0.124   0.167 -0.6712  1.2548 -0.8747
 9589SOL    HW230775   8.264   0.105   0.018  0.6025  0.8793 -0.7331
 9590SOL     OW30776   3.128   0.833   8.746 -0.3417 -0.2444  0.0180
 9590SOL    HW130777   3.139   0.744   8.778  2.7729 -0.2086 -0.7016
 9590SOL    HW230778   3.104   0.883   8.825 -0.7167 -1.4545  0.7027
 9591SOL     OW30779   9.112  10.052   9.532  0.2327  0.1228 -0.6059
 9591SOL    HW130780   9.140  10.122   9.473 -1.6991  1.2266 -0.3341
 9591SOL    HW230781   9.111  10.093   9.619  2.9405 -1.4440  0.2658
 9592SOL     OW30782   2.082   7.203   3.034  0.0541  0.5300 -0.2976
 9592SOL    HW130783   2.133   7.181   2.956 -0.5987  0.6274 -0.7554
 9592SOL    HW230784   2.002   7.244   3.000  0.2755  1.6326  0.4496
 9593SOL     OW30785   0.624   8.931   7.143 -0.1394  0.0975 -0.1097
 9593SOL    HW130786   0.688   8.860   7.139 -0.3855 -0.1219 -0.2652
 9593SOL    HW230787   0.568   8.916   7.067 -1.9417 -1.2405  1.3730
 9594SOL     OW30788   8.248   8.744   0.022  0.0849  0.4047  0.3097
 9594SOL    HW130789   8.330   8.710  -0.012  0.1547  2.6189 -2.0774
 9594SOL    HW230790   8.202   8.777  -0.056 -3.3307 -1.1706  1.4471
 9595SOL     OW30791   7.829   1.861   6.814  0.1322  0.0089  0.3183
 9595SOL    HW130792   7.794   1.817   6.736  0.7000  2.0148 -1.1621
 9595SOL    HW230793   7.751   1.889   6.862 -0.2282 -1.6049  0.7371
 9596SOL     OW30794   7.408   5.696   4.088 -0.2037  0.1820 -0.0109
 9596SOL    HW130795   7.468   5.670   4.019  0.0720  3.6802 -1.3022
 9596SOL    HW230796   7.458   5.687   4.169  0.8359 -0.2735 -0.6889
 9597SOL     OW30797   7.099   3.849   7.583 -0.0863  0.6364  0.0283
 9597SOL    HW130798   7.042   3.778   7.555  1.5806 -0.6166 -0.3611
 9597SOL    HW230799   7.188   3.816   7.568  0.8004  1.9325  1.9353
 9598SOL     OW30800   9.901   3.978   0.528 -0.4506  0.0008  0.3418
 9598SOL    HW130801   9.928   3.893   0.493 -0.6700  0.1626 -0.2288
 9598SOL    HW230802   9.924   3.974   0.621  1.1695 -0.0229 -0.0351
 9599SOL     OW30803  10.039  10.119   6.236 -0.4898  0.7536 -0.0720
 9599SOL    HW130804  10.043  10.190   6.300 -2.5363  1.5716 -0.7650
 9599SOL    HW230805  10.027  10.040   6.287 -1.4559  1.3172  0.5908
 9600SOL     OW30806   6.198   3.149   5.311  0.9730  0.0860  0.0191
 9600SOL    HW130807   6.205   3.186   5.399 -0.6391  0.3190  0.0737
 9600SOL    HW230808   6.173   3.058   5.325  2.8900 -0.5124 -0.1743
 9601SOL     OW30809   7.133  10.844   8.236 -0.0957 -0.0659 -0.4196
 9601SOL    HW130810   7.109  10.848   8.143  1.7969  1.4220 -0.9014
 9601SOL    HW230811   7.211  10.789   8.239  1.3343  1.8677 -0.1282
 9602SOL     OW30812   2.788   4.876   8.398 -0.8104  0.1797  0.3649
 9602SOL    HW130813   2.883   4.863   8.394 -0.9392 -0.4668 -1.1098
 9602SOL    HW230814   2.777   4.968   8.422  0.2017  0.6699 -0.9654
 9603SOL     OW30815   0.704   5.900   8.863  0.1802  0.7593  0.3620
 9603SOL    HW130816   0.630   5.840   8.854  1.1593 -0.4239 -0.0746
 9603SOL    HW230817   0.764   5.855   8.923  0.8737  1.3691  0.1423
 9604SOL     OW30818   3.013   6.028   3.437 -0.4346  0.1152 -0.1364
 9604SOL    HW130819   2.971   6.098   3.487  1.6479  0.6904  0.9295
 9604SOL    HW230820   3.087   6.070   3.393 -0.1326 -1.1007 -0.8345
 9605SOL     OW30821   6.901   7.070   3.943 -0.0916  0.6587 -0.4488
 9605SOL    HW130822   6.981   7.042   3.899 -2.1687 -2.1907 -2.8554
 9605SOL    HW230823   6.890   7.008   4.015  0.4016  1.8109  0.6629
 9606SOL     OW30824   2.924   8.783   4.744  0.0916 -0.3811 -0.0271
 9606SOL    HW130825   2.899   8.711   4.801 -1.0300 -0.2474 -0.3206
 9606SOL    HW230826   2.845   8.836   4.737  0.9766  1.0482  0.4170
 9607SOL     OW30827   3.590   4.467   6.328 -0.5093 -0.3277  0.9884
 9607SOL    HW130828   3.571   4.447   6.237  0.9703 -0.5297  0.6950
 9607SOL    HW230829   3.528   4.536   6.351 -2.0558 -1.4548  0.3789
 9608SOL     OW30830   9.876   3.461   9.887 -0.0512 -0.2029  0.1012
 9608SOL    HW130831   9.900   3.390   9.946 -0.2699 -1.7961 -1.6267
 9608SOL    HW230832   9.781   3.456   9.880 -0.1032  0.5119  0.2649
 9609SOL     OW30833   6.270   0.842   7.959  0.6581 -0.1285 -0.3325
 9609SOL    HW130834   6.318   0.837   8.042 -0.0776  0.3361  0.1293
 9609SOL    HW230835   6.261   0.751   7.931 -0.2522 -0.3964  0.7881
 9610SOL     OW30836   2.602   3.394   9.410 -0.6250  0.4997  0.1108
 9610SOL    HW130837   2.506   3.388   9.409 -0.8411  2.9883 -1.4952
 9610SOL    HW230838   2.621   3.485   9.387  2.1387  0.3066  1.2761
 9611SOL     OW30839   3.902   4.853   9.663  0.2173  0.8258 -0.0479
 9611SOL    HW130840   3.825   4.891   9.706  0.2646  2.0826 -1.0092
 9611SOL    HW230841   3.957   4.929   9.640  0.6194  0.1503 -1.4686
 9612SOL     OW30842   4.261   9.887   7.978  0.6193  0.3172  0.3660
 9612SOL    HW130843   4.208   9.940   8.038 -0.2541  1.4752 -1.3072
 9612SOL    HW230844   4.350   9.918   7.990  0.2341  1.6402  0.0132
 9613SOL     OW30845   5.033   1.563   3.882 -0.6219 -0.3435 -0.0472
 9613SOL    HW130846   5.116   1.551   3.928 -0.9736  0.9352  0.9800
 9613SOL    HW230847   4.972   1.504   3.926 -0.5696 -0.3277  0.0463
 9614SOL     OW30848   0.738   8.661   0.833 -0.4149 -0.1605  0.0910
 9614SOL    HW130849   0.678   8.726   0.870  1.7229  2.4107 -0.6212
 9614SOL    HW230850   0.697   8.635   0.750 -1.2129  0.4982  0.2713
 9615SOL     OW30851   7.510   4.491   2.260  0.7629  0.2276  0.0100
 9615SOL    HW130852   7.525   4.543   2.339 -1.3509  1.7434 -0.5005
 9615SOL    HW230853   7.448   4.423   2.287  1.7281 -0.6404  0.1217
 9616SOL     OW30854   4.135   9.598   9.977 -0.2551 -1.0053  0.0083
 9616SOL    HW130855   4.221   9.635  10.000  0.3256 -1.3245 -1.5339
 9616SOL    HW230856   4.127   9.521  10.034 -0.0092 -0.3865  0.9109
 9617SOL     OW30857   1.635   1.250   9.263  0.0921  0.1552  0.3061
 9617SOL    HW130858   1.704   1.316   9.267 -0.2505  0.4590  1.9138
 9617SOL    HW230859   1.680   1.167   9.282  0.0743  0.3277  1.1608
 9618SOL     OW30860   6.667   4.437   0.311 -0.2146  0.6963  0.4202
 9618SOL    HW130861   6.699   4.456   0.400 -1.5928 -1.1804  1.3886
 9618SOL    HW230862   6.744   4.402   0.266  0.2041  0.4745  1.2734
 9619SOL     OW30863  10.907   5.032   7.245 -0.4082  0.7866  0.4116
 9619SOL    HW130864  10.918   4.941   7.273  2.8844  0.7587 -0.4862
 9619SOL    HW230865  10.923   5.029   7.150 -2.7179  2.0214 -0.0679
 9620SOL     OW30866  10.640   5.156   4.357 -0.2991 -0.7681 -0.2896
 9620SOL    HW130867  10.726   5.170   4.317  0.1829 -0.3249  0.8548
 9620SOL    HW230868  10.591   5.235   4.337  0.3345 -0.0367  0.9412
 9621SOL     OW30869   1.782   5.950   1.299 -0.0312 -0.0789 -0.8267
 9621SOL    HW130870   1.781   5.921   1.208 -1.0273  1.3319 -1.2916
 9621SOL    HW230871   1.857   6.009   1.305 -1.7664  2.3438 -1.6135
 9622SOL     OW30872   0.093   8.707   5.195  0.4079  0.2981 -0.3743
 9622SOL    HW130873   0.058   8.775   5.253 -1.2294  0.3832 -1.3995
 9622SOL    HW230874   0.171   8.676   5.240 -0.3287  0.9372  1.4633
 9623SOL     OW30875   0.585   1.038   3.820 -0.0965  0.4415  0.6045
 9623SOL    HW130876   0.502   1.059   3.777 -0.0182  0.4623  0.4637
 9623SOL    HW230877   0.639   1.116   3.808  0.8201 -0.4406 -1.4269
 9624SOL     OW30878   5.113   2.418   0.783  0.6091  0.3306 -0.3851
 9624SOL    HW130879   5.204   2.401   0.805  0.4990 -1.6624 -1.2341
 9624SOL    HW230880   5.067   2.337   0.804 -0.8928  1.1051 -0.4839
 9625SOL     OW30881   1.920   6.407   7.136  0.0598 -0.7043  0.4708
 9625SOL    HW130882   1.892   6.317   7.120  1.2574 -0.6955 -2.4027
 9625SOL    HW230883   1.846   6.460   7.106 -1.2169 -0.6350  3.4600
 9626SOL     OW30884   1.165  10.318   4.986 -0.7437  0.0137  0.4255
 9626SOL    HW130885   1.216  10.287   4.911  1.1356 -0.0307  1.6782
 9626SOL    HW230886   1.152  10.411   4.970  2.5333  0.7675  1.5536
 9627SOL     OW30887   5.672   9.534   2.239 -0.8506 -0.2839  0.1110
 9627SOL    HW130888   5.716   9.478   2.174 -1.6400  1.1650 -1.7927
 9627SOL    HW230889   5.598   9.482   2.269 -0.6032 -0.9093 -0.3184
 9628SOL     OW30890   3.251   0.668   6.002 -0.5629  0.1428  0.4587
 9628SOL    HW130891   3.313   0.596   5.992  0.0496  0.8318 -0.8403
 9628SOL    HW230892   3.197   0.642   6.077  0.4790 -1.0480  0.8364
 9629SOL     OW30893   6.042  10.840   6.559 -0.2742  0.3124  0.4619
 9629SOL    HW130894   5.971  10.783   6.529  0.4878 -0.5196  0.2002
 9629SOL    HW230895   6.043  10.912   6.497 -2.2169  1.4390  1.6341
 9630SOL     OW30896   2.298   5.216   2.444 -0.7096 -0.1721  0.4440
 9630SOL    HW130897   2.265   5.173   2.523  1.1059 -2.7477 -0.0505
 9630SOL    HW230898   2.391   5.232   2.463 -0.1913 -1.0169 -1.1656
 9631SOL     OW30899   1.151   4.613   4.583  0.2914  0.0546 -0.2184
 9631SOL    HW130900   1.097   4.537   4.608  0.6600 -0.1042  0.0970
 9631SOL    HW230901   1.214   4.622   4.654  0.0912  0.8225 -0.1305
 9632SOL     OW30902  10.969   5.425   5.507  0.6464  0.4226  0.2810
 9632SOL    HW130903  11.032   5.495   5.525 -0.7733  1.6098  0.8765
 9632SOL    HW230904  10.943   5.394   5.593 -0.0225  0.3704  0.0625
 9633SOL     OW30905   5.106   4.233   6.730  0.3266  0.6491 -0.2529
 9633SOL    HW130906   5.032   4.269   6.779 -0.7727 -1.2714 -0.3847
 9633SOL    HW230907   5.172   4.214   6.796  0.5471  1.9364 -0.0750
 9634SOL     OW30908   6.252   6.702  11.013  0.5379  0.1581 -0.5425
 9634SOL    HW130909   6.310   6.631  10.985  1.6335  0.0234  1.8452
 9634SOL    HW230910   6.165   6.660  11.018  0.2971  0.1501 -3.2978
 9635SOL     OW30911   7.171   0.014   4.490  0.5948 -0.3840 -0.1195
 9635SOL    HW130912   7.134   0.046   4.408 -1.8468  2.1079  1.7685
 9635SOL    HW230913   7.125  -0.069   4.506 -0.1172 -0.0735 -0.5011
 9636SOL     OW30914   1.244   7.529   6.503 -0.1093 -0.1544  0.0046
 9636SOL    HW130915   1.302   7.509   6.576  0.7334 -0.3240 -0.6913
 9636SOL    HW230916   1.178   7.588   6.540  1.6100  1.6399  0.4224
 9637SOL     OW30917   2.716   0.128  10.538  0.3521  0.0274 -0.0330
 9637SOL    HW130918   2.760   0.066  10.595  1.0614  0.4808 -0.0729
 9637SOL    HW230919   2.632   0.146  10.581 -0.7427 -2.4039 -0.9702
 9638SOL     OW30920   9.678   5.843   6.986 -0.3704  0.3434  0.4855
 9638SOL    HW130921   9.698   5.933   6.960 -1.4209  0.4316 -0.0405
 9638SOL    HW230922   9.711   5.789   6.914  2.3016  0.0776  1.7713
 9639SOL     OW30923   2.203   0.801   3.799 -1.2599 -0.2194  0.0708
 9639SOL    HW130924   2.184   0.786   3.706 -1.6240  0.0145  0.1075
 9639SOL    HW230925   2.133   0.860   3.829  0.3950  1.9953 -0.1898
 9640SOL     OW30926   9.717   8.007   9.356  0.2031 -0.4483 -0.2803
 9640SOL    HW130927   9.699   8.075   9.290 -2.5875 -0.0548  0.7516
 9640SOL    HW230928   9.745   8.056   9.434 -0.9275 -0.5202  0.1868
 9641SOL     OW30929   7.001   6.784   4.034 -0.1655  0.4083  0.4507
 9641SOL    HW130930   7.045   6.704   4.004 -0.1018  0.7554 -0.4322
 9641SOL    HW230931   7.055   6.816   4.105  1.0742  0.8577 -0.6562
 9642SOL     OW30932   2.704   5.865   1.703 -0.6115 -0.4531  0.1169
 9642SOL    HW130933   2.751   5.899   1.627 -0.5387 -1.6416 -0.3874
 9642SOL    HW230934   2.629   5.925   1.713  0.7211  1.1981  0.6662
 9643SOL     OW30935   2.251   1.383   9.424  0.0003  0.8100  0.0317
 9643SOL    HW130936   2.180   1.348   9.476 -0.1164 -0.7238 -1.0760
 9643SOL    HW230937   2.209   1.417   9.345  0.4427  0.4375 -0.3685
 9644SOL     OW30938   2.830  10.291   6.307 -0.4702  0.4083 -0.2675
 9644SOL    HW130939   2.780  10.211   6.318  1.3256 -0.4830  2.4885
 9644SOL    HW230940   2.823  10.337   6.391  0.3870  2.0236 -1.0111
 9645SOL     OW30941  11.082   7.490   7.061 -0.2549  0.0521 -0.0674
 9645SOL    HW130942  11.117   7.501   6.973  0.7011  0.4931  0.3533
 9645SOL    HW230943  11.112   7.568   7.109 -1.8447  0.4799  0.3180
 9646SOL     OW30944   9.969   2.094   5.568 -0.3041 -0.3051  0.0237
 9646SOL    HW130945   9.979   1.999   5.556 -0.6502 -0.1649 -1.5458
 9646SOL    HW230946   9.934   2.103   5.656 -0.3737 -1.6501  0.1556
 9647SOL     OW30947   8.711   8.134   9.572 -0.3128  0.4583  0.0396
 9647SOL    HW130948   8.746   8.045   9.573  0.1401  0.6343  1.0941
 9647SOL    HW230949   8.621   8.125   9.604 -0.4019  0.3300 -0.2444
 9648SOL     OW30950   0.429   1.646  10.918 -0.0008  0.5122 -0.0953
 9648SOL    HW130951   0.503   1.631  10.860  0.3296 -1.0436  0.6803
 9648SOL    HW230952   0.465   1.699  10.989  0.2840  0.0595  0.0992
 9649SOL     OW30953   9.718   4.858   9.504  0.6110 -0.0616 -0.7270
 9649SOL    HW130954   9.773   4.779   9.510  1.7189  0.7675  2.2157
 9649SOL    HW230955   9.629   4.826   9.518  1.0921 -0.8113  0.8664
 9650SOL     OW30956   7.788   4.339   6.641  0.4087  0.4245  0.0928
 9650SOL    HW130957   7.817   4.328   6.550 -2.1651  1.7233 -1.0046
 9650SOL    HW230958   7.726   4.267   6.654  0.2486  0.6495  0.5769
 9651SOL     OW30959   4.449   3.872   7.784 -0.0235  0.0879  1.0227
 9651SOL    HW130960   4.447   3.786   7.826 -0.0599  0.9202  2.8097
 9651SOL    HW230961   4.372   3.873   7.727  0.9228 -1.6741 -0.3751
 9652SOL     OW30962   4.339   6.134   6.151  0.6730  0.1568 -0.5851
 9652SOL    HW130963   4.336   6.048   6.109  0.8905 -0.2057  0.1294
 9652SOL    HW230964   4.353   6.195   6.079  1.5112 -0.4978 -0.9899
 9653SOL     OW30965   2.057   5.852  10.579  0.3374  0.0564 -0.0290
 9653SOL    HW130966   2.001   5.841  10.502  0.5887  0.2282 -0.2415
 9653SOL    HW230967   2.027   5.785  10.641  1.1873 -1.2131 -0.9142
 9654SOL     OW30968   9.259   2.546  10.135  0.1586 -0.8508 -1.1004
 9654SOL    HW130969   9.180   2.522  10.086  0.2473 -2.4549 -0.5066
 9654SOL    HW230970   9.260   2.487  10.210  0.7392  0.6699  0.1445
 9655SOL     OW30971   1.079   1.051   7.589  0.7919 -0.5742 -0.0136
 9655SOL    HW130972   1.138   1.002   7.645  0.4932  0.7365  1.5308
 9655SOL    HW230973   1.119   1.047   7.502  3.0207  0.0157  0.9129
 9656SOL     OW30974  10.924   4.615   8.877 -0.5507  0.0175 -0.0444
 9656SOL    HW130975  10.975   4.534   8.884 -2.3154 -1.2077 -0.6719
 9656SOL    HW230976  10.986   4.679   8.841  1.0780 -0.8256  1.1300
 9657SOL     OW30977   9.110   6.255   3.697 -0.1555 -0.0900 -0.5757
 9657SOL    HW130978   9.094   6.164   3.722  1.1072  0.3841  2.3066
 9657SOL    HW230979   9.176   6.286   3.759 -1.4756  3.1919 -0.6138
 9658SOL     OW30980   0.166   4.981  10.998 -0.1634 -0.2561 -0.1201
 9658SOL    HW130981   0.131   4.902  11.038  1.1227 -1.9364 -2.1212
 9658SOL    HW230982   0.250   4.995  11.040 -0.2845 -0.0724  0.0645
 9659SOL     OW30983   9.484   0.240   6.604  0.3767  0.1838  0.1928
 9659SOL    HW130984   9.549   0.213   6.668 -0.9965  0.2636  1.6735
 9659SOL    HW230985   9.526   0.313   6.557  0.7575  1.3548  2.2414
 9660SOL     OW30986   9.699   5.757   6.711 -0.0528  0.0452 -0.5267
 9660SOL    HW130987   9.659   5.724   6.631 -1.3764 -1.7567  0.8046
 9660SOL    HW230988   9.793   5.753   6.695 -0.2910 -0.9479 -1.7347
 9661SOL     OW30989   4.458   2.299   8.834 -0.6886  0.1139  0.4498
 9661SOL    HW130990   4.363   2.291   8.824 -0.6520  1.5520 -2.1733
 9661SOL    HW230991   4.480   2.377   8.783  1.8804  0.0239  1.3005
 9662SOL     OW30992  10.143   6.574   5.018  0.4197 -0.0733  0.5656
 9662SOL    HW130993  10.234   6.599   5.035  0.9715 -0.9819 -0.8832
 9662SOL    HW230994  10.103   6.567   5.105  1.9058 -0.2872  1.2596
 9663SOL     OW30995   0.768   0.119   6.873 -0.5372 -0.8459  0.5842
 9663SOL    HW130996   0.793   0.135   6.964 -1.5509  0.2275  0.6826
 9663SOL    HW230997   0.806   0.192   6.824 -1.5519 -0.4222  0.4146
 9664SOL     OW30998  10.910   4.853   5.530 -0.7606  0.1057  0.7885
 9664SOL    HW130999  10.958   4.792   5.475 -2.2646 -1.6521  1.3439
 9664SOL    HW231000  10.972   4.924   5.547  0.1902  0.0747 -2.0299
 9665SOL     OW31001   4.319   1.849   9.852 -0.6070 -0.4207 -0.1717
 9665SOL    HW131002   4.274   1.933   9.854  0.4229  0.1981 -1.5651
 9665SOL    HW231003   4.321   1.825   9.759  0.5439 -1.1741  0.0285
 9666SOL     OW31004   1.390   3.426   6.934  0.9727 -0.4047  0.1886
 9666SOL    HW131005   1.389   3.332   6.913  1.1278 -0.3229 -0.1859
 9666SOL    HW231006   1.347   3.468   6.860  0.3592 -0.2294  0.6359
 9667SOL     OW31007  10.398   3.798   8.822  0.9450  0.4305  0.1826
 9667SOL    HW131008  10.450   3.876   8.844 -1.4714  2.2190  0.0120
 9667SOL    HW231009  10.331   3.794   8.890  1.4030 -1.9643  0.5628
 9668SOL     OW31010   2.269   0.910   1.106  0.3428  1.2135 -0.1448
 9668SOL    HW131011   2.183   0.945   1.128 -0.3661  0.4554 -1.5627
 9668SOL    HW231012   2.272   0.910   1.011  1.0352 -0.7809 -0.1819
 9669SOL     OW31013   8.681   0.242   6.553  0.0034 -0.1087 -0.0935
 9669SOL    HW131014   8.773   0.268   6.554  0.3745 -1.2393 -1.3961
 9669SOL    HW231015   8.657   0.234   6.645  1.7319 -1.4726  0.2885
 9670SOL     OW31016  10.802   3.809   5.393  0.3901  0.2074  0.0450
 9670SOL    HW131017  10.722   3.757   5.390  0.4365  0.1575 -0.4210
 9670SOL    HW231018  10.790   3.868   5.468  0.3395 -0.4672  0.5812
 9671SOL     OW31019   8.182   2.864   1.102  0.3490  0.1976  0.2920
 9671SOL    HW131020   8.175   2.770   1.119  1.4210 -0.2771 -1.6456
 9671SOL    HW231021   8.093   2.897   1.118 -0.3603 -1.3631 -0.2089
 9672SOL     OW31022   9.421   0.235   8.106  0.3002  0.0826 -0.1437
 9672SOL    HW131023   9.459   0.278   8.029 -0.4698  1.2741  0.1107
 9672SOL    HW231024   9.360   0.300   8.142 -3.4298 -2.2593 -1.5470
 9673SOL     OW31025   1.487   8.461   0.747 -0.1489  0.0726  0.7203
 9673SOL    HW131026   1.453   8.406   0.818  0.7894  0.0634  1.1844
 9673SOL    HW231027   1.449   8.547   0.763  0.3879  0.1755  1.4969
 9674SOL     OW31028   8.290   8.219  10.337  0.0300 -0.4626  0.1644
 9674SOL    HW131029   8.247   8.229  10.252  2.3720  0.9182 -0.9689
 9674SOL    HW231030   8.256   8.291  10.390 -0.4886 -0.5613 -0.0321
 9675SOL     OW31031   3.747   9.261   6.956 -1.0489 -0.2820 -0.2617
 9675SOL    HW131032   3.754   9.197   6.885 -0.4429 -1.0630  0.4912
 9675SOL    HW231033   3.803   9.227   7.025 -0.2872  1.3234 -0.0379
 9676SOL     OW31034   4.776   7.393   2.053 -1.0650  0.9159  0.7284
 9676SOL    HW131035   4.749   7.303   2.038 -0.8457  0.7364  1.3645
 9676SOL    HW231036   4.854   7.386   2.108 -0.8118  1.4816  0.4550
 9677SOL     OW31037   4.616   9.881   3.151 -0.3856  0.4386 -0.0833
 9677SOL    HW131038   4.585   9.926   3.072 -2.5075  0.9106  0.9546
 9677SOL    HW231039   4.564   9.801   3.154  0.3145 -0.0033  0.3804
 9678SOL     OW31040   7.961   4.004   0.800 -0.3149 -0.0590 -0.3167
 9678SOL    HW131041   8.011   4.080   0.770  0.7408 -1.3543 -1.9631
 9678SOL    HW231042   7.949   4.019   0.894 -2.3618  3.3845 -0.9569
 9679SOL     OW31043   6.795   1.253   3.069 -0.0025  0.9168  0.4931
 9679SOL    HW131044   6.842   1.289   3.144  0.7687  0.7768  0.0935
 9679SOL    HW231045   6.802   1.158   3.080 -0.4455  0.8945  0.5835
 9680SOL     OW31046   2.563   7.799   5.329 -0.0479  0.0177 -0.0647
 9680SOL    HW131047   2.482   7.802   5.379  1.0174  0.2491  1.7353
 9680SOL    HW231048   2.612   7.876   5.359  2.8876 -2.6366  2.6717
 9681SOL     OW31049   4.859   8.654   4.759 -0.2545  0.1253  0.2507
 9681SOL    HW131050   4.842   8.634   4.851  0.0873  0.5393  0.4073
 9681SOL    HW231051   4.773   8.650   4.718 -0.1989 -1.9360  0.1972
 9682SOL     OW31052   1.230   8.095   4.444  0.1231 -0.1846 -0.8310
 9682SOL    HW131053   1.147   8.126   4.408 -0.0751  0.4450  0.1309
 9682SOL    HW231054   1.282   8.175   4.453  0.6809 -0.5224 -1.0179
 9683SOL     OW31055   5.815   4.319  10.778  0.0828  0.3607 -0.5602
 9683SOL    HW131056   5.902   4.330  10.817  0.2073 -4.1833  1.0765
 9683SOL    HW231057   5.776   4.406  10.781  4.1554  2.3997 -0.4353
 9684SOL     OW31058   5.332   4.338   7.621  0.1767 -0.2657 -0.0275
 9684SOL    HW131059   5.379   4.277   7.565 -2.0332 -1.3974 -0.7398
 9684SOL    HW231060   5.263   4.286   7.662  0.5347  0.9454  2.3364
 9685SOL     OW31061  11.058   5.123   5.595  0.6276  0.4268  0.3595
 9685SOL    HW131062  11.098   5.183   5.532  0.2640 -1.1763 -1.4990
 9685SOL    HW231063  11.131   5.092   5.649  1.0776  1.2555  0.2434
 9686SOL     OW31064   5.055   6.770   9.329  0.5957 -0.4941 -0.1494
 9686SOL    HW131065   5.042   6.749   9.421 -0.5876  1.1761  0.1103
 9686SOL    HW231066   4.974   6.739   9.286  0.7710 -0.4919 -0.4851
 9687SOL     OW31067   7.668   5.623   1.534 -0.0571  0.1885 -0.6747
 9687SOL    HW131068   7.604   5.691   1.514  0.0267  0.4521 -0.0429
 9687SOL    HW231069   7.714   5.654   1.611 -3.0325 -2.5380  2.5547
 9688SOL     OW31070   0.472   0.298   0.300  0.4442  0.8729 -0.2637
 9688SOL    HW131071   0.419   0.234   0.347  2.2314 -0.8506 -0.4609
 9688SOL    HW231072   0.408   0.358   0.261 -1.2114  0.4544  1.6291
 9689SOL     OW31073   9.430   6.354  10.010  0.5896 -0.2785  1.0292
 9689SOL    HW131074   9.345   6.391  10.037  0.5401  0.0681  0.3980
 9689SOL    HW231075   9.421   6.260  10.027  0.1241 -0.2284  1.0824
 9690SOL     OW31076   8.602   8.629   2.013  0.0049 -0.0153 -0.2645
 9690SOL    HW131077   8.659   8.593   2.080  1.6128  1.2737 -0.8767
 9690SOL    HW231078   8.599   8.563   1.944 -1.4459 -1.2316  0.8983
 9691SOL     OW31079   5.850   9.937   1.324  1.2574  0.0624  0.4732
 9691SOL    HW131080   5.835  10.022   1.366  1.5790  0.3186  0.0776
 9691SOL    HW231081   5.809   9.874   1.382 -0.3353  0.6258  0.0133
 9692SOL     OW31082   4.891   4.988   6.933  0.0545 -0.7543  0.4800
 9692SOL    HW131083   4.969   4.985   6.988  0.2768 -1.0055  0.1529
 9692SOL    HW231084   4.891   4.904   6.887  1.2212  0.3983 -1.7604
 9693SOL     OW31085   8.553   3.039   2.378  0.2002  0.5506 -0.5103
 9693SOL    HW131086   8.580   3.000   2.295  0.3287  0.2402 -0.3250
 9693SOL    HW231087   8.458   3.040   2.374  0.1247 -1.2410  0.1298
 9694SOL     OW31088   9.291   6.650   4.510  0.6292  0.6117 -0.1205
 9694SOL    HW131089   9.316   6.743   4.511 -2.3923  1.5757 -1.4854
 9694SOL    HW231090   9.317   6.620   4.423  0.7070  0.4654 -0.0454
 9695SOL     OW31091   8.481   5.710   2.337 -0.0531  0.3906  0.4028
 9695SOL    HW131092   8.441   5.634   2.293 -0.3961  0.4337  0.6400
 9695SOL    HW231093   8.574   5.702   2.318 -0.0596 -0.2139  0.6128
 9696SOL     OW31094   7.609   7.849   0.715  0.7803  0.0055  0.1704
 9696SOL    HW131095   7.528   7.888   0.748  0.3512  1.8147 -2.6689
 9696SOL    HW231096   7.590   7.756   0.706 -0.0062 -0.0612  2.1061
 9697SOL     OW31097   2.523   2.985   7.345 -0.2316  0.0514  0.0874
 9697SOL    HW131098   2.526   2.893   7.320  0.6821  0.5929 -1.9645
 9697SOL    HW231099   2.590   3.027   7.291  0.5215  1.6794  2.1455
 9698SOL     OW31100   4.886   7.500   3.336  0.0226  0.9829 -0.1498
 9698SOL    HW131101   4.909   7.539   3.252 -1.7454  1.9462 -0.2217
 9698SOL    HW231102   4.966   7.454   3.363  1.0565  1.7729 -1.7003
 9699SOL     OW31103   3.328   1.897   2.764 -0.4838  0.1346 -0.4114
 9699SOL    HW131104   3.388   1.857   2.701  0.5349  0.4520  0.3278
 9699SOL    HW231105   3.376   1.895   2.847 -1.0058  1.5490 -0.0562
 9700SOL     OW31106   8.848   8.895  10.248 -0.1231 -0.2360 -0.1018
 9700SOL    HW131107   8.876   8.937  10.329  0.7107 -0.2832 -0.3614
 9700SOL    HW231108   8.834   8.804  10.271 -2.5957  0.2462  0.6269
 9701SOL     OW31109   8.210   8.831   9.712 -1.2075 -0.1777 -0.3605
 9701SOL    HW131110   8.214   8.887   9.634  1.3450 -1.5043 -1.2887
 9701SOL    HW231111   8.295   8.841   9.754 -0.8748 -2.8140 -0.2240
 9702SOL     OW31112   1.934   6.269   1.425 -0.1860 -0.5742  0.1837
 9702SOL    HW131113   2.013   6.317   1.449  0.4501 -1.5816  0.1486
 9702SOL    HW231114   1.965   6.182   1.399 -1.3436 -1.1583  0.6530
 9703SOL     OW31115  10.580   7.125   3.290  0.6047  0.2092 -0.2700
 9703SOL    HW131116  10.650   7.189   3.302  0.0114  1.0974 -1.3269
 9703SOL    HW231117  10.500   7.176   3.299  0.0586 -0.7950  0.9361
 9704SOL     OW31118   1.468  10.279   5.080 -0.4264 -0.0910 -0.1137
 9704SOL    HW131119   1.407  10.206   5.089  0.9084 -1.3592 -0.9573
 9704SOL    HW231120   1.536  10.262   5.146  0.4259 -0.1987 -0.9959
 9705SOL     OW31121   0.377   9.601   7.525 -0.1521  0.1622  0.3420
 9705SOL    HW131122   0.440   9.616   7.596 -0.2604  4.7686 -0.2397
 9705SOL    HW231123   0.294   9.632   7.560 -0.6089  0.6645 -1.1515
 9706SOL     OW31124  10.059   0.745   4.587  0.0814  0.1477  0.2147
 9706SOL    HW131125   9.983   0.702   4.547 -0.7075  0.7552  1.0121
 9706SOL    HW231126  10.022   0.818   4.636  1.1356  0.1198  1.0887
 9707SOL     OW31127   2.476   6.039   7.782 -0.9036 -0.1122 -0.1250
 9707SOL    HW131128   2.559   6.045   7.733  0.4263  1.9703  2.1465
 9707SOL    HW231129   2.421   6.107   7.744 -0.4782  0.4147  0.1833
 9708SOL     OW31130   1.004   5.368   6.633  0.1577  0.4398 -0.6552
 9708SOL    HW131131   1.069   5.436   6.616  0.4809  0.3821  0.3061
 9708SOL    HW231132   1.055   5.287   6.641 -0.1110  0.2659 -0.6859
 9709SOL     OW31133   6.722  10.675   3.687  0.5190  0.2340  0.0021
 9709SOL    HW131134   6.771  10.653   3.607  1.9109 -0.8743  1.1068
 9709SOL    HW231135   6.790  10.694   3.752 -0.4642 -1.3912  1.5966
 9710SOL     OW31136   0.993   1.431   7.690 -0.1656  0.5365  0.4296
 9710SOL    HW131137   0.965   1.371   7.620  2.2409 -0.0471 -0.1158
 9710SOL    HW231138   1.004   1.515   7.646 -0.7585  0.6917  0.5771
 9711SOL     OW31139   8.981  10.516   3.998 -0.4078 -0.7109  0.6201
 9711SOL    HW131140   9.067  10.498   4.037  1.3400  1.2281 -2.0198
 9711SOL    HW231141   8.946  10.430   3.975  2.1664 -1.4637 -0.8066
 9712SOL     OW31142   9.335   2.663   4.676  0.2566  0.0855 -0.3269
 9712SOL    HW131143   9.397   2.733   4.659  0.6596  0.1652  1.2963
 9712SOL    HW231144   9.378   2.584   4.643  1.4460  0.0759  1.1597
 9713SOL     OW31145   2.390   2.384  11.001 -0.5193  0.3119  0.0315
 9713SOL    HW131146   2.330   2.361  11.071  0.0386 -0.0957  0.3872
 9713SOL    HW231147   2.349   2.351  10.921 -0.8545  0.2135  0.2456
 9714SOL     OW31148   5.667   4.785   1.916  0.1275  0.1909  0.2578
 9714SOL    HW131149   5.581   4.763   1.878 -0.3354 -1.5607  2.1174
 9714SOL    HW231150   5.719   4.706   1.903  0.7474  0.4666  1.0339
 9715SOL     OW31151   3.777   9.999   1.548  0.3269  0.3139 -0.4361
 9715SOL    HW131152   3.786   9.919   1.599  0.3985 -0.0230 -0.9736
 9715SOL    HW231153   3.733   9.972   1.468 -0.5264  0.9783 -0.2109
 9716SOL     OW31154   9.151   7.264   6.167  0.4497 -0.0823  0.1725
 9716SOL    HW131155   9.115   7.189   6.120 -0.7502  0.9718 -0.6816
 9716SOL    HW231156   9.106   7.263   6.252  0.9505 -0.7161  0.4321
 9717SOL     OW31157   3.607   6.114   2.762  0.1590 -0.3428 -0.9561
 9717SOL    HW131158   3.624   6.050   2.693  1.9973 -0.2755 -0.6208
 9717SOL    HW231159   3.531   6.078   2.809  1.4489 -2.6198 -0.4351
 9718SOL     OW31160   2.557   0.461  10.097 -0.1259 -0.2699 -0.4365
 9718SOL    HW131161   2.600   0.452  10.182 -0.3958  0.7370 -0.1858
 9718SOL    HW231162   2.517   0.375  10.081 -1.4371 -0.0093  1.2070
 9719SOL     OW31163   3.173   3.270   8.931  0.5556  0.0848 -0.2960
 9719SOL    HW131164   3.097   3.296   8.982 -0.5535 -0.3773 -1.6476
 9719SOL    HW231165   3.205   3.351   8.892  0.1373  0.1452 -0.5187
 9720SOL     OW31166   5.845   0.379   9.245  0.5511  0.0605  0.0829
 9720SOL    HW131167   5.901   0.309   9.279  0.0509  0.7531  2.5045
 9720SOL    HW231168   5.846   0.446   9.313 -2.4419  0.5295 -0.1908
 9721SOL     OW31169   0.025   0.141   9.923  0.0028 -0.1280 -0.0962
 9721SOL    HW131170   0.014   0.236   9.925 -0.8302 -0.2221  1.7190
 9721SOL    HW231171  -0.061   0.107   9.948  1.1946 -1.2274  3.0216
 9722SOL     OW31172   2.457   1.323   3.432  0.2597  0.0573  0.4007
 9722SOL    HW131173   2.395   1.258   3.466  0.0516 -0.9149 -1.6774
 9722SOL    HW231174   2.511   1.345   3.507 -0.4966 -1.5623  1.4971
 9723SOL     OW31175   4.428   6.667   1.181  0.7652  0.4023  0.1516
 9723SOL    HW131176   4.415   6.660   1.276  1.0188  0.4468  0.1902
 9723SOL    HW231177   4.343   6.697   1.148  0.5148 -0.1384  0.3006
 9724SOL     OW31178   7.622   5.714  11.091  1.0721  0.3837  0.5223
 9724SOL    HW131179   7.665   5.694  11.009  0.6234  1.5396 -0.0208
 9724SOL    HW231180   7.574   5.796  11.074 -0.7882 -0.4917  1.2775
 9725SOL     OW31181   1.313   1.410   8.452 -0.0904  0.4207 -0.2089
 9725SOL    HW131182   1.258   1.417   8.530  0.5909 -0.6544  0.3876
 9725SOL    HW231183   1.274   1.340   8.400 -1.0669  1.7232 -1.3045
 9726SOL     OW31184   0.042   2.442   8.889  0.8424  0.7574  0.3649
 9726SOL    HW131185   0.105   2.428   8.818 -2.2238 -1.1227 -2.2466
 9726SOL    HW231186   0.057   2.368   8.949  1.7357  0.8843  0.3093
 9727SOL     OW31187   7.029   7.206   3.443 -0.1786  0.0494  0.6369
 9727SOL    HW131188   7.094   7.166   3.383 -0.7748 -1.4869  0.9663
 9727SOL    HW231189   7.076   7.214   3.526  0.1739  0.7457  0.3788
 9728SOL     OW31190   3.734   7.136   1.212 -0.0125  0.4722  0.4899
 9728SOL    HW131191   3.738   7.165   1.121 -0.1378 -0.0736  0.3041
 9728SOL    HW231192   3.811   7.176   1.253  0.5347  0.0253 -0.0652
 9729SOL     OW31193   0.765   7.763   6.778 -0.7455 -0.0317  0.1617
 9729SOL    HW131194   0.824   7.704   6.824  1.4645  1.0875 -1.0671
 9729SOL    HW231195   0.743   7.717   6.697 -0.2205  0.1874 -0.1138
 9730SOL     OW31196   0.514   2.040   3.272  0.0646  0.1093 -0.4028
 9730SOL    HW131197   0.608   2.020   3.278  0.4845  1.3792 -2.0429
 9730SOL    HW231198   0.499   2.104   3.341 -0.2372 -2.0176  1.6306
 9731SOL     OW31199  10.755   9.661   9.885  0.0617 -0.0696 -0.2956
 9731SOL    HW131200  10.698   9.585   9.875  1.4980 -1.3946  0.9412
 9731SOL    HW231201  10.827   9.646   9.823 -0.9304  1.6741 -1.9807
 9732SOL     OW31202   7.071  10.685   5.222  0.1139  0.1898  0.2049
 9732SOL    HW131203   6.984  10.720   5.205  1.1622  2.3800 -1.0712
 9732SOL    HW231204   7.128  10.762   5.225  2.0212 -1.1612  1.0584
 9733SOL     OW31205   6.319   9.769   7.360 -0.2533 -0.0563  0.2274
 9733SOL    HW131206   6.292   9.685   7.323  2.2775 -0.6846 -0.4581
 9733SOL    HW231207   6.321   9.829   7.285  0.9107 -0.2484  0.0762
 9734SOL     OW31208   0.849   2.141   0.133 -0.7416  0.1271  0.3414
 9734SOL    HW131209   0.880   2.168   0.219 -0.4508 -4.3503  1.8941
 9734SOL    HW231210   0.928   2.123   0.082 -0.8905  3.2913 -1.2680
 9735SOL     OW31211  10.495   1.304   0.564  0.2983  0.0433 -0.4254
 9735SOL    HW131212  10.497   1.215   0.601 -2.6425  0.1994  0.3969
 9735SOL    HW231213  10.492   1.361   0.640  0.3353  0.7455 -0.9442
 9736SOL     OW31214   2.447  10.341   3.698 -0.5523 -1.1281  0.0852
 9736SOL    HW131215   2.446  10.333   3.603  0.8609 -0.3230 -0.0170
 9736SOL    HW231216   2.371  10.396   3.718  0.6875  1.0689 -0.8695
 9737SOL     OW31217   1.264   2.512   8.786 -0.1347  0.7442 -0.4687
 9737SOL    HW131218   1.353   2.539   8.813 -0.1654  2.1338 -1.6516
 9737SOL    HW231219   1.276   2.471   8.701 -0.6415  1.0814 -0.7052
 9738SOL     OW31220   3.064   9.444   3.929 -0.2519 -0.0746 -0.1703
 9738SOL    HW131221   3.139   9.463   3.984 -0.5275  0.9272 -0.1224
 9738SOL    HW231222   2.988   9.463   3.984 -0.5278  0.8839 -0.8702
 9739SOL     OW31223   0.590   1.470   1.424 -0.0780 -0.2315  0.4194
 9739SOL    HW131224   0.514   1.459   1.366  0.5750 -0.5795 -0.3986
 9739SOL    HW231225   0.595   1.564   1.439 -1.5475 -0.3056  1.7258
 9740SOL     OW31226  10.868   1.459   5.649 -0.0793  0.3234  0.2590
 9740SOL    HW131227  10.787   1.424   5.686  1.0556 -2.0941  0.6396
 9740SOL    HW231228  10.867   1.552   5.673 -2.2100  0.1275  1.1469
 9741SOL     OW31229   3.826  10.985  10.577 -0.4103 -0.5862  0.3182
 9741SOL    HW131230   3.853  10.929  10.505  1.3890  0.5626  0.0257
 9741SOL    HW231231   3.904  11.038  10.597 -1.3983  0.3560  1.9342
 9742SOL     OW31232   7.504   3.667   0.326 -0.1976 -0.5770 -0.1532
 9742SOL    HW131233   7.566   3.671   0.399 -1.4391 -1.2937  0.9967
 9742SOL    HW231234   7.418   3.672   0.368 -0.9675  1.9362 -1.7770
 9743SOL     OW31235   2.638   2.831   5.237 -0.3705  0.4674  0.7719
 9743SOL    HW131236   2.698   2.814   5.309  0.8573  0.2097 -0.2696
 9743SOL    HW231237   2.553   2.803   5.269  0.2273 -0.0382  1.9621
 9744SOL     OW31238   9.809   5.156  10.424 -0.3790 -0.3871 -0.2004
 9744SOL    HW131239   9.733   5.184  10.373 -0.4424 -1.1110 -0.5190
 9744SOL    HW231240   9.800   5.061  10.431  0.4885 -0.4817 -0.2221
 9745SOL     OW31241   1.820   9.714   3.326 -0.0155 -0.3017 -0.0418
 9745SOL    HW131242   1.742   9.688   3.375  0.0209 -0.8449 -0.2582
 9745SOL    HW231243   1.888   9.652   3.354 -0.1798 -1.0933 -1.2852
 9746SOL     OW31244  10.369   4.770   9.594 -0.1343  0.4568 -0.2809
 9746SOL    HW131245  10.332   4.830   9.660  0.8676  1.0395 -0.2367
 9746SOL    HW231246  10.456   4.750   9.626 -0.5275 -1.2143 -0.2003
 9747SOL     OW31247   4.884   7.851   5.928  0.3628 -0.2482  0.5264
 9747SOL    HW131248   4.941   7.775   5.941 -0.2292 -1.0535 -1.1989
 9747SOL    HW231249   4.836   7.831   5.847  1.2722  2.6392 -0.8561
 9748SOL     OW31250   0.698   4.966  10.796 -0.2284  0.1946  0.8309
 9748SOL    HW131251   0.722   5.041  10.742 -1.0245 -1.5510 -2.1843
 9748SOL    HW231252   0.642   5.002  10.864  0.0688  2.4315 -0.0181
 9749SOL     OW31253   6.238  10.991   5.958 -0.9689  0.3606 -0.3526
 9749SOL    HW131254   6.304  10.922   5.954 -1.8172 -0.6653  1.7035
 9749SOL    HW231255   6.286  11.072   5.944  0.4503 -0.4835 -0.5197
 9750SOL     OW31256   2.599   4.691   4.348  0.7883  0.0764  0.0654
 9750SOL    HW131257   2.649   4.610   4.364  1.3507  0.1399 -1.2129
 9750SOL    HW231258   2.580   4.725   4.435  2.7552 -0.1000  0.6275
 9751SOL     OW31259  10.221   0.282  10.631 -0.6082  0.8190  0.0423
 9751SOL    HW131260  10.199   0.205  10.578 -0.1655  1.3492 -0.9376
 9751SOL    HW231261  10.253   0.246  10.713  3.0398 -0.2791 -1.6175
 9752SOL     OW31262   2.537   4.235  10.961 -0.0962 -0.7526  0.7629
 9752SOL    HW131263   2.598   4.299  11.000 -0.5840 -0.0961  0.4628
 9752SOL    HW231264   2.451   4.272  10.976 -0.2854 -0.1339 -1.5211
 9753SOL     OW31265   9.135   4.189   3.267  0.1073 -0.6994  0.1181
 9753SOL    HW131266   9.189   4.163   3.342  0.7463  1.9176  0.6426
 9753SOL    HW231267   9.164   4.131   3.196  2.0422 -0.8692  0.9799
 9754SOL     OW31268   3.836   2.438   4.041 -0.4192  0.5034 -0.0497
 9754SOL    HW131269   3.841   2.402   3.952 -2.2689  1.2141 -0.4903
 9754SOL    HW231270   3.795   2.524   4.030 -0.5703  0.6512  1.4741
 9755SOL     OW31271   8.312   7.686   2.888 -0.6638  0.2922  0.3569
 9755SOL    HW131272   8.254   7.739   2.942 -1.2853 -0.1409  0.1269
 9755SOL    HW231273   8.373   7.749   2.849  0.0755  0.5576  1.8778
 9756SOL     OW31274   9.555   0.286   8.357 -0.0582 -0.3127  0.6962
 9756SOL    HW131275   9.603   0.319   8.282 -0.0906  0.2195  0.9091
 9756SOL    HW231276   9.480   0.239   8.319 -0.4326  0.5069  0.4032
 9757SOL     OW31277   4.148   7.910   0.266 -0.2923  0.7170  0.0235
 9757SOL    HW131278   4.144   7.888   0.359 -0.3889 -0.3453 -0.2153
 9757SOL    HW231279   4.074   7.968   0.251  0.8462  2.5092  0.9978
 9758SOL     OW31280   0.583   8.981   6.758 -0.0778  0.7420 -0.3214
 9758SOL    HW131281   0.639   8.914   6.799 -1.0711 -0.1927 -0.4409
 9758SOL    HW231282   0.593   8.965   6.664  0.2133  1.2261 -0.3771
 9759SOL     OW31283   1.667   3.374   8.055 -0.2164 -0.1619 -0.3237
 9759SOL    HW131284   1.667   3.444   7.989  0.0387 -0.1326 -0.2925
 9759SOL    HW231285   1.758   3.347   8.061 -0.1089  0.3418  0.5552
 9760SOL     OW31286   4.028   0.626   3.014 -0.0151 -0.7054  0.2310
 9760SOL    HW131287   4.079   0.602   3.091 -1.7675 -2.2130  1.0005
 9760SOL    HW231288   3.978   0.703   3.042  1.5224  0.5892 -0.4279
 9761SOL     OW31289   2.729   8.123   4.296  0.4181  0.1760 -0.1625
 9761SOL    HW131290   2.696   8.062   4.230  0.3602 -0.4619  0.4508
 9761SOL    HW231291   2.821   8.098   4.308  0.7805  1.0848 -0.8831
 9762SOL     OW31292  10.251   8.957   6.633  0.2057 -0.3355  0.1711
 9762SOL    HW131293  10.175   8.900   6.638  0.6551 -1.1500 -1.5077
 9762SOL    HW231294  10.326   8.899   6.647  0.5592  0.6317  2.9776
 9763SOL     OW31295   3.480   4.556  10.322  0.3011 -0.7785 -0.2333
 9763SOL    HW131296   3.541   4.526  10.390 -2.4772 -0.2813  2.7124
 9763SOL    HW231297   3.442   4.475  10.287  0.9659 -1.0037 -0.4511
 9764SOL     OW31298   5.926   8.688  10.478 -0.7153 -0.3576 -0.1621
 9764SOL    HW131299   5.860   8.746  10.441 -1.0796 -1.3355 -1.0868
 9764SOL    HW231300   5.971   8.742  10.544 -4.0420 -0.3206  2.3610
 9765SOL     OW31301   8.826   4.176   8.764  0.5196 -0.3417  0.6445
 9765SOL    HW131302   8.837   4.214   8.852 -0.2932  1.2561  0.0886
 9765SOL    HW231303   8.740   4.205   8.736  1.3121  0.3063 -1.2246
 9766SOL     OW31304   4.008   0.229   8.711  0.4764  0.2819  0.3261
 9766SOL    HW131305   4.090   0.237   8.662 -0.9893  1.5141 -2.0605
 9766SOL    HW231306   3.977   0.141   8.691  2.1113 -1.0031  2.8945
 9767SOL     OW31307   9.618   2.472  10.078 -0.3785  0.0348 -0.3091
 9767SOL    HW131308   9.589   2.561  10.099 -1.0068 -0.5920  1.6536
 9767SOL    HW231309   9.625   2.428  10.162  3.1893 -0.8419 -0.8786
 9768SOL     OW31310  10.574   8.725   4.954 -0.2981 -0.1530  0.5658
 9768SOL    HW131311  10.633   8.656   4.985  0.2560  0.3513  0.6396
 9768SOL    HW231312  10.630   8.802   4.945 -0.8673  0.2257  0.2510
 9769SOL     OW31313   9.738   8.290   2.220 -0.5822  0.3521 -0.0132
 9769SOL    HW131314   9.716   8.200   2.198  0.4734 -0.7351  2.9412
 9769SOL    HW231315   9.664   8.320   2.272 -0.8999  1.2257 -0.9283
 9770SOL     OW31316   4.321   3.485   3.874  0.3394 -0.0286 -0.1057
 9770SOL    HW131317   4.304   3.395   3.848 -1.9411 -0.5063  2.5534
 9770SOL    HW231318   4.410   3.484   3.909  0.3042 -1.2517 -0.0114
 9771SOL     OW31319   3.982   1.161  10.459 -1.0635 -0.4050  0.3078
 9771SOL    HW131320   4.041   1.236  10.461 -0.0738 -1.1074 -0.8488
 9771SOL    HW231321   3.904   1.189  10.507  0.0725  0.6636  1.5780
 9772SOL     OW31322   7.424   6.350   0.873 -0.2132  0.7364 -0.3661
 9772SOL    HW131323   7.400   6.409   0.944  0.4307  0.7607 -0.1625
 9772SOL    HW231324   7.469   6.406   0.809 -1.4659  0.8704 -1.1678
 9773SOL     OW31325   4.306   2.862   3.926  0.2227  0.1016  0.3225
 9773SOL    HW131326   4.240   2.923   3.959  0.4143  1.6490 -1.8791
 9773SOL    HW231327   4.259   2.805   3.866  0.2171 -1.4041  1.7042
 9774SOL     OW31328   3.442   3.230   1.082 -0.1735 -1.3485  0.4071
 9774SOL    HW131329   3.390   3.288   1.026 -0.0085 -0.4509  1.1656
 9774SOL    HW231330   3.533   3.251   1.060  0.0542  1.6646  3.4835
 9775SOL     OW31331   9.340  10.691   7.477 -0.1477 -0.4006  0.7241
 9775SOL    HW131332   9.347  10.657   7.388  1.2379 -0.0166  0.6683
 9775SOL    HW231333   9.335  10.613   7.532 -2.7112 -0.6652  0.2497
 9776SOL     OW31334   2.209   5.686  11.088 -0.0118  0.1921  0.5617
 9776SOL    HW131335   2.242   5.771  11.060  0.1034 -0.2152 -0.5990
 9776SOL    HW231336   2.269   5.660  11.158  0.5909  0.6020  0.2134
 9777SOL     OW31337   0.084   2.569   1.428  0.3940  0.5029 -0.3599
 9777SOL    HW131338   0.177   2.580   1.408  0.3788  0.4612 -0.4490
 9777SOL    HW231339   0.078   2.481   1.465  0.5149  0.7914  0.3676
 9778SOL     OW31340   5.566   3.091   1.144 -0.2760  0.6656 -1.1930
 9778SOL    HW131341   5.558   3.020   1.208 -1.6575  2.2883  0.5606
 9778SOL    HW231342   5.658   3.091   1.119  0.7827  0.9995  2.1378
 9779SOL     OW31343   7.929   2.148   9.412 -0.4083 -0.0024  0.5258
 9779SOL    HW131344   7.995   2.104   9.466 -0.5705  0.2650  0.9482
 9779SOL    HW231345   7.872   2.077   9.382  0.8207 -0.4230 -0.9453
 9780SOL     OW31346   6.249   5.050   7.623 -0.5849 -0.3048  0.1694
 9780SOL    HW131347   6.247   5.108   7.547 -0.0345 -2.0793 -1.2611
 9780SOL    HW231348   6.325   4.993   7.608 -0.9072 -1.1952  1.6881
 9781SOL     OW31349  10.486  10.227   9.392 -0.8072  0.6579 -0.7713
 9781SOL    HW131350  10.455  10.157   9.449 -1.0611  2.2175  1.1016
 9781SOL    HW231351  10.577  10.204   9.373 -1.1068 -0.5490 -0.8296
 9782SOL     OW31352   1.702   5.182   0.912 -0.2193 -0.5825 -0.2294
 9782SOL    HW131353   1.721   5.263   0.960  0.6486 -1.2935  0.6592
 9782SOL    HW231354   1.638   5.136   0.967  1.8872 -2.1045  1.1194
 9783SOL     OW31355   5.272   4.524   3.518 -0.3976 -0.5478 -0.8123
 9783SOL    HW131356   5.271   4.613   3.484  1.1865 -1.3198 -3.0778
 9783SOL    HW231357   5.363   4.506   3.539 -0.9477 -1.0535  1.3987
 9784SOL     OW31358  10.879   5.507   3.744 -0.5932  0.0025 -0.0866
 9784SOL    HW131359  10.932   5.485   3.668  2.1589 -2.2650  2.2263
 9784SOL    HW231360  10.881   5.603   3.748 -0.7384  0.1853 -2.7203
 9785SOL     OW31361   1.269   5.961   2.466 -0.2460  0.8966  0.3846
 9785SOL    HW131362   1.249   5.936   2.556 -1.6780  0.2591 -0.0887
 9785SOL    HW231363   1.216   5.903   2.412  0.0217  1.7659 -0.8637
 9786SOL     OW31364   5.242   9.413   0.677 -0.4037  0.1766  0.4870
 9786SOL    HW131365   5.158   9.395   0.634  0.0032  1.3954 -0.9357
 9786SOL    HW231366   5.221   9.478   0.744 -0.9334 -1.2193  1.7312
 9787SOL     OW31367   5.147   0.565  10.451 -0.1005 -0.1638  0.5228
 9787SOL    HW131368   5.196   0.559  10.533 -0.0984  3.3030  0.9136
 9787SOL    HW231369   5.214   0.572  10.383 -0.0935 -0.6763  0.4750
 9788SOL     OW31370   8.179   1.025   4.014  0.2750  0.3750  0.0668
 9788SOL    HW131371   8.146   0.952   3.962 -0.0063 -0.0539  0.8267
 9788SOL    HW231372   8.179   1.099   3.953  1.6135 -0.4797 -1.0264
 9789SOL     OW31373   2.282   1.461  10.094 -0.1268 -0.5586  0.4911
 9789SOL    HW131374   2.331   1.388  10.055  1.2866 -0.5362  2.0887
 9789SOL    HW231375   2.217   1.418  10.150 -1.0621 -0.5784 -0.5809
 9790SOL     OW31376   3.484   5.278  10.040  0.4825  0.3517  0.3359
 9790SOL    HW131377   3.399   5.252  10.075  0.3070 -1.8851 -1.4747
 9790SOL    HW231378   3.548   5.233  10.094  0.2548 -2.0373 -1.2109
 9791SOL     OW31379   9.162  10.818  11.078 -0.1979  0.0326 -0.6628
 9791SOL    HW131380   9.183  10.894  11.133  0.6175  1.8177 -3.2658
 9791SOL    HW231381   9.209  10.834  10.997 -1.9091 -2.1120 -2.1738
 9792SOL     OW31382   0.386   4.839   5.951 -0.1042  0.2269  0.1338
 9792SOL    HW131383   0.478   4.864   5.937 -0.0383 -0.8326 -1.7624
 9792SOL    HW231384   0.390   4.748   5.977 -0.6373 -0.3425 -1.6245
 9793SOL     OW31385   4.952   1.322   9.197  0.2507  0.3370  0.3032
 9793SOL    HW131386   4.887   1.251   9.193  2.6040 -1.8970 -1.4277
 9793SOL    HW231387   5.036   1.278   9.191  1.8769  3.3248 -1.1617
 9794SOL     OW31388   9.523   8.799   3.583  0.4638  0.0142  0.4073
 9794SOL    HW131389   9.464   8.873   3.566  0.9074 -0.1737 -2.5773
 9794SOL    HW231390   9.601   8.820   3.532  0.4081 -2.6957 -0.9579
 9795SOL     OW31391   2.416   9.277   1.531 -0.0698  0.3367  0.4882
 9795SOL    HW131392   2.393   9.366   1.505 -1.6911 -0.1265  0.2501
 9795SOL    HW231393   2.342   9.247   1.584  0.2221 -1.0515  0.1598
 9796SOL     OW31394   2.209   2.820   8.640 -0.2581 -0.2633  0.0974
 9796SOL    HW131395   2.250   2.775   8.714 -0.6811 -0.0132  0.4931
 9796SOL    HW231396   2.278   2.876   8.605 -0.7603  1.6955  2.0115
 9797SOL     OW31397   5.821  10.803   3.096 -0.2828  0.0462 -0.2335
 9797SOL    HW131398   5.764  10.727   3.108  0.7409 -0.7780 -0.3904
 9797SOL    HW231399   5.835  10.836   3.185 -4.2814  2.8619 -0.4036
 9798SOL     OW31400   2.902   4.337   6.420 -0.0045 -0.6280 -0.3704
 9798SOL    HW131401   2.956   4.270   6.380  1.2954 -0.0052  0.2848
 9798SOL    HW231402   2.864   4.294   6.497  0.5332 -0.7160 -0.1527
 9799SOL     OW31403   0.749   9.992  11.004  0.4298  0.1635 -1.1123
 9799SOL    HW131404   0.667  10.014  11.049  0.4002 -1.4636 -0.3193
 9799SOL    HW231405   0.806  10.068  11.020  0.0965  0.0370  0.8997
 9800SOL     OW31406  10.937   7.747   1.122  0.3928 -0.0535 -0.3897
 9800SOL    HW131407  10.857   7.753   1.174  0.3562  1.6317 -0.5634
 9800SOL    HW231408  10.934   7.660   1.082 -0.6278 -0.5601  0.7360
 9801SOL     OW31409   3.403   8.978   6.420  0.5433  0.3512 -0.1469
 9801SOL    HW131410   3.335   9.037   6.450 -1.3930 -1.8752  0.1556
 9801SOL    HW231411   3.356   8.902   6.386  2.8711 -0.9121 -0.7997
 9802SOL     OW31412   9.698   5.630   0.572 -0.1069 -0.3759 -0.2625
 9802SOL    HW131413   9.622   5.646   0.515  1.0235 -0.7095 -1.9481
 9802SOL    HW231414   9.690   5.539   0.598 -0.8770 -0.0948  0.4957
 9803SOL     OW31415   2.659   1.041   2.559 -0.3317  0.3893  0.2039
 9803SOL    HW131416   2.693   1.126   2.529  0.8528 -0.4644 -0.9840
 9803SOL    HW231417   2.572   1.035   2.521  0.1863  0.4137 -1.0403
 9804SOL     OW31418   5.924   0.693   7.700  0.6927 -0.2528  0.1520
 9804SOL    HW131419   5.907   0.599   7.707 -0.5745 -0.0802 -0.3188
 9804SOL    HW231420   6.016   0.699   7.673 -0.0484 -1.5201 -3.1701
 9805SOL     OW31421   0.649   5.091   3.347  0.0569  0.0370 -0.0784
 9805SOL    HW131422   0.735   5.123   3.323 -0.7012  1.6178 -0.8449
 9805SOL    HW231423   0.632   5.127   3.434 -0.8820  2.0400 -1.0263
 9806SOL     OW31424   1.829   2.623   3.356 -0.2536 -0.2616 -0.3468
 9806SOL    HW131425   1.754   2.666   3.397  0.9458  1.8891 -0.2465
 9806SOL    HW231426   1.897   2.623   3.423  0.0738 -1.5941 -0.6409
 9807SOL     OW31427   1.044   8.311   1.113  0.1540  0.1147  0.6011
 9807SOL    HW131428   0.990   8.389   1.100 -0.1464 -0.2585 -0.4798
 9807SOL    HW231429   1.022   8.280   1.200  1.8332  2.4384  1.9698
 9808SOL     OW31430   0.241   9.664   2.946  0.5615  0.1798 -0.8586
 9808SOL    HW131431   0.238   9.596   3.013  0.3536 -0.4084 -1.4540
 9808SOL    HW231432   0.285   9.622   2.872  3.1198  1.5895 -0.2367
 9809SOL     OW31433   8.838   5.075   7.882 -0.2918  0.6167  0.0299
 9809SOL    HW131434   8.853   5.138   7.811 -2.2179  1.6816  0.5022
 9809SOL    HW231435   8.776   5.118   7.940 -1.9779 -1.8412  0.1978
 9810SOL     OW31436   3.110   7.826   3.847 -0.2027  0.2298 -0.4412
 9810SOL    HW131437   3.173   7.784   3.905  1.1378  0.6154 -1.5650
 9810SOL    HW231438   3.060   7.885   3.904  1.2616  0.8083  0.3046
 9811SOL     OW31439   5.598   1.750   9.037 -0.5757  0.2917 -0.0461
 9811SOL    HW131440   5.532   1.806   8.998 -0.7288 -0.2231 -0.5419
 9811SOL    HW231441   5.570   1.661   9.015  0.5066  0.0836 -0.6510
 9812SOL     OW31442   0.484   1.701   4.430 -0.0447 -0.0720 -0.0659
 9812SOL    HW131443   0.463   1.621   4.478  1.4282 -0.2969  0.2442
 9812SOL    HW231444   0.430   1.769   4.471  0.4142 -0.4645  1.2135
 9813SOL     OW31445   7.819   5.370   1.787  0.6803 -0.0022  0.1543
 9813SOL    HW131446   7.725   5.357   1.788  0.4111  1.6033 -0.7670
 9813SOL    HW231447   7.831   5.455   1.744  2.3470  1.2482  2.7708
 9814SOL     OW31448   0.326   7.610   1.617  0.0260 -0.3906 -0.6775
 9814SOL    HW131449   0.245   7.643   1.578 -1.1205 -2.2855 -0.0122
 9814SOL    HW231450   0.389   7.610   1.545 -0.5402  1.1107 -1.2049
 9815SOL     OW31451   6.856   9.492   8.648  0.2399  0.3423  0.1244
 9815SOL    HW131452   6.843   9.442   8.568 -0.4697  1.5040 -0.5170
 9815SOL    HW231453   6.885   9.428   8.712 -0.3029 -0.8081 -0.7502
 9816SOL     OW31454   6.595   3.269   7.302  0.8608 -0.3671  0.1100
 9816SOL    HW131455   6.542   3.239   7.229  2.4489  0.1335 -1.3200
 9816SOL    HW231456   6.594   3.364   7.295  2.3774 -0.3478 -0.3375
 9817SOL     OW31457   6.749   0.536   4.654  0.2897  0.1289 -0.4827
 9817SOL    HW131458   6.753   0.613   4.598 -0.3979  0.6152  0.1270
 9817SOL    HW231459   6.761   0.569   4.742 -1.2021 -0.2968 -0.0956
 9818SOL     OW31460   5.689   2.308   9.515  0.2570 -0.3646 -0.6499
 9818SOL    HW131461   5.737   2.246   9.460  0.9714 -0.1984 -0.2366
 9818SOL    HW231462   5.712   2.394   9.480  2.5117 -0.1084  1.1991
 9819SOL     OW31463   3.631   1.198   2.451 -0.2368 -0.5085 -0.1351
 9819SOL    HW131464   3.576   1.124   2.428 -0.9722  0.1062 -0.4146
 9819SOL    HW231465   3.654   1.185   2.543 -3.1713  0.6139  0.8736
 9820SOL     OW31466   7.265   2.776   7.801  0.1313  0.5840  0.0483
 9820SOL    HW131467   7.321   2.707   7.764  0.3996  1.1126 -0.5456
 9820SOL    HW231468   7.184   2.771   7.750  0.2838  0.9343 -0.2322
 9821SOL     OW31469   2.936  10.726   2.896 -0.5474 -0.3135  0.1172
 9821SOL    HW131470   2.895  10.714   2.810 -1.8149  0.6213  0.5706
 9821SOL    HW231471   3.030  10.726   2.877 -0.8184  2.3005 -1.6579
 9822SOL     OW31472   7.968   5.967   7.225  0.1854  0.4282 -0.3528
 9822SOL    HW131473   7.946   5.994   7.314 -0.5099  1.4845 -0.8233
 9822SOL    HW231474   7.946   6.043   7.171  3.0029  0.7736 -1.1530
 9823SOL     OW31475   8.670   1.005   0.530 -0.1070  0.0391  0.5457
 9823SOL    HW131476   8.722   1.056   0.468  1.3296 -0.5531  1.2274
 9823SOL    HW231477   8.714   1.018   0.615  0.5131 -2.5615  0.6900
 9824SOL     OW31478   8.499   6.006   3.007 -0.1946  0.2004 -0.0022
 9824SOL    HW131479   8.521   6.070   3.075 -0.0468  0.0083  0.1320
 9824SOL    HW231480   8.523   5.921   3.045  1.8006  0.2319 -1.0233
 9825SOL     OW31481   9.389   1.925   0.947 -0.3593 -0.5181  0.5071
 9825SOL    HW131482   9.411   1.874   0.869 -1.2723  0.6832 -0.5744
 9825SOL    HW231483   9.467   1.920   1.002 -0.5308 -3.3571  0.6326
 9826SOL     OW31484   3.537  10.629  10.669 -0.3103  0.2430  0.3914
 9826SOL    HW131485   3.471  10.689  10.633 -0.4008 -0.7910 -1.3099
 9826SOL    HW231486   3.617  10.681  10.674 -0.4451  0.6065 -0.8495
 9827SOL     OW31487   3.297   9.376   9.255  0.2515  0.0936  0.5223
 9827SOL    HW131488   3.221   9.323   9.277  0.0101 -0.8986 -2.2686
 9827SOL    HW231489   3.372   9.317   9.263  0.2275 -0.1043 -0.5047
 9828SOL     OW31490   7.182   0.060   7.637  0.1254 -0.2810 -0.4331
 9828SOL    HW131491   7.119   0.132   7.649 -0.8760 -1.0293 -0.9858
 9828SOL    HW231492   7.234   0.087   7.562 -0.2509 -0.1215 -0.6440
 9829SOL     OW31493   3.389   4.369   8.980  0.1453 -0.7710 -0.0670
 9829SOL    HW131494   3.459   4.309   8.954  0.0865 -1.7781  1.9080
 9829SOL    HW231495   3.309   4.322   8.958  0.0975 -0.6020 -0.2501
 9830SOL     OW31496   9.417   7.776   3.121 -0.0980  0.0442 -0.3053
 9830SOL    HW131497   9.330   7.804   3.148  0.2063  0.7161  0.0116
 9830SOL    HW231498   9.407   7.684   3.096 -0.8959  0.1248 -0.2950
 9831SOL     OW31499   9.831   9.312   4.828 -0.3956  0.0789  0.7151
 9831SOL    HW131500   9.835   9.406   4.848  2.3647  0.6989 -1.9260
 9831SOL    HW231501   9.917   9.279   4.854  0.6061 -0.5403 -2.8811
 9832SOL     OW31502   9.010   5.225   5.443  0.2031  0.3528  0.2197
 9832SOL    HW131503   9.000   5.255   5.534  0.9627  1.2278  0.0287
 9832SOL    HW231504   8.953   5.282   5.392  0.5749  0.5524  0.0220
 9833SOL     OW31505   8.760   1.991   4.585  0.5554 -0.3846  0.5681
 9833SOL    HW131506   8.686   2.045   4.559  1.3880 -0.1063 -1.3411
 9833SOL    HW231507   8.721   1.922   4.639 -0.8293  0.7587  1.0832
 9834SOL     OW31508   6.837   2.818  10.070  0.2114  0.2764 -0.4738
 9834SOL    HW131509   6.859   2.908  10.046 -1.5607  0.6672 -0.8049
 9834SOL    HW231510   6.841   2.770   9.987 -1.2562  0.6151 -0.7775
 9835SOL     OW31511  10.307   3.768   0.088 -0.1835  0.3756  0.4707
 9835SOL    HW131512  10.280   3.811   0.007  0.3383 -0.2863 -0.0743
 9835SOL    HW231513  10.403   3.770   0.085 -0.1409 -0.8615  0.3905
 9836SOL     OW31514   1.422   3.159   6.930 -0.3133  0.7418 -0.2068
 9836SOL    HW131515   1.475   3.150   6.851 -0.2110  1.2362 -0.1965
 9836SOL    HW231516   1.481   3.137   7.002 -0.3005  0.6615 -0.2425
 9837SOL     OW31517   5.101   9.420   4.006  0.0172  0.2317  0.3055
 9837SOL    HW131518   5.116   9.329   3.978  1.6802 -0.0761  2.0162
 9837SOL    HW231519   5.018   9.417   4.053 -0.1639 -0.2954 -0.0319
 9838SOL     OW31520   6.719   7.657   4.788  0.0901 -0.1064 -0.0652
 9838SOL    HW131521   6.628   7.625   4.790 -0.2801  0.8459 -1.0804
 9838SOL    HW231522   6.772   7.578   4.801 -0.8545 -0.7923 -0.2635
 9839SOL     OW31523   0.842   6.758   7.322 -0.0674  0.3679 -0.2497
 9839SOL    HW131524   0.853   6.834   7.264  1.9361  0.5550  0.3058
 9839SOL    HW231525   0.871   6.788   7.408 -3.8160  0.3632  1.1980
 9840SOL     OW31526   1.535   2.500   5.747 -0.0280  0.1313 -0.2236
 9840SOL    HW131527   1.560   2.534   5.661  0.1582  1.0503  0.1715
 9840SOL    HW231528   1.452   2.455   5.733  0.4872 -0.5704 -1.0606
 9841SOL     OW31529   9.418   6.610   0.175  0.3206 -0.2417  0.1097
 9841SOL    HW131530   9.417   6.701   0.207  2.3404  0.2860 -1.1168
 9841SOL    HW231531   9.326   6.589   0.160 -0.1448  2.2837 -1.2664
 9842SOL     OW31532   5.031   8.974   3.306 -0.1796  0.3379 -0.4673
 9842SOL    HW131533   4.991   8.930   3.230  1.0031 -0.3421 -0.7240
 9842SOL    HW231534   5.072   9.052   3.269  0.6629 -0.1552 -0.5959
 9843SOL     OW31535   4.842   8.910   3.577 -0.0217 -0.7035 -0.2029
 9843SOL    HW131536   4.895   8.831   3.591  1.6677  0.0361 -2.0224
 9843SOL    HW231537   4.866   8.940   3.490 -1.2741  1.3669  0.0997
 9844SOL     OW31538   5.613   3.594   8.768  0.0674  0.0668 -0.2177
 9844SOL    HW131539   5.543   3.578   8.704  0.5336 -0.5374 -0.5839
 9844SOL    HW231540   5.605   3.522   8.831 -0.5514  0.7997  0.5596
 9845SOL     OW31541   7.318   6.185  10.070 -0.2956 -0.2674  0.1117
 9845SOL    HW131542   7.292   6.190   9.978  1.7155 -1.8543 -0.6122
 9845SOL    HW231543   7.404   6.144  10.068 -0.4373 -0.8340  2.7643
 9846SOL     OW31544   1.746   2.089   1.373  0.6714  0.1884 -0.4041
 9846SOL    HW131545   1.704   2.060   1.454  0.8320  0.1534 -0.3330
 9846SOL    HW231546   1.778   2.177   1.393  1.3200 -0.0858 -0.2058
 9847SOL     OW31547   2.154   6.414   9.294 -0.4713  0.0586 -0.0558
 9847SOL    HW131548   2.227   6.356   9.316 -1.8566 -1.4874  0.6139
 9847SOL    HW231549   2.192   6.478   9.234  1.5431 -0.4101  0.6398
 9848SOL     OW31550   5.625   8.538   9.950  0.3248 -0.2764 -0.3885
 9848SOL    HW131551   5.558   8.588   9.997  0.1906  0.3839 -1.2480
 9848SOL    HW231552   5.679   8.500  10.019  0.0010  0.4719  0.3046
 9849SOL     OW31553   9.622   0.642   3.158  0.2993 -0.0788 -0.2358
 9849SOL    HW131554   9.577   0.593   3.089 -0.6283 -0.2683  0.4896
 9849SOL    HW231555   9.715   0.628   3.140  0.0700 -2.0842 -0.0908
 9850SOL     OW31556   1.056   2.296   4.932  0.6874 -0.5693  0.8551
 9850SOL    HW131557   1.038   2.235   4.861  0.6801 -0.7611  1.0209
 9850SOL    HW231558   1.027   2.381   4.899  2.6138 -0.2477 -0.1979
 9851SOL     OW31559   4.711   1.552   0.090 -0.4591  0.4176  0.9661
 9851SOL    HW131560   4.735   1.584   0.177  1.5342  1.8970 -0.0585
 9851SOL    HW231561   4.734   1.459   0.092  0.3219  0.6175  1.7699
 9852SOL     OW31562   9.135   3.438   1.438  0.7027  0.2853 -0.4286
 9852SOL    HW131563   9.222   3.439   1.398 -0.0094  0.5093 -2.0063
 9852SOL    HW231564   9.088   3.369   1.392 -0.8687  2.0741 -1.6430
 9853SOL     OW31565   2.563   6.035   3.423 -0.0936  0.4524  0.0207
 9853SOL    HW131566   2.538   6.051   3.514  0.3639 -1.6205  0.5502
 9853SOL    HW231567   2.479   6.031   3.376 -0.3581  1.0255  0.4254
 9854SOL     OW31568   5.927   5.309   4.965 -0.4703  0.3369  0.3582
 9854SOL    HW131569   6.014   5.285   4.998 -0.7114 -1.2593 -0.0664
 9854SOL    HW231570   5.866   5.273   5.030 -0.8499  3.6983  2.0688
 9855SOL     OW31571   6.422   3.427   6.681  0.6126  0.1007  0.0472
 9855SOL    HW131572   6.471   3.509   6.680  0.9272 -0.0845 -0.4896
 9855SOL    HW231573   6.470   3.370   6.741 -0.4409  0.7927  1.5840
 9856SOL     OW31574  10.626   2.039   4.939  0.3489 -0.9073 -0.4024
 9856SOL    HW131575  10.694   2.105   4.926 -0.1848 -0.3048 -0.1556
 9856SOL    HW231576  10.548   2.075   4.897 -0.8401  0.1463  2.4556
 9857SOL     OW31577   8.383  10.310   0.404  0.0818 -0.4069 -0.7968
 9857SOL    HW131578   8.297  10.270   0.419 -1.6735  2.4078 -2.3141
 9857SOL    HW231579   8.385  10.325   0.309  1.1410  1.7762 -0.4869
 9858SOL     OW31580   0.722   2.541   7.342  0.0577  0.2545  0.5016
 9858SOL    HW131581   0.792   2.551   7.406  1.6760 -0.2175 -1.1199
 9858SOL    HW231582   0.682   2.628   7.337  0.7026  0.6056  1.2422
 9859SOL     OW31583   0.703   1.179   9.048 -0.6084 -0.5153  0.7216
 9859SOL    HW131584   0.752   1.254   9.082 -1.2261  0.6995 -0.8996
 9859SOL    HW231585   0.613   1.212   9.039 -0.7829 -1.2694 -0.4925
 9860SOL     OW31586   1.582   2.863   0.963  0.0205  0.1028  0.5441
 9860SOL    HW131587   1.619   2.902   1.043 -0.2024  0.4956  0.4593
 9860SOL    HW231588   1.525   2.931   0.928 -0.6366 -0.4288  0.5749
 9861SOL     OW31589   1.785   5.242   9.766  0.4096 -0.5123 -0.1225
 9861SOL    HW131590   1.875   5.245   9.798  0.6710 -3.2179 -0.3406
 9861SOL    HW231591   1.731   5.248   9.844  0.7118  1.4861 -0.0210
 9862SOL     OW31592   1.877   9.721   1.963 -0.3749 -0.7581 -0.3354
 9862SOL    HW131593   1.855   9.661   1.891 -1.5559 -1.5483  0.6525
 9862SOL    HW231594   1.814   9.792   1.955  3.0177  2.3225 -3.5587
 9863SOL     OW31595   4.731   2.108   7.937 -0.1417  0.2706  0.0305
 9863SOL    HW131596   4.675   2.095   8.013  0.0225 -0.4565  0.0306
 9863SOL    HW231597   4.670   2.111   7.863 -0.1613 -1.1191 -0.0395
 9864SOL     OW31598   6.050   5.794   4.127 -0.5164  0.0743  0.0755
 9864SOL    HW131599   6.032   5.807   4.220 -0.9095  1.5572 -0.1856
 9864SOL    HW231600   6.084   5.879   4.097  0.3309 -0.6122 -0.9693
 9865SOL     OW31601   4.421   4.960   1.708  0.3991 -0.7377  0.9279
 9865SOL    HW131602   4.337   4.923   1.735 -0.1243  0.6166  1.2665
 9865SOL    HW231603   4.447   5.015   1.782 -0.6193  2.3620 -0.8525
 9866SOL     OW31604  10.985   1.682   9.436  0.3574  0.0580 -0.1158
 9866SOL    HW131605  10.936   1.748   9.387 -0.9604 -0.3583  0.5835
 9866SOL    HW231606  11.069   1.723   9.455 -0.1832  1.2746 -0.2773
 9867SOL     OW31607   4.504   3.609   8.063  0.1068  0.5851  0.6330
 9867SOL    HW131608   4.545   3.690   8.093  0.5271  0.3416  0.7223
 9867SOL    HW231609   4.516   3.547   8.135  0.8480  0.0919  0.0996
 9868SOL     OW31610   8.108   8.142   4.040 -0.2790 -0.0073 -0.0733
 9868SOL    HW131611   8.110   8.146   3.945 -1.0662 -0.1154 -0.0994
 9868SOL    HW231612   8.200   8.145   4.066 -0.0775  0.6726 -0.8085
 9869SOL     OW31613   9.758   5.742   8.732  0.0127  0.6703  0.3865
 9869SOL    HW131614   9.789   5.829   8.757  0.0394  1.3012 -1.6179
 9869SOL    HW231615   9.810   5.719   8.655 -1.5150 -0.1236 -0.4727
 9870SOL     OW31616   0.495   7.730   5.006  0.2251  0.0659  0.3200
 9870SOL    HW131617   0.408   7.690   5.000  0.2550 -0.4570  2.4726
 9870SOL    HW231618   0.495   7.798   4.939 -2.3263  0.9280  1.0589
 9871SOL     OW31619   4.962   8.388   4.126 -0.2631  0.0581  0.4311
 9871SOL    HW131620   4.920   8.437   4.055 -0.4104 -0.1812  0.3502
 9871SOL    HW231621   5.023   8.450   4.166 -0.4807  0.3174  0.3592
 9872SOL     OW31622  10.604   1.658   5.907  0.7765  0.2412  1.0315
 9872SOL    HW131623  10.530   1.691   5.855 -0.3132 -2.4981  0.6748
 9872SOL    HW231624  10.673   1.723   5.894 -0.1429  0.7860 -2.1585
 9873SOL     OW31625   0.216   8.893   4.018  0.1430  0.0714 -0.1789
 9873SOL    HW131626   0.226   8.813   3.966 -2.1356 -0.4125  0.0226
 9873SOL    HW231627   0.195   8.862   4.106 -0.0507  0.8989  0.0777
 9874SOL     OW31628  10.303   9.458   8.571 -0.4920 -0.3311  0.0453
 9874SOL    HW131629  10.227   9.440   8.627 -0.9811 -0.0215 -0.5031
 9874SOL    HW231630  10.304   9.385   8.509 -0.9466  0.1800 -0.5755
 9875SOL     OW31631   4.043   5.030   9.522 -0.1976 -0.4694 -0.2833
 9875SOL    HW131632   4.117   5.057   9.575 -0.7125  1.2007 -0.3449
 9875SOL    HW231633   4.004   5.112   9.492 -0.9477 -1.3354 -1.8144
 9876SOL     OW31634   9.546   0.759   2.754  0.3093 -0.5310 -0.7558
 9876SOL    HW131635   9.463   0.789   2.789  0.0994 -2.3159  0.4256
 9876SOL    HW231636   9.592   0.839   2.729 -1.2119  0.5701 -0.1951
 9877SOL     OW31637   6.997   7.102   1.270  0.3108  0.4213  0.4308
 9877SOL    HW131638   6.993   7.121   1.363  0.7038 -0.1220  0.5611
 9877SOL    HW231639   6.983   7.008   1.263  1.0866  0.3199  0.0171
 9878SOL     OW31640   0.068  10.777   2.874 -0.0271  0.9471  0.3702
 9878SOL    HW131641   0.112  10.856   2.907  1.5259 -0.4841  1.9831
 9878SOL    HW231642   0.048  10.726   2.953  1.2185 -1.3413 -0.6787
 9879SOL     OW31643   7.003   8.881   7.145 -1.0572  0.7945 -0.1772
 9879SOL    HW131644   6.934   8.816   7.139  1.0045 -1.4278 -1.7242
 9879SOL    HW231645   6.990   8.938   7.069 -0.3695 -0.5671 -1.3633
 9880SOL     OW31646   1.486   3.765   1.561 -0.0212  0.2365  0.1844
 9880SOL    HW131647   1.436   3.820   1.500 -1.3914 -0.6486  0.4727
 9880SOL    HW231648   1.456   3.676   1.542  1.9953 -0.4164 -0.1148
 9881SOL     OW31649   3.455   0.132   0.398 -0.6493  0.1440 -0.3289
 9881SOL    HW131650   3.457   0.196   0.469 -0.7143  0.7145 -0.8317
 9881SOL    HW231651   3.540   0.141   0.356 -0.5614 -0.2842 -0.2441
 9882SOL     OW31652   1.467   2.246   3.394 -0.7628  0.5964 -0.0816
 9882SOL    HW131653   1.536   2.305   3.424 -0.1595 -0.0349 -0.1838
 9882SOL    HW231654   1.405   2.242   3.466  0.0027  0.1167  0.5754
 9883SOL     OW31655   2.385   8.363   5.265  0.6732 -0.1362 -0.4454
 9883SOL    HW131656   2.476   8.356   5.235  0.6859 -3.2487 -0.1079
 9883SOL    HW231657   2.348   8.276   5.248 -1.1678 -0.1149  2.6212
 9884SOL     OW31658   4.351   1.275   1.188 -0.1874 -0.3055 -0.3849
 9884SOL    HW131659   4.430   1.229   1.160  0.8997  0.3925  1.3390
 9884SOL    HW231660   4.379   1.366   1.197 -1.8531  0.4330 -2.0598
 9885SOL     OW31661   4.974   3.623   3.516  0.2887  0.0003  0.0296
 9885SOL    HW131662   4.894   3.570   3.518 -0.3500  0.9386  1.8899
 9885SOL    HW231663   5.024   3.587   3.443 -0.5065 -2.5731  0.6256
 9886SOL     OW31664  10.874  11.039   1.261 -0.6036 -0.0166  0.2993
 9886SOL    HW131665  10.908  11.128   1.273 -1.6543  0.2041  1.7914
 9886SOL    HW231666  10.906  10.991   1.337 -1.7710 -0.3676  0.5812
 9887SOL     OW31667   5.316   0.174   5.724  0.1046  0.0741 -0.2645
 9887SOL    HW131668   5.365   0.224   5.790 -1.0929  1.4564 -0.3658
 9887SOL    HW231669   5.323   0.083   5.753  0.2435  0.5624  1.3483
 9888SOL     OW31670   1.814   0.489   2.988 -0.4392  0.0664 -0.6977
 9888SOL    HW131671   1.902   0.505   2.954 -0.8459  2.8879 -0.6800
 9888SOL    HW231672   1.827   0.471   3.081  0.0934  1.6139 -0.4449
 9889SOL     OW31673   9.669   2.141   5.050 -0.0738 -0.8321  0.1576
 9889SOL    HW131674   9.585   2.182   5.030 -0.5000 -2.3244 -1.4010
 9889SOL    HW231675   9.647   2.051   5.075  1.0117 -1.0549  0.4043
 9890SOL     OW31676   8.005   4.244   4.060 -0.4226  0.8214  0.6387
 9890SOL    HW131677   7.934   4.307   4.045  1.2245  2.2589 -1.8237
 9890SOL    HW231678   8.077   4.298   4.094 -0.1457 -0.4492  2.1713
 9891SOL     OW31679   4.488   4.070   0.094  0.2242 -0.8102  0.2211
 9891SOL    HW131680   4.395   4.058   0.112 -0.0089  0.0937 -0.3251
 9891SOL    HW231681   4.500   4.165   0.092  0.6011 -0.8353 -2.5129
 9892SOL     OW31682   0.817   4.354   8.121  0.3923 -0.2413  0.4908
 9892SOL    HW131683   0.736   4.375   8.075  0.4839 -0.2429  0.3266
 9892SOL    HW231684   0.804   4.387   8.210  0.2651 -0.1173  0.4262
 9893SOL     OW31685   0.299   1.473   9.356  0.0955 -0.4627 -0.6893
 9893SOL    HW131686   0.267   1.554   9.398  1.2931  0.0608 -0.7649
 9893SOL    HW231687   0.367   1.441   9.415 -2.4285 -3.1812  1.0145
 9894SOL     OW31688   7.048   8.319   2.985  0.2178  0.0810  0.1439
 9894SOL    HW131689   7.020   8.297   2.896 -0.8815 -0.7808  0.6592
 9894SOL    HW231690   7.118   8.383   2.975  0.8350 -0.7915 -1.3653
 9895SOL     OW31691   3.966   6.139   7.538 -0.2405  0.0846  0.8755
 9895SOL    HW131692   3.926   6.065   7.584  1.2782  1.1103  4.0821
 9895SOL    HW231693   4.060   6.124   7.545  0.0716  1.1941 -0.4461
 9896SOL     OW31694   5.318   1.027   2.597  0.8196  0.6120  0.4872
 9896SOL    HW131695   5.369   0.993   2.523  1.3283  2.0053  0.1821
 9896SOL    HW231696   5.291   1.114   2.569  0.5000  0.9113  1.7121
 9897SOL     OW31697   0.493   3.598  10.655  0.8686  0.2038 -0.0691
 9897SOL    HW131698   0.446   3.620  10.574  1.3261 -1.1546 -0.7380
 9897SOL    HW231699   0.440   3.529  10.695  2.1003 -1.1666 -0.7026
 9898SOL     OW31700   0.076   3.069   0.060  0.4373 -0.4682 -0.5126
 9898SOL    HW131701   0.061   3.162   0.044 -0.8384 -0.5098  0.2697
 9898SOL    HW231702   0.170   3.057   0.050  0.8903  1.2921  1.1690
 9899SOL     OW31703   1.278   4.847   9.002  0.5421  0.6891 -0.1558
 9899SOL    HW131704   1.339   4.898   9.055  2.0860 -0.5470 -0.6671
 9899SOL    HW231705   1.287   4.758   9.035 -0.1922  0.3022 -0.9704
 9900SOL     OW31706   6.295   5.710  10.572  0.4647  0.1472 -0.5067
 9900SOL    HW131707   6.241   5.727  10.494  1.0257 -0.3061 -1.0054
 9900SOL    HW231708   6.299   5.615  10.577  1.2118  0.1760 -0.4758
 9901SOL     OW31709   9.222  10.050   5.841  0.2243  0.0733  0.2764
 9901SOL    HW131710   9.308  10.016   5.815 -0.6267 -0.7847 -1.6400
 9901SOL    HW231711   9.160   9.982   5.815 -1.1381  1.1335  0.5994
 9902SOL     OW31712   1.830  10.729  10.400  0.9761  0.6311  0.1239
 9902SOL    HW131713   1.784  10.807  10.369  1.9956  0.9706 -0.5898
 9902SOL    HW231714   1.895  10.711  10.332  0.1843 -1.3801 -0.1666
 9903SOL     OW31715   2.260   6.718   9.538  0.4489 -0.0718 -0.5026
 9903SOL    HW131716   2.230   6.631   9.567 -0.5092  1.0986  2.3701
 9903SOL    HW231717   2.259   6.771   9.618  2.2755  2.2725 -1.9211
 9904SOL     OW31718   8.581   0.553   9.541  0.1199  0.0141 -0.5252
 9904SOL    HW131719   8.528   0.474   9.529 -0.3941  0.0889  1.1030
 9904SOL    HW231720   8.639   0.554   9.465 -0.3834 -1.5194 -0.9628
 9905SOL     OW31721   9.116   3.182   9.141 -0.5682 -0.0135 -0.2666
 9905SOL    HW131722   9.025   3.213   9.134  0.1061  2.4621  0.6298
 9905SOL    HW231723   9.131   3.133   9.061 -3.7591 -3.8221  1.1527
 9906SOL     OW31724  10.283   6.130   1.885 -0.5223  0.0683 -0.0870
 9906SOL    HW131725  10.289   6.224   1.873 -0.0195  0.1493  0.6947
 9906SOL    HW231726  10.204   6.104   1.838 -1.1629  1.0094  0.4591
 9907SOL     OW31727   2.326   3.347   9.410  0.9647  0.1424 -0.1775
 9907SOL    HW131728   2.311   3.439   9.431  0.3986  0.5402 -2.1733
 9907SOL    HW231729   2.307   3.339   9.317 -1.0481 -2.4170  0.3150
 9908SOL     OW31730   3.473   3.639   1.246 -0.0721 -0.3646  0.4644
 9908SOL    HW131731   3.492   3.591   1.326  0.6788  0.6194  0.8970
 9908SOL    HW231732   3.547   3.700   1.236 -0.3913 -0.1347 -0.7139
 9909SOL     OW31733   8.406   1.489   9.595  0.0346  0.1425  0.5953
 9909SOL    HW131734   8.393   1.447   9.510  0.1027  2.4213 -0.6040
 9909SOL    HW231735   8.497   1.518   9.594  0.0177  0.2530  1.4427
 9910SOL     OW31736   7.034   8.294   7.798 -0.2467  0.2245  0.7169
 9910SOL    HW131737   7.086   8.367   7.765  1.6007  0.7834  4.2751
 9910SOL    HW231738   6.962   8.285   7.736  0.9779  3.2020 -1.3784
 9911SOL     OW31739   2.065   3.162   9.659 -0.3378 -0.1109  0.3731
 9911SOL    HW131740   2.056   3.078   9.704 -0.8994 -0.1123  0.2664
 9911SOL    HW231741   1.982   3.207   9.676  0.1959  0.6883  0.9747
 9912SOL     OW31742   2.715   6.174  10.424  0.2980  0.0320  0.2039
 9912SOL    HW131743   2.736   6.086  10.454  1.3061  0.0182 -0.4943
 9912SOL    HW231744   2.754   6.231  10.490  3.2289  0.0243 -1.3432
 9913SOL     OW31745   9.007   4.068  11.012 -0.0505  0.1019 -0.3822
 9913SOL    HW131746   9.018   4.163  11.019 -0.8043  0.0882  1.6183
 9913SOL    HW231747   9.066   4.032  11.078 -0.6137 -0.7476 -0.3332
 9914SOL     OW31748   0.554   1.782   1.992  0.3533  0.4762  0.1133
 9914SOL    HW131749   0.518   1.697   1.967  2.7590 -0.6282  0.1267
 9914SOL    HW231750   0.477   1.834   2.018 -1.1962 -1.6181 -0.0267
 9915SOL     OW31751   6.775   8.887   2.947 -0.6183 -0.2883 -0.5578
 9915SOL    HW131752   6.686   8.918   2.930 -0.8958  0.4779  1.8517
 9915SOL    HW231753   6.764   8.803   2.991 -0.0915 -0.6008 -0.9962
 9916SOL     OW31754   1.137   0.935   8.318 -0.3135  0.1108  0.1254
 9916SOL    HW131755   1.095   0.849   8.319  0.1476 -0.1538 -1.4497
 9916SOL    HW231756   1.164   0.948   8.227  2.5202  0.5107  0.9406
 9917SOL     OW31757   1.367  10.476  10.703  0.0421  0.3518  0.0737
 9917SOL    HW131758   1.432  10.541  10.678  0.5745  0.8290  2.4580
 9917SOL    HW231759   1.287  10.526  10.716 -0.5425 -0.0616 -1.6606
 9918SOL     OW31760   0.449   2.348   2.701 -0.5964 -0.8704  0.1332
 9918SOL    HW131761   0.370   2.310   2.739 -1.5558 -0.3124 -1.2377
 9918SOL    HW231762   0.419   2.425   2.653  0.9661  0.1632  0.7130
 9919SOL     OW31763   9.224   0.844   5.497 -0.2561  1.6021 -0.0812
 9919SOL    HW131764   9.130   0.858   5.491 -0.5107  0.0721 -0.1718
 9919SOL    HW231765   9.263   0.923   5.459 -1.4630  2.7456  0.9396
 9920SOL     OW31766   0.633   6.800   3.702  0.1648  0.0385 -0.1933
 9920SOL    HW131767   0.700   6.803   3.633  0.8677 -1.2818  0.4144
 9920SOL    HW231768   0.570   6.734   3.671 -1.6431  2.1697 -1.3980
 9921SOL     OW31769   7.557   5.552   3.325 -0.0096 -0.2418 -0.2635
 9921SOL    HW131770   7.463   5.544   3.342 -0.4093 -0.5372 -2.3528
 9921SOL    HW231771   7.562   5.606   3.246  1.6638  0.9790  0.6129
 9922SOL     OW31772   7.727   8.013   7.515 -0.2435  0.3075  0.2219
 9922SOL    HW131773   7.675   7.942   7.553 -0.8242  0.5796 -0.0564
 9922SOL    HW231774   7.793   8.033   7.582  0.3788 -0.9627  0.0233
 9923SOL     OW31775   7.536  10.953   0.280 -0.0450 -0.3618 -0.3645
 9923SOL    HW131776   7.497  10.932   0.195 -1.8948  1.7386 -0.1124
 9923SOL    HW231777   7.588  11.031   0.264 -0.1949 -0.1039  0.3878
 9924SOL     OW31778   3.526   1.304   2.079 -0.4235 -0.5831  0.2546
 9924SOL    HW131779   3.484   1.336   1.999 -3.0421 -1.5785  1.1124
 9924SOL    HW231780   3.518   1.208   2.074  2.7594 -0.9350  0.0363
 9925SOL     OW31781   4.188   6.593   6.808  0.6460 -0.0615  0.0931
 9925SOL    HW131782   4.145   6.671   6.774  0.3716  0.0644  0.7088
 9925SOL    HW231783   4.117   6.529   6.819  1.0212 -0.8068 -1.4640
 9926SOL     OW31784   8.029   5.908   8.979  0.5782  0.3809  0.4364
 9926SOL    HW131785   8.054   5.970   8.911  0.1280 -0.3597 -0.4267
 9926SOL    HW231786   8.103   5.848   8.987 -1.2580 -2.9858 -3.4584
 9927SOL     OW31787   8.718   5.575   6.735 -0.0731  0.0493 -0.3198
 9927SOL    HW131788   8.721   5.566   6.640 -1.7120  2.4063 -0.6687
 9927SOL    HW231789   8.807   5.598   6.760 -0.2147  2.4675 -1.7200
 9928SOL     OW31790   3.015   8.614   8.551  0.0436  0.2146 -0.2044
 9928SOL    HW131791   2.940   8.583   8.601  0.0834  0.3675 -0.0457
 9928SOL    HW231792   3.090   8.570   8.591  0.1928  1.1191  0.5591
 9929SOL     OW31793   7.851  10.139   9.127  0.5731  0.2390  0.6945
 9929SOL    HW131794   7.872  10.062   9.075 -2.2321 -1.1342  1.3910
 9929SOL    HW231795   7.925  10.148   9.187  2.0096 -0.5139 -0.8772
 9930SOL     OW31796   9.297   8.526   3.511 -0.5188  0.1382  0.3817
 9930SOL    HW131797   9.296   8.622   3.510 -1.8583  0.1441  0.0274
 9930SOL    HW231798   9.237   8.501   3.440 -0.9233 -0.9507  1.0816
 9931SOL     OW31799   3.080  10.107   5.224 -0.0207  0.0006  0.2296
 9931SOL    HW131800   3.148  10.144   5.169  0.8985 -2.8736 -0.7556
 9931SOL    HW231801   3.004  10.163   5.210  1.3792  1.7472 -0.6938
 9932SOL     OW31802   0.525   6.565   3.608 -0.5355 -0.8760 -0.6274
 9932SOL    HW131803   0.449   6.534   3.656  1.1913 -1.5190  1.9385
 9932SOL    HW231804   0.590   6.496   3.620  1.4375  0.9703 -0.0461
 9933SOL     OW31805   8.075   2.070   1.784  0.2153 -0.1478  0.0327
 9933SOL    HW131806   8.103   2.022   1.863 -2.0585 -1.0488  0.3763
 9933SOL    HW231807   7.996   2.023   1.755  0.5110  0.6995 -2.3006
 9934SOL     OW31808   7.517   2.931   7.920  0.0084 -0.1928  0.5393
 9934SOL    HW131809   7.435   2.907   7.877  0.0090  0.4908  0.1311
 9934SOL    HW231810   7.552   2.849   7.952 -0.3083 -0.6468 -0.2344
 9935SOL     OW31811   4.857  10.832   2.494 -0.2398 -0.6219  0.2326
 9935SOL    HW131812   4.771  10.817   2.535  0.1928 -1.5973  0.8091
 9935SOL    HW231813   4.861  10.768   2.423  0.6507 -1.6888  1.2114
 9936SOL     OW31814   7.828   1.647   6.113  0.8691 -0.3004  0.1727
 9936SOL    HW131815   7.830   1.710   6.041 -0.7305 -0.3224  0.0621
 9936SOL    HW231816   7.917   1.611   6.117  1.9549  2.2292  0.5071
 9937SOL     OW31817   9.278   7.645  10.678  0.2161  0.1298 -0.1080
 9937SOL    HW131818   9.280   7.682  10.767 -3.0452 -0.3636  0.3060
 9937SOL    HW231819   9.250   7.554  10.691  0.2958 -0.1229 -1.5995
 9938SOL     OW31820   1.563   1.392   6.814 -0.3542 -0.4187 -0.1843
 9938SOL    HW131821   1.570   1.296   6.816  2.0250 -0.2878 -0.1104
 9938SOL    HW231822   1.635   1.423   6.869 -0.3301  1.4355 -1.1776
 9939SOL     OW31823   4.739  10.829   6.762  0.3121  0.9657  0.5765
 9939SOL    HW131824   4.665  10.882   6.733 -1.7097 -3.0890 -2.7258
 9939SOL    HW231825   4.700  10.761   6.817  1.7455 -0.5674 -0.2244
 9940SOL     OW31826   4.924   8.491   6.319  0.2289 -0.1329 -0.6974
 9940SOL    HW131827   4.911   8.397   6.302  2.3307 -0.3513 -1.2862
 9940SOL    HW231828   4.918   8.532   6.233 -0.7188  0.2987 -0.4339
 9941SOL     OW31829   3.060   3.484   9.963  0.7379 -0.7822 -0.4255
 9941SOL    HW131830   2.999   3.476   9.890 -0.5374 -3.4491  0.8178
 9941SOL    HW231831   3.140   3.518   9.923 -0.7641  0.5337 -2.5203
 9942SOL     OW31832   5.798   2.646   8.644  0.2543 -0.5546  0.3748
 9942SOL    HW131833   5.872   2.620   8.699  0.3433  1.2373  1.1745
 9942SOL    HW231834   5.725   2.591   8.674  0.5219 -0.2211  1.6841
 9943SOL     OW31835   2.437   1.412  10.958  0.1185  0.2232  0.3346
 9943SOL    HW131836   2.446   1.404  11.053 -1.0350 -0.3862  0.4128
 9943SOL    HW231837   2.521   1.447  10.929  1.9079 -2.9455  1.1936
 9944SOL     OW31838   6.819   7.252   2.801  0.2966  0.1959  0.0869
 9944SOL    HW131839   6.736   7.298   2.813 -1.1161 -2.4921  1.3286
 9944SOL    HW231840   6.875   7.285   2.872 -0.9114 -0.4033  1.3577
 9945SOL     OW31841  11.062   5.826   5.809 -0.2977  0.3752  0.0689
 9945SOL    HW131842  10.972   5.805   5.786 -0.1146  2.1098 -2.6509
 9945SOL    HW231843  11.115   5.761   5.763 -0.0890  1.1916 -0.8831
 9946SOL     OW31844   4.161  10.419   1.298 -0.4247 -0.5405  0.2033
 9946SOL    HW131845   4.118  10.478   1.360 -1.5593 -0.3802 -0.7042
 9946SOL    HW231846   4.158  10.333   1.342  0.1701 -0.1606  1.0145
 9947SOL     OW31847   7.334   0.714   2.308 -0.1850  0.1152  0.3324
 9947SOL    HW131848   7.278   0.789   2.289 -3.2472 -1.6603  1.6433
 9947SOL    HW231849   7.350   0.673   2.223 -1.2452  0.4304 -0.0259
 9948SOL     OW31850   9.913   0.659   6.342 -0.7260 -0.3729  0.6978
 9948SOL    HW131851   9.946   0.643   6.254 -2.3423 -1.0823  0.1685
 9948SOL    HW231852   9.885   0.572   6.373  2.0912 -0.6195  2.9428
 9949SOL     OW31853   4.627   1.746  10.379  0.4242 -0.0634  0.5864
 9949SOL    HW131854   4.552   1.762  10.322 -0.9252 -3.8389  0.9905
 9949SOL    HW231855   4.678   1.827  10.375 -2.4579  1.8683 -1.5028
 9950SOL     OW31856   4.924   6.860   4.270 -0.0277 -1.1813  0.2236
 9950SOL    HW131857   4.977   6.789   4.307  0.6469 -2.0454 -2.1874
 9950SOL    HW231858   4.988   6.925   4.241 -0.4664 -0.8147  0.0648
 9951SOL     OW31859  10.632   0.831   8.623  0.0115  0.7656  0.5367
 9951SOL    HW131860  10.710   0.798   8.668 -0.0855  0.2424  0.3261
 9951SOL    HW231861  10.630   0.783   8.541 -0.3163  1.0674  0.3670
 9952SOL     OW31862   1.407   1.098   1.655 -0.0007  0.1234 -0.2801
 9952SOL    HW131863   1.358   1.059   1.582 -0.6822  2.0040 -0.8670
 9952SOL    HW231864   1.406   1.030   1.722 -1.5644 -0.6985 -1.0759
 9953SOL     OW31865   5.206  10.948   1.973 -0.1224 -0.5636  0.6571
 9953SOL    HW131866   5.205  11.010   2.046  0.2625  1.7414 -1.1891
 9953SOL    HW231867   5.120  10.959   1.932  0.2571 -0.6239 -0.1704
 9954SOL     OW31868  10.310   0.800   8.635  0.4379 -1.0751  0.5083
 9954SOL    HW131869  10.316   0.710   8.667 -1.8272 -1.4033  0.1510
 9954SOL    HW231870  10.397   0.837   8.650  0.6007 -2.4051  3.3670
 9955SOL     OW31871   3.530   0.431   4.231 -0.7141  0.2750 -0.3487
 9955SOL    HW131872   3.466   0.378   4.183 -1.0242  2.2417 -2.2220
 9955SOL    HW231873   3.477   0.491   4.284 -0.5565  2.3845 -2.4305
 9956SOL     OW31874  10.803   7.598   7.055  0.1461 -0.1570  0.1335
 9956SOL    HW131875  10.788   7.574   7.146  0.9221 -1.3409 -0.0236
 9956SOL    HW231876  10.890   7.564   7.035 -0.7302 -1.6152 -1.5755
 9957SOL     OW31877   1.619  10.560   9.461 -0.5186  0.0466 -0.3939
 9957SOL    HW131878   1.527  10.555   9.489 -0.1513 -4.5450  0.8001
 9957SOL    HW231879   1.619  10.523   9.372  0.1343  0.6375 -0.6479
 9958SOL     OW31880   4.352   2.583  10.211  0.0737 -0.1985 -0.2714
 9958SOL    HW131881   4.324   2.492  10.223  0.1482 -0.0494  1.0961
 9958SOL    HW231882   4.448   2.578  10.203  0.3814 -0.0212  2.5499
 9959SOL     OW31883   4.808   0.382   8.666  0.3009  0.2584 -0.3711
 9959SOL    HW131884   4.752   0.459   8.659  0.2656  0.2668  0.0244
 9959SOL    HW231885   4.883   0.411   8.718  2.1644  1.1126 -3.2800
 9960SOL     OW31886   2.727   4.403   8.098 -0.1954 -0.2645  0.7090
 9960SOL    HW131887   2.657   4.350   8.060 -0.3185 -0.1679  0.8020
 9960SOL    HW231888   2.768   4.446   8.022 -0.4428 -0.0690  0.6862
 9961SOL     OW31889   6.035   5.641   3.488 -0.8401  0.6395 -0.0815
 9961SOL    HW131890   5.974   5.602   3.551 -0.7795  1.1537  0.3046
 9961SOL    HW231891   6.034   5.581   3.414 -0.2162 -0.4743  0.7720
 9962SOL     OW31892   7.213   1.129  10.406 -0.7890 -0.7602 -0.5922
 9962SOL    HW131893   7.222   1.034  10.419 -1.0692 -0.7319 -0.1697
 9962SOL    HW231894   7.270   1.148  10.332 -1.1782 -1.3507 -1.0505
 9963SOL     OW31895  10.610   2.847   2.890 -0.7019  0.5792 -0.7393
 9963SOL    HW131896  10.702   2.874   2.881  0.8672 -3.1897  1.6649
 9963SOL    HW231897  10.612   2.752   2.880 -3.7987  0.0059  2.3179
 9964SOL     OW31898   5.758   7.819   1.572  0.3705 -0.1194 -0.3377
 9964SOL    HW131899   5.845   7.789   1.546  0.6374 -1.0530  1.4328
 9964SOL    HW231900   5.706   7.816   1.492  1.7791 -0.2207 -1.2833
 9965SOL     OW31901   9.243   3.101   4.339 -0.3224  0.0915  0.3709
 9965SOL    HW131902   9.211   3.015   4.312 -0.0514  0.4818 -1.3227
 9965SOL    HW231903   9.334   3.103   4.312 -0.0646  0.5860  1.2340
 9966SOL     OW31904   7.340   5.274   8.543 -0.2610  0.3092  0.1687
 9966SOL    HW131905   7.332   5.180   8.527 -1.5986  0.3995  0.1855
 9966SOL    HW231906   7.292   5.289   8.624  2.1440  0.6426  1.6201
 9967SOL     OW31907   5.723   0.263  10.021  0.4877  0.5460 -0.1364
 9967SOL    HW131908   5.687   0.339   9.975 -1.9820  0.2380  1.0669
 9967SOL    HW231909   5.752   0.298  10.105 -0.7718  0.2016  0.4713
 9968SOL     OW31910   9.326  11.018   9.819 -0.4905  0.1358  0.0610
 9968SOL    HW131911   9.327  10.960   9.743  0.4392 -2.9146  2.2596
 9968SOL    HW231912   9.418  11.039   9.835 -0.7279  1.3030  0.0279
 9969SOL     OW31913   5.514   5.198   7.266 -0.3254  0.1492 -0.3396
 9969SOL    HW131914   5.435   5.227   7.221  0.0212 -0.9862 -1.7604
 9969SOL    HW231915   5.494   5.207   7.359 -1.8419  0.5857 -0.6942
 9970SOL     OW31916  10.390   8.356   0.255 -0.1408 -0.4030 -0.2616
 9970SOL    HW131917  10.458   8.289   0.250  1.8586  1.4605  0.3723
 9970SOL    HW231918  10.363   8.355   0.347 -1.2856 -1.3733 -0.5817
 9971SOL     OW31919   7.118   3.386   2.437  0.3482  0.9549  0.1620
 9971SOL    HW131920   7.177   3.328   2.390  2.4534  2.8173  0.3613
 9971SOL    HW231921   7.069   3.328   2.496  2.4175 -0.6041  0.4330
 9972SOL     OW31922   4.991   3.360   7.438 -0.0475 -0.4809 -0.6046
 9972SOL    HW131923   5.016   3.273   7.470 -2.3528 -1.4362 -1.1818
 9972SOL    HW231924   5.045   3.373   7.360  1.4622 -0.6747  0.3804
 9973SOL     OW31925   9.750  10.763   2.229 -0.0996  0.2225  0.3274
 9973SOL    HW131926   9.835  10.775   2.271 -0.1997 -2.0555  1.3643
 9973SOL    HW231927   9.764  10.691   2.167 -1.1453  0.1517  0.1473
 9974SOL     OW31928   1.729   1.078   3.800  0.4524 -0.3030  0.2454
 9974SOL    HW131929   1.746   1.050   3.890  0.6642  1.5913  0.8421
 9974SOL    HW231930   1.695   1.167   3.809 -2.3148 -1.0444 -1.3744
 9975SOL     OW31931   1.226   4.402   9.199 -0.0325  0.1371  0.1164
 9975SOL    HW131932   1.227   4.310   9.224 -1.8945  0.6901  2.5186
 9975SOL    HW231933   1.149   4.411   9.142 -2.2226  0.8161  2.9805
 9976SOL     OW31934   5.607   6.472   8.417  0.2947 -0.2420 -0.1854
 9976SOL    HW131935   5.513   6.474   8.397 -0.6563 -1.3981  3.4043
 9976SOL    HW231936   5.619   6.540   8.483  1.7924 -0.7666  0.1076
 9977SOL     OW31937   6.757   8.146   6.413 -0.3152  0.4052  0.3171
 9977SOL    HW131938   6.828   8.164   6.352  1.3615  0.6225  2.2057
 9977SOL    HW231939   6.722   8.061   6.386  0.8950  0.1341 -0.4572
 9978SOL     OW31940   0.117   7.809   8.306  0.2262 -0.9195  0.0618
 9978SOL    HW131941   0.088   7.739   8.247  1.3430 -1.2273 -0.1472
 9978SOL    HW231942   0.157   7.874   8.248 -1.0144  0.0217  0.2304
 9979SOL     OW31943   4.325  10.920   4.290 -0.2623  0.1734 -0.1934
 9979SOL    HW131944   4.361  10.834   4.268  2.8194  1.5447 -1.1242
 9979SOL    HW231945   4.252  10.932   4.229 -0.9935 -1.8483  0.1909
 9980SOL     OW31946   8.262   7.740   8.118 -0.1225  0.2316 -0.4359
 9980SOL    HW131947   8.356   7.730   8.108 -0.0703  0.7150 -0.4621
 9980SOL    HW231948   8.231   7.770   8.032  0.2104  3.5623  0.4549
 9981SOL     OW31949   6.832   6.642   8.476 -0.0290 -0.1848  0.2045
 9981SOL    HW131950   6.877   6.568   8.435  0.2686  0.3447 -0.4413
 9981SOL    HW231951   6.783   6.603   8.548 -0.6835 -1.1653 -0.7405
 9982SOL     OW31952   7.390   0.420   2.210 -0.3831 -0.3398  0.2848
 9982SOL    HW131953   7.473   0.455   2.177 -0.6607  1.1034  0.9991
 9982SOL    HW231954   7.344   0.388   2.133 -0.4286  1.6424 -0.5615
 9983SOL     OW31955   6.720   1.247   9.297 -0.1989 -0.7402  0.4012
 9983SOL    HW131956   6.707   1.154   9.283 -1.5127 -0.3258 -1.5126
 9983SOL    HW231957   6.784   1.273   9.231  1.2133 -0.4855  1.8030
 9984SOL     OW31958   5.320   2.691   3.598  0.3828 -0.2911 -0.7888
 9984SOL    HW131959   5.360   2.605   3.583  0.1785 -0.8841  1.5858
 9984SOL    HW231960   5.374   2.731   3.666 -0.9326  0.4008 -0.0963
 9985SOL     OW31961  10.243   9.695  10.643 -0.1875  0.1702  0.3608
 9985SOL    HW131962  10.294   9.704  10.723 -0.6864  1.8272  0.5372
 9985SOL    HW231963  10.297   9.736  10.575  0.3279 -1.4129 -0.2284
 9986SOL     OW31964   9.151   4.555   1.137 -1.0479 -0.2218 -0.0004
 9986SOL    HW131965   9.113   4.642   1.148 -2.1995 -0.6931 -0.1305
 9986SOL    HW231966   9.156   4.542   1.042 -0.0943  0.0149  0.0010
 9987SOL     OW31967   1.259   7.751   7.854  0.0870  1.1360 -0.2568
 9987SOL    HW131968   1.273   7.700   7.934 -0.5720  1.8232  0.3040
 9987SOL    HW231969   1.205   7.825   7.881  0.3679  1.7128 -1.2193
 9988SOL     OW31970   2.139  10.319   0.227  0.8062  0.4773 -0.1594
 9988SOL    HW131971   2.224  10.290   0.195 -1.0064 -1.6699 -3.7079
 9988SOL    HW231972   2.124  10.403   0.184  1.2843  1.1197  0.8892
 9989SOL     OW31973   0.222   3.592   7.587 -0.2243  0.0900 -0.0808
 9989SOL    HW131974   0.282   3.558   7.654  0.9243  0.7949 -0.7201
 9989SOL    HW231975   0.270   3.665   7.547 -1.3427  0.3882 -0.9171
 9990SOL     OW31976   1.558   4.020   5.444  0.3939  0.1874  0.2071
 9990SOL    HW131977   1.498   4.054   5.510 -0.1835 -0.4095 -0.0095
 9990SOL    HW231978   1.505   4.009   5.365  0.7777 -0.3509  0.0176
 9991SOL     OW31979   1.697  10.103   3.956  0.1792 -0.1972 -0.0065
 9991SOL    HW131980   1.685  10.175   3.894  0.7724 -0.4258 -0.3967
 9991SOL    HW231981   1.723  10.028   3.901 -0.9912 -0.8655  0.3246
 9992SOL     OW31982   8.634  10.372   1.575  0.4187 -0.2645  0.2661
 9992SOL    HW131983   8.678  10.328   1.502  1.3091  0.3037  0.4477
 9992SOL    HW231984   8.627  10.305   1.642  0.2370 -0.5922 -0.0715
 9993SOL     OW31985   3.343   3.797   6.008  0.3450 -0.2379  0.0999
 9993SOL    HW131986   3.417   3.846   6.042  1.0316  0.2262 -1.9333
 9993SOL    HW231987   3.292   3.861   5.958 -1.1017 -0.6848  0.9585
 9994SOL     OW31988   0.246   7.008  10.279 -0.1843  0.0646  0.4610
 9994SOL    HW131989   0.158   7.008  10.317 -0.8212  1.2797 -0.8934
 9994SOL    HW231990   0.233   7.038  10.189  1.3314 -1.9527 -0.5088
 9995SOL     OW31991   1.900   4.718   8.039  0.3284 -0.1776 -0.0312
 9995SOL    HW131992   1.961   4.706   8.112 -0.2191  0.1603  0.4885
 9995SOL    HW231993   1.816   4.685   8.072 -0.3972  1.7681  0.2080
 9996SOL     OW31994   4.964   6.498   5.765  0.5722 -0.1480  0.3741
 9996SOL    HW131995   5.027   6.435   5.801  1.1874 -0.5194 -1.2846
 9996SOL    HW231996   5.017   6.573   5.738 -0.2955  1.8582  3.6790
 9997SOL     OW31997   5.166   0.763   0.420  0.3392 -0.1986 -0.6173
 9997SOL    HW131998   5.165   0.857   0.402  1.9581 -0.2743 -1.2354
 9997SOL    HW231999   5.170   0.757   0.515 -0.3423  0.3271 -0.5426
 9998SOL     OW32000   2.794   9.308  10.787 -0.0416  0.2809 -0.0820
 9998SOL    HW132001   2.788   9.394  10.828  1.3641  0.8392 -0.9484
 9998SOL    HW232002   2.880   9.308  10.745 -0.2952 -1.3015 -0.6750
 9999SOL     OW32003   6.405   4.420   7.427 -0.8127 -0.2790  0.2437
 9999SOL    HW132004   6.393   4.512   7.403  0.7802 -0.3230 -0.8738
 9999SOL    HW232005   6.426   4.376   7.344 -0.0619 -1.3670  0.9792
10000SOL     OW32006   2.900   4.627   4.506  0.0655 -0.1856  0.1433
10000SOL    HW132007   2.860   4.598   4.588  2.1633 -0.7084  1.0588
10000SOL    HW232008   2.943   4.710   4.528 -1.4778  1.0268 -1.1309
10001SOL     OW32009   5.778   3.857   5.546  0.5306  0.1116  0.8612
10001SOL    HW132010   5.689   3.854   5.579  0.0583 -0.7840 -0.4309
10001SOL    HW232011   5.790   3.774   5.501  1.9874  0.2644  0.9202
10002SOL     OW32012   2.914   2.138   2.782  0.1659 -0.2282  0.3238
10002SOL    HW132013   2.913   2.094   2.697  1.5109  0.4393 -0.0597
10002SOL    HW232014   2.961   2.220   2.766 -1.4021  0.9208  1.2338
10003SOL     OW32015   2.061   4.735   8.295  0.2442  0.2104 -0.1411
10003SOL    HW132016   2.035   4.812   8.244 -0.2373 -2.2056 -3.9859
10003SOL    HW232017   2.155   4.747   8.310  0.0508  1.8337 -0.0171
10004SOL     OW32018  10.938   3.434  10.889 -0.6306  0.1535  0.3619
10004SOL    HW132019  10.865   3.430  10.826  0.1843 -3.1030 -0.5822
10004SOL    HW232020  10.935   3.350  10.935  3.2481 -0.7779 -0.6860
10005SOL     OW32021   7.313  10.677   8.148 -0.3939  0.2792 -0.2437
10005SOL    HW132022   7.380  10.610   8.161 -1.1205 -0.3936  0.1679
10005SOL    HW232023   7.354  10.742   8.092  0.6033 -0.1086  0.0214
10006SOL     OW32024   2.681  10.732   6.955 -0.1525 -0.1014 -0.2034
10006SOL    HW132025   2.758  10.679   6.977  1.7407  2.1030 -1.0593
10006SOL    HW232026   2.673  10.794   7.026 -0.8818 -0.0160 -0.3501
10007SOL     OW32027   4.115   3.918   4.164  0.2103  0.5187  0.1071
10007SOL    HW132028   4.033   3.882   4.198  1.3278 -1.5741  0.8225
10007SOL    HW232029   4.116   3.893   4.072  0.1513  0.3246  0.1587
10008SOL     OW32030   6.560  10.035   5.323 -0.5264  0.3572 -0.2776
10008SOL    HW132031   6.628  10.068   5.264 -0.2725  0.8509  0.2739
10008SOL    HW232032   6.483  10.024   5.267  0.0550 -0.4293 -0.9595
10009SOL     OW32033   3.743   0.550   4.932 -0.0571  0.0866  0.0274
10009SOL    HW132034   3.814   0.561   4.869 -1.0194  0.6160 -1.0025
10009SOL    HW232035   3.672   0.510   4.882 -0.8223  0.4654  0.7764
10010SOL     OW32036  10.678  10.324   4.480 -0.1694  0.2317  0.0949
10010SOL    HW132037  10.603  10.280   4.520 -0.0500 -0.5749 -0.5441
10010SOL    HW232038  10.665  10.314   4.386  1.9538 -2.1432 -0.0583
10011SOL     OW32039   8.618   3.583   1.213 -0.6010 -0.1192 -0.3008
10011SOL    HW132040   8.643   3.493   1.193  1.5804  0.1503  0.8817
10011SOL    HW232041   8.541   3.574   1.270 -1.2026 -1.1462 -1.2283
10012SOL     OW32042   9.494   6.984   6.348  0.4919 -0.2110  1.0861
10012SOL    HW132043   9.417   7.036   6.371  0.3538 -0.0673  0.3575
10012SOL    HW232044   9.498   6.990   6.252 -0.4371 -2.8327  0.8095
10013SOL     OW32045   9.046   1.935   1.753 -0.4517  0.4524  0.4023
10013SOL    HW132046   9.032   1.881   1.675 -0.6052  1.7123 -0.4786
10013SOL    HW232047   9.126   1.900   1.793  0.1119  0.3072 -0.8096
10014SOL     OW32048   6.316   6.318   3.497 -0.2853 -0.4329 -0.4701
10014SOL    HW132049   6.246   6.372   3.533 -0.7208 -0.0916 -1.8099
10014SOL    HW232050   6.396   6.369   3.513 -0.7418  0.8957 -2.2080
10015SOL     OW32051   0.049   4.184   6.629  0.1345  0.0627  0.4569
10015SOL    HW132052   0.138   4.150   6.626  0.0232 -0.2059 -0.8720
10015SOL    HW232053   0.025   4.195   6.536 -0.8983  0.9567  0.8092
10016SOL     OW32054   3.613  10.355   7.958 -0.0744  0.1205 -0.4545
10016SOL    HW132055   3.704  10.327   7.951 -0.0203  0.1999 -0.1291
10016SOL    HW232056   3.591  10.341   8.051 -0.9633 -1.6439 -0.8914
10017SOL     OW32057   3.888   1.621   3.173 -0.5122  0.2974  0.4388
10017SOL    HW132058   3.892   1.702   3.224  2.8089  1.0661 -0.7647
10017SOL    HW232059   3.902   1.650   3.083  1.7158 -1.6206  0.0860
10018SOL     OW32060   1.882   5.179   2.519 -0.2833  0.3978  0.1837
10018SOL    HW132061   1.923   5.102   2.479 -2.2461 -0.0028 -1.1757
10018SOL    HW232062   1.944   5.250   2.504  0.6611 -0.4982 -0.3024
10019SOL     OW32063  10.762   6.447   1.181  0.0590 -0.2388 -0.1865
10019SOL    HW132064  10.747   6.352   1.183 -0.3364 -0.1817  1.4721
10019SOL    HW232065  10.676   6.484   1.162 -0.0077 -0.1879  0.2058
10020SOL     OW32066   7.715   6.264   0.161 -0.0284 -0.1915 -0.0682
10020SOL    HW132067   7.749   6.226   0.241  1.0133 -0.6969 -0.7325
10020SOL    HW232068   7.757   6.350   0.155  0.0648 -0.2453 -0.1877
10021SOL     OW32069   6.479  10.739   9.706 -0.1656 -1.2402 -0.2741
10021SOL    HW132070   6.418  10.666   9.712 -0.1033 -1.2189  0.8271
10021SOL    HW232071   6.532  10.733   9.785  0.4147 -0.5070 -0.5907
10022SOL     OW32072   5.251   9.286  10.359 -0.4325  0.3157  0.0230
10022SOL    HW132073   5.318   9.324  10.302 -1.5752 -0.6567 -2.0606
10022SOL    HW232074   5.285   9.198  10.379 -0.6910  0.1330 -0.3397
10023SOL     OW32075  10.204   5.312  10.484 -0.0974 -0.1185  0.3086
10023SOL    HW132076  10.159   5.252  10.424  0.5531 -0.5875  0.2817
10023SOL    HW232077  10.218   5.391  10.432  1.1444 -0.7947 -0.4173
10024SOL     OW32078   3.963   5.666   0.815 -0.6596 -0.3998 -0.0330
10024SOL    HW132079   3.949   5.575   0.840 -2.0851  0.1585  1.3399
10024SOL    HW232080   3.986   5.711   0.896 -0.0748  0.4958 -0.6729
10025SOL     OW32081   5.445   5.685   1.946 -0.5209  0.1004  0.2123
10025SOL    HW132082   5.503   5.698   1.871 -2.8040  0.5750 -1.5821
10025SOL    HW232083   5.504   5.675   2.021  1.9216 -1.9819 -1.8175
10026SOL     OW32084   0.785  10.242   1.538 -0.0513  0.4264  0.2401
10026SOL    HW132085   0.835  10.230   1.618 -2.4432 -1.7578  1.5317
10026SOL    HW232086   0.841  10.205   1.469  0.8481 -0.2931  1.3292
10027SOL     OW32087  10.441   0.550   9.921 -0.3017 -0.4158 -0.2232
10027SOL    HW132088  10.418   0.582   9.834 -0.2476 -0.8750 -0.4064
10027SOL    HW232089  10.424   0.456   9.918  0.4838 -0.5768 -0.0067
10028SOL     OW32090   2.020   5.622   9.533 -0.2003  0.4716  0.1954
10028SOL    HW132091   2.030   5.531   9.506 -0.3930  0.6807 -0.6045
10028SOL    HW232092   2.032   5.673   9.453 -3.5336  0.9586 -0.1613
10029SOL     OW32093   3.688   2.561   8.295  0.1175  0.3842 -0.6134
10029SOL    HW132094   3.605   2.577   8.338  0.1093  0.7828 -0.7727
10029SOL    HW232095   3.736   2.503   8.354 -0.1870  0.3329 -0.4206
10030SOL     OW32096   5.207  10.286   0.531  0.1212 -0.2326 -0.3098
10030SOL    HW132097   5.281  10.247   0.576  0.3832  1.2612  0.6240
10030SOL    HW232098   5.206  10.377   0.561 -1.1271  0.1916 -1.5311
10031SOL     OW32099   9.698   3.402   3.150 -0.1410  0.6093  0.7375
10031SOL    HW132100   9.787   3.427   3.174  0.1065 -0.1126  0.5763
10031SOL    HW232101   9.698   3.403   3.054 -0.8677  2.5578  0.6946
10032SOL     OW32102   2.608   8.036   6.158  0.4313 -0.0165  0.0349
10032SOL    HW132103   2.619   7.993   6.073 -1.5379  0.2653 -0.4099
10032SOL    HW232104   2.588   7.965   6.219  2.0163 -0.2389  0.3250
10033SOL     OW32105   9.150   1.032   0.213  0.2858 -0.0320 -0.8648
10033SOL    HW132106   9.115   1.113   0.177  0.4088  0.2649 -0.3059
10033SOL    HW232107   9.243   1.048   0.224  0.3727 -0.3676 -1.0706
10034SOL     OW32108   1.577   7.027  11.050  0.1692  0.2796 -0.4171
10034SOL    HW132109   1.518   6.956  11.027  0.4637 -0.3278  0.6487
10034SOL    HW232110   1.520   7.105  11.052 -0.5307 -0.2234  0.1686
10035SOL     OW32111  10.998   6.822   4.461 -0.1957 -0.5234 -0.3808
10035SOL    HW132112  11.063   6.751   4.457  0.6188  0.1598  0.3485
10035SOL    HW232113  11.040   6.890   4.514 -0.9735  0.5050 -1.0567
10036SOL     OW32114   4.570   6.689   8.404  0.4684 -0.4349  0.3589
10036SOL    HW132115   4.569   6.594   8.420  0.7901 -0.6936 -1.0151
10036SOL    HW232116   4.530   6.698   8.318  1.6924  0.5529 -0.1249
10037SOL     OW32117   9.419   5.531   3.566 -0.5069  0.7442 -0.2165
10037SOL    HW132118   9.446   5.606   3.514  0.7683  1.7936  1.8321
10037SOL    HW232119   9.444   5.455   3.514 -1.4387  1.6880 -2.1437
10038SOL     OW32120   4.400  10.394   6.229  0.0387  0.2793  0.4157
10038SOL    HW132121   4.428  10.308   6.196  0.9412  0.7392 -0.0509
10038SOL    HW232122   4.481  10.443   6.241 -0.3793  0.6337  1.9454
10039SOL     OW32123   9.970   8.299   2.778  0.9392  0.4039  0.2771
10039SOL    HW132124  10.055   8.265   2.749  0.5924  1.0064 -1.5713
10039SOL    HW232125   9.910   8.275   2.708 -0.6867 -0.9535  2.0507
10040SOL     OW32126   3.101   6.250   6.031  0.4620 -0.1342 -0.1695
10040SOL    HW132127   3.095   6.339   5.996  0.1440 -0.5248 -1.1247
10040SOL    HW232128   3.164   6.257   6.103  1.0708  0.6952 -0.7672
10041SOL     OW32129   1.035   0.021   8.687  0.8315 -0.2444  0.1070
10041SOL    HW132130   0.967  -0.047   8.691 -0.7072  0.8077 -3.7130
10041SOL    HW232131   1.105  -0.019   8.635  1.3541  0.0439  0.5817
10042SOL     OW32132   3.972   9.566   7.591  0.5975  0.3687  0.2595
10042SOL    HW132133   3.907   9.556   7.521  0.5763  0.0228  0.3277
10042SOL    HW232134   3.938   9.638   7.645  0.5346  0.5322  0.0056
10043SOL     OW32135  10.123   2.614   1.148 -0.2507 -0.1540 -0.5029
10043SOL    HW132136  10.104   2.572   1.231  1.9298 -3.0569 -1.2944
10043SOL    HW232137  10.051   2.676   1.135 -1.9286 -1.3055  2.3714
10044SOL     OW32138   6.548   8.981   2.899 -0.3838  0.2016  0.1920
10044SOL    HW132139   6.485   9.030   2.952  0.1856  0.9239  0.2133
10044SOL    HW232140   6.516   8.988   2.809  0.2010  1.4495  0.0605
10045SOL     OW32141   4.395   5.998   8.066 -0.1317 -0.7104  0.1055
10045SOL    HW132142   4.402   5.917   8.015  2.1888 -0.8704  0.6073
10045SOL    HW232143   4.443   6.063   8.014 -0.1878 -0.1648  0.7276
10046SOL     OW32144   3.177   6.650   1.267  0.5097  0.0539  0.0892
10046SOL    HW132145   3.258   6.659   1.317  1.2053  1.2005 -1.1803
10046SOL    HW232146   3.122   6.722   1.297  0.6346  0.2967 -0.2611
10047SOL     OW32147   0.301   6.226   5.427 -0.3785  0.1300 -0.3313
10047SOL    HW132148   0.315   6.233   5.333 -2.3802 -0.2102 -0.6945
10047SOL    HW232149   0.239   6.296   5.448 -2.2595 -1.5644  0.1560
10048SOL     OW32150   3.136   0.030   6.330 -0.3178  0.4708  0.1819
10048SOL    HW132151   3.157  -0.043   6.388  0.2796 -0.4907 -1.1928
10048SOL    HW232152   3.141   0.107   6.386 -0.4604 -0.4792  1.5576
10049SOL     OW32153   1.957   0.575   8.035 -0.4773 -0.9462 -0.0191
10049SOL    HW132154   1.921   0.617   8.113  1.6101 -0.2219  0.6157
10049SOL    HW232155   1.959   0.481   8.056  1.9081 -0.5843  1.6642
10050SOL     OW32156   9.875   8.321   7.615  0.0452 -0.2476 -0.1746
10050SOL    HW132157   9.816   8.332   7.540 -0.0802 -1.6716 -0.3103
10050SOL    HW232158   9.817   8.309   7.690  0.0284 -3.3945 -0.5519
10051SOL     OW32159   1.527   1.413   3.209  0.8230 -0.4296 -0.1205
10051SOL    HW132160   1.436   1.424   3.236  0.4671 -0.7623 -1.1259
10051SOL    HW232161   1.573   1.386   3.289  0.4039  1.4514  0.7963
10052SOL     OW32162   8.337   2.018   7.451 -0.1533  0.2091 -0.4962
10052SOL    HW132163   8.386   1.970   7.384 -0.6107 -0.7505 -0.1440
10052SOL    HW232164   8.404   2.071   7.495  0.6684 -1.3722  0.2361
10053SOL     OW32165  10.472  11.023   3.876  0.3134  0.2415  0.0843
10053SOL    HW132166  10.510  10.962   3.813 -2.5553 -2.2008  0.4915
10053SOL    HW232167  10.528  11.017   3.953  1.3228 -0.1617 -0.6682
10054SOL     OW32168   2.061   5.395   9.407 -0.9148 -0.7770 -0.0810
10054SOL    HW132169   2.052   5.306   9.440 -0.3432 -0.2213  1.7097
10054SOL    HW232170   2.051   5.387   9.313 -1.3761 -2.6585  0.0907
10055SOL     OW32171   6.238   5.830   7.145 -0.7457 -0.2506  0.1526
10055SOL    HW132172   6.303   5.777   7.191  1.3274  1.9916 -0.0034
10055SOL    HW232173   6.186   5.767   7.096  0.4832 -2.2496  1.2855
10056SOL     OW32174   7.763   8.090  10.916  0.1237  0.1107  0.0997
10056SOL    HW132175   7.718   8.043  10.986  0.4321 -0.8640 -0.3379
10056SOL    HW232176   7.824   8.027  10.879  1.9365  1.4265  0.7086
10057SOL     OW32177   5.663  10.441   3.757  0.8095 -0.2476  0.0569
10057SOL    HW132178   5.664  10.421   3.663  0.5543 -0.4242  0.0888
10057SOL    HW232179   5.584  10.493   3.770 -0.2938 -1.9502  0.5022
10058SOL     OW32180   9.690   4.264   8.413  0.2128 -0.1029 -0.1654
10058SOL    HW132181   9.599   4.248   8.391  0.4426 -2.0943  0.1543
10058SOL    HW232182   9.689   4.340   8.471 -1.3228 -0.5928  0.4838
10059SOL     OW32183   1.126   0.249   4.636  0.5731  0.0715 -0.3245
10059SOL    HW132184   1.056   0.308   4.607 -1.1789 -2.0784 -0.7507
10059SOL    HW232185   1.114   0.242   4.731  1.2189  0.8755 -0.1694
10060SOL     OW32186   0.320   5.506   7.647  0.1425 -0.0778  0.0440
10060SOL    HW132187   0.400   5.491   7.596 -0.1118  0.1782 -0.4375
10060SOL    HW232188   0.348   5.500   7.738  0.7261  0.0995 -0.1204
10061SOL     OW32189   9.012   0.725  10.995 -0.4046 -0.5832  0.8659
10061SOL    HW132190   8.937   0.732  11.054 -0.7940 -2.4758  0.6678
10061SOL    HW232191   8.977   0.686  10.915  0.9619 -2.9828  1.3094
10062SOL     OW32192   1.527   1.022   5.918 -0.3236 -0.2876  0.2555
10062SOL    HW132193   1.512   1.075   5.839  0.8597  1.6551  1.2620
10062SOL    HW232194   1.470   1.062   5.984  0.5982 -0.2523  1.0354
10063SOL     OW32195   4.168  10.645   5.322  0.0705 -0.7649  0.3569
10063SOL    HW132196   4.209  10.558   5.320  0.7244 -0.4664 -1.3043
10063SOL    HW232197   4.222  10.697   5.262 -0.2111  0.8448  1.4469
10064SOL     OW32198   1.377   4.236   4.216 -0.3399  0.1138 -0.0852
10064SOL    HW132199   1.314   4.292   4.171  0.5482 -0.8944 -2.8129
10064SOL    HW232200   1.458   4.287   4.216  0.6346 -1.1797 -3.1165
10065SOL     OW32201   3.294   2.471   8.158 -0.1841 -0.1623  0.5575
10065SOL    HW132202   3.267   2.384   8.187  0.7874 -0.5002  0.4869
10065SOL    HW232203   3.364   2.455   8.096 -0.7913  0.6364 -0.3663
10066SOL     OW32204   0.268   0.366   4.063 -0.6282 -0.2204 -0.2569
10066SOL    HW132205   0.189   0.411   4.094 -1.3894 -1.7924  0.2181
10066SOL    HW232206   0.242   0.274   4.058  1.0304 -0.6973 -0.6331
10067SOL     OW32207  10.774   4.587   2.685  0.2862 -0.4047  0.6882
10067SOL    HW132208  10.740   4.502   2.714 -0.9231  0.1059  0.8036
10067SOL    HW232209  10.858   4.596   2.731  1.0067 -2.0467 -0.2227
10068SOL     OW32210   0.120   6.334  11.044 -0.1188 -0.2337 -0.2166
10068SOL    HW132211   0.124   6.394  11.119 -1.1354 -0.8757  0.3747
10068SOL    HW232212   0.031   6.301  11.044 -0.0375 -0.5239 -1.5178
10069SOL     OW32213   7.527   0.288   6.646 -0.5140 -0.1060 -0.1866
10069SOL    HW132214   7.569   0.284   6.561 -1.8376  5.0977 -1.4134
10069SOL    HW232215   7.433   0.293   6.627 -0.8971  0.4729  1.6019
10070SOL     OW32216   8.940  10.439   9.261 -0.4762  0.1385 -0.2569
10070SOL    HW132217   8.895  10.473   9.338  0.0418 -0.7160  0.4372
10070SOL    HW232218   8.878  10.377   9.222 -0.2211 -0.4372  0.2429
10071SOL     OW32219   7.029  10.158   9.040  0.0240 -0.2822 -0.1920
10071SOL    HW132220   7.102  10.108   9.003  0.8910 -0.0692  1.1334
10071SOL    HW232221   7.039  10.146   9.135  0.3647  2.5091  0.2001
10072SOL     OW32222  10.130   5.331  10.157  0.1468 -0.7859 -0.1644
10072SOL    HW132223  10.197   5.280  10.111  1.0038 -1.5449  1.8080
10072SOL    HW232224  10.090   5.269  10.218 -0.5514  0.2899  0.5025
10073SOL     OW32225   3.527   4.297   1.798  0.1224 -0.2694 -0.3444
10073SOL    HW132226   3.560   4.330   1.714 -0.1954 -1.4131 -0.9501
10073SOL    HW232227   3.432   4.293   1.786 -0.0754  0.9722  0.6255
10074SOL     OW32228   1.762   2.178   4.756  0.5015  0.0429 -0.1131
10074SOL    HW132229   1.791   2.140   4.840  0.2727  0.4270  0.1392
10074SOL    HW232230   1.830   2.241   4.734  0.9503 -0.5970 -0.5997
10075SOL     OW32231   4.369   3.319   7.042  0.5363 -0.0287  0.2922
10075SOL    HW132232   4.455   3.293   7.076  1.2992 -0.0856 -1.5718
10075SOL    HW232233   4.389   3.381   6.973 -1.1174  3.2584  2.5168
10076SOL     OW32234   6.876   4.756   8.789 -0.0645 -0.0090  0.1417
10076SOL    HW132235   6.805   4.810   8.824 -1.6670 -0.7581 -1.7821
10076SOL    HW232236   6.907   4.706   8.864 -0.2348  1.6988  1.4236
10077SOL     OW32237   3.218   5.898  10.511 -0.1501  0.7455  0.5620
10077SOL    HW132238   3.290   5.840  10.538 -0.2996  0.5654  0.5767
10077SOL    HW232239   3.252   5.986  10.526 -0.5524  0.6539  2.2395
10078SOL     OW32240   7.693   9.383   2.229  0.0548 -0.4520  0.2855
10078SOL    HW132241   7.639   9.328   2.173  2.0967 -1.7042 -0.5762
10078SOL    HW232242   7.692   9.469   2.187  0.8494 -1.1504 -1.2305
10079SOL     OW32243   5.234   1.198   7.269 -0.4077 -0.0877  0.2656
10079SOL    HW132244   5.191   1.280   7.294 -2.5530 -0.9763 -0.3256
10079SOL    HW232245   5.234   1.146   7.350  0.9938  0.4562  0.6524
10080SOL     OW32246   6.706   5.683   2.620 -0.6497 -0.3468  0.4135
10080SOL    HW132247   6.640   5.640   2.565  0.5066 -0.9495 -0.5417
10080SOL    HW232248   6.661   5.700   2.703 -2.5726  0.9145 -0.7991
10081SOL     OW32249   4.590   8.244   3.583 -0.3578  0.1444  0.9009
10081SOL    HW132250   4.499   8.247   3.612 -0.6075  1.0470  0.0930
10081SOL    HW232251   4.587   8.276   3.493  0.7700  0.2569  0.8902
10082SOL     OW32252   1.881  10.370   7.271  0.4315  0.2940  0.0029
10082SOL    HW132253   1.956  10.416   7.234  1.7287 -2.5765 -1.2437
10082SOL    HW232254   1.806  10.400   7.220  1.7400 -1.3073 -3.0689
10083SOL     OW32255   4.704   1.517   8.025  0.0693 -0.3872 -0.3561
10083SOL    HW132256   4.648   1.576   8.076  1.3581  0.7898 -0.2553
10083SOL    HW232257   4.656   1.502   7.944 -0.5623  0.2816 -0.1172
10084SOL     OW32258   0.869   7.580   5.760  0.6697 -0.1646  0.3346
10084SOL    HW132259   0.917   7.567   5.678  2.3982  2.4902  0.7814
10084SOL    HW232260   0.923   7.536   5.826  1.6135  1.2834  0.5782
10085SOL     OW32261   1.349   0.920   2.507 -0.9252  0.4227  0.1572
10085SOL    HW132262   1.384   0.846   2.557  2.6548  2.4918  1.0585
10085SOL    HW232263   1.280   0.955   2.563  2.0381  1.8129  3.3354
10086SOL     OW32264  10.331   2.624  10.086  0.5425 -0.6698  0.4456
10086SOL    HW132265  10.285   2.591  10.009  2.0788 -0.6931 -0.4950
10086SOL    HW232266  10.281   2.589  10.160 -1.5909  0.2081 -0.4738
10087SOL     OW32267   8.992   7.677   5.713 -0.7794 -0.1446 -0.0361
10087SOL    HW132268   8.993   7.669   5.809 -1.1760  0.9825  0.0711
10087SOL    HW232269   9.081   7.705   5.691 -0.4635 -1.1369 -0.0813
10088SOL     OW32270   1.058   8.407   6.579 -0.0222 -0.9527  0.1479
10088SOL    HW132271   1.071   8.479   6.641  0.0918 -1.3525  0.5965
10088SOL    HW232272   1.104   8.332   6.619  0.9972 -0.9398 -0.9474
10089SOL     OW32273   7.093   7.612  10.248  0.3251  0.2088 -0.0663
10089SOL    HW132274   7.062   7.697  10.215  2.4143  1.2446  0.4498
10089SOL    HW232275   7.120   7.564  10.169 -1.6629 -0.3893 -0.4435
10090SOL     OW32276   0.969   0.121   8.984  0.3676 -0.0658 -0.4743
10090SOL    HW132277   0.947   0.214   8.981  1.3936  0.2412  0.7544
10090SOL    HW232278   0.989   0.098   8.893  0.1083  0.9143 -0.7852
10091SOL     OW32279   2.449  10.509   3.153 -0.1950 -0.4173 -0.1568
10091SOL    HW132280   2.514  10.540   3.216 -1.7602  2.2086  0.2865
10091SOL    HW232281   2.416  10.589   3.111 -0.9043 -1.9021 -2.6574
10092SOL     OW32282   2.807  10.519   0.136  0.4011  0.8539  0.0236
10092SOL    HW132283   2.725  10.560   0.110  0.0814  0.1722 -0.0744
10092SOL    HW232284   2.822  10.550   0.226 -0.9142 -0.3935  0.7275
10093SOL     OW32285   3.332   0.846   6.789  0.1094  0.1590 -0.5429
10093SOL    HW132286   3.362   0.755   6.779 -0.2171  0.0012 -0.1204
10093SOL    HW232287   3.398   0.887   6.845 -0.1435 -0.0258 -0.1062
10094SOL     OW32288   8.836   4.938  10.880 -0.4009  0.3114  0.3010
10094SOL    HW132289   8.743   4.956  10.866 -0.7001 -1.1491  0.2521
10094SOL    HW232290   8.838   4.850  10.919  0.8067  1.2972  2.6949
10095SOL     OW32291   4.533   9.789   5.146  0.7295 -0.5270 -0.1200
10095SOL    HW132292   4.452   9.761   5.189  0.3572  2.8132  1.7557
10095SOL    HW232293   4.599   9.727   5.176 -0.3215 -0.6304  2.1944
10096SOL     OW32294   6.110   1.987   2.084  0.3615  0.2616 -0.2073
10096SOL    HW132295   6.194   1.947   2.107  0.5686  1.2735  0.9240
10096SOL    HW232296   6.092   1.957   1.995  2.2727  0.5720 -0.7418
10097SOL     OW32297   0.732   1.871   5.673  0.1776 -0.1125  0.1130
10097SOL    HW132298   0.638   1.872   5.653  0.1679 -0.4654  0.1289
10097SOL    HW232299   0.772   1.924   5.604  0.1333 -1.2030 -0.7793
10098SOL     OW32300   5.315   9.853   9.896  0.4522  0.1414  0.2632
10098SOL    HW132301   5.366   9.890   9.824 -0.0740  1.0956  0.3691
10098SOL    HW232302   5.250   9.797   9.853  1.9553 -1.6012  0.1577
10099SOL     OW32303  10.269   5.426   0.247  0.3549  0.0510 -0.2875
10099SOL    HW132304  10.228   5.372   0.314  1.5774  0.3109  0.6987
10099SOL    HW232305  10.338   5.473   0.293  1.2856  0.1632 -1.7523
10100SOL     OW32306   9.492   6.757   1.665  0.1740 -0.5684  0.8489
10100SOL    HW132307   9.476   6.665   1.685  0.3093 -0.4448  1.5175
10100SOL    HW232308   9.544   6.754   1.585 -1.0498 -1.0337  0.0265
10101SOL     OW32309  10.884   7.523   2.516 -0.4789  0.4244  0.0009
10101SOL    HW132310  10.923   7.581   2.451 -0.9438  1.4098  0.5696
10101SOL    HW232311  10.855   7.447   2.466 -2.7697  2.0691 -1.3401
10102SOL     OW32312  10.185   2.918   1.730 -0.2692  0.2446  0.9574
10102SOL    HW132313  10.159   3.010   1.735 -1.5509 -0.1237  1.4394
10102SOL    HW232314  10.136   2.884   1.655 -1.2938 -0.4929  1.9455
10103SOL     OW32315   3.396   6.227  10.064 -0.1701  0.2231  0.0865
10103SOL    HW132316   3.442   6.204   9.983 -1.8331  2.8942 -1.7823
10103SOL    HW232317   3.449   6.296  10.103  0.8621 -1.3649  1.5946
10104SOL     OW32318   2.210   8.046   0.401  0.0707 -0.3418  0.4990
10104SOL    HW132319   2.237   7.987   0.471 -0.4680 -1.5935 -0.3187
10104SOL    HW232320   2.115   8.051   0.408  0.1447  0.9781  0.9571
10105SOL     OW32321   6.972   0.380   8.902 -0.4356 -0.3745  1.0332
10105SOL    HW132322   6.931   0.449   8.954 -1.9981 -0.3143 -0.1944
10105SOL    HW232323   6.976   0.416   8.813 -0.4296 -1.4987  0.5540
10106SOL     OW32324   6.243   4.270   7.910  0.4941  0.1470  0.0271
10106SOL    HW132325   6.310   4.292   7.846  0.9890 -1.3144  0.0137
10106SOL    HW232326   6.283   4.201   7.964 -0.3673  0.4707  1.1205
10107SOL     OW32327   7.782   4.521   2.171  0.3168 -0.2970  0.0300
10107SOL    HW132328   7.811   4.538   2.260 -1.3238  1.4249  0.3172
10107SOL    HW232329   7.692   4.491   2.180 -0.1682  0.7265 -1.0422
10108SOL     OW32330   8.408   5.951   6.748 -0.0695 -0.3792 -0.0600
10108SOL    HW132331   8.360   6.014   6.694  1.6094  2.0780  1.1263
10108SOL    HW232332   8.483   5.926   6.693  0.3444  0.2619  0.1989
10109SOL     OW32333   1.262   8.269   1.348  0.0324 -0.5758 -0.5037
10109SOL    HW132334   1.263   8.295   1.256 -0.2907  0.7727 -0.1445
10109SOL    HW232335   1.285   8.176   1.347  1.3359 -0.2742 -1.8364
10110SOL     OW32336   1.104   7.102   5.356 -1.0888 -0.5184  0.5069
10110SOL    HW132337   1.066   7.181   5.317  1.9440  0.9135  0.1120
10110SOL    HW232338   1.107   7.120   5.450  1.0607  0.6891  0.2874
10111SOL     OW32339   0.714   6.283  10.264 -0.3681 -0.3618 -0.3857
10111SOL    HW132340   0.652   6.291  10.336 -0.6113 -1.1655 -0.5059
10111SOL    HW232341   0.671   6.227  10.200  0.7358 -1.5028 -0.1762
10112SOL     OW32342   6.224   9.140   0.963  0.1353  0.2549  0.3124
10112SOL    HW132343   6.143   9.107   0.924 -0.2792  0.2010  1.1879
10112SOL    HW232344   6.292   9.081   0.930 -0.2850 -0.1372  0.1295
10113SOL     OW32345   7.744  11.062   3.405 -0.4093 -0.4312  0.5898
10113SOL    HW132346   7.766  10.972   3.382  0.5841 -0.7520  2.5580
10113SOL    HW232347   7.672  11.085   3.346 -0.9710 -2.6501  0.3116
10114SOL     OW32348   1.228   4.347   6.022  0.4664  0.0639  0.1854
10114SOL    HW132349   1.174   4.422   5.994  0.2889 -0.5027 -1.0491
10114SOL    HW232350   1.193   4.323   6.107 -3.3593 -2.1549 -1.7318
10115SOL     OW32351   1.492   8.351  10.936 -0.1846 -0.5317 -0.9318
10115SOL    HW132352   1.561   8.367  10.872 -1.7334  2.7409 -2.0370
10115SOL    HW232353   1.414   8.333  10.883 -1.2155  0.9564 -0.0190
10116SOL     OW32354   5.654   0.108   4.338 -0.1633  0.6974  0.7260
10116SOL    HW132355   5.645   0.013   4.350 -0.9961  0.9881  2.6845
10116SOL    HW232356   5.636   0.122   4.245  1.3363 -1.1955  0.0790
10117SOL     OW32357  11.049   7.850   2.188 -0.7851 -0.0255 -0.0785
10117SOL    HW132358  11.130   7.805   2.212 -0.4495  1.7937  2.6899
10117SOL    HW232359  11.078   7.921   2.129 -0.1895  1.0031  1.3902
10118SOL     OW32360   3.943  10.447   8.717 -0.0553 -0.5018 -0.7060
10118SOL    HW132361   3.899  10.512   8.772  0.9088 -2.1215  2.1440
10118SOL    HW232362   4.017  10.494   8.679  1.0772 -0.0024  1.8921
10119SOL     OW32363   2.473   7.735   5.660 -0.1124 -0.5218  0.2413
10119SOL    HW132364   2.457   7.661   5.718  0.0450  0.5035  1.6363
10119SOL    HW232365   2.567   7.753   5.669 -0.6640  1.7627  2.3630
10120SOL     OW32366   6.479  10.798   3.181  0.2777  0.3686 -0.1090
10120SOL    HW132367   6.401  10.801   3.125 -0.6790 -1.0690  1.0659
10120SOL    HW232368   6.485  10.707   3.208  0.4300  1.0920  2.5099
10121SOL     OW32369   4.616   2.187   6.619 -0.1681  0.1665  0.4350
10121SOL    HW132370   4.591   2.234   6.539 -0.5260  2.2456  1.6962
10121SOL    HW232371   4.687   2.129   6.592  0.1248  1.2574 -1.2770
10122SOL     OW32372   3.759   8.884   2.834  0.0240  0.2773  0.2550
10122SOL    HW132373   3.764   8.896   2.929  1.0867  0.3340  0.2004
10122SOL    HW232374   3.745   8.971   2.799  2.0129  0.6349  0.2281
10123SOL     OW32375   2.723   9.600   4.905  0.1561 -0.5483  0.1668
10123SOL    HW132376   2.781   9.632   4.835 -0.3102  0.0175  0.0292
10123SOL    HW232377   2.704   9.510   4.881  1.2738 -0.8664  0.4116
10124SOL     OW32378  11.057   8.036   5.797 -0.4858  0.3383  0.7909
10124SOL    HW132379  11.028   8.052   5.887 -2.0453  0.9356  0.2230
10124SOL    HW232380  11.004   8.096   5.744 -1.7503 -1.9983 -0.7925
10125SOL     OW32381   5.904   3.427   2.357  0.0082  0.0511  0.0025
10125SOL    HW132382   5.933   3.479   2.283  0.6468 -1.1285 -0.6046
10125SOL    HW232383   5.850   3.357   2.319 -0.7650  0.2030  0.7831
10126SOL     OW32384   8.724   7.782   0.571  0.7777 -0.0686 -0.1618
10126SOL    HW132385   8.780   7.773   0.648 -0.5320  0.5963  0.8979
10126SOL    HW232386   8.650   7.723   0.587  0.4489  0.1285 -0.8851
10127SOL     OW32387   1.089   4.397   1.944  0.3870 -0.2809 -0.2255
10127SOL    HW132388   1.090   4.306   1.972 -0.6993 -0.2782 -0.1315
10127SOL    HW232389   1.134   4.445   2.013  0.5637 -0.6878 -0.0590
10128SOL     OW32390   0.568  11.078  10.909  0.1946  0.5150  0.2867
10128SOL    HW132391   0.618  11.002  10.940  1.9421  1.4845  0.0040
10128SOL    HW232392   0.618  11.109  10.833 -0.1544  2.2710  0.7394
10129SOL     OW32393  10.741   7.802   5.729  0.5531 -0.1149  0.0815
10129SOL    HW132394  10.731   7.854   5.809  0.8588 -1.3957  0.9857
10129SOL    HW232395  10.687   7.848   5.664 -0.1890  0.6218  1.1754
10130SOL     OW32396   3.505   5.667   8.759 -0.3782 -0.4286 -0.7417
10130SOL    HW132397   3.495   5.684   8.853  0.5749 -2.2794 -0.2653
10130SOL    HW232398   3.598   5.649   8.747 -0.3579  0.4553 -2.1977
10131SOL     OW32399   4.247   9.987   0.025 -0.1758  0.0300 -0.6070
10131SOL    HW132400   4.212  10.004  -0.063 -2.7487 -0.2129  0.3027
10131SOL    HW232401   4.243   9.892   0.034 -1.0326  0.1368  0.1885
10132SOL     OW32402   2.495   7.424   0.273 -0.2915  0.5569 -0.1777
10132SOL    HW132403   2.509   7.518   0.285  1.7564  0.1388  1.3964
10132SOL    HW232404   2.566   7.396   0.215 -1.0218 -0.0037 -0.8268
10133SOL     OW32405   0.440   6.526   2.119 -0.6744 -0.5181  1.0132
10133SOL    HW132406   0.517   6.555   2.168 -0.5943  0.0719  0.5528
10133SOL    HW232407   0.404   6.454   2.171 -0.5181  0.0096  1.8652
10134SOL     OW32408  10.330   6.946   4.896  0.4027 -0.3286 -0.3461
10134SOL    HW132409  10.387   6.870   4.885  0.9307 -0.0177  0.1632
10134SOL    HW232410  10.387   7.021   4.883  0.2152 -0.0061  0.5887
10135SOL     OW32411  10.130   3.237   5.360 -0.2337  0.1572 -0.3139
10135SOL    HW132412  10.039   3.218   5.335 -0.0187 -1.0816 -0.1782
10135SOL    HW232413  10.151   3.172   5.426  0.0609  1.7923  1.3017
10136SOL     OW32414   7.106   3.973   8.690 -0.3020  0.1991 -0.0990
10136SOL    HW132415   7.099   4.043   8.755  0.0112 -1.1319  1.4400
10136SOL    HW232416   7.039   3.909   8.716  0.6134 -0.9071 -0.3748
10137SOL     OW32417   1.510   2.844   6.339  0.6017  0.1186 -0.3854
10137SOL    HW132418   1.576   2.814   6.276 -0.8261 -3.6799 -0.3328
10137SOL    HW232419   1.431   2.857   6.286 -0.0370 -0.9337  0.2951
10138SOL     OW32420   0.333   9.073   9.121 -0.6753 -0.2945 -0.3055
10138SOL    HW132421   0.340   9.027   9.038 -0.4492 -2.2161  0.7222
10138SOL    HW232422   0.424   9.090   9.147 -0.2378 -4.6735  2.0627
10139SOL     OW32423   1.835   5.464   4.503  0.0899 -0.3833 -0.6800
10139SOL    HW132424   1.929   5.473   4.492  0.2445 -1.0292 -0.0222
10139SOL    HW232425   1.805   5.551   4.530  0.2460  0.2309 -2.3787
10140SOL     OW32426   1.856   3.007   3.868  0.1365 -0.5048  0.1921
10140SOL    HW132427   1.863   2.992   3.962 -0.5531 -1.4904  0.1028
10140SOL    HW232428   1.945   3.031   3.841  0.6044 -1.3733  0.9058
10141SOL     OW32429  10.154   2.340   6.387 -0.3078 -0.0908 -0.0720
10141SOL    HW132430  10.202   2.408   6.434  1.5321 -1.8146  0.6947
10141SOL    HW232431  10.071   2.381   6.363  0.7254  2.3897  0.3393
10142SOL     OW32432   9.821   8.117   2.936  1.1481  0.3824 -0.2055
10142SOL    HW132433   9.807   8.153   3.023 -0.3847 -0.1222 -0.2137
10142SOL    HW232434   9.784   8.182   2.876  2.9873  1.1577 -0.5996
10143SOL     OW32435  10.918   8.773   1.238 -0.1556  0.8378  0.4654
10143SOL    HW132436  10.923   8.690   1.286  0.1086 -0.1235 -1.1401
10143SOL    HW232437  10.902   8.839   1.306 -2.8973 -0.7988  1.5653
10144SOL     OW32438   8.140   2.658   9.329 -0.4385 -0.0855  0.1289
10144SOL    HW132439   8.067   2.701   9.285 -0.4887  0.2416  0.5231
10144SOL    HW232440   8.099   2.585   9.376 -0.4959  0.0227  0.2490
10145SOL     OW32441   9.728   6.608   1.015 -0.8456  0.4804 -0.6387
10145SOL    HW132442   9.796   6.543   0.998  0.9375  1.7725  1.1393
10145SOL    HW232443   9.669   6.566   1.077 -0.1420  0.2565 -0.1037
10146SOL     OW32444   4.897  10.418   0.246 -0.4178  0.5188 -0.6022
10146SOL    HW132445   4.890  10.396   0.339  1.3218 -1.1802 -0.8065
10146SOL    HW232446   4.823  10.375   0.205 -0.9782  0.9592 -0.0745
10147SOL     OW32447   7.024   8.963   2.797  0.1769 -0.3009 -0.9829
10147SOL    HW132448   6.988   8.999   2.715  1.0976  0.7602 -0.9509
10147SOL    HW232449   6.947   8.950   2.853 -0.2689  1.1605 -1.1982
10148SOL     OW32450   6.171   0.490   0.578  0.7927  0.6480 -0.3909
10148SOL    HW132451   6.262   0.498   0.606  0.9271  1.6798 -1.0602
10148SOL    HW232452   6.177   0.450   0.491  0.6340  1.1301 -0.6222
10149SOL     OW32453   1.179  10.176   0.332  0.9083  0.3106  0.6537
10149SOL    HW132454   1.125  10.148   0.406  0.7177  0.0362  0.4133
10149SOL    HW232455   1.142  10.260   0.305  1.8472  1.1142  1.7516
10150SOL     OW32456   4.774  10.885   9.752  0.4546 -0.0853  0.4688
10150SOL    HW132457   4.844  10.904   9.689 -1.0991  1.7682 -0.8150
10150SOL    HW232458   4.800  10.803   9.793  2.9798  0.1586 -0.5103
10151SOL     OW32459   9.660   7.024   6.762 -0.2199  0.2934 -0.1149
10151SOL    HW132460   9.702   6.982   6.687 -0.2204 -0.5101  0.3235
10151SOL    HW232461   9.585   6.967   6.782 -0.5952  0.8551  0.0859
10152SOL     OW32462   3.834   1.011   1.472 -0.7102 -0.4920 -0.5215
10152SOL    HW132463   3.775   0.955   1.421 -1.0356 -0.6274 -0.0066
10152SOL    HW232464   3.820   1.099   1.437  0.6186 -0.8603 -2.1027
10153SOL     OW32465   6.904  11.072   1.810 -0.2183  0.1221 -0.0787
10153SOL    HW132466   6.818  11.045   1.842 -0.2689  0.0022 -0.3127
10153SOL    HW232467   6.893  11.164   1.786  0.1610  0.5913  1.4512
10154SOL     OW32468   6.361   4.744   0.553 -0.0697 -0.0965  0.4797
10154SOL    HW132469   6.368   4.721   0.460 -0.0117  1.1822  0.1420
10154SOL    HW232470   6.439   4.707   0.593  2.4629  3.2185 -0.8853
10155SOL     OW32471   8.092   0.686   8.341 -0.0891 -0.1766  0.0319
10155SOL    HW132472   8.045   0.749   8.395 -1.0396 -0.0230 -0.9420
10155SOL    HW232473   8.033   0.668   8.268  1.5680  0.4542 -1.5468
10156SOL     OW32474   6.004   8.833   1.086  0.8167 -0.1287  0.1946
10156SOL    HW132475   6.098   8.831   1.069  0.6760 -0.4661 -0.6035
10156SOL    HW232476   5.987   8.921   1.121  1.5436 -0.3416  1.1087
10157SOL     OW32477   0.510   9.137   0.825  0.3850  0.3936  0.3358
10157SOL    HW132478   0.478   9.092   0.903  3.6580 -0.6601  1.2310
10157SOL    HW232479   0.434   9.186   0.793 -1.0096  1.3691  4.4705
10158SOL     OW32480   8.003  10.567  10.587  0.3743 -0.5382 -0.0675
10158SOL    HW132481   8.002  10.569  10.492  0.7863 -2.0725 -0.1277
10158SOL    HW232482   8.030  10.478  10.609 -1.5028 -0.7896  1.5001
10159SOL     OW32483   4.872   9.789   9.013  0.0240 -0.2029  1.0401
10159SOL    HW132484   4.878   9.738   8.932  0.4558 -0.2903  1.1236
10159SOL    HW232485   4.854   9.878   8.984  1.4607  0.0271  0.7606
10160SOL     OW32486   5.535   5.034   1.658 -0.1789 -0.3430  0.3675
10160SOL    HW132487   5.494   5.058   1.574 -0.1914  1.4255  0.8306
10160SOL    HW232488   5.582   5.113   1.684  2.4875 -1.8722  0.5077
10161SOL     OW32489   5.093   3.662  10.471 -0.0153 -1.1241  0.4197
10161SOL    HW132490   5.164   3.704  10.422  0.4009 -0.0153  1.8933
10161SOL    HW232491   5.035   3.735  10.495  0.5456 -1.3719  2.7623
10162SOL     OW32492   2.630   1.893   4.581 -0.1405 -0.1131  0.8948
10162SOL    HW132493   2.673   1.924   4.661  2.0766 -0.8202  0.0826
10162SOL    HW232494   2.617   1.972   4.529  0.1941  0.1367  1.1793
10163SOL     OW32495   0.204   7.164   2.596 -0.4236  0.4671  0.5394
10163SOL    HW132496   0.183   7.224   2.667  0.3996  0.0104  1.1865
10163SOL    HW232497   0.259   7.097   2.636 -0.8633 -0.4188 -0.2897
10164SOL     OW32498   6.779   5.318   0.601 -0.0276 -0.0982 -0.8064
10164SOL    HW132499   6.791   5.413   0.610  1.1342 -0.1975 -1.1754
10164SOL    HW232500   6.687   5.309   0.576 -0.5008  0.8324  0.4835
10165SOL     OW32501   2.949   1.998   3.143  0.2629  0.8029  0.0880
10165SOL    HW132502   2.893   1.948   3.083  0.1305  2.1269 -0.9220
10165SOL    HW232503   2.934   1.957   3.229 -0.1667 -0.5962 -0.6226
10166SOL     OW32504   0.969   7.494   4.831 -0.6612  0.2902  0.2905
10166SOL    HW132505   0.895   7.471   4.775  1.0569 -0.6785 -1.7109
10166SOL    HW232506   0.982   7.417   4.886 -2.5964  1.3878  2.4622
10167SOL     OW32507  10.042   2.935   9.611 -0.3895  0.2659  0.6496
10167SOL    HW132508  10.112   3.000   9.617  1.6242 -1.7520  0.2816
10167SOL    HW232509   9.982   2.959   9.682  1.5424  1.1269  2.1103
10168SOL     OW32510   6.723   2.370   5.813 -0.6189  0.5558  0.6381
10168SOL    HW132511   6.720   2.455   5.857 -0.9005  0.6337  0.4683
10168SOL    HW232512   6.763   2.389   5.728 -0.0144  0.3942  0.8778
10169SOL     OW32513   9.835   0.270   9.588 -0.4259  0.1481  0.0557
10169SOL    HW132514   9.836   0.362   9.563  1.2718 -0.5170 -2.7728
10169SOL    HW232515   9.926   0.250   9.612 -0.4989 -1.0526 -0.5731
10170SOL     OW32516   0.881   2.465   9.165  0.3483  0.2227  0.3511
10170SOL    HW132517   0.899   2.436   9.254 -0.2623  1.4707  0.8973
10170SOL    HW232518   0.929   2.546   9.155  0.8252 -0.1645 -0.6488
10171SOL     OW32519   5.316   0.772   7.450 -0.3027  0.1318 -0.3842
10171SOL    HW132520   5.335   0.739   7.362 -1.5796  0.4521 -0.8011
10171SOL    HW232521   5.360   0.711   7.509  0.1025 -0.4070 -1.2327
10172SOL     OW32522  10.329   1.866   9.086 -1.0481 -0.4046 -0.7600
10172SOL    HW132523  10.311   1.797   9.023 -2.4894 -1.8501  1.1229
10172SOL    HW232524  10.339   1.820   9.169  3.2012  1.1425 -0.1515
10173SOL     OW32525   6.350   0.864   2.133  0.2587  0.4723 -0.2364
10173SOL    HW132526   6.362   0.822   2.219  0.3635 -0.3548 -0.6468
10173SOL    HW232527   6.297   0.942   2.152 -0.8708 -0.4260  0.4017
10174SOL     OW32528   9.802   7.817   4.159  0.3904  0.9685 -0.4643
10174SOL    HW132529   9.797   7.880   4.087 -1.4283  1.6856  0.2574
10174SOL    HW232530   9.883   7.768   4.142 -0.2208  0.7837 -3.2563
10175SOL     OW32531   6.555   0.849   2.375  0.1694  0.7084  0.5214
10175SOL    HW132532   6.604   0.858   2.457  2.4548 -1.0950 -0.5308
10175SOL    HW232533   6.565   0.934   2.332 -0.8905  1.6104  1.9632
10176SOL     OW32534   5.898   4.675   1.240 -0.1106  0.3295 -0.3054
10176SOL    HW132535   5.932   4.691   1.152 -0.2515 -0.3068 -0.4808
10176SOL    HW232536   5.816   4.724   1.244 -0.3545 -0.0483 -0.7028
10177SOL     OW32537   8.902   0.876   5.434  0.2973 -0.0714 -0.5303
10177SOL    HW132538   8.809   0.855   5.447  0.6988 -2.3817 -0.9559
10177SOL    HW232539   8.903   0.938   5.361 -0.9179  0.4963 -0.1015
10178SOL     OW32540   4.994   6.846   2.848 -0.8458 -0.2247 -0.9761
10178SOL    HW132541   4.991   6.830   2.942 -2.7652  0.5486 -0.8598
10178SOL    HW232542   5.066   6.908   2.837  0.3414 -1.4201 -0.2359
10179SOL     OW32543   6.266   4.988   9.413  0.4014 -0.7824 -0.0947
10179SOL    HW132544   6.185   4.996   9.364 -1.7828 -0.6533  3.2589
10179SOL    HW232545   6.248   4.921   9.480  2.3931  0.5076  1.9011
10180SOL     OW32546  10.706   1.571   0.654  0.1451 -0.0231 -0.6047
10180SOL    HW132547  10.656   1.495   0.684  2.8420 -1.6545  0.1377
10180SOL    HW232548  10.785   1.571   0.709  0.2290  3.4273 -0.5097
10181SOL     OW32549   6.357   4.779   9.200  0.1626 -0.1362  0.4387
10181SOL    HW132550   6.400   4.779   9.286 -0.9245 -1.7239  1.0197
10181SOL    HW232551   6.268   4.748   9.218 -1.2583  2.8886 -0.7367
10182SOL     OW32552   8.554   8.476   4.309 -0.1878 -0.2913 -0.0448
10182SOL    HW132553   8.638   8.500   4.348  0.8419 -2.5006 -0.7420
10182SOL    HW232554   8.542   8.384   4.332 -2.7215  0.0647  0.4781
10183SOL     OW32555   6.162   5.438   2.625 -0.6262 -0.2553  0.0328
10183SOL    HW132556   6.103   5.367   2.652  0.1926 -1.1519 -0.4917
10183SOL    HW232557   6.199   5.409   2.542  0.5310  0.3114  0.3275
10184SOL     OW32558   6.386   2.822   6.404 -0.1087 -0.0855  0.1720
10184SOL    HW132559   6.369   2.777   6.321 -0.0420 -1.8055  1.0620
10184SOL    HW232560   6.366   2.914   6.385 -1.9838 -0.7090 -1.2252
10185SOL     OW32561   8.139   9.089  11.050  0.5314  0.5953 -0.0986
10185SOL    HW132562   8.166   8.998  11.040  0.0397  0.5441 -1.1471
10185SOL    HW232563   8.169   9.132  10.970 -0.6476  0.9894 -0.3525
10186SOL     OW32564  10.439   1.424   5.976 -0.3458  0.2338 -0.3434
10186SOL    HW132565  10.497   1.496   6.001  0.1603 -0.6521  1.1465
10186SOL    HW232566  10.493   1.346   5.982 -1.7256 -0.6673  1.4072
10187SOL     OW32567   2.614   4.934   8.184  0.1978 -0.0510  0.2130
10187SOL    HW132568   2.674   4.910   8.254  0.7408  0.1000 -0.1990
10187SOL    HW232569   2.660   4.913   8.103  0.2553  1.3091 -0.1398
10188SOL     OW32570   8.763  10.930  10.919 -0.0229  0.1786 -0.4045
10188SOL    HW132571   8.795  10.872  10.850  1.4756  0.0184  0.3650
10188SOL    HW232572   8.720  10.872  10.982 -0.8992  0.2559 -0.9229
10189SOL     OW32573   1.948   2.131   5.831 -0.2833 -0.1721 -0.2237
10189SOL    HW132574   1.920   2.221   5.847 -0.7427  0.1708 -2.6121
10189SOL    HW232575   1.866   2.082   5.821 -0.0615 -1.0977  1.9379
10190SOL     OW32576   0.653   4.592   4.406  0.0519  0.3826 -1.1697
10190SOL    HW132577   0.559   4.606   4.411 -0.2087 -1.2120 -1.1700
10190SOL    HW232578   0.687   4.623   4.490 -0.5120  0.6552 -1.0423
10191SOL     OW32579   2.299   8.488   4.284 -0.0713 -0.1606 -0.6107
10191SOL    HW132580   2.314   8.511   4.376 -1.2613  0.4745 -0.5464
10191SOL    HW232581   2.386   8.472   4.249  0.4192 -0.2849  0.5949
10192SOL     OW32582   1.550   9.604  10.477  0.2286  0.6521  0.2306
10192SOL    HW132583   1.483   9.672  10.483  0.5476  1.0831 -0.9252
10192SOL    HW232584   1.522   9.537  10.540 -2.3612 -0.0936 -1.5382
10193SOL     OW32585   8.798   9.642   6.949 -0.4824 -0.0676  0.1858
10193SOL    HW132586   8.820   9.722   6.901 -1.0961 -1.0748 -1.8890
10193SOL    HW232587   8.728   9.669   7.009  1.8153  1.7204  2.2745
10194SOL     OW32588   9.981   4.722   7.619 -0.5177  0.8418  0.5735
10194SOL    HW132589   9.927   4.677   7.554  0.5553  2.0066 -1.1920
10194SOL    HW232590  10.039   4.654   7.654 -0.1138  0.4631 -0.7750
10195SOL     OW32591   2.437   5.342   3.004 -0.3437  0.0359  0.6279
10195SOL    HW132592   2.517   5.293   2.984 -0.5127  0.3573 -0.9868
10195SOL    HW232593   2.369   5.298   2.954 -0.4638  1.9872 -1.0514
10196SOL     OW32594   1.318   9.346   2.249  0.1885  0.2275  0.0468
10196SOL    HW132595   1.349   9.327   2.338 -2.6319  0.8619  1.2612
10196SOL    HW232596   1.296   9.439   2.251 -0.8463  0.0154 -1.0122
10197SOL     OW32597   4.552   2.945   7.436 -0.0010 -0.4577 -0.0137
10197SOL    HW132598   4.542   3.038   7.456  0.6521 -0.1160 -1.1801
10197SOL    HW232599   4.579   2.943   7.344 -0.9096 -1.8545 -0.2760
10198SOL     OW32600  10.514   5.982   1.773  0.2249  0.2933  0.1863
10198SOL    HW132601  10.518   5.924   1.850  0.7310 -0.1072 -0.1364
10198SOL    HW232602  10.437   6.036   1.789 -0.8974 -1.1680  0.0221
10199SOL     OW32603   1.669   7.002   9.737  0.8117 -0.2057 -0.0146
10199SOL    HW132604   1.621   6.922   9.717  3.0250 -1.0801 -2.6137
10199SOL    HW232605   1.614   7.073   9.703  0.7751 -1.0913 -1.9692
10200SOL     OW32606   2.833   8.105   1.417 -0.0633 -0.1778  0.0396
10200SOL    HW132607   2.902   8.043   1.396 -1.4704 -0.6324 -4.0525
10200SOL    HW232608   2.865   8.190   1.386 -0.7652 -0.1185 -0.5387
10201SOL     OW32609   0.044   6.035   6.685 -0.2797 -0.1955 -0.6422
10201SOL    HW132610   0.104   6.102   6.650 -1.1447  1.2767  0.5553
10201SOL    HW232611  -0.021   6.023   6.617 -1.1350  1.5821 -0.2144
10202SOL     OW32612   2.074  10.528   8.899  0.0572 -0.1049 -0.1899
10202SOL    HW132613   2.072  10.434   8.917  1.5237 -0.2806 -0.7605
10202SOL    HW232614   2.151  10.540   8.844  0.9947  1.7058  1.3928
10203SOL     OW32615   5.165   8.158   4.019 -0.4870  0.4302 -0.8561
10203SOL    HW132616   5.255   8.171   3.988  0.0973 -0.7018  0.3054
10203SOL    HW232617   5.135   8.247   4.041  0.1411  0.8808 -1.7299
10204SOL     OW32618   4.530   8.670   9.878  0.2604  0.5718  0.5370
10204SOL    HW132619   4.481   8.737   9.831  1.4969  1.8757  1.0363
10204SOL    HW232620   4.486   8.664   9.963 -0.0699  0.4742  0.3630
10205SOL     OW32621   5.003   9.273   5.696 -0.3159  0.2881 -0.1563
10205SOL    HW132622   5.052   9.301   5.619  0.5860  1.2996  0.7501
10205SOL    HW232623   4.928   9.332   5.699 -1.0196 -0.5400 -0.9179
10206SOL     OW32624   1.012   6.762   1.106  0.1698  0.1544 -0.4811
10206SOL    HW132625   1.071   6.748   1.180 -2.4003  1.5454  2.0489
10206SOL    HW232626   1.067   6.751   1.028  2.8485 -2.2200  1.5513
10207SOL     OW32627   3.940   1.553   9.780  0.8099 -0.5617 -0.4615
10207SOL    HW132628   3.942   1.458   9.793  2.5163 -0.3415  1.2036
10207SOL    HW232629   4.026   1.583   9.807  0.3251  1.4812 -1.0437
10208SOL     OW32630  10.256   3.990  10.385 -0.4373 -0.2934 -0.2590
10208SOL    HW132631  10.242   3.942  10.304 -1.9426 -1.7293  0.7926
10208SOL    HW232632  10.270   3.922  10.451 -0.0946  0.8147  0.8507
10209SOL     OW32633   0.256   3.476   4.765 -0.7583 -1.3880  1.0991
10209SOL    HW132634   0.341   3.520   4.759 -0.2393 -2.4768 -0.0990
10209SOL    HW232635   0.214   3.495   4.681 -1.1024 -1.9954  1.1275
10210SOL     OW32636   6.333   0.797   3.550  0.1604 -0.5562  0.4603
10210SOL    HW132637   6.392   0.746   3.494  0.3451  0.4904 -0.3516
10210SOL    HW232638   6.256   0.813   3.495 -0.7762 -1.6425  1.4054
10211SOL     OW32639   2.959   8.604   1.107  0.3901  0.3723  0.2013
10211SOL    HW132640   2.880   8.551   1.118  0.9008 -0.5094 -0.2500
10211SOL    HW232641   2.960   8.662   1.183  1.1486 -2.0564  2.1810
10212SOL     OW32642   9.896   3.736   3.825  0.1962 -0.3518 -0.1702
10212SOL    HW132643   9.893   3.739   3.729 -1.0464 -1.5574 -0.1972
10212SOL    HW232644   9.985   3.763   3.846  0.6905 -0.6282 -1.7055
10213SOL     OW32645   2.488   2.959   3.483  0.4038 -0.4859 -0.5050
10213SOL    HW132646   2.517   3.045   3.454 -0.3208  0.1703  0.6426
10213SOL    HW232647   2.446   2.975   3.568 -2.0784 -1.5597 -1.4248
10214SOL     OW32648   8.628   3.573   8.487 -0.1652  0.1688  0.5068
10214SOL    HW132649   8.590   3.554   8.401  0.8539 -0.8735  0.2465
10214SOL    HW232650   8.633   3.668   8.491 -1.1538  0.2580 -0.1709
10215SOL     OW32651   0.586   5.732  10.120 -0.1305 -0.2861  0.1335
10215SOL    HW132652   0.520   5.665  10.137 -0.5214  0.2377  0.7306
10215SOL    HW232653   0.656   5.686  10.073  0.2569 -1.4360  1.7510
10216SOL     OW32654   7.003   1.734   9.532 -0.3563  0.0147  0.0752
10216SOL    HW132655   6.961   1.817   9.510  0.6466  0.6019  0.3145
10216SOL    HW232656   7.076   1.727   9.471 -1.3698 -1.5032 -1.0335
10217SOL     OW32657   7.119   9.635   5.797 -0.2680 -0.4390 -0.0450
10217SOL    HW132658   7.121   9.730   5.809 -0.1545 -0.1439 -2.0652
10217SOL    HW232659   7.194   9.603   5.846  2.7905  1.1216 -3.2664
10218SOL     OW32660   8.444   7.106   3.959 -0.1051 -0.2166  1.3106
10218SOL    HW132661   8.526   7.152   3.978  0.8994 -0.0864 -2.4541
10218SOL    HW232662   8.467   7.013   3.967 -0.7237 -0.1930  3.9579
10219SOL     OW32663   6.326   1.208  10.688  0.1449 -0.4141 -0.0333
10219SOL    HW132664   6.289   1.269  10.624  0.9091 -1.2325 -1.2919
10219SOL    HW232665   6.359   1.135  10.635 -0.9971 -2.0697  1.4565
10220SOL     OW32666   2.979   3.591   6.134  0.7737  0.1409  0.2666
10220SOL    HW132667   3.067   3.577   6.169 -0.1088 -0.7880  2.2616
10220SOL    HW232668   2.954   3.506   6.098 -0.2745 -0.3798  2.1177
10221SOL     OW32669   4.646   6.190   8.343 -0.6747 -0.4567  0.8443
10221SOL    HW132670   4.739   6.205   8.356 -1.0958  0.5710  3.0241
10221SOL    HW232671   4.629   6.106   8.385 -1.2141  0.7715  3.2709
10222SOL     OW32672   0.356   9.460   2.300  0.2504 -0.6349 -1.0072
10222SOL    HW132673   0.284   9.410   2.337  0.4969  0.0367  0.4315
10222SOL    HW232674   0.344   9.549   2.334  0.9464 -0.1798 -1.9051
10223SOL     OW32675   0.822   0.366   5.316  0.3736  0.3854  0.5084
10223SOL    HW132676   0.889   0.310   5.278  1.2879  1.2881  0.7615
10223SOL    HW232677   0.831   0.450   5.270 -1.0307  0.3356  0.0734
10224SOL     OW32678   1.589  10.360   1.647 -0.1328 -0.1887  0.1249
10224SOL    HW132679   1.572  10.428   1.711 -0.3162  1.1147 -1.2406
10224SOL    HW232680   1.564  10.399   1.563  0.9788 -1.4708 -0.8664
10225SOL     OW32681  10.358   5.163   5.895 -0.4186 -0.1052 -0.1126
10225SOL    HW132682  10.397   5.220   5.829  2.5792  1.2963  2.5540
10225SOL    HW232683  10.318   5.223   5.958  0.1717 -1.0910  1.2474
10226SOL     OW32684   4.416   8.412   4.748 -0.0007 -0.4368 -0.2614
10226SOL    HW132685   4.459   8.369   4.822 -0.2089 -0.4383 -0.1390
10226SOL    HW232686   4.375   8.490   4.786  1.8185  0.8228 -0.7771
10227SOL     OW32687   6.115   2.997   2.905 -0.2986 -0.6226  0.3859
10227SOL    HW132688   6.082   3.077   2.865 -0.4398  0.3189  2.2478
10227SOL    HW232689   6.043   2.966   2.960  0.7481 -0.3119  2.0166
10228SOL     OW32690   1.659   8.847   0.312 -0.0050 -0.0883  0.0606
10228SOL    HW132691   1.677   8.816   0.401  1.9116  0.5061 -0.0945
10228SOL    HW232692   1.583   8.795   0.285  1.2413 -2.5188  0.9069
10229SOL     OW32693   9.237   7.605   4.249  0.0081 -0.0675 -0.2386
10229SOL    HW132694   9.251   7.684   4.300  1.2152 -1.1452  1.1748
10229SOL    HW232695   9.254   7.632   4.158  2.7070  0.8213  0.4251
10230SOL     OW32696   2.963   6.065   9.075 -0.0464 -0.5182  0.2273
10230SOL    HW132697   2.948   6.155   9.103  0.0809  0.3800 -2.3112
10230SOL    HW232698   3.043   6.039   9.121  1.1806  1.4909 -0.6032
10231SOL     OW32699   1.079   2.847  10.772  0.5581  0.7148  0.5298
10231SOL    HW132700   1.156   2.790  10.773 -1.5364 -2.5210 -1.3220
10231SOL    HW232701   1.099   2.913  10.705  1.7220 -0.0942  0.0419
10232SOL     OW32702   2.577   6.080   6.898  0.3746 -0.6914 -0.3356
10232SOL    HW132703   2.585   6.090   6.992  1.6043 -1.4648 -0.3322
10232SOL    HW232704   2.504   6.137   6.873  0.0343 -0.4883  1.0695
10233SOL     OW32705   3.840   8.198   2.459 -0.3606  0.2442 -0.2283
10233SOL    HW132706   3.896   8.135   2.415 -1.9922 -1.6258  0.2456
10233SOL    HW232707   3.861   8.187   2.552 -1.5005 -0.5020 -0.0450
10234SOL     OW32708  10.195   8.746   7.651  0.2303 -0.6809  0.0442
10234SOL    HW132709  10.227   8.832   7.679  0.0801 -0.3635 -0.7336
10234SOL    HW232710  10.240   8.730   7.568  1.9409 -2.3392  1.2000
10235SOL     OW32711   8.118   8.848  10.868 -0.2041 -0.0721 -0.1909
10235SOL    HW132712   8.171   8.834  10.790 -0.8775 -2.3419 -0.3211
10235SOL    HW232713   8.028   8.852  10.834 -0.5079 -1.1849  0.4733
10236SOL     OW32714   8.487   3.143   0.576  0.2633 -0.7970 -0.0432
10236SOL    HW132715   8.536   3.181   0.648  1.5157 -0.9903 -0.7736
10236SOL    HW232716   8.415   3.204   0.561  2.8954  2.1011 -2.0194
10237SOL     OW32717   2.912   2.956   5.692  0.2967 -0.1972  0.5651
10237SOL    HW132718   2.912   2.925   5.602  0.6952  2.3727 -0.4027
10237SOL    HW232719   2.824   2.937   5.725 -0.6096  0.8539 -1.1496
10238SOL     OW32720  10.403   3.393   6.953  0.6858 -0.1181  0.0832
10238SOL    HW132721  10.354   3.471   6.925  1.0158  0.0839  0.0546
10238SOL    HW232722  10.403   3.398   7.048  1.6625  0.5358  0.0706
10239SOL     OW32723   4.563   5.373   0.906  0.5226  0.5372 -0.1145
10239SOL    HW132724   4.638   5.313   0.907  0.5325  0.5330 -0.7650
10239SOL    HW232725   4.555   5.400   0.815 -1.3642 -0.8624 -0.4322
10240SOL     OW32726   3.001   9.438   3.241  0.2634 -0.7531  0.4779
10240SOL    HW132727   3.006   9.369   3.175 -0.1752 -1.4376  1.1440
10240SOL    HW232728   2.983   9.518   3.191  4.8772 -0.2474 -0.8447
10241SOL     OW32729   2.795   3.402   0.475 -0.4057 -0.2157 -0.0657
10241SOL    HW132730   2.739   3.360   0.540 -0.3062  0.6250  0.5838
10241SOL    HW232731   2.831   3.330   0.424  0.0172 -0.9458  1.2252
10242SOL     OW32732   9.335   5.520  10.421 -1.0936 -0.0495 -0.2001
10242SOL    HW132733   9.260   5.500  10.477 -2.3486  1.8454 -1.1107
10242SOL    HW232734   9.356   5.612  10.440 -1.1840  0.4796 -2.3616
10243SOL     OW32735   3.066   6.282   5.012  0.3414  0.4296  0.6478
10243SOL    HW132736   3.132   6.346   4.986 -0.9623  0.9929 -1.4935
10243SOL    HW232737   3.054   6.298   5.106 -0.5529  3.9926  0.0785
10244SOL     OW32738   2.985  10.627   6.847  0.1320  0.5192 -0.3730
10244SOL    HW132739   2.949  10.672   6.771  0.5283  1.5923  0.0648
10244SOL    HW232740   3.075  10.606   6.822 -0.1990 -0.5307 -0.7709
10245SOL     OW32741   2.789  10.243   1.615 -0.0526 -0.0390 -0.7839
10245SOL    HW132742   2.844  10.225   1.539  3.0189  1.2110  0.9256
10245SOL    HW232743   2.819  10.180   1.681 -0.0139  1.2265  0.4621
10246SOL     OW32744   4.355   6.795   5.280  0.7028 -0.3359  0.1227
10246SOL    HW132745   4.341   6.889   5.288  2.8275  0.8022 -5.4380
10246SOL    HW232746   4.440   6.780   5.322  0.0726 -0.0245  1.5969
10247SOL     OW32747  10.958  10.576   6.681  0.6613 -0.0682 -0.0117
10247SOL    HW132748  11.046  10.554   6.712  0.6594  1.3962  1.1063
10247SOL    HW232749  10.926  10.642   6.742 -0.9406 -0.0356 -0.8288
10248SOL     OW32750   7.102   2.465   5.517 -0.4579  0.4770  0.2926
10248SOL    HW132751   7.155   2.386   5.511 -1.1608 -0.2465  2.5332
10248SOL    HW232752   7.156   2.534   5.478  0.3176 -1.0183 -1.3659
10249SOL     OW32753  11.037   8.749   5.565  0.2258 -0.2952  0.9483
10249SOL    HW132754  11.097   8.794   5.625  1.6297 -0.0490 -0.5624
10249SOL    HW232755  11.091   8.682   5.522 -0.0865  0.9760 -1.6365
10250SOL     OW32756   2.413   8.821  10.469  0.6478  0.4698 -0.4478
10250SOL    HW132757   2.502   8.785  10.474  1.3403  1.9881 -0.9244
10250SOL    HW232758   2.389   8.838  10.560  1.2314  0.8653 -0.3547
10251SOL     OW32759   3.101   7.739   9.488 -0.3860 -0.1120 -0.1480
10251SOL    HW132760   3.121   7.774   9.401 -0.1435 -0.4101 -0.2125
10251SOL    HW232761   3.007   7.722   9.485 -0.0059 -2.4340 -1.2176
10252SOL     OW32762   4.666   9.698   2.322  0.2287 -0.0916 -0.0734
10252SOL    HW132763   4.687   9.666   2.410  2.3697  0.6206 -0.2615
10252SOL    HW232764   4.699   9.631   2.263  1.0467  0.5290 -0.3539
10253SOL     OW32765   5.598   2.825   8.107  0.3632  0.5804  0.7724
10253SOL    HW132766   5.532   2.759   8.129 -0.5270  0.8179 -0.9902
10253SOL    HW232767   5.672   2.804   8.164 -0.6039 -0.7348  1.6243
10254SOL     OW32768   8.134   4.046   2.451 -0.2732  0.2094  0.6250
10254SOL    HW132769   8.096   4.132   2.434 -1.1423 -0.0276  1.3369
10254SOL    HW232770   8.115   4.029   2.543  0.2613 -0.5662  0.6017
10255SOL     OW32771   0.348   0.126  10.412  0.1000 -0.9950 -0.1498
10255SOL    HW132772   0.272   0.138  10.468  1.0902 -0.2355  1.0942
10255SOL    HW232773   0.322   0.161  10.327 -0.7015 -0.0775  0.4630
10256SOL     OW32774   4.168   2.825   2.697  0.1805 -0.5426 -0.2110
10256SOL    HW132775   4.230   2.892   2.669  1.1848 -0.6954  1.5085
10256SOL    HW232776   4.134   2.789   2.615  1.3850  0.4381 -1.1946
10257SOL     OW32777   5.745   7.471   0.643  0.0696 -0.9006  0.0372
10257SOL    HW132778   5.653   7.473   0.670  0.0094 -1.5442 -0.1045
10257SOL    HW232779   5.790   7.428   0.715  0.6026  1.2283  1.0450
10258SOL     OW32780   0.082   2.974   2.031 -0.1213 -0.1384  0.1754
10258SOL    HW132781   0.135   3.044   2.068  1.3790 -1.2497  0.2467
10258SOL    HW232782   0.105   2.897   2.083 -1.0524 -0.8777 -0.4640
10259SOL     OW32783   9.152   9.077   2.948  0.0402  0.1273 -0.1049
10259SOL    HW132784   9.068   9.100   2.988 -0.3888 -0.0136 -0.8949
10259SOL    HW232785   9.183   9.002   2.998 -1.0763 -0.8152 -0.7653
10260SOL     OW32786   1.242  10.861   3.164 -0.2427 -0.0335 -0.0093
10260SOL    HW132787   1.250  10.940   3.218  2.0002 -0.8058  0.9229
10260SOL    HW232788   1.258  10.891   3.075 -2.3982  0.9994 -0.1077
10261SOL     OW32789   5.932   7.550   1.729  0.0797 -0.2577  0.3408
10261SOL    HW132790   5.930   7.543   1.633 -0.4274 -1.9561  0.4549
10261SOL    HW232791   6.021   7.578   1.749  0.5405 -1.0407 -0.5640
10262SOL     OW32792   4.903   4.562   8.617  0.1011 -0.0714  0.9704
10262SOL    HW132793   4.866   4.572   8.704  2.2932  0.2450  1.9306
10262SOL    HW232794   4.827   4.553   8.559 -1.3917 -1.1231  2.9795
10263SOL     OW32795   8.972   1.303   6.800 -0.4645 -0.7226 -0.0425
10263SOL    HW132796   9.033   1.235   6.771 -1.4546 -1.7425  0.1975
10263SOL    HW232797   9.024   1.357   6.860  0.8121 -0.2432 -1.5244
10264SOL     OW32798   2.977   7.865  10.435 -0.3333  0.6319  0.8106
10264SOL    HW132799   3.043   7.800  10.458 -0.6447  0.5370  1.4388
10264SOL    HW232800   2.893   7.822  10.452 -0.5399  1.6076  2.4237
10265SOL     OW32801  11.072   3.184   0.648  0.1534  0.1454  0.1508
10265SOL    HW132802  10.980   3.182   0.621 -0.1807  1.2753  1.1044
10265SOL    HW232803  11.120   3.148   0.574 -1.0370 -0.2239 -0.4652
10266SOL     OW32804   9.068   2.634   0.635 -0.5050 -0.5067 -0.3482
10266SOL    HW132805   9.026   2.693   0.698  0.0001  0.0004 -0.4736
10266SOL    HW232806   9.152   2.612   0.676  0.0713  0.2663 -1.0761
10267SOL     OW32807   7.816   5.400   6.088 -0.5040  0.6534  0.3903
10267SOL    HW132808   7.722   5.401   6.103 -0.3127  2.9672  1.7915
10267SOL    HW232809   7.849   5.336   6.151 -1.2678 -2.0368 -1.7442
10268SOL     OW32810   9.837   0.494   1.268  0.2716  0.2423  0.1994
10268SOL    HW132811   9.823   0.547   1.346 -1.5558 -1.5793  1.2018
10268SOL    HW232812   9.774   0.527   1.204  1.7939  1.7591 -0.5924
10269SOL     OW32813   8.124   9.142   0.228  0.1825  0.5005  0.0299
10269SOL    HW132814   8.123   9.145   0.133  1.2052 -0.9108 -0.0472
10269SOL    HW232815   8.065   9.213   0.255  0.6658  1.5636 -1.6169
10270SOL     OW32816   1.276   6.809   7.445  1.0904  0.3602  0.2186
10270SOL    HW132817   1.275   6.713   7.452  1.7259  0.1774 -1.5059
10270SOL    HW232818   1.368   6.833   7.458  0.9848  0.7024  0.3455
10271SOL     OW32819   8.045   1.871   7.878  0.4477 -0.0281  0.5289
10271SOL    HW132820   8.077   1.828   7.957  1.4246 -0.1573  0.0873
10271SOL    HW232821   8.119   1.924   7.848  0.5735 -0.9836 -1.0028
10272SOL     OW32822   8.634   9.146   6.993  0.0872  0.9505 -0.0536
10272SOL    HW132823   8.672   9.227   7.027 -2.5592  2.1447  0.2554
10272SOL    HW232824   8.629   9.160   6.898  1.0891  0.4556 -0.1943
10273SOL     OW32825  10.884   5.748   3.920  0.1196 -0.1611  0.2574
10273SOL    HW132826  10.865   5.840   3.937  0.6088 -0.6393  4.2661
10273SOL    HW232827  10.802   5.702   3.939  0.3922 -0.7338  0.0899
10274SOL     OW32828  10.974   6.244   7.956  0.3420 -0.2497 -0.3002
10274SOL    HW132829  10.946   6.175   7.896 -0.7059 -0.3339  0.2685
10274SOL    HW232830  11.040   6.293   7.907  1.2687 -1.7626 -0.6445
10275SOL     OW32831   1.068   4.557  10.851  0.5105  0.3756  0.7451
10275SOL    HW132832   1.141   4.588  10.798 -0.6079 -1.6868 -2.2361
10275SOL    HW232833   1.020   4.637  10.873  2.5473  1.5666  1.1096
10276SOL     OW32834   5.690  10.209   1.695  0.3965 -0.2336 -0.5378
10276SOL    HW132835   5.629  10.263   1.645 -1.2225  0.0557  1.6268
10276SOL    HW232836   5.664  10.119   1.675 -0.6522 -0.1128  0.2551
10277SOL     OW32837   6.049   2.303  10.290 -0.0834  0.5754  0.3162
10277SOL    HW132838   5.983   2.233  10.294  2.0151 -1.6828 -1.3902
10277SOL    HW232839   6.027   2.360  10.364 -0.9019 -2.8835  3.0546
10278SOL     OW32840   7.636   0.048   6.065  0.1081 -0.0708  0.2177
10278SOL    HW132841   7.731   0.056   6.072  0.1769  2.8628 -2.0908
10278SOL    HW232842   7.601   0.118   6.121 -0.4587  1.0233 -1.3933
10279SOL     OW32843   4.071   2.249   3.285 -0.3976  0.4117  0.7124
10279SOL    HW132844   4.054   2.255   3.379  0.6748  0.0762  0.9428
10279SOL    HW232845   4.123   2.169   3.275  1.8199  1.8251  0.1932
10280SOL     OW32846   6.055   3.001   5.575 -0.1187  0.2738  0.3723
10280SOL    HW132847   6.062   2.967   5.485 -2.1578 -1.1511  0.6695
10280SOL    HW232848   6.117   3.073   5.578  1.2725 -0.7256 -1.6634
10281SOL     OW32849   8.208   4.849   2.814 -0.1777  0.2943 -0.7002
10281SOL    HW132850   8.238   4.818   2.899  0.1175 -1.0994 -1.2876
10281SOL    HW232851   8.229   4.942   2.813  1.3241 -0.0171  0.0985
10282SOL     OW32852   7.250   7.800   2.100 -0.3579  0.2136  0.1666
10282SOL    HW132853   7.303   7.752   2.037  2.7234  2.3495  0.8750
10282SOL    HW232854   7.186   7.848   2.048  0.8912  0.4802 -1.1524
10283SOL     OW32855   0.783   3.808   4.462 -0.6780  0.4914 -0.2944
10283SOL    HW132856   0.692   3.825   4.439 -0.9817  1.9768  1.7751
10283SOL    HW232857   0.801   3.867   4.535  1.4266 -1.0267  0.5050
10284SOL     OW32858   0.785   0.459   9.184  0.0546 -0.4399 -0.2168
10284SOL    HW132859   0.763   0.369   9.208  1.4002 -0.7009  0.1473
10284SOL    HW232860   0.730   0.478   9.109 -0.6891 -1.3537  0.0692
10285SOL     OW32861   6.665   2.902  10.414 -0.3169  0.0523  0.4971
10285SOL    HW132862   6.720   2.824  10.405 -0.5698 -0.0295 -0.4460
10285SOL    HW232863   6.710   2.956  10.479  0.6251 -0.2263  0.0951
10286SOL     OW32864   7.234   9.389   4.245  0.3972 -0.1176 -0.1353
10286SOL    HW132865   7.266   9.478   4.259 -1.5470  0.3837  1.5857
10286SOL    HW232866   7.287   9.334   4.303 -2.0048  0.7931  3.2367
10287SOL     OW32867   7.356   0.470   3.684  0.1192  0.2594  0.5207
10287SOL    HW132868   7.264   0.476   3.709  0.1073  0.5468  0.4065
10287SOL    HW232869   7.403   0.510   3.758  0.0299  1.9995 -0.3208
10288SOL     OW32870   7.532   1.914   7.590 -0.4027  0.0962  0.6268
10288SOL    HW132871   7.477   1.949   7.520  0.2996 -0.9120 -0.4723
10288SOL    HW232872   7.578   1.840   7.550  3.0981  1.8960  0.8943
10289SOL     OW32873   4.272   9.667   4.898  0.5057 -0.3069 -0.7145
10289SOL    HW132874   4.238   9.756   4.889 -0.7667 -0.9678 -3.4185
10289SOL    HW232875   4.353   9.666   4.848  0.4621 -0.6847 -0.7862
10290SOL     OW32876   0.256   7.630   0.910  0.5747 -0.4655 -0.2671
10290SOL    HW132877   0.300   7.551   0.877  1.2648  0.5817 -2.0114
10290SOL    HW232878   0.216   7.669   0.832 -0.1839  0.6502  0.6518
10291SOL     OW32879   1.421   2.085   2.726  0.3204 -0.3488 -0.3938
10291SOL    HW132880   1.384   2.061   2.641 -0.6221 -0.6455  0.0802
10291SOL    HW232881   1.458   2.003   2.760 -0.0714 -0.4308 -0.1540
10292SOL     OW32882   0.916   7.818  10.523  0.0921 -0.3859 -0.5151
10292SOL    HW132883   0.938   7.750  10.587  0.6886  0.3990  0.1410
10292SOL    HW232884   0.826   7.843  10.545  0.5973  0.5191  0.6435
10293SOL     OW32885   2.708   1.829   4.064 -0.1914  0.6646 -0.1236
10293SOL    HW132886   2.670   1.857   3.981  0.1372 -0.9820 -0.8747
10293SOL    HW232887   2.775   1.894   4.084  0.2727  0.6492 -1.5640
10294SOL     OW32888   2.533  10.720   2.123  0.5416 -0.0531  0.2252
10294SOL    HW132889   2.543  10.717   2.218  0.8098  0.4523  0.2127
10294SOL    HW232890   2.623  10.719   2.089  0.4558 -1.9658 -0.0919
10295SOL     OW32891   8.435  10.865   9.424  0.1084 -0.5110  0.0755
10295SOL    HW132892   8.448  10.935   9.359 -0.7136  0.1598  0.6087
10295SOL    HW232893   8.521  10.853   9.464  0.1800  0.4961  0.2569
10296SOL     OW32894   5.937   1.047   5.145 -0.4115 -0.3804  0.1532
10296SOL    HW132895   5.961   1.033   5.237  0.2258 -2.2668 -0.2404
10296SOL    HW232896   5.931   1.142   5.136  0.0854 -0.1259  2.0023
10297SOL     OW32897   5.236   7.049   1.610 -0.0711  0.5423 -0.0737
10297SOL    HW132898   5.328   7.027   1.627 -0.2893 -0.4923 -0.1541
10297SOL    HW232899   5.207   6.984   1.546 -1.5277 -0.7558  1.7706
10298SOL     OW32900   6.361  10.583   2.259 -0.2914 -0.2820  0.2228
10298SOL    HW132901   6.271  10.613   2.244 -1.0363 -2.2952  0.2767
10298SOL    HW232902   6.377  10.602   2.351 -1.2354 -1.2102  0.6032
10299SOL     OW32903   3.256   8.876   0.856 -0.1585  0.0811  0.1070
10299SOL    HW132904   3.266   8.928   0.936 -0.4827 -1.6170  1.3093
10299SOL    HW232905   3.162   8.878   0.838 -0.1607 -0.0412  0.1082
10300SOL     OW32906   3.716   5.985   4.625  0.2326 -0.6192 -0.5001
10300SOL    HW132907   3.789   5.977   4.686 -0.0291 -0.4913 -0.1704
10300SOL    HW232908   3.757   5.990   4.539  0.6701  0.5749 -0.2365
10301SOL     OW32909   0.247   3.422   3.253  0.3450 -0.1128 -0.0654
10301SOL    HW132910   0.253   3.421   3.157 -1.5556  2.5569 -0.3114
10301SOL    HW232911   0.337   3.407   3.282  0.9654 -1.0109 -2.2560
10302SOL     OW32912   6.660   9.638   2.082 -0.1171  0.4398 -0.0344
10302SOL    HW132913   6.647   9.707   2.017  0.2286 -0.1852 -0.7819
10302SOL    HW232914   6.665   9.557   2.031  3.7075  0.2393  0.3485
10303SOL     OW32915   7.687   4.618  10.278 -0.0497  0.3960 -0.0942
10303SOL    HW132916   7.624   4.546  10.269 -0.9307  0.7825  2.3178
10303SOL    HW232917   7.696   4.630  10.372  0.2894  3.2737 -0.4139
10304SOL     OW32918   7.584   5.261   9.383  0.5163 -0.5816 -0.0172
10304SOL    HW132919   7.646   5.307   9.327 -0.3514  1.1481  0.3777
10304SOL    HW232920   7.551   5.189   9.329  1.2136 -0.2023 -0.9799
10305SOL     OW32921   2.345   5.479   8.856 -0.2340 -0.2569  0.7049
10305SOL    HW132922   2.334   5.544   8.787  0.4031 -1.5288 -0.6447
10305SOL    HW232923   2.366   5.530   8.934  0.0696  1.1559 -0.2699
10306SOL     OW32924  10.125   6.914  10.819  0.3577  0.1284 -0.7702
10306SOL    HW132925  10.188   6.963  10.766  0.8395 -0.9096 -1.1753
10306SOL    HW232926  10.075   6.863  10.755 -1.2015  1.2484 -0.5016
10307SOL     OW32927  10.667   5.333   6.767 -0.5942  0.3718  0.8824
10307SOL    HW132928  10.717   5.295   6.839  0.2595  0.9446  0.6065
10307SOL    HW232929  10.578   5.339   6.801 -0.5832 -1.0624  1.2268
10308SOL     OW32930   4.869   5.952  10.681 -0.2304 -0.0050  0.3405
10308SOL    HW132931   4.961   5.977  10.666  0.1826 -0.8884  1.3161
10308SOL    HW232932   4.819   6.031  10.657  0.7443  0.3717 -0.5533
10309SOL     OW32933   6.206   3.951  10.004  0.4744 -0.5091  0.1164
10309SOL    HW132934   6.292   3.950   9.960  0.3503 -2.2818 -0.1473
10309SOL    HW232935   6.143   3.950   9.932  0.2167  0.1709  0.3233
10310SOL     OW32936   0.405   4.572  10.499  0.3861  0.0642 -0.3134
10310SOL    HW132937   0.454   4.628  10.559  0.7560 -1.7119  1.1300
10310SOL    HW232938   0.320   4.560  10.542  0.1996 -0.2281 -0.7589
10311SOL     OW32939  10.759   1.436   6.088  0.1583  0.1781 -0.2166
10311SOL    HW132940  10.749   1.341   6.080  0.8383  0.1251 -0.5256
10311SOL    HW232941  10.806   1.462   6.009 -0.5695  0.8665 -0.4295
10312SOL     OW32942   8.663   1.644   0.026 -0.0583 -0.0658  0.0831
10312SOL    HW132943   8.605   1.668  -0.047  0.9151  1.3987 -0.2319
10312SOL    HW232944   8.662   1.548   0.025 -0.3011 -0.0856 -1.6724
10313SOL     OW32945   2.521   5.070   4.119 -0.5627 -0.0373 -0.2097
10313SOL    HW132946   2.456   5.000   4.112  0.0256 -0.9709  2.4376
10313SOL    HW232947   2.470   5.147   4.145 -0.7191 -0.6934  1.5687
10314SOL     OW32948   8.617  10.619   8.692  0.1839 -0.1386  0.4259
10314SOL    HW132949   8.655  10.701   8.721  0.1520 -0.0572  0.2362
10314SOL    HW232950   8.640  10.612   8.599  0.6664 -0.6146  0.5758
10315SOL     OW32951   5.137   4.209   9.754 -0.3753 -0.3219 -0.6918
10315SOL    HW132952   5.205   4.145   9.776 -0.6956 -0.6674 -0.7038
10315SOL    HW232953   5.088   4.169   9.682  0.0638  0.3809 -1.4127
10316SOL     OW32954   2.693   1.744   1.301  0.1513  0.7113  0.0778
10316SOL    HW132955   2.780   1.783   1.306  0.1072  0.7801  0.3188
10316SOL    HW232956   2.688   1.687   1.378 -0.2154  1.1148  0.3611
10317SOL     OW32957   9.785   4.931   6.307 -0.6430  0.0999  0.1023
10317SOL    HW132958   9.827   4.887   6.382  0.0578  0.5841  0.0047
10317SOL    HW232959   9.760   4.859   6.249  0.7077 -0.1850 -0.1658
10318SOL     OW32960  11.087   0.022   5.950 -0.0579 -0.6471  0.5164
10318SOL    HW132961  11.119   0.095   6.003 -2.5019  1.1651 -0.3294
10318SOL    HW232962  11.129   0.034   5.865 -0.3453 -0.2995  0.4213
10319SOL     OW32963   0.140  10.333   1.792  0.4389 -0.3871 -0.3527
10319SOL    HW132964   0.153  10.414   1.840  0.9527 -0.7658  0.1521
10319SOL    HW232965   0.206  10.273   1.826 -0.3846 -1.2465 -0.2121
10320SOL     OW32966   4.156   3.855   4.663 -0.0659  0.4402 -0.1568
10320SOL    HW132967   4.220   3.788   4.640  0.4888  0.7568  0.4214
10320SOL    HW232968   4.208   3.927   4.699 -0.7293  0.7928  0.1317
10321SOL     OW32969   7.693   1.715   5.380 -0.4628  0.5857 -1.4580
10321SOL    HW132970   7.617   1.658   5.374 -0.1842  0.2428 -1.7940
10321SOL    HW232971   7.767   1.655   5.392 -0.4402  0.9763  0.8706
10322SOL     OW32972   1.188   1.943   5.973  0.7691  0.3891  0.3102
10322SOL    HW132973   1.123   1.936   5.903  1.6485  1.2861 -0.6462
10322SOL    HW232974   1.205   2.037   5.980  0.5889  0.3246  1.8557
10323SOL     OW32975   4.311   4.205   8.365  0.1458  0.4473  0.3421
10323SOL    HW132976   4.401   4.233   8.380  0.9306 -1.9240  0.5814
10323SOL    HW232977   4.314   4.156   8.283 -0.7969 -0.1246  0.6222
10324SOL     OW32978   1.811   7.378   3.111  0.0082 -0.7346 -0.0748
10324SOL    HW132979   1.738   7.320   3.088 -1.1410 -0.0216  1.5679
10324SOL    HW232980   1.863   7.327   3.173 -0.1638 -0.5621  0.2136
10325SOL     OW32981   0.398   2.806  10.806 -0.0013 -0.2792  0.3199
10325SOL    HW132982   0.446   2.753  10.869 -1.0333 -0.2592  1.1718
10325SOL    HW232983   0.317   2.830  10.853 -0.2359  0.7687 -0.5814
10326SOL     OW32984   8.297  10.737   7.393  0.8625 -0.1562  0.2179
10326SOL    HW132985   8.356  10.684   7.339  0.4295 -1.2611  0.7884
10326SOL    HW232986   8.216  10.744   7.342  0.7165 -0.5536  0.3926
10327SOL     OW32987  10.712   5.868   5.126  0.4378 -0.2094 -0.0218
10327SOL    HW132988  10.760   5.946   5.151  0.0603  0.3060 -0.8594
10327SOL    HW232989  10.622   5.898   5.115  0.2830 -0.7690 -0.3226
10328SOL     OW32990   1.302   6.781   3.625  0.3721 -0.1463  0.7886
10328SOL    HW132991   1.221   6.819   3.657 -1.0161 -1.2260 -1.1843
10328SOL    HW232992   1.349   6.854   3.585 -1.9282 -0.1277 -2.3312
10329SOL     OW32993   5.186   8.747   5.474 -0.3857  0.4939  0.6976
10329SOL    HW132994   5.152   8.673   5.424  0.1146  0.4400  0.4273
10329SOL    HW232995   5.176   8.721   5.566  2.0390 -0.9977  0.6379
10330SOL     OW32996   4.554   8.930   6.965 -0.0151  0.8136  0.3618
10330SOL    HW132997   4.586   8.841   6.977 -1.0577  0.1725 -1.2838
10330SOL    HW232998   4.633   8.982   6.950  0.4521 -0.4303 -1.8850
10331SOL     OW32999   2.131   9.714   7.768  0.0580 -0.2844  0.3401
10331SOL    HW133000   2.192   9.644   7.791  0.5884 -0.4054 -1.3022
10331SOL    HW233001   2.086   9.681   7.690  0.2965  1.1851 -0.4398
10332SOL     OW33002   9.601   2.209   6.327  0.2316 -0.4048  0.4908
10332SOL    HW133003   9.668   2.166   6.272 -0.8987  1.9337 -3.0569
10332SOL    HW233004   9.525   2.151   6.321 -0.0766  0.1196 -1.0324
10333SOL     OW33005   4.511   6.314   6.587  0.1341  0.2987  0.4155
10333SOL    HW133006   4.577   6.245   6.597 -0.1796  0.2044  2.1623
10333SOL    HW233007   4.512   6.335   6.494  0.8317 -1.4793 -0.0177
10334SOL     OW33008   4.108   7.590  10.815 -0.6186 -0.5374 -0.0995
10334SOL    HW133009   4.141   7.501  10.807 -1.3520 -0.7180 -1.4302
10334SOL    HW233010   4.022   7.580  10.855 -0.5693 -0.3931  0.0430
10335SOL     OW33011   7.371  10.374  10.793 -0.3627  0.4089  0.2029
10335SOL    HW133012   7.435  10.445  10.804 -0.9630  0.9534  0.2684
10335SOL    HW233013   7.399  10.307  10.855 -0.5142  1.1397  1.0976
10336SOL     OW33014   4.896   9.062   6.216  0.3163 -0.2253 -0.1500
10336SOL    HW133015   4.970   9.083   6.159 -0.9417  0.6402 -1.5368
10336SOL    HW233016   4.822   9.051   6.157 -0.8038 -0.5329  1.2377
10337SOL     OW33017   0.660   5.465  10.004  0.2033 -0.0560  0.3277
10337SOL    HW133018   0.678   5.470   9.910 -0.3880  1.6369  0.2699
10337SOL    HW233019   0.730   5.411  10.039  0.2965 -0.9350 -1.1089
10338SOL     OW33020   3.609   3.991   8.415 -0.1162 -0.1131 -0.1543
10338SOL    HW133021   3.532   4.029   8.372  0.0897 -1.3621 -1.7243
10338SOL    HW233022   3.613   3.902   8.382  0.4379 -0.9763  2.0413
10339SOL     OW33023   1.960   9.863   0.607  0.5465  0.5112 -0.2404
10339SOL    HW133024   1.875   9.843   0.646  1.2724 -0.6092  0.8143
10339SOL    HW233025   2.018   9.877   0.681  1.3128  1.1919 -0.9517
10340SOL     OW33026   0.975   5.332   9.372 -0.1746 -0.0408  0.3557
10340SOL    HW133027   1.051   5.274   9.365 -1.0669 -1.1274 -0.9488
10340SOL    HW233028   0.998   5.393   9.441  1.0354 -1.6241  1.4374
10341SOL     OW33029   1.017   9.844   4.214  0.4584  0.2411  0.3459
10341SOL    HW133030   0.952   9.793   4.260 -0.1765  2.3016  1.8884
10341SOL    HW233031   1.008   9.818   4.122 -0.9993 -1.0989  0.8281
10342SOL     OW33032   3.692   9.769   4.461 -0.6026  0.0367 -0.5267
10342SOL    HW133033   3.644   9.719   4.528 -0.0286  1.5234  1.0855
10342SOL    HW233034   3.772   9.799   4.506  0.1354  0.5384 -2.0939
10343SOL     OW33035   3.099  10.554   3.124  0.0492 -0.2164 -0.4022
10343SOL    HW133036   3.152  10.632   3.106  0.3929 -0.2414  0.4380
10343SOL    HW233037   3.148  10.508   3.192 -0.3465 -0.9745 -0.6266
10344SOL     OW33038   8.939   4.307   6.870  0.1554  0.0103 -0.6082
10344SOL    HW133039   8.879   4.233   6.866  0.4417 -0.3113  0.6541
10344SOL    HW233040   8.980   4.301   6.956  0.1658  1.6440 -0.4517
10345SOL     OW33041   8.976   5.906  10.404  0.1690 -0.2315  0.2127
10345SOL    HW133042   8.937   5.890  10.490 -0.8388 -1.6944 -0.4654
10345SOL    HW233043   8.999   5.999  10.404 -2.5894  0.5384  0.9633
10346SOL     OW33044   1.921   4.990   0.985 -0.7235  0.4024 -0.3002
10346SOL    HW133045   1.989   4.998   0.917  0.5471  0.4155  0.9224
10346SOL    HW233046   1.861   5.063   0.967  1.0139  2.0295  0.0895
10347SOL     OW33047   8.537   0.265   7.242 -0.6070  0.2642 -0.1895
10347SOL    HW133048   8.609   0.205   7.264 -0.1839 -0.3890 -2.9705
10347SOL    HW233049   8.581   0.349   7.228 -0.5725  0.1738 -0.6197
10348SOL     OW33050   4.412   5.084   9.099 -0.6642 -0.0390  0.0393
10348SOL    HW133051   4.428   5.006   9.152  1.3480  0.7755  0.7597
10348SOL    HW233052   4.352   5.137   9.150 -1.8814 -1.0021 -0.3620
10349SOL     OW33053   8.001   7.960  10.819  0.7834 -0.1068 -1.5750
10349SOL    HW133054   8.024   7.986  10.908 -0.1520  0.4055 -1.4659
10349SOL    HW233055   7.991   7.865  10.823  4.4672 -0.6225 -2.0181
10350SOL     OW33056  10.597  10.798   3.823 -0.3594  0.0497  0.0803
10350SOL    HW133057  10.633  10.723   3.775 -2.7669 -1.1923  0.0252
10350SOL    HW233058  10.633  10.790   3.911  0.8698 -0.0660 -0.4137
10351SOL     OW33059  10.499   2.221   5.733 -0.1515  0.1761 -0.0477
10351SOL    HW133060  10.404   2.229   5.736 -0.1109  1.2108 -1.0970
10351SOL    HW233061  10.529   2.303   5.695  1.2339  0.2344  1.0995
10352SOL     OW33062   3.089   3.601   6.437  0.0154 -0.0236 -0.2159
10352SOL    HW133063   3.179   3.569   6.431 -0.1335 -0.1819 -2.2123
10352SOL    HW233064   3.082   3.668   6.369 -1.0491  0.8670  0.7213
10353SOL     OW33065   3.799   6.283   2.758  0.2913 -0.2948  0.2105
10353SOL    HW133066   3.763   6.359   2.803 -0.0721 -0.0693 -0.4491
10353SOL    HW233067   3.727   6.220   2.754  0.3311 -0.3294 -0.0108
10354SOL     OW33068   8.803   9.189   6.215  0.2678  0.2485  0.1415
10354SOL    HW133069   8.864   9.262   6.205 -0.2021  0.4500 -1.6444
10354SOL    HW233070   8.793   9.154   6.126  0.7999 -2.2699  0.9824
10355SOL     OW33071   9.227  10.433   0.262  0.1414  0.5161 -0.1230
10355SOL    HW133072   9.162  10.443   0.192  1.8032 -1.2990 -2.1148
10355SOL    HW233073   9.291  10.502   0.245  1.0585 -0.5136 -1.1388
10356SOL     OW33074   5.055   5.866   1.070  0.1278  0.0649  0.5505
10356SOL    HW133075   5.072   5.791   1.127 -1.2724 -0.6388  0.0852
10356SOL    HW233076   5.015   5.828   0.992  0.9252  1.1443 -0.4156
10357SOL     OW33077   8.170   7.162   3.579 -0.1213  0.0411  0.3269
10357SOL    HW133078   8.227   7.217   3.526  0.3738 -1.4478 -0.7610
10357SOL    HW233079   8.228   7.093   3.613 -0.4540  0.8340  2.7070
10358SOL     OW33080   2.882   3.088   3.954  0.1494 -0.0791  0.3188
10358SOL    HW133081   2.968   3.047   3.944 -0.1846 -1.0979  1.3974
10358SOL    HW233082   2.888   3.169   3.903  1.0977 -1.0574 -1.2212
10359SOL     OW33083   5.355  10.921   3.885 -0.2724  0.3008  0.0254
10359SOL    HW133084   5.320  10.959   3.965  3.1075  3.8452  0.1114
10359SOL    HW233085   5.281  10.873   3.847 -3.2262  1.9887  3.0840
10360SOL     OW33086   2.934   4.386   7.838 -0.0154  0.0433 -0.8977
10360SOL    HW133087   2.861   4.341   7.794  0.0156 -1.4426  0.4786
10360SOL    HW233088   2.989   4.315   7.870 -1.1933  0.8217  3.5274
10361SOL     OW33089  10.530   4.910   6.339 -0.6978 -0.4368  0.5825
10361SOL    HW133090  10.598   4.890   6.276 -1.5484 -0.2739 -0.4130
10361SOL    HW233091  10.555   4.861   6.418  0.1289 -1.0228 -0.0259
10362SOL     OW33092   6.948   8.772   9.210 -0.2889 -0.3164  0.0063
10362SOL    HW133093   6.855   8.785   9.193 -0.1798  0.0461 -0.3210
10362SOL    HW233094   6.974   8.848   9.261 -0.3785 -0.8825  0.9309
10363SOL     OW33095   6.373   8.984   8.087  0.1520 -0.1075  0.0400
10363SOL    HW133096   6.457   8.940   8.070  0.0376 -0.2695 -0.1119
10363SOL    HW233097   6.317   8.915   8.122 -0.0754 -0.1151 -0.3427
10364SOL     OW33098   7.933   0.166   1.348 -0.6730  0.2016 -0.3646
10364SOL    HW133099   7.959   0.181   1.256 -1.8956 -1.5920 -1.0625
10364SOL    HW233100   7.946   0.250   1.390  0.2608  1.0000 -2.1052
10365SOL     OW33101   5.690   8.670   6.048 -0.2925 -0.1675 -0.3609
10365SOL    HW133102   5.725   8.743   5.997 -3.9362  1.3733 -0.9603
10365SOL    HW233103   5.710   8.691   6.139 -0.1407  0.9248 -0.6389
10366SOL     OW33104   6.052   5.400  10.449  0.0776 -0.3612 -0.4813
10366SOL    HW133105   6.131   5.376  10.497 -0.5152 -0.0168  0.7006
10366SOL    HW233106   6.001   5.451  10.511 -0.8107 -0.0782 -1.4236
10367SOL     OW33107   3.828   4.381  10.494  0.4984 -0.2487  0.1124
10367SOL    HW133108   3.788   4.300  10.525  1.6728 -0.3743  1.4120
10367SOL    HW233109   3.815   4.380  10.399 -1.0709 -1.0719  0.3105
10368SOL     OW33110   7.794   3.586  10.659 -0.0496  0.4812 -0.6109
10368SOL    HW133111   7.840   3.502  10.666  2.3750  1.4877 -2.7337
10368SOL    HW233112   7.713   3.564  10.613  0.6815 -0.6986 -1.4117
10369SOL     OW33113   0.625   9.491   1.894 -0.3512 -0.4263 -0.2020
10369SOL    HW133114   0.696   9.463   1.836 -0.0594 -2.2683  0.9576
10369SOL    HW233115   0.549   9.442   1.863 -0.2470 -1.2329  0.7658
10370SOL     OW33116   9.635   8.978  11.036  0.0797 -0.4517  0.0745
10370SOL    HW133117   9.664   8.911  11.098 -1.4353  0.9241  2.4203
10370SOL    HW233118   9.554   9.013  11.075  0.0569  1.7517 -1.7678
10371SOL     OW33119   3.024   6.310   9.216  0.0518 -0.0630  0.0373
10371SOL    HW133120   2.939   6.319   9.260  0.7119  0.1752  1.3151
10371SOL    HW233121   3.036   6.393   9.170 -0.0160  0.2538  0.5799
10372SOL     OW33122   0.216   0.931   7.173 -0.0369 -0.2792 -0.4120
10372SOL    HW133123   0.238   0.916   7.265  0.6332  0.9079 -0.3619
10372SOL    HW233124   0.125   0.902   7.165 -1.0210  2.0447  1.2742
10373SOL     OW33125   7.045   1.180   2.418  0.2413 -0.2552 -0.4547
10373SOL    HW133126   7.067   1.129   2.496 -0.6812 -1.1539 -0.7616
10373SOL    HW233127   6.970   1.135   2.380 -0.4355  1.1700 -0.8972
10374SOL     OW33128   0.198   8.025   0.101 -0.5101 -0.1844 -0.3323
10374SOL    HW133129   0.145   7.966   0.155 -1.2769  1.2051  0.5131
10374SOL    HW233130   0.287   8.014   0.133 -0.6519 -0.8508 -0.1624
10375SOL     OW33131   5.462   2.399   3.693 -0.4510 -0.3327  0.4344
10375SOL    HW133132   5.546   2.419   3.652 -0.5155 -1.6714 -0.4163
10375SOL    HW233133   5.465   2.304   3.710 -1.3853 -0.2292  1.3332
10376SOL     OW33134   9.271   3.441   7.508  0.2719  0.2309  0.2140
10376SOL    HW133135   9.251   3.433   7.602  0.1279 -0.6066  0.1200
10376SOL    HW233136   9.323   3.521   7.502 -1.7173  1.6392  0.6714
10377SOL     OW33137   4.883   2.456   2.673 -0.2070 -0.1190 -0.0770
10377SOL    HW133138   4.815   2.523   2.684  0.9820  1.1271  0.0083
10377SOL    HW233139   4.965   2.503   2.691  0.6347 -1.7224  0.4317
10378SOL     OW33140   3.611   1.923   4.790 -0.8846 -0.2640  0.0180
10378SOL    HW133141   3.703   1.897   4.793 -0.5677  0.9010  0.7632
10378SOL    HW233142   3.591   1.926   4.696 -0.4250 -1.3340 -0.1407
10379SOL     OW33143   7.875   4.436   7.902  0.9335  0.9223  0.4460
10379SOL    HW133144   7.828   4.368   7.951  0.5845  0.4477 -0.5220
10379SOL    HW233145   7.931   4.478   7.967  1.9240 -0.9756  0.8864
10380SOL     OW33146   6.502   4.518   9.294 -0.5395 -0.4325  0.5312
10380SOL    HW133147   6.495   4.609   9.324 -0.2766 -0.5500  0.9635
10380SOL    HW233148   6.545   4.524   9.209 -2.4905  0.0075 -0.4770
10381SOL     OW33149   0.464   8.318   0.550 -0.4870 -0.4078 -0.4098
10381SOL    HW133150   0.539   8.353   0.501  0.8034 -2.9640 -0.4593
10381SOL    HW233151   0.404   8.287   0.482 -1.4645  1.2696 -0.3627
10382SOL     OW33152   4.833   9.137   1.795  0.2498 -0.3204  0.3503
10382SOL    HW133153   4.880   9.185   1.727 -0.0197  0.5648  0.7614
10382SOL    HW233154   4.741   9.140   1.767  0.1341  0.0700  0.7478
10383SOL     OW33155  10.802   1.622  10.886  0.2480 -0.0646  0.2555
10383SOL    HW133156  10.870   1.688  10.875 -0.4519  0.5892 -0.2774
10383SOL    HW233157  10.815   1.589  10.975  0.2133  1.2650  0.7792
10384SOL     OW33158   0.874   9.490   7.194 -0.9206 -0.2367 -0.3102
10384SOL    HW133159   0.944   9.425   7.208 -1.0303 -0.2737  0.0972
10384SOL    HW233160   0.866   9.497   7.099  0.4757  0.6725 -0.3794
10385SOL     OW33161   1.230   2.405  10.188 -0.3211  0.4692 -0.2463
10385SOL    HW133162   1.293   2.470  10.157 -0.7580  0.7271 -0.6197
10385SOL    HW233163   1.190   2.446  10.266 -1.3317  1.1202 -1.0705
10386SOL     OW33164   4.558   3.866  10.345 -0.1871 -0.3048 -0.4315
10386SOL    HW133165   4.585   3.829  10.429  0.0491  1.7209  0.4524
10386SOL    HW233166   4.518   3.793  10.298  1.6603 -2.0178  0.5347
10387SOL     OW33167   7.688   5.869   2.031 -0.1606 -0.0104  0.2380
10387SOL    HW133168   7.605   5.850   1.987 -0.1286  1.1432 -0.3569
10387SOL    HW233169   7.663   5.910   2.114 -0.2298 -2.4600  1.5266
10388SOL     OW33170   8.082   4.563   1.771  0.2601  0.8640 -0.1641
10388SOL    HW133171   8.044   4.507   1.839  0.0764  0.7409 -0.3650
10388SOL    HW233172   8.158   4.603   1.813  2.0544 -1.6212 -0.7930
10389SOL     OW33173   9.490   0.630   2.522  0.1790 -0.3030  0.1432
10389SOL    HW133174   9.540   0.666   2.596  0.3831  0.9154 -0.5651
10389SOL    HW233175   9.400   0.658   2.539  0.6535  2.7669 -1.5911
10390SOL     OW33176   8.712   3.772   4.354 -0.3862  0.2264 -0.3183
10390SOL    HW133177   8.771   3.789   4.427 -1.7192 -1.1957  1.1772
10390SOL    HW233178   8.738   3.835   4.287  0.0405  2.5529  1.8712
10391SOL     OW33179   8.318   4.072  10.010 -0.0467  0.1911 -0.3116
10391SOL    HW133180   8.266   3.993  10.018  0.2025  0.0312 -0.2570
10391SOL    HW233181   8.285   4.130  10.078 -0.6153  0.3552 -0.7179
10392SOL     OW33182   1.547   3.758  10.579  0.3537  0.9824  0.0923
10392SOL    HW133183   1.578   3.848  10.573 -1.2868  1.6809  1.3908
10392SOL    HW233184   1.562   3.733  10.670  2.2177 -0.6444 -0.5959
10393SOL     OW33185   4.165   5.157   2.960  0.2696  0.0150 -0.1229
10393SOL    HW133186   4.069   5.156   2.954  0.2660  0.6437 -0.2260
10393SOL    HW233187   4.189   5.246   2.934  0.9170 -0.2979 -0.6243
10394SOL     OW33188   8.692   1.066   7.148 -0.1965 -0.3641  0.2623
10394SOL    HW133189   8.754   1.085   7.218  0.7282 -1.3171 -0.2581
10394SOL    HW233190   8.624   1.014   7.189  0.7489 -1.5961  0.3253
10395SOL     OW33191   3.372   8.166   3.831  0.1528  0.2727  0.4431
10395SOL    HW133192   3.323   8.239   3.793 -0.4599  0.0108  0.7122
10395SOL    HW233193   3.456   8.204   3.856  0.3490  0.5688 -0.6518
10396SOL     OW33194   7.163   3.736   9.700 -0.4422  0.6084 -0.7094
10396SOL    HW133195   7.113   3.803   9.746 -0.5773  0.6847 -0.9683
10396SOL    HW233196   7.149   3.657   9.753  1.8806  1.3202  1.1362
10397SOL     OW33197   6.050   3.182   2.158 -0.6690 -0.5681 -0.0265
10397SOL    HW133198   6.145   3.192   2.155 -0.8285  1.5996  0.2049
10397SOL    HW233199   6.028   3.193   2.251 -1.2517  0.8006 -0.2913
10398SOL     OW33200   0.094   9.146   1.953 -0.1822 -0.6261 -0.8778
10398SOL    HW133201   0.104   9.056   1.986 -1.1911 -0.7348 -0.8315
10398SOL    HW233202   0.157   9.197   2.004 -0.0505 -1.1921 -0.4550
10399SOL     OW33203   5.204   7.196   8.159 -0.4501 -0.2769  0.0659
10399SOL    HW133204   5.160   7.265   8.209 -0.6917  1.8791 -2.9022
10399SOL    HW233205   5.136   7.160   8.102  0.5475 -0.2797 -1.1479
10400SOL     OW33206   9.076   4.198   4.563 -0.1582  0.0566 -0.0386
10400SOL    HW133207   9.011   4.252   4.608 -1.0465 -0.1685 -0.9980
10400SOL    HW233208   9.031   4.116   4.545  0.9615 -0.7752  0.8007
10401SOL     OW33209   4.621   2.300   4.448  0.2235  0.9965 -0.3278
10401SOL    HW133210   4.655   2.366   4.387 -0.2557  1.7489  0.2047
10401SOL    HW233211   4.699   2.256   4.482  0.6440  2.1393  0.2573
10402SOL     OW33212   6.330   4.595   7.029  0.5742 -0.2035 -0.9811
10402SOL    HW133213   6.302   4.545   6.952 -0.5417 -0.3332 -0.5102
10402SOL    HW233214   6.248   4.620   7.072  1.1878 -0.3811  0.3288
10403SOL     OW33215   0.174   6.614   2.292  0.2000  0.2842 -0.3001
10403SOL    HW133216   0.107   6.584   2.353 -0.9541  1.7635 -0.7635
10403SOL    HW233217   0.205   6.534   2.249 -2.1668 -0.3935 -0.9358
10404SOL     OW33218   7.910   6.735   8.690  0.2289 -0.3296  0.5098
10404SOL    HW133219   7.890   6.655   8.740 -0.8859  0.1291  0.8287
10404SOL    HW233220   7.966   6.786   8.748  0.7212 -0.7495  0.4139
10405SOL     OW33221   0.793   7.839   0.250  0.1003 -0.1551 -0.4343
10405SOL    HW133222   0.839   7.817   0.332  1.3807  1.2783 -0.7359
10405SOL    HW233223   0.862   7.850   0.186 -0.9090 -1.7295 -1.8979
10406SOL     OW33224   7.489   0.996   1.428  0.2197 -0.2190 -0.7857
10406SOL    HW133225   7.553   0.929   1.450  1.2118  0.6818 -0.8630
10406SOL    HW233226   7.523   1.076   1.467 -2.0439 -0.1234  1.2246
10407SOL     OW33227   2.495   3.832   1.483 -0.0011 -0.1763  0.4896
10407SOL    HW133228   2.454   3.760   1.530 -0.8140  0.4982  0.8336
10407SOL    HW233229   2.429   3.860   1.419 -1.0422  2.3274  2.4779
10408SOL     OW33230   0.204   2.270   5.430 -0.5156  0.9015 -0.4782
10408SOL    HW133231   0.270   2.313   5.375 -2.0730  3.1644 -0.6778
10408SOL    HW233232   0.129   2.329   5.429 -1.4563 -0.0972  2.2270
10409SOL     OW33233   1.076   5.403   6.017  0.2639 -0.9776 -0.0017
10409SOL    HW133234   1.107   5.447   5.939  0.7103 -0.0027  0.7130
10409SOL    HW233235   1.034   5.472   6.069  0.8254 -1.4112  1.0564
10410SOL     OW33236   3.507   4.094  10.684  0.3427 -0.0920 -0.4947
10410SOL    HW133237   3.454   4.167  10.653 -1.1835 -1.4473 -1.2680
10410SOL    HW233238   3.549   4.059  10.605 -1.3287 -1.8371 -0.6826
10411SOL     OW33239   6.200   2.460   4.530  0.4261 -0.1568 -0.6982
10411SOL    HW133240   6.183   2.366   4.520 -0.7670 -0.0188 -0.1314
10411SOL    HW233241   6.119   2.495   4.568  1.0196  1.0305 -0.4909
10412SOL     OW33242   0.834   4.092   1.991 -0.1218 -0.0837  0.0049
10412SOL    HW133243   0.827   4.013   2.046 -1.0285  1.0252  1.5538
10412SOL    HW233244   0.753   4.091   1.939  0.4812 -0.8429 -0.9529
10413SOL     OW33245   6.900   3.018   0.613 -0.0418  0.4745 -0.4904
10413SOL    HW133246   6.823   2.997   0.665  1.3908  1.1859  2.0748
10413SOL    HW233247   6.884   2.975   0.529 -1.3360 -3.0984  1.3737
10414SOL     OW33248   1.184   8.504   7.951  0.2662  0.6185  0.4729
10414SOL    HW133249   1.140   8.545   8.027 -1.1818  2.0063 -1.0273
10414SOL    HW233250   1.272   8.540   7.953  0.8377 -0.6981  2.4361
10415SOL     OW33251   6.685   3.998   4.732 -0.3374  0.4186  0.1192
10415SOL    HW133252   6.618   3.939   4.766 -2.1919 -0.0371 -3.8363
10415SOL    HW233253   6.656   4.086   4.760 -1.7614  0.0904 -0.2521
10416SOL     OW33254   1.978   2.846   7.463 -0.3609  0.2054  0.3801
10416SOL    HW133255   2.051   2.833   7.523 -0.1813 -1.4497 -0.1422
10416SOL    HW233256   2.016   2.830   7.376 -1.3736 -0.8789  0.1200
10417SOL     OW33257   0.817   6.207   6.416  0.0022  0.4381 -0.0740
10417SOL    HW133258   0.795   6.168   6.501 -0.7997  0.1735 -0.3997
10417SOL    HW233259   0.882   6.274   6.437  1.7019 -1.2737  0.4735
10418SOL     OW33260   0.752   1.740   7.061  0.4216  1.6707  0.3728
10418SOL    HW133261   0.833   1.697   7.036  0.4339  0.9625  1.5341
10418SOL    HW233262   0.769   1.834   7.051  1.2615  1.5111  0.2976
10419SOL     OW33263   1.293  10.247   9.745  0.4411  0.5606 -0.0704
10419SOL    HW133264   1.231  10.180   9.718 -0.6210  1.8038 -0.8040
10419SOL    HW233265   1.249  10.330   9.727  1.6400  1.4747  0.9813
10420SOL     OW33266   3.665   2.733   6.699 -0.2608  0.5613 -0.0404
10420SOL    HW133267   3.707   2.740   6.614 -1.0296 -0.0837 -0.4870
10420SOL    HW233268   3.683   2.817   6.742  1.3297  0.3661 -0.2606
10421SOL     OW33269   2.747   8.384   2.303  0.0865  0.1372  0.4550
10421SOL    HW133270   2.821   8.393   2.243 -1.2192 -0.3941 -1.3514
10421SOL    HW233271   2.738   8.290   2.317  1.3347  0.3105  2.8447
10422SOL     OW33272   5.906   3.364   2.610 -0.1352 -0.4783 -0.8930
10422SOL    HW133273   5.902   3.405   2.524  1.3052  0.2007 -0.6636
10422SOL    HW233274   5.815   3.353   2.636 -0.5899 -0.6633 -2.4766
10423SOL     OW33275   3.266   8.858   7.370  0.3441 -0.2907  0.1678
10423SOL    HW133276   3.260   8.788   7.436  2.0081  0.9520  1.7459
10423SOL    HW233277   3.315   8.818   7.298 -0.0958 -1.2024  0.3543
10424SOL     OW33278   8.741   2.122   1.697 -0.1402 -0.5240  0.6341
10424SOL    HW133279   8.671   2.058   1.701 -0.1781 -0.4691  0.8775
10424SOL    HW233280   8.779   2.123   1.785  0.5902 -1.0262  0.3376
10425SOL     OW33281   4.042   5.890   1.451 -0.3907  0.4777  0.0095
10425SOL    HW133282   4.095   5.969   1.442  1.1073 -0.0092  3.1371
10425SOL    HW233283   4.104   5.817   1.441 -0.4018 -0.1106  3.0464
10426SOL     OW33284   4.341  11.074   9.445  0.5538 -0.2386 -0.2499
10426SOL    HW133285   4.254  11.088   9.484  1.0600 -0.8659  1.1322
10426SOL    HW233286   4.342  10.982   9.421  0.7264 -0.1555 -0.5669
10427SOL     OW33287   4.239  11.041   3.339 -0.2801 -0.1433 -0.8009
10427SOL    HW133288   4.255  11.112   3.401 -3.2868 -1.2337  1.5060
10427SOL    HW233289   4.278  10.964   3.380 -1.6586 -0.7451 -0.5568
10428SOL     OW33290   4.393   8.325   9.941 -0.2079 -0.3565 -0.6469
10428SOL    HW133291   4.421   8.254   9.999 -0.1660  0.3520  0.2295
10428SOL    HW233292   4.422   8.404   9.985  1.8403  0.1519 -2.7089
10429SOL     OW33293  10.054   1.333   0.634 -0.1616 -0.0065 -0.1559
10429SOL    HW133294  10.057   1.424   0.665  2.0764  0.5005 -1.5988
10429SOL    HW233295   9.968   1.324   0.594  0.0604  1.9641 -1.1988
10430SOL     OW33296  10.095  10.238   7.555  0.0376 -0.1156  0.3862
10430SOL    HW133297  10.180  10.238   7.509  0.4164 -1.1403  1.0527
10430SOL    HW233298  10.044  10.171   7.509 -0.3906  0.4417  0.0418
10431SOL     OW33299   3.879   8.302   3.889  0.4644  1.1906  0.4544
10431SOL    HW133300   3.869   8.295   3.984  1.8289 -0.6802  0.5110
10431SOL    HW233301   3.882   8.396   3.872 -1.3869  1.6095  2.0448
10432SOL     OW33302   7.013   1.559   8.630  0.3389 -0.0054 -0.8035
10432SOL    HW133303   6.948   1.557   8.699  0.9359  3.0298 -0.0060
10432SOL    HW233304   7.011   1.471   8.592  0.7945 -2.2998  3.7712
10433SOL     OW33305   8.311   3.922   6.708  0.7301 -0.1494  0.3661
10433SOL    HW133306   8.294   3.839   6.752 -0.0782 -0.7554 -1.0297
10433SOL    HW233307   8.371   3.968   6.766  1.2436 -1.7320  1.1354
10434SOL     OW33308   8.419  10.478   0.629  0.5905  0.8863  0.2206
10434SOL    HW133309   8.390  10.443   0.714 -3.0863  3.0105  0.0396
10434SOL    HW233310   8.367  10.429   0.564  0.3117  2.0608 -0.4651
10435SOL     OW33311   2.066   6.039  10.261  0.3327 -0.2934 -0.3084
10435SOL    HW133312   2.084   6.077  10.175  0.1583 -0.0270 -0.2271
10435SOL    HW233313   2.150   6.046  10.307  1.1114 -2.5130 -1.2126
10436SOL     OW33314   9.178   0.997   4.836 -0.1516  0.0418  0.1773
10436SOL    HW133315   9.239   1.017   4.765 -1.6024  2.4896 -0.5121
10436SOL    HW233316   9.226   0.938   4.894  1.0979 -2.0597 -2.7678
10437SOL     OW33317   5.686   1.911   7.591  0.1571  0.0018  0.1064
10437SOL    HW133318   5.689   1.891   7.685 -0.4364 -0.7776 -0.0373
10437SOL    HW233319   5.778   1.916   7.565  0.3278  0.1281  0.7026
10438SOL     OW33320   0.882   8.194   6.919  0.4766 -0.7809 -0.3327
10438SOL    HW133321   0.882   8.226   7.009 -0.5322  0.6246 -0.8075
10438SOL    HW233322   0.802   8.140   6.913  1.1656 -1.8662 -0.0780
10439SOL     OW33323   5.715   6.587   1.611 -0.0081 -0.2555  0.5942
10439SOL    HW133324   5.742   6.615   1.524  0.5846  0.6921  1.0698
10439SOL    HW233325   5.622   6.567   1.602  0.3717 -1.6988 -0.6154
10440SOL     OW33326   4.533   8.059   8.178 -0.1480 -0.1002 -0.0598
10440SOL    HW133327   4.624   8.035   8.193 -0.1182 -0.4081 -0.7037
10440SOL    HW233328   4.531   8.154   8.192  0.3470 -0.0384 -0.3821
10441SOL     OW33329   5.679   0.598   0.916 -0.3410 -0.3463 -0.7042
10441SOL    HW133330   5.736   0.617   0.991 -0.0009  0.9506 -1.2607
10441SOL    HW233331   5.683   0.503   0.906 -0.0052 -0.4811  0.6170
10442SOL     OW33332   1.616   0.402   6.818  0.0191  0.1444  0.3509
10442SOL    HW133333   1.608   0.355   6.901 -2.3727  0.8756  0.6370
10442SOL    HW233334   1.534   0.452   6.812  0.5258  0.7887 -2.0431
10443SOL     OW33335   3.662   4.748   5.407  0.1961 -0.1678  0.3869
10443SOL    HW133336   3.755   4.771   5.409  0.8026 -2.4171  1.4306
10443SOL    HW233337   3.627   4.795   5.331  1.9130  1.5986  0.6097
10444SOL     OW33338   1.821   2.237   7.326  0.1568  0.5421 -0.6450
10444SOL    HW133339   1.789   2.204   7.242 -0.8265 -0.5773  0.1322
10444SOL    HW233340   1.900   2.186   7.344 -0.2725 -0.0277 -0.3611
10445SOL     OW33341   0.684   3.265   1.694 -0.6006 -0.3822  0.4306
10445SOL    HW133342   0.732   3.220   1.764 -1.1053 -0.5259  0.6902
10445SOL    HW233343   0.743   3.263   1.619  0.3355  0.6280  1.1223
10446SOL     OW33344  11.011   9.485   2.385 -0.5959 -0.6199  0.2050
10446SOL    HW133345  10.968   9.453   2.306 -0.1770 -1.8167  0.4486
10446SOL    HW233346  11.061   9.562   2.355 -0.7329 -0.8417 -0.6174
10447SOL     OW33347   1.692   8.754  10.882  0.2932  0.3978  0.1019
10447SOL    HW133348   1.732   8.673  10.913 -1.9931 -0.7228  0.2849
10447SOL    HW233349   1.661   8.798  10.961  0.1721  0.7120 -0.1181
10448SOL     OW33350   5.465   0.807   3.587  0.3931  0.8323  0.4750
10448SOL    HW133351   5.530   0.805   3.657  0.1778  0.6430  0.6693
10448SOL    HW233352   5.384   0.776   3.628  0.8456 -1.9117 -0.4690
10449SOL     OW33353  10.180   0.069  10.098 -0.3905 -0.4248 -0.2533
10449SOL    HW133354  10.102   0.048  10.150 -1.3589  2.4295 -0.3527
10449SOL    HW233355  10.185  -0.001  10.033 -3.7500 -0.0184 -1.1390
10450SOL     OW33356   4.701   4.039   0.630 -0.1391 -1.0032 -0.5761
10450SOL    HW133357   4.623   4.019   0.682 -1.5670  3.0857 -0.8188
10450SOL    HW233358   4.772   4.045   0.694 -0.8155 -1.0508  0.1896
10451SOL     OW33359   1.862   6.348   8.794 -0.2445  0.1423  0.3118
10451SOL    HW133360   1.772   6.315   8.796 -0.9390  1.9083  0.0368
10451SOL    HW233361   1.871   6.397   8.876  0.9536 -1.1113  0.9860
10452SOL     OW33362   3.760   9.991   4.878  0.2294  0.1663 -0.1246
10452SOL    HW133363   3.782   9.899   4.860 -0.4828  0.2095 -1.3507
10452SOL    HW233364   3.710  10.019   4.801 -1.0320  1.0943  0.9855
10453SOL     OW33365   0.888   7.997   8.620 -0.4258 -0.6125 -0.6667
10453SOL    HW133366   0.981   7.975   8.614 -1.1064 -3.7905 -1.2792
10453SOL    HW233367   0.884   8.091   8.601  2.9648  0.5331  2.8688
10454SOL     OW33368   2.871   1.540   9.522 -0.2310 -0.4328  0.1119
10454SOL    HW133369   2.815   1.505   9.453 -0.1760 -0.4356  0.0690
10454SOL    HW233370   2.932   1.598   9.476 -0.7334  0.2192  0.2625
10455SOL     OW33371   0.745   6.935   1.587  0.3188  0.5380  0.3311
10455SOL    HW133372   0.768   6.911   1.677 -0.4832  1.9431  0.9421
10455SOL    HW233373   0.650   6.924   1.582  0.6897 -3.3427 -1.5845
10456SOL     OW33374   8.168   6.061   8.176 -0.8002  0.3320  0.5591
10456SOL    HW133375   8.217   5.995   8.225  0.2089 -0.3042 -1.1772
10456SOL    HW233376   8.099   6.011   8.132  0.4592  0.2119 -1.4068
10457SOL     OW33377   7.425   5.790   1.591 -0.6294 -0.3405 -0.0556
10457SOL    HW133378   7.379   5.855   1.539 -3.3622 -1.2400  1.0571
10457SOL    HW233379   7.421   5.823   1.681  2.8438  0.5423 -0.0661
10458SOL     OW33380   1.219   8.973   7.024 -0.2841  0.1015 -0.6288
10458SOL    HW133381   1.138   8.925   7.006 -1.4626  1.5016  0.6920
10458SOL    HW233382   1.258   8.928   7.099 -0.1551 -0.1933 -0.8710
10459SOL     OW33383   4.092   1.202   1.949  0.2779 -0.0924 -0.1681
10459SOL    HW133384   4.132   1.235   1.868  1.2977  1.1782  0.8087
10459SOL    HW233385   4.049   1.120   1.923  0.3421  0.4155 -2.0448
10460SOL     OW33386   8.201   7.822   9.245 -0.2127 -0.5188 -0.1790
10460SOL    HW133387   8.233   7.891   9.187 -0.8178  0.1082  0.2134
10460SOL    HW233388   8.259   7.748   9.229  0.9806  0.3463  0.0143
10461SOL     OW33389   3.862   9.082   3.438  0.4080  0.8332 -0.3475
10461SOL    HW133390   3.891   9.003   3.482  0.5483  1.7040  1.1875
10461SOL    HW233391   3.910   9.153   3.480 -2.4703  2.1582  1.0313
10462SOL     OW33392   8.906   5.326   4.604 -0.1076  0.5180 -0.5097
10462SOL    HW133393   8.856   5.325   4.523 -0.0343 -0.6960 -0.5486
10462SOL    HW233394   8.841   5.342   4.673 -0.6652 -1.5261 -0.5083
10463SOL     OW33395   5.544   6.702   6.705 -0.1871 -0.0697 -0.2362
10463SOL    HW133396   5.490   6.635   6.748  1.7270 -0.3869  1.8783
10463SOL    HW233397   5.601   6.652   6.647 -0.4983  0.0174 -0.6218
10464SOL     OW33398   5.885   1.716   1.443 -0.1040  0.9062 -0.4376
10464SOL    HW133399   5.796   1.749   1.451 -0.0821  0.7026  0.8272
10464SOL    HW233400   5.941   1.791   1.462 -0.0460  0.4813  1.2170
10465SOL     OW33401   0.672   5.315   8.061 -0.1920 -0.2967  0.0479
10465SOL    HW133402   0.633   5.397   8.092  0.5623  0.1317 -0.1145
10465SOL    HW233403   0.711   5.277   8.140 -0.9892 -0.7715  0.2297
10466SOL     OW33404  10.860   5.917   3.159 -0.0779  0.0878 -0.3161
10466SOL    HW133405  10.814   5.852   3.106 -0.3568 -1.4556  1.7044
10466SOL    HW233406  10.948   5.920   3.121 -0.0905 -1.4309 -0.5543
10467SOL     OW33407   5.676   9.859  10.496  0.1704 -0.5660 -0.1825
10467SOL    HW133408   5.637   9.786  10.544 -0.9243  0.5139  0.6145
10467SOL    HW233409   5.648   9.846  10.406  1.0797 -1.8375 -0.3190
10468SOL     OW33410   8.330   5.610   8.071  0.8331 -0.3695  0.5551
10468SOL    HW133411   8.365   5.699   8.071  0.1650 -0.0398 -1.9136
10468SOL    HW233412   8.235   5.621   8.057  0.4723 -1.4331  1.9152
10469SOL     OW33413  10.437   1.547   0.442 -0.5457 -0.1716  0.4316
10469SOL    HW133414  10.463   1.456   0.453 -0.4748 -0.4763 -1.7076
10469SOL    HW233415  10.343   1.542   0.424 -0.2017 -0.0823 -1.6680
10470SOL     OW33416   0.529   4.418   9.556  0.1192 -0.5789 -0.2705
10470SOL    HW133417   0.611   4.424   9.507  0.7142  1.9336  0.8710
10470SOL    HW233418   0.519   4.504   9.596 -2.4128 -1.2548  0.7289
10471SOL     OW33419   5.397  10.187   1.068 -0.3192  0.2086  1.0838
10471SOL    HW133420   5.469  10.132   1.039 -0.0217  0.9733  0.3333
10471SOL    HW233421   5.433  10.237   1.141 -0.4325 -0.2119  1.4302
10472SOL     OW33422   9.597   5.338   1.618  0.4274  0.1001 -0.8720
10472SOL    HW133423   9.668   5.402   1.626 -0.7845  1.4410 -0.4842
10472SOL    HW233424   9.524   5.376   1.668 -1.0575 -0.5256 -2.4751
10473SOL     OW33425   0.718   5.101   1.378  0.7513  0.3933 -0.3501
10473SOL    HW133426   0.798   5.153   1.376  0.4703  0.8345 -2.9567
10473SOL    HW233427   0.701   5.078   1.287 -0.7497 -1.8136  0.3857
10474SOL     OW33428   5.151   3.810   7.960 -0.7784 -0.2912  0.5593
10474SOL    HW133429   5.069   3.777   7.924 -1.1015  1.8678 -0.9056
10474SOL    HW233430   5.216   3.796   7.890 -0.9057  1.8596 -0.0708
10475SOL     OW33431   0.959   2.636   0.137  0.2152  0.1527  0.3425
10475SOL    HW133432   0.987   2.608   0.224 -1.6638  1.3186  1.4081
10475SOL    HW233433   0.905   2.714   0.153 -1.4161 -0.4463 -1.7161
10476SOL     OW33434   5.492   0.342   6.366  0.4033 -0.2645 -0.3881
10476SOL    HW133435   5.508   0.267   6.422 -0.2630  1.3919  2.2234
10476SOL    HW233436   5.578   0.365   6.331  1.2310 -0.3088  1.4698
10477SOL     OW33437   1.353  10.502   5.318  0.6843  0.0841 -0.1298
10477SOL    HW133438   1.265  10.525   5.347 -0.4210 -1.7894 -1.7219
10477SOL    HW233439   1.347  10.498   5.222  2.0004 -1.7473 -0.1957
10478SOL     OW33440   2.697   8.212   5.110 -0.9280 -0.2311  0.4731
10478SOL    HW133441   2.723   8.303   5.116 -0.5560 -0.4118  2.5949
10478SOL    HW233442   2.632   8.209   5.040 -1.8901  1.9008  1.1941
10479SOL     OW33443   3.327   4.674  10.800 -0.0468 -0.2746 -0.4053
10479SOL    HW133444   3.413   4.651  10.764  0.3027 -0.6773  0.6568
10479SOL    HW233445   3.336   4.659  10.894 -0.9815  0.6282 -0.1605
10480SOL     OW33446   2.212   7.726  10.181  0.0582  0.2031 -0.0643
10480SOL    HW133447   2.252   7.707  10.266  1.0977 -1.3214 -0.8232
10480SOL    HW233448   2.177   7.641  10.152 -1.8050  1.0562 -0.4265
10481SOL     OW33449   4.816   5.480   1.538  0.3567  0.2784 -1.0324
10481SOL    HW133450   4.815   5.572   1.513 -1.7564  0.4463 -0.5637
10481SOL    HW233451   4.839   5.480   1.630 -0.6813  0.4710 -0.7542
10482SOL     OW33452   2.239  10.358   7.498 -0.1270  0.0748  0.0694
10482SOL    HW133453   2.144  10.347   7.502 -0.3910  2.3041  1.5115
10482SOL    HW233454   2.265  10.379   7.587  1.6884 -0.1329 -0.3702
10483SOL     OW33455   5.430   9.981   7.443  0.1514  0.1211 -0.0873
10483SOL    HW133456   5.478   9.937   7.513  0.4626  0.8446  0.1701
10483SOL    HW233457   5.433  10.074   7.468 -1.4688  0.1767 -0.0003
10484SOL     OW33458  10.802   7.873   7.103 -0.3584 -0.3469 -0.4346
10484SOL    HW133459  10.741   7.889   7.174 -0.4143  0.5396 -0.6721
10484SOL    HW233460  10.864   7.809   7.138  1.2237  2.0455  1.3792
10485SOL     OW33461   8.162   8.809   1.214 -0.0096 -0.1954  0.8643
10485SOL    HW133462   8.143   8.902   1.207  2.6091  0.4226  0.9523
10485SOL    HW233463   8.201   8.798   1.300  1.2562 -1.0298  0.2229
10486SOL     OW33464   1.006   7.717  10.037  0.5343 -0.4307 -0.4898
10486SOL    HW133465   0.962   7.755   9.960 -2.0111  0.3763  1.2441
10486SOL    HW233466   0.959   7.635  10.053  1.6723 -1.0715 -0.2861
10487SOL     OW33467   3.743   6.660   6.768 -0.0443  0.1882  0.1316
10487SOL    HW133468   3.801   6.736   6.778  1.5450 -0.9571 -0.0209
10487SOL    HW233469   3.708   6.645   6.856  1.4219 -0.2417  0.6658
10488SOL     OW33470   1.996   9.848   4.935  0.2002 -0.3671 -0.4410
10488SOL    HW133471   2.040   9.765   4.917  0.9310  0.0751 -0.7421
10488SOL    HW233472   1.953   9.835   5.020 -0.7170 -1.4522 -1.0469
10489SOL     OW33473  11.013   5.965   4.520  0.2615 -0.2030 -0.3370
10489SOL    HW133474  11.075   6.037   4.510  0.0757  0.1910  1.1165
10489SOL    HW233475  10.930   6.008   4.541 -0.2597 -0.7767 -1.1604
10490SOL     OW33476   9.378   6.003   3.318 -0.3257  0.6572 -0.0825
10490SOL    HW133477   9.472   6.013   3.306 -0.0073  0.7941  2.1008
10490SOL    HW233478   9.339   6.048   3.243  1.3162 -1.8520 -2.6127
10491SOL     OW33479   1.561   4.701   4.817 -0.4651  0.0220  0.2156
10491SOL    HW133480   1.637   4.651   4.846  0.3019  0.5790 -0.7564
10491SOL    HW233481   1.567   4.701   4.722  0.1578  2.7633  0.1699
10492SOL     OW33482   0.776   6.855   6.145  0.2112 -0.2122 -0.3133
10492SOL    HW133483   0.785   6.759   6.138 -0.6520 -0.2565 -1.0174
10492SOL    HW233484   0.714   6.867   6.217  0.9672 -0.1329  0.3471
10493SOL     OW33485  10.726   7.880   9.944 -0.1293 -0.7775 -0.1348
10493SOL    HW133486  10.638   7.878   9.906 -0.3679  0.6594  0.2776
10493SOL    HW233487  10.713   7.865  10.037  0.1881 -1.6695 -0.2261
10494SOL     OW33488   8.334   9.218   9.540 -0.9237 -0.2912 -0.8162
10494SOL    HW133489   8.272   9.290   9.541 -0.5404  0.0351  0.6837
10494SOL    HW233490   8.297   9.153   9.600 -0.1373 -0.3746 -0.4166
10495SOL     OW33491  10.414   4.729   4.860 -0.0022 -0.6765  0.2597
10495SOL    HW133492  10.495   4.723   4.912 -0.4494 -1.2221  0.9125
10495SOL    HW233493  10.444   4.751   4.772  0.7842  0.2033  0.7161
10496SOL     OW33494   2.282   6.479   3.320  0.0812  0.3392  0.0404
10496SOL    HW133495   2.205   6.526   3.289  0.8448  2.1454  0.6862
10496SOL    HW233496   2.249   6.420   3.387 -1.0463 -0.7733 -1.4329
10497SOL     OW33497   9.466   8.078   5.992 -0.0290  0.0916 -0.4141
10497SOL    HW133498   9.496   8.078   5.901 -1.8788 -0.0891 -1.0650
10497SOL    HW233499   9.440   8.168   6.009  0.8607  0.2536  0.1521
10498SOL     OW33500   3.480   1.390   8.047  0.8968  0.6722  0.5603
10498SOL    HW133501   3.472   1.304   8.006 -0.1883  1.4124 -0.8888
10498SOL    HW233502   3.567   1.421   8.020  0.7916  0.5286  0.0432
10499SOL     OW33503   2.312   1.918   3.940  0.1724  0.5353  0.4109
10499SOL    HW133504   2.311   1.839   3.994 -0.5702 -0.6102 -1.1821
10499SOL    HW233505   2.401   1.923   3.906  0.5204  1.0194  1.3548
10500SOL     OW33506   8.468   1.861   1.312  0.0208  1.6020 -0.3423
10500SOL    HW133507   8.477   1.952   1.285  2.5879  1.2074 -1.0710
10500SOL    HW233508   8.422   1.866   1.397  3.0360  3.9221  1.3656
10501SOL     OW33509   0.439   9.572  10.081 -0.2032 -0.0532  0.4928
10501SOL    HW133510   0.392   9.621  10.014  1.3156 -0.1514 -0.6943
10501SOL    HW233511   0.439   9.629  10.157 -1.9710  0.0525  0.4413
10502SOL     OW33512   8.678  10.240   2.798 -0.4203 -0.3480  0.3695
10502SOL    HW133513   8.658  10.147   2.791 -1.0550 -0.2017  0.2037
10502SOL    HW233514   8.625  10.272   2.871 -0.0790 -0.1493  0.5348
10503SOL     OW33515   3.870   6.222   6.135  0.0289  0.6492  0.6872
10503SOL    HW133516   3.839   6.141   6.093 -1.2370  1.4597  0.0063
10503SOL    HW233517   3.847   6.291   6.073  0.7897  1.5785  1.4186
10504SOL     OW33518   8.683  10.137   0.626  0.1711  0.5719  0.6618
10504SOL    HW133519   8.758  10.105   0.577 -1.3202 -1.3073 -0.4979
10504SOL    HW233520   8.683  10.084   0.706 -0.2317  0.1752  0.4011
10505SOL     OW33521   5.565   9.319   1.589 -0.4464  0.0993 -0.4456
10505SOL    HW133522   5.519   9.393   1.629 -0.9783 -0.2533 -0.4009
10505SOL    HW233523   5.579   9.345   1.498  1.6783  1.3456  0.1661
10506SOL     OW33524   1.741   3.387   5.683 -0.0784 -0.2996  0.4187
10506SOL    HW133525   1.710   3.477   5.692 -0.4624 -0.3808 -0.0558
10506SOL    HW233526   1.666   3.333   5.706 -0.5108 -0.5030 -1.3460
10507SOL     OW33527   1.394   1.122   2.293 -0.2788 -0.8265  0.5458
10507SOL    HW133528   1.472   1.177   2.288 -1.0121  0.1907 -0.2737
10507SOL    HW233529   1.404   1.073   2.375  0.2693  0.7531  1.4639
10508SOL     OW33530   7.590   6.929   6.687 -0.4589  0.3412  0.7285
10508SOL    HW133531   7.589   7.018   6.649 -0.4843  0.4665  1.0199
10508SOL    HW233532   7.676   6.922   6.728 -1.9864  2.0001  4.8055
10509SOL     OW33533  10.691   0.675   8.040  0.0982 -0.4849  0.1148
10509SOL    HW133534  10.630   0.701   8.109  0.3815 -0.4563  0.3625
10509SOL    HW233535  10.762   0.632   8.088  0.9627  0.7384 -0.0126
10510SOL     OW33536   3.815   6.460   8.940  0.0861  0.7317 -0.0794
10510SOL    HW133537   3.729   6.502   8.934  0.2940  1.1849  0.1166
10510SOL    HW233538   3.801   6.387   9.001 -0.7148 -0.6349 -1.8092
10511SOL     OW33539   0.885   4.502   7.320  0.3032  0.3096  0.0857
10511SOL    HW133540   0.826   4.474   7.390 -1.0912  0.7712 -0.8681
10511SOL    HW233541   0.932   4.577   7.356 -1.0776  1.1313  0.2229
10512SOL     OW33542   1.900   2.862  10.375  0.2036 -0.3576 -0.2377
10512SOL    HW133543   1.936   2.839  10.289  1.4662 -1.5905  0.5833
10512SOL    HW233544   1.936   2.797  10.434 -0.9922  0.2163  1.1777
10513SOL     OW33545   5.621   6.043   8.613 -0.5104 -0.0366 -0.1873
10513SOL    HW133546   5.620   6.037   8.517  1.2022  1.8572 -0.3891
10513SOL    HW233547   5.701   5.997   8.639 -0.8796 -0.3884  0.3418
10514SOL     OW33548   7.259  10.301   2.571  0.6986  0.3750  0.5631
10514SOL    HW133549   7.316  10.373   2.597  2.8599 -0.5827 -1.1520
10514SOL    HW233550   7.317  10.225   2.570 -1.1915 -1.1375  0.9399
10515SOL     OW33551   3.082   3.126   4.766  0.6014  0.1829 -0.0348
10515SOL    HW133552   3.090   3.170   4.850  1.4045 -0.2992  0.1484
10515SOL    HW233553   3.154   3.162   4.713 -0.0587  0.6859 -0.6166
10516SOL     OW33554   9.669   4.031   5.516 -0.0708 -0.2018 -0.3199
10516SOL    HW133555   9.696   4.099   5.454  0.8846  0.6770  1.0013
10516SOL    HW233556   9.709   4.057   5.599  0.4444 -2.4494  0.2107
10517SOL     OW33557   1.916   1.396   3.947  0.3128  0.2019  0.4551
10517SOL    HW133558   1.829   1.390   3.985  0.1021  0.5081  0.0213
10517SOL    HW233559   1.945   1.485   3.966  0.4871  0.1364  0.5004
10518SOL     OW33560   0.488   4.807   4.583 -0.5583  0.2715  0.2677
10518SOL    HW133561   0.477   4.836   4.492  1.6099 -1.7769 -0.7471
10518SOL    HW233562   0.447   4.720   4.586  0.8475 -0.3948  0.7694
10519SOL     OW33563   7.881   7.646   0.655 -0.2705  0.1071  0.0220
10519SOL    HW133564   7.966   7.660   0.613 -0.1140  0.9020  0.5807
10519SOL    HW233565   7.847   7.566   0.615  0.2805  0.3511 -0.9558
10520SOL     OW33566   6.519   2.643   1.363 -0.1364  0.3811 -0.4281
10520SOL    HW133567   6.531   2.678   1.451 -0.6751  0.7845 -0.5132
10520SOL    HW233568   6.571   2.700   1.307 -0.1219  0.3695 -0.4264
10521SOL     OW33569   6.688   0.409   4.025 -0.2465 -0.6363  0.2479
10521SOL    HW133570   6.741   0.425   3.947 -0.5473  0.6401  0.2715
10521SOL    HW233571   6.611   0.465   4.013 -0.0203  0.0281  1.7119
10522SOL     OW33572   4.668   0.664   2.440 -0.2969  0.1332  0.1731
10522SOL    HW133573   4.681   0.570   2.455 -0.1650  0.0764 -0.2680
10522SOL    HW233574   4.694   0.677   2.349  4.7487  1.4935  1.4694
10523SOL     OW33575   8.255   9.022   1.456  0.7817 -0.4331 -0.3126
10523SOL    HW133576   8.328   9.007   1.516  2.1431  2.3956 -1.0719
10523SOL    HW233577   8.295   9.067   1.381 -1.3362 -1.2334 -2.0175
10524SOL     OW33578   1.077   6.300   8.556 -0.4761 -0.4708 -0.5391
10524SOL    HW133579   1.110   6.381   8.596  0.7366 -0.3998 -1.6157
10524SOL    HW233580   1.092   6.233   8.623 -1.8398  0.2276  0.5078
10525SOL     OW33581   1.199   5.507   0.553 -0.1159  0.0600 -0.3552
10525SOL    HW133582   1.166   5.559   0.626 -1.0303  0.4971 -1.0562
10525SOL    HW233583   1.264   5.562   0.510 -0.5281  0.3246 -0.6427
10526SOL     OW33584   5.792   8.889   1.997 -0.3371  0.0460 -0.5866
10526SOL    HW133585   5.786   8.982   1.975  0.5733  0.7201  1.7178
10526SOL    HW233586   5.727   8.877   2.066  2.0630 -0.0539  1.8148
10527SOL     OW33587   9.737  11.079   4.117 -0.1347 -0.0420 -0.7377
10527SOL    HW133588   9.819  11.031   4.127 -0.5758 -0.5401  0.7430
10527SOL    HW233589   9.732  11.098   4.024  1.6743  0.0367 -0.8611
10528SOL     OW33590   4.949   0.689   8.069 -0.3553 -0.4680 -0.9826
10528SOL    HW133591   4.951   0.673   7.975  0.5498 -0.9400 -0.9025
10528SOL    HW233592   4.941   0.602   8.108 -1.4332 -0.2174 -0.6326
10529SOL     OW33593  10.904   7.996   8.148 -0.2945 -0.0423 -0.6095
10529SOL    HW133594  10.869   7.932   8.210 -0.3540  0.6631  0.1033
10529SOL    HW233595  10.866   8.079   8.176  0.5354  0.4572 -0.9419
10530SOL     OW33596   3.538   1.257   2.948 -0.0013  0.6239 -0.5355
10530SOL    HW133597   3.466   1.252   3.012  0.2114 -0.4451 -0.3675
10530SOL    HW233598   3.598   1.322   2.985 -1.4928  2.5434 -1.3277
10531SOL     OW33599   1.321   3.966   9.537 -0.3128 -0.3073  0.3494
10531SOL    HW133600   1.371   3.890   9.508 -0.2765  0.4843 -1.7857
10531SOL    HW233601   1.382   4.039   9.530 -1.4582  0.5248 -1.4004
10532SOL     OW33602  10.983   0.431  10.107 -0.2949 -0.3829 -0.4616
10532SOL    HW133603  10.933   0.406  10.029 -1.4100  1.9798 -0.5826
10532SOL    HW233604  10.920   0.426  10.179 -0.4705  1.6170 -0.4457
10533SOL     OW33605   9.277  10.284   3.159 -0.1730 -0.0697 -0.0557
10533SOL    HW133606   9.324  10.364   3.181 -2.4994  1.6476 -0.9584
10533SOL    HW233607   9.295  10.271   3.066 -0.8537  0.1661 -0.2232
10534SOL     OW33608   2.264   6.312   2.837 -0.4538 -0.0453  0.0346
10534SOL    HW133609   2.236   6.245   2.775 -0.3202  1.0503 -1.2652
10534SOL    HW233610   2.214   6.390   2.812  0.2728  0.6638  0.7267
10535SOL     OW33611   6.668   9.430   1.910  0.4869  0.0459  0.2867
10535SOL    HW133612   6.605   9.368   1.948  1.3077 -0.0281  1.5950
10535SOL    HW233613   6.705   9.384   1.835  1.6842 -1.4372  1.7152
10536SOL     OW33614   1.183   3.289   6.717  0.0087 -0.6157  0.1349
10536SOL    HW133615   1.211   3.373   6.680  1.0387 -0.6585  0.8141
10536SOL    HW233616   1.224   3.223   6.661  1.2470 -0.6763  1.0772
10537SOL     OW33617   2.884   6.620   6.585 -0.3253  0.1613 -0.0751
10537SOL    HW133618   2.940   6.649   6.656  0.5546 -1.3524 -0.1035
10537SOL    HW233619   2.853   6.534   6.613 -2.5208  0.8617 -0.1446
10538SOL     OW33620   2.657   7.372   7.544  0.0873  1.1883 -0.4477
10538SOL    HW133621   2.745   7.335   7.557 -0.0015  1.1709  0.1223
10538SOL    HW233622   2.598   7.307   7.582 -0.1066  1.6439  0.0443
10539SOL     OW33623   6.492  10.578   2.018  0.4678 -0.2316  0.0385
10539SOL    HW133624   6.467  10.500   2.067  0.6885  0.7373  1.7528
10539SOL    HW233625   6.413  10.631   2.016  0.7842  0.2623  0.4117
10540SOL     OW33626   7.484  10.874   5.108  0.8962  0.0294  0.4635
10540SOL    HW133627   7.513  10.809   5.044  1.7976  0.3077  0.5876
10540SOL    HW233628   7.534  10.854   5.187  1.6755  1.2917  0.3066
10541SOL     OW33629   8.084   1.377   6.190 -0.0812 -0.4951  0.0126
10541SOL    HW133630   8.102   1.416   6.105 -0.1077 -0.7541 -0.1120
10541SOL    HW233631   8.168   1.339   6.217 -0.1050 -0.5303  0.0381
10542SOL     OW33632   7.114   8.818   3.240  0.1955  0.0150 -0.2361
10542SOL    HW133633   7.058   8.752   3.281  0.4255 -0.6996 -1.0370
10542SOL    HW233634   7.055   8.892   3.223 -0.6832 -0.9267 -1.5566
10543SOL     OW33635   9.192   2.777   3.514  0.3752 -0.0416  0.3013
10543SOL    HW133636   9.199   2.867   3.484 -1.6719 -0.5556 -2.0876
10543SOL    HW233637   9.276   2.737   3.492  1.1175  1.1276  0.9291
10544SOL     OW33638   8.949   3.455   3.946 -0.0966  0.2893 -0.5514
10544SOL    HW133639   8.862   3.447   3.908 -0.6762 -2.6126  1.1439
10544SOL    HW233640   8.935   3.499   4.030  0.0119 -0.4318 -0.1482
10545SOL     OW33641   2.079   7.538   4.439 -0.0718 -0.1936  0.8941
10545SOL    HW133642   2.008   7.509   4.496 -0.4086  0.8351  1.0259
10545SOL    HW233643   2.115   7.615   4.483  0.8583 -0.4611  0.6222
10546SOL     OW33644   8.326   7.431  10.586  0.3060  0.2293 -0.2746
10546SOL    HW133645   8.378   7.467  10.515  2.6097  1.1570  1.7541
10546SOL    HW233646   8.317   7.503  10.648 -2.5701 -0.2173 -0.0167
10547SOL     OW33647   0.916   2.742   2.295  0.3291 -0.6013 -0.3460
10547SOL    HW133648   0.999   2.718   2.253 -0.9641 -1.5618 -2.5379
10547SOL    HW233649   0.881   2.812   2.240 -0.1483  0.0926  0.8047
10548SOL     OW33650   7.149   8.781   8.331  0.1286 -0.5365  0.6909
10548SOL    HW133651   7.178   8.719   8.398 -1.9818 -2.0184  0.3300
10548SOL    HW233652   7.099   8.728   8.269 -1.1266  1.4099 -0.0612
10549SOL     OW33653   4.439   6.734   6.726  0.4126  0.4937 -0.5388
10549SOL    HW133654   4.519   6.682   6.713  0.7479  0.8646 -0.0021
10549SOL    HW233655   4.368   6.672   6.708  0.8104 -0.0549 -0.2799
10550SOL     OW33656   7.165   3.107   7.698  0.1490  0.0009  0.4073
10550SOL    HW133657   7.074   3.079   7.685 -0.2842  1.9714 -1.4537
10550SOL    HW233658   7.218   3.039   7.657 -0.3851 -1.4638  2.0149
10551SOL     OW33659   2.857   9.966   0.913  0.2530 -0.6068  0.9360
10551SOL    HW133660   2.824   9.952   0.824 -0.4878  0.3239  1.0474
10551SOL    HW233661   2.950   9.943   0.907 -0.0584 -1.7952  0.2437
10552SOL     OW33662   7.953   2.475   7.593 -0.6934 -1.2763  0.1945
10552SOL    HW133663   7.921   2.419   7.523 -1.2915 -0.5984 -0.0894
10552SOL    HW233664   8.036   2.509   7.559 -1.0318 -0.8684 -0.2393
10553SOL     OW33665   6.289   2.736   6.106 -0.0047 -0.5301 -0.3037
10553SOL    HW133666   6.247   2.679   6.041 -0.0595 -0.9148  0.0675
10553SOL    HW233667   6.258   2.824   6.084  1.2374 -0.4254 -1.8124
10554SOL     OW33668   8.978   4.968   8.895 -0.2377  0.3559  0.1048
10554SOL    HW133669   8.911   4.919   8.944  2.0706 -1.1112  2.0423
10554SOL    HW233670   9.055   4.912   8.899  0.7849  1.2801 -3.3279
10555SOL     OW33671   6.313   3.263   8.868  0.7156  0.1991 -0.2086
10555SOL    HW133672   6.379   3.281   8.934  2.0204  0.1256 -1.4346
10555SOL    HW233673   6.323   3.169   8.849 -1.4793 -0.4206  1.3660
10556SOL     OW33674   2.564   6.052   0.531 -0.1829  0.2896  1.2333
10556SOL    HW133675   2.561   6.014   0.443 -1.6579  0.8271  1.0293
10556SOL    HW233676   2.483   6.102   0.538 -0.8997 -1.0612  3.5188
10557SOL     OW33677  10.503   5.179   2.308 -0.0005 -0.0286  0.0492
10557SOL    HW133678  10.527   5.166   2.400 -2.1075 -3.0431  0.3106
10557SOL    HW233679  10.536   5.100   2.264 -1.6622 -0.0845 -1.1623
10558SOL     OW33680  10.566   4.333   1.451 -1.0645  0.4129 -0.7200
10558SOL    HW133681  10.537   4.324   1.361 -2.8476 -1.2325 -0.0472
10558SOL    HW233682  10.527   4.258   1.497 -1.1145  1.7696  1.6286
10559SOL     OW33683   5.028   2.650   8.758  0.5809  0.1213  0.5649
10559SOL    HW133684   5.089   2.632   8.687  0.3167 -0.9542  0.5858
10559SOL    HW233685   5.082   2.651   8.837  0.7537  0.4864  0.4440
10560SOL     OW33686   5.220   1.399   4.026 -0.2077  0.0461  0.8056
10560SOL    HW133687   5.220   1.325   3.965  0.5114 -0.2123  1.1046
10560SOL    HW233688   5.313   1.420   4.038 -0.3941  0.8221  0.9371
10561SOL     OW33689   9.097   6.336   2.150 -0.4998 -0.1709 -0.3079
10561SOL    HW133690   9.043   6.415   2.144 -0.7879 -0.2722  0.7949
10561SOL    HW233691   9.051   6.279   2.212  0.4893 -0.5561  0.1061
10562SOL     OW33692   6.279   3.852  10.774 -0.1177  0.1848 -0.2390
10562SOL    HW133693   6.200   3.806  10.801 -0.5585 -0.0241 -1.7672
10562SOL    HW233694   6.254   3.897  10.693  1.5770 -0.7114 -1.3208
10563SOL     OW33695   5.777   2.087  10.934 -0.5234  0.2486  0.0773
10563SOL    HW133696   5.745   2.171  10.969 -0.4825  0.6577 -0.8502
10563SOL    HW233697   5.704   2.054  10.881 -0.6269 -0.4261  0.6247
10564SOL     OW33698   3.172   0.501   5.177 -0.8269 -0.1990 -0.2798
10564SOL    HW133699   3.102   0.512   5.241 -0.2575 -0.3199  0.3803
10564SOL    HW233700   3.245   0.465   5.227  0.2752  1.4688 -0.5890
10565SOL     OW33701   8.045   0.822   5.240  0.9889 -0.2007 -0.0049
10565SOL    HW133702   8.121   0.863   5.281  0.7389 -0.1131  0.3828
10565SOL    HW233703   8.081   0.754   5.184  1.4844  1.1329 -1.3816
10566SOL     OW33704   6.341   3.263   6.305  0.1113  0.4671  0.2101
10566SOL    HW133705   6.363   3.234   6.393 -1.0283  1.4452  0.8372
10566SOL    HW233706   6.291   3.343   6.317 -1.2337 -0.0852 -1.2560
10567SOL     OW33707   3.203   3.085   1.330  0.0393  0.1014 -0.0802
10567SOL    HW133708   3.244   3.003   1.300  0.5839 -0.0726  1.0731
10567SOL    HW233709   3.137   3.105   1.264 -1.0067 -1.9665  0.2609
10568SOL     OW33710   8.968   6.187   1.374  0.4724  0.1124  0.6794
10568SOL    HW133711   9.040   6.247   1.390  0.8703 -0.2653  0.3192
10568SOL    HW233712   9.007   6.113   1.327 -1.0110  2.6736 -5.6935
10569SOL     OW33713   5.913   4.679   6.607 -0.7664 -0.5636 -0.1962
10569SOL    HW133714   5.986   4.738   6.623 -1.5369  0.5797 -0.7132
10569SOL    HW233715   5.951   4.591   6.607  0.8905  0.0963 -2.0277
10570SOL     OW33716   7.694   2.787  10.052 -0.7042  0.1224 -0.5685
10570SOL    HW133717   7.668   2.709  10.003 -1.7645  0.6379 -0.8568
10570SOL    HW233718   7.778   2.764  10.091 -1.9706 -1.9659  1.1675
10571SOL     OW33719  10.857   1.287   3.541 -0.2609 -0.1905  0.1757
10571SOL    HW133720  10.945   1.318   3.520  0.3769 -1.7001  0.4852
10571SOL    HW233721  10.817   1.360   3.588  0.2777  1.0894 -1.2684
10572SOL     OW33722   4.806   5.606   6.706  0.7589 -0.0719  0.2790
10572SOL    HW133723   4.825   5.547   6.779 -1.0613  0.8292  1.6023
10572SOL    HW233724   4.715   5.587   6.683 -0.1804  2.6151  1.2901
10573SOL     OW33725   3.252   6.239  11.061 -0.1983 -0.0406  0.3761
10573SOL    HW133726   3.218   6.150  11.064 -1.1433  0.0754 -2.7169
10573SOL    HW233727   3.347   6.227  11.049 -0.3760 -0.6759 -0.5287
10574SOL     OW33728   2.637   6.331   4.665 -0.2433 -0.1754 -0.4301
10574SOL    HW133729   2.693   6.283   4.726 -0.8181 -0.6647 -0.2657
10574SOL    HW233730   2.591   6.262   4.617 -1.5928  0.1903  0.2790
10575SOL     OW33731   1.043   9.380   0.586 -0.6111  0.2043 -0.2820
10575SOL    HW133732   1.096   9.435   0.528 -1.3474  3.2375  1.7209
10575SOL    HW233733   1.100   9.306   0.608  1.8880  2.0741 -0.1376
10576SOL     OW33734  10.763  10.644   8.579 -0.4012 -0.1149 -0.5452
10576SOL    HW133735  10.828  10.691   8.631 -0.1113 -0.7861 -0.2975
10576SOL    HW233736  10.732  10.573   8.635  0.1043 -1.0080 -1.3590
10577SOL     OW33737   0.646   5.304   2.891  0.2922  0.2222 -0.6775
10577SOL    HW133738   0.646   5.339   2.981 -0.3847  0.7560 -0.8772
10577SOL    HW233739   0.573   5.349   2.848 -1.2003 -2.0588 -0.7096
10578SOL     OW33740   2.944   6.679   1.669 -0.2301  0.0334  0.6037
10578SOL    HW133741   2.935   6.695   1.763 -1.5053  1.9685  0.2189
10578SOL    HW233742   3.022   6.625   1.661  0.5232  0.7123  2.6931
10579SOL     OW33743   4.538  10.311  10.736 -0.1173  0.1978  0.1909
10579SOL    HW133744   4.506  10.274  10.818 -0.5757  0.6966  0.2445
10579SOL    HW233745   4.465  10.365  10.704 -0.4414 -1.0001 -1.2032
10580SOL     OW33746   2.818   4.101  10.897  0.2808  0.1895 -0.0413
10580SOL    HW133747   2.782   4.050  10.970  3.0012 -1.2802  0.4254
10580SOL    HW233748   2.913   4.097  10.910  0.8157  0.9722 -2.9892
10581SOL     OW33749  10.513   4.343   2.311 -0.0731 -0.5788 -0.6731
10581SOL    HW133750  10.542   4.389   2.389 -0.9419  0.0080 -0.6862
10581SOL    HW233751  10.578   4.274   2.298 -0.5330 -1.4041  1.2106
10582SOL     OW33752   6.118   0.749   2.388 -0.4159  0.0070 -0.3560
10582SOL    HW133753   6.148   0.695   2.315  1.5903 -0.1332  0.4896
10582SOL    HW233754   6.050   0.805   2.351  0.6913  0.0923 -2.4016
10583SOL     OW33755   7.469   3.256  10.123  0.1525  0.1268  0.4191
10583SOL    HW133756   7.425   3.233  10.204 -0.3991 -0.9174 -0.1503
10583SOL    HW233757   7.513   3.175  10.095  0.0797  0.3776 -0.4692
10584SOL     OW33758   6.395  10.956   2.793  0.2288  1.0327 -0.2645
10584SOL    HW133759   6.360  11.033   2.747 -2.0780 -0.5834 -1.4281
10584SOL    HW233760   6.436  10.904   2.724 -3.3155 -1.4500 -0.7505
10585SOL     OW33761   2.169   6.110  10.658  0.4645  0.2056  0.8293
10585SOL    HW133762   2.102   6.043  10.672  0.0434  0.4398  0.0212
10585SOL    HW233763   2.206   6.089  10.572 -1.0869  2.1579 -0.3862
10586SOL     OW33764   3.906   7.689   4.094  1.1071  0.9226 -0.1187
10586SOL    HW133765   3.948   7.623   4.039 -0.2768  1.3897 -1.8129
10586SOL    HW233766   3.854   7.639   4.156 -0.2993  0.3376 -1.6811
10587SOL     OW33767   0.893   3.406   6.769  0.8740  0.1863  0.6297
10587SOL    HW133768   0.806   3.400   6.807  2.3660  1.0304  4.6826
10587SOL    HW233769   0.892   3.488   6.719 -0.8684 -0.2935 -0.1828
10588SOL     OW33770   4.547   9.239   4.573 -0.7185 -0.0147  0.1492
10588SOL    HW133771   4.462   9.259   4.611 -0.6534 -2.0053  1.5113
10588SOL    HW233772   4.584   9.172   4.631  0.4908 -1.3789 -2.0593
10589SOL     OW33773   0.155   5.459   3.999  0.2210 -0.2331 -0.0868
10589SOL    HW133774   0.221   5.454   4.068 -0.4570  1.2864  0.7074
10589SOL    HW233775   0.161   5.549   3.967 -3.3446  0.9397  1.9714
10590SOL     OW33776   5.362   8.296   9.103  0.9351 -0.2495 -0.3167
10590SOL    HW133777   5.320   8.346   9.173 -0.0279 -1.0638 -0.2840
10590SOL    HW233778   5.453   8.323   9.106  0.4771  1.3843 -0.2127
10591SOL     OW33779   9.528   1.798   4.584 -0.2587 -0.5928  0.1765
10591SOL    HW133780   9.614   1.782   4.623 -0.2240 -0.2022  0.2612
10591SOL    HW233781   9.466   1.764   4.648 -0.4717  3.8610  2.7684
10592SOL     OW33782  10.809   0.691   6.447  0.0203 -0.3208 -0.2436
10592SOL    HW133783  10.765   0.722   6.368 -2.5846  2.8461  2.1847
10592SOL    HW233784  10.894   0.736   6.447 -0.6767  1.0244 -0.4077
10593SOL     OW33785   6.182  10.213   2.724 -0.6994 -0.0882 -0.6961
10593SOL    HW133786   6.250  10.228   2.659  0.2962 -1.0052  0.0886
10593SOL    HW233787   6.115  10.163   2.678  0.4967 -1.6860 -0.7759
10594SOL     OW33788   3.119   1.458   7.856 -0.0668 -0.0787 -0.0576
10594SOL    HW133789   3.137   1.381   7.911  0.8888 -0.7311 -1.2525
10594SOL    HW233790   3.167   1.529   7.898  0.4803 -0.5228  0.0879
10595SOL     OW33791   1.343   4.265  11.002 -0.0781 -0.7016 -0.4426
10595SOL    HW133792   1.287   4.230  10.933  0.2473 -0.4086 -0.8593
10595SOL    HW233793   1.429   4.273  10.962  0.5618 -2.2714  0.5347
10596SOL     OW33794   2.292  10.651   9.044 -0.4418  0.2726  0.3468
10596SOL    HW133795   2.261  10.567   9.010  0.1262  0.0124  0.4654
10596SOL    HW233796   2.310  10.702   8.965 -1.6998  0.6314  0.2756
10597SOL     OW33797   0.123   8.029   6.522  0.4252 -0.1770  0.4234
10597SOL    HW133798   0.164   7.956   6.475  0.8034  0.2171  0.1413
10597SOL    HW233799   0.066   8.070   6.457 -1.0723 -1.2003  1.0145
10598SOL     OW33800   9.908   7.800   7.566  0.2557 -0.4423 -0.8008
10598SOL    HW133801   9.859   7.881   7.550  0.3413 -0.2953 -0.3306
10598SOL    HW233802   9.966   7.822   7.639 -0.3406 -1.1821 -0.0891
10599SOL     OW33803  10.576   8.827   1.841  0.8464 -0.1529 -0.0402
10599SOL    HW133804  10.617   8.830   1.755  0.8765 -1.7195 -0.0983
10599SOL    HW233805  10.613   8.903   1.887  0.8776  0.6609 -1.3574
10600SOL     OW33806   8.620   7.930  10.712  0.2340 -0.0989  0.6407
10600SOL    HW133807   8.649   7.916  10.802  1.5441 -2.7357 -0.0688
10600SOL    HW233808   8.631   7.844  10.670 -0.2075  1.0579 -2.0695
10601SOL     OW33809   1.974  10.800  10.649 -0.4910  0.2770 -0.2053
10601SOL    HW133810   1.933  10.824  10.732 -0.8812  0.5424 -0.4715
10601SOL    HW233811   1.902  10.801  10.586 -0.6833 -2.2693 -0.1190
10602SOL     OW33812   6.869   5.218  10.981  0.2447 -0.3326  0.4755
10602SOL    HW133813   6.913   5.240  10.900  0.7487 -2.7197  0.0418
10602SOL    HW233814   6.936   5.176  11.035 -0.2697  0.5174  1.8324
10603SOL     OW33815   3.070  10.241   9.833 -0.0587 -0.1411 -0.0445
10603SOL    HW133816   2.976  10.257   9.843  0.1926  2.9335 -1.5765
10603SOL    HW233817   3.076  10.170   9.769 -1.3076 -0.3097  0.0097
10604SOL     OW33818   9.854   2.654   8.475 -0.4914 -0.0926 -0.7558
10604SOL    HW133819   9.804   2.612   8.405  0.7640 -1.2428 -1.0101
10604SOL    HW233820   9.792   2.714   8.517 -2.6245 -2.7029  0.0799
10605SOL     OW33821   2.998   4.532   8.564  0.3342 -0.3730  0.2181
10605SOL    HW133822   2.937   4.523   8.490  0.4796 -0.0375  0.0518
10605SOL    HW233823   2.952   4.494   8.638 -0.2429  0.2300  0.1806
10606SOL     OW33824   4.059   2.493   6.946  0.2733 -0.1071  0.4079
10606SOL    HW133825   3.979   2.545   6.957  0.7719  0.3640  2.2734
10606SOL    HW233826   4.127   2.558   6.928  0.4080 -0.4152 -0.2134
10607SOL     OW33827   1.282   0.717   3.984  0.1770  0.1114 -0.1329
10607SOL    HW133828   1.319   0.704   3.897  2.1678  0.6997  0.5690
10607SOL    HW233829   1.188   0.726   3.969  0.3834 -0.5465 -2.1240
10608SOL     OW33830   3.947   0.123   4.792  0.8203  0.1666 -0.0970
10608SOL    HW133831   3.969   0.092   4.704  0.3305  1.3073 -0.6604
10608SOL    HW233832   3.913   0.047   4.837  0.2768 -0.2652 -1.1963
10609SOL     OW33833   1.681   0.548   7.597  0.6419  0.1808 -0.0550
10609SOL    HW133834   1.643   0.554   7.509  0.0518 -0.3075  0.1609
10609SOL    HW233835   1.775   0.561   7.583  0.3716  1.7653 -0.5442
10610SOL     OW33836   3.685   9.263   4.668  0.3086 -0.3096  0.6400
10610SOL    HW133837   3.653   9.178   4.699 -2.2274 -0.4900 -2.0266
10610SOL    HW233838   3.765   9.278   4.719 -0.4508 -3.0977  2.9510
10611SOL     OW33839   2.688   5.917   8.076  0.5673 -0.2613  0.1987
10611SOL    HW133840   2.783   5.919   8.082  0.5339 -0.1190  0.6757
10611SOL    HW233841   2.664   6.006   8.050  0.6352 -0.5877 -1.0530
10612SOL     OW33842   2.397   0.912   8.785  0.0163 -0.0631 -0.4345
10612SOL    HW133843   2.310   0.923   8.748 -0.7082  0.4624  1.3373
10612SOL    HW233844   2.428   0.828   8.749 -2.1905 -1.4590  0.6974
10613SOL     OW33845   7.837  10.808   9.795  0.3025  0.2847  0.5887
10613SOL    HW133846   7.918  10.770   9.829  0.2079 -1.0225 -0.5675
10613SOL    HW233847   7.853  10.818   9.702  0.0534  2.4955  0.7294
10614SOL     OW33848   7.034   9.232   8.331  0.0343 -0.2171 -0.6660
10614SOL    HW133849   6.964   9.246   8.395 -1.2549 -0.5676 -1.9373
10614SOL    HW233850   7.073   9.148   8.356 -0.4604 -0.3582 -0.3530
10615SOL     OW33851   2.332   9.379   6.003 -0.2171 -0.2210 -0.1386
10615SOL    HW133852   2.402   9.367   6.067 -0.3144 -0.4597 -0.0772
10615SOL    HW233853   2.337   9.472   5.980  0.0022 -0.1971  0.0011
10616SOL     OW33854   2.685   5.445   1.864 -0.2044  0.0094 -0.5103
10616SOL    HW133855   2.614   5.381   1.861 -1.3115  1.1781 -0.0582
10616SOL    HW233856   2.660   5.512   1.800 -0.5167  1.4225  1.0326
10617SOL     OW33857   4.733  10.219   2.427 -0.1135  0.4267  0.1065
10617SOL    HW133858   4.640  10.199   2.432  0.3731 -1.9267  1.0092
10617SOL    HW233859   4.765  10.169   2.351  0.9833 -1.8524  1.9076
10618SOL     OW33860   5.298   7.095   7.616  0.5291  0.1408 -1.0974
10618SOL    HW133861   5.323   7.157   7.684  1.0651 -1.0971 -0.1102
10618SOL    HW233862   5.205   7.111   7.601  0.5921  0.9678 -0.6601
10619SOL     OW33863   8.608   5.245   6.790 -0.0172  0.2251 -0.3352
10619SOL    HW133864   8.642   5.177   6.847  1.5103  1.6573  0.5532
10619SOL    HW233865   8.639   5.327   6.828 -1.7099  1.4462 -1.4065
10620SOL     OW33866   2.181   8.849   0.700 -0.1379  0.0737 -0.3351
10620SOL    HW133867   2.209   8.779   0.759  0.7652  0.5982 -0.1313
10620SOL    HW233868   2.209   8.930   0.743  0.6285  0.4597 -1.5202
10621SOL     OW33869   9.794   9.815   4.343 -0.1304 -0.1200 -0.2155
10621SOL    HW133870   9.772   9.905   4.367  2.9086  0.6538  0.0372
10621SOL    HW233871   9.786   9.765   4.424 -0.5738  0.1517 -0.0883
10622SOL     OW33872   4.151   1.597   5.959 -0.2571 -0.1554  0.0884
10622SOL    HW133873   4.240   1.610   5.993 -0.7637  0.0794  1.3610
10622SOL    HW233874   4.116   1.524   6.010 -1.5820  1.2033  1.2175
10623SOL     OW33875  10.408   1.597   1.774 -0.0168 -0.5126  0.0527
10623SOL    HW133876  10.396   1.507   1.746  1.1445 -0.1947 -1.5652
10623SOL    HW233877  10.493   1.623   1.739  0.2534  0.8197  1.5714
10624SOL     OW33878   9.486   7.137   5.402  0.5516  0.4908 -0.0738
10624SOL    HW133879   9.499   7.084   5.481 -0.8498  0.2523  0.0254
10624SOL    HW233880   9.521   7.223   5.424  0.1473  0.4315  0.8386
10625SOL     OW33881   3.227  10.978   4.678 -0.1086 -0.7489 -0.8042
10625SOL    HW133882   3.252  10.888   4.698  1.5464  0.1728  1.6923
10625SOL    HW233883   3.157  10.998   4.740  0.2440  0.0097 -0.6429
10626SOL     OW33884   4.235   4.287   3.305  0.5695 -0.3597  0.8134
10626SOL    HW133885   4.280   4.346   3.244  1.1646  0.0071  1.5969
10626SOL    HW233886   4.292   4.210   3.308  1.5061  0.3501  2.2774
10627SOL     OW33887   1.133   0.922   5.060  0.0026  0.2570  0.1120
10627SOL    HW133888   1.156   1.007   5.098  1.8881 -0.4446  0.7024
10627SOL    HW233889   1.113   0.867   5.135  0.6496 -0.2972 -0.1026
10628SOL     OW33890   9.305   4.301   1.481 -0.2157 -0.2426  0.6889
10628SOL    HW133891   9.399   4.318   1.487 -0.0909 -0.0553 -1.2003
10628SOL    HW233892   9.264   4.380   1.518  0.3725 -0.1004  1.0394
10629SOL     OW33893   2.088   9.439   5.442 -0.1682 -0.3244 -0.4213
10629SOL    HW133894   2.027   9.491   5.495 -1.9253 -0.0616 -2.5854
10629SOL    HW233895   2.069   9.349   5.466  0.9934 -0.1770  1.3275
10630SOL     OW33896   7.842   7.570   4.241  0.4114  0.1232  0.3210
10630SOL    HW133897   7.895   7.490   4.246  1.8312  1.0807  1.6911
10630SOL    HW233898   7.878   7.617   4.166  1.7478  0.8793  1.3868
10631SOL     OW33899   1.606   3.822   7.549 -0.6712 -0.0887  0.5605
10631SOL    HW133900   1.572   3.867   7.472  2.6861  2.3258  0.2656
10631SOL    HW233901   1.631   3.892   7.609  0.4988 -1.7632  2.1364
10632SOL     OW33902   6.733   5.929   6.216  0.7530  0.0386 -0.6962
10632SOL    HW133903   6.818   5.901   6.183 -0.1584 -1.5542 -1.8224
10632SOL    HW233904   6.671   5.904   6.148 -0.9918 -1.6433  1.3468
10633SOL     OW33905   3.076   3.560   0.677  0.0746 -0.4337 -0.9047
10633SOL    HW133906   2.997   3.507   0.690  1.4041 -2.2386  0.3522
10633SOL    HW233907   3.054   3.618   0.604 -2.8034 -0.0039  0.1809
10634SOL     OW33908   6.867   8.445   9.979  0.8825  0.0106  0.0979
10634SOL    HW133909   6.950   8.415   9.942  0.0914 -2.8724  0.4897
10634SOL    HW233910   6.803   8.432   9.909  0.0421 -1.9463  1.1743
10635SOL     OW33911   1.320   7.730   4.060  0.0260 -0.0912  0.1820
10635SOL    HW133912   1.251   7.666   4.076  0.0484 -0.6642 -1.7591
10635SOL    HW233913   1.398   7.690   4.099 -0.6743  0.5840  2.4305
10636SOL     OW33914   0.906   3.311   3.931  0.7854 -0.5713  0.2323
10636SOL    HW133915   0.930   3.264   4.011  1.5834 -0.5659 -0.0024
10636SOL    HW233916   0.988   3.350   3.900  0.3312  0.1042 -0.1509
10637SOL     OW33917  10.892   1.462  11.092 -0.0652 -0.4644  0.0755
10637SOL    HW133918  10.946   1.511  11.154 -1.3607 -1.2850  1.9307
10637SOL    HW233919  10.943   1.383  11.072 -0.2841 -0.9465  1.3472
10638SOL     OW33920   3.159   8.692   0.433  0.5023 -0.0283 -1.2260
10638SOL    HW133921   3.083   8.708   0.490 -0.1759 -2.2131 -1.4319
10638SOL    HW233922   3.231   8.678   0.494  0.9896  2.6886 -1.0277
10639SOL     OW33923  10.700   8.637   6.341  0.1134 -0.5739  0.2881
10639SOL    HW133924  10.711   8.650   6.247  0.3581 -0.9487  0.2628
10639SOL    HW233925  10.622   8.583   6.349  0.1655 -0.6510  0.2886
10640SOL     OW33926   7.531   3.762   2.426 -0.0478 -0.0549  0.2081
10640SOL    HW133927   7.464   3.694   2.424  1.4886 -1.6679 -2.4462
10640SOL    HW233928   7.542   3.783   2.519 -1.5656 -2.4408  1.0066
10641SOL     OW33929   1.392   1.242   1.283 -0.1922 -1.0351 -0.7503
10641SOL    HW133930   1.412   1.321   1.334 -1.3184 -1.6362  0.6892
10641SOL    HW233931   1.306   1.260   1.245 -1.4944 -2.3399  1.3710
10642SOL     OW33932   9.863   5.832   5.555  0.3016  0.0591  0.1297
10642SOL    HW133933   9.859   5.911   5.502 -0.0308  0.3542  0.5903
10642SOL    HW233934   9.771   5.809   5.572  0.3107 -1.5697 -1.6734
10643SOL     OW33935   8.875   4.495   2.374 -0.2709 -0.4107 -0.0181
10643SOL    HW133936   8.882   4.482   2.469 -0.3686 -1.5021 -0.1433
10643SOL    HW233937   8.805   4.559   2.364 -0.9659 -1.0359  0.6270
10644SOL     OW33938   5.626   0.152   0.169  0.0265  0.0133  0.4050
10644SOL    HW133939   5.711   0.177   0.205  0.9255 -1.4091 -0.6134
10644SOL    HW233940   5.616   0.207   0.091  0.7096 -0.8115 -0.2830
10645SOL     OW33941   4.253   4.380   9.651  0.0007  0.0542 -0.3198
10645SOL    HW133942   4.316   4.452   9.654 -1.1503  1.1473 -1.3145
10645SOL    HW233943   4.170   4.422   9.628 -1.5405 -1.0503  2.7204
10646SOL     OW33944   6.786   2.623   5.878 -0.3478 -0.0774  0.2738
10646SOL    HW133945   6.701   2.654   5.846 -1.5192 -1.4168  1.9139
10646SOL    HW233946   6.834   2.703   5.899 -1.8683  0.7041  0.9276
10647SOL     OW33947   6.662   3.331   5.350 -0.1978 -0.2960 -1.1976
10647SOL    HW133948   6.738   3.387   5.333 -0.2154  0.1244  0.0308
10647SOL    HW233949   6.697   3.259   5.403 -0.5703 -0.3588 -1.0384
10648SOL     OW33950   2.793   4.400   8.964  0.0887 -0.2832 -0.1210
10648SOL    HW133951   2.755   4.358   8.887  2.3606  0.5544 -1.8385
10648SOL    HW233952   2.866   4.452   8.929  1.5219 -0.2181  2.6721
10649SOL     OW33953   0.904   2.194   7.842  0.1832  0.1158  0.1323
10649SOL    HW133954   0.908   2.163   7.751 -2.0596  0.5410 -0.1585
10649SOL    HW233955   0.821   2.240   7.848  0.3384  0.2035  2.3983
10650SOL     OW33956  10.782   8.570   0.502  0.0798 -0.3005  0.7096
10650SOL    HW133957  10.734   8.488   0.514  1.6564 -1.4925 -0.6465
10650SOL    HW233958  10.714   8.634   0.480 -1.2130 -1.1865  1.9460
10651SOL     OW33959   2.516  10.524   0.773  0.1567 -0.0947  0.5437
10651SOL    HW133960   2.601  10.485   0.756 -0.1018 -0.7731  0.7825
10651SOL    HW233961   2.532  10.618   0.775  0.7286 -0.1660 -0.3823
10652SOL     OW33962   6.060   5.260   8.893  0.0669  0.3091  0.7396
10652SOL    HW133963   6.052   5.342   8.845  1.2202 -0.4585 -0.8950
10652SOL    HW233964   6.132   5.214   8.848 -2.2219 -2.7149 -0.1479
10653SOL     OW33965   0.289   5.239   6.256 -0.1593 -0.3410  0.2938
10653SOL    HW133966   0.332   5.154   6.250 -0.6920 -0.6486  0.7080
10653SOL    HW233967   0.270   5.250   6.350 -1.9901 -0.7517  0.0226
10654SOL     OW33968   3.424   2.830   4.226 -0.2797 -0.3105 -0.1560
10654SOL    HW133969   3.501   2.800   4.274  0.7118  1.4157 -0.6172
10654SOL    HW233970   3.414   2.922   4.251 -1.3883 -0.1445 -1.1417
10655SOL     OW33971   4.862  10.782   0.402 -0.4476 -0.2784  0.0484
10655SOL    HW133972   4.851  10.691   0.431  0.4400  0.5662  3.5182
10655SOL    HW233973   4.858  10.777   0.306 -1.3797 -3.8041  0.1199
10656SOL     OW33974   6.935   1.929   7.944 -0.3751 -0.0771 -0.0339
10656SOL    HW133975   6.863   1.918   8.006  1.1714  0.7753  2.0099
10656SOL    HW233976   6.917   1.865   7.875 -0.7577 -3.0859  2.6295
10657SOL     OW33977   0.116   6.668   3.686 -0.1233 -0.2558 -0.1630
10657SOL    HW133978   0.181   6.659   3.616  2.7601  1.7667  1.9734
10657SOL    HW233979   0.048   6.724   3.649  0.4502 -0.6171 -1.8333
10658SOL     OW33980   1.365   8.171   7.701  0.0743 -0.5334 -0.6068
10658SOL    HW133981   1.349   8.196   7.792 -1.7416 -4.3512  0.3200
10658SOL    HW233982   1.280   8.175   7.659  0.7470  0.3485 -1.9524
10659SOL     OW33983  11.062   3.533   1.553 -0.2861  0.0837 -0.8207
10659SOL    HW133984  10.969   3.530   1.533 -0.2561  0.6991 -1.0523
10659SOL    HW233985  11.098   3.453   1.513 -1.0801 -1.3934  1.2473
10660SOL     OW33986   0.955   1.862   0.863  0.6746  0.0239 -0.0624
10660SOL    HW133987   0.862   1.884   0.863  0.6564 -0.0444 -0.3973
10660SOL    HW233988   0.979   1.861   0.770  0.4790 -2.1582 -0.1415
10661SOL     OW33989   4.235  10.970   7.544  0.1060  0.4719  0.3893
10661SOL    HW133990   4.312  10.922   7.512 -1.2741 -0.1539 -2.3007
10661SOL    HW233991   4.240  11.055   7.502 -1.1768  0.0451 -0.6978
10662SOL     OW33992   4.048   8.636   8.914 -0.5697  0.1785  0.5716
10662SOL    HW133993   3.983   8.614   8.981  0.1619  0.0236  1.2478
10662SOL    HW233994   4.117   8.681   8.962  0.2393 -0.4439  0.0096
10663SOL     OW33995   2.461   1.161   5.050 -0.6461  0.8691 -0.6964
10663SOL    HW133996   2.474   1.103   4.974 -0.9781 -1.3481  0.8449
10663SOL    HW233997   2.549   1.175   5.085 -0.7757 -1.1935  0.6075
10664SOL     OW33998  10.153   9.879   2.684  0.1095  0.3072 -0.0964
10664SOL    HW133999  10.148   9.954   2.745  0.0890 -0.6509  1.1254
10664SOL    HW234000  10.110   9.808   2.731  3.1133 -1.4306  0.2334
10665SOL     OW34001   3.840  10.240   7.907  0.1740 -0.3658 -0.2438
10665SOL    HW134002   3.923  10.258   7.863  1.7085  0.2274  2.6360
10665SOL    HW234003   3.850  10.153   7.943  0.0990  0.2037  1.2169
10666SOL     OW34004   7.739   1.967   9.328  0.2839  0.0216 -0.1045
10666SOL    HW134005   7.662   1.963   9.271  0.0939  1.7997 -0.0342
10666SOL    HW234006   7.797   1.898   9.296 -1.3704 -1.4346 -0.0847
10667SOL     OW34007   8.916   6.965   0.337 -0.2688 -0.4562  0.6323
10667SOL    HW134008   8.958   6.919   0.265 -1.2557  0.4893 -0.5984
10667SOL    HW234009   8.948   7.055   0.330 -0.1701 -0.4107  1.5426
10668SOL     OW34010   0.495   7.182   9.940 -0.5533 -0.0863 -0.3310
10668SOL    HW134011   0.464   7.263   9.899  1.5593  0.5019 -0.8729
10668SOL    HW234012   0.509   7.122   9.868 -1.7735 -0.8638  0.0453
10669SOL     OW34013   0.669   2.580  10.696 -0.0531  0.1315 -0.2299
10669SOL    HW134014   0.754   2.602  10.735  0.1227  0.8158 -0.9655
10669SOL    HW234015   0.606   2.592  10.767  0.6129 -1.8435  0.7508
10670SOL     OW34016   9.510   1.485   9.673  0.5056  0.0206  0.7206
10670SOL    HW134017   9.491   1.545   9.745  1.2588  1.1705 -0.0017
10670SOL    HW234018   9.533   1.403   9.715 -2.2003 -0.3422  1.7045
10671SOL     OW34019   7.530   2.706  10.368 -0.2428 -0.3321  1.2088
10671SOL    HW134020   7.624   2.696  10.376  0.0041 -3.2702 -2.5425
10671SOL    HW234021   7.518   2.797  10.341  1.7053 -0.3440  0.1474
10672SOL     OW34022   6.082   7.199   1.492 -0.0606 -0.4117  0.5828
10672SOL    HW134023   6.079   7.276   1.549 -0.7341  0.3667 -0.4588
10672SOL    HW234024   6.166   7.206   1.447  0.9862 -1.6401  2.2533
10673SOL     OW34025   8.869   7.610  10.136 -0.4101  0.4910 -0.0857
10673SOL    HW134026   8.889   7.700  10.162 -1.4590  1.0126 -0.9956
10673SOL    HW234027   8.861   7.614  10.041 -1.5087 -0.3364 -0.0439
10674SOL     OW34028   0.639   6.768  10.142  0.8935 -0.1110 -0.0357
10674SOL    HW134029   0.713   6.827  10.156  0.0512  0.8410  0.5930
10674SOL    HW234030   0.574   6.795  10.208  0.1615 -1.2166 -0.2653
10675SOL     OW34031   0.101  10.702  10.902 -0.1528  0.2545  0.9467
10675SOL    HW134032   0.080  10.795  10.908  1.2034  0.5953  0.8514
10675SOL    HW234033   0.024  10.662  10.863  0.4891  1.9010 -2.4393
10676SOL     OW34034   9.287   6.262   8.331 -0.1352  0.2857  0.5926
10676SOL    HW134035   9.316   6.346   8.296  2.4440 -0.3989  0.9168
10676SOL    HW234036   9.327   6.197   8.274 -1.8765 -0.7573  0.5038
10677SOL     OW34037   2.802   5.650   5.414  0.0308  0.7466 -0.1323
10677SOL    HW134038   2.896   5.649   5.393  0.4225  0.2444  1.5242
10677SOL    HW234039   2.774   5.559   5.404 -0.5954  1.0898 -1.8111
10678SOL     OW34040   0.178   1.990   5.419  0.6187 -0.0269  0.3751
10678SOL    HW134041   0.223   1.945   5.348  2.0420  0.0045  1.1980
10678SOL    HW234042   0.206   2.082   5.410 -0.3892  0.2672  0.0997
10679SOL     OW34043   2.112   2.465   6.367  1.1795 -0.6617  0.4988
10679SOL    HW134044   2.144   2.377   6.348 -1.5026 -2.3758  2.9529
10679SOL    HW234045   2.142   2.483   6.456  0.9946  0.5350  0.3353
10680SOL     OW34046   9.857   6.072  10.081 -0.2819 -0.0350 -0.0249
10680SOL    HW134047   9.920   6.004  10.056 -0.3394  0.4174 -1.5065
10680SOL    HW234048   9.890   6.152  10.039  0.6645  1.2758  2.9870
10681SOL     OW34049  11.027   1.475   0.808  0.0300  0.1258 -0.3398
10681SOL    HW134050  11.107   1.430   0.837 -0.6662 -1.1369 -0.3089
10681SOL    HW234051  11.058   1.544   0.750  1.0866 -1.1721 -1.3741
10682SOL     OW34052   6.147   4.196   7.505  0.5293 -0.4983  0.1942
10682SOL    HW134053   6.214   4.233   7.563  0.2707 -1.4462  1.1310
10682SOL    HW234054   6.067   4.242   7.530  0.7031  0.2097 -0.5140
10683SOL     OW34055   4.272   4.521   3.851 -0.2757 -0.1508 -0.0041
10683SOL    HW134056   4.323   4.584   3.800  0.7212 -1.4984 -0.7494
10683SOL    HW234057   4.239   4.459   3.786  0.4678 -1.5310  0.8922
10684SOL     OW34058   8.594   2.444   6.036  0.4395 -0.2828  0.2572
10684SOL    HW134059   8.546   2.525   6.017 -0.4258 -1.1184 -1.4268
10684SOL    HW234060   8.686   2.470   6.036  0.1959  0.6617 -0.6407
10685SOL     OW34061   9.357   0.721   4.681  0.0308 -0.1478 -0.2804
10685SOL    HW134062   9.413   0.644   4.665  0.9163  0.3781  0.2094
10685SOL    HW234063   9.327   0.710   4.771 -1.1474 -0.7190 -0.7231
10686SOL     OW34064   3.156   0.902   9.900 -0.1042  0.6085  0.4141
10686SOL    HW134065   3.181   0.962   9.830 -1.1274  0.0131 -0.4987
10686SOL    HW234066   3.188   0.817   9.872 -0.7083  0.3281  0.5509
10687SOL     OW34067   6.511   6.947   1.790  0.4197  0.6784 -0.0327
10687SOL    HW134068   6.437   6.971   1.846 -1.9246 -1.4776 -1.9413
10687SOL    HW234069   6.518   7.019   1.727  0.6995  1.4220  0.8426
10688SOL     OW34070   0.131   5.536   2.981 -0.5941  0.0697  0.3049
10688SOL    HW134071   0.187   5.470   3.022 -1.3693 -0.8675 -0.0888
10688SOL    HW234072   0.173   5.555   2.897  0.9004  1.8612  1.3951
10689SOL     OW34073   6.158   5.038   4.429  0.0223  0.3879  0.2423
10689SOL    HW134074   6.205   5.114   4.464  1.0500  0.4300 -1.1300
10689SOL    HW234075   6.108   5.004   4.503  1.7526  0.7230  1.6275
10690SOL     OW34076   2.536   0.322   9.526 -0.5541  0.1723 -0.4412
10690SOL    HW134077   2.487   0.281   9.598  0.5152 -2.4067 -1.0689
10690SOL    HW234078   2.587   0.391   9.567 -0.9825 -0.3619  1.0357
10691SOL     OW34079   9.654   1.012   8.927 -0.8472 -0.0337  0.2256
10691SOL    HW134080   9.708   1.040   9.000 -0.7966  1.0423 -0.2107
10691SOL    HW234081   9.626   1.093   8.885  0.2565 -0.6298 -1.7736
10692SOL     OW34082   6.464   5.636   8.848 -1.0360 -0.1536  0.7115
10692SOL    HW134083   6.533   5.598   8.902 -0.0665 -0.0526 -0.4228
10692SOL    HW234084   6.447   5.722   8.888 -0.0530  0.0883  0.6503
10693SOL     OW34085   0.130   0.246   1.118 -0.0274 -0.2945  0.1804
10693SOL    HW134086   0.105   0.260   1.026 -0.2446 -0.9621  0.1294
10693SOL    HW234087   0.046   0.240   1.164  0.0824  0.6968  0.5372
10694SOL     OW34088  10.603   8.725   7.292 -0.4375 -0.1879  0.0607
10694SOL    HW134089  10.545   8.791   7.330  1.5067  1.7998 -0.2785
10694SOL    HW234090  10.571   8.642   7.329 -4.0197  0.6506 -0.8022
10695SOL     OW34091   4.275   1.545   1.317 -0.1005  0.2685 -0.4869
10695SOL    HW134092   4.202   1.603   1.293 -1.0032 -1.8913 -3.5813
10695SOL    HW234093   4.343   1.564   1.251 -0.2027 -1.7042 -1.2272
10696SOL     OW34094   0.577   6.736   4.448 -0.6563  0.0174  0.1523
10696SOL    HW134095   0.596   6.779   4.532 -0.5313 -0.6496  0.4657
10696SOL    HW234096   0.642   6.773   4.388  1.0783 -1.5117  0.9820
10697SOL     OW34097   8.161   5.347  10.620 -0.1988  0.3770 -0.1909
10697SOL    HW134098   8.120   5.378  10.539 -2.2207 -1.8398 -0.1318
10697SOL    HW234099   8.098   5.369  10.689 -0.1064 -0.8100  0.2880
10698SOL     OW34100   6.958   2.743   0.783  0.3646  0.6670 -0.6172
10698SOL    HW134101   7.011   2.668   0.755  1.0475  1.1871 -0.7507
10698SOL    HW234102   6.922   2.778   0.702 -0.5727  0.0526 -0.4901
10699SOL     OW34103  10.158   4.074   9.962  0.4308  0.5098  0.5262
10699SOL    HW134104  10.070   4.040   9.980  0.5192 -0.7927 -1.1846
10699SOL    HW234105  10.152   4.109   9.873  1.7197  0.0382  0.2272
10700SOL     OW34106   3.594   4.536   7.740  0.2326  0.1569  0.4663
10700SOL    HW134107   3.675   4.526   7.689 -0.7010  1.7014 -1.4821
10700SOL    HW234108   3.611   4.491   7.823  3.1549  0.6620  0.2197
10701SOL     OW34109   7.186   8.705   6.417  0.4681  0.1403  0.5571
10701SOL    HW134110   7.277   8.701   6.445  0.5729 -1.8310  0.0635
10701SOL    HW234111   7.155   8.790   6.448  2.3171  0.6289  1.1782
10702SOL     OW34112   3.655   0.878   3.131  0.5293 -0.6083  1.3522
10702SOL    HW134113   3.750   0.872   3.125  0.5803 -1.8421  2.8055
10702SOL    HW234114   3.628   0.791   3.161 -1.1213 -0.4644  0.3826
10703SOL     OW34115   6.940   7.557   8.759  0.8113  0.0344 -0.7010
10703SOL    HW134116   6.917   7.599   8.842 -0.2335 -1.5377 -0.1403
10703SOL    HW234117   6.896   7.609   8.693 -0.6637 -0.2720 -0.0037
10704SOL     OW34118   8.893   6.095  10.671  0.5670 -0.0529  0.5749
10704SOL    HW134119   8.866   6.004  10.680 -2.5646  0.6996 -0.3288
10704SOL    HW234120   8.832   6.133  10.608  0.7620  3.0466  2.0698
10705SOL     OW34121   6.125   0.527   6.453 -0.7876  0.2283 -0.3591
10705SOL    HW134122   6.143   0.591   6.522 -1.1886 -1.5574  1.4876
10705SOL    HW234123   6.036   0.496   6.472 -0.2239 -1.6218 -0.5540
10706SOL     OW34124   8.479   3.488   4.104 -0.4517 -0.8706 -0.6279
10706SOL    HW134125   8.464   3.510   4.196  0.3566  0.3624 -0.7596
10706SOL    HW234126   8.510   3.398   4.106 -1.2158 -1.1351  0.2250
10707SOL     OW34127   4.794   5.463   3.129  0.7791  0.0032  0.3615
10707SOL    HW134128   4.749   5.543   3.102 -2.1629 -2.1979 -2.0078
10707SOL    HW234129   4.832   5.429   3.048  1.1019 -1.4790  1.1020
10708SOL     OW34130   0.756  10.794   8.975 -0.1263 -0.0226 -0.0463
10708SOL    HW134131   0.754  10.833   8.888 -2.3088  3.1981  1.2551
10708SOL    HW234132   0.665  10.771   8.994  0.1253  0.2243  1.6993
10709SOL     OW34133   7.220   6.643  10.696  0.0063  0.6239 -0.3220
10709SOL    HW134134   7.246   6.557  10.664  0.7196  0.8520 -0.3757
10709SOL    HW234135   7.128   6.651  10.672 -0.2256 -0.3511  0.1829
10710SOL     OW34136   3.666   5.527   2.266 -0.1810 -0.0062  0.4814
10710SOL    HW134137   3.678   5.469   2.341  0.8957 -0.3562  0.0644
10710SOL    HW234138   3.740   5.588   2.270  0.7261 -0.9206 -1.0555
10711SOL     OW34139   1.054   6.145   1.562  0.2345 -0.1058 -0.0589
10711SOL    HW134140   1.014   6.059   1.557  0.5716 -0.2571 -0.1473
10711SOL    HW234141   1.066   6.160   1.656 -0.8802  0.3390  0.0295
10712SOL     OW34142   4.918   9.901  10.974  0.1809 -0.7087  0.4139
10712SOL    HW134143   4.985   9.857  10.923  0.7333 -1.2389  1.5606
10712SOL    HW234144   4.956   9.985  10.998  0.1439 -0.6924  0.4152
10713SOL     OW34145   8.571   5.335   3.914  0.4560  0.0522 -0.3245
10713SOL    HW134146   8.508   5.407   3.910  0.0284 -0.3725 -1.9832
10713SOL    HW234147   8.604   5.337   4.004 -1.3316  0.7788  0.3577
10714SOL     OW34148   5.670   5.278   0.368 -0.1267  0.5589 -0.5668
10714SOL    HW134149   5.658   5.347   0.433  0.8515  0.4352 -0.2384
10714SOL    HW234150   5.652   5.320   0.285 -3.1307  0.3084 -0.1665
10715SOL     OW34151  10.268   9.225   7.555 -0.0534  0.5633 -0.6242
10715SOL    HW134152  10.303   9.288   7.492 -1.4699  2.9500  0.8057
10715SOL    HW234153  10.313   9.143   7.535  1.0582  1.7155 -3.3396
10716SOL     OW34154   6.088   4.798   5.542 -0.0077 -0.4585  0.3540
10716SOL    HW134155   6.136   4.816   5.623 -0.5162  2.9820  0.0322
10716SOL    HW234156   6.152   4.753   5.486  0.8552 -1.4474  2.0447
10717SOL     OW34157   3.572  11.076   1.836  0.2132 -0.2049 -0.0690
10717SOL    HW134158   3.579  11.074   1.741  1.1511 -0.1949 -0.0152
10717SOL    HW234159   3.491  11.124   1.854  0.9274  1.3726 -0.8559
10718SOL     OW34160  10.487   7.086   0.288  1.1344  0.1947 -1.3014
10718SOL    HW134161  10.443   7.053   0.366 -3.9078  1.3989 -3.2840
10718SOL    HW234162  10.538   7.161   0.319  1.4314 -0.8967  1.1095
10719SOL     OW34163   2.203  11.089  10.770  0.2491 -0.1281  0.4933
10719SOL    HW134164   2.202  10.997  10.796 -1.4151  0.0123  1.0116
10719SOL    HW234165   2.117  11.123  10.795 -0.4048  0.7866 -2.5475
10720SOL     OW34166   6.260   3.317   8.546 -0.4065  0.2736  0.1124
10720SOL    HW134167   6.268   3.291   8.454 -0.7823 -0.8756  0.3902
10720SOL    HW234168   6.166   3.312   8.564 -0.3234  0.3898  0.5906
10721SOL     OW34169   0.459  10.491   9.494 -0.0652 -0.5114  0.6154
10721SOL    HW134170   0.365  10.489   9.478  0.0082  0.7295 -0.1062
10721SOL    HW234171   0.496  10.531   9.415  0.8394  1.0824  1.8025
10722SOL     OW34172   0.030   8.772   4.921  1.4474  0.0361 -0.3524
10722SOL    HW134173   0.063   8.861   4.913  0.1910  0.6816  1.1324
10722SOL    HW234174   0.045   8.748   5.013 -0.7204 -0.1746  0.0256
10723SOL     OW34175   2.158   1.666   9.508  0.1531  0.0930 -0.4475
10723SOL    HW134176   2.190   1.626   9.427 -0.6725 -1.9197  0.1443
10723SOL    HW234177   2.178   1.601   9.576 -2.1777  0.1631  0.4156
10724SOL     OW34178   3.910   2.447  10.069 -0.0569 -0.4649  0.6411
10724SOL    HW134179   3.980   2.513  10.069 -0.2390 -0.2663  1.4773
10724SOL    HW234180   3.862   2.462  10.150 -0.5752 -1.1308  0.4682
10725SOL     OW34181   2.276   7.375   7.623  0.6233  0.5224 -0.4177
10725SOL    HW134182   2.236   7.422   7.696  0.2213  1.2842 -1.1127
10725SOL    HW234183   2.293   7.443   7.557  0.7901 -0.1832 -1.1139
10726SOL     OW34184  10.953   0.433   1.094 -0.4511 -0.2173 -0.2818
10726SOL    HW134185  10.927   0.432   1.186 -2.5048  1.1173 -0.7558
10726SOL    HW234186  10.994   0.519   1.081  0.1290 -0.5288 -0.5472
10727SOL     OW34187   5.416  10.134  10.228  0.4350 -0.2042 -0.6281
10727SOL    HW134188   5.395  10.187  10.305  1.1407 -0.1522 -0.4625
10727SOL    HW234189   5.512  10.132  10.226  0.4428  0.3958 -1.9178
10728SOL     OW34190   7.722   2.821   4.778  0.3069  0.1631  0.3155
10728SOL    HW134191   7.817   2.826   4.791  0.3004 -1.3868  1.1135
10728SOL    HW234192   7.711   2.816   4.683  0.8157  3.1809 -0.0173
10729SOL     OW34193   9.846   6.161   1.388 -0.2253  0.2338 -0.1442
10729SOL    HW134194   9.818   6.080   1.429 -0.7007  0.5683  0.2061
10729SOL    HW234195   9.805   6.160   1.302 -1.3954  0.7423  0.3814
10730SOL     OW34196  10.819  10.431   1.842  0.4572  0.2274  0.1314
10730SOL    HW134197  10.801  10.363   1.906  0.6066  0.4162  0.3718
10730SOL    HW234198  10.865  10.499   1.890  1.0807  0.1193 -0.2976
10731SOL     OW34199   2.908  10.163   1.401 -0.1893 -0.2483  0.2894
10731SOL    HW134200   2.960  10.084   1.384  0.4564 -0.7053  3.7687
10731SOL    HW234201   2.857  10.175   1.321  4.3299 -0.3975 -2.9738
10732SOL     OW34202   0.510   0.166   5.793  0.5368 -0.6616 -0.0084
10732SOL    HW134203   0.501   0.256   5.763 -1.5276 -1.0430 -0.6980
10732SOL    HW234204   0.601   0.144   5.777  1.4661  1.7296  1.4737
10733SOL     OW34205   7.130   4.177   8.915  0.9799  0.1145 -0.1226
10733SOL    HW134206   7.078   4.194   8.994 -0.2398 -1.9331 -0.4218
10733SOL    HW234207   7.164   4.263   8.890 -3.5045  1.9651 -0.7552
10734SOL     OW34208   8.860   7.140   2.851  0.2936  0.1887  0.1991
10734SOL    HW134209   8.850   7.053   2.888 -1.4166  0.9063  1.5714
10734SOL    HW234210   8.859   7.126   2.756 -1.8005 -1.1562  0.3509
10735SOL     OW34211   2.912   9.074   0.254  0.0642 -0.2425 -0.1430
10735SOL    HW134212   2.889   9.032   0.171  1.4708 -0.2072 -0.5814
10735SOL    HW234213   2.996   9.035   0.277  0.7469  1.3353  0.1453
10736SOL     OW34214   6.821   1.960   1.587  0.2602 -0.4177  0.5944
10736SOL    HW134215   6.875   1.924   1.657 -0.7631 -0.4249  1.3994
10736SOL    HW234216   6.804   1.885   1.530 -1.2255 -1.0804  1.8549
10737SOL     OW34217  10.533   8.616   9.831  0.4390  0.4837  0.0335
10737SOL    HW134218  10.500   8.545   9.887 -0.9688  2.7453  2.2946
10737SOL    HW234219  10.622   8.631   9.862  0.7937 -0.3196 -0.5477
10738SOL     OW34220   6.621   7.328   2.261  0.5282 -0.0176  0.2067
10738SOL    HW134221   6.611   7.257   2.324  1.8047 -0.6627 -0.2834
10738SOL    HW234222   6.705   7.312   2.219  0.1182  0.8968 -1.0458
10739SOL     OW34223   2.039   3.644   1.343 -0.3773  0.4015 -0.2973
10739SOL    HW134224   1.954   3.606   1.322 -0.2438  1.5468 -3.4833
10739SOL    HW234225   2.027   3.682   1.430 -1.6912 -3.1560  1.2671
10740SOL     OW34226   6.594   5.185   8.902  0.3249 -0.4037  0.7060
10740SOL    HW134227   6.542   5.236   8.964  1.3427  0.1286  1.1469
10740SOL    HW234228   6.685   5.207   8.923  0.7046  0.4378 -1.4868
10741SOL     OW34229  10.957   8.307   3.925 -0.6654 -0.8763 -0.3615
10741SOL    HW134230  10.904   8.346   3.855 -0.8724 -0.0730  0.2267
10741SOL    HW234231  11.009   8.240   3.881  0.4614  0.7410 -1.6415
10742SOL     OW34232   5.902   2.579   0.118 -0.3761 -0.7345 -0.1995
10742SOL    HW134233   5.954   2.659   0.115 -4.0776  1.9373 -0.3241
10742SOL    HW234234   5.910   2.548   0.209  0.2381  0.4304  0.1613
10743SOL     OW34235   2.130   2.254  10.716 -0.5238  0.0794  0.6496
10743SOL    HW134236   2.070   2.182  10.735 -0.4599 -0.1806 -0.0902
10743SOL    HW234237   2.105   2.284  10.628 -0.2593  0.6664  0.7635
10744SOL     OW34238   3.746  11.097   6.718  0.8545 -0.3452 -1.3517
10744SOL    HW134239   3.688  11.021   6.727  0.0220  0.4674  0.5807
10744SOL    HW234240   3.823  11.074   6.771  0.5584  0.2006 -0.6865
10745SOL     OW34241   5.750   7.735   0.119  0.2252  0.2904 -0.1246
10745SOL    HW134242   5.801   7.654   0.122  1.8148  1.2555  2.8076
10745SOL    HW234243   5.682   7.723   0.186 -0.8140  0.6398 -1.0837
10746SOL     OW34244   4.436   4.614   5.361  0.5776 -0.2171 -0.1206
10746SOL    HW134245   4.355   4.568   5.339 -0.2525  1.0100  0.3064
10746SOL    HW234246   4.436   4.618   5.457 -0.5299  2.5966 -0.1465
10747SOL     OW34247   3.670   0.117   0.239  0.0093  0.7936 -0.1002
10747SOL    HW134248   3.719   0.119   0.156 -0.4227 -1.1578 -0.4566
10747SOL    HW234249   3.718   0.054   0.293 -1.3371 -0.1670  0.0262
10748SOL     OW34250   5.259   5.606   7.403 -0.5589 -0.0116 -0.6414
10748SOL    HW134251   5.259   5.515   7.373 -0.5662 -0.0845 -0.4220
10748SOL    HW234252   5.220   5.603   7.490 -2.3355  0.4501 -1.3606
10749SOL     OW34253   9.706   8.900   7.337  0.0265 -0.0021 -0.1224
10749SOL    HW134254   9.793   8.881   7.300 -0.0121  1.5348 -1.1024
10749SOL    HW234255   9.720   8.902   7.432  0.8799 -0.5807 -0.2219
10750SOL     OW34256   7.544   6.931   7.531  0.3865 -0.2540 -0.2006
10750SOL    HW134257   7.594   6.979   7.465  0.8158 -0.8169 -0.2984
10750SOL    HW234258   7.516   6.851   7.486 -0.3559 -0.0788 -0.0580
10751SOL     OW34259   5.465   9.990   2.862 -0.0785 -0.5474 -0.1446
10751SOL    HW134260   5.376  10.003   2.829 -0.0975 -0.4668 -0.0620
10751SOL    HW234261   5.455   9.929   2.935 -0.0000 -0.9706 -0.4779
10752SOL     OW34262   0.615   3.987   2.664 -0.0725  0.1016 -0.0265
10752SOL    HW134263   0.579   4.039   2.736  1.5580  0.2948  0.6887
10752SOL    HW234264   0.691   4.037   2.634 -0.1336 -0.4815 -1.2304
10753SOL     OW34265  10.665   9.005   9.110 -0.1641  0.7472 -0.3065
10753SOL    HW134266  10.687   8.965   9.194  0.5749  0.2529 -0.7272
10753SOL    HW234267  10.590   8.954   9.078 -0.1893  0.6774 -0.1366
10754SOL     OW34268   5.851   6.604   7.181 -0.1209 -0.0138  0.1756
10754SOL    HW134269   5.858   6.547   7.104  0.2751 -2.1452  1.7011
10754SOL    HW234270   5.879   6.690   7.150  4.8716 -1.7372 -1.0213
10755SOL     OW34271   1.072   8.349  10.474 -0.7944 -0.7479 -0.0737
10755SOL    HW134272   1.056   8.272  10.418  1.7192 -0.9698 -0.6061
10755SOL    HW234273   1.058   8.424  10.416  1.0923 -0.9605 -0.8561
10756SOL     OW34274  10.674   6.966   2.049  0.1028  0.3303  0.3447
10756SOL    HW134275  10.741   7.003   1.991  0.3723 -1.4560 -0.5427
10756SOL    HW234276  10.719   6.955   2.133  0.1934  1.3544  0.4543
10757SOL     OW34277   6.697   5.824   7.816  0.4212  0.3375  0.4800
10757SOL    HW134278   6.630   5.839   7.883 -3.9693  0.2116 -3.3806
10757SOL    HW234279   6.708   5.910   7.774  1.7410  0.0540  0.2014
10758SOL     OW34280   1.485   3.850   8.166 -0.0735  0.5395 -0.0035
10758SOL    HW134281   1.514   3.941   8.171 -0.2839  0.6321 -0.4207
10758SOL    HW234282   1.562   3.798   8.191 -0.1364  0.8471  0.8784
10759SOL     OW34283   1.863   2.425  11.054 -0.7998  0.2810 -0.0759
10759SOL    HW134284   1.859   2.336  11.089  0.1731  0.0924 -0.4167
10759SOL    HW234285   1.883   2.480  11.130  1.8880 -0.1907 -0.3418
10760SOL     OW34286   3.687   4.836   6.308  0.2495  0.6128  0.1955
10760SOL    HW134287   3.723   4.845   6.397 -0.1003  1.8177  0.2313
10760SOL    HW234288   3.751   4.782   6.262 -1.7969 -4.2807  2.4293
10761SOL     OW34289   4.533   3.114   6.160  0.2557  0.3577  0.3833
10761SOL    HW134290   4.499   3.039   6.110  2.0496  0.2155 -0.7127
10761SOL    HW234291   4.613   3.082   6.200 -0.4015  0.9219  2.2226
10762SOL     OW34292   5.261   3.053   0.596  0.7689  0.1670 -0.8141
10762SOL    HW134293   5.304   3.133   0.565  0.1203  0.4517 -0.9860
10762SOL    HW234294   5.187   3.083   0.648  0.7005 -0.3213 -0.6219
10763SOL     OW34295   0.202   7.374   0.721  0.0552 -0.0883  0.4087
10763SOL    HW134296   0.175   7.422   0.643 -0.4963 -0.3791  0.4213
10763SOL    HW234297   0.245   7.295   0.688  1.9775  0.9030  0.3579
10764SOL     OW34298   4.819   3.042   3.849  0.2114 -0.2735 -0.1155
10764SOL    HW134299   4.840   2.999   3.767  0.0869 -0.5533 -0.0043
10764SOL    HW234300   4.893   3.022   3.907  1.3361  1.6898 -0.7890
10765SOL     OW34301   1.405   6.235   4.493 -0.1040 -0.3285 -0.4162
10765SOL    HW134302   1.413   6.164   4.430  0.1952 -1.0737  0.4351
10765SOL    HW234303   1.363   6.195   4.569  1.8416 -0.1423  0.8407
10766SOL     OW34304  10.755   1.731   3.186  0.0828 -0.1934 -0.4740
10766SOL    HW134305  10.754   1.824   3.161  1.3894 -0.9119 -3.6903
10766SOL    HW234306  10.832   1.723   3.243  2.4378  0.1777 -3.3274
10767SOL     OW34307   8.211   4.358   0.244 -0.8621 -0.1629 -0.1215
10767SOL    HW134308   8.214   4.420   0.317  0.4576 -1.2141  0.7692
10767SOL    HW234309   8.283   4.296   0.262 -2.1030 -1.9321 -0.9728
10768SOL     OW34310   3.487   1.468   9.798 -0.0790  0.0904 -0.4056
10768SOL    HW134311   3.555   1.422   9.748  1.4196 -0.2799  1.8261
10768SOL    HW234312   3.535   1.533   9.849 -1.4921  0.2781  0.7407
10769SOL     OW34313   3.938   2.459   1.195 -0.4774  0.7401 -0.3239
10769SOL    HW134314   3.970   2.434   1.109 -1.3853 -0.1885 -0.4200
10769SOL    HW234315   3.843   2.451   1.189 -0.5329  0.1421  0.9009
10770SOL     OW34316   9.440   4.340   3.040  0.1597  0.1493 -0.7426
10770SOL    HW134317   9.484   4.324   3.124  1.7419  0.9260 -1.3747
10770SOL    HW234318   9.490   4.287   2.977  1.6169  2.6676 -1.8417
10771SOL     OW34319   0.265   5.344   8.197  0.0659  0.0860 -0.2018
10771SOL    HW134320   0.257   5.292   8.277  0.2245  0.4681  0.0648
10771SOL    HW234321   0.193   5.407   8.203  1.1269  1.2794  0.5157
10772SOL     OW34322   5.789   0.972   9.237  0.2423 -0.1764 -0.3006
10772SOL    HW134323   5.827   1.050   9.278 -0.4302  1.2750 -2.2945
10772SOL    HW234324   5.706   0.959   9.284  1.1871 -0.8716  1.2781
10773SOL     OW34325   3.602   3.757   3.464  0.2721  0.6313 -0.0835
10773SOL    HW134326   3.525   3.703   3.481 -0.0054  1.6410  2.2111
10773SOL    HW234327   3.588   3.836   3.516  2.9413  0.7682  0.5808
10774SOL     OW34328   5.016   7.192   4.605 -0.2441 -0.0094  0.4629
10774SOL    HW134329   5.102   7.217   4.639 -0.0079 -0.6445  0.3431
10774SOL    HW234330   5.033   7.164   4.515 -0.7217  0.7413  0.1304
10775SOL     OW34331  10.140   6.185   6.949  0.1877  0.0020  0.4081
10775SOL    HW134332  10.149   6.107   6.894 -2.9877  0.0410 -0.3435
10775SOL    HW234333  10.118   6.150   7.035 -0.3814  0.0534  0.2831
10776SOL     OW34334   2.185   1.479   8.157  0.1593  0.6026 -0.2787
10776SOL    HW134335   2.142   1.469   8.072  0.0628 -0.6390 -0.1055
10776SOL    HW234336   2.113   1.492   8.218  0.1650  0.5145 -0.2533
10777SOL     OW34337   1.449   3.142   3.292 -0.1062 -0.0218  0.0090
10777SOL    HW134338   1.427   3.226   3.250 -0.1112 -0.3780 -0.7127
10777SOL    HW234339   1.513   3.102   3.234 -0.3884 -0.6930  0.1497
10778SOL     OW34340  10.284   2.487   9.539 -0.4915  0.0800  0.3747
10778SOL    HW134341  10.295   2.575   9.576 -1.0505 -0.1824  1.1741
10778SOL    HW234342  10.332   2.429   9.598 -0.7430 -0.2487  0.2599
10779SOL     OW34343   2.279   2.105  10.406 -0.2805  0.6506  0.3171
10779SOL    HW134344   2.254   2.017  10.376 -0.4198  0.2191  1.6372
10779SOL    HW234345   2.368   2.116  10.373 -0.0296 -0.2490  0.6555
10780SOL     OW34346   6.991   6.493   5.417  0.6550 -0.2213  0.5130
10780SOL    HW134347   7.003   6.550   5.341 -0.3350 -0.8919 -0.1823
10780SOL    HW234348   6.971   6.552   5.489 -2.1604  0.3128 -0.5683
10781SOL     OW34349   2.759   2.194  10.953  0.0576  0.0226 -0.0931
10781SOL    HW134350   2.679   2.201  11.005  0.5192  0.2078  0.6181
10781SOL    HW234351   2.740   2.128  10.887 -1.0214  0.7926 -0.5864
10782SOL     OW34352   3.980   7.781   9.504  0.1303  0.1792 -0.6467
10782SOL    HW134353   3.892   7.817   9.510 -0.0434 -0.3493  0.1973
10782SOL    HW234354   4.016   7.791   9.592 -0.2484 -2.4232 -0.0940
10783SOL     OW34355   4.400   6.741   5.584  0.0656 -0.3341 -0.1699
10783SOL    HW134356   4.350   6.768   5.661  0.0346 -0.5069 -0.1289
10783SOL    HW234357   4.336   6.742   5.513  0.7344  2.9853 -0.9024
10784SOL     OW34358   6.036   4.015   9.127  0.2143 -0.3050  0.2351
10784SOL    HW134359   6.041   4.108   9.106 -0.0447  0.1520  2.0637
10784SOL    HW234360   5.950   3.988   9.094  0.4122  0.0101 -0.5696
10785SOL     OW34361   9.636   3.947   0.097 -0.0448 -0.1524 -0.6312
10785SOL    HW134362   9.563   3.997   0.134  0.4767 -1.2798  2.1737
10785SOL    HW234363   9.712   3.975   0.147  0.3600 -3.2688  0.6854
10786SOL     OW34364   1.115   2.923   7.073 -0.1685 -0.4888 -0.1736
10786SOL    HW134365   1.135   2.899   6.982  2.0272 -1.0019  0.3733
10786SOL    HW234366   1.030   2.966   7.068  1.4971  3.1587 -3.1571
10787SOL     OW34367   6.723   5.702   4.554 -0.4017  0.2780 -0.5173
10787SOL    HW134368   6.665   5.735   4.623  0.8217  1.3496  0.0468
10787SOL    HW234369   6.665   5.686   4.480 -1.5787  0.2521  0.3669
10788SOL     OW34370   2.526   7.985   7.042 -0.0355  0.3198  0.5053
10788SOL    HW134371   2.476   8.047   7.095  0.3774  0.7239  0.4300
10788SOL    HW234372   2.569   8.038   6.976 -0.3976 -0.1643 -0.1315
10789SOL     OW34373   2.825   8.224   3.499  0.1686  0.3406  0.1640
10789SOL    HW134374   2.919   8.240   3.504  0.3569 -0.4541 -0.5995
10789SOL    HW234375   2.812   8.184   3.413 -0.6129 -1.2430  0.9816
10790SOL     OW34376   0.267   8.420  10.865 -0.1393 -0.0675 -0.5751
10790SOL    HW134377   0.202   8.462  10.809 -2.4326 -0.2110  1.7644
10790SOL    HW234378   0.220   8.346  10.904  0.8274  0.8149  2.5347
10791SOL     OW34379   6.937   7.898   0.804 -0.1277 -0.1084 -0.8431
10791SOL    HW134380   6.909   7.844   0.730 -1.1256 -0.6918 -0.0594
10791SOL    HW234381   6.866   7.961   0.816  0.6443  0.8467 -1.2138
10792SOL     OW34382   7.501  10.747   2.359 -0.2985 -0.4202  0.0761
10792SOL    HW134383   7.554  10.818   2.324  0.0956 -0.7610 -0.0302
10792SOL    HW234384   7.458  10.784   2.436 -0.9760  0.2653 -0.6128
10793SOL     OW34385   0.239   0.793   0.550  0.3918 -0.4141 -0.0315
10793SOL    HW134386   0.274   0.733   0.484 -0.4340 -0.9106 -0.0318
10793SOL    HW234387   0.183   0.739   0.605 -1.5034  0.5563 -0.8740
10794SOL     OW34388  10.929   4.333   2.575  0.4462 -0.3032  0.0506
10794SOL    HW134389  10.947   4.347   2.482 -2.3560  1.4649 -0.3306
10794SOL    HW234390  10.837   4.308   2.578  0.7389 -1.3592  2.3196
10795SOL     OW34391   3.554   3.005   6.372  0.3322  0.1195  0.2172
10795SOL    HW134392   3.472   3.018   6.325  0.0016  0.9957  1.0094
10795SOL    HW234393   3.528   3.000   6.464  0.9275 -1.8717  0.3297
10796SOL     OW34394   8.724  10.911   1.974 -0.0334 -0.9754  0.2961
10796SOL    HW134395   8.648  10.872   2.018 -0.1876  0.1292  1.0546
10796SOL    HW234396   8.764  10.967   2.040  0.9837 -0.9169 -0.3485
10797SOL     OW34397   4.799   4.361  10.164  0.2822 -0.5819  0.2926
10797SOL    HW134398   4.832   4.272  10.176  2.4131  0.4372  3.1219
10797SOL    HW234399   4.730   4.370  10.229 -0.4670 -0.3502 -0.5112
10798SOL     OW34400   2.474   5.384   3.889  0.0005  0.0307 -0.4808
10798SOL    HW134401   2.488   5.315   3.823 -2.3127  2.3878 -3.7786
10798SOL    HW234402   2.555   5.436   3.887  0.6144 -0.8904 -0.1328
10799SOL     OW34403   7.500   1.010   9.052  0.2967  0.4097  0.2471
10799SOL    HW134404   7.529   1.050   9.133 -2.1543 -1.7987  2.3907
10799SOL    HW234405   7.572   0.951   9.027  0.5993  0.2409  1.4749
10800SOL     OW34406   2.765  10.494   3.169  0.0914 -0.6015  0.4252
10800SOL    HW134407   2.789  10.464   3.256 -1.1602 -1.8020  0.4108
10800SOL    HW234408   2.738  10.414   3.123  1.5329 -0.1359 -1.3644
10801SOL     OW34409   2.115   6.829   4.968 -0.2851  0.3890 -0.6224
10801SOL    HW134410   2.168   6.861   4.895 -0.0879  1.6807  0.0693
10801SOL    HW234411   2.109   6.903   5.028 -0.6441 -0.5819  0.5721
10802SOL     OW34412   3.275   4.738   5.688 -0.5251 -1.1869  0.4350
10802SOL    HW134413   3.245   4.822   5.723  3.5185 -0.3457  2.4875
10802SOL    HW234414   3.195   4.687   5.676 -2.8280  1.2564  3.7149
10803SOL     OW34415   8.186   8.303   7.025  0.2392  0.1281 -0.6483
10803SOL    HW134416   8.212   8.265   6.942  0.9872 -0.9135  0.0316
10803SOL    HW234417   8.167   8.228   7.081 -0.6754  0.8179  0.0002
10804SOL     OW34418  10.783   0.827   3.379 -0.3574  0.0944 -0.0894
10804SOL    HW134419  10.745   0.806   3.464  1.8315  2.6184  1.6748
10804SOL    HW234420  10.802   0.742   3.339 -1.7440 -1.1515  1.7887
10805SOL     OW34421   0.143   8.919  10.108  0.1295 -0.1919 -0.6427
10805SOL    HW134422   0.222   8.907  10.162  0.5389  0.7482 -1.0121
10805SOL    HW234423   0.165   8.878  10.024 -0.8635 -2.5383  0.1498
10806SOL     OW34424   3.416   6.605   0.078  0.0391  0.1048 -0.0003
10806SOL    HW134425   3.401   6.602  -0.017  0.5371 -0.7785 -0.0633
10806SOL    HW234426   3.426   6.698   0.097 -0.0308  0.2931 -0.8239
10807SOL     OW34427   1.675   3.564   0.974 -0.1534 -0.1109  0.1741
10807SOL    HW134428   1.691   3.618   1.051 -1.4626 -1.3436  1.3578
10807SOL    HW234429   1.763   3.543   0.942  0.4041  2.3245 -0.1101
10808SOL     OW34430   4.219   1.304  10.910 -0.0482 -0.3653 -0.0652
10808SOL    HW134431   4.277   1.377  10.889 -2.1594  1.1898 -0.8619
10808SOL    HW234432   4.259   1.229  10.866  0.6428  0.9260 -1.7846
10809SOL     OW34433   7.274   8.453   7.781 -0.2283 -0.2341  0.4908
10809SOL    HW134434   7.274   8.495   7.695  0.8669 -0.5357  0.3280
10809SOL    HW234435   7.220   8.510   7.835  0.8896  1.2149  0.1654
10810SOL     OW34436   9.534   1.219   9.792 -0.0075 -0.3314 -0.6687
10810SOL    HW134437   9.469   1.149   9.792  0.1968 -0.6173  1.6855
10810SOL    HW234438   9.585   1.204   9.872  0.9551  1.6764 -0.8332
10811SOL     OW34439   2.858   7.968  10.017 -0.5050  0.3183 -0.8065
10811SOL    HW134440   2.857   8.042  10.078 -1.6877  0.2117 -0.6667
10811SOL    HW234441   2.905   8.001   9.941  0.2695  0.7261 -0.1731
10812SOL     OW34442   3.636   3.668   8.484  0.0174  0.0470  0.1003
10812SOL    HW134443   3.567   3.676   8.418  0.1265 -0.1800 -0.0441
10812SOL    HW234444   3.714   3.703   8.441 -0.2423  1.3675  0.6563
10813SOL     OW34445   0.033   2.521  10.931  0.0634 -0.4376 -0.3621
10813SOL    HW134446  -0.036   2.501  10.994 -0.0437  1.5609  0.2493
10813SOL    HW234447   0.112   2.483  10.970 -0.2535 -0.4562  0.2827
10814SOL     OW34448   0.879   9.177   7.208 -0.0543 -0.3439 -0.0872
10814SOL    HW134449   0.891   9.185   7.302  0.8349 -1.0745 -0.1207
10814SOL    HW234450   0.797   9.224   7.190 -1.4547 -2.0922  1.3534
10815SOL     OW34451   0.250   2.748   4.112  0.6509  0.4886 -0.0575
10815SOL    HW134452   0.307   2.820   4.139  1.9942 -0.6287  0.1730
10815SOL    HW234453   0.209   2.779   4.031  2.0633  1.0775 -0.5676
10816SOL     OW34454  11.074   7.069   0.529  0.0644  0.5215 -0.6436
10816SOL    HW134455  11.040   7.144   0.480  0.5206  0.4944 -1.0083
10816SOL    HW234456  11.168   7.085   0.535  0.2063 -0.1553 -0.9700
10817SOL     OW34457   5.104   7.367   3.404 -0.6968  0.1732 -0.5207
10817SOL    HW134458   5.148   7.378   3.320 -1.7291 -1.3478 -1.3081
10817SOL    HW234459   5.108   7.273   3.421 -1.5873  0.3026  0.5152
10818SOL     OW34460   3.800   6.370   4.636 -0.0983  0.2257 -0.1126
10818SOL    HW134461   3.871   6.318   4.597  0.8416  0.1671  1.5606
10818SOL    HW234462   3.773   6.430   4.567  2.4642  1.1275 -0.4474
10819SOL     OW34463   1.226   5.222   9.372  0.4143 -0.4808 -0.5467
10819SOL    HW134464   1.279   5.143   9.377 -0.3539 -1.0072 -0.5301
10819SOL    HW234465   1.273   5.286   9.426  0.0997 -1.4961  1.0107
10820SOL     OW34466   7.011   0.052   7.117 -0.1093  0.0564 -0.4850
10820SOL    HW134467   6.940   0.057   7.180  2.2081  1.2427  2.2749
10820SOL    HW234468   7.033   0.144   7.099  2.2573 -0.2045  0.7318
10821SOL     OW34469   5.855   2.647   4.428  0.9820 -0.4200 -0.0716
10821SOL    HW134470   5.863   2.552   4.421  0.7485 -0.3741 -1.0819
10821SOL    HW234471   5.762   2.662   4.443  0.9439 -0.3287 -0.3943
10822SOL     OW34472   9.009  11.072  11.016  0.1821  0.2615  0.4244
10822SOL    HW134473   8.931  11.040  10.969  0.4585 -0.1776  0.2581
10822SOL    HW234474   8.979  11.085  11.106  0.1873 -0.9913  0.6250
10823SOL     OW34475   9.843   9.125   5.696 -0.5554 -0.0120  0.3543
10823SOL    HW134476   9.799   9.209   5.700 -0.4349  0.1205 -0.6808
10823SOL    HW234477   9.811   9.076   5.771  0.2775  1.3811  1.6619
10824SOL     OW34478   8.140   1.136   8.169  0.5676  0.5778 -0.2503
10824SOL    HW134479   8.132   1.170   8.258  0.0251  0.6314 -0.3146
10824SOL    HW234480   8.214   1.075   8.172 -0.9423 -1.3186  0.8367
10825SOL     OW34481   4.981   9.052   9.897  0.6319  0.1001  0.4450
10825SOL    HW134482   4.986   8.965   9.859 -1.5001 -0.1004  0.4665
10825SOL    HW234483   5.072   9.077   9.914  1.3063 -1.9935  0.2042
10826SOL     OW34484   8.785   9.069  10.657 -0.0844  0.2896 -0.2276
10826SOL    HW134485   8.863   9.038  10.610 -0.7101 -2.3968  0.3736
10826SOL    HW234486   8.714   9.014  10.625 -1.0041  0.1111  1.9769
10827SOL     OW34487   4.225   2.811   0.198 -0.3802  0.1994 -0.3132
10827SOL    HW134488   4.320   2.801   0.191 -0.2440  1.2928 -0.2416
10827SOL    HW234489   4.197   2.736   0.249  0.5174  0.1161  0.0831
10828SOL     OW34490   5.077   3.857   6.763 -0.0481  0.0047  0.1098
10828SOL    HW134491   5.129   3.806   6.826  0.7238  0.2357 -0.3295
10828SOL    HW234492   5.139   3.879   6.693 -0.8115  0.0414 -0.5669
10829SOL     OW34493   9.610   3.252   6.462 -0.3809 -0.4078 -0.3031
10829SOL    HW134494   9.532   3.295   6.496 -0.0163 -1.4131  2.0587
10829SOL    HW234495   9.589   3.159   6.465 -0.1832 -0.5824 -2.6908
10830SOL     OW34496   8.417   0.009   7.300  0.1325  0.1754 -0.3227
10830SOL    HW134497   8.447   0.097   7.320  0.9692 -0.5290  1.8559
10830SOL    HW234498   8.376  -0.022   7.381 -2.1852 -0.6646 -1.7179
10831SOL     OW34499   2.560   5.135   5.144  0.6272 -0.2812 -0.0682
10831SOL    HW134500   2.526   5.209   5.094 -1.7346 -1.9225 -1.0901
10831SOL    HW234501   2.481   5.090   5.176  1.8847 -3.1016 -0.6597
10832SOL     OW34502   5.479   3.718   7.308  0.2591 -0.4832 -0.5413
10832SOL    HW134503   5.565   3.677   7.295  0.2592 -0.5967 -0.2021
10832SOL    HW234504   5.495   3.787   7.373 -0.1043 -1.1987  0.3338
10833SOL     OW34505   2.949   1.202   9.993 -0.6488  0.1259 -0.2237
10833SOL    HW134506   2.917   1.283  10.033 -0.6725  0.7277 -1.4283
10833SOL    HW234507   3.044   1.215   9.987 -0.7784  0.6296 -1.5763
10834SOL     OW34508  10.754   5.767   1.956  0.0719 -0.4091 -0.0922
10834SOL    HW134509  10.815   5.732   2.021 -0.5550 -0.8136  0.2924
10834SOL    HW234510  10.692   5.696   1.941  0.5981 -0.5676 -1.6530
10835SOL     OW34511   3.830   8.457   7.420  0.3709 -0.0606  0.2719
10835SOL    HW134512   3.818   8.551   7.417  1.7233  0.1153 -0.5241
10835SOL    HW234513   3.809   8.433   7.511  0.9167  1.1444  0.7421
10836SOL     OW34514   2.995  10.623   5.964 -0.3649  0.0042  0.0464
10836SOL    HW134515   3.061  10.692   5.967  1.2843 -1.1097 -3.9982
10836SOL    HW234516   3.028  10.555   6.023 -0.6738  1.4628  2.0094
10837SOL     OW34517  10.586   6.407   0.201 -0.5666 -0.0732  0.5590
10837SOL    HW134518  10.638   6.480   0.236 -0.9394  0.1702  0.6133
10837SOL    HW234519  10.545   6.443   0.122  0.5706 -0.7311 -0.3656
10838SOL     OW34520   6.801   2.319   7.305  0.3043 -0.7552 -0.4729
10838SOL    HW134521   6.708   2.326   7.322  0.4181  0.2854 -0.2122
10838SOL    HW234522   6.835   2.407   7.321  1.0920 -0.7568 -2.0216
10839SOL     OW34523   0.135   6.476   1.527 -0.5816 -0.2229  0.1328
10839SOL    HW134524   0.143   6.381   1.519 -1.1886 -0.2412 -0.3718
10839SOL    HW234525   0.049   6.490   1.566 -1.9959  0.1763 -2.8194
10840SOL     OW34526   4.186   3.646   2.140  0.0783  0.4294  0.0501
10840SOL    HW134527   4.128   3.663   2.214 -1.0525  1.0879 -0.9383
10840SOL    HW234528   4.207   3.733   2.106 -0.0964  0.1253 -0.8809
10841SOL     OW34529   1.696   4.948   2.973 -0.7690 -0.4281  0.2281
10841SOL    HW134530   1.790   4.965   2.971 -0.8837  1.3655  3.2675
10841SOL    HW234531   1.656   5.032   2.950 -1.7631 -1.5542 -2.5774
10842SOL     OW34532   5.301   1.367   0.097  0.2740 -0.3386  0.4223
10842SOL    HW134533   5.228   1.367   0.036  0.8788 -2.4479 -0.3679
10842SOL    HW234534   5.375   1.403   0.047  0.5078 -1.0508  0.2520
10843SOL     OW34535   8.497   7.800  10.432 -0.0861 -0.1508  0.0585
10843SOL    HW134536   8.540   7.842  10.357 -0.4316 -0.5651 -0.3714
10843SOL    HW234537   8.455   7.873  10.479 -1.1416 -0.0661 -0.9866
10844SOL     OW34538   2.767   6.866   5.617 -0.1897  0.1607 -0.2140
10844SOL    HW134539   2.710   6.799   5.654  0.9757 -0.0574  1.2861
10844SOL    HW234540   2.740   6.948   5.660 -0.0757  0.2464 -0.3040
10845SOL     OW34541   6.140   3.994   5.003 -0.3688 -0.3970  0.4178
10845SOL    HW134542   6.214   4.053   4.990 -1.0379  0.9928  2.3962
10845SOL    HW234543   6.065   4.043   4.971 -0.6169 -1.2759 -0.3674
10846SOL     OW34544   6.142   9.371  10.111  1.3745  0.4593 -0.3932
10846SOL    HW134545   6.056   9.389  10.074  0.2247 -1.1882  1.2443
10846SOL    HW234546   6.162   9.282  10.082  2.0555  0.4635  0.0404
10847SOL     OW34547   8.080   6.393   4.783 -0.2365 -0.0586  0.6772
10847SOL    HW134548   8.038   6.474   4.754 -1.1014 -0.7281  0.0187
10847SOL    HW234549   8.167   6.396   4.744 -0.5366  0.2060  0.0129
10848SOL     OW34550   5.716   3.384   2.943 -0.2446 -0.0267  0.0160
10848SOL    HW134551   5.720   3.480   2.938 -1.3015  0.0712  0.7469
10848SOL    HW234552   5.695   3.356   2.854 -1.5865  0.5440  0.1202
10849SOL     OW34553   3.058   5.228   0.977 -0.1852  0.0987 -0.3199
10849SOL    HW134554   3.125   5.284   1.017  0.6662 -1.0674 -0.0489
10849SOL    HW234555   2.987   5.226   1.041 -0.7250  1.7525 -0.8263
10850SOL     OW34556   5.479   9.014   8.441 -0.5017 -0.1722  0.0778
10850SOL    HW134557   5.493   8.930   8.485 -1.0214  0.6706  1.9811
10850SOL    HW234558   5.566   9.042   8.413 -0.1848 -0.8694  0.3548
10851SOL     OW34559   4.938   1.360   6.127  0.3359  0.0008 -0.2885
10851SOL    HW134560   4.951   1.270   6.097 -0.0148  0.4220 -1.7748
10851SOL    HW234561   5.027   1.394   6.139  0.4740 -0.3966 -0.1584
10852SOL     OW34562   3.045   8.744   9.179 -0.5312 -0.8399  0.0125
10852SOL    HW134563   3.006   8.800   9.112 -0.9421 -0.9785  0.1267
10852SOL    HW234564   3.050   8.658   9.138 -0.3633 -0.8278  0.0084
10853SOL     OW34565   2.754   9.972   9.733 -0.1139 -0.0706  0.3182
10853SOL    HW134566   2.681   9.998   9.677 -1.3172  2.6385  2.9216
10853SOL    HW234567   2.831  10.006   9.687 -0.5944 -1.2157 -1.4642
10854SOL     OW34568   4.133   4.425   8.719 -0.2482  0.3906  0.0652
10854SOL    HW134569   4.201   4.462   8.775 -0.8978 -0.0230  1.1609
10854SOL    HW234570   4.120   4.336   8.752 -0.5052  0.0641 -0.8830
10855SOL     OW34571   6.192   1.627  10.986  0.0957  0.0747 -0.5595
10855SOL    HW134572   6.218   1.571  11.060  3.6709  0.2174 -1.5184
10855SOL    HW234573   6.225   1.714  11.008  0.0594  0.4090 -1.7349
10856SOL     OW34574   5.835   3.471  10.645  0.4635 -0.3266  0.1770
10856SOL    HW134575   5.881   3.519  10.714 -0.6432 -1.9529  2.1606
10856SOL    HW234576   5.851   3.522  10.566  3.6658  0.4540  1.1736
10857SOL     OW34577   8.700  10.953   3.340  0.2444 -0.0118  0.2671
10857SOL    HW134578   8.639  10.945   3.414  0.1463  1.7884  0.4225
10857SOL    HW234579   8.651  10.920   3.265  0.3496 -1.8834  0.9567
10858SOL     OW34580   3.913   7.392   1.945  0.5516  0.3807 -0.1013
10858SOL    HW134581   3.838   7.447   1.922  1.9434  1.4896 -2.4421
10858SOL    HW234582   3.976   7.453   1.984  0.9662 -0.1702  0.0985
10859SOL     OW34583   0.190   4.985   1.098 -0.2551  0.1422  1.0500
10859SOL    HW134584   0.202   4.995   1.193 -1.0671  2.1637  0.9946
10859SOL    HW234585   0.100   4.953   1.089  0.3717 -1.7169  0.9805
10860SOL     OW34586   9.506   8.438   1.418  0.8396  0.6223  0.2485
10860SOL    HW134587   9.530   8.507   1.480 -1.0413 -0.0659  1.8236
10860SOL    HW234588   9.588   8.392   1.400  1.3102  0.2655  2.9647
10861SOL     OW34589   4.806   1.494   7.390  0.4104 -0.5454  0.2425
10861SOL    HW134590   4.820   1.419   7.447 -0.2354 -0.4930  0.4832
10861SOL    HW234591   4.894   1.520   7.362  0.7242 -0.6888  1.0649
10862SOL     OW34592   9.267   8.032   4.785  0.3901 -0.1852  0.0523
10862SOL    HW134593   9.263   8.116   4.831 -1.7070 -0.2878  0.1472
10862SOL    HW234594   9.297   8.055   4.697  1.4729  0.4214  0.5616
10863SOL     OW34595   0.055   9.264  10.655 -0.1674 -0.5767  0.0148
10863SOL    HW134596   0.063   9.178  10.697  0.1450 -0.1519  0.8436
10863SOL    HW234597  -0.027   9.299  10.689  0.3619  0.0013  0.7133
10864SOL     OW34598   5.186   5.837   3.864  0.3560 -0.6574 -0.0857
10864SOL    HW134599   5.239   5.916   3.875  0.4789 -0.1902 -3.0779
10864SOL    HW234600   5.244   5.775   3.820 -0.5714 -1.3619 -0.3497
10865SOL     OW34601   3.085   4.064   4.547  0.0797 -0.5344 -0.3839
10865SOL    HW134602   3.150   4.106   4.490 -1.4318  0.8571 -1.1821
10865SOL    HW234603   3.003   4.110   4.527 -1.2943 -2.6302  0.1259
10866SOL     OW34604   0.212   0.711   8.771  0.6114  0.9373  0.5034
10866SOL    HW134605   0.258   0.755   8.842  1.2532 -1.7948  1.9237
10866SOL    HW234606   0.282   0.675   8.716  0.2922 -1.7049  1.6788
10867SOL     OW34607  10.371   4.668   7.871 -0.0633  0.4534  0.1821
10867SOL    HW134608  10.380   4.724   7.948 -1.0172  0.5004  0.2635
10867SOL    HW234609  10.461   4.647   7.847  0.2410  0.0174  1.6157
10868SOL     OW34610   4.173   2.839   8.068 -0.1613  0.3180  0.2780
10868SOL    HW134611   4.158   2.761   8.120 -1.7339  0.8289  0.6536
10868SOL    HW234612   4.185   2.909   8.132  1.0632  0.4249 -0.0526
10869SOL     OW34613   5.284   4.574   9.514 -0.0850  0.2542 -0.0594
10869SOL    HW134614   5.361   4.596   9.460  1.1880  0.0115  1.5801
10869SOL    HW234615   5.315   4.583   9.604 -2.0850  0.3928  0.6559
10870SOL     OW34616   4.742   1.695   4.022 -0.3207 -0.0922 -0.2037
10870SOL    HW134617   4.800   1.653   4.086 -0.8555  1.1124  1.1338
10870SOL    HW234618   4.688   1.624   3.988  0.6275 -0.9119 -0.0307
10871SOL     OW34619   9.546   4.928  10.246 -0.2966 -0.1777 -0.2381
10871SOL    HW134620   9.466   4.973  10.216 -0.6327 -1.2280 -0.9900
10871SOL    HW234621   9.617   4.983  10.214 -0.6976  0.9619  0.7461
10872SOL     OW34622  10.422   1.644   3.663  0.1324  0.6079  0.5873
10872SOL    HW134623  10.356   1.701   3.702  0.1650  0.8252  0.3307
10872SOL    HW234624  10.430   1.571   3.724 -0.9918  0.1275  0.1825
10873SOL     OW34625   9.904   7.131  10.417  0.1334  0.1395 -0.1198
10873SOL    HW134626   9.904   7.067  10.346 -0.6228 -0.5475  0.4826
10873SOL    HW234627   9.820   7.120  10.460  0.6156  0.4642  0.9498
10874SOL     OW34628   4.014  10.485  10.292  0.2696 -0.0636  0.2269
10874SOL    HW134629   3.987  10.399  10.261 -0.3168 -0.0734  0.7424
10874SOL    HW234630   4.095  10.468  10.341 -0.1228 -0.4021  0.7678
10875SOL     OW34631   3.976   1.868   9.373  0.3543 -0.0351 -0.2193
10875SOL    HW134632   4.053   1.818   9.403 -1.2411 -0.9414  2.7875
10875SOL    HW234633   3.913   1.858   9.444 -1.2541  3.6879 -0.9275
10876SOL     OW34634   6.398   5.956   6.577 -0.4976  0.1698  0.1246
10876SOL    HW134635   6.417   6.049   6.566 -0.8415  0.8523  3.7652
10876SOL    HW234636   6.320   5.955   6.634 -0.2720 -2.3212  0.4735
10877SOL     OW34637   9.983   9.636   6.068 -0.7062  0.0284  0.3543
10877SOL    HW134638  10.015   9.606   5.983 -0.4018 -0.4868  0.6452
10877SOL    HW234639   9.982   9.732   6.062  1.0110  0.0636  0.3767
10878SOL     OW34640   7.240   7.730   6.235  0.5592 -0.4666  0.3557
10878SOL    HW134641   7.178   7.709   6.305 -0.2833 -1.1404 -0.5698
10878SOL    HW234642   7.324   7.737   6.279  0.3475 -2.6217  1.2149
10879SOL     OW34643   4.865   7.305   1.001  0.5887  0.5025  0.9188
10879SOL    HW134644   4.813   7.365   1.054 -0.5729 -0.4798  0.9374
10879SOL    HW234645   4.932   7.361   0.960  0.3960  1.5617  1.9884
10880SOL     OW34646   5.554   5.776   4.975 -0.1428  0.0860 -0.1223
10880SOL    HW134647   5.543   5.776   4.880 -0.2145  0.1425 -0.1140
10880SOL    HW234648   5.464   5.772   5.009 -0.0931 -1.2125 -0.0646
10881SOL     OW34649   0.349   3.939  10.496  0.2996 -0.3147  0.6676
10881SOL    HW134650   0.352   4.010  10.560  0.5710 -0.6310  1.0149
10881SOL    HW234651   0.259   3.939  10.463  0.7651  1.4089 -0.7487
10882SOL     OW34652   2.812   6.581   8.851 -0.1810 -0.3587 -0.0601
10882SOL    HW134653   2.832   6.546   8.764  0.8128 -0.1298  0.0632
10882SOL    HW234654   2.858   6.665   8.854  0.1989 -0.5914  0.8693
10883SOL     OW34655   7.720   3.204   4.244  0.0840  0.3451 -0.0689
10883SOL    HW134656   7.765   3.119   4.247 -2.0498 -0.8428 -0.2956
10883SOL    HW234657   7.697   3.216   4.152 -1.3147  0.2255  0.2518
10884SOL     OW34658   1.512   4.287   0.394 -0.2477 -0.5009 -0.2854
10884SOL    HW134659   1.553   4.293   0.480  1.1305  0.2147 -0.9694
10884SOL    HW234660   1.559   4.351   0.340  0.7541 -2.8098 -2.3113
10885SOL     OW34661   8.179   6.874  10.872 -0.5000 -0.1032  0.4509
10885SOL    HW134662   8.154   6.965  10.856 -0.6325 -0.4112 -1.3991
10885SOL    HW234663   8.274   6.874  10.861 -0.5488 -0.2570  0.0153
10886SOL     OW34664  10.305   6.549   1.794 -0.0367 -0.0080  0.3919
10886SOL    HW134665  10.387   6.519   1.835 -0.3609  0.2838  1.2827
10886SOL    HW234666  10.332   6.625   1.742  0.4533 -0.6388 -0.3012
10887SOL     OW34667   9.308   5.667   9.244  0.3040  0.1581 -0.1873
10887SOL    HW134668   9.236   5.649   9.304  1.1031 -2.2067  0.1580
10887SOL    HW234669   9.382   5.617   9.279  1.5452  0.8657 -1.6747
10888SOL     OW34670   4.300   9.781   8.489 -0.2842 -0.0874  0.3800
10888SOL    HW134671   4.309   9.808   8.398 -0.7145 -2.5794 -0.4789
10888SOL    HW234672   4.208   9.800   8.511 -1.5146 -3.3746 -1.2302
10889SOL     OW34673   5.088   4.274   2.861 -0.0102  0.5727  0.1187
10889SOL    HW134674   5.104   4.252   2.952  0.9272 -0.7515 -0.3388
10889SOL    HW234675   5.012   4.221   2.836 -0.1082  0.7409  0.0589
10890SOL     OW34676   2.307   9.851   6.654  0.7688  0.0070  0.4875
10890SOL    HW134677   2.221   9.821   6.683 -0.8563  1.8596 -1.9856
10890SOL    HW234678   2.353   9.772   6.628 -1.0487 -0.8902 -0.1664
10891SOL     OW34679   3.184   7.557  10.868 -0.0982  1.1257 -0.2245
10891SOL    HW134680   3.111   7.503  10.838  0.1642  0.1342  0.8473
10891SOL    HW234681   3.142   7.626  10.920 -0.2760  0.2772  0.8031
10892SOL     OW34682   4.972   4.527   7.771 -0.2565 -0.3386 -0.1643
10892SOL    HW134683   5.061   4.517   7.802  0.0613  1.4004 -0.3917
10892SOL    HW234684   4.959   4.455   7.710  1.2754 -0.1804 -0.7221
10893SOL     OW34685   7.834   3.706  11.026 -0.5809 -0.0425 -0.8514
10893SOL    HW134686   7.910   3.723  10.971  0.9478  0.5917  1.3613
10893SOL    HW234687   7.856   3.744  11.111 -1.6968 -3.2698  1.0439
10894SOL     OW34688   1.169  10.929   9.424  0.1742  0.0069 -0.5974
10894SOL    HW134689   1.211  10.989   9.485 -1.1085 -0.7322  1.1063
10894SOL    HW234690   1.112  10.985   9.371  0.9782  0.6045 -0.8500
10895SOL     OW34691   5.446  10.193   0.677  0.6923 -0.0938 -0.0626
10895SOL    HW134692   5.431  10.121   0.737 -0.7099  2.1416  2.4931
10895SOL    HW234693   5.480  10.264   0.732 -0.4232  2.0079 -1.8967
10896SOL     OW34694   1.928   9.017   9.027 -0.0257  0.6857  0.4039
10896SOL    HW134695   1.956   8.939   9.075  2.5283  0.9814 -0.4245
10896SOL    HW234696   1.955   9.091   9.083 -2.3079  1.0532  1.1263
10897SOL     OW34697   2.500   4.523   6.352  0.0593  0.4000  0.5939
10897SOL    HW134698   2.581   4.557   6.391  0.3510 -0.2468  0.5636
10897SOL    HW234699   2.494   4.567   6.267  0.9558 -0.3353  0.1284
10898SOL     OW34700   2.460   6.602   5.178 -0.0340  0.2751 -0.4606
10898SOL    HW134701   2.468   6.677   5.119  1.9409  0.8687  0.4723
10898SOL    HW234702   2.448   6.641   5.265  2.2507 -0.3667  0.2293
10899SOL     OW34703   1.170   6.829   7.184 -0.4554 -0.2050 -0.3669
10899SOL    HW134704   1.192   6.811   7.275 -0.6261 -0.3050 -0.3461
10899SOL    HW234705   1.143   6.920   7.183 -1.2184 -0.4273 -0.1795
10900SOL     OW34706  10.865   7.250   2.422 -0.5616 -0.2702 -0.3960
10900SOL    HW134707  10.904   7.183   2.365 -0.1407  0.3018 -0.7855
10900SOL    HW234708  10.773   7.254   2.394 -0.1051  0.8492 -1.8933
10901SOL     OW34709   9.449   7.878   2.315 -0.6154 -0.3921 -0.3616
10901SOL    HW134710   9.539   7.904   2.294 -0.2890 -2.1401 -1.3361
10901SOL    HW234711   9.456   7.785   2.336 -2.2061 -0.5600 -0.4987
10902SOL     OW34712   0.022   9.596  10.079  0.5365  0.0037  0.4402
10902SOL    HW134713  -0.045   9.663  10.094 -1.1002 -1.8486  1.9575
10902SOL    HW234714   0.089   9.612  10.145  1.8363  2.0163 -1.2373
10903SOL     OW34715   3.763   7.292   6.624 -0.5518  0.0335  0.7882
10903SOL    HW134716   3.824   7.255   6.560 -1.0977 -1.6474  1.1964
10903SOL    HW234717   3.819   7.323   6.695 -0.0488  0.3552  0.2579
10904SOL     OW34718   6.565   9.962   0.820  0.4374  0.2719  0.2119
10904SOL    HW134719   6.654   9.932   0.804  0.5330  0.5719  0.1734
10904SOL    HW234720   6.543   9.928   0.906  1.4913  2.2614  1.3424
10905SOL     OW34721   0.687  10.326   9.030  0.1089 -0.1448  0.1410
10905SOL    HW134722   0.693  10.288   9.118 -1.6328 -2.7776 -0.7581
10905SOL    HW234723   0.621  10.395   9.039 -0.2892 -0.6023  0.8611
10906SOL     OW34724   9.331   6.496   7.801 -0.0310 -0.2533 -0.4658
10906SOL    HW134725   9.394   6.433   7.835 -0.4134 -0.7075 -0.5945
10906SOL    HW234726   9.382   6.552   7.742  0.9420  1.3327  1.7351
10907SOL     OW34727  10.305  10.225   7.321 -0.3800 -0.1412  0.4329
10907SOL    HW134728  10.370  10.296   7.321 -1.9770  1.3897  1.0927
10907SOL    HW234729  10.355  10.147   7.295  2.0239  0.6545  2.2665
10908SOL     OW34730   5.149   2.711   6.629 -0.3718  0.2779 -0.1176
10908SOL    HW134731   5.149   2.658   6.549 -1.1967 -0.5154  0.3809
10908SOL    HW234732   5.231   2.760   6.626  0.3181 -0.8806 -0.6974
10909SOL     OW34733   5.816   0.155   7.745  0.1480 -0.3992  0.4515
10909SOL    HW134734   5.816   0.068   7.703  0.0858 -0.1578 -0.0591
10909SOL    HW234735   5.789   0.138   7.835 -0.7724 -0.8035  0.1143
10910SOL     OW34736   8.194   2.165   7.114 -0.4018  0.7126  0.6091
10910SOL    HW134737   8.171   2.113   7.191  0.3872 -3.4355 -1.6249
10910SOL    HW234738   8.125   2.143   7.050 -0.2092  2.8101 -0.3853
10911SOL     OW34739   7.124   7.981   7.186 -0.1286 -0.0071  0.3830
10911SOL    HW134740   7.125   8.061   7.238  1.3872 -0.0343  0.4359
10911SOL    HW234741   7.158   7.914   7.245 -3.1017 -1.1770  0.9905
10912SOL     OW34742   8.066  10.556   4.725 -0.1044 -0.5182 -0.4081
10912SOL    HW134743   8.094  10.633   4.676 -1.0350  0.0985  0.0069
10912SOL    HW234744   8.144  10.529   4.774  0.4141 -0.2594 -1.0761
10913SOL     OW34745   9.649   1.212   6.154 -0.1683 -0.2755 -0.2471
10913SOL    HW134746   9.600   1.186   6.231 -1.4439 -0.2367 -1.0171
10913SOL    HW234747   9.594   1.279   6.112  0.4943 -0.2899 -1.1788
10914SOL     OW34748   0.265   0.051   0.903  0.1096  0.5401  0.1029
10914SOL    HW134749   0.193   0.081   0.959  0.3593  0.3688  0.5257
10914SOL    HW234750   0.222   0.019   0.824 -0.3936 -0.8068  0.8938
10915SOL     OW34751   8.343   0.876   4.157  0.1433 -0.5463 -0.7798
10915SOL    HW134752   8.323   0.788   4.188 -1.5028  0.5674  1.6213
10915SOL    HW234753   8.261   0.908   4.119  0.2006  0.5003 -0.0820
10916SOL     OW34754   2.923   8.490   4.226  0.3448  0.2198  0.1632
10916SOL    HW134755   2.846   8.547   4.228  0.7038  0.6943  1.7857
10916SOL    HW234756   2.945   8.476   4.318  0.0538 -2.8748 -0.1242
10917SOL     OW34757   8.931   1.768  11.091  0.0706 -0.8218 -0.4861
10917SOL    HW134758   8.838   1.752  11.103 -0.0802 -0.5923 -1.2889
10917SOL    HW234759   8.940   1.791  10.999  0.3722  2.6624  0.2669
10918SOL     OW34760   8.607   9.003   6.327  0.5564 -0.1382  0.3757
10918SOL    HW134761   8.649   9.086   6.304  1.2868 -0.3771  0.8211
10918SOL    HW234762   8.666   8.936   6.293  0.0091 -0.4871  0.0900
10919SOL     OW34763   3.984   3.623   6.324 -0.6095 -0.0843  0.0586
10919SOL    HW134764   4.015   3.677   6.251  0.9922  1.3547  1.7225
10919SOL    HW234765   3.898   3.659   6.345 -2.2025 -2.0047 -2.4901
10920SOL     OW34766   1.426   5.245   4.720 -0.0939  0.1150 -0.2594
10920SOL    HW134767   1.438   5.185   4.647  1.1240  0.3263 -0.2491
10920SOL    HW234768   1.449   5.194   4.798 -0.8141  0.0671 -0.0695
10921SOL     OW34769   5.706   0.831   0.689 -0.3657 -0.1323  0.1337
10921SOL    HW134770   5.615   0.855   0.708 -1.0441 -2.8987  0.7295
10921SOL    HW234771   5.733   0.776   0.763  1.8639  0.6896  0.0192
10922SOL     OW34772   1.818   9.893   6.776  0.5477 -1.1744  0.0919
10922SOL    HW134773   1.904   9.907   6.737  0.4978  1.4286  0.7474
10922SOL    HW234774   1.823   9.937   6.861 -1.9348  0.6685 -0.6011
10923SOL     OW34775   9.471   6.258   5.308  0.0287  0.5053 -0.3094
10923SOL    HW134776   9.564   6.268   5.287  0.2613  2.8798  1.4545
10923SOL    HW234777   9.428   6.330   5.261 -1.0089 -0.7375 -1.3393
10924SOL     OW34778   0.628   2.294   0.545  0.6490 -0.1920 -0.0634
10924SOL    HW134779   0.687   2.220   0.561 -0.6983 -1.9016 -2.3935
10924SOL    HW234780   0.541   2.260   0.567  0.1262  1.1055 -0.0430
10925SOL     OW34781   3.367   0.076  10.813  0.2075  0.0706  0.0876
10925SOL    HW134782   3.294   0.014  10.810 -0.3080  0.6672 -2.1814
10925SOL    HW234783   3.434   0.038  10.755  2.1134 -0.8407  2.7019
10926SOL     OW34784   6.089   7.595   4.113  0.0740  0.6494  0.1493
10926SOL    HW134785   6.067   7.514   4.158 -0.5613 -0.5826 -2.2006
10926SOL    HW234786   6.181   7.583   4.086  0.0968  0.8775  0.1227
10927SOL     OW34787   1.901  10.120   2.205  0.7959  0.7609  0.7512
10927SOL    HW134788   1.980  10.080   2.241  0.6758 -1.2168 -1.0199
10927SOL    HW234789   1.864  10.053   2.148 -1.5928  2.0398  0.6853
10928SOL     OW34790   4.878   4.130   0.802  0.5626  0.1764  0.1675
10928SOL    HW134791   4.875   4.210   0.855 -1.8794  1.8598 -2.2416
10928SOL    HW234792   4.938   4.151   0.730  0.1440 -0.2651 -0.3161
10929SOL     OW34793   7.363   7.562   4.145 -0.1332 -0.3673 -0.7269
10929SOL    HW134794   7.307   7.569   4.068  0.2385 -0.1683 -0.9836
10929SOL    HW234795   7.392   7.652   4.161  2.7254 -0.8377 -2.5626
10930SOL     OW34796   7.613   0.145   0.364  0.3666 -0.1210 -0.0184
10930SOL    HW134797   7.667   0.098   0.299  1.0102 -1.0020  1.1160
10930SOL    HW234798   7.673   0.210   0.401 -0.2088  0.8766 -0.7913
10931SOL     OW34799   6.167   4.249   8.362 -0.6028  0.3402 -0.4602
10931SOL    HW134800   6.094   4.252   8.299  1.1478 -0.4505 -2.6647
10931SOL    HW234801   6.217   4.329   8.344 -0.2730  0.2863  0.1886
10932SOL     OW34802   7.377   5.478   9.434 -0.0804 -0.8245 -0.0947
10932SOL    HW134803   7.428   5.522   9.503 -0.5371 -0.9126  0.3079
10932SOL    HW234804   7.433   5.407   9.404  0.9987  0.5013 -1.3117
10933SOL     OW34805   7.432   0.606   1.001 -0.2966 -0.2644 -0.0181
10933SOL    HW134806   7.523   0.628   1.018 -0.2486  0.0812 -0.6974
10933SOL    HW234807   7.408   0.660   0.926 -0.6412 -1.3935 -0.7394
10934SOL     OW34808  10.124   5.134   7.467  0.4362 -0.1421  0.4690
10934SOL    HW134809  10.113   5.060   7.527 -1.5735 -0.7603 -0.5949
10934SOL    HW234810  10.188   5.191   7.511 -0.8522 -0.6168  3.1301
10935SOL     OW34811   0.749   6.011   7.900 -0.5167  0.1807  0.4297
10935SOL    HW134812   0.727   6.099   7.869 -0.6043 -0.0315 -0.1160
10935SOL    HW234813   0.772   6.023   7.992  1.0604  1.0378 -0.0498
10936SOL     OW34814   1.029   8.791   2.622  0.0839  0.2921 -0.4820
10936SOL    HW134815   1.053   8.704   2.654 -1.1795  0.5123  1.1790
10936SOL    HW234816   1.104   8.846   2.642 -0.5639  0.3751  2.0631
10937SOL     OW34817   8.742   4.105  10.969  0.0964 -0.2537 -0.8642
10937SOL    HW134818   8.831   4.111  11.002 -0.2520  0.9201 -0.0887
10937SOL    HW234819   8.749   4.047  10.893  0.9435 -2.9010  1.0876
10938SOL     OW34820   1.853   1.947   1.905  0.6495 -0.5430  0.8508
10938SOL    HW134821   1.929   1.926   1.959  1.9284 -0.7751 -0.9461
10938SOL    HW234822   1.879   1.921   1.817 -1.7632 -1.1885  0.2648
10939SOL     OW34823   7.977  10.718   9.318 -0.1741  0.0779 -1.1534
10939SOL    HW134824   7.886  10.743   9.336 -0.0073 -1.0585  1.8552
10939SOL    HW234825   8.029  10.781   9.366  0.4320 -1.5983  0.5388
10940SOL     OW34826   0.206   0.685   1.442 -0.0366 -0.3594  0.8335
10940SOL    HW134827   0.282   0.671   1.498  1.2051 -1.6474 -1.0340
10940SOL    HW234828   0.165   0.599   1.435 -2.4825  0.5500  2.7968
10941SOL     OW34829   4.808   2.419   7.403 -0.0634 -1.0073  0.5768
10941SOL    HW134830   4.808   2.512   7.422 -0.4776 -0.7763 -0.4708
10941SOL    HW234831   4.887   2.404   7.350 -0.9689 -0.8616 -0.8874
10942SOL     OW34832   5.881   2.638   9.062  0.3268 -0.3312  0.1120
10942SOL    HW134833   5.796   2.596   9.078 -0.9433  1.5967 -1.0141
10942SOL    HW234834   5.939   2.567   9.034 -1.4275 -1.4648 -0.8432
10943SOL     OW34835   5.558   4.529   1.983  0.9714 -0.2881 -0.2216
10943SOL    HW134836   5.576   4.436   1.968  1.8563 -0.3295  0.9436
10943SOL    HW234837   5.464   4.537   1.972  0.7447 -1.5340  0.6107
10944SOL     OW34838   3.001   1.580   4.040  0.2876  0.1985 -0.0661
10944SOL    HW134839   2.909   1.593   4.018 -0.2967  0.4250  2.1975
10944SOL    HW234840   3.041   1.547   3.960 -1.8998 -0.5186 -0.9303
10945SOL     OW34841   5.825   0.576   9.462 -0.0259  0.1638  0.1768
10945SOL    HW134842   5.887   0.649   9.460  1.4241 -1.0085  0.6529
10945SOL    HW234843   5.855   0.520   9.534  0.0106 -1.8231 -1.3011
10946SOL     OW34844   7.004   0.252   4.719  0.0770  0.0040 -0.0517
10946SOL    HW134845   7.048   0.245   4.804 -0.7071  0.9302  0.4306
10946SOL    HW234846   7.039   0.332   4.680 -1.3565  0.9025  0.4526
10947SOL     OW34847  10.116   5.845   0.915  0.6620 -0.0258  0.1602
10947SOL    HW134848  10.132   5.823   0.823 -2.4592 -1.3901 -0.1702
10947SOL    HW234849  10.203   5.851   0.954  2.0303 -0.7704 -2.5655
10948SOL     OW34850   6.602   7.579   8.486  0.3511 -0.8570  0.2598
10948SOL    HW134851   6.532   7.514   8.472  0.1695 -0.3040 -1.5978
10948SOL    HW234852   6.682   7.528   8.487  0.0684 -1.3050  0.6552
10949SOL     OW34853   4.274   6.395  10.606 -0.3368  0.1928  0.3366
10949SOL    HW134854   4.253   6.484  10.580  0.0464  0.3745  0.6333
10949SOL    HW234855   4.313   6.404  10.693 -0.3224 -0.2636  0.3794
10950SOL     OW34856   8.806   6.259   7.136  0.0548 -0.0541  0.3547
10950SOL    HW134857   8.752   6.331   7.102  1.8006  0.7575 -0.8551
10950SOL    HW234858   8.807   6.273   7.231 -0.1135  1.1861  0.1918
10951SOL     OW34859   5.529   7.811   0.960  0.3003 -0.2737 -0.3359
10951SOL    HW134860   5.519   7.785   0.869 -1.0200  1.8300 -0.8762
10951SOL    HW234861   5.547   7.730   1.007 -0.3989 -1.6138 -2.2596
10952SOL     OW34862   1.734   1.439   0.343 -0.3455 -0.4322  0.4201
10952SOL    HW134863   1.777   1.398   0.268  0.4771 -0.5767  0.9446
10952SOL    HW234864   1.642   1.442   0.320  0.1093  1.2990 -1.4047
10953SOL     OW34865   4.737   8.541   3.544  0.0078 -0.0133  0.1831
10953SOL    HW134866   4.658   8.547   3.598 -0.9133 -1.9697 -0.8453
10953SOL    HW234867   4.808   8.566   3.603 -0.9993 -1.6104  2.1984
10954SOL     OW34868   5.561   1.676   3.491 -0.6111  1.0356  0.1245
10954SOL    HW134869   5.585   1.602   3.435  2.8998  0.5151  2.0056
10954SOL    HW234870   5.581   1.754   3.438  0.2607  0.5696 -0.2559
10955SOL     OW34871   6.133   3.999   3.393 -0.2854  0.2176  0.8355
10955SOL    HW134872   6.112   3.979   3.484  0.2511  2.2828  1.4601
10955SOL    HW234873   6.214   3.951   3.376 -0.0211  0.3529  1.6556
10956SOL     OW34874   9.040  10.229   9.721 -0.2873 -0.7293 -0.2841
10956SOL    HW134875   8.959  10.206   9.674 -0.7376  1.6158 -0.7910
10956SOL    HW234876   9.009  10.264   9.805  0.1824  0.2458 -0.5118
10957SOL     OW34877   2.516   6.651   9.617 -0.5441 -0.7673  0.2927
10957SOL    HW134878   2.429   6.683   9.595 -0.4013 -0.2074  0.5308
10957SOL    HW234879   2.503   6.559   9.642 -1.0605 -0.6771  0.3498
10958SOL     OW34880   2.791   6.560   0.287 -0.6445  0.1041 -0.2874
10958SOL    HW134881   2.708   6.572   0.240 -0.3939  0.7890 -0.5649
10958SOL    HW234882   2.803   6.465   0.290 -2.1645 -0.0856  1.0406
10959SOL     OW34883   0.396   4.044   8.337  0.5372  0.1015  0.2046
10959SOL    HW134884   0.373   3.965   8.288 -0.7911  0.5093  0.1491
10959SOL    HW234885   0.417   4.012   8.425 -0.6382 -0.2645  0.3671
10960SOL     OW34886   3.829   8.565   9.555 -0.2232  0.1648  0.4463
10960SOL    HW134887   3.817   8.499   9.487  0.8974 -0.8266  1.1818
10960SOL    HW234888   3.757   8.627   9.541  0.5354  0.5475 -2.2684
10961SOL     OW34889   2.249   0.348   0.211 -0.1983  0.2385  0.1031
10961SOL    HW134890   2.337   0.372   0.240 -1.1510  2.5098  1.3722
10961SOL    HW234891   2.258   0.336   0.116  1.5583 -0.0990  0.2703
10962SOL     OW34892   4.263   2.087   9.522  0.1718  0.2731  0.3439
10962SOL    HW134893   4.246   2.003   9.479  0.7846  0.1630  0.2972
10962SOL    HW234894   4.359   2.091   9.529  0.4797  2.4207 -2.7045
10963SOL     OW34895   2.363   7.058   4.281 -0.1198  0.3356 -0.0303
10963SOL    HW134896   2.275   7.095   4.271  0.0268  0.6302 -0.2645
10963SOL    HW234897   2.366   6.987   4.217  0.1532  0.9779 -0.7518
10964SOL     OW34898   4.316   4.142  10.912  0.5419  0.6749  0.2131
10964SOL    HW134899   4.379   4.212  10.927 -1.1338  2.1278  0.9474
10964SOL    HW234900   4.286   4.118  11.000 -0.2266  0.3097 -0.1383
10965SOL     OW34901  11.069   8.177   0.815 -0.3805 -0.3877  0.4977
10965SOL    HW134902  11.062   8.241   0.886  0.3605 -2.0336  2.1393
10965SOL    HW234903  11.031   8.097   0.851  0.4850 -1.4160 -0.7795
10966SOL     OW34904  10.777   2.451   3.773  0.5100  0.1199 -0.7242
10966SOL    HW134905  10.710   2.506   3.812  2.0536  0.5207  1.5909
10966SOL    HW234906  10.834   2.511   3.727  2.8160  0.8700  2.7024
10967SOL     OW34907   8.795   8.683   2.801 -0.4706  0.4221 -1.5382
10967SOL    HW134908   8.822   8.755   2.859  0.8701  0.1809 -1.8425
10967SOL    HW234909   8.723   8.720   2.749  0.6672  1.8001 -2.1969
10968SOL     OW34910   7.323   8.040   9.116 -0.0693 -0.3853 -0.1803
10968SOL    HW134911   7.336   8.094   9.194  0.2831 -1.5376  0.5881
10968SOL    HW234912   7.229   8.022   9.115  0.1100 -1.5665  0.8454
10969SOL     OW34913   4.434   4.237   2.456 -0.2847 -0.8786  0.4768
10969SOL    HW134914   4.522   4.247   2.419  1.0462 -0.2081  3.4763
10969SOL    HW234915   4.415   4.322   2.496 -1.5283 -1.5414  1.3670
10970SOL     OW34916   7.804   2.853   0.339 -0.1205  0.0594  0.1007
10970SOL    HW134917   7.735   2.832   0.275 -0.4252 -0.6178  0.6300
10970SOL    HW234918   7.837   2.938   0.312 -0.6280  0.0347 -0.6333
10971SOL     OW34919  10.554   6.960  10.545  0.4243 -0.5220  0.2711
10971SOL    HW134920  10.488   7.001  10.600  0.7169  1.0045 -0.4799
10971SOL    HW234921  10.509   6.886  10.504 -2.4955  3.1106 -3.9712
10972SOL     OW34922   3.910   1.264   4.173  0.4381 -0.2575 -0.3667
10972SOL    HW134923   3.921   1.359   4.161  0.7119 -0.1940  0.3053
10972SOL    HW234924   3.923   1.227   4.086  0.3501  0.3236 -0.6338
10973SOL     OW34925   9.973   6.176   7.747  0.3423  0.1325 -0.2170
10973SOL    HW134926   9.884   6.209   7.735  0.0767 -0.3860  0.3092
10973SOL    HW234927  10.029   6.246   7.713 -0.0456  2.4283  3.3400
10974SOL     OW34928   8.603   6.599   1.375 -0.0939  0.4949  0.3005
10974SOL    HW134929   8.681   6.568   1.330 -0.2003  0.8337 -0.1168
10974SOL    HW234930   8.628   6.601   1.468  0.1902 -0.0011  0.2386
10975SOL     OW34931  10.505   7.623   4.513 -0.0487  0.0831 -0.6148
10975SOL    HW134932  10.475   7.636   4.422  0.5431  1.9985 -0.5793
10975SOL    HW234933  10.445   7.676   4.565  1.1549  1.0753 -0.1829
10976SOL     OW34934   6.074   6.322   7.529  0.7445  0.2149  0.8459
10976SOL    HW134935   5.986   6.288   7.510  0.9408 -0.0108  0.2946
10976SOL    HW234936   6.120   6.248   7.568  1.3501 -0.3915 -0.8830
10977SOL     OW34937   9.622   9.446   3.596  0.2397 -0.1717 -0.0094
10977SOL    HW134938   9.608   9.363   3.642 -0.4863  0.8950  1.8315
10977SOL    HW234939   9.536   9.468   3.560  0.2521  0.1265  0.1377
10978SOL     OW34940   4.029   4.792   7.531 -0.1541  0.0260 -0.2537
10978SOL    HW134941   4.109   4.773   7.580  1.5235  1.8953 -2.0462
10978SOL    HW234942   3.959   4.750   7.581  1.6544  0.1014  2.5587
10979SOL     OW34943   1.267   3.347   6.350 -1.0663 -0.2551 -0.1523
10979SOL    HW134944   1.190   3.337   6.406 -0.8945 -0.5844  0.0331
10979SOL    HW234945   1.255   3.431   6.307 -0.7942  0.4082  1.0143
10980SOL     OW34946   2.686   0.055   9.934  0.6722  0.1858 -0.6162
10980SOL    HW134947   2.648  -0.016   9.984  0.2603  1.3880  0.8486
10980SOL    HW234948   2.644   0.050   9.848  0.2348 -0.9672 -0.3472
10981SOL     OW34949   1.435   6.791   0.833 -0.4921  0.4745 -0.0066
10981SOL    HW134950   1.417   6.743   0.753 -1.1351 -0.3950  0.6417
10981SOL    HW234951   1.349   6.804   0.873 -0.0858 -0.1561  1.1313
10982SOL     OW34952   6.841  11.048  10.565 -0.3860 -0.2268  0.3508
10982SOL    HW134953   6.907  10.981  10.584 -1.1074 -1.1172 -0.2258
10982SOL    HW234954   6.814  11.080  10.652  0.2146 -0.4267  0.6181
10983SOL     OW34955   5.049   8.107   1.100  0.2796 -0.0657  0.7497
10983SOL    HW134956   5.139   8.137   1.085  0.5978  0.1712  2.9036
10983SOL    HW234957   5.001   8.137   1.023  1.8248  0.7349  0.0575
10984SOL     OW34958   0.965   9.266   6.418  0.1333  0.7078  0.3218
10984SOL    HW134959   0.930   9.255   6.506 -1.7833 -0.5231 -0.5228
10984SOL    HW234960   1.057   9.242   6.425 -0.6001 -2.1256  1.4781
10985SOL     OW34961   7.743   2.035   0.293  0.4301  1.2729 -0.4467
10985SOL    HW134962   7.727   2.119   0.336 -1.6428  0.7468 -0.1045
10985SOL    HW234963   7.737   2.056   0.199  0.4294  1.5941 -0.3779
10986SOL     OW34964   3.326  10.366   0.150  0.3261  0.5695 -0.7387
10986SOL    HW134965   3.365  10.400   0.230 -0.3035  0.6587 -0.4597
10986SOL    HW234966   3.365  10.279   0.139  0.8349  0.7854 -0.6464
10987SOL     OW34967  10.939   2.670   1.665  0.5659 -0.5646 -0.5650
10987SOL    HW134968  10.887   2.736   1.710  0.4765  0.1629 -1.6934
10987SOL    HW234969  10.995   2.721   1.605 -0.1360 -1.5262 -2.1120
10988SOL     OW34970   2.222   4.951   3.171  0.6291  0.1987  0.7282
10988SOL    HW134971   2.299   5.009   3.172 -0.4399  1.6930  0.5005
10988SOL    HW234972   2.237   4.890   3.243  1.4537  1.2593  1.4986
10989SOL     OW34973   6.447  10.489   6.705 -0.2304 -0.0556 -0.1108
10989SOL    HW134974   6.439  10.526   6.793  3.3264 -1.0705  0.8264
10989SOL    HW234975   6.367  10.516   6.660 -0.2780  4.3276  2.0329
10990SOL     OW34976   8.131   7.465   6.149  0.2165  0.3195 -0.3378
10990SOL    HW134977   8.143   7.441   6.057 -0.9425  2.8943 -1.2662
10990SOL    HW234978   8.108   7.383   6.193  0.0541 -0.8443 -2.4896
10991SOL     OW34979   0.875   9.308   1.369  0.1734  0.3930  0.0024
10991SOL    HW134980   0.833   9.330   1.452 -3.9320 -0.5056 -1.5992
10991SOL    HW234981   0.938   9.239   1.391  0.5131  1.4247  2.5453
10992SOL     OW34982   9.124  10.660   9.012 -0.3716  0.2493  0.0819
10992SOL    HW134983   9.181  10.615   9.075  0.6305  1.8291  0.3454
10992SOL    HW234984   9.182  10.721   8.967 -1.8671  1.9579  0.3864
10993SOL     OW34985   6.669   6.537   2.747  0.6922 -0.6662 -0.0788
10993SOL    HW134986   6.622   6.619   2.758  0.8782 -0.6114  0.3505
10993SOL    HW234987   6.712   6.544   2.662  1.8153  0.2475  0.5474
10994SOL     OW34988   4.386   1.959   1.020  0.9006  0.6932 -0.5258
10994SOL    HW134989   4.394   1.913   1.104  0.0403  1.5168  0.0181
10994SOL    HW234990   4.335   1.899   0.965 -0.1589  0.9473  0.1587
10995SOL     OW34991   5.586   1.950  10.828  0.1475 -0.3594  0.5171
10995SOL    HW134992   5.563   1.902  10.748  2.7057 -0.0112 -0.5338
10995SOL    HW234993   5.530   2.027  10.825 -1.7002 -1.6242  0.5192
10996SOL     OW34994   0.884   8.526   1.064 -0.7529  0.8866  0.2152
10996SOL    HW134995   0.872   8.535   0.969  1.3591  0.0056 -0.1833
10996SOL    HW234996   0.929   8.607   1.090  0.3757  0.3043  0.1135
10997SOL     OW34997   1.118   2.882   3.176 -0.1794  0.0523 -0.1996
10997SOL    HW134998   1.163   2.809   3.134  1.6846  0.0896  1.6221
10997SOL    HW234999   1.134   2.956   3.117 -1.2107 -0.7192 -1.5229
10998SOL     OW35000  10.157   4.518  10.953 -0.4507  0.1533  0.3239
10998SOL    HW135001  10.214   4.471  10.893  1.4585 -0.9161  2.7884
10998SOL    HW235002  10.078   4.536  10.902  1.2156 -0.1774 -2.6107
10999SOL     OW35003  10.814  10.494   0.206 -0.3900  0.0495 -0.0755
10999SOL    HW135004  10.746  10.496   0.274 -0.9138  0.7127 -0.6142
10999SOL    HW235005  10.876  10.562   0.233  0.6537 -1.2618  0.9934
11000SOL     OW35006   4.428   1.156   6.709  0.4955 -0.0830  0.3079
11000SOL    HW135007   4.518   1.186   6.690  0.4373 -1.2702 -2.3334
11000SOL    HW235008   4.377   1.237   6.714  1.0537  0.5516 -2.4495
11001SOL     OW35009   3.694   5.617   1.225  0.3397 -0.3466 -0.3634
11001SOL    HW135010   3.731   5.658   1.147  0.0142  1.8058  0.5472
11001SOL    HW235011   3.617   5.670   1.246  2.6017  1.7799  3.6837
11002SOL     OW35012   4.497   7.235   2.831  0.3996  0.9735 -0.3781
11002SOL    HW135013   4.429   7.293   2.797 -0.6676 -0.1335 -0.2371
11002SOL    HW235014   4.506   7.167   2.764 -1.1963 -0.8281  1.0910
11003SOL     OW35015   5.558   5.499   4.534 -0.3503  0.0602 -0.0745
11003SOL    HW135016   5.507   5.439   4.588 -1.0292  0.2100 -0.5418
11003SOL    HW235017   5.633   5.523   4.589 -0.5837 -0.4541  0.4752
11004SOL     OW35018   4.308   5.854   7.649  0.0313 -0.4227 -0.4226
11004SOL    HW135019   4.321   5.866   7.555 -0.6329 -0.1126 -0.4761
11004SOL    HW235020   4.266   5.935   7.678  3.0953  0.9196  0.7281
11005SOL     OW35021   1.248   5.649   7.665 -0.1243 -0.6003 -0.1990
11005SOL    HW135022   1.188   5.713   7.625  1.7809  1.1568 -0.4089
11005SOL    HW235023   1.193   5.602   7.727 -1.8422  0.6095 -0.6964
11006SOL     OW35024  10.653   0.820   9.371 -0.1033 -0.7252  0.4646
11006SOL    HW135025  10.570   0.780   9.343 -0.2007 -1.4446  1.7249
11006SOL    HW235026  10.702   0.830   9.289 -1.3832 -0.3731 -0.3009
11007SOL     OW35027   6.378   7.113   2.995  0.1510 -0.7839  0.2984
11007SOL    HW135028   6.343   7.065   3.070  2.4525 -0.6234  1.5623
11007SOL    HW235029   6.453   7.060   2.966  1.0587  0.6220 -0.0162
11008SOL     OW35030   1.888   6.203  10.485 -0.2303  0.2978 -0.2403
11008SOL    HW135031   1.944   6.279  10.503 -0.2307  0.0683  0.7756
11008SOL    HW235032   1.924   6.166  10.404 -0.7607  1.8683 -1.2436
11009SOL     OW35033   7.679  11.040  10.997 -0.4626  0.2699  0.0102
11009SOL    HW135034   7.677  11.135  11.000 -1.4289  0.3803 -1.9346
11009SOL    HW235035   7.771  11.017  10.985 -0.1189  0.8875  1.3619
11010SOL     OW35036   0.797   6.895   4.396  0.2258 -0.2818  0.1112
11010SOL    HW135037   0.762   6.983   4.385  0.8504  0.0562  0.7174
11010SOL    HW235038   0.829   6.893   4.486  2.5115 -0.2676 -0.6353
11011SOL     OW35039   3.834   8.968   0.091  0.0927 -0.5360 -0.9150
11011SOL    HW135040   3.853   8.999   0.002 -1.3634 -1.7342 -1.6989
11011SOL    HW235041   3.874   9.033   0.148  0.4371  0.6768 -2.4546
11012SOL     OW35042   5.707   1.866  10.172 -0.0487 -0.0390  0.3115
11012SOL    HW135043   5.756   1.944  10.198  0.9460 -0.4676 -0.2300
11012SOL    HW235044   5.650   1.895  10.101 -0.8475  0.5372  1.1663
11013SOL     OW35045  10.463   6.430   0.485 -0.3229  0.0128 -0.1832
11013SOL    HW135046  10.374   6.398   0.497 -0.6491  1.0558  0.2592
11013SOL    HW235047  10.518   6.352   0.497 -1.1833 -0.7193 -0.8843
11014SOL     OW35048   5.986   2.131   2.283 -0.2003 -0.0331  0.6157
11014SOL    HW135049   6.019   2.090   2.203  1.8831  0.4658  1.1707
11014SOL    HW235050   6.012   2.072   2.354  0.2165  0.7562  1.1455
11015SOL     OW35051   6.294   9.807   0.689 -0.6748  0.4288 -0.4278
11015SOL    HW135052   6.371   9.833   0.739 -0.2304 -0.0822 -0.8403
11015SOL    HW235053   6.253   9.739   0.742 -0.9466  0.8258 -0.1222
11016SOL     OW35054   0.874   8.380   3.852  0.1153 -0.1304  0.1591
11016SOL    HW135055   0.933   8.429   3.909  0.5001  0.2679 -0.5700
11016SOL    HW235056   0.916   8.381   3.767 -0.9160  0.1136 -0.3652
11017SOL     OW35057   9.844   3.065   8.171  0.1107 -0.4914  0.0448
11017SOL    HW135058   9.929   3.036   8.139 -0.6025 -1.3464 -1.1958
11017SOL    HW235059   9.863   3.124   8.243  1.7204 -1.6295  0.6019
11018SOL     OW35060   0.155   5.527   8.497 -0.0039 -0.3524 -0.4002
11018SOL    HW135061   0.093   5.468   8.539  0.4504 -0.7406 -0.2602
11018SOL    HW235062   0.223   5.469   8.462  0.7113  0.1258  0.1784
11019SOL     OW35063   1.110   3.086   8.811  0.2683  0.0993  0.8889
11019SOL    HW135064   1.172   3.024   8.774  0.5180  0.5160  0.5993
11019SOL    HW235065   1.092   3.148   8.740 -0.7504 -0.2172  0.8624
11020SOL     OW35066   1.105   7.858   6.029  0.4249 -0.5395  0.0161
11020SOL    HW135067   1.121   7.933   6.087 -1.2416 -1.7756  2.2229
11020SOL    HW235068   1.016   7.873   5.996 -0.0525 -1.6792  0.7503
11021SOL     OW35069  10.815   3.941   6.834  0.3727 -0.3500  0.0841
11021SOL    HW135070  10.872   4.010   6.866  3.1847 -3.3225  2.0034
11021SOL    HW235071  10.870   3.888   6.776 -1.0876 -2.0015  0.0946
11022SOL     OW35072  10.028   0.056   4.104 -0.6312 -0.0891 -0.6739
11022SOL    HW135073  10.122   0.048   4.086 -0.5000  1.1331 -0.5633
11022SOL    HW235074   9.990   0.081   4.020 -0.8151 -0.2066 -0.6268
11023SOL     OW35075   2.351   2.794   0.068  0.0981  0.7147  0.2246
11023SOL    HW135076   2.322   2.745  -0.008 -0.2190 -0.2459  0.9394
11023SOL    HW235077   2.292   2.766   0.139  0.3830  1.5753  0.8222
11024SOL     OW35078   5.978   9.994   2.691 -0.7740  0.0752 -0.2348
11024SOL    HW135079   5.894  10.039   2.702 -1.7557 -1.6563 -0.2738
11024SOL    HW235080   5.955   9.902   2.679  1.1892 -0.6642  0.9965
11025SOL     OW35081   4.578   6.369   3.358 -0.0112  0.3042  0.2802
11025SOL    HW135082   4.504   6.313   3.380  1.1366 -0.5382  2.2568
11025SOL    HW235083   4.539   6.452   3.331 -1.7039 -0.8976 -1.2241
11026SOL     OW35084   0.919   7.937   2.160 -0.6046 -0.6664 -0.1172
11026SOL    HW135085   0.931   8.028   2.186 -0.4402 -0.8999  0.6326
11026SOL    HW235086   1.005   7.897   2.171 -1.2635 -1.6001  2.3505
11027SOL     OW35087   4.518   6.327   7.603 -0.2443  0.0347 -0.6777
11027SOL    HW135088   4.553   6.388   7.668  2.1159 -0.4078 -1.4195
11027SOL    HW235089   4.525   6.241   7.645 -2.6038  0.0792 -0.0249
11028SOL     OW35090   5.893   2.179   1.718  0.3760  0.1368 -0.9665
11028SOL    HW135091   5.817   2.214   1.671  1.3425  2.1400 -1.1604
11028SOL    HW235092   5.965   2.237   1.693  1.0536  1.0717  2.5940
11029SOL     OW35093  10.484   8.385   9.997  0.1038  0.2170 -0.6805
11029SOL    HW135094  10.396   8.418   9.978  0.1776 -0.5890 -2.7180
11029SOL    HW235095  10.470   8.296  10.030  0.1477 -0.0934 -1.4733
11030SOL     OW35096  10.557   3.744   3.977 -0.9543 -0.4090  0.4081
11030SOL    HW135097  10.597   3.813   3.925  0.7033 -1.7940 -0.2750
11030SOL    HW235098  10.463   3.762   3.973 -0.5749  1.8676  0.4339
11031SOL     OW35099   5.059   4.524   5.761 -0.2495 -0.0823  0.5172
11031SOL    HW135100   5.152   4.500   5.764  0.2238  1.5930  0.1678
11031SOL    HW235101   5.026   4.504   5.848  1.1902  1.9805  1.6199
11032SOL     OW35102   4.012  10.711   7.437  0.3607 -0.0533 -0.1051
11032SOL    HW135103   4.025  10.794   7.390  0.9764  0.4521  0.9198
11032SOL    HW235104   4.089  10.659   7.414  0.2289 -0.1494 -0.3375
11033SOL     OW35105   0.374   2.045   0.862 -0.0901  0.9488 -0.6003
11033SOL    HW135106   0.354   2.137   0.882 -1.2567  0.3496  1.2387
11033SOL    HW235107   0.374   2.002   0.947 -0.0800 -0.8714 -1.4869
11034SOL     OW35108   6.263   0.853  10.525 -0.0239  0.1118  0.2431
11034SOL    HW135109   6.194   0.896  10.575 -3.0790 -3.1536 -0.7231
11034SOL    HW235110   6.282   0.913  10.453 -1.2970  1.4425  0.9684
11035SOL     OW35111  10.508   6.546   1.098 -0.4937  0.4549  0.4285
11035SOL    HW135112  10.451   6.621   1.081  0.6836  1.1614 -0.5701
11035SOL    HW235113  10.499   6.491   1.020  1.5467  1.4996 -0.6276
11036SOL     OW35114   4.341   7.982   2.764  0.6255 -0.7208  0.1409
11036SOL    HW135115   4.267   7.922   2.756  0.5858 -0.5900 -0.4976
11036SOL    HW235116   4.412   7.927   2.798  0.3400 -0.9224  0.4227
11037SOL     OW35117   7.831   8.282   4.437 -0.4511 -0.0320  0.8307
11037SOL    HW135118   7.789   8.195   4.435  1.5508 -1.0343  0.1585
11037SOL    HW235119   7.879   8.283   4.520 -0.3689  0.4062  0.7790
11038SOL     OW35120   0.808   3.855   9.497 -0.7119  0.0620  0.2070
11038SOL    HW135121   0.780   3.896   9.415  2.3095  0.7604 -0.5761
11038SOL    HW235122   0.778   3.915   9.566 -1.3559  0.5909 -0.5212
11039SOL     OW35123   6.562   6.257  10.361  0.6762  0.6470  0.5952
11039SOL    HW135124   6.500   6.278  10.291  0.5966  1.2977  0.8443
11039SOL    HW235125   6.628   6.327  10.356  1.5516 -0.1952  0.1609
11040SOL     OW35126   9.054   3.457   2.693 -0.3331 -0.5210  0.0822
11040SOL    HW135127   9.042   3.402   2.770 -1.8028  1.0006  1.0311
11040SOL    HW235128   9.033   3.401   2.619 -0.4983 -1.5755  0.9109
11041SOL     OW35129  10.616   3.047   8.230 -0.2456  0.4740  0.0103
11041SOL    HW135130  10.710   3.043   8.248 -0.1183 -0.7706 -0.7825
11041SOL    HW235131  10.611   3.068   8.137 -0.6917 -0.9203 -0.3100
11042SOL     OW35132   3.846   1.118   7.742 -0.2221  0.0419  0.2643
11042SOL    HW135133   3.922   1.155   7.788 -0.7052  1.0440  0.2753
11042SOL    HW235134   3.810   1.054   7.803 -0.1855  0.5517  0.8285
11043SOL     OW35135   9.906   3.232   6.195 -0.2397  0.2266  1.2339
11043SOL    HW135136   9.894   3.322   6.165  0.9715 -0.2120 -0.7838
11043SOL    HW235137   9.990   3.233   6.242  1.0916 -0.2591 -0.9882
11044SOL     OW35138   0.745   4.113   5.976  0.4948 -0.3140  0.6388
11044SOL    HW135139   0.814   4.084   6.036 -1.9683 -0.7245  3.5116
11044SOL    HW235140   0.681   4.041   5.976 -2.1137  1.8111  1.8710
11045SOL     OW35141   8.324   3.391   2.207 -0.2781  0.3086  0.2343
11045SOL    HW135142   8.405   3.384   2.257 -0.5202  0.8412  0.7148
11045SOL    HW235143   8.255   3.401   2.273 -0.9697 -1.8168 -0.0844
11046SOL     OW35144   4.000  10.057   4.724 -0.1998 -0.8525  0.7809
11046SOL    HW135145   3.915  10.072   4.764  1.0233  0.1946  3.1700
11046SOL    HW235146   4.043   9.993   4.781  0.4500 -1.8363 -0.7203
11047SOL     OW35147   2.150   2.888   5.156  0.2036 -0.4901 -0.3237
11047SOL    HW135148   2.158   2.970   5.204  0.5553 -0.7969  0.1472
11047SOL    HW235149   2.057   2.865   5.163  0.2923 -0.6552  0.4284
11048SOL     OW35150   7.204   2.926   0.261 -0.5200 -0.1179  0.4075
11048SOL    HW135151   7.287   2.886   0.287 -0.4357 -0.4974 -0.4082
11048SOL    HW235152   7.176   2.874   0.186 -1.3629  0.1826  0.5102
11049SOL     OW35153   0.540   2.525   3.496 -0.3549  0.1994 -0.7740
11049SOL    HW135154   0.590   2.602   3.467  1.0882 -0.9841 -1.5595
11049SOL    HW235155   0.549   2.462   3.424 -2.4898 -0.3131 -0.6562
11050SOL     OW35156   5.409   1.489   1.230  0.3117 -0.5070 -0.1684
11050SOL    HW135157   5.468   1.562   1.252  0.6833 -1.0490  0.6800
11050SOL    HW235158   5.322   1.527   1.238  0.5182  0.4652 -2.0024
11051SOL     OW35159   0.970   1.111   5.540 -0.1626  0.2429 -0.2348
11051SOL    HW135160   0.909   1.183   5.527 -0.0986  0.4157  0.3860
11051SOL    HW235161   0.994   1.116   5.633  0.2473 -0.2539 -0.3074
11052SOL     OW35162   9.369   3.127   4.840  0.2014  0.0175 -0.2352
11052SOL    HW135163   9.385   3.221   4.848  2.3126 -0.3493  0.3972
11052SOL    HW235164   9.351   3.098   4.930  1.1593 -0.4138 -0.1684
11053SOL     OW35165   5.738   4.056   0.299 -0.2085  0.1021 -0.5894
11053SOL    HW135166   5.715   4.021   0.385  1.6324  0.5597  0.1330
11053SOL    HW235167   5.771   3.981   0.250  0.4327  0.1592 -0.2562
11054SOL     OW35168   3.851   9.164   7.666  0.2327 -0.2070 -0.0109
11054SOL    HW135169   3.894   9.084   7.695  0.6868  0.2940  0.7366
11054SOL    HW235170   3.913   9.234   7.687 -1.7217  0.7813  3.0368
11055SOL     OW35171   7.449   3.027  10.935  0.7689  0.0961 -0.2257
11055SOL    HW135172   7.376   3.083  10.963  0.2123 -0.6762 -0.1057
11055SOL    HW235173   7.498   3.081  10.873 -0.4700  0.2900 -1.0758
11056SOL     OW35174   4.772   1.947   0.660 -0.2171  0.3126  0.1202
11056SOL    HW135175   4.834   1.903   0.601 -0.4200 -0.8467  0.7547
11056SOL    HW235176   4.687   1.938   0.616 -1.2199 -4.3856  2.3766
11057SOL     OW35177   6.798   1.469  11.076 -0.5477 -0.2136  0.0293
11057SOL    HW135178   6.780   1.414  11.152 -1.3871 -1.2245 -0.8653
11057SOL    HW235179   6.751   1.550  11.093  0.0021 -0.0875  0.9788
11058SOL     OW35180   5.651   2.854   2.362  0.1771  0.0605  0.0446
11058SOL    HW135181   5.688   2.766   2.367 -0.3704 -0.0998  2.1931
11058SOL    HW235182   5.556   2.840   2.360  0.0650  0.5599 -2.8299
11059SOL     OW35183  10.424   2.561   0.040  0.0359 -0.6948 -0.7154
11059SOL    HW135184  10.353   2.572  -0.023 -0.6036  1.2228  0.2594
11059SOL    HW235185  10.380   2.536   0.121  0.3297  1.2128  0.0888
11060SOL     OW35186   6.926   0.295   2.074  0.0502  0.4291  0.5154
11060SOL    HW135187   6.940   0.233   2.145  0.0576  0.3304  0.4272
11060SOL    HW235188   6.992   0.363   2.088 -0.0349  0.4793  0.6810
11061SOL     OW35189   9.579   1.152   3.335 -0.1352 -0.5275  0.9097
11061SOL    HW135190   9.622   1.073   3.303  0.8467  0.6102 -0.6965
11061SOL    HW235191   9.612   1.223   3.279 -0.9341  1.0471  2.3322
11062SOL     OW35192   1.575   8.430   2.451  0.1880  0.0126  0.4758
11062SOL    HW135193   1.554   8.378   2.373 -1.6492 -0.1195  1.0199
11062SOL    HW235194   1.653   8.387   2.488 -2.2010 -3.6101  1.9029
11063SOL     OW35195   1.109   2.017   1.614  0.4733  0.2860  0.1889
11063SOL    HW135196   1.136   2.106   1.593 -1.5138  0.8680 -0.0118
11063SOL    HW235197   1.189   1.975   1.646  1.3205  2.2830  0.8090
11064SOL     OW35198  10.511   4.307   1.182 -0.0471 -0.2470 -0.1104
11064SOL    HW135199  10.437   4.300   1.121 -0.0927 -1.1221  0.0281
11064SOL    HW235200  10.588   4.312   1.126 -0.2367  1.3453 -0.2710
11065SOL     OW35201   0.773   3.231   5.433 -0.4290 -0.8649 -0.0423
11065SOL    HW135202   0.719   3.267   5.363  0.5909 -0.4353 -0.6319
11065SOL    HW235203   0.763   3.292   5.506  0.7975  0.3212 -0.8226
11066SOL     OW35204   3.379  10.610   8.075 -0.0146 -0.1740 -0.2349
11066SOL    HW135205   3.373  10.686   8.133  0.1923 -0.7690  0.5826
11066SOL    HW235206   3.385  10.647   7.987  1.6510  0.8073  0.2601
11067SOL     OW35207   3.167   8.816   9.665  0.1839  0.2182  0.5046
11067SOL    HW135208   3.253   8.824   9.623 -0.0663 -1.9117 -0.5672
11067SOL    HW235209   3.105   8.819   9.592 -0.5480  0.4342  1.1328
11068SOL     OW35210   6.786  11.069   8.301 -0.4490 -0.2541  0.2867
11068SOL    HW135211   6.756  10.987   8.261  0.0927 -0.2421 -0.1616
11068SOL    HW235212   6.881  11.063   8.298 -0.3882 -0.2944  1.6921
11069SOL     OW35213   8.749   6.200   0.475  0.0371 -0.2035  1.0317
11069SOL    HW135214   8.795   6.118   0.496  0.0444 -0.0196  1.7768
11069SOL    HW235215   8.819   6.261   0.450 -0.0639 -0.7347 -0.6309
11070SOL     OW35216   8.069   2.146   0.308 -0.7847  0.3547 -0.0262
11070SOL    HW135217   8.055   2.239   0.326 -4.4383 -0.4685  2.4718
11070SOL    HW235218   8.088   2.142   0.214 -0.6020  3.5795 -0.2202
11071SOL     OW35219   8.531   8.010   7.638  0.2645  0.2231 -0.4717
11071SOL    HW135220   8.501   7.937   7.584  3.3068 -1.1905 -0.4033
11071SOL    HW235221   8.473   8.009   7.714 -0.3374 -1.5225 -0.9210
11072SOL     OW35222   1.578   1.445   9.578 -0.3877  0.3541 -0.4363
11072SOL    HW135223   1.574   1.539   9.595 -0.1738  0.0998  1.1707
11072SOL    HW235224   1.522   1.432   9.501  1.0182  2.0162 -1.8219
11073SOL     OW35225   3.234  10.540   6.741  0.3990 -0.1759  0.4427
11073SOL    HW135226   3.200  10.463   6.695  0.8577 -0.2256  0.1725
11073SOL    HW235227   3.288  10.585   6.676  1.7042 -0.6709  1.1375
11074SOL     OW35228   9.511   3.092   4.284  0.2906 -0.8402 -0.2407
11074SOL    HW135229   9.558   3.088   4.201  1.0419 -1.1047  0.1845
11074SOL    HW235230   9.556   3.029   4.340 -0.5814 -1.1049  0.1875
11075SOL     OW35231   1.145   4.044   4.931 -0.3573 -0.7419 -0.3547
11075SOL    HW135232   1.218   4.088   4.975 -0.9080 -0.2561  0.0984
11075SOL    HW235233   1.177   4.027   4.843  0.9254 -2.1198  0.3287
11076SOL     OW35234   8.721   0.343   9.293 -0.9751 -0.2107  0.0522
11076SOL    HW135235   8.730   0.437   9.278  0.1520 -0.1451  1.0244
11076SOL    HW235236   8.631   0.323   9.265 -0.8809  0.9360 -1.1906
11077SOL     OW35237   3.763   3.938  10.292 -0.2973 -0.2939  0.3781
11077SOL    HW135238   3.783   3.852  10.257  0.5812  0.1858 -0.3184
11077SOL    HW235239   3.690   3.969  10.238 -1.0152 -0.8251  1.0117
11078SOL     OW35240   1.886   8.609  11.011  0.4488 -0.1615 -0.3050
11078SOL    HW135241   1.902   8.590  11.103  0.5728 -0.9189 -0.4724
11078SOL    HW235242   1.972   8.611  10.971  0.4518  0.9587 -0.2713
11079SOL     OW35243   0.890   0.289   1.813  0.4772 -0.1205 -0.1472
11079SOL    HW135244   0.807   0.336   1.814  1.0981  1.0461 -0.2822
11079SOL    HW235245   0.880   0.224   1.743 -0.8414 -1.0599  0.8724
11080SOL     OW35246  10.313   5.669   8.097 -0.0240 -0.0860 -0.3242
11080SOL    HW135247  10.276   5.727   8.163  0.1230 -1.6034  1.1509
11080SOL    HW235248  10.382   5.622   8.143  1.2262  0.0132 -2.0325
11081SOL     OW35249   3.771   7.966   9.620 -0.4510  0.7165 -0.3561
11081SOL    HW135250   3.676   7.976   9.625 -0.7116 -0.7586 -1.7367
11081SOL    HW235251   3.805   8.056   9.621 -2.0214  1.4038 -2.6356
11082SOL     OW35252   1.506   2.938   8.792  0.5396  0.1562  0.0825
11082SOL    HW135253   1.562   2.988   8.734 -0.4351 -1.0570 -2.0076
11082SOL    HW235254   1.466   3.004   8.849 -1.0612  1.9171 -2.8432
11083SOL     OW35255  10.999   4.693   0.355  0.2946 -0.1360 -0.2184
11083SOL    HW135256  11.006   4.680   0.260  0.5410 -1.3595 -0.0452
11083SOL    HW235257  10.933   4.630   0.383  2.7787 -2.4573  0.9085
11084SOL     OW35258   3.271   4.694   4.407  0.9194 -0.1023 -0.5355
11084SOL    HW135259   3.246   4.755   4.475  0.4412 -0.1151 -0.7000
11084SOL    HW235260   3.206   4.705   4.338  1.9343  0.6086 -1.4261
11085SOL     OW35261   2.790   1.859   8.920 -0.0668  0.0333 -0.7567
11085SOL    HW135262   2.772   1.887   8.830 -0.2592 -3.2261 -1.8612
11085SOL    HW235263   2.880   1.886   8.936  0.1585  0.1936 -2.1381
11086SOL     OW35264   6.775   9.944   0.017 -0.0057 -0.6249  0.1126
11086SOL    HW135265   6.729   9.897  -0.053  2.2772 -3.8576  0.5460
11086SOL    HW235266   6.868   9.935  -0.005  0.6596  2.6045  1.0724
11087SOL     OW35267   2.246   1.426   4.035  0.2465 -0.5980  0.1732
11087SOL    HW135268   2.255   1.341   3.992  0.0687  0.3550 -1.8772
11087SOL    HW235269   2.154   1.451   4.021 -0.4570 -1.1614  3.0524
11088SOL     OW35270   9.528   4.093  10.436  0.8890  0.4098 -0.1943
11088SOL    HW135271   9.457   4.101  10.499  1.1820  1.3691  0.0322
11088SOL    HW235272   9.517   4.007  10.398  0.7156 -0.2035  1.1864
11089SOL     OW35273   7.409   0.725   0.757  0.3316 -0.6986  1.0894
11089SOL    HW135274   7.371   0.809   0.784  0.0791 -1.0890  2.0042
11089SOL    HW235275   7.350   0.693   0.688  0.3800 -0.1681  0.7996
11090SOL     OW35276   9.701   6.175   8.812 -0.7217  0.2234  0.0468
11090SOL    HW135277   9.671   6.265   8.801  1.8766  1.0782 -0.9016
11090SOL    HW235278   9.679   6.132   8.729 -0.5502  0.4555 -0.1206
11091SOL     OW35279   3.701   1.426   7.400 -0.5832 -0.3751  0.1420
11091SOL    HW135280   3.652   1.487   7.455 -2.1466  0.6639 -2.2313
11091SOL    HW235281   3.641   1.354   7.385 -0.8338  0.1169 -1.4377
11092SOL     OW35282   2.808  10.290   9.865 -0.0934  0.0121  0.2824
11092SOL    HW135283   2.833  10.378   9.892 -2.8690  0.7561  0.7434
11092SOL    HW235284   2.775  10.300   9.776  0.8022 -0.8185 -0.1567
11093SOL     OW35285   3.508  10.751   1.161  0.1004  0.5215 -0.2938
11093SOL    HW135286   3.448  10.681   1.188  1.6948 -1.6565 -2.0411
11093SOL    HW235287   3.546  10.782   1.243 -2.9089  1.6611  0.8362
11094SOL     OW35288   5.018   4.331   9.502  0.6590  0.2050  0.0423
11094SOL    HW135289   5.045   4.341   9.411 -1.7771  3.7625 -0.5378
11094SOL    HW235290   5.049   4.411   9.545 -1.4489  0.4167  1.3265
11095SOL     OW35291   2.293   5.875   6.480 -0.0873 -0.0134 -0.6487
11095SOL    HW135292   2.366   5.852   6.538 -0.7363  0.3659  0.3589
11095SOL    HW235293   2.331   5.933   6.415  0.2968  1.1667  0.5858
11096SOL     OW35294   5.029   7.507   0.851 -0.0937  0.1783 -0.2492
11096SOL    HW135295   5.045   7.531   0.760  0.9051 -0.4773 -0.2631
11096SOL    HW235296   5.100   7.447   0.873 -0.0423  0.6988  1.1169
11097SOL     OW35297   4.640   7.194   8.483 -0.3897 -0.1999  0.2487
11097SOL    HW135298   4.563   7.174   8.536  0.2525  0.3018  1.4082
11097SOL    HW235299   4.605   7.233   8.403 -1.3277  0.6274  1.0317
11098SOL     OW35300   0.408  11.092   2.025  0.2242  0.0414 -0.5407
11098SOL    HW135301   0.451  11.020   2.073 -0.1346  0.2201  0.0643
11098SOL    HW235302   0.321  11.098   2.065 -0.1376  0.1101 -1.3184
11099SOL     OW35303   3.159   4.994   9.906 -0.2023 -0.5259  0.1042
11099SOL    HW135304   3.127   5.065   9.851 -1.9715 -1.4404 -0.1206
11099SOL    HW235305   3.179   4.923   9.845  0.0016 -0.7866  0.4676
11100SOL     OW35306   5.497   7.950   4.219  0.1086  0.1800 -0.3239
11100SOL    HW135307   5.587   7.924   4.239  0.8377  0.9797 -2.3385
11100SOL    HW235308   5.475   8.015   4.285  0.5101 -0.9389  0.9685
11101SOL     OW35309   4.424   5.239   1.370  0.0189  0.4694 -0.2565
11101SOL    HW135310   4.433   5.167   1.308 -2.1930 -2.8683  2.8274
11101SOL    HW235311   4.513   5.270   1.386  1.1684 -2.0320 -1.3451
11102SOL     OW35312   8.487  10.409   6.832  0.0945  0.2703  0.0621
11102SOL    HW135313   8.566  10.463   6.825  0.9280 -1.0445 -1.5160
11102SOL    HW235314   8.428  10.442   6.765  1.4806 -2.0005 -2.4747
11103SOL     OW35315   1.707   9.281   1.420  0.3140 -0.1309 -0.4909
11103SOL    HW135316   1.758   9.248   1.495 -1.4250 -1.9205 -0.0046
11103SOL    HW235317   1.638   9.335   1.460  0.0097 -0.2313 -0.8719
11104SOL     OW35318   5.496   8.051   9.028 -0.3694  0.6366  0.3124
11104SOL    HW135319   5.514   8.046   9.122 -1.0639  0.1253  0.4283
11104SOL    HW235320   5.574   8.093   8.991  0.1361  0.3797  1.0495
11105SOL     OW35321   2.396   7.219  10.854  0.5915  0.2528 -0.0419
11105SOL    HW135322   2.430   7.292  10.905  0.2739 -0.2198  0.8720
11105SOL    HW235323   2.353   7.162  10.918 -0.4392 -0.0154 -0.9217
11106SOL     OW35324   5.964   8.297   2.852  0.0576 -0.1976 -0.2937
11106SOL    HW135325   6.038   8.237   2.860  0.7387  0.8222  2.1355
11106SOL    HW235326   6.002   8.379   2.821 -0.4993 -0.3561 -1.4515
11107SOL     OW35327   1.541   3.174   4.318  0.9225  0.5746  0.0652
11107SOL    HW135328   1.499   3.103   4.269  0.0136  1.1891 -0.0905
11107SOL    HW235329   1.475   3.244   4.318  1.5732  1.1995  0.7129
11108SOL     OW35330  11.099   8.129   0.472  0.4270 -0.3300 -0.7123
11108SOL    HW135331  11.121   8.190   0.401 -0.6687  0.7224 -0.1835
11108SOL    HW235332  11.024   8.169   0.516  0.9698 -1.0438  0.9472
11109SOL     OW35333   4.694   2.570   9.867  0.4710  0.3144 -0.0897
11109SOL    HW135334   4.661   2.617   9.790 -0.2236  1.1542  0.6983
11109SOL    HW235335   4.776   2.615   9.888  0.4718  0.3256 -0.1147
11110SOL     OW35336   1.483   9.633   4.231  0.8626  0.2881 -0.5376
11110SOL    HW135337   1.397   9.590   4.225 -0.3188  2.5114 -0.6848
11110SOL    HW235338   1.464   9.726   4.217  3.0194  1.1357  1.4630
11111SOL     OW35339  10.387   1.351   6.288 -0.5289 -0.0927 -0.9843
11111SOL    HW135340  10.469   1.327   6.332 -0.6715  1.6315  0.2873
11111SOL    HW235341  10.412   1.363   6.196  0.3827 -0.7558 -0.8367
11112SOL     OW35342   8.645   6.527   2.439 -0.2465 -0.0890  0.0753
11112SOL    HW135343   8.595   6.516   2.520 -0.6613  0.8955 -0.0320
11112SOL    HW235344   8.732   6.495   2.460 -0.0839  1.0314  1.2187
11113SOL     OW35345   3.416   9.723   1.605 -0.1716  0.0273 -0.1262
11113SOL    HW135346   3.467   9.682   1.675 -0.8601  0.1269  0.4462
11113SOL    HW235347   3.481   9.743   1.537  0.6663  0.7658  0.8541
11114SOL     OW35348   4.496   5.763  10.359 -0.0082 -0.2652  0.5222
11114SOL    HW135349   4.581   5.808  10.358  0.8337 -1.7562  0.4759
11114SOL    HW235350   4.439   5.821  10.409  1.1573  0.5839  0.9326
11115SOL     OW35351   0.659   8.963   6.477  0.0765  0.5060  0.6407
11115SOL    HW135352   0.751   8.974   6.500 -0.3045  0.8319  2.1416
11115SOL    HW235353   0.633   9.049   6.443  1.0321 -0.3930 -2.7280
11116SOL     OW35354   3.314   5.807   4.810  0.5064  0.5942  0.0758
11116SOL    HW135355   3.399   5.776   4.777  0.7964 -0.2962  1.5518
11116SOL    HW235356   3.288   5.742   4.875 -1.0899  1.1161  0.0046
11117SOL     OW35357   4.150   9.962  10.867  0.4471  0.0631 -0.2731
11117SOL    HW135358   4.213   9.904  10.824  0.1188  0.9655 -2.0732
11117SOL    HW235359   4.088   9.985  10.797 -1.8929 -0.7504  1.3939
11118SOL     OW35360   3.991   5.840   5.035 -0.4198  1.1402 -0.3265
11118SOL    HW135361   3.967   5.787   4.958 -0.6238 -0.4437  0.7764
11118SOL    HW235362   3.910   5.883   5.060 -0.9765 -0.2786  0.4255
11119SOL     OW35363   9.766   7.597   6.640  0.2508  0.1414  0.6854
11119SOL    HW135364   9.732   7.511   6.665  1.9567 -2.4136 -4.3415
11119SOL    HW235365   9.692   7.642   6.600  0.4325 -1.2556 -1.3239
11120SOL     OW35366   9.728   9.027   7.035  0.3825  0.2971  0.1861
11120SOL    HW135367   9.721   9.091   7.106  2.4921  0.2608  0.4940
11120SOL    HW235368   9.762   8.948   7.078  1.0395  0.0650 -0.7264
11121SOL     OW35369   2.010   3.614   0.240 -0.2444  0.6040  0.4087
11121SOL    HW135370   2.074   3.563   0.191 -0.4809  1.5391 -0.9109
11121SOL    HW235371   1.927   3.596   0.196 -1.0759 -1.1636  2.5256
11122SOL     OW35372   6.745   5.934   2.791 -0.2320  0.0961  0.7584
11122SOL    HW135373   6.691   6.013   2.787 -2.5255 -1.4233 -0.7292
11122SOL    HW235374   6.733   5.903   2.881  0.2077  1.0780  1.1772
11123SOL     OW35375   1.212   5.778   5.638  0.4590 -0.4741 -0.3156
11123SOL    HW135376   1.129   5.794   5.594  0.8580 -0.1247 -0.9489
11123SOL    HW235377   1.269   5.849   5.610  1.2242 -1.1541 -0.5315
11124SOL     OW35378  10.721   4.816   3.643  0.1353 -0.5404 -0.3393
11124SOL    HW135379  10.631   4.839   3.664  0.4176 -0.4462  0.8511
11124SOL    HW235380  10.772   4.894   3.666  0.4539 -0.3277 -1.6674
11125SOL     OW35381   7.687   7.641   5.957  0.5326  0.0699  0.2452
11125SOL    HW135382   7.681   7.735   5.941 -1.4767  0.1174  0.9185
11125SOL    HW235383   7.746   7.632   6.032  1.3839  0.7127 -0.3368
11126SOL     OW35384   0.234   1.628   4.171  0.4440  0.5143  0.1488
11126SOL    HW135385   0.172   1.566   4.211  1.3123 -1.0775 -0.8529
11126SOL    HW235386   0.211   1.713   4.209  1.1478 -0.8162  3.9965
11127SOL     OW35387   5.555   0.297   5.256  0.1810  0.3998 -0.0378
11127SOL    HW135388   5.553   0.264   5.346 -1.9967 -0.3779 -0.2943
11127SOL    HW235389   5.610   0.234   5.209 -1.0388 -0.9320  0.2119
11128SOL     OW35390   1.708   6.683   2.329 -0.2219 -0.9421 -0.4094
11128SOL    HW135391   1.664   6.603   2.356 -1.3724  0.0582  0.8705
11128SOL    HW235392   1.746   6.718   2.410  1.3388 -0.8078 -1.1664
11129SOL     OW35393   2.067   6.870   3.177 -0.2275 -0.4233  0.4515
11129SOL    HW135394   2.034   6.890   3.265  0.9691  1.5423  0.5186
11129SOL    HW235395   2.085   6.776   3.179 -0.4240 -0.4571  2.2273
11130SOL     OW35396   6.726   5.464   9.344 -0.6538  0.0984 -0.1035
11130SOL    HW135397   6.649   5.465   9.400  0.2800 -0.2046  1.2552
11130SOL    HW235398   6.744   5.372   9.329 -0.3034  0.1483 -0.0161
11131SOL     OW35399   8.268   6.616   9.418 -0.0926  0.2239  0.3795
11131SOL    HW135400   8.350   6.648   9.455  0.1384 -1.2531  1.2431
11131SOL    HW235401   8.200   6.659   9.469  0.1364  1.0128  0.0400
11132SOL     OW35402  10.396   8.361   9.217 -1.1544  0.0468 -0.3873
11132SOL    HW135403  10.486   8.348   9.187 -1.5590 -0.6839 -1.3163
11132SOL    HW235404  10.356   8.417   9.150 -1.6927 -0.5131 -0.5348
11133SOL     OW35405   3.076   5.605   7.068 -0.4617  0.1551 -0.5144
11133SOL    HW135406   3.091   5.633   6.978  1.3747  0.0913 -0.2525
11133SOL    HW235407   2.986   5.633   7.086 -1.3507 -1.0113 -2.7737
11134SOL     OW35408  10.827   7.972   3.780 -0.3163  0.4082 -0.2945
11134SOL    HW135409  10.843   8.054   3.733 -0.4525 -0.2277 -1.4745
11134SOL    HW235410  10.732   7.961   3.777 -0.5084  1.1527  1.5357
11135SOL     OW35411   5.458   8.162   0.669  0.3086 -0.1455  0.3453
11135SOL    HW135412   5.363   8.150   0.663  0.1468  1.5696 -1.8777
11135SOL    HW235413   5.494   8.091   0.616  0.1516  0.1656 -0.1924
11136SOL     OW35414   8.198   0.058   7.100  0.7599 -0.0822  0.4130
11136SOL    HW135415   8.163  -0.019   7.057  1.7297  0.5266 -1.5818
11136SOL    HW235416   8.268   0.024   7.156 -1.4740 -1.0515  2.7964
11137SOL     OW35417   8.851   6.321   8.698 -0.0911 -0.2543 -0.7011
11137SOL    HW135418   8.792   6.377   8.748  1.6325 -0.5454  1.8140
11137SOL    HW235419   8.814   6.234   8.707  0.3775 -0.3531  0.3842
11138SOL     OW35420  10.691   3.809   7.769  0.0276  0.1858 -0.0217
11138SOL    HW135421  10.648   3.725   7.784  0.9156 -0.1293  0.9075
11138SOL    HW235422  10.777   3.800   7.811 -0.4138  2.0633  1.4410
11139SOL     OW35423   4.665   8.284   2.647  0.4115  0.2198  0.2073
11139SOL    HW135424   4.735   8.323   2.700 -1.1096 -1.6077  3.9718
11139SOL    HW235425   4.600   8.353   2.639  1.2754  0.9666 -0.5898
11140SOL     OW35426   2.770   2.825   7.429 -0.0772 -0.3969 -0.8320
11140SOL    HW135427   2.747   2.759   7.494 -1.3082 -0.4611 -1.3096
11140SOL    HW235428   2.765   2.908   7.476  2.5520 -0.6524  0.0677
11141SOL     OW35429   2.601   9.632   5.522  0.2104 -0.3065 -0.0401
11141SOL    HW135430   2.637   9.559   5.472  1.7301 -0.7149  1.5111
11141SOL    HW235431   2.513   9.604   5.546  0.4987 -1.3324 -0.1126
11142SOL     OW35432   8.189   7.327   7.508  0.2523  0.1038  0.1659
11142SOL    HW135433   8.122   7.290   7.450 -1.4345  2.7275  0.2665
11142SOL    HW235434   8.179   7.279   7.590 -0.2201 -0.8047 -0.4074
11143SOL     OW35435   9.719   0.857   3.782 -0.4028  0.4901  1.0052
11143SOL    HW135436   9.710   0.847   3.687  2.3577  0.5003  0.6744
11143SOL    HW235437   9.629   0.865   3.813 -1.3736  1.0682 -1.6540
11144SOL     OW35438   1.026   3.224   0.570 -0.5814  0.6454 -0.0766
11144SOL    HW135439   1.119   3.245   0.558 -0.9579  1.0473 -3.2635
11144SOL    HW235440   0.984   3.309   0.584 -0.6942  0.7538 -0.9792
11145SOL     OW35441   4.503   8.693   3.823 -0.1769  0.2430  0.2052
11145SOL    HW135442   4.448   8.706   3.900 -1.6400  0.5595 -0.8405
11145SOL    HW235443   4.539   8.605   3.833 -2.1820 -0.6469  0.1829
11146SOL     OW35444   7.608   1.250   3.523 -0.2632 -0.6814 -0.2141
11146SOL    HW135445   7.703   1.263   3.523 -0.3161 -0.2664 -0.4245
11146SOL    HW235446   7.573   1.336   3.501 -0.8056 -0.0173  2.7247
11147SOL     OW35447   5.074   2.183  10.221 -0.5595  0.4315  0.3457
11147SOL    HW135448   5.021   2.193  10.300 -0.5583  1.6150  0.2207
11147SOL    HW235449   5.085   2.273  10.188  0.2628  0.0558 -0.4545
11148SOL     OW35450   7.420   0.607   6.650 -0.8856  0.2686 -0.1072
11148SOL    HW135451   7.502   0.566   6.620 -1.9920  0.1125 -3.2752
11148SOL    HW235452   7.395   0.557   6.728  0.5822 -1.5255 -0.7162
11149SOL     OW35453   5.553   0.342   7.726 -0.5446  0.1951  0.1169
11149SOL    HW135454   5.523   0.322   7.637  0.5974 -0.0499 -0.2301
11149SOL    HW235455   5.552   0.258   7.772  1.1201 -0.1316 -0.3794
11150SOL     OW35456   7.760   2.560   3.665  0.1953 -0.1634 -0.5585
11150SOL    HW135457   7.734   2.646   3.697 -0.7750 -0.7808  0.3677
11150SOL    HW235458   7.678   2.513   3.652  0.2059  0.6484 -6.0975
11151SOL     OW35459   4.140  10.765   4.099  1.0396 -0.2887 -0.2342
11151SOL    HW135460   4.081  10.749   4.026 -0.2209 -0.8402  0.8558
11151SOL    HW235461   4.085  10.754   4.177  2.5188 -0.5153  0.8233
11152SOL     OW35462   1.854   4.465   1.890 -0.0107 -0.1116  0.4133
11152SOL    HW135463   1.806   4.405   1.948  1.8309 -1.7370  0.3825
11152SOL    HW235464   1.835   4.433   1.802 -1.8004  1.5857  0.1149
11153SOL     OW35465   4.761   7.699   0.021  0.2637 -0.1628  0.4930
11153SOL    HW135466   4.837   7.726   0.072 -0.8110  1.9673  1.0674
11153SOL    HW235467   4.747   7.607   0.044  0.4973  0.4151  3.1978
11154SOL     OW35468  10.090   1.890   9.374  0.3082  0.5714 -0.3890
11154SOL    HW135469  10.038   1.810   9.371  1.5530 -0.2428 -2.7275
11154SOL    HW235470  10.039   1.954   9.324  0.1809  0.6620 -0.1415
11155SOL     OW35471  10.503   8.471   5.246  0.6602 -0.2075 -0.3357
11155SOL    HW135472  10.487   8.563   5.265 -0.2890 -0.6194  0.9871
11155SOL    HW235473  10.598   8.464   5.239  0.8998  0.5144  1.6021
11156SOL     OW35474   7.705   1.513   0.109 -0.1826 -0.1238 -0.0696
11156SOL    HW135475   7.782   1.544   0.155  0.5239 -1.8497 -0.0297
11156SOL    HW235476   7.734   1.433   0.065 -0.6443  1.6016 -3.9230
11157SOL     OW35477   1.644   9.011   5.013 -0.0547 -0.0006 -0.3792
11157SOL    HW135478   1.692   8.970   5.085 -0.2462 -0.7281 -0.6543
11157SOL    HW235479   1.577   8.946   4.989  1.8729 -1.1406 -3.2027
11158SOL     OW35480   7.145   0.082   3.905 -0.2684 -0.2260 -0.3715
11158SOL    HW135481   7.204   0.157   3.914  1.1004 -1.0705 -1.7626
11158SOL    HW235482   7.071   0.116   3.855  0.0213  0.3455 -0.4200
11159SOL     OW35483   2.232   8.190   9.471 -0.1278  0.3567  0.2450
11159SOL    HW135484   2.207   8.098   9.462 -1.4471  0.7598 -0.3548
11159SOL    HW235485   2.278   8.194   9.555 -0.8501 -0.6759  0.7045
11160SOL     OW35486   2.698   1.597   7.944 -0.4909 -0.0879 -0.1837
11160SOL    HW135487   2.677   1.685   7.912  0.3080  0.9419  1.9006
11160SOL    HW235488   2.619   1.569   7.990 -0.8857 -0.6537 -1.1847
11161SOL     OW35489   1.252   6.512   5.140 -0.9967  0.4235 -0.1572
11161SOL    HW135490   1.255   6.526   5.235 -2.0674  1.0098 -0.2013
11161SOL    HW235491   1.309   6.579   5.104 -2.1194  1.4758 -0.0362
11162SOL     OW35492   0.469   4.976   2.759  0.0876 -0.1296  0.9276
11162SOL    HW135493   0.557   4.946   2.733 -0.7499 -0.5357 -1.7980
11162SOL    HW235494   0.474   5.071   2.756  0.3417 -0.1537  0.2489
11163SOL     OW35495   4.728   3.557   1.149  0.2525  0.0850  0.0903
11163SOL    HW135496   4.693   3.600   1.226 -1.8439 -2.2654  0.5857
11163SOL    HW235497   4.744   3.467   1.177  1.6672 -0.2577 -1.6319
11164SOL     OW35498  10.766   6.560   6.376 -0.6525 -0.0732 -0.0027
11164SOL    HW135499  10.846   6.538   6.328  1.0853 -1.2703  3.1468
11164SOL    HW235500  10.780   6.650   6.406  1.6929 -1.4906  3.9970
11165SOL     OW35501   6.727   7.295   0.449  0.5637 -0.1299 -0.5117
11165SOL    HW135502   6.681   7.309   0.532  1.6312 -1.7371  0.4130
11165SOL    HW235503   6.671   7.335   0.383 -0.7856  0.3622  0.8714
11166SOL     OW35504   0.706   3.562   4.589 -0.0234  0.3448  0.3183
11166SOL    HW135505   0.684   3.501   4.519 -0.0994 -1.4616  1.8538
11166SOL    HW235506   0.739   3.640   4.543  0.2175 -0.8818 -1.6960
11167SOL     OW35507   7.575   4.788  10.574 -0.0356  0.0977  0.2108
11167SOL    HW135508   7.537   4.814  10.658 -0.0967 -1.3263  0.6529
11167SOL    HW235509   7.600   4.696  10.587 -1.9580 -0.8304 -1.9551
11168SOL     OW35510   7.942   2.007   3.784 -0.3652  0.1723 -0.5266
11168SOL    HW135511   7.868   1.951   3.758 -0.2796 -0.4658  0.5209
11168SOL    HW235512   8.016   1.946   3.793  0.1596  0.7279 -1.0364
11169SOL     OW35513   7.330   9.812   0.744  0.5663  0.3590 -0.0663
11169SOL    HW135514   7.381   9.893   0.734 -0.2746  1.3404  2.6445
11169SOL    HW235515   7.242   9.836   0.713  0.9912 -0.4545 -2.0040
11170SOL     OW35516   1.985   5.484   0.042  0.0181  0.1945 -0.6851
11170SOL    HW135517   2.039   5.562   0.027 -2.2130  1.8073 -0.9863
11170SOL    HW235518   1.920   5.487  -0.029 -1.2373 -0.9022  0.3732
11171SOL     OW35519   3.667   4.774   9.170  0.5208 -0.0022 -0.2233
11171SOL    HW135520   3.689   4.696   9.119  2.2680  0.9748 -1.0429
11171SOL    HW235521   3.714   4.763   9.253  0.0552 -0.2254  0.0124
11172SOL     OW35522   4.096   7.293   3.519 -0.4877 -0.1364  0.0181
11172SOL    HW135523   4.093   7.297   3.423  1.1787 -2.4337 -0.2293
11172SOL    HW235524   4.058   7.208   3.541  0.8419 -0.4692  1.2119
11173SOL     OW35525   0.895   5.090   2.158 -0.2090  0.1234  0.2011
11173SOL    HW135526   0.868   5.001   2.180  0.5928 -0.6665 -1.8045
11173SOL    HW235527   0.818   5.143   2.179 -1.3221 -1.2774 -0.1635
11174SOL     OW35528   9.641   1.127   5.533  0.4451 -0.1695 -0.0889
11174SOL    HW135529   9.666   1.054   5.475  2.1270  1.1074 -1.0491
11174SOL    HW235530   9.699   1.117   5.609 -2.2697 -2.2926  1.9100
11175SOL     OW35531   7.490   5.644   3.827  0.0360 -0.2394 -0.2363
11175SOL    HW135532   7.402   5.610   3.812 -1.4020  2.6886  0.7601
11175SOL    HW235533   7.532   5.640   3.741 -1.4776 -0.6059 -0.9926
11176SOL     OW35534  10.390   4.215   9.637 -0.2854 -0.4294 -0.1418
11176SOL    HW135535  10.412   4.169   9.556  0.2946 -3.1701  1.4171
11176SOL    HW235536  10.310   4.173   9.668 -1.4669  1.7394 -0.0853
11177SOL     OW35537   3.857   0.596   5.439 -0.3300  0.1775  0.7527
11177SOL    HW135538   3.794   0.550   5.495  0.1413 -0.2630  0.9230
11177SOL    HW235539   3.890   0.530   5.379 -1.5739  0.8541 -0.7393
11178SOL     OW35540   7.335   4.622   7.534 -0.1288 -0.2583 -0.6455
11178SOL    HW135541   7.248   4.590   7.509 -0.2953 -0.0225 -0.3764
11178SOL    HW235542   7.320   4.712   7.563  0.0360 -0.5525  0.4098
11179SOL     OW35543   8.454   4.407   2.971 -0.0197  0.3143 -0.3919
11179SOL    HW135544   8.499   4.477   2.923 -1.4751  1.1063 -0.6686
11179SOL    HW235545   8.362   4.415   2.945 -1.0220  1.1599  2.8757
11180SOL     OW35546   5.804   5.391   1.122 -0.7739  0.1953  0.9216
11180SOL    HW135547   5.894   5.364   1.106 -1.3253 -0.8062 -0.7091
11180SOL    HW235548   5.797   5.477   1.079 -0.9965 -0.4517 -0.4062
11181SOL     OW35549   4.735   1.793   6.848  0.7667  0.2185  0.8057
11181SOL    HW135550   4.743   1.888   6.857 -0.2374  0.6186 -1.6326
11181SOL    HW235551   4.675   1.768   6.919 -0.7532  1.7986  0.1734
11182SOL     OW35552  11.092   5.859   8.797 -0.2233 -0.3072 -0.0615
11182SOL    HW135553  11.118   5.864   8.705  2.2772  2.0063  0.6482
11182SOL    HW235554  11.009   5.905   8.801 -0.9812 -1.4914 -1.3024
11183SOL     OW35555   3.503   6.772  10.772  0.0921  0.1015  0.1242
11183SOL    HW135556   3.508   6.803  10.681  2.1132 -0.5953 -0.0426
11183SOL    HW235557   3.579   6.812  10.815  1.8964 -3.1654  0.3060
11184SOL     OW35558   0.411   7.780   1.984  0.1263 -0.2367  0.1019
11184SOL    HW135559   0.401   7.864   2.028  0.3755 -0.1837  0.0620
11184SOL    HW235560   0.336   7.773   1.926 -0.0175 -0.1475  0.2773
11185SOL     OW35561   4.548   0.038   8.097  0.1030 -0.6632 -0.5809
11185SOL    HW135562   4.471  -0.001   8.138  0.4534 -1.4129 -0.6263
11185SOL    HW235563   4.582   0.099   8.163 -0.0847 -0.9001 -0.2655
11186SOL     OW35564  10.687   2.667   3.282  0.1430 -0.1961 -0.3319
11186SOL    HW135565  10.779   2.641   3.288  0.2975  0.6731  4.1422
11186SOL    HW235566  10.688   2.750   3.235  1.2635 -1.2163 -2.2670
11187SOL     OW35567   1.691   1.807   1.640 -0.0122  0.2250 -0.0791
11187SOL    HW135568   1.735   1.727   1.669  0.7243 -0.0500 -1.8554
11187SOL    HW235569   1.762   1.868   1.620 -0.5273  0.8194 -0.1189
11188SOL     OW35570   2.562   1.785   0.898  0.3134  0.0435  0.1289
11188SOL    HW135571   2.561   1.870   0.854 -1.7036  0.9828  1.8239
11188SOL    HW235572   2.524   1.724   0.835  1.8541  0.3315 -1.1319
11189SOL     OW35573   8.687   8.178   2.767 -0.5228  0.1718  0.3736
11189SOL    HW135574   8.618   8.168   2.833 -0.7050 -0.5635  0.0813
11189SOL    HW235575   8.650   8.138   2.688  0.0582  0.1932  0.0904
11190SOL     OW35576   1.193   2.882   7.799 -0.2056 -0.3161  0.0232
11190SOL    HW135577   1.249   2.826   7.746  0.3220  0.7059 -0.5457
11190SOL    HW235578   1.182   2.961   7.746  0.8521  1.0138  1.6701
11191SOL     OW35579   2.618   3.303   6.501 -0.4657 -0.0865  0.2212
11191SOL    HW135580   2.542   3.265   6.545 -2.2126 -1.0326 -3.2459
11191SOL    HW235581   2.583   3.383   6.460  1.2439  1.1057  0.9661
11192SOL     OW35582   5.834   5.599  11.020 -0.3367  0.4912 -0.2713
11192SOL    HW135583   5.803   5.548  10.945 -0.0246  0.2586 -0.2417
11192SOL    HW235584   5.773   5.673  11.024 -0.7135  0.1921 -0.3907
11193SOL     OW35585   0.840   0.937   0.398  0.4304 -0.5136  0.1468
11193SOL    HW135586   0.782   0.862   0.385  0.4557 -0.4008 -0.6137
11193SOL    HW235587   0.782   1.013   0.403  0.4031 -0.5800  0.9375
11194SOL     OW35588   9.785   2.193   5.382  0.1938  0.4295 -0.3285
11194SOL    HW135589   9.863   2.172   5.434 -0.7414  0.5910  1.2024
11194SOL    HW235590   9.789   2.134   5.307  0.0140 -2.0305  1.4777
11195SOL     OW35591   6.060   5.536   5.993  0.2379  0.1680  0.5410
11195SOL    HW135592   6.033   5.535   6.084  0.0803 -1.9244  0.5122
11195SOL    HW235593   6.029   5.620   5.960 -0.6822  0.4861  2.1199
11196SOL     OW35594   3.330   1.750   6.154  0.5228 -0.1355  0.5848
11196SOL    HW135595   3.280   1.713   6.227 -0.3884  0.1879  0.1356
11196SOL    HW235596   3.291   1.712   6.076  2.3012 -1.4554  0.2688
11197SOL     OW35597   2.803   3.145   3.004  0.2553  0.4884  0.0031
11197SOL    HW135598   2.818   3.052   2.991  1.9915  0.6294  0.6763
11197SOL    HW235599   2.783   3.180   2.917  1.8207 -0.1573 -0.6395
11198SOL     OW35600  10.811   3.878   5.988 -0.3640  0.6740 -0.4103
11198SOL    HW135601  10.751   3.823   6.038  1.0339 -1.0815 -0.5455
11198SOL    HW235602  10.869   3.916   6.054 -0.6770  1.1643 -0.4123
11199SOL     OW35603   3.510   7.959   3.295  0.2768 -0.3836 -0.2719
11199SOL    HW135604   3.479   8.043   3.262 -1.9303 -0.9247  0.2530
11199SOL    HW235605   3.453   7.939   3.369  1.2609 -1.9793  0.1294
11200SOL     OW35606   5.695   2.499   1.197  0.4170 -0.7383 -0.4182
11200SOL    HW135607   5.645   2.452   1.130 -1.0819 -0.2763  0.3480
11200SOL    HW235608   5.682   2.592   1.175  1.8796 -0.6150 -0.8628
11201SOL     OW35609   0.136   1.613   1.501 -0.3253  0.2680  0.4462
11201SOL    HW135610   0.097   1.547   1.444  0.6348 -0.6534  0.8276
11201SOL    HW235611   0.230   1.593   1.501 -0.0823  1.3223  0.9740
11202SOL     OW35612   5.605   5.717   0.448  0.1307  0.2112 -0.1597
11202SOL    HW135613   5.665   5.752   0.514  0.7916 -2.8137  1.0331
11202SOL    HW235614   5.660   5.699   0.372 -0.0765  1.0824 -0.5244
11203SOL     OW35615  10.694   9.117   0.636 -0.2636  0.7282  0.3386
11203SOL    HW135616  10.762   9.183   0.646  0.5936 -0.2713  1.3451
11203SOL    HW235617  10.614   9.167   0.621  0.4811  1.9645  0.3845
11204SOL     OW35618   4.306   4.699   6.306  0.2952 -0.2694 -0.3515
11204SOL    HW135619   4.244   4.668   6.371 -0.1281  2.3700  0.6342
11204SOL    HW235620   4.252   4.724   6.231  0.4114 -0.2626 -0.4331
11205SOL     OW35621   0.943  11.094   0.297  0.0567 -0.1311  0.9583
11205SOL    HW135622   0.950  11.052   0.382  0.1165  1.3259  1.7026
11205SOL    HW235623   0.926  11.186   0.317 -1.6754 -0.0538 -0.6107
11206SOL     OW35624   6.581   6.146   2.279 -0.2227 -0.1370 -0.5312
11206SOL    HW135625   6.549   6.065   2.238  0.7957 -0.4878 -0.6700
11206SOL    HW235626   6.575   6.129   2.373 -3.5193  1.0407 -0.4019
11207SOL     OW35627   2.020   2.343   7.044 -0.9149 -0.6813 -0.5759
11207SOL    HW135628   1.958   2.279   7.010 -1.6491 -0.4006  0.1921
11207SOL    HW235629   1.982   2.371   7.128 -0.6247  0.7512 -0.8889
11208SOL     OW35630   1.221   3.544   8.715  0.0386  0.8693  0.2921
11208SOL    HW135631   1.239   3.636   8.700  1.4641  0.5516 -0.1012
11208SOL    HW235632   1.307   3.503   8.723 -0.5042 -0.6366 -0.9307
11209SOL     OW35633   5.194   7.688   2.610 -0.1594  0.8316  0.0220
11209SOL    HW135634   5.219   7.656   2.523 -0.8926 -0.8696  0.3995
11209SOL    HW235635   5.106   7.725   2.597 -1.1180 -1.1909  0.3583
11210SOL     OW35636   3.213   5.225  10.136  0.0058  0.4931  0.3603
11210SOL    HW135637   3.126   5.251  10.105 -0.5684 -0.9213  0.6733
11210SOL    HW235638   3.219   5.262  10.224 -0.7770 -0.3382  0.7868
11211SOL     OW35639   7.140   3.753   4.938 -0.2514  0.6273  0.1492
11211SOL    HW135640   7.229   3.743   4.973 -0.0956 -0.3205 -0.4790
11211SOL    HW235641   7.119   3.845   4.955  0.9324  0.9302  0.1306
11212SOL     OW35642   8.499   7.541   3.318  0.1457  0.4395 -0.5972
11212SOL    HW135643   8.514   7.546   3.224 -0.4439 -1.2549 -0.8027
11212SOL    HW235644   8.583   7.510   3.353  0.1805  0.5173 -0.6088
11213SOL     OW35645   6.638   6.514   1.560  0.0303 -0.3656 -0.4304
11213SOL    HW135646   6.576   6.443   1.544  0.4724 -0.7205 -0.5848
11213SOL    HW235647   6.612   6.550   1.645 -0.6996 -0.1818 -0.7238
11214SOL     OW35648   3.002   1.621   2.020  0.5946  0.1158 -0.0856
11214SOL    HW135649   2.949   1.574   2.085  2.0285  1.4850  2.2305
11214SOL    HW235650   3.092   1.609   2.049  1.2374  1.4068 -1.4063
11215SOL     OW35651   2.194  10.847   0.591 -0.3185  0.9174 -0.4301
11215SOL    HW135652   2.142  10.866   0.513  2.6175  1.7543 -2.3625
11215SOL    HW235653   2.231  10.760   0.575  0.4828  1.1820 -0.0844
11216SOL     OW35654   3.135   2.434  10.821  0.1843 -0.0600  0.4702
11216SOL    HW135655   3.127   2.528  10.806  0.3070 -0.3792 -2.0280
11216SOL    HW235656   3.218   2.410  10.781 -0.0390 -1.3141  0.7077
11217SOL     OW35657   2.059   9.470   9.362  0.2723  0.0489 -0.4859
11217SOL    HW135658   2.113   9.526   9.417 -1.3777  1.9094 -0.6436
11217SOL    HW235659   1.988   9.442   9.419 -0.0962 -0.0724 -0.9940
11218SOL     OW35660   3.128   6.475   5.850 -0.2178 -0.2088  0.0952
11218SOL    HW135661   3.059   6.429   5.802 -0.2109 -1.3787  1.1630
11218SOL    HW235662   3.197   6.489   5.785 -0.6957 -0.7032 -0.5331
11219SOL     OW35663   6.757   4.888   1.947 -0.1728  1.4739  0.4283
11219SOL    HW135664   6.723   4.815   1.999 -0.3897  1.1663 -0.1321
11219SOL    HW235665   6.836   4.916   1.993  0.5799  0.1062  0.0065
11220SOL     OW35666   8.708   0.914   4.413 -0.7545 -0.4518  0.9054
11220SOL    HW135667   8.802   0.930   4.408 -0.8319  0.6615  2.3706
11220SOL    HW235668   8.670   0.977   4.352 -0.4646 -2.8717 -1.9986
11221SOL     OW35669   1.259   9.645   9.000 -0.1137 -0.0192  0.4786
11221SOL    HW135670   1.308   9.658   9.082 -2.6802  1.5285  1.8933
11221SOL    HW235671   1.301   9.704   8.938  0.3809  0.5971  1.3668
11222SOL     OW35672   9.869   7.734   2.553  0.3991  0.9262  0.6675
11222SOL    HW135673   9.949   7.786   2.551  0.6896  0.5658 -1.9599
11222SOL    HW235674   9.801   7.793   2.586  0.6819  3.1367 -2.3028
11223SOL     OW35675   0.719   4.727   3.957 -0.0636  0.1185  0.1286
11223SOL    HW135676   0.747   4.669   3.888  1.8024  3.7385 -2.4876
11223SOL    HW235677   0.788   4.723   4.023  0.6497  0.2534 -0.6078
11224SOL     OW35678   4.990   7.350  10.840  0.2376  0.6224 -0.3663
11224SOL    HW135679   4.895   7.343  10.838  0.1703 -1.2608  2.5704
11224SOL    HW235680   5.021   7.262  10.817  1.1354  0.6814  0.5286
11225SOL     OW35681   8.973   7.370   8.192  0.6795 -0.3015 -0.1669
11225SOL    HW135682   8.909   7.350   8.260  1.9721 -2.2913  0.5734
11225SOL    HW235683   8.922   7.400   8.118 -1.0759 -1.4440  0.5255
11226SOL     OW35684   2.142   3.337   3.540  0.1034  1.1509 -0.5045
11226SOL    HW135685   2.113   3.287   3.617 -1.2540  1.4576 -0.7920
11226SOL    HW235686   2.065   3.341   3.484  0.3307  3.0829 -0.7444
11227SOL     OW35687   0.397   0.036   4.677  0.0825  0.0905 -0.3307
11227SOL    HW135688   0.395  -0.017   4.756 -1.0790 -0.1906 -0.5215
11227SOL    HW235689   0.309   0.028   4.640  0.3239  0.9533 -1.1635
11228SOL     OW35690  10.673   4.504   1.752 -0.3938 -0.0280  0.1977
11228SOL    HW135691  10.743   4.538   1.808 -0.1221 -0.4097  0.0944
11228SOL    HW235692  10.669   4.411   1.772 -0.4385 -0.1272 -0.2621
11229SOL     OW35693   3.566   1.569   7.075  0.0417 -0.2569 -0.2271
11229SOL    HW135694   3.498   1.578   7.009 -0.0470 -0.9830 -0.2384
11229SOL    HW235695   3.521   1.539   7.154  0.2280  0.0628  0.0044
11230SOL     OW35696   5.574   7.403   7.887 -0.2527  0.2893  0.2719
11230SOL    HW135697   5.657   7.444   7.911  1.1719 -1.4836 -1.3225
11230SOL    HW235698   5.547   7.448   7.806  1.1242 -1.4755 -1.2721
11231SOL     OW35699   8.446   0.573   1.601  0.2089  0.3725  0.0425
11231SOL    HW135700   8.510   0.582   1.671 -0.1915  1.7380  0.2640
11231SOL    HW235701   8.481   0.624   1.529 -0.2350  0.4536 -0.1209
11232SOL     OW35702   7.259   2.053   0.153 -0.4526  0.2616  0.1137
11232SOL    HW135703   7.231   2.141   0.128  0.1224  0.3193 -0.3732
11232SOL    HW235704   7.332   2.067   0.213  0.8202  0.1495 -1.3388
11233SOL     OW35705   0.109   8.473   2.973  0.4438  0.6424 -0.6845
11233SOL    HW135706   0.075   8.512   3.053  1.1932  0.2598 -0.1660
11233SOL    HW235707   0.031   8.448   2.924 -0.0930 -1.3956  1.0523
11234SOL     OW35708   9.522   0.473   5.349  0.5272 -0.3406  0.5622
11234SOL    HW135709   9.434   0.488   5.383  1.4136  0.6707  2.5555
11234SOL    HW235710   9.563   0.416   5.413  0.6731 -2.7194 -1.4970
11235SOL     OW35711   4.272  10.206   0.878  0.4054  0.0432 -0.0482
11235SOL    HW135712   4.276  10.294   0.842  0.4085  0.0921  0.0723
11235SOL    HW235713   4.212  10.159   0.820 -0.0996  0.2992  0.2613
11236SOL     OW35714   7.035  10.078   7.436 -0.7049 -0.7381 -0.2639
11236SOL    HW135715   7.092  10.106   7.508 -0.2477 -2.5352  0.1283
11236SOL    HW235716   6.947  10.077   7.473 -0.6155 -0.6011 -0.0474
11237SOL     OW35717   7.167   8.368   1.576 -0.2746  0.2846 -0.2660
11237SOL    HW135718   7.145   8.337   1.664 -0.7503  1.5056  0.0701
11237SOL    HW235719   7.085   8.360   1.527 -0.2749  0.5518 -0.3098
11238SOL     OW35720   3.074   1.012   6.016 -0.3208 -0.1379 -0.3500
11238SOL    HW135721   3.124   1.087   5.983 -1.6462  1.1971  0.5171
11238SOL    HW235722   3.137   0.963   6.069  0.7064  0.0602 -1.3498
11239SOL     OW35723   6.586   3.376   6.307  0.2642  0.4349 -0.4037
11239SOL    HW135724   6.523   3.316   6.267  2.0433 -1.0257 -1.1624
11239SOL    HW235725   6.559   3.463   6.276 -1.1759 -0.1651 -0.9372
11240SOL     OW35726   8.569   7.335  10.237  0.0354  0.2890  0.5140
11240SOL    HW135727   8.528   7.256  10.273  2.0622 -1.5621 -0.9351
11240SOL    HW235728   8.661   7.312  10.228  0.3246  2.0218 -2.0397
11241SOL     OW35729   0.036   3.332   8.625  0.2025  0.0167  0.0756
11241SOL    HW135730   0.127   3.337   8.653 -0.3267  1.2990  1.7320
11241SOL    HW235731  -0.001   3.258   8.673  0.2661 -0.2441 -0.2755
11242SOL     OW35732  11.041   5.647   9.550  1.1025  0.1532  0.0056
11242SOL    HW135733  11.027   5.598   9.469  1.6131  0.6221 -0.3757
11242SOL    HW235734  11.040   5.580   9.619  2.8382 -0.5669 -0.6008
11243SOL     OW35735   8.377   2.403   0.890  0.0095  0.5931  0.6567
11243SOL    HW135736   8.284   2.384   0.875  0.3835 -0.1273 -0.9291
11243SOL    HW235737   8.420   2.318   0.883  0.7877  0.8966  1.5608
11244SOL     OW35738   6.269   8.486   3.455 -0.3163  0.2127  0.4087
11244SOL    HW135739   6.287   8.393   3.438 -1.4314  0.3335 -1.6787
11244SOL    HW235740   6.349   8.531   3.429 -1.0340  0.1218 -2.2696
11245SOL     OW35741   9.792  10.000   0.073  0.4889 -0.7660 -0.0978
11245SOL    HW135742   9.788   9.971  -0.018  1.3726 -2.8729  0.4750
11245SOL    HW235743   9.874   9.963   0.107 -0.5397 -1.3366  1.9580
11246SOL     OW35744   2.903   3.530   4.571 -0.1944  0.0012 -0.2341
11246SOL    HW135745   2.839   3.468   4.606 -1.2398 -0.3691 -2.6400
11246SOL    HW235746   2.921   3.498   4.482  0.3700  2.3191 -1.0162
11247SOL     OW35747   1.786   6.791  11.062 -0.1632 -0.0692 -0.4519
11247SOL    HW135748   1.721   6.816  10.996 -1.8975 -1.5022  0.6325
11247SOL    HW235749   1.741   6.800  11.146  1.3716 -0.1715  0.4309
11248SOL     OW35750   5.487   8.719   8.621 -0.2425 -0.1767 -0.0966
11248SOL    HW135751   5.559   8.657   8.633 -1.1264 -0.7286  4.0332
11248SOL    HW235752   5.420   8.669   8.574  1.1956 -0.3125 -2.1373
11249SOL     OW35753   6.781   8.194   8.412  0.2310  0.6333 -0.2693
11249SOL    HW135754   6.821   8.248   8.480 -2.1134  2.0907  0.1050
11249SOL    HW235755   6.704   8.244   8.385 -0.4969 -1.2587 -1.9749
11250SOL     OW35756   5.733   4.328   3.128  0.6318  0.4814 -0.5318
11250SOL    HW135757   5.649   4.372   3.113 -0.1593 -1.1203 -1.0998
11250SOL    HW235758   5.763   4.362   3.212 -2.2094 -1.1800  1.3624
11251SOL     OW35759  10.957   6.214   6.894 -0.0777  0.9775  0.3283
11251SOL    HW135760  11.047   6.247   6.887 -0.1709  1.1492 -0.0637
11251SOL    HW235761  10.905   6.274   6.842 -1.2037  3.7107  4.1529
11252SOL     OW35762   9.591   3.183   9.935 -0.2496  0.3502  0.8912
11252SOL    HW135763   9.527   3.113   9.948  0.4106 -0.3038  0.6674
11252SOL    HW235764   9.643   3.183  10.016  2.1051 -1.9064 -0.4512
11253SOL     OW35765   7.404   8.233   4.496  0.2252  0.4288 -0.3345
11253SOL    HW135766   7.375   8.305   4.552 -1.0457 -0.6079  0.4034
11253SOL    HW235767   7.473   8.190   4.546 -0.2338  0.0954  0.0264
11254SOL     OW35768   4.622   6.062   6.820 -0.1939 -0.7659  0.1500
11254SOL    HW135769   4.624   6.033   6.728 -0.5490  0.6283 -0.3332
11254SOL    HW235770   4.530   6.080   6.837  0.2369  3.3523 -0.7542
11255SOL     OW35771   3.733   6.941   4.448 -0.1427 -0.5315 -0.2331
11255SOL    HW135772   3.741   6.869   4.386  0.0255 -0.2893 -0.5000
11255SOL    HW235773   3.812   6.934   4.503 -0.2302 -0.6720 -0.1236
11256SOL     OW35774   9.520   8.923   8.167 -0.0636  0.3086 -0.2233
11256SOL    HW135775   9.509   9.003   8.115 -0.6125  1.3235  1.3675
11256SOL    HW235776   9.435   8.911   8.211  0.9291  0.6174  1.9148
11257SOL     OW35777   4.235  10.074   3.708  0.0922 -0.0720 -0.1097
11257SOL    HW135778   4.314  10.108   3.665  1.6647  0.7220  3.0922
11257SOL    HW235779   4.190  10.151   3.740 -0.9956 -0.6305 -0.2522
11258SOL     OW35780   4.268  10.158  10.588  0.1752  0.5616 -0.7249
11258SOL    HW135781   4.335  10.106  10.632  1.2245 -0.2249 -3.0738
11258SOL    HW235782   4.286  10.249  10.614  0.9140  0.1613  0.1850
11259SOL     OW35783   3.720   1.576   5.277 -0.0726  0.0856  0.1731
11259SOL    HW135784   3.793   1.599   5.220  0.8340 -0.8253  0.9326
11259SOL    HW235785   3.675   1.659   5.294 -1.4546  0.1936 -3.2383
11260SOL     OW35786   1.128   1.785   1.446  0.1524  0.0751 -0.3996
11260SOL    HW135787   1.222   1.802   1.447  0.1866  0.2922 -2.4068
11260SOL    HW235788   1.090   1.855   1.499  1.1088 -0.0675  0.5046
11261SOL     OW35789   7.372   3.307   8.946 -0.0754  0.0524 -0.5022
11261SOL    HW135790   7.356   3.216   8.919 -1.3090  0.5877 -1.6787
11261SOL    HW235791   7.344   3.310   9.037 -1.5338 -0.4013 -0.9027
11262SOL     OW35792  10.087   5.189   0.104 -0.4236 -0.0264 -0.4375
11262SOL    HW135793  10.162   5.231   0.146 -2.6008  1.9723  1.7258
11262SOL    HW235794  10.033   5.157   0.177 -1.8515 -1.1558 -1.9055
11263SOL     OW35795   2.869   8.346  11.006 -0.6960 -0.3150  0.0697
11263SOL    HW135796   2.896   8.292  10.933  1.4868  1.0303 -0.2074
11263SOL    HW235797   2.860   8.285  11.080 -0.5819 -1.3513 -0.7584
11264SOL     OW35798   6.496   1.870   1.354 -0.2111 -0.7701 -0.2021
11264SOL    HW135799   6.511   1.961   1.379 -1.0127 -0.8090  0.4816
11264SOL    HW235800   6.410   1.870   1.312  0.1916 -1.0659 -1.0499
11265SOL     OW35801   9.848   5.049   8.915  0.4554  0.6176 -0.1405
11265SOL    HW135802   9.811   5.001   8.841 -1.3345  0.6731  0.6733
11265SOL    HW235803   9.841   5.141   8.890 -1.3851  0.7120  0.5939
11266SOL     OW35804   3.749   0.454   6.064  0.0894 -0.4232 -0.5419
11266SOL    HW135805   3.839   0.431   6.041  0.3738  0.2708 -0.1557
11266SOL    HW235806   3.757   0.501   6.148 -0.5670  0.1434 -0.7892
11267SOL     OW35807   0.783   2.537   2.064 -0.1320 -0.4942  0.2967
11267SOL    HW135808   0.784   2.614   2.007  0.7661 -0.4537  0.3540
11267SOL    HW235809   0.861   2.546   2.119 -3.0055  1.7131  4.5874
11268SOL     OW35810   7.977   6.607   2.099 -0.3889 -0.0099 -0.1745
11268SOL    HW135811   7.980   6.692   2.055  2.6936 -1.3637 -3.0344
11268SOL    HW235812   8.048   6.612   2.164  0.7934 -0.7915 -1.3613
11269SOL     OW35813   3.317   9.523   4.624  0.0653 -0.2225  0.4717
11269SOL    HW135814   3.242   9.463   4.621  0.9890 -1.4064  0.1352
11269SOL    HW235815   3.314   9.560   4.712  0.5621 -2.2528  1.4088
11270SOL     OW35816  10.579   4.494   5.905  0.5465  0.0302 -1.0483
11270SOL    HW135817  10.581   4.455   5.817 -0.4912 -0.1117 -1.0168
11270SOL    HW235818  10.503   4.552   5.904 -0.0610 -0.7045  0.0439
11271SOL     OW35819   3.138   3.596   6.919 -0.5146  0.1694  0.0954
11271SOL    HW135820   3.106   3.506   6.918  0.7240 -0.2847 -1.3638
11271SOL    HW235821   3.095   3.638   6.844 -2.1004  1.2248  1.4970
11272SOL     OW35822   7.868   6.912   3.962  0.3914  0.2302  0.1727
11272SOL    HW135823   7.891   6.996   3.923  2.1071 -0.0262  0.5452
11272SOL    HW235824   7.862   6.852   3.888 -1.0864  0.7007 -0.1195
11273SOL     OW35825   0.597   2.634   1.838 -0.0204 -0.0508 -0.1389
11273SOL    HW135826   0.684   2.630   1.798 -0.7187 -0.8526 -1.6681
11273SOL    HW235827   0.538   2.604   1.769 -1.1760 -3.0435  1.9171
11274SOL     OW35828   4.439   1.621   0.085 -0.4171 -0.3367 -0.4270
11274SOL    HW135829   4.523   1.667   0.090 -0.0041 -1.1130 -0.1177
11274SOL    HW235830   4.462   1.528   0.094 -1.3945 -0.4984  0.6138
11275SOL     OW35831   7.411   1.550   7.897  0.4761 -0.1109 -0.9242
11275SOL    HW135832   7.342   1.586   7.840  1.6754 -0.6341 -2.7927
11275SOL    HW235833   7.477   1.619   7.902 -0.1359  0.4105  0.9129
11276SOL     OW35834   6.804   5.062   0.319  0.5399  0.3728  0.0062
11276SOL    HW135835   6.733   5.037   0.260  0.8811 -0.3524 -0.1127
11276SOL    HW235836   6.780   5.023   0.403  0.6075  0.4499  0.0614
11277SOL     OW35837   6.692   5.425  11.052  0.2290 -0.0398  0.1520
11277SOL    HW135838   6.755   5.355  11.036  0.3916  0.3903 -1.2086
11277SOL    HW235839   6.609   5.380  11.068  0.1609 -0.5531 -1.5042
11278SOL     OW35840  10.385   8.046   4.860 -0.1303  0.2246  0.5970
11278SOL    HW135841  10.357   7.986   4.929  0.2280 -0.3785  0.2239
11278SOL    HW235842  10.437   8.112   4.905 -1.0523  0.6225  1.1023
11279SOL     OW35843   1.326   1.389   7.383 -0.3926  0.2026  0.8622
11279SOL    HW135844   1.354   1.481   7.387 -2.3108  0.8217  0.8327
11279SOL    HW235845   1.352   1.352   7.467 -0.3057  0.9926  1.1905
11280SOL     OW35846   3.303   5.666   8.199  0.3905 -0.8774 -0.1068
11280SOL    HW135847   3.244   5.592   8.214  0.9573 -1.2099  0.5524
11280SOL    HW235848   3.386   5.626   8.174  0.3724 -0.4149 -0.9287
11281SOL     OW35849   1.586   7.905   8.922  0.1737 -0.1656 -0.5772
11281SOL    HW135850   1.659   7.906   8.984  0.1829 -0.9285 -0.5739
11281SOL    HW235851   1.628   7.906   8.836  0.1592  1.2350 -0.5972
11282SOL     OW35852   1.671   5.732   4.564 -0.2882 -0.3076 -0.5532
11282SOL    HW135853   1.674   5.784   4.484  0.9138  1.2632  0.4580
11282SOL    HW235854   1.620   5.785   4.625  3.9418  1.6340  1.6832
11283SOL     OW35855   2.851  10.829  10.885 -0.3511 -0.4389 -1.1731
11283SOL    HW135856   2.938  10.802  10.913  0.3068  2.0055 -0.6878
11283SOL    HW235857   2.791  10.777  10.940  0.8585  0.4643  1.1221
11284SOL     OW35858   9.513   4.683   4.886 -0.0581 -0.0292  0.5220
11284SOL    HW135859   9.554   4.767   4.866 -0.3812  0.5708  2.2398
11284SOL    HW235860   9.420   4.697   4.866 -0.1371  0.0794  0.9606
11285SOL     OW35861   3.718   1.899   2.545 -0.0828 -0.8305  0.1299
11285SOL    HW135862   3.798   1.847   2.546  0.4300 -0.2582 -2.5993
11285SOL    HW235863   3.659   1.851   2.487  0.7098  1.8509 -3.2006
11286SOL     OW35864   0.368   8.630   3.310  0.7414 -0.4246  0.0198
11286SOL    HW135865   0.429   8.582   3.366  0.6608 -1.9611 -1.1448
11286SOL    HW235866   0.423   8.661   3.237  0.1708 -1.8547 -1.0597
11287SOL     OW35867   2.706   7.756   4.964 -0.1528 -0.0768  0.5754
11287SOL    HW135868   2.706   7.721   5.054 -2.5252  0.2558  0.7642
11287SOL    HW235869   2.653   7.694   4.914  1.0369 -0.1860 -0.6117
11288SOL     OW35870   2.129   3.892   2.151  0.0867  1.1612  0.3857
11288SOL    HW135871   2.193   3.900   2.222  3.6488  2.0890 -2.6449
11288SOL    HW235872   2.058   3.952   2.177  1.9303  2.6226  2.4941
11289SOL     OW35873   9.456   6.652   1.146  0.0654  0.2054 -0.2564
11289SOL    HW135874   9.537   6.696   1.170 -0.2024  0.5502  0.0192
11289SOL    HW235875   9.482   6.561   1.130  0.3971  0.1588  0.4947
11290SOL     OW35876   9.891   7.183   6.818 -0.2167 -0.2546  0.2132
11290SOL    HW135877   9.802   7.169   6.786 -0.4720  0.8826  0.3741
11290SOL    HW235878   9.919   7.264   6.774  0.6011 -0.4032  0.4486
11291SOL     OW35879   3.749   9.387   1.381  0.4851 -0.9009  0.2754
11291SOL    HW135880   3.673   9.343   1.343 -0.0534 -0.4240  0.8037
11291SOL    HW235881   3.792   9.428   1.306 -1.2121  1.0137  0.2808
11292SOL     OW35882   5.160   1.300   9.979  0.0258  0.9631 -0.7850
11292SOL    HW135883   5.155   1.223   9.924  1.6736  0.8970 -0.8827
11292SOL    HW235884   5.253   1.310   9.999 -0.3195  2.0670  0.4416
11293SOL     OW35885   5.906   0.438   1.128  0.0018 -0.8007  0.1216
11293SOL    HW135886   5.991   0.466   1.161  0.1180 -1.0842  0.0661
11293SOL    HW235887   5.848   0.441   1.205 -0.2107  0.4483 -0.0645
11294SOL     OW35888   0.346   5.339   1.739 -0.2719  0.6771  0.2388
11294SOL    HW135889   0.387   5.274   1.796 -1.3151 -0.2185  0.0032
11294SOL    HW235890   0.369   5.312   1.650  0.0537  1.1724  0.1666
11295SOL     OW35891   3.653  10.349   0.372 -0.0298 -0.9142 -0.6910
11295SOL    HW135892   3.687  10.409   0.306  2.3444 -1.0722  0.3093
11295SOL    HW235893   3.617  10.405   0.440  0.7358 -0.6643 -0.4907
11296SOL     OW35894   6.371   5.667   9.292  0.2656  0.2835 -0.7433
11296SOL    HW135895   6.355   5.607   9.364 -0.3843  2.9338  1.4904
11296SOL    HW235896   6.299   5.653   9.231 -0.7259 -0.1137  0.4978
11297SOL     OW35897   7.054   7.489   5.606  0.0405  0.4079  0.0124
11297SOL    HW135898   6.969   7.510   5.568  0.5789 -1.1369 -2.2422
11297SOL    HW235899   7.112   7.477   5.530  2.3438  1.5996  1.4620
11298SOL     OW35900   1.048   0.689   2.596  0.1480 -0.3788 -0.3273
11298SOL    HW135901   1.078   0.749   2.664  0.7025 -0.1558 -0.7611
11298SOL    HW235902   0.963   0.724   2.569  0.1382 -0.2026 -0.0720
11299SOL     OW35903   6.463   9.954   5.045  0.1239 -0.3552 -0.2198
11299SOL    HW135904   6.459   9.884   5.110 -0.1500 -2.1776 -2.1325
11299SOL    HW235905   6.417   9.920   4.969 -3.5036  3.3526 -0.0294
11300SOL     OW35906   0.822   9.457   9.726  0.0973 -0.3726  0.7803
11300SOL    HW135907   0.910   9.445   9.761  1.3710  1.0018 -1.7071
11300SOL    HW235908   0.776   9.507   9.794  2.0677  1.1696  1.0849
11301SOL     OW35909   9.674   9.762   4.960 -0.2424 -0.1646  0.5198
11301SOL    HW135910   9.682   9.836   5.020  1.1580  0.8808 -0.8826
11301SOL    HW235911   9.649   9.802   4.876 -2.5551 -1.6217  0.4276
11302SOL     OW35912  10.948   5.825   5.480 -0.0907 -0.3010 -0.3337
11302SOL    HW135913  10.878   5.760   5.486  1.4169 -2.1320 -1.4508
11302SOL    HW235914  11.028   5.776   5.500  1.0892  1.2904 -0.9182
11303SOL     OW35915   0.586   7.618   6.094  0.0024  0.0462  0.1952
11303SOL    HW135916   0.632   7.552   6.146 -0.2401  0.6375  1.2004
11303SOL    HW235917   0.493   7.600   6.110 -0.0674  0.9979  1.0090
11304SOL     OW35918  10.033   2.756   9.144 -0.4036  0.3160 -0.0038
11304SOL    HW135919  10.081   2.675   9.159  0.1126  0.6375  0.1460
11304SOL    HW235920  10.083   2.822   9.192 -1.3340  0.5640  0.6416
11305SOL     OW35921   5.054   1.069  10.463  0.0379  0.0648 -0.6526
11305SOL    HW135922   5.115   0.995  10.464  0.3707  0.3366 -0.6312
11305SOL    HW235923   5.042   1.090  10.371  0.4289  0.3753 -0.6382
11306SOL     OW35924   6.286   1.194   9.848  0.2372 -1.2559 -0.2876
11306SOL    HW135925   6.357   1.168   9.790  0.0866  0.9715 -1.5502
11306SOL    HW235926   6.208   1.151   9.811  0.1399  0.1371 -1.8303
11307SOL     OW35927   5.470   5.709   4.728  0.1121  0.7318 -0.7269
11307SOL    HW135928   5.462   5.614   4.719  1.0506  0.5650  0.0411
11307SOL    HW235929   5.559   5.729   4.696 -0.3994  1.4826 -1.7562
11308SOL     OW35930   9.860   6.992   1.778 -0.2784 -0.3395  0.4197
11308SOL    HW135931   9.767   6.980   1.761 -0.3544  1.2628 -0.4463
11308SOL    HW235932   9.901   6.912   1.742 -1.1950 -0.4673 -0.3771
11309SOL     OW35933   2.294  10.811   8.811  0.3796 -0.1932 -0.1137
11309SOL    HW135934   2.329  10.741   8.757  1.2762  0.9929 -1.1459
11309SOL    HW235935   2.331  10.891   8.774 -0.8676  0.8699  0.8046
11310SOL     OW35936  10.487   9.658   4.990  0.1041  0.3992  0.0022
11310SOL    HW135937  10.449   9.736   5.030  1.2229  0.9418  0.0453
11310SOL    HW235938  10.411   9.603   4.968 -0.6048  0.6757  1.6247
11311SOL     OW35939   8.294   9.528   4.541 -0.2807  0.2250  0.2481
11311SOL    HW135940   8.224   9.589   4.564 -1.4114  0.1421 -2.5243
11311SOL    HW235941   8.312   9.547   4.449 -0.2429 -3.1605 -0.5558
11312SOL     OW35942   2.105   1.163   7.060 -0.3252  0.0158 -0.2159
11312SOL    HW135943   2.072   1.227   7.123  2.4110  0.5734  0.8232
11312SOL    HW235944   2.034   1.153   6.997 -1.9694  1.8738  1.1800
11313SOL     OW35945   4.269   0.350   5.835 -0.2364 -0.1765  0.4346
11313SOL    HW135946   4.272   0.254   5.835 -0.1278 -0.1869  1.3920
11313SOL    HW235947   4.268   0.374   5.742  2.4080 -1.0306  0.0924
11314SOL     OW35948   9.885   8.775   4.522  0.3036  0.5793  0.4230
11314SOL    HW135949   9.919   8.695   4.562 -1.2866 -0.5706 -0.4518
11314SOL    HW235950   9.807   8.796   4.573 -0.6843  0.1523 -0.8794
11315SOL     OW35951   1.155  10.933   2.795 -0.7791  0.6833 -0.3629
11315SOL    HW135952   1.127  11.025   2.801 -0.7349  0.6922 -0.2880
11315SOL    HW235953   1.117  10.902   2.713 -1.1750  0.6390 -0.1652
11316SOL     OW35954   3.880   5.096   1.652  0.8453 -0.4721  0.2598
11316SOL    HW135955   3.824   5.131   1.722  2.4250  0.4365  1.1299
11316SOL    HW235956   3.856   5.004   1.646  0.9137 -0.6749  2.2872
11317SOL     OW35957   5.892   9.295   9.218  0.0685  0.4304  0.0009
11317SOL    HW135958   5.807   9.298   9.176  0.2915  0.0126 -0.4979
11317SOL    HW235959   5.951   9.259   9.151  0.4648 -0.0675  0.6018
11318SOL     OW35960  10.186   6.121   8.607 -0.5256  0.0670  0.2056
11318SOL    HW135961  10.220   6.199   8.652 -1.5427 -0.1377  1.3829
11318SOL    HW235962  10.094   6.141   8.589 -0.9092 -0.9879  0.8724
11319SOL     OW35963   1.605   5.927  10.244 -0.2631  0.0323 -0.7836
11319SOL    HW135964   1.516   5.944  10.274  0.3752  1.3692  0.5500
11319SOL    HW235965   1.625   6.001  10.185  0.1070  0.0008 -0.7030
11320SOL     OW35966   2.025   7.055   1.011  0.0049 -0.3966 -0.1089
11320SOL    HW135967   1.975   6.989   0.963  1.0216 -1.4691  0.2454
11320SOL    HW235968   2.080   7.004   1.071  1.8765  0.6592 -0.8122
11321SOL     OW35969   3.063   9.503   1.906 -0.4188 -0.6602  0.2810
11321SOL    HW135970   3.148   9.496   1.861 -0.1421  0.3928  0.6273
11321SOL    HW235971   3.044   9.596   1.908 -2.8918 -1.0081 -2.1426
11322SOL     OW35972   2.856   4.250   1.085 -0.3235  0.1293  0.1540
11322SOL    HW135973   2.869   4.343   1.067  0.6279 -0.0904 -0.3490
11322SOL    HW235974   2.761   4.241   1.098 -0.5586  0.9805 -0.8512
11323SOL     OW35975  10.059   7.732   8.074  0.6695  0.4990 -0.0462
11323SOL    HW135976  10.093   7.769   8.155 -0.8152  1.5799  0.1207
11323SOL    HW235977   9.980   7.686   8.100  1.7885 -1.7770 -0.4609
11324SOL     OW35978   0.392   2.290   3.330  0.1471  0.4393 -0.0356
11324SOL    HW135979   0.362   2.277   3.240 -0.6992 -0.7574  0.3916
11324SOL    HW235980   0.323   2.343   3.371 -1.1224 -1.7249  0.7569
11325SOL     OW35981   4.258   7.676   8.117 -0.2390 -0.2705  0.1818
11325SOL    HW135982   4.196   7.608   8.142 -2.1047  0.4775 -2.0919
11325SOL    HW235983   4.204   7.750   8.090  1.5232  0.1334 -2.7286
11326SOL     OW35984  10.795   4.867   7.508  0.1342 -0.1569 -0.2874
11326SOL    HW135985  10.736   4.879   7.433  0.7801  0.9052 -0.6568
11326SOL    HW235986  10.739   4.834   7.578 -1.0526  1.4183 -0.4285
11327SOL     OW35987  10.068   5.200   0.690 -0.0525  0.2854 -0.5072
11327SOL    HW135988  10.162   5.182   0.695  0.3443  2.3733  0.9472
11327SOL    HW235989  10.036   5.188   0.780 -1.3248 -0.9573 -1.0879
11328SOL     OW35990   7.245   9.315   6.184  0.3858  0.4545  0.4936
11328SOL    HW135991   7.189   9.360   6.246 -0.5416 -0.4947  0.3727
11328SOL    HW235992   7.320   9.286   6.236 -1.0968 -1.6863  1.5864
11329SOL     OW35993   2.752   7.071   8.779 -0.6045 -0.5339 -0.3518
11329SOL    HW135994   2.721   7.074   8.689  0.1518 -0.5171 -0.6221
11329SOL    HW235995   2.750   7.162   8.809 -0.8235 -0.5363 -0.3565
11330SOL     OW35996   8.350   7.995   8.314  0.3610  0.3759 -0.0759
11330SOL    HW135997   8.405   7.952   8.249  0.2298  0.2898 -0.1304
11330SOL    HW235998   8.266   7.948   8.310  0.6578 -0.2713  0.8330
11331SOL     OW35999  10.624   6.680   7.790 -0.3340  0.0867  0.2056
11331SOL    HW136000  10.677   6.758   7.771  0.7261 -0.8257 -0.7224
11331SOL    HW236001  10.535   6.705   7.762 -0.2079  1.2819  0.8183
11332SOL     OW36002   5.752   8.073   0.161  0.1530 -0.3032 -0.2223
11332SOL    HW136003   5.692   8.079   0.087 -1.1714  1.1540  0.9234
11332SOL    HW236004   5.823   8.134   0.140 -0.8181  1.0173  0.1989
11333SOL     OW36005   5.162   6.493   9.193  0.5804  0.3678  0.2700
11333SOL    HW136006   5.157   6.513   9.100 -0.2992  1.3115  0.5018
11333SOL    HW236007   5.101   6.554   9.235  0.9173 -0.0682  1.4623
11334SOL     OW36008   0.608   9.109   9.609  0.0322 -0.5093 -0.0549
11334SOL    HW136009   0.606   9.197   9.571 -1.6514 -1.2595 -1.9279
11334SOL    HW236010   0.584   9.121   9.701 -1.6686  0.8953 -0.6230
11335SOL     OW36011   0.819   0.157   7.147  0.2022  0.5878  0.4526
11335SOL    HW136012   0.852   0.180   7.234 -1.5908  0.2273  1.2803
11335SOL    HW236013   0.724   0.169   7.154 -0.1919 -1.3606 -0.8678
11336SOL     OW36014   7.262   3.201  11.032 -0.8915 -0.7385  0.0135
11336SOL    HW136015   7.242   3.291  11.006 -0.8679 -0.7710 -0.1183
11336SOL    HW236016   7.282   3.207  11.125  1.8905 -0.1301 -0.5319
11337SOL     OW36017   9.818   6.649   6.057 -0.0012 -0.2206  0.5073
11337SOL    HW136018   9.749   6.583   6.059 -1.0628  0.8679  2.1076
11337SOL    HW236019   9.852   6.652   6.147 -0.0423  1.4421  0.5035
11338SOL     OW36020   8.476  10.759   4.975  0.2274 -0.1059 -0.1166
11338SOL    HW136021   8.446  10.778   5.064 -0.0146  0.1014 -0.2426
11338SOL    HW236022   8.540  10.828   4.956 -1.1033  0.9680 -0.8048
11339SOL     OW36023   3.119   2.112   9.434  0.2136 -0.5361  0.4589
11339SOL    HW136024   3.043   2.163   9.461  0.0308 -0.4891 -0.1315
11339SOL    HW236025   3.178   2.114   9.509  0.2013  0.5289  0.4433
11340SOL     OW36026   8.175   7.595   0.563  0.5021  0.2098  0.1582
11340SOL    HW136027   8.207   7.577   0.652  1.7418  0.2068 -0.2744
11340SOL    HW236028   8.254   7.606   0.511 -0.2010  1.6741 -0.6593
11341SOL     OW36029   9.292   3.017   1.136 -0.2756  0.2237  0.7916
11341SOL    HW136030   9.344   3.096   1.149 -0.3397  0.2826  0.6930
11341SOL    HW236031   9.236   3.012   1.213 -0.6768  0.5899  0.5301
11342SOL     OW36032   8.461   1.869   9.780 -0.2232 -0.2262  0.3687
11342SOL    HW136033   8.456   1.949   9.832 -1.2617 -0.4384  0.6226
11342SOL    HW236034   8.555   1.854   9.768  0.0601 -0.2280  2.2782
11343SOL     OW36035   3.186   7.229  10.706 -0.5981  0.1773 -0.3417
11343SOL    HW136036   3.122   7.189  10.764 -1.2655  3.3893  1.3904
11343SOL    HW236037   3.135   7.259  10.631  0.1334 -3.2203 -2.4039
11344SOL     OW36038  11.017   7.308   4.283 -0.5624 -0.1105 -0.2894
11344SOL    HW136039  10.955   7.297   4.355  1.1458 -1.5541  1.0552
11344SOL    HW236040  10.989   7.244   4.218 -2.3303  1.4444 -1.1360
11345SOL     OW36041   2.254   1.396   2.027 -0.5246 -0.7621  0.4572
11345SOL    HW136042   2.225   1.384   2.117 -0.2504 -2.7092  0.3296
11345SOL    HW236043   2.266   1.307   1.994  0.6603 -0.0630 -1.0916
11346SOL     OW36044   1.238   3.973   1.715 -0.1630 -0.1731 -0.1055
11346SOL    HW136045   1.296   4.047   1.731 -0.4087 -0.5144  3.0593
11346SOL    HW236046   1.257   3.945   1.626  1.5850  2.2301 -0.5647
11347SOL     OW36047   3.583   4.654   5.683  0.3461  0.4019  0.7412
11347SOL    HW136048   3.548   4.696   5.762 -1.1780  0.2483  0.1748
11347SOL    HW236049   3.624   4.574   5.715 -1.2287 -0.2285  1.2921
11348SOL     OW36050   3.870   0.921   8.750 -0.3026 -0.2440 -0.2424
11348SOL    HW136051   3.818   0.890   8.824 -0.7075 -0.3898 -0.5840
11348SOL    HW236052   3.865   1.017   8.755 -1.8370 -0.2454 -1.1120
11349SOL     OW36053  10.910   3.627   6.986 -0.2476 -0.5446  0.3350
11349SOL    HW136054  10.843   3.667   6.931  0.2004 -0.3425 -0.0650
11349SOL    HW236055  10.957   3.567   6.928  0.7026  0.2097  0.3031
11350SOL     OW36056   0.790  10.431   4.240  0.6185 -0.0953  0.3551
11350SOL    HW136057   0.824  10.399   4.323  0.0553 -0.1318  0.5736
11350SOL    HW236058   0.787  10.354   4.184  0.4974 -0.1724  0.4672
11351SOL     OW36059  10.630  10.409  10.821 -0.0923  0.3330 -0.2031
11351SOL    HW136060  10.554  10.355  10.800 -0.2358  0.0138  1.0192
11351SOL    HW236061  10.598  10.473  10.884  0.1776  1.6170 -1.3295
11352SOL     OW36062   7.904   9.999   8.690 -0.1750 -0.0340 -0.6251
11352SOL    HW136063   7.988   9.980   8.648  0.7129  0.7713  0.7191
11352SOL    HW236064   7.881  10.086   8.659  0.5418  0.6135  0.5889
11353SOL     OW36065   6.374   6.109   1.023 -0.1360  0.9049  0.1224
11353SOL    HW136066   6.439   6.039   1.011 -0.2165  0.7855  0.3767
11353SOL    HW236067   6.426   6.190   1.023  0.0911  0.7632  0.9939
11354SOL     OW36068   9.445   2.071   6.090  0.2217 -0.5834  0.0335
11354SOL    HW136069   9.497   2.026   6.023 -1.4820 -2.9379  0.1631
11354SOL    HW236070   9.453   2.164   6.068  1.7203 -1.1075 -1.9321
11355SOL     OW36071  10.936   2.373   5.946  0.3793 -0.6527 -0.1667
11355SOL    HW136072  10.883   2.452   5.957  0.5845 -0.5917  0.4246
11355SOL    HW236073  10.873   2.302   5.937  0.1940 -0.4147 -0.7468
11356SOL     OW36074   3.818   3.459  10.251  0.4769 -0.1019 -0.0552
11356SOL    HW136075   3.835   3.367  10.270  0.1686 -0.4548 -1.3534
11356SOL    HW236076   3.899   3.490  10.210  0.7321  0.3341  0.7536
11357SOL     OW36077   2.426   7.460  10.477 -0.4142  0.4454 -0.4862
11357SOL    HW136078   2.381   7.396  10.532  1.2295 -2.3240 -2.1115
11357SOL    HW236079   2.360   7.527  10.461 -2.1400 -0.5880  1.6571
11358SOL     OW36080   8.815   3.281   5.792 -0.2903 -0.7287 -0.5054
11358SOL    HW136081   8.898   3.233   5.787  1.0457  1.5010 -1.2840
11358SOL    HW236082   8.770   3.244   5.868  2.4225 -0.5239  1.3231
11359SOL     OW36083   6.997   3.234   7.424  0.2077 -0.6286  0.1321
11359SOL    HW136084   7.005   3.323   7.391 -1.2447  0.6463  2.8825
11359SOL    HW236085   6.944   3.242   7.503  0.4869 -3.8823  0.8043
11360SOL     OW36086   2.054   2.058   0.957  0.2113  0.4762 -0.1995
11360SOL    HW136087   2.031   2.105   0.876 -0.8528  1.5402  0.6809
11360SOL    HW236088   2.147   2.038   0.947 -0.2983 -1.1052 -2.5059
11361SOL     OW36089   4.480   6.556   2.467 -0.1967 -0.5340 -0.5551
11361SOL    HW136090   4.393   6.548   2.506  0.0343  0.0706  0.0984
11361SOL    HW236091   4.479   6.642   2.425  0.7242  0.3483  1.1245
11362SOL     OW36092   5.887   6.199   9.634 -0.5214 -0.0304 -0.0670
11362SOL    HW136093   5.965   6.146   9.648  0.3517  0.9058 -1.2253
11362SOL    HW236094   5.816   6.148   9.672  0.3705 -1.7448 -0.6225
11363SOL     OW36095   0.781   2.184  10.386  0.4773 -0.1934 -0.1342
11363SOL    HW136096   0.849   2.249  10.368  0.6728  0.1633  1.7335
11363SOL    HW236097   0.826   2.115  10.434 -0.4018 -0.0862  0.8754
11364SOL     OW36098   0.781   4.327   8.878  0.4783 -0.3512  0.6293
11364SOL    HW136099   0.764   4.328   8.784  1.1058 -1.8778  0.4699
11364SOL    HW236100   0.719   4.390   8.914 -1.7293 -1.7283 -0.5183
11365SOL     OW36101   0.398   4.910  10.039 -0.2132 -0.4352 -0.0457
11365SOL    HW136102   0.457   4.965  10.090 -0.0540 -0.1246 -0.5592
11365SOL    HW236103   0.327   4.890  10.099 -1.2024  1.8208 -0.3319
11366SOL     OW36104   9.259   1.341   5.689  0.2145  0.2656  0.3618
11366SOL    HW136105   9.302   1.372   5.609 -0.1326  2.0104  0.7954
11366SOL    HW236106   9.239   1.249   5.673  1.6897  0.1390 -0.8821
11367SOL     OW36107   2.139   0.862   0.281 -0.4329 -0.8407  0.0777
11367SOL    HW136108   2.134   0.846   0.375  0.2288 -0.5765  0.1628
11367SOL    HW236109   2.139   0.775   0.242 -0.2473 -0.9616  0.3457
11368SOL     OW36110   9.531   2.835   5.012 -0.0641 -0.2798  0.2015
11368SOL    HW136111   9.483   2.795   4.940 -0.6073 -0.9303  0.8961
11368SOL    HW236112   9.598   2.770   5.035 -0.6913 -0.6473  1.0730
11369SOL     OW36113  11.059   6.487   5.003 -0.2091  0.5094  0.2574
11369SOL    HW136114  10.967   6.485   4.975  0.0926  2.0368 -1.0367
11369SOL    HW236115  11.108   6.506   4.923  1.0836  1.2955  1.1843
11370SOL     OW36116   3.627  10.841   2.652  0.7373  0.5822 -0.1406
11370SOL    HW136117   3.561  10.881   2.708  1.3598  1.3590  0.0596
11370SOL    HW236118   3.684  10.793   2.712 -0.4239 -1.2472 -0.4535
11371SOL     OW36119   6.280  10.180   8.855  0.8846  0.5612 -0.7286
11371SOL    HW136120   6.282  10.269   8.821  1.0860  1.1042  0.6268
11371SOL    HW236121   6.213  10.182   8.924 -0.3671 -0.7912 -1.8261
11372SOL     OW36122   7.503   2.964   5.663 -0.0445 -0.4292  0.4943
11372SOL    HW136123   7.527   2.885   5.615 -1.4306 -0.4393 -0.2369
11372SOL    HW236124   7.483   3.028   5.595 -2.5621 -0.5994  0.9862
11373SOL     OW36125   6.099   3.291   3.854 -0.8049 -0.3013  0.4871
11373SOL    HW136126   6.034   3.358   3.831 -0.1541 -0.0099 -0.5845
11373SOL    HW236127   6.180   3.321   3.814  0.0545 -0.5847  1.9456
11374SOL     OW36128   3.948   4.497   6.361 -0.6036  0.1996  0.3321
11374SOL    HW136129   4.015   4.433   6.337 -1.7678 -1.0265  0.2775
11374SOL    HW236130   3.932   4.481   6.454  0.4093  1.6762  0.7968
11375SOL     OW36131   2.248   6.612  10.559 -0.0136  0.0752 -0.2307
11375SOL    HW136132   2.291   6.696  10.577  0.4604  0.2005 -1.8066
11375SOL    HW236133   2.271   6.557  10.633  0.2257  1.1269  0.5021
11376SOL     OW36134   5.235   7.059   1.291  0.0157  0.3154 -0.6842
11376SOL    HW136135   5.151   7.098   1.313 -1.0443 -1.7839 -0.7641
11376SOL    HW236136   5.274   7.119   1.227 -2.3108  0.3641 -2.1490
11377SOL     OW36137   5.725   2.432   3.619  0.2300  0.0747  0.3359
11377SOL    HW136138   5.745   2.339   3.627  0.6255  0.1875  0.6956
11377SOL    HW236139   5.795   2.476   3.666 -0.9245  0.4789  1.7466
11378SOL     OW36140   1.925   7.143   3.231  1.1049  0.6041 -0.6332
11378SOL    HW136141   1.967   7.138   3.317  1.7342 -3.2679 -0.9455
11378SOL    HW236142   1.998   7.139   3.169  0.5855  2.0408 -1.3727
11379SOL     OW36143   4.319   3.030   3.042  0.1853  0.2322  1.0100
11379SOL    HW136144   4.230   3.056   3.017 -0.9605 -2.0126  2.4017
11379SOL    HW236145   4.324   2.937   3.020  2.4337  0.4360  0.4262
11380SOL     OW36146   8.993   4.177   0.880 -0.0513 -0.1738 -0.5034
11380SOL    HW136147   9.058   4.245   0.858 -0.1622  0.1089  0.0382
11380SOL    HW236148   8.959   4.203   0.965 -0.7663 -0.4100 -0.7097
11381SOL     OW36149   6.460   1.317   5.422 -0.1907  0.1234  0.2753
11381SOL    HW136150   6.421   1.355   5.343 -3.7664 -1.6907  0.9468
11381SOL    HW236151   6.405   1.349   5.493  2.3237  0.8761  2.0269
11382SOL     OW36152   6.012   9.019   8.144  0.1116 -0.0786 -0.2480
11382SOL    HW136153   6.065   8.986   8.071 -0.5447 -0.1335 -0.7119
11382SOL    HW236154   6.059   8.992   8.222  2.1798  2.1268 -0.6180
11383SOL     OW36155   1.602   8.071   4.135  0.0766  0.3332 -0.5391
11383SOL    HW136156   1.692   8.084   4.104 -0.0893  0.9748 -0.7600
11383SOL    HW236157   1.592   7.976   4.140  0.0015  0.1698 -2.8056
11384SOL     OW36158   3.754   8.750   6.267  0.3467  0.2312 -0.3427
11384SOL    HW136159   3.820   8.685   6.242  1.9050  0.9317  1.7064
11384SOL    HW236160   3.802   8.832   6.270 -1.3316  1.3242 -1.6881
11385SOL     OW36161   6.690   9.379   3.273 -0.8555  0.0007  0.9949
11385SOL    HW136162   6.659   9.438   3.342 -2.3716  0.8614 -0.3569
11385SOL    HW236163   6.668   9.292   3.305 -2.4584  0.4465  1.2001
11386SOL     OW36164   7.760   1.791   2.749 -0.0706  0.3168  0.4389
11386SOL    HW136165   7.701   1.860   2.720  0.0380 -0.0037 -0.5952
11386SOL    HW236166   7.837   1.799   2.693  0.7852  0.5737  1.6058
11387SOL     OW36167   8.489   6.251   2.302  0.7524 -0.6338 -0.3298
11387SOL    HW136168   8.560   6.248   2.366  0.8405  0.4205 -0.3737
11387SOL    HW236169   8.462   6.159   2.293 -0.0533 -0.7033  2.0931
11388SOL     OW36170   4.390   4.406   6.650  0.5156 -0.0820 -0.7317
11388SOL    HW136171   4.296   4.387   6.651  0.5446 -0.3202  0.9079
11388SOL    HW236172   4.395   4.501   6.661  0.4661  0.0752 -1.9682
11389SOL     OW36173  10.776   2.613   5.882 -0.2549  0.1793  0.1306
11389SOL    HW136174  10.716   2.653   5.819  0.6436  0.6722 -0.4281
11389SOL    HW236175  10.726   2.610   5.964 -0.6473  1.6680 -0.0274
11390SOL     OW36176   1.748   4.370   2.254  0.1699 -0.4658  0.1531
11390SOL    HW136177   1.726   4.325   2.336  0.7314 -1.8634 -0.4460
11390SOL    HW236178   1.725   4.462   2.271 -1.5874 -1.0452  1.1985
11391SOL     OW36179   4.021   6.471   8.236  0.0605  0.0082  0.0027
11391SOL    HW136180   3.946   6.530   8.237 -1.4045 -1.7200 -0.8354
11391SOL    HW236181   4.074   6.499   8.162 -1.0301 -0.1771 -0.8699
11392SOL     OW36182   1.365   9.501   1.179  0.4217  0.8129  0.3750
11392SOL    HW136183   1.282   9.453   1.179  0.9260 -0.0982 -0.6436
11392SOL    HW236184   1.397   9.492   1.269  1.1680 -2.0154 -0.0720
11393SOL     OW36185   6.441   3.221   0.975  0.5655  0.3461  0.3970
11393SOL    HW136186   6.461   3.234   1.068  1.5085  0.4203  0.1940
11393SOL    HW236187   6.526   3.225   0.932  0.2215 -0.4613 -0.3851
11394SOL     OW36188  10.954   6.901   1.120 -0.5758  0.2503  0.4826
11394SOL    HW136189  10.996   6.899   1.207 -2.2108 -1.8212  1.3205
11394SOL    HW236190  11.007   6.841   1.068  0.4319  1.5270 -0.0074
11395SOL     OW36191   9.347   8.066   3.032 -0.4318  0.5417 -0.1199
11395SOL    HW136192   9.402   8.053   2.955 -0.0648 -1.1846  0.3812
11395SOL    HW236193   9.365   7.990   3.087 -3.4341 -0.1943 -0.0033
11396SOL     OW36194   0.606   2.051   6.792  0.1604 -0.4060 -0.1309
11396SOL    HW136195   0.700   2.066   6.806 -0.0185  0.0478  0.6531
11396SOL    HW236196   0.564   2.129   6.828 -0.4840 -0.2631 -1.1417
11397SOL     OW36197   5.281   9.873  10.933 -0.0198 -0.3886 -0.7181
11397SOL    HW136198   5.309   9.900  11.020  1.0413  0.3339 -1.2632
11397SOL    HW236199   5.346   9.808  10.906  0.1410  0.0153 -1.3067
11398SOL     OW36200   0.324   1.729  10.041 -0.3753 -0.4782  0.0981
11398SOL    HW136201   0.385   1.661  10.011  0.9680 -0.0316  1.6672
11398SOL    HW236202   0.280   1.691  10.116  0.5380  0.3918  1.1219
11399SOL     OW36203   2.542   8.653   6.069  0.7315 -0.1547 -0.2521
11399SOL    HW136204   2.488   8.576   6.055 -0.4506  0.4357  0.8545
11399SOL    HW236205   2.568   8.681   5.981  0.7954 -1.5323 -0.6869
11400SOL     OW36206   4.951   4.354   3.328 -0.0109 -0.8899  0.3673
11400SOL    HW136207   4.870   4.333   3.281 -0.8160 -0.9861  1.7400
11400SOL    HW236208   5.020   4.329   3.268 -1.0002 -1.7962 -0.4398
11401SOL     OW36209   6.030   6.879   7.539 -0.0401 -0.2740 -0.2815
11401SOL    HW136210   5.977   6.906   7.614 -1.1615  1.8253 -1.7201
11401SOL    HW236211   5.999   6.790   7.519 -2.1231  0.3783 -0.2219
11402SOL     OW36212   2.995   4.299   5.087  0.1416  0.7830  0.3792
11402SOL    HW136213   2.905   4.316   5.056 -0.0150  0.8999  0.8849
11402SOL    HW236214   2.983   4.260   5.173  0.5032 -1.8374 -0.6768
11403SOL     OW36215   2.403   8.351   3.850 -0.2387  0.2841 -0.4402
11403SOL    HW136216   2.388   8.417   3.782 -2.4495  2.1726  1.6696
11403SOL    HW236217   2.469   8.389   3.907  0.7062 -0.7398 -0.8219
11404SOL     OW36218   8.490  10.029   2.808  0.4865  0.2894 -0.0607
11404SOL    HW136219   8.525  10.016   2.897  1.8602  3.9743  0.1138
11404SOL    HW236220   8.395  10.015   2.818  0.6576  0.1443  1.8808
11405SOL     OW36221   8.508   5.950   7.023 -0.4464  0.3921  0.3113
11405SOL    HW136222   8.467   6.018   7.077 -1.9463 -0.6860  0.6164
11405SOL    HW236223   8.478   5.969   6.934 -2.8207 -1.1135  0.6909
11406SOL     OW36224   6.346   6.077   1.363 -0.3897  0.0991  0.5119
11406SOL    HW136225   6.354   6.051   1.271 -0.3551  0.9801  0.2525
11406SOL    HW236226   6.358   5.996   1.412 -0.0337 -0.3220 -0.2479
11407SOL     OW36227   7.777   0.521   2.638 -0.7170  0.8099  0.4309
11407SOL    HW136228   7.787   0.429   2.614 -0.1008  1.4303 -1.9698
11407SOL    HW236229   7.684   0.530   2.658 -1.1402 -0.0254 -0.9860
11408SOL     OW36230   7.295   5.273   0.988  0.0848 -0.2226 -0.0133
11408SOL    HW136231   7.389   5.285   1.003  0.1167 -0.2211 -0.2136
11408SOL    HW236232   7.260   5.362   0.982  0.1779 -0.2233 -0.6040
11409SOL     OW36233   5.091   6.407   0.816  0.9601 -0.4130 -0.1149
11409SOL    HW136234   5.118   6.323   0.777  0.9781 -0.5600  0.2084
11409SOL    HW236235   5.052   6.383   0.900  1.0907 -0.0864  0.0421
11410SOL     OW36236   4.849  11.071   4.211 -0.3104 -0.0132  0.2521
11410SOL    HW136237   4.827  10.983   4.240  0.3180  0.1880  1.4036
11410SOL    HW236238   4.872  11.118   4.291 -0.6459  1.2085 -0.3380
11411SOL     OW36239   9.871   9.271   2.237 -0.0917 -0.1291 -0.7668
11411SOL    HW136240   9.831   9.356   2.216 -1.2128 -0.2521  0.6824
11411SOL    HW236241   9.857   9.261   2.332  0.5678 -1.6517 -0.8046
11412SOL     OW36242   6.505   1.487   5.994  0.1859  0.2055  0.3048
11412SOL    HW136243   6.501   1.564   6.050  1.8994  0.1647  0.5063
11412SOL    HW236244   6.597   1.477   5.972 -0.1402 -1.2059 -0.5552
11413SOL     OW36245   8.664   5.478   2.044  0.0608  0.2455 -0.3823
11413SOL    HW136246   8.594   5.510   1.987 -1.9051  0.0013  1.7301
11413SOL    HW236247   8.657   5.532   2.123  1.8312 -0.2764  0.1888
11414SOL     OW36248   8.365   1.962   0.578 -0.5343  0.0059  0.6900
11414SOL    HW136249   8.291   1.943   0.636 -1.7790  1.0801 -0.4786
11414SOL    HW236250   8.406   2.040   0.616 -1.5862  0.9465 -0.0211
11415SOL     OW36251   5.009   3.077   9.636  0.0848  0.6554  0.0341
11415SOL    HW136252   4.998   3.171   9.621 -1.0665  0.5630  0.1593
11415SOL    HW236253   5.101   3.066   9.659  0.5052  1.6001 -1.1026
11416SOL     OW36254   8.941   8.641   4.050 -0.0991  0.2972 -0.2442
11416SOL    HW136255   8.876   8.614   4.116  0.0719  0.1682 -0.1275
11416SOL    HW236256   8.922   8.734   4.035 -2.4709 -0.4558 -2.6572
11417SOL     OW36257   8.190   7.144   1.042 -0.2193  0.6152  0.4797
11417SOL    HW136258   8.230   7.073   0.992  1.8909  1.8111  0.3335
11417SOL    HW236259   8.174   7.107   1.129 -2.0971 -0.9020 -0.4459
11418SOL     OW36260   3.321  10.985   6.130  0.2395 -0.3447 -0.0588
11418SOL    HW136261   3.349  10.942   6.211  0.7171  1.5285  0.8298
11418SOL    HW236262   3.235  11.021   6.151 -1.4322 -3.0680 -1.6656
11419SOL     OW36263   9.483   3.090   3.245  0.4306 -0.8309 -0.1698
11419SOL    HW136264   9.474   3.042   3.327 -0.7812  0.2380  0.3524
11419SOL    HW236265   9.570   3.129   3.251 -0.4242  1.0091  1.6509
11420SOL     OW36266   1.908   3.366   9.758 -0.1545  0.4244 -0.0446
11420SOL    HW136267   1.886   3.409   9.841  2.4715  1.8185  0.0452
11420SOL    HW236268   1.851   3.407   9.694  1.0414  2.9006  0.3566
11421SOL     OW36269   3.609   0.290   2.813  0.0314  0.1953  0.8616
11421SOL    HW136270   3.657   0.257   2.889  0.1382 -4.7595 -0.9860
11421SOL    HW236271   3.677   0.326   2.755  0.7448 -1.1641  0.8278
11422SOL     OW36272   2.747   0.038   2.321 -0.4066  0.1268 -0.0802
11422SOL    HW136273   2.719   0.027   2.412 -0.8653 -0.2942 -0.2661
11422SOL    HW236274   2.835   0.000   2.318 -0.3327  0.2783  0.2239
11423SOL     OW36275   6.006   8.223   0.151 -0.1367 -0.2221  0.1765
11423SOL    HW136276   6.091   8.191   0.119 -0.0635  1.3115 -1.2771
11423SOL    HW236277   6.026   8.268   0.233  0.7567  1.4492 -0.8984
11424SOL     OW36278   8.797   7.607   6.517  0.3448 -0.5228  0.4480
11424SOL    HW136279   8.718   7.616   6.464 -0.0279  0.9588  1.2255
11424SOL    HW236280   8.807   7.691   6.561  0.9933 -1.4846  2.2632
11425SOL     OW36281   1.989   4.957   3.045 -0.3257 -0.0985 -0.1487
11425SOL    HW136282   1.945   5.022   3.099 -0.9073  0.1834 -0.9406
11425SOL    HW236283   2.074   4.944   3.087  0.2596  1.9875 -0.5712
11426SOL     OW36284   4.823   4.094  10.237 -0.1191 -0.0505  0.3290
11426SOL    HW136285   4.732   4.067  10.234 -0.7192  1.8532 -0.4858
11426SOL    HW236286   4.842   4.106  10.330  0.1996 -3.0324  0.7444
11427SOL     OW36287   8.777   4.476   0.197  1.2092  0.3481  0.2616
11427SOL    HW136288   8.732   4.439   0.120  3.4130 -0.2816 -0.8044
11427SOL    HW236289   8.715   4.540   0.232 -0.2262  0.0363 -1.5323
11428SOL     OW36290   5.929   4.020   4.352 -0.0355 -0.3282 -0.1450
11428SOL    HW136291   5.956   4.024   4.260 -0.3278  1.8575 -0.2063
11428SOL    HW236292   5.936   4.111   4.382 -1.4330 -0.7359  1.5607
11429SOL     OW36293   6.925  10.508   6.110 -0.9428 -0.0437  0.1071
11429SOL    HW136294   6.855  10.554   6.063 -0.2059  1.4224  0.3985
11429SOL    HW236295   6.994  10.495   6.045 -1.9757 -2.7922 -0.5801
11430SOL     OW36296   1.175   7.234   9.432  0.0772  0.4182 -0.3119
11430SOL    HW136297   1.150   7.320   9.398  1.1596 -0.2324 -2.9987
11430SOL    HW236298   1.271   7.233   9.427  0.2612 -0.0336  2.1698
11431SOL     OW36299   1.156   4.575   5.209 -0.2307 -0.1747  0.7575
11431SOL    HW136300   1.090   4.549   5.273  0.1464  0.5766  1.4736
11431SOL    HW236301   1.112   4.567   5.124 -0.4186 -2.1839  1.0030
11432SOL     OW36302   5.171   5.275   6.248 -0.5589  0.3764  0.6940
11432SOL    HW136303   5.237   5.231   6.194  0.2794  1.5532  0.7189
11432SOL    HW236304   5.098   5.214   6.251 -0.8254  0.3869 -2.1218
11433SOL     OW36305   4.036   2.655   2.233  0.0511 -0.7155 -0.0399
11433SOL    HW136306   4.074   2.625   2.316 -0.7918 -0.9748  0.2677
11433SOL    HW236307   4.045   2.580   2.174 -0.7142 -1.0819  0.2863
11434SOL     OW36308   8.747   7.292   7.880  0.0939 -0.0648  0.4444
11434SOL    HW136309   8.801   7.214   7.869 -0.3190 -0.2203 -0.6194
11434SOL    HW236310   8.658   7.260   7.883 -0.0905  0.3717 -0.1567
11435SOL     OW36311   1.831  10.030  10.004  0.3888 -0.3412  0.3271
11435SOL    HW136312   1.749  10.034  10.052 -0.1857 -1.0710 -0.5677
11435SOL    HW236313   1.881  10.105  10.036 -0.0847 -0.6486  1.8407
11436SOL     OW36314   2.220   6.075   2.395  0.2172 -0.4016  0.5152
11436SOL    HW136315   2.284   6.114   2.335 -0.8441  2.6024  1.1836
11436SOL    HW236316   2.235   5.980   2.387  3.4000  0.0729 -0.7877
11437SOL     OW36317   2.563   8.166   1.188 -0.6654 -0.2976 -0.3709
11437SOL    HW136318   2.624   8.237   1.167 -1.4571  0.5548  0.1695
11437SOL    HW236319   2.477   8.206   1.185 -1.2144 -1.4735 -1.0223
11438SOL     OW36320   0.282   7.755   7.870 -0.7769 -0.9419  0.1747
11438SOL    HW136321   0.293   7.684   7.806 -1.1350 -2.1497  1.4165
11438SOL    HW236322   0.371   7.787   7.885 -0.5288 -1.5772  0.1012
11439SOL     OW36323   3.175   1.851   5.057  0.1341 -0.2989  0.9997
11439SOL    HW136324   3.194   1.934   5.100 -1.2265 -0.3940  1.8487
11439SOL    HW236325   3.255   1.830   5.008  0.7195  1.1882  1.2644
11440SOL     OW36326  10.046   2.953   3.060  0.5195 -0.0746 -0.3476
11440SOL    HW136327  10.104   2.888   3.020  2.6632  1.3091  0.3729
11440SOL    HW236328   9.964   2.906   3.075  0.8066 -1.6280 -3.0283
11441SOL     OW36329  10.900   2.775   8.060 -0.5984  0.1115 -0.2916
11441SOL    HW136330  10.902   2.796   7.967  0.9249 -0.9676 -0.5284
11441SOL    HW236331  10.986   2.800   8.093 -0.9246 -0.0275  0.7277
11442SOL     OW36332  10.355   4.947   8.746  0.5750  0.6498  0.1305
11442SOL    HW136333  10.375   4.853   8.748  0.1863  0.4453 -2.5761
11442SOL    HW236334  10.262   4.951   8.725  0.7875  1.6315 -0.6930
11443SOL     OW36335   1.922   7.211   8.784 -0.3701  0.4606 -1.0457
11443SOL    HW136336   1.967   7.134   8.819 -0.6565  0.4364 -0.7287
11443SOL    HW236337   1.972   7.285   8.819 -0.0999  0.4192 -1.3442
11444SOL     OW36338   8.453   2.050   7.868 -0.3914 -0.4154 -0.5466
11444SOL    HW136339   8.543   2.063   7.838  0.0675 -3.1468 -0.5862
11444SOL    HW236340   8.411   2.002   7.796 -1.6546  0.0978 -0.1735
11445SOL     OW36341   7.172   6.856   3.034  0.7544  0.0110  0.0372
11445SOL    HW136342   7.209   6.830   2.950  1.6715  1.3623 -0.0027
11445SOL    HW236343   7.243   6.903   3.078  0.2287 -0.4950  1.4877
11446SOL     OW36344   3.832   3.766   9.052 -0.1976 -0.2226 -0.0853
11446SOL    HW136345   3.802   3.676   9.061 -2.9476  0.4034 -1.7270
11446SOL    HW236346   3.852   3.775   8.959  1.1942  0.5760  0.2697
11447SOL     OW36347   8.588   9.732   3.494  0.0264 -0.4183 -0.1080
11447SOL    HW136348   8.547   9.793   3.556  1.0549 -0.5353  0.7122
11447SOL    HW236349   8.664   9.699   3.540  0.5754 -0.8514 -1.2866
11448SOL     OW36350   8.124   1.563   7.048  0.1665  0.0920  0.0542
11448SOL    HW136351   8.125   1.590   6.956  1.6729  0.5301  0.1585
11448SOL    HW236352   8.049   1.609   7.086 -0.3504  0.0676 -0.8985
11449SOL     OW36353   7.872   4.023   4.573 -0.6359 -0.1325 -0.3410
11449SOL    HW136354   7.817   4.095   4.604  0.3429  1.3617 -1.9278
11449SOL    HW236355   7.827   3.991   4.495  0.2036  0.4411 -1.0736
11450SOL     OW36356   0.654   8.635   3.735 -0.6548  0.0921 -0.2155
11450SOL    HW136357   0.729   8.610   3.680 -1.5768  0.1983 -1.5770
11450SOL    HW236358   0.657   8.731   3.736  0.4733  0.0934  1.5803
11451SOL     OW36359   7.304   4.703   8.563  0.1097 -0.2616  0.2600
11451SOL    HW136360   7.211   4.680   8.572  0.1131 -0.4836 -0.1885
11451SOL    HW236361   7.337   4.639   8.499  0.4515  0.1324  0.0419
11452SOL     OW36362   3.965   8.728   1.429  0.3883  0.4584 -0.2938
11452SOL    HW136363   3.931   8.683   1.507  0.7804  2.3560  1.0578
11452SOL    HW236364   3.921   8.813   1.430  2.7336  1.7647 -0.2924
11453SOL     OW36365  10.963   1.095  10.253 -0.1199  0.0546 -0.4577
11453SOL    HW136366  10.931   1.103  10.163  3.2058  2.2928 -1.6153
11453SOL    HW236367  10.925   1.169  10.300 -0.9935 -0.4964 -0.2755
11454SOL     OW36368   4.587   5.066   6.712  0.0780 -0.2242 -0.6520
11454SOL    HW136369   4.671   5.028   6.687  0.1686  0.4061 -1.3632
11454SOL    HW236370   4.610   5.142   6.766 -0.0531 -0.4079 -0.3386
11455SOL     OW36371  10.639   2.331   0.682  0.3679  0.0421  0.7540
11455SOL    HW136372  10.608   2.421   0.674  1.7575  0.5186  0.4431
11455SOL    HW236373  10.578   2.279   0.631 -0.0222  0.9160  0.3162
11456SOL     OW36374   3.105   3.757   4.203  0.9035  0.3095  0.7444
11456SOL    HW136375   3.146   3.801   4.277 -2.5142  1.5704  2.0885
11456SOL    HW236376   3.012   3.776   4.212 -0.2629 -3.3743 -1.3003
11457SOL     OW36377   4.573   5.188   3.695  0.2887  0.2689 -0.2771
11457SOL    HW136378   4.568   5.112   3.637  0.6862  0.5288 -0.6617
11457SOL    HW236379   4.502   5.245   3.667 -1.6029 -1.0236  1.6098
11458SOL     OW36380   3.543   7.956   8.628  0.4001 -0.1065 -0.2782
11458SOL    HW136381   3.612   7.930   8.688  0.3204 -0.0707 -0.1711
11458SOL    HW236382   3.494   7.876   8.610  1.1249 -0.3610 -1.2092
11459SOL     OW36383   8.771   4.914   7.416 -0.3950  0.4696 -0.5180
11459SOL    HW136384   8.789   5.008   7.420  0.3263  0.3107  0.2026
11459SOL    HW236385   8.676   4.907   7.431 -0.3158  1.0357  0.3231
11460SOL     OW36386   4.523   2.247  10.952  0.6515 -0.4435 -0.4423
11460SOL    HW136387   4.508   2.316  11.017 -0.3612  0.0094 -1.1368
11460SOL    HW236388   4.534   2.294  10.870  0.5975 -1.0891 -0.8215
11461SOL     OW36389   7.552   1.730   0.226  0.4467 -0.3824 -0.3085
11461SOL    HW136390   7.615   1.662   0.200  1.4585 -0.4314  2.0513
11461SOL    HW236391   7.482   1.682   0.270  0.5959 -0.0273  0.3329
11462SOL     OW36392   7.475   2.134   9.431  0.1002  0.1290 -0.2306
11462SOL    HW136393   7.565   2.163   9.444 -0.3858  1.7324 -0.3031
11462SOL    HW236394   7.443   2.117   9.519 -0.0141  1.1020 -0.0791
11463SOL     OW36395   1.889   5.401   2.866 -0.3397 -0.3142 -1.0219
11463SOL    HW136396   1.848   5.453   2.796 -0.1289  0.2707 -0.7220
11463SOL    HW236397   1.980   5.431   2.868 -0.3315 -0.3631 -0.5333
11464SOL     OW36398  10.726   9.827   7.597  0.2533  0.4676 -0.2581
11464SOL    HW136399  10.815   9.791   7.592  1.4911  3.1986 -0.1083
11464SOL    HW236400  10.692   9.819   7.508  0.4218 -1.1138 -0.1926
11465SOL     OW36401   5.519   9.724   4.746 -0.2242  0.2487  0.2547
11465SOL    HW136402   5.509   9.695   4.836  0.3659  1.0761  0.6019
11465SOL    HW236403   5.563   9.809   4.753 -0.7199  0.6050 -0.7817
11466SOL     OW36404   9.644  10.818   8.859 -0.2127  0.6573 -1.0271
11466SOL    HW136405   9.671  10.731   8.890 -1.3889 -0.4434 -2.9170
11466SOL    HW236406   9.622  10.866   8.939  1.2388 -0.4868  0.1167
11467SOL     OW36407   7.188   7.821   1.367 -0.0093 -0.7682 -0.3919
11467SOL    HW136408   7.230   7.738   1.346  0.4191 -0.2903 -1.4928
11467SOL    HW236409   7.177   7.865   1.282 -0.9749 -0.0500  0.0774
11468SOL     OW36410   0.332   5.448   1.134 -0.0292 -0.4184 -0.9797
11468SOL    HW136411   0.371   5.432   1.048 -0.8964  1.2806 -1.7583
11468SOL    HW236412   0.256   5.503   1.115  0.3094  0.8072  0.9612
11469SOL     OW36413   9.479   3.679   6.469 -0.1755  0.4061  0.0844
11469SOL    HW136414   9.539   3.607   6.450  2.0867  2.1582  0.2110
11469SOL    HW236415   9.440   3.702   6.385 -0.6110 -0.6652 -0.0198
11470SOL     OW36416  10.911   2.964   2.312  0.2132  0.6563 -0.9261
11470SOL    HW136417  10.881   3.043   2.267 -1.9792  0.7519  0.5308
11470SOL    HW236418  10.989   2.992   2.360 -1.6188  2.5992  1.1653
11471SOL     OW36419   2.136   4.500   4.987  0.7954 -0.5086 -0.4881
11471SOL    HW136420   2.072   4.548   5.040  3.0278  2.3231 -0.1365
11471SOL    HW236421   2.106   4.513   4.897  1.4493  1.9199 -0.4306
11472SOL     OW36422   8.202   9.850   7.686  0.0326  0.6137  0.1376
11472SOL    HW136423   8.166   9.814   7.605 -0.3728 -0.7397  0.8753
11472SOL    HW236424   8.294   9.824   7.685  0.1068  0.8703 -0.0182
11473SOL     OW36425   5.353   6.825   0.967 -0.2506  0.6072 -0.1230
11473SOL    HW136426   5.303   6.882   0.909 -2.5053 -1.9256 -0.8942
11473SOL    HW236427   5.291   6.801   1.037  0.3205 -1.4247 -0.2497
11474SOL     OW36428   1.578  11.034   8.108  0.1173 -0.0393  0.0392
11474SOL    HW136429   1.601  11.061   8.020  0.8516  1.5568  0.6696
11474SOL    HW236430   1.567  10.939   8.103 -3.1384  0.2757 -2.4755
11475SOL     OW36431   8.229   0.212   0.911  0.1207 -0.2789  0.0851
11475SOL    HW136432   8.314   0.253   0.923 -0.0904 -0.1531  1.2388
11475SOL    HW236433   8.174   0.280   0.872 -0.2410  0.5861  2.0398
11476SOL     OW36434   2.216   3.927   7.160  0.3672  0.9445  0.0930
11476SOL    HW136435   2.151   3.861   7.139  0.0733  1.3771 -0.4013
11476SOL    HW236436   2.231   3.918   7.254  0.7546 -0.1963 -0.0670
11477SOL     OW36437   6.930   3.376   6.177  0.4427  0.1105  0.5445
11477SOL    HW136438   6.987   3.300   6.178  2.6590  1.6585  0.2095
11477SOL    HW236439   6.947   3.420   6.260 -1.8341 -0.4119  1.3474
11478SOL     OW36440   1.230   9.888   4.569  1.2854  0.4136 -0.0143
11478SOL    HW136441   1.188   9.974   4.562  0.5518  0.0034 -0.8251
11478SOL    HW236442   1.159   9.828   4.593  1.3107 -0.3425 -1.6959
11479SOL     OW36443   8.112   7.401   0.028  0.6908  0.2688 -0.7563
11479SOL    HW136444   8.072   7.475   0.074 -1.7296 -0.9898 -0.6778
11479SOL    HW236445   8.081   7.409  -0.062 -0.3260 -1.0699 -0.5575
11480SOL     OW36446   7.556   1.518   1.509 -0.4475  0.5846  0.3268
11480SOL    HW136447   7.607   1.581   1.560  1.6878  0.5384 -1.5785
11480SOL    HW236448   7.492   1.571   1.461  1.0032  1.3317 -0.8727
11481SOL     OW36449   9.103   4.165  10.062 -0.5212 -0.2557 -0.0985
11481SOL    HW136450   9.155   4.245  10.050 -4.1543  2.7558  1.7937
11481SOL    HW236451   9.121   4.138  10.152 -1.1093 -0.0391  0.0905
11482SOL     OW36452   5.171   0.065   5.374 -0.0720  0.0601  0.3219
11482SOL    HW136453   5.264   0.059   5.397  0.2060  0.9778 -0.4992
11482SOL    HW236454   5.164   0.018   5.291  0.0225  1.5184 -0.5384
11483SOL     OW36455   2.860   5.568  10.667 -0.2772  0.4996  0.3457
11483SOL    HW136456   2.813   5.593  10.747 -2.1339  2.5256 -1.2247
11483SOL    HW236457   2.926   5.637  10.656  0.7278 -0.3896  0.6824
11484SOL     OW36458   7.544   6.250   7.509 -0.0781 -0.1619  0.1500
11484SOL    HW136459   7.530   6.158   7.532  0.6820 -0.5088 -0.6987
11484SOL    HW236460   7.466   6.275   7.459  1.0443 -1.3138 -2.3589
11485SOL     OW36461   9.893   3.105   1.872  0.3162  0.1339  0.4527
11485SOL    HW136462   9.918   3.132   1.961 -1.1493  1.8155  0.4309
11485SOL    HW236463   9.970   3.121   1.819  0.4514  1.4983  1.0175
11486SOL     OW36464   1.788   0.313   7.390 -0.1999 -0.4391 -0.1984
11486SOL    HW136465   1.823   0.233   7.352  2.8899  1.7397 -2.4623
11486SOL    HW236466   1.834   0.321   7.474 -3.0536 -2.5440  1.7637
11487SOL     OW36467   8.643   0.729   6.914  0.5071 -0.1045  0.2000
11487SOL    HW136468   8.708   0.659   6.918 -1.7409 -2.3208  0.8533
11487SOL    HW236469   8.582   0.710   6.985 -0.8215  1.8903 -0.3097
11488SOL     OW36470   6.314   4.442   2.334  0.2214 -0.0350 -0.7642
11488SOL    HW136471   6.388   4.392   2.300  0.1311  0.7739 -2.2386
11488SOL    HW236472   6.254   4.449   2.260 -2.1333 -2.0390  0.7984
11489SOL     OW36473   5.098   0.503   9.281  0.8463  0.1774  0.4530
11489SOL    HW136474   5.066   0.453   9.205 -0.4698  1.3209  0.2193
11489SOL    HW236475   5.150   0.440   9.331 -0.7417 -1.4317  0.1677
11490SOL     OW36476   6.604   7.908   4.753  0.2362 -0.0922 -0.5187
11490SOL    HW136477   6.636   7.820   4.772 -0.3536  0.0210  1.1482
11490SOL    HW236478   6.673   7.966   4.784  0.4358  0.0544 -1.2224
11491SOL     OW36479   4.124   5.258   3.273  0.6193 -0.1638 -0.5558
11491SOL    HW136480   4.090   5.209   3.198 -1.7832 -0.5998  0.7221
11491SOL    HW236481   4.216   5.274   3.252  0.3495 -1.4173 -2.9718
11492SOL     OW36482   1.779   0.291   5.687 -0.0242  0.2147  0.3485
11492SOL    HW136483   1.775   0.345   5.609  0.9368 -3.0385 -2.1723
11492SOL    HW236484   1.863   0.311   5.727  1.0603 -0.5050 -1.4741
11493SOL     OW36485   2.197   6.063  10.022 -0.0912 -0.1139  0.0184
11493SOL    HW136486   2.129   5.998  10.006  1.0665 -1.1716 -0.7258
11493SOL    HW236487   2.224   6.092   9.935  0.6989 -0.0165  0.2908
11494SOL     OW36488   0.685   9.350   6.083 -0.1663 -0.6226 -0.4046
11494SOL    HW136489   0.764   9.298   6.067 -0.0774 -0.9295  0.8854
11494SOL    HW236490   0.714   9.440   6.075  0.7456 -0.6732  1.5836
11495SOL     OW36491   4.446   6.117   0.068  0.2100 -0.4912 -0.9090
11495SOL    HW136492   4.381   6.073   0.124  0.6068 -0.1266 -0.1614
11495SOL    HW236493   4.433   6.210   0.084 -1.3478 -0.2033 -3.2755
11496SOL     OW36494   7.137   2.056   4.296 -0.8273 -0.5200 -0.9138
11496SOL    HW136495   7.098   2.124   4.352 -1.8519 -1.1965 -0.7876
11496SOL    HW236496   7.083   1.979   4.311 -0.9374 -0.8036 -2.6045
11497SOL     OW36497   4.368   7.360   9.882  1.0747  0.4225  0.3592
11497SOL    HW136498   4.370   7.391   9.792  0.9579  0.2556  0.2986
11497SOL    HW236499   4.288   7.398   9.919 -1.3224 -2.9282 -0.8700
11498SOL     OW36500   5.443   6.847  11.034  0.1223  0.4431  0.3279
11498SOL    HW136501   5.524   6.895  11.019  0.8388 -0.5703  0.8056
11498SOL    HW236502   5.460   6.796  11.114 -0.6595 -0.4549 -0.0581
11499SOL     OW36503   9.402   8.728   5.515  0.0427 -0.0373  0.0408
11499SOL    HW136504   9.433   8.643   5.483 -1.6223 -0.5624 -0.2905
11499SOL    HW236505   9.474   8.761   5.569  1.4192 -0.8366 -1.2442
11500SOL     OW36506  10.523   6.655   5.510  0.4334 -0.1269  0.1219
11500SOL    HW136507  10.548   6.590   5.575  1.1460 -0.4713 -0.4762
11500SOL    HW236508  10.562   6.737   5.541  0.9807 -0.3390  0.0098
11501SOL     OW36509   2.643   0.606   2.308 -0.2486  0.3727  1.0570
11501SOL    HW136510   2.640   0.545   2.382 -0.4326  1.0297  1.6027
11501SOL    HW236511   2.674   0.553   2.234 -1.5541 -0.6781  1.2203
11502SOL     OW36512   6.376  11.035   9.170 -0.5420  0.4758 -0.0260
11502SOL    HW136513   6.379  11.130   9.178 -0.5053  0.3677  1.4430
11502SOL    HW236514   6.467  11.009   9.160 -0.5091  0.5633  0.0462
11503SOL     OW36515   6.941   9.592   9.685 -0.7796 -0.5205 -0.3279
11503SOL    HW136516   6.885   9.552   9.618 -0.8475  0.4501 -0.8799
11503SOL    HW236517   6.894   9.672   9.710 -0.1020 -0.1894 -0.0927
11504SOL     OW36518   8.368   7.827   4.400  0.7789 -0.6545 -0.0187
11504SOL    HW136519   8.408   7.752   4.445 -0.7396 -1.7000 -0.3065
11504SOL    HW236520   8.276   7.823   4.426  0.2917 -0.0348 -1.5544
11505SOL     OW36521   6.210   9.067   2.069 -0.2948  0.2637  0.4284
11505SOL    HW136522   6.231   8.974   2.067  1.7374  0.6948  0.2117
11505SOL    HW236523   6.147   9.079   1.997 -0.8384 -0.9663  0.6673
11506SOL     OW36524  10.669   8.431  10.783  0.2045  0.1378 -0.3193
11506SOL    HW136525  10.747   8.479  10.809  0.0556 -0.3013  1.0126
11506SOL    HW236526  10.685   8.405  10.692  0.9249  1.3885 -0.5699
11507SOL     OW36527   8.555   4.823   6.798  0.3168  0.0549 -0.3097
11507SOL    HW136528   8.504   4.755   6.842  0.6727  0.5701  0.9241
11507SOL    HW236529   8.566   4.790   6.708 -0.5941 -0.9161 -0.0794
11508SOL     OW36530   7.179   6.883   0.878  0.0394 -0.2148  0.4511
11508SOL    HW136531   7.109   6.846   0.932 -1.2201  1.7972  0.3265
11508SOL    HW236532   7.162   6.849   0.790 -1.7697  1.3647  0.1114
11509SOL     OW36533   9.108   8.635   5.725 -0.3478  0.5690 -0.0957
11509SOL    HW136534   9.200   8.618   5.705 -0.7124 -0.7758 -0.6984
11509SOL    HW236535   9.093   8.594   5.810 -0.1388  1.7463  0.5396
11510SOL     OW36536   9.743   4.778   9.039 -0.3373  0.1358 -0.1120
11510SOL    HW136537   9.774   4.868   9.045 -0.1966  0.0752  0.0973
11510SOL    HW236538   9.676   4.771   9.107 -0.9168  0.3047 -0.6537
11511SOL     OW36539   6.843   7.440   0.046 -0.2479 -0.2195  0.2492
11511SOL    HW136540   6.916   7.393   0.085 -1.6617 -1.0177  2.0831
11511SOL    HW236541   6.840   7.524   0.093 -0.6241 -0.2837  0.3485
11512SOL     OW36542   1.417   5.563  11.094  0.1619 -0.1178  0.0513
11512SOL    HW136543   1.346   5.530  11.038 -0.1707  0.7423 -0.0447
11512SOL    HW236544   1.428   5.654  11.068 -1.0653  0.7931  2.3784
11513SOL     OW36545   1.711   6.952   2.249 -0.8101  0.0903 -0.5977
11513SOL    HW136546   1.699   6.857   2.256 -1.2970  0.1315 -0.7738
11513SOL    HW236547   1.739   6.966   2.159 -1.2315  0.1551 -0.7213
11514SOL     OW36548   5.743   9.812   0.174  0.1831 -0.0712  0.4572
11514SOL    HW136549   5.759   9.879   0.108 -0.8013 -0.2721  0.0026
11514SOL    HW236550   5.727   9.732   0.124  2.8091 -1.0309  0.9993
11515SOL     OW36551   9.659  10.928   6.492 -0.4702 -0.1500 -0.5107
11515SOL    HW136552   9.567  10.918   6.470 -0.1758 -0.3480 -1.7589
11515SOL    HW236553   9.693  10.838   6.494  0.1638  0.0156 -2.3152
11516SOL     OW36554   4.291   8.352  10.400 -0.0831  0.1127 -0.1602
11516SOL    HW136555   4.212   8.397  10.430  0.2540  0.3560  0.3677
11516SOL    HW236556   4.359   8.419  10.403  0.7881 -0.7804  2.1712
11517SOL     OW36557   0.988   5.009   7.817 -0.2079 -0.1736 -0.0858
11517SOL    HW136558   0.952   4.936   7.767 -0.3297  0.4631 -0.9527
11517SOL    HW236559   0.921   5.077   7.813  0.5277  0.5403 -0.5971
11518SOL     OW36560   3.047   2.330   3.713  0.3776 -0.4228  0.2838
11518SOL    HW136561   3.058   2.259   3.776  1.2671 -1.4108 -0.9210
11518SOL    HW236562   2.975   2.301   3.656  0.2159  0.0142  0.2618
11519SOL     OW36563   1.510   6.529   0.884 -0.1353 -0.3284 -0.6457
11519SOL    HW136564   1.532   6.609   0.836 -3.0850  1.3859  0.6130
11519SOL    HW236565   1.456   6.479   0.823 -0.6824  0.0329 -0.4660
11520SOL     OW36566   3.462   0.462   6.033 -0.5480  0.3969 -0.0777
11520SOL    HW136567   3.557   0.463   6.033 -0.4590  1.9299 -2.6873
11520SOL    HW236568   3.438   0.380   6.076  1.9234 -0.0652  0.5451
11521SOL     OW36569   2.108   3.640  10.944  0.6531 -0.5192  0.5015
11521SOL    HW136570   2.082   3.549  10.929  0.2311 -0.0584 -1.9371
11521SOL    HW236571   2.141   3.640  11.034 -0.1923 -2.8676  0.9036
11522SOL     OW36572   0.139   0.386   5.840 -0.6830  0.2674  0.0285
11522SOL    HW136573   0.112   0.324   5.907 -2.1684  0.7814 -0.0717
11522SOL    HW236574   0.124   0.472   5.879 -0.2257  0.5707 -0.4491
11523SOL     OW36575  10.040   7.628   7.248 -0.2440  0.6264 -0.3465
11523SOL    HW136576  10.118   7.646   7.195  1.1248 -1.3718  0.8497
11523SOL    HW236577  10.026   7.534   7.238  0.1988  0.1031  2.8657
11524SOL     OW36578   7.283   3.596   2.884  0.0883 -0.3255 -0.1924
11524SOL    HW136579   7.305   3.530   2.950  1.3799 -1.2149 -1.4431
11524SOL    HW236580   7.367   3.616   2.841 -0.7214  0.1512 -1.6171
11525SOL     OW36581   4.013   1.906   2.280 -0.6146  0.4952  0.2688
11525SOL    HW136582   3.991   1.852   2.356  0.7915  0.8291  0.9489
11525SOL    HW236583   3.929   1.931   2.243 -1.4138  1.6924  2.7036
11526SOL     OW36584  10.006   7.888   0.197  0.4674 -0.6039  0.2046
11526SOL    HW136585   9.920   7.846   0.190  0.3534 -0.3416 -0.0014
11526SOL    HW236586  10.067   7.817   0.215  0.1058 -0.6984  1.0928
11527SOL     OW36587   9.227   8.491   0.677 -0.0565  0.0459  0.5970
11527SOL    HW136588   9.155   8.538   0.721 -0.4001  1.0297 -0.9357
11527SOL    HW236589   9.204   8.494   0.584  2.2130  0.8567 -0.0035
11528SOL     OW36590   4.111   1.348   6.064 -0.0326 -0.7112 -0.3653
11528SOL    HW136591   4.085   1.281   6.127 -2.2570  0.7061  0.3630
11528SOL    HW236592   4.131   1.300   5.984 -0.7068 -2.2980  0.3823
11529SOL     OW36593   0.152   4.428   1.072  0.9404 -0.1601  0.3439
11529SOL    HW136594   0.193   4.483   1.006  2.2674 -1.0212  0.4018
11529SOL    HW236595   0.216   4.426   1.144  1.0747 -1.9881  0.2200
11530SOL     OW36596   2.964   9.139   8.722  0.0107  0.3197  0.9114
11530SOL    HW136597   3.027   9.069   8.737  0.1218  0.1885 -0.1017
11530SOL    HW236598   2.980   9.202   8.793  1.2275  0.2591  0.7114
11531SOL     OW36599   7.424   0.645   6.055  0.8804  0.2881 -0.1756
11531SOL    HW136600   7.490   0.634   5.987 -0.2113  0.0853 -1.2496
11531SOL    HW236601   7.358   0.578   6.035  1.3265 -0.9393  2.1015
11532SOL     OW36602   8.994   3.377   8.234  0.1539  0.2085 -0.8677
11532SOL    HW136603   9.061   3.445   8.238 -1.3630  1.7044  0.1747
11532SOL    HW236604   9.039   3.298   8.264  1.1995  1.4137  0.9346
11533SOL     OW36605   1.924   8.255   2.988 -0.5355 -1.1305  0.0275
11533SOL    HW136606   1.855   8.194   2.962 -2.5395  1.1614 -0.2566
11533SOL    HW236607   1.940   8.234   3.080 -3.1525 -0.3602  0.7299
11534SOL     OW36608   9.363   7.211   3.380  0.4575  0.2494 -0.2840
11534SOL    HW136609   9.323   7.294   3.354 -2.0369 -1.0337 -0.8330
11534SOL    HW236610   9.401   7.176   3.299 -0.6624 -0.2423 -0.6181
11535SOL     OW36611   6.356   3.085   4.082  0.3705  0.1065  0.6372
11535SOL    HW136612   6.416   3.038   4.140  1.3875  1.1530  0.4844
11535SOL    HW236613   6.370   3.045   3.996 -0.1748 -0.5685  0.8559
11536SOL     OW36614   8.135   1.959   5.368 -0.0836  0.5009  0.3197
11536SOL    HW136615   8.116   2.034   5.311 -0.7719 -2.0235 -3.0817
11536SOL    HW236616   8.050   1.932   5.401 -0.1330 -0.0108 -0.2055
11537SOL     OW36617   3.079   2.095   6.973 -0.3396  0.2806  0.2128
11537SOL    HW136618   3.068   2.057   7.060  1.2512 -1.9257 -0.4728
11537SOL    HW236619   3.011   2.053   6.919 -1.0053  1.2803  0.2378
11538SOL     OW36620  10.720   6.929   2.646  0.0257 -0.8311  0.1863
11538SOL    HW136621  10.659   6.881   2.589  0.0498  0.9859 -1.5213
11538SOL    HW236622  10.663   6.974   2.709 -0.3868  0.1452 -0.8409
11539SOL     OW36623   4.481   7.061   0.959 -0.5757  0.0288 -0.5107
11539SOL    HW136624   4.440   7.040   0.875 -1.4458  2.0578 -0.6635
11539SOL    HW236625   4.510   7.152   0.950  0.2599 -0.0417  1.0374
11540SOL     OW36626   5.596   9.091   5.952  0.2445 -0.0249 -0.1166
11540SOL    HW136627   5.602   9.056   6.041  3.1757  0.2591 -0.1078
11540SOL    HW236628   5.599   9.014   5.895 -0.2431 -0.1249 -0.0138
11541SOL     OW36629   3.810   9.217   8.325 -0.5724  0.8329  0.0706
11541SOL    HW136630   3.864   9.171   8.259  1.1019  2.1372  0.4593
11541SOL    HW236631   3.857   9.204   8.407 -2.0604  0.1656  0.8481
11542SOL     OW36632   5.610   0.413   5.657 -0.6874 -0.1662 -0.1652
11542SOL    HW136633   5.602   0.374   5.744  2.2365  1.2375  0.8595
11542SOL    HW236634   5.582   0.344   5.597 -1.4766 -1.6465  1.7933
11543SOL     OW36635   5.422   8.036   1.699  0.4549 -0.3297 -0.4075
11543SOL    HW136636   5.505   8.014   1.742  1.8837  1.8135 -1.8669
11543SOL    HW236637   5.362   7.966   1.726  2.3447 -1.2561  1.7416
11544SOL     OW36638   3.058   1.821   4.354 -0.5625 -0.0777  0.0491
11544SOL    HW136639   3.041   1.839   4.262  1.2946 -0.6829 -0.4514
11544SOL    HW236640   3.074   1.727   4.357  0.5585  0.1170  0.7674
11545SOL     OW36641   6.610  10.739   8.787  0.0341  0.5406 -0.4090
11545SOL    HW136642   6.684  10.706   8.736  1.0178 -0.1228  1.3760
11545SOL    HW236643   6.617  10.695   8.871 -3.0771 -0.4113 -0.5234
11546SOL     OW36644   8.984   1.260   0.844 -0.8338 -0.0653  0.3692
11546SOL    HW136645   9.045   1.250   0.771 -0.9162  0.4580  0.2250
11546SOL    HW236646   9.038   1.292   0.917 -0.7148 -0.7751  0.5997
11547SOL     OW36647   3.964   9.944   8.816 -0.0184 -0.7640 -0.1881
11547SOL    HW136648   4.012  10.023   8.790 -0.8261 -0.7641 -1.7871
11547SOL    HW236649   3.899   9.976   8.879  2.0188 -0.7790  2.0986
11548SOL     OW36650  10.027   7.347  10.997  0.1018 -0.7127 -0.4831
11548SOL    HW136651  10.112   7.321  11.035  1.1565  0.4465 -1.9359
11548SOL    HW236652  10.024   7.302  10.913 -0.4589 -0.2932 -0.6902
11549SOL     OW36653   1.533   5.012   6.264  0.5281 -0.5948  0.4286
11549SOL    HW136654   1.547   4.952   6.190 -0.8852 -0.6667  0.1925
11549SOL    HW236655   1.620   5.024   6.301  1.0735 -1.6007 -0.4463
11550SOL     OW36656   2.796   1.636   1.812 -0.5302  0.7393  0.5230
11550SOL    HW136657   2.860   1.609   1.877  0.2188  0.2284 -0.3940
11550SOL    HW236658   2.712   1.633   1.857 -0.2855 -1.5079  0.9471
11551SOL     OW36659   1.807   7.471   1.584 -0.1688 -0.0901  0.8505
11551SOL    HW136660   1.877   7.510   1.532  1.1004 -2.0602  0.9967
11551SOL    HW236661   1.730   7.474   1.527  0.2477  1.2230  0.3284
11552SOL     OW36662   0.932   5.746   0.230 -0.2247  0.1556 -0.5686
11552SOL    HW136663   1.027   5.735   0.240 -0.5083 -2.0244  0.2261
11552SOL    HW236664   0.916   5.732   0.137  0.0542 -1.4066 -0.4086
11553SOL     OW36665   1.430   4.740   1.331 -0.1545 -0.0609 -0.0762
11553SOL    HW136666   1.340   4.709   1.318 -1.3322  2.8363  0.2261
11553SOL    HW236667   1.472   4.728   1.246 -0.7687 -1.5633 -0.1970
11554SOL     OW36668   5.928   2.101   7.152  0.0961 -0.0759 -0.1425
11554SOL    HW136669   5.910   2.024   7.098  0.4238 -0.0539 -0.2852
11554SOL    HW236670   5.877   2.171   7.113  0.6918  0.0503 -0.7068
11555SOL     OW36671   7.078   7.125   9.817 -0.5066  0.0741 -0.4298
11555SOL    HW136672   7.031   7.053   9.776 -0.4271 -0.4232  0.3254
11555SOL    HW236673   7.061   7.200   9.761 -0.4133 -0.5741 -1.3510
11556SOL     OW36674  10.575   4.041   1.322 -0.1175 -0.3075  0.2385
11556SOL    HW136675  10.669   4.052   1.307  0.0428 -1.3177  0.4115
11556SOL    HW236676  10.563   4.063   1.414  0.0890 -0.9492  0.4226
11557SOL     OW36677   1.211   2.863  10.318  0.2744 -0.7342 -0.2374
11557SOL    HW136678   1.231   2.793  10.256  2.6460 -0.7489  0.4483
11557SOL    HW236679   1.248   2.942  10.279 -2.0372  0.1310 -0.8188
11558SOL     OW36680  10.860   6.135   9.577  0.0002  0.4126  0.6752
11558SOL    HW136681  10.873   6.153   9.670 -1.1357  0.3760  0.8521
11558SOL    HW236682  10.775   6.174   9.557  1.4047  2.8288 -0.9950
11559SOL     OW36683   3.993  10.428   2.309 -0.3552  0.5932  0.0024
11559SOL    HW136684   4.006  10.440   2.403 -1.4332  2.7514 -0.0605
11559SOL    HW236685   3.932  10.498   2.284 -0.8315 -0.4994 -2.1428
11560SOL     OW36686  10.800   5.679   8.225  0.3720  0.1511 -0.2141
11560SOL    HW136687  10.793   5.659   8.132  0.1659 -0.0439 -0.1579
11560SOL    HW236688  10.874   5.739   8.232 -0.0393  0.7033 -0.5817
11561SOL     OW36689   2.666   0.075   8.953 -0.2197 -1.0047 -0.3164
11561SOL    HW136690   2.584   0.032   8.974 -0.8008 -0.4753 -1.4335
11561SOL    HW236691   2.644   0.168   8.948  0.8829 -0.5899  1.4471
11562SOL     OW36692   9.614   2.199   1.248 -0.3906 -0.0973 -0.1274
11562SOL    HW136693   9.575   2.172   1.331  2.4810 -1.0576  0.9949
11562SOL    HW236694   9.700   2.233   1.271 -0.7608  2.8264 -2.3970
11563SOL     OW36695   8.148   8.859   2.219 -0.2173 -0.3230 -0.1205
11563SOL    HW136696   8.125   8.943   2.258 -0.7892 -0.1019 -0.9170
11563SOL    HW236697   8.243   8.864   2.205  0.2155 -0.8458  2.2369
11564SOL     OW36698   2.424   4.712  10.218  0.1019  0.0126  0.3779
11564SOL    HW136699   2.513   4.721  10.184 -0.2472  1.8262 -0.1565
11564SOL    HW236700   2.430   4.740  10.309 -0.4546  3.5725 -0.5329
11565SOL     OW36701   8.844   7.134   2.080  0.6652  0.4626 -0.0286
11565SOL    HW136702   8.804   7.139   1.993 -0.5986 -1.0833  0.3948
11565SOL    HW236703   8.853   7.040   2.096  0.0036  0.6772  1.8724
11566SOL     OW36704   8.478   8.938   6.921 -0.3013  0.6355 -0.6184
11566SOL    HW136705   8.538   9.008   6.946 -1.1065  1.3037 -0.5336
11566SOL    HW236706   8.396   8.959   6.965 -0.1527 -1.1905  0.6617
11567SOL     OW36707   9.010   1.171   2.306 -0.4079 -0.3134 -0.3306
11567SOL    HW136708   8.983   1.251   2.350 -0.4864 -0.8510  0.6276
11567SOL    HW236709   8.960   1.102   2.350  0.9981 -1.0982  0.1015
11568SOL     OW36710   2.726   3.353   4.712  0.1645 -0.7888  0.6803
11568SOL    HW136711   2.690   3.368   4.799 -0.2361 -0.1692  0.4175
11568SOL    HW236712   2.697   3.264   4.689 -0.5743 -0.5819  0.7800
11569SOL     OW36713   3.877   0.368   0.206 -0.4989  0.5628  0.5139
11569SOL    HW136714   3.849   0.396   0.119  0.7730 -1.7036 -0.6990
11569SOL    HW236715   3.799   0.380   0.261 -2.1839 -0.4095 -1.5218
11570SOL     OW36716   5.052   0.085   9.383  0.0164 -0.7503 -0.0233
11570SOL    HW136717   5.143   0.114   9.376 -0.1995 -0.1306 -0.2976
11570SOL    HW236718   5.035   0.083   9.477  0.3590 -1.0413  0.0373
11571SOL     OW36719   7.743  10.756   9.021  0.0042 -0.5839 -0.5959
11571SOL    HW136720   7.677  10.730   9.086 -0.6733 -0.6905 -1.3162
11571SOL    HW236721   7.777  10.673   8.987  3.5531 -0.7754  2.6423
11572SOL     OW36722   4.373  10.360   7.056  0.3398  0.1933 -1.1370
11572SOL    HW136723   4.396  10.453   7.061  0.8246  0.1548 -2.3073
11572SOL    HW236724   4.399  10.325   7.141 -0.6727  1.2923 -0.3389
11573SOL     OW36725   3.752   3.879   0.698  0.1466 -0.3222 -0.2928
11573SOL    HW136726   3.763   3.974   0.704  2.1288 -0.5257 -0.1564
11573SOL    HW236727   3.766   3.848   0.787 -0.1919 -0.7779 -0.3976
11574SOL     OW36728   0.924   5.950   1.209 -0.3759 -0.5379 -0.7877
11574SOL    HW136729   0.992   5.897   1.251 -0.5977 -1.0199 -1.0371
11574SOL    HW236730   0.946   6.040   1.234 -0.7751 -0.8348  0.7893
11575SOL     OW36731   4.805   5.889   0.628  0.0639 -0.4277  0.1597
11575SOL    HW136732   4.750   5.816   0.601 -2.6577  1.3906  0.3661
11575SOL    HW236733   4.779   5.962   0.572  2.0167  0.6625  0.5535
11576SOL     OW36734   1.549   7.277   1.754 -0.2183 -0.4034 -0.7047
11576SOL    HW136735   1.556   7.351   1.694  0.8557  0.6739  0.7039
11576SOL    HW236736   1.555   7.316   1.841 -1.5415 -1.9529  0.1226
11577SOL     OW36737   4.639   0.130   7.457 -0.2604 -0.0884 -0.7055
11577SOL    HW136738   4.719   0.150   7.409  0.8587 -0.6948  0.8250
11577SOL    HW236739   4.580   0.092   7.392  1.8322 -2.5356 -1.3511
11578SOL     OW36740   4.172   9.157   6.376 -0.4097  0.2993 -0.0216
11578SOL    HW136741   4.101   9.166   6.440  0.5532 -0.2500  1.1864
11578SOL    HW236742   4.179   9.243   6.335 -1.2587  0.5806  0.4066
11579SOL     OW36743   7.037   9.627   2.600  0.4737  0.2927 -0.2391
11579SOL    HW136744   6.975   9.697   2.623  1.5676  0.5735  2.1986
11579SOL    HW236745   7.115   9.672   2.569  1.0288  0.1670  0.9317
11580SOL     OW36746   9.152   4.346   5.045  0.0265 -0.0138 -0.4884
11580SOL    HW136747   9.136   4.432   5.083  1.3868 -0.1623  0.4807
11580SOL    HW236748   9.065   4.314   5.020 -0.7567  0.6527  1.2704
11581SOL     OW36749   9.033   8.449   8.556 -0.1330 -0.4703 -0.3532
11581SOL    HW136750   9.102   8.512   8.575 -0.6362 -0.4057  1.4580
11581SOL    HW236751   8.955   8.503   8.542 -0.3238 -0.6430  0.0479
11582SOL     OW36752  11.024   0.540   0.218 -0.0288 -0.1722 -0.4407
11582SOL    HW136753  11.038   0.448   0.239  0.9450 -0.1906 -1.1095
11582SOL    HW236754  10.933   0.544   0.187 -0.4431 -0.6932  0.6682
11583SOL     OW36755   2.179   0.951   6.876  0.1285 -0.8521 -0.3707
11583SOL    HW136756   2.132   0.996   6.946 -0.4463 -1.9794 -0.0088
11583SOL    HW236757   2.231   1.020   6.834  0.3760 -0.1289  1.0590
11584SOL     OW36758   4.207   3.188   7.846 -1.0902 -0.0913  0.1123
11584SOL    HW136759   4.208   3.214   7.938 -1.8232  0.4242 -0.0207
11584SOL    HW236760   4.163   3.103   7.846 -0.3008 -0.5175  0.3293
11585SOL     OW36761   0.305   4.630  10.789 -0.1596  0.0900  0.2803
11585SOL    HW136762   0.391   4.669  10.775 -0.7311  1.2612 -0.1001
11585SOL    HW236763   0.243   4.703  10.778 -1.2042 -0.7358  0.4904
11586SOL     OW36764   4.747   3.128   2.028  0.1642 -0.2377  0.5196
11586SOL    HW136765   4.791   3.077   1.961  3.6875  1.3640  1.3239
11586SOL    HW236766   4.666   3.080   2.047  1.3026 -3.2392 -1.4970
11587SOL     OW36767   9.179   2.035   9.828  0.5418 -0.3536  0.0066
11587SOL    HW136768   9.179   2.080   9.744 -1.1570 -2.0228 -0.9355
11587SOL    HW236769   9.149   2.101   9.890 -1.9797 -0.1104 -1.3562
11588SOL     OW36770   1.589   6.690   7.261  0.9543 -0.2931  0.2042
11588SOL    HW136771   1.573   6.625   7.193  0.7380  0.9632 -0.9878
11588SOL    HW236772   1.647   6.646   7.323 -0.0145 -1.9615 -0.0054
11589SOL     OW36773  10.762   8.355   8.656  0.7708 -0.2189 -0.0206
11589SOL    HW136774  10.761   8.399   8.571 -1.7668  1.3877  0.7072
11589SOL    HW236775  10.805   8.417   8.715 -1.1933  0.6376  0.6312
11590SOL     OW36776   5.267   1.410   9.635  0.1270 -0.0293 -0.4374
11590SOL    HW136777   5.342   1.458   9.600  1.0319  0.9834  2.5892
11590SOL    HW236778   5.197   1.423   9.571  1.6128  1.7033 -1.7946
11591SOL     OW36779   4.342   2.101   8.270  0.0210 -0.4792  0.1968
11591SOL    HW136780   4.255   2.133   8.245  0.3605  0.3141 -0.0018
11591SOL    HW236781   4.326   2.014   8.306 -0.8597 -0.3360  0.1757
11592SOL     OW36782   3.237   4.852   4.617 -0.3288  0.0022  0.1042
11592SOL    HW136783   3.168   4.825   4.678  1.4931 -0.2277  2.1894
11592SOL    HW236784   3.218   4.944   4.599 -0.8909  0.0902  1.0655
11593SOL     OW36785  10.762   0.692   0.510 -0.3557  0.6911 -0.2802
11593SOL    HW136786  10.685   0.640   0.534 -0.0281 -0.1316 -0.9799
11593SOL    HW236787  10.749   0.776   0.555 -0.8992  0.0204  0.8508
11594SOL     OW36788   5.717   4.239   1.265  0.1345  0.1321 -0.1854
11594SOL    HW136789   5.701   4.277   1.352 -3.1978 -0.4335 -0.4065
11594SOL    HW236790   5.639   4.261   1.215  2.3824  1.3422 -3.4822
11595SOL     OW36791   3.452  10.893   2.152  0.0526 -0.1686  1.1612
11595SOL    HW136792   3.401  10.812   2.157 -0.3179  0.1431  3.4733
11595SOL    HW236793   3.536  10.871   2.192  0.3217  0.3408  0.8911
11596SOL     OW36794   0.455   2.905   2.723  0.1583 -0.1260  0.5993
11596SOL    HW136795   0.480   2.998   2.713 -1.8190  0.4272  0.5001
11596SOL    HW236796   0.508   2.859   2.658 -0.8326  1.3206 -1.3187
11597SOL     OW36797   4.114   4.972   1.778  0.0151 -0.2085 -0.1498
11597SOL    HW136798   4.050   5.002   1.842  0.1171 -1.3811  0.5303
11597SOL    HW236799   4.091   5.017   1.697 -0.3850  0.9614  0.6046
11598SOL     OW36800   2.563   4.386   3.313 -0.0958 -0.6181 -0.0590
11598SOL    HW136801   2.592   4.463   3.361 -3.2984 -0.0212  1.1779
11598SOL    HW236802   2.640   4.329   3.309  2.6713  2.8975 -1.8066
11599SOL     OW36803   8.322   1.409   9.317 -0.7537 -0.3795  0.9421
11599SOL    HW136804   8.229   1.430   9.327 -0.4777  1.5384 -0.1127
11599SOL    HW236805   8.367   1.493   9.326  0.9232 -1.2937  1.6014
11600SOL     OW36806  11.012   2.397   9.301  0.1249 -0.2137 -0.1399
11600SOL    HW136807  11.098   2.358   9.287 -0.2535 -1.5490  0.9849
11600SOL    HW236808  11.021   2.487   9.269  2.2997  0.0650  1.0284
11601SOL     OW36809   7.888   1.206   0.193 -0.3026 -0.5489  0.6446
11601SOL    HW136810   7.953   1.276   0.181 -1.0459  0.3301  1.4989
11601SOL    HW236811   7.870   1.207   0.287 -1.0460 -1.2500  0.5209
11602SOL     OW36812   4.686   3.193   2.420 -0.0855  0.3797  0.4752
11602SOL    HW136813   4.630   3.127   2.379  0.8949 -0.3748  0.3142
11602SOL    HW236814   4.666   3.188   2.513  0.2375 -0.4019  0.5068
11603SOL     OW36815  10.880  10.975  10.931 -0.1401 -0.3332 -0.1376
11603SOL    HW136816  10.839  10.907  10.986  1.5598  0.4511  2.2694
11603SOL    HW236817  10.970  10.945  10.919  0.5101  1.2391  0.5977
11604SOL     OW36818   5.540   3.048  10.502  0.2340 -0.5032  0.2927
11604SOL    HW136819   5.536   2.995  10.582 -0.1545 -0.4819  0.2927
11604SOL    HW236820   5.625   3.028  10.463  1.0381  0.5499  1.4386
11605SOL     OW36821   4.433   6.838   0.312  0.8345  0.2564  0.0469
11605SOL    HW136822   4.440   6.902   0.241  1.6979 -0.6086 -0.6844
11605SOL    HW236823   4.518   6.843   0.356  0.8481 -0.2595  0.0813
11606SOL     OW36824  10.093   7.741   9.121 -0.1439 -0.4346 -0.2281
11606SOL    HW136825  10.155   7.814   9.118  0.1991 -0.7528 -1.1523
11606SOL    HW236826  10.014   7.779   9.158  1.2364 -0.5317  3.1023
11607SOL     OW36827   5.129  10.598   3.471 -0.0485  0.2469  0.3785
11607SOL    HW136828   5.123  10.651   3.550 -0.3695  0.5261  0.1670
11607SOL    HW236829   5.151  10.510   3.504  2.3308  0.8578  0.6030
11608SOL     OW36830   3.682   7.326   9.549  0.2641  0.0061  0.2797
11608SOL    HW136831   3.632   7.252   9.584 -1.1435 -0.7243 -2.9021
11608SOL    HW236832   3.774   7.302   9.564 -0.0577 -3.2261 -1.8764
11609SOL     OW36833   6.076   5.155   7.875 -0.3716  0.1437  0.0638
11609SOL    HW136834   6.172   5.159   7.879 -0.3809  0.1051  0.3571
11609SOL    HW236835   6.054   5.190   7.789 -0.2461  2.9051  1.0589
11610SOL     OW36836   4.377   5.365   3.629  0.0596  0.4132  0.2476
11610SOL    HW136837   4.365   5.408   3.545  0.2657  3.6850  1.7032
11610SOL    HW236838   4.311   5.405   3.686 -1.8079 -3.5369  1.1588
11611SOL     OW36839   3.099   7.794   4.529  0.2549 -0.1336  0.3802
11611SOL    HW136840   3.003   7.795   4.532  0.2562  0.0575  0.3989
11611SOL    HW236841   3.124   7.706   4.556  0.1859  0.5657  2.9612
11612SOL     OW36842   6.847   7.129   7.990  0.2209  0.2926 -0.4959
11612SOL    HW136843   6.855   7.210   8.040 -0.0879 -0.3142  0.5742
11612SOL    HW236844   6.934   7.090   7.992  0.1448  0.1322 -0.1721
11613SOL     OW36845   4.223   6.274   7.882  0.3279 -0.1386 -0.7093
11613SOL    HW136846   4.208   6.366   7.903 -0.4874 -0.1738 -1.0960
11613SOL    HW236847   4.141   6.230   7.906  0.9456 -0.8844  0.1103
11614SOL     OW36848   2.652  10.512   7.996  0.2634 -0.3931  0.0908
11614SOL    HW136849   2.604  10.497   8.077 -0.4118 -0.3011 -0.2882
11614SOL    HW236850   2.720  10.576   8.020 -1.3949  1.4609  0.0636
11615SOL     OW36851   3.043   7.512   0.975 -0.0734  0.4326 -0.5335
11615SOL    HW136852   3.097   7.591   0.964  0.4309  0.6385  2.5206
11615SOL    HW236853   2.958   7.545   1.004 -0.6319 -0.0629 -1.5943
11616SOL     OW36854   8.913   8.724   5.540  0.2588 -0.4087 -0.2976
11616SOL    HW136855   8.980   8.705   5.606  0.0985  0.4728  0.1232
11616SOL    HW236856   8.958   8.779   5.475 -0.4859  1.7035  0.8952
11617SOL     OW36857   3.273   7.484   6.513 -0.3745  0.4823 -0.0534
11617SOL    HW136858   3.362   7.506   6.540  0.2145 -0.9879 -0.7110
11617SOL    HW236859   3.277   7.480   6.418 -0.6797 -1.4024 -0.0134
11618SOL     OW36860   2.179   1.344   3.142 -0.5687  0.3770 -0.1144
11618SOL    HW136861   2.234   1.266   3.137 -0.9824  0.1415 -1.3813
11618SOL    HW236862   2.239   1.417   3.128 -0.4739  0.1564 -0.8974
11619SOL     OW36863   3.212   7.436   4.349 -0.0475  0.6924 -0.4388
11619SOL    HW136864   3.266   7.478   4.282  2.0221 -2.5453 -1.0089
11619SOL    HW236865   3.133   7.409   4.303  0.4944  0.2202 -1.0995
11620SOL     OW36866   5.548   1.077   9.147  0.2406  0.0701  0.1508
11620SOL    HW136867   5.567   1.159   9.191  2.8014  0.4847 -1.4933
11620SOL    HW236868   5.504   1.102   9.065  1.3696 -0.1130 -0.5367
11621SOL     OW36869   0.424   8.402   7.601  0.2857 -0.2849  0.0938
11621SOL    HW136870   0.486   8.346   7.556 -0.3241 -0.2268 -0.8469
11621SOL    HW236871   0.475   8.443   7.671  1.0212 -1.0921  0.0528
11622SOL     OW36872   2.629   5.797   1.228  0.5824  0.0820 -0.3690
11622SOL    HW136873   2.619   5.866   1.293 -1.2299 -0.6033  0.1423
11622SOL    HW236874   2.689   5.734   1.268 -0.8332 -0.5314  0.8492
11623SOL     OW36875   3.766   1.335   6.994  0.5673  0.1835  0.2999
11623SOL    HW136876   3.722   1.416   7.017  0.7021  0.3245  0.0657
11623SOL    HW236877   3.825   1.317   7.068 -0.6657 -0.5923  1.1384
11624SOL     OW36878   5.337   9.054   5.993 -0.4753  0.0567  0.7569
11624SOL    HW136879   5.370   9.052   6.083  1.1504 -0.3526  0.1821
11624SOL    HW236880   5.410   9.088   5.941 -0.8827 -1.0732 -0.6151
11625SOL     OW36881  10.109   9.568   3.253 -0.0133 -0.4256  0.3006
11625SOL    HW136882  10.182   9.506   3.252 -0.5587 -1.1729  1.9996
11625SOL    HW236883  10.066   9.553   3.337 -2.2362 -0.1372 -0.6980
11626SOL     OW36884   7.207   3.111   3.163  0.5615  0.3562 -0.4023
11626SOL    HW136885   7.143   3.175   3.192 -3.2987 -3.1445 -0.2907
11626SOL    HW236886   7.247   3.151   3.085 -2.5868  2.3977 -1.1727
11627SOL     OW36887   3.906   4.514   4.554 -0.0055 -0.6438  0.6484
11627SOL    HW136888   3.929   4.481   4.640  1.6827 -1.4668 -0.0859
11627SOL    HW236889   3.990   4.529   4.510 -0.8205 -0.2972 -0.8753
11628SOL     OW36890  10.843   0.481   2.849 -0.0227 -1.0111 -0.2248
11628SOL    HW136891  10.900   0.551   2.882 -0.1965  0.3668 -2.5969
11628SOL    HW236892  10.903   0.418   2.810  0.0552 -1.4946  0.6573
11629SOL     OW36893   4.271   3.874  10.521 -0.3326  0.5424 -0.3810
11629SOL    HW136894   4.288   3.888  10.614 -1.1580 -2.1460  0.2783
11629SOL    HW236895   4.179   3.898  10.510 -0.3197  0.5674 -0.4349
11630SOL     OW36896   0.845   5.908   6.647 -0.4431 -0.0045  0.0392
11630SOL    HW136897   0.900   5.912   6.724  0.0241 -1.8125 -0.1409
11630SOL    HW236898   0.759   5.939   6.676 -0.6345 -1.8767  1.6655
11631SOL     OW36899   8.161  10.340   9.591  0.0770 -0.6662 -0.2659
11631SOL    HW136900   8.149  10.360   9.498 -0.6838  0.9501  0.1419
11631SOL    HW236901   8.250  10.370   9.610  0.1104 -0.6802 -0.3998
11632SOL     OW36902   5.717   1.318  10.009 -0.2825 -0.1095 -0.1398
11632SOL    HW136903   5.678   1.403   9.990  3.9981  1.9952 -0.8232
11632SOL    HW236904   5.763   1.331  10.092  1.4738 -1.2948 -0.8586
11633SOL     OW36905   0.473   8.019   5.789  0.3003  0.4861 -0.2024
11633SOL    HW136906   0.566   8.008   5.808 -0.0325 -1.3554  0.6190
11633SOL    HW236907   0.436   8.058   5.869  0.4878  2.1887 -0.9003
11634SOL     OW36908   7.633   4.936   8.319 -0.0194  0.1588  0.3747
11634SOL    HW136909   7.703   4.898   8.267  0.3823 -0.1805  1.1628
11634SOL    HW236910   7.562   4.872   8.316  0.6069 -0.6195  1.5887
11635SOL     OW36911   4.123   5.333   0.289 -0.5159  0.0925  0.2623
11635SOL    HW136912   4.074   5.263   0.246  1.2600 -1.1680  0.1599
11635SOL    HW236913   4.152   5.390   0.218  0.9326 -1.0241 -0.1035
11636SOL     OW36914   2.710   7.604   0.541 -0.2763 -0.1340 -0.1354
11636SOL    HW136915   2.672   7.582   0.627 -0.9945  0.7636 -0.2117
11636SOL    HW236916   2.772   7.533   0.524 -2.1797 -1.8930 -0.1692
11637SOL     OW36917   8.844   7.109   9.411  0.7513  0.3489  0.4945
11637SOL    HW136918   8.834   7.014   9.403  0.9391  0.2395  1.4262
11637SOL    HW236919   8.907   7.132   9.342  0.6997 -0.1992  0.2583
11638SOL     OW36920   3.571   7.223   5.426 -0.4245  0.3658 -0.8588
11638SOL    HW136921   3.652   7.217   5.377  0.3875  0.5269  0.4127
11638SOL    HW236922   3.596   7.262   5.510 -1.2286 -2.4275  0.8162
11639SOL     OW36923   9.720   1.953  10.371 -0.3791  0.5235 -0.4072
11639SOL    HW136924   9.689   2.043  10.364 -0.5929  0.3900 -1.4450
11639SOL    HW236925   9.765   1.937  10.288 -2.8874 -1.2211 -1.5850
11640SOL     OW36926   3.000   3.640   2.204  0.3159  0.2582 -0.2819
11640SOL    HW136927   3.085   3.669   2.170  0.0495 -0.5220 -1.7020
11640SOL    HW236928   2.952   3.721   2.221 -0.2769  0.8310 -3.7812
11641SOL     OW36929   8.424  10.761   6.801 -0.1314  0.0889  0.2740
11641SOL    HW136930   8.329  10.756   6.789 -0.1522  0.7745  0.0886
11641SOL    HW236931   8.442  10.706   6.877 -0.6414 -0.2948  0.1164
11642SOL     OW36932   9.134   9.859   5.317  0.2039 -0.9439 -0.2797
11642SOL    HW136933   9.109   9.924   5.251 -1.6100 -0.0801  1.1685
11642SOL    HW236934   9.213   9.896   5.358 -1.1228  0.7357  0.9152
11643SOL     OW36935  10.702   0.579  10.961  0.0254  0.4616 -0.3884
11643SOL    HW136936  10.642   0.616  10.897 -1.3964  0.5204  0.9094
11643SOL    HW236937  10.741   0.504  10.917 -0.4974  0.8243 -1.5035
11644SOL     OW36938   8.402   7.580   0.386 -0.2018  0.2904 -0.1496
11644SOL    HW136939   8.485   7.563   0.341  0.3014  1.1002  0.4567
11644SOL    HW236940   8.427   7.595   0.477 -1.3076 -2.6832  0.7764
11645SOL     OW36941   5.861   7.001   8.584  0.0239 -0.2525  0.3294
11645SOL    HW136942   5.778   6.959   8.561  0.1707  0.3602 -1.5492
11645SOL    HW236943   5.907   6.936   8.636 -1.7017 -0.5153  1.6298
11646SOL     OW36944   9.022   1.285   5.263 -0.0893  0.5994  0.4219
11646SOL    HW136945   9.004   1.357   5.323  1.3795 -0.5043  2.3153
11646SOL    HW236946   9.111   1.302   5.231 -0.0289  0.0467  0.2833
11647SOL     OW36947   4.004   3.659  10.597 -0.0987  0.1191 -0.1760
11647SOL    HW136948   4.084   3.653  10.649 -0.4655  1.4660  0.5837
11647SOL    HW236949   3.935   3.628  10.656 -0.2387 -0.2937 -0.5584
11648SOL     OW36950   5.339   7.951   2.773  0.1999  0.7537  0.3673
11648SOL    HW136951   5.265   7.928   2.829 -0.1200  0.9745  0.0378
11648SOL    HW236952   5.304   8.018   2.714 -0.1228 -1.1057 -1.6438
11649SOL     OW36953   4.442   5.773  10.933 -0.7559  0.1604 -0.7825
11649SOL    HW136954   4.498   5.778  10.856 -0.9287 -1.3097 -1.0381
11649SOL    HW236955   4.499   5.742  11.003 -0.2885  2.6758  0.0776
11650SOL     OW36956   3.422   7.261   8.752  0.0423 -0.7150 -0.3697
11650SOL    HW136957   3.370   7.292   8.677  1.2166  0.1845 -0.8493
11650SOL    HW236958   3.362   7.266   8.826 -0.1839  1.7706 -0.6177
11651SOL     OW36959   0.798   5.230  10.737  0.0546 -0.0815  0.1741
11651SOL    HW136960   0.890   5.259  10.734  0.8168 -2.2634  0.6108
11651SOL    HW236961   0.764   5.267  10.818  1.1549 -0.8131  1.0028
11652SOL     OW36962   5.557   7.254   1.351 -0.1564  0.0908 -0.2984
11652SOL    HW136963   5.643   7.215   1.363 -0.7593 -1.6095 -1.2258
11652SOL    HW236964   5.553   7.323   1.417  2.2661  0.8686 -0.8887
11653SOL     OW36965   7.686   9.008   2.280 -0.0948  0.6862  0.7116
11653SOL    HW136966   7.639   9.017   2.363  2.1413  1.0327  2.0061
11653SOL    HW236967   7.616   8.996   2.215 -1.9689  1.3841  2.4700
11654SOL     OW36968  10.936   8.486   7.003 -0.3841  0.2795  0.3351
11654SOL    HW136969  10.981   8.502   6.920  0.7366 -1.5511  0.5201
11654SOL    HW236970  10.999   8.511   7.070 -0.9119  0.8322  0.6275
11655SOL     OW36971   1.930   0.234   5.274 -0.6718  0.2802  0.5464
11655SOL    HW136972   1.919   0.185   5.192  1.1384 -0.0675  0.4615
11655SOL    HW236973   1.926   0.326   5.248  0.7973  0.1803 -0.1012
11656SOL     OW36974   4.204   4.894   5.250 -0.2698 -0.4173 -0.7170
11656SOL    HW136975   4.194   4.909   5.156 -3.3624  1.3373 -0.2283
11656SOL    HW236976   4.269   4.958   5.278 -0.4946  0.1421 -1.4356
11657SOL     OW36977   3.464   4.249   0.577  0.2531 -0.6333  0.2032
11657SOL    HW136978   3.457   4.187   0.504  0.6868  0.7190 -1.0420
11657SOL    HW236979   3.389   4.307   0.566  0.6095 -0.1084  0.5098
11658SOL     OW36980   0.493   7.597   4.516  0.0704  0.2548 -0.3184
11658SOL    HW136981   0.538   7.679   4.493  2.0444 -0.4714  0.7251
11658SOL    HW236982   0.423   7.624   4.576 -0.7633  1.3784 -1.7254
11659SOL     OW36983   6.855   3.266   1.138 -0.2728  0.5233 -0.6027
11659SOL    HW136984   6.865   3.289   1.046  0.0484  0.7808 -0.5032
11659SOL    HW236985   6.811   3.180   1.136  1.0138 -0.1482 -1.0211
11660SOL     OW36986   9.163   8.175   3.217 -0.0960  0.2273 -0.0148
11660SOL    HW136987   9.238   8.190   3.159 -0.2759  0.8549 -0.0832
11660SOL    HW236988   9.179   8.231   3.293 -0.6522  0.5876 -0.1652
11661SOL     OW36989   8.407   8.021   7.887 -0.3063 -0.0212  0.0462
11661SOL    HW136990   8.396   8.070   7.968 -2.2993 -0.3303  0.0369
11661SOL    HW236991   8.342   7.951   7.893 -0.4925 -0.0614 -1.7959
11662SOL     OW36992   4.068   0.376   7.100  0.4695  0.0180 -0.3642
11662SOL    HW136993   4.091   0.378   7.192 -1.3502 -0.2035  0.1361
11662SOL    HW236994   4.112   0.297   7.066  2.2219  0.8150 -0.0369
11663SOL     OW36995  10.351   6.611  10.901 -0.2569  0.8201  0.0123
11663SOL    HW136996  10.326   6.676  10.835  0.3645  1.1768  0.1230
11663SOL    HW236997  10.276   6.552  10.904 -2.3161  3.2784  2.2018
11664SOL     OW36998   1.305   2.086   9.365  0.4684  0.0137 -0.4972
11664SOL    HW136999   1.289   2.048   9.279 -1.5816  0.2381 -0.2554
11664SOL    HW237000   1.309   2.011   9.424 -0.0573 -0.0274 -0.5143
11665SOL     OW37001   2.371  10.405   6.603 -0.2848 -0.1198 -0.4504
11665SOL    HW137002   2.313  10.474   6.635 -0.1380  1.2068 -2.7925
11665SOL    HW237003   2.319  10.359   6.537  0.1890 -1.1711 -0.1115
11666SOL     OW37004   7.309   0.122   4.688 -0.6367 -0.1252  0.2143
11666SOL    HW137005   7.352   0.196   4.646  1.0309 -0.7163  0.7698
11666SOL    HW237006   7.242   0.094   4.626 -1.0719  1.5997 -0.1542
11667SOL     OW37007   9.456   4.598   0.480 -0.3636 -0.2719 -0.1060
11667SOL    HW137008   9.500   4.525   0.437  0.2430 -0.3879  0.6968
11667SOL    HW237009   9.367   4.597   0.445  0.0400 -0.5233 -1.1485
11668SOL     OW37010   4.036   1.549   7.789 -0.6172  0.5552 -0.0720
11668SOL    HW137011   3.967   1.522   7.729 -2.0068  1.2986  1.1498
11668SOL    HW237012   4.051   1.472   7.845  0.7199 -0.1586 -1.3237
11669SOL     OW37013   7.699   2.897  10.607  0.5776  1.1924  0.2602
11669SOL    HW137014   7.677   2.974  10.556 -0.6366  0.3880 -0.4864
11669SOL    HW237015   7.623   2.839  10.598  1.0577  0.2969  1.5655
11670SOL     OW37016   2.562  10.678   2.763 -0.1732  0.1817  0.4206
11670SOL    HW137017   2.640  10.627   2.742  0.4619  0.8507  1.0963
11670SOL    HW237018   2.588  10.731   2.839 -0.9536  1.1696  0.0114
11671SOL     OW37019   5.850   1.920   4.820  0.5230  0.0545  0.7170
11671SOL    HW137020   5.777   1.981   4.809  0.8479  0.1027 -1.5204
11671SOL    HW237021   5.810   1.833   4.808  0.4727 -0.0631  1.6506
11672SOL     OW37022   1.335   0.096   2.229 -0.5182 -0.1940  0.0804
11672SOL    HW137023   1.257   0.050   2.260 -1.3021  0.5643 -0.7190
11672SOL    HW237024   1.312   0.125   2.141  0.6439  0.1055 -0.1308
11673SOL     OW37025   7.359   5.163   7.515 -0.0202 -0.5544 -0.7835
11673SOL    HW137026   7.342   5.111   7.437 -0.0336  0.1689 -1.2752
11673SOL    HW237027   7.335   5.253   7.490  0.5394 -0.2141 -0.1473
11674SOL     OW37028   3.739   4.275   1.033  0.5511 -0.1039  0.0778
11674SOL    HW137029   3.830   4.292   1.060  0.7607  0.7841 -1.1043
11674SOL    HW237030   3.734   4.311   0.944 -1.2264  0.7472  0.4920
11675SOL     OW37031   6.160   1.333   7.799 -0.2596 -0.6124 -0.0774
11675SOL    HW137032   6.111   1.263   7.842  0.0967 -0.8253 -0.0115
11675SOL    HW237033   6.251   1.302   7.798  0.1542  0.4686  1.2376
11676SOL     OW37034  10.892   3.036   4.104 -0.5624 -0.2389  0.0051
11676SOL    HW137035  10.847   2.986   4.035 -1.5274  0.1287  0.3401
11676SOL    HW237036  10.826   3.100   4.133  0.5891  1.1419 -0.3233
11677SOL     OW37037   2.254   6.984   3.490 -0.0428 -0.0107  0.2701
11677SOL    HW137038   2.285   6.898   3.516  1.1564  0.5589  0.7858
11677SOL    HW237039   2.216   7.021   3.570  1.8394  0.9523  0.7758
11678SOL     OW37040   5.667   8.885   0.498  0.0025  0.0511  0.5903
11678SOL    HW137041   5.725   8.809   0.504  1.0371  0.8139  0.3107
11678SOL    HW237042   5.725   8.961   0.501 -0.6799  0.8292 -2.3499
11679SOL     OW37043   1.749   6.346   4.764 -0.0148 -0.0948 -0.6940
11679SOL    HW137044   1.780   6.262   4.797 -0.8001 -0.3511 -0.5843
11679SOL    HW237045   1.814   6.409   4.794  0.2489 -0.5744 -0.2345
11680SOL     OW37046   2.260   0.759   4.899  0.3341  0.7205  0.1804
11680SOL    HW137047   2.209   0.836   4.876 -0.1143  0.4240  0.1665
11680SOL    HW237048   2.196   0.698   4.936  0.3272 -0.3765 -1.5169
11681SOL     OW37049   0.754   8.843   2.707 -0.1285  0.0031 -0.0417
11681SOL    HW137050   0.716   8.755   2.713  0.2950 -0.4101 -2.5856
11681SOL    HW237051   0.839   8.830   2.666 -1.0223  1.7713 -2.6799
11682SOL     OW37052   4.118   0.806   8.803  0.3199  0.1460  0.1347
11682SOL    HW137053   4.094   0.784   8.893  0.1855 -2.8596 -0.5385
11682SOL    HW237054   4.035   0.818   8.757  0.1281 -2.8171 -0.5029
11683SOL     OW37055   7.550  10.732   9.487  0.5636  0.2552 -0.6210
11683SOL    HW137056   7.530  10.692   9.572  0.2977 -0.2409 -0.9174
11683SOL    HW237057   7.489  10.805   9.480  0.7239  0.4215 -0.2932
11684SOL     OW37058   1.558  10.104   5.783 -0.5108  0.6094  0.1023
11684SOL    HW137059   1.524  10.015   5.772 -2.3404  1.2951 -0.0920
11684SOL    HW237060   1.588  10.107   5.874  0.1644 -0.3781 -0.0714
11685SOL     OW37061  10.444   6.421   7.135  0.6524  0.1054  0.2805
11685SOL    HW137062  10.425   6.382   7.050  0.3222  0.1996  0.3105
11685SOL    HW237063  10.390   6.371   7.197  0.7040  0.1982  0.4006
11686SOL     OW37064   1.324  10.874   4.528  0.8723  0.1791 -0.8026
11686SOL    HW137065   1.369  10.953   4.557 -1.1196  1.0500  0.1069
11686SOL    HW237066   1.268  10.903   4.456  0.8719 -0.6240 -1.1413
11687SOL     OW37067   2.688   3.671   6.935 -0.6199 -0.1166  0.4706
11687SOL    HW137068   2.711   3.686   6.843 -2.3442  1.1709  0.2045
11687SOL    HW237069   2.631   3.595   6.934  1.7059 -1.9918  0.8927
11688SOL     OW37070   8.549   1.312   6.530 -0.0847  0.1716  0.2118
11688SOL    HW137071   8.524   1.303   6.622  0.6108  1.5321  0.5653
11688SOL    HW237072   8.644   1.303   6.530  0.0127  1.0613 -0.2280
11689SOL     OW37073   8.141   9.081  10.020 -0.1203  0.1609  0.1741
11689SOL    HW137074   8.079   9.028  10.070 -0.2591 -0.2872 -0.4551
11689SOL    HW237075   8.106   9.170  10.024 -0.0442  0.1624  0.9915
11690SOL     OW37076   1.504   0.450   9.200  0.0709  0.9260 -0.3366
11690SOL    HW137077   1.525   0.423   9.290  0.1920 -2.8035 -1.3394
11690SOL    HW237078   1.501   0.369   9.150 -1.4645  2.7175 -3.4710
11691SOL     OW37079   8.969   3.483   9.934 -0.0785  0.4579 -0.0914
11691SOL    HW137080   8.964   3.508   9.842 -0.8375  0.1587 -0.1383
11691SOL    HW237081   9.052   3.436   9.941 -0.1506  0.2230 -0.6914
11692SOL     OW37082   6.956   5.671   2.509 -0.0801 -0.3807  0.2936
11692SOL    HW137083   6.861   5.657   2.506 -0.2120  0.1476  1.5956
11692SOL    HW237084   6.982   5.635   2.593  1.0075 -1.1840 -0.3644
11693SOL     OW37085   1.406   0.400   3.822  0.6811 -0.3722 -0.6994
11693SOL    HW137086   1.474   0.354   3.772 -0.3609 -1.5336 -1.0695
11693SOL    HW237087   1.325   0.383   3.774 -0.2946 -1.1732  1.1529
11694SOL     OW37088   9.181   1.147   1.244 -0.0149 -0.9542  0.1766
11694SOL    HW137089   9.189   1.196   1.162  1.1374 -2.2349 -0.5098
11694SOL    HW237090   9.270   1.118   1.264  0.0188  0.4898  2.6621
11695SOL     OW37091   4.132   6.026   8.224  0.0826 -0.1371 -0.1122
11695SOL    HW137092   4.061   6.088   8.205  0.7047  0.6039 -0.0860
11695SOL    HW237093   4.211   6.081   8.226  0.7775 -1.0754 -0.9998
11696SOL     OW37094   7.599   6.785   8.634  0.1942  0.4513  0.3250
11696SOL    HW137095   7.550   6.843   8.575  2.4973  1.9840 -0.2362
11696SOL    HW237096   7.681   6.766   8.587 -0.5062 -3.5844  0.3860
11697SOL     OW37097   8.644   4.926   3.200 -0.5089  0.4721 -0.4182
11697SOL    HW137098   8.593   4.980   3.140 -0.9328 -0.9577 -1.3908
11697SOL    HW237099   8.664   4.984   3.274 -0.0879  2.2411 -1.8602
11698SOL     OW37100   1.716   3.782   2.470  0.4686  0.0672 -0.5250
11698SOL    HW137101   1.664   3.712   2.509 -0.3216  1.0137  0.1905
11698SOL    HW237102   1.748   3.746   2.387 -1.3013 -0.5816 -0.9649
11699SOL     OW37103   8.916   2.549   3.041 -0.2084  0.2899  0.8602
11699SOL    HW137104   8.919   2.526   2.948  0.2471  0.3682  0.8537
11699SOL    HW237105   8.880   2.472   3.084  3.0846 -1.2715  1.0864
11700SOL     OW37106   3.692   6.935   9.898 -0.0850  0.2435 -0.3953
11700SOL    HW137107   3.694   6.998   9.970 -0.2869 -2.0067  1.6992
11700SOL    HW237108   3.599   6.920   9.882 -0.0735 -0.9716  0.5305
11701SOL     OW37109   4.810   3.012   6.396  0.2768  0.8417 -0.0933
11701SOL    HW137110   4.853   2.942   6.444  2.2260  0.8843 -1.6335
11701SOL    HW237111   4.726   3.023   6.440 -1.0499 -3.8056 -0.9199
11702SOL     OW37112   4.447   2.159   9.872  0.2324 -0.3909  0.8512
11702SOL    HW137113   4.474   2.118   9.790 -1.3075  0.0926  0.0505
11702SOL    HW237114   4.488   2.245   9.871 -1.4810  0.4671 -0.5047
11703SOL     OW37115   7.888   4.436   5.165 -0.4267 -0.1141  0.2113
11703SOL    HW137116   7.952   4.507   5.155 -0.6252 -0.0520 -0.7195
11703SOL    HW237117   7.819   4.473   5.221 -0.4729  0.3911 -0.1714
11704SOL     OW37118   9.845   0.556   2.539  0.3396 -0.9222  0.1589
11704SOL    HW137119   9.853   0.635   2.593 -2.3985 -0.4798  0.0652
11704SOL    HW237120   9.925   0.556   2.486  0.2377  2.1227 -0.2041
11705SOL     OW37121   3.811   7.614   4.406 -0.5688  0.1069  0.4765
11705SOL    HW137122   3.898   7.646   4.385 -0.7906  1.1519  1.0674
11705SOL    HW237123   3.824   7.549   4.475 -0.3330  0.9394  1.2218
11706SOL     OW37124   3.790   6.712   1.791  0.1793  0.3423  0.4848
11706SOL    HW137125   3.844   6.789   1.809  2.1647 -0.4824 -1.4648
11706SOL    HW237126   3.716   6.720   1.851  0.6523  3.3859  0.8275
11707SOL     OW37127   2.343   0.565   6.949 -0.7830 -0.3771 -0.2686
11707SOL    HW137128   2.268   0.543   6.894 -1.4695 -0.8033  0.8047
11707SOL    HW237129   2.391   0.631   6.899 -1.0263 -1.2226 -1.6509
11708SOL     OW37130   6.004   1.059   1.656  0.1659 -0.3980 -0.0352
11708SOL    HW137131   6.053   1.107   1.723  1.4170  0.4586 -1.4796
11708SOL    HW237132   5.951   1.126   1.613  1.8239 -0.2371 -1.9811
11709SOL     OW37133   4.202   4.377  10.177 -0.0193  0.6986  0.2082
11709SOL    HW137134   4.196   4.288  10.141 -1.2921 -0.1452  2.3424
11709SOL    HW237135   4.220   4.432  10.100 -0.8956 -1.1756 -1.4431
11710SOL     OW37136   4.048   7.129   5.194 -0.6928  0.3104 -0.1128
11710SOL    HW137137   4.093   7.213   5.199  1.2609 -0.7471  1.7581
11710SOL    HW237138   4.117   7.064   5.208 -2.6403 -1.4553  2.2407
11711SOL     OW37139   6.705   9.957   4.639 -0.0869 -0.2704 -0.0540
11711SOL    HW137140   6.768   9.918   4.699 -0.2186 -1.9139 -0.9349
11711SOL    HW237141   6.719   9.911   4.556 -1.6254  0.1820 -0.5945
11712SOL     OW37142   2.601   4.169   4.463 -0.8790  0.6019  0.1986
11712SOL    HW137143   2.588   4.075   4.476  0.7112 -0.2276 -3.1033
11712SOL    HW237144   2.639   4.200   4.545 -0.6887 -1.8238  1.0820
11713SOL     OW37145   8.798   7.807   3.162 -0.8805  0.2012  0.0226
11713SOL    HW137146   8.855   7.868   3.209  0.9049 -0.1606 -1.5305
11713SOL    HW237147   8.835   7.720   3.182  0.8158  0.0851 -2.9181
11714SOL     OW37148   7.440   7.097   0.278  0.6062 -0.6983 -0.1443
11714SOL    HW137149   7.399   7.121   0.361 -2.1318 -1.0993 -1.2732
11714SOL    HW237150   7.528   7.068   0.303  0.7939  1.5406  2.2873
11715SOL     OW37151   1.409   7.581   0.781 -0.0185  0.0084  1.0288
11715SOL    HW137152   1.409   7.634   0.701 -0.3276  1.0897  1.7342
11715SOL    HW237153   1.380   7.495   0.752  2.2955 -0.3590 -0.4923
11716SOL     OW37154   5.953   6.624   2.279 -0.1572 -0.1976 -0.0869
11716SOL    HW137155   5.998   6.701   2.313 -0.8387  1.3878 -2.5771
11716SOL    HW237156   5.956   6.633   2.184 -3.6831 -1.1669 -0.4574
11717SOL     OW37157   4.576   8.523   6.421  0.1958 -0.6798 -0.0860
11717SOL    HW137158   4.512   8.549   6.355  0.9782 -3.5391 -2.1487
11717SOL    HW237159   4.627   8.603   6.437 -0.8064  0.4272 -2.0450
11718SOL     OW37160   3.447   9.934   8.638  0.1971 -0.1661  0.1669
11718SOL    HW137161   3.497   9.867   8.685 -0.5412 -1.1630 -0.4391
11718SOL    HW237162   3.486  10.017   8.666  1.0978 -0.8408  0.9666
11719SOL     OW37163   8.471   6.233  10.600  0.9505 -0.6474 -0.1291
11719SOL    HW137164   8.414   6.306  10.574  0.5456 -0.9954 -0.2317
11719SOL    HW237165   8.494   6.253  10.691  0.8286 -0.3957 -0.1512
11720SOL     OW37166   0.932   0.804   8.547 -0.0827  0.7356  0.8560
11720SOL    HW137167   0.920   0.807   8.642  2.6827  1.8257  1.2619
11720SOL    HW237168   0.866   0.865   8.513 -2.3986 -1.0512  1.8052
11721SOL     OW37169   8.643   3.478   2.901  0.0670 -0.0600 -0.2405
11721SOL    HW137170   8.708   3.413   2.874  0.7375  0.8074 -0.7673
11721SOL    HW237171   8.574   3.427   2.945  0.9346 -1.0285  0.0235
11722SOL     OW37172  10.577   9.093   6.757  0.2413  0.4442 -0.0030
11722SOL    HW137173  10.552   9.083   6.665 -1.7156  0.7715  0.4443
11722SOL    HW237174  10.588   9.004   6.789 -2.6082  0.1006  0.2893
11723SOL     OW37175   2.432   1.684  10.173  0.5823  0.6834  0.4977
11723SOL    HW137176   2.367   1.615  10.181  0.4906  0.8521  1.2550
11723SOL    HW237177   2.388   1.752  10.121 -0.2182  1.2190  1.8255
11724SOL     OW37178   2.384   0.084   4.367 -0.0587  0.0221  0.7066
11724SOL    HW137179   2.421   0.164   4.331  2.3534 -1.3321 -0.0202
11724SOL    HW237180   2.363   0.105   4.458 -1.3325  1.9861  0.0305
11725SOL     OW37181   5.101   8.526   5.311 -0.0946 -0.0702 -0.0011
11725SOL    HW137182   5.129   8.451   5.363  0.8124  0.3998  0.2235
11725SOL    HW237183   5.057   8.488   5.235  1.7474 -0.8985 -0.7027
11726SOL     OW37184   9.364   0.821   9.098  0.2629  0.0564  0.5638
11726SOL    HW137185   9.335   0.877   9.026  0.5542  0.2165  0.5726
11726SOL    HW237186   9.451   0.791   9.072 -0.4879 -1.6238 -0.1702
11727SOL     OW37187   7.849   0.932   5.001  0.1130 -0.1189 -0.5601
11727SOL    HW137188   7.934   0.942   4.958  0.3149  2.0842  0.2110
11727SOL    HW237189   7.870   0.924   5.094 -0.4236 -2.5406 -0.5991
11728SOL     OW37190   9.374   1.917   9.513  0.4015 -0.3851 -0.3322
11728SOL    HW137191   9.426   1.922   9.593  0.7697  1.6988 -0.6466
11728SOL    HW237192   9.428   1.958   9.446 -1.4019  1.3848 -0.7883
11729SOL     OW37193   3.867   0.474   0.544  0.1004 -0.0139  0.2908
11729SOL    HW137194   3.918   0.446   0.468  0.7791 -0.4569  0.8943
11729SOL    HW237195   3.931   0.516   0.602 -0.3423  0.0133  0.7684
11730SOL     OW37196   1.571   8.911   6.395  0.4210 -0.0980 -1.0034
11730SOL    HW137197   1.608   8.975   6.335  0.8342 -2.0624 -2.9886
11730SOL    HW237198   1.626   8.833   6.384 -0.9663 -1.3013  0.1307
11731SOL     OW37199   9.438  10.897   7.928 -0.3520 -0.4455  0.2555
11731SOL    HW137200   9.361  10.903   7.984  0.0339  2.5362  0.6486
11731SOL    HW237201   9.475  10.985   7.929  1.3520 -1.0121 -2.3682
11732SOL     OW37202   4.050  10.647   8.521 -0.3484 -0.5334 -0.2925
11732SOL    HW137203   3.954  10.644   8.514 -0.4650  0.4876  0.6760
11732SOL    HW237204   4.078  10.701   8.447 -0.5957  0.0113  0.0127
11733SOL     OW37205   0.948   3.031   7.326 -0.0742  0.2303 -0.2663
11733SOL    HW137206   0.949   3.120   7.361 -2.1515  0.2305 -0.1274
11733SOL    HW237207   1.038   2.999   7.340  0.6155  2.1555 -0.0009
11734SOL     OW37208   3.109   9.164   9.400  0.6085 -0.1842  0.1773
11734SOL    HW137209   3.135   9.092   9.342  0.9030 -1.1762  1.4887
11734SOL    HW237210   3.014   9.166   9.394  0.3612 -2.2681  1.8255
11735SOL     OW37211   1.618   4.673   5.396 -0.7181 -1.0990 -0.0429
11735SOL    HW137212   1.534   4.703   5.363 -0.0794  0.2140 -0.5362
11735SOL    HW237213   1.681   4.696   5.328  0.2472 -0.7074  0.9442
11736SOL     OW37214   9.862   4.970   3.505  0.0986  0.2032 -0.0853
11736SOL    HW137215   9.834   5.042   3.448 -1.3361 -0.3309 -0.0715
11736SOL    HW237216   9.818   4.986   3.588  2.9470  1.5411  1.3127
11737SOL     OW37217   1.052   6.902   3.654  0.5917  0.2178 -0.1719
11737SOL    HW137218   0.985   6.953   3.609 -1.8492 -2.9041 -0.4203
11737SOL    HW237219   1.057   6.941   3.741 -0.2702  1.5988 -0.7097
11738SOL     OW37220   9.745   6.900   9.843 -0.8981 -0.0806 -0.2349
11738SOL    HW137221   9.832   6.937   9.857 -0.8722 -0.4586  0.6715
11738SOL    HW237222   9.742   6.882   9.749 -0.6137  1.4372 -0.5703
11739SOL     OW37223   2.423   9.029   1.157  0.4965  0.3436  0.6260
11739SOL    HW137224   2.452   8.997   1.071 -2.3966  0.2455 -0.4138
11739SOL    HW237225   2.480   9.103   1.175  2.8343 -1.1371 -0.1403
11740SOL     OW37226   3.084   1.781   1.705  0.2810 -0.1317 -0.0732
11740SOL    HW137227   3.010   1.722   1.720  2.8100 -3.6859 -0.0858
11740SOL    HW237228   3.111   1.808   1.792 -0.8575  1.0795 -0.0625
11741SOL     OW37229   9.568   4.143   3.904  0.2572 -0.0455  0.2620
11741SOL    HW137230   9.656   4.113   3.929  1.0539  1.7641 -0.1932
11741SOL    HW237231   9.544   4.206   3.972 -0.9975 -0.9770  0.7278
11742SOL     OW37232   3.401   4.944   3.863  0.0104 -0.5203  0.3965
11742SOL    HW137233   3.427   5.035   3.849  0.1109 -0.3552  1.5177
11742SOL    HW237234   3.324   4.949   3.919 -0.0524 -1.1216  0.3726
11743SOL     OW37235   7.459   7.475   2.163  0.3447 -0.1104  0.4032
11743SOL    HW137236   7.406   7.526   2.101 -2.1355  0.1204  2.5142
11743SOL    HW237237   7.474   7.392   2.119  0.0938  0.6153 -1.1393
11744SOL     OW37238   2.950   8.361   2.067  0.2545 -0.5822  0.3175
11744SOL    HW137239   2.925   8.269   2.073 -3.0094  0.2152  0.8316
11744SOL    HW237240   2.906   8.393   1.988 -0.7363  1.0380  1.4626
11745SOL     OW37241   2.630   7.057   3.281  0.6388 -0.6735 -0.3257
11745SOL    HW137242   2.647   6.988   3.344  1.5739 -2.2746 -2.2468
11745SOL    HW237243   2.546   7.033   3.242  0.5603 -0.2426 -0.4267
11746SOL     OW37244   1.843   1.949   9.951 -0.0380  0.1645  0.0997
11746SOL    HW137245   1.783   1.973   9.880  0.0882  1.3841  0.3871
11746SOL    HW237246   1.930   1.958   9.912  0.0271  0.7186  0.3736
11747SOL     OW37247  10.044   0.401   9.911  0.1851 -0.4481 -0.0636
11747SOL    HW137248  10.064   0.416  10.003  0.3078 -0.5380 -0.0754
11747SOL    HW237249   9.996   0.479   9.884 -1.7957 -1.3432  0.6522
11748SOL     OW37250   5.291   7.354   3.182 -0.3655  0.2710  0.4317
11748SOL    HW137251   5.335   7.428   3.139 -1.4898  0.9504  0.4153
11748SOL    HW237252   5.206   7.349   3.139 -0.8682 -0.0924  1.4542
11749SOL     OW37253   6.664   6.731   1.789  0.5384 -0.5316 -0.4279
11749SOL    HW137254   6.708   6.722   1.873 -0.7161 -1.1277  0.1811
11749SOL    HW237255   6.610   6.810   1.798  2.3015  0.8859 -1.5756
11750SOL     OW37256   1.163   5.150   5.907 -0.3588 -0.1242  0.0753
11750SOL    HW137257   1.145   5.237   5.943  3.3857  0.5357  0.8037
11750SOL    HW237258   1.199   5.167   5.820 -0.2982 -0.9976 -0.0795
11751SOL     OW37259   9.757   0.491   5.628 -0.2062  0.1685  0.2016
11751SOL    HW137260   9.679   0.461   5.673  1.3916 -2.6496  1.3750
11751SOL    HW237261   9.769   0.427   5.557  0.4508  1.1821 -0.6165
11752SOL     OW37262   5.906  10.498   6.823  0.1864 -0.6952  0.4514
11752SOL    HW137263   5.819  10.521   6.792  1.1322  0.8131 -1.3565
11752SOL    HW237264   5.924  10.562   6.892  0.6254  0.4568 -0.6697
11753SOL     OW37265  10.897   0.058   0.035 -0.4080  0.7385 -0.1839
11753SOL    HW137266  10.892   0.020  -0.052 -0.9422 -1.1174  0.5929
11753SOL    HW237267  10.970   0.121   0.031  0.4003 -0.2468 -1.6124
11754SOL     OW37268   2.116   3.765   4.975 -0.1726 -0.0706  0.8656
11754SOL    HW137269   2.141   3.792   4.886 -1.2514  1.0234  0.8600
11754SOL    HW237270   2.123   3.670   4.974  1.6351  0.0325  0.1801
11755SOL     OW37271   0.502   6.298  10.446 -1.0488 -0.4665  0.8575
11755SOL    HW137272   0.408   6.305  10.461 -0.8252  2.1282  1.4563
11755SOL    HW237273   0.540   6.372  10.494  1.0887 -0.1846 -1.0994
11756SOL     OW37274   5.444  10.704   0.938  0.9639 -0.0680 -0.5829
11756SOL    HW137275   5.442  10.799   0.926  0.1663 -0.0682 -0.5461
11756SOL    HW237276   5.526  10.686   0.984  1.2592  0.5687 -0.8601
11757SOL     OW37277   7.533   7.704   7.587  0.0379 -0.5539  0.2481
11757SOL    HW137278   7.453   7.662   7.555 -0.6180  0.6749  0.1926
11757SOL    HW237279   7.510   7.734   7.676  0.3285  0.0553  0.1266
11758SOL     OW37280   2.595   9.893   5.682  0.2053 -0.0944  0.1632
11758SOL    HW137281   2.682   9.926   5.663  0.2662 -0.8221 -0.8661
11758SOL    HW237282   2.587   9.812   5.632 -1.3687  0.3890 -0.4548
11759SOL     OW37283   6.256   6.210   8.959 -0.7193  0.7933 -0.8819
11759SOL    HW137284   6.194   6.222   9.031 -0.5350  1.9434 -0.9003
11759SOL    HW237285   6.202   6.209   8.880 -0.8399  0.3774 -0.7975
11760SOL     OW37286   0.027   7.788  10.763  0.4519  0.1769 -0.0219
11760SOL    HW137287  -0.055   7.833  10.746  0.2416 -0.3318 -0.3787
11760SOL    HW237288   0.010   7.697  10.738  1.6443  0.3996 -1.8405
11761SOL     OW37289   0.001   3.782   6.617  0.3672  0.2009  0.6488
11761SOL    HW137290   0.016   3.792   6.711  1.3546 -3.9362  1.1085
11761SOL    HW237291  -0.089   3.749   6.610  0.2174  0.7121  0.1017
11762SOL     OW37292   7.207   9.052   1.322  0.4038 -0.2976 -0.2485
11762SOL    HW137293   7.213   9.048   1.418  1.4476  1.6053 -0.1845
11762SOL    HW237294   7.281   9.107   1.296 -2.1689  2.7867 -1.7783
11763SOL     OW37295   0.353   8.582   1.583  0.2705  0.0670 -0.5250
11763SOL    HW137296   0.423   8.525   1.614  1.3400  1.1458 -0.8996
11763SOL    HW237297   0.308   8.530   1.515  0.6320 -0.6597 -0.2215
11764SOL     OW37298   3.432   9.420   0.463 -0.0664 -0.4330  0.4227
11764SOL    HW137299   3.473   9.358   0.403  1.5032  2.1753 -1.4001
11764SOL    HW237300   3.402   9.366   0.536  0.3570 -3.4076 -1.4352
11765SOL     OW37301   4.189   6.389  10.310 -0.3035  0.3461  0.3192
11765SOL    HW137302   4.225   6.345  10.388 -1.0024  1.2065  1.1469
11765SOL    HW237303   4.097   6.362  10.308 -0.3647  0.5803 -0.0301
11766SOL     OW37304   3.369   9.181  10.409 -0.1556  0.0992  0.6982
11766SOL    HW137305   3.458   9.168  10.442 -0.0624 -1.3489 -0.0335
11766SOL    HW237306   3.316   9.194  10.488  0.4753 -0.5849  1.2593
11767SOL     OW37307   6.384   3.794  10.208  0.3585 -0.9161 -0.0514
11767SOL    HW137308   6.329   3.853  10.156 -1.3290 -0.6326  1.9373
11767SOL    HW237309   6.419   3.732  10.144  1.5161  1.6664 -2.0949
11768SOL     OW37310   7.410   5.046   3.183  0.2856  0.0408 -0.0653
11768SOL    HW137311   7.346   5.076   3.119 -0.0446 -0.2177  0.1345
11768SOL    HW237312   7.428   5.122   3.237 -1.4335 -0.3693  1.1756
11769SOL     OW37313   0.458   4.477   5.595 -0.1099  0.3415 -0.2361
11769SOL    HW137314   0.368   4.443   5.597  0.3193 -0.8163  1.1304
11769SOL    HW237315   0.504   4.427   5.663  1.8125  0.2409 -1.5492
11770SOL     OW37316  10.289  10.107   5.564  0.0007 -0.2704 -0.3114
11770SOL    HW137317  10.331  10.186   5.530 -1.0598  0.0803 -0.8430
11770SOL    HW237318  10.217  10.091   5.503  1.0811 -2.5141 -1.1289
11771SOL     OW37319   0.019   5.243  10.723  0.2424 -0.1273  0.1667
11771SOL    HW137320  -0.050   5.258  10.658 -1.7842 -1.1019  1.9251
11771SOL    HW237321  -0.028   5.205  10.798  2.6017 -0.0064  1.8086
11772SOL     OW37322  11.101   4.913   2.454  0.0856  0.6506  0.1588
11772SOL    HW137323  11.102   5.006   2.475 -0.6174  0.8651 -0.6651
11772SOL    HW237324  11.126   4.909   2.362  3.1557 -0.2554  0.9231
11773SOL     OW37325   4.226   5.530  10.299 -0.0816  0.7400 -0.2797
11773SOL    HW137326   4.192   5.444  10.325  0.1101  0.5891 -0.5134
11773SOL    HW237327   4.177   5.593  10.352  0.7385  0.4144  0.9048
11774SOL     OW37328   6.626   4.610   0.555 -0.8223 -0.0299 -0.2623
11774SOL    HW137329   6.572   4.533   0.572  1.3809 -1.4811  0.7401
11774SOL    HW237330   6.682   4.617   0.633  0.0242  1.7040 -0.9843
11775SOL     OW37331   1.387   4.370   3.278  0.2602  0.3043 -0.0306
11775SOL    HW137332   1.298   4.374   3.312 -0.1922  0.0092 -1.1339
11775SOL    HW237333   1.381   4.313   3.201  1.4086  0.2548 -0.1089
11776SOL     OW37334   7.889   0.800   2.424 -0.0288 -0.2935  0.0054
11776SOL    HW137335   7.845   0.879   2.454  0.7868  0.3608 -0.4536
11776SOL    HW237336   7.821   0.733   2.421 -1.0877  0.7833 -1.0541
11777SOL     OW37337   0.534   1.054   6.370  0.5868 -0.6506  0.5844
11777SOL    HW137338   0.562   1.000   6.297 -2.2981  0.4766 -1.5604
11777SOL    HW237339   0.455   1.099   6.338 -0.4042  0.5024  4.1462
11778SOL     OW37340  10.107   8.637   0.336  0.0861 -0.4657 -1.0319
11778SOL    HW137341  10.132   8.729   0.336  2.3411 -0.9007 -4.3781
11778SOL    HW237342  10.158   8.598   0.266 -1.5195 -4.1203 -0.4235
11779SOL     OW37343   2.591   4.577   5.743 -0.2416 -0.2422 -0.1656
11779SOL    HW137344   2.521   4.640   5.727 -0.0148  0.2478  0.6925
11779SOL    HW237345   2.577   4.550   5.834  0.8744  0.0996  0.1147
11780SOL     OW37346   1.836   2.897   1.935  0.0766 -0.3584  0.5149
11780SOL    HW137347   1.890   2.953   1.878 -1.6068 -0.9415 -1.7907
11780SOL    HW237348   1.759   2.950   1.954 -0.5787 -1.1333  0.0469
11781SOL     OW37349   9.528   0.120   6.363 -0.3399 -0.5535 -0.1654
11781SOL    HW137350   9.482   0.129   6.446 -0.1346 -1.1539  0.0155
11781SOL    HW237351   9.474   0.060   6.312 -0.2933 -0.4463 -0.3440
11782SOL     OW37352   0.250  10.290   2.291 -0.6097  0.2908  0.2103
11782SOL    HW137353   0.159  10.309   2.266 -0.6343 -0.4983 -0.3588
11782SOL    HW237354   0.297  10.371   2.274 -1.2456  0.7839  0.7303
11783SOL     OW37355   2.474   3.690   5.223 -0.5936  0.2702 -0.2838
11783SOL    HW137356   2.472   3.776   5.181 -0.2964 -0.3353 -1.5669
11783SOL    HW237357   2.521   3.706   5.305 -2.4377  1.7550  0.5725
11784SOL     OW37358   0.364   0.915   3.321 -0.0643 -0.0435 -0.6809
11784SOL    HW137359   0.318   0.879   3.246 -0.9946 -0.6297  0.1558
11784SOL    HW237360   0.295   0.939   3.383  0.7180 -0.7127  0.4980
11785SOL     OW37361   3.823   4.938   6.529 -0.4513 -0.3901 -0.0569
11785SOL    HW137362   3.879   5.000   6.481 -0.0465 -0.1769  0.6619
11785SOL    HW237363   3.849   4.950   6.621 -1.4905 -0.4908  0.2618
11786SOL     OW37364   5.184   7.932  10.135 -0.1970 -0.2795  0.0892
11786SOL    HW137365   5.260   7.991  10.136 -0.3163 -0.1070  1.6349
11786SOL    HW237366   5.131   7.963  10.062  0.3386  0.7656  0.1180
11787SOL     OW37367   6.576   4.139   6.657  0.0603 -0.1118 -0.2435
11787SOL    HW137368   6.615   4.139   6.745  1.3152 -1.2317 -0.7790
11787SOL    HW237369   6.551   4.230   6.643 -1.9415 -0.2152  2.0247
11788SOL     OW37370   6.728   8.383   0.345  0.9287  0.2203 -0.1501
11788SOL    HW137371   6.788   8.331   0.399 -0.2005  0.9552  1.9677
11788SOL    HW237372   6.776   8.463   0.326  2.0127 -0.7890 -1.8773
11789SOL     OW37373   6.188   2.514   1.113 -0.4661  0.3851 -0.3976
11789SOL    HW137374   6.202   2.590   1.057  1.4065  1.3616  1.2810
11789SOL    HW237375   6.159   2.550   1.196 -0.0532 -0.7579  0.2689
11790SOL     OW37376   6.011   2.869  10.800 -0.1946 -0.2251 -0.5173
11790SOL    HW137377   5.998   2.780  10.769 -0.5995 -0.3196 -0.0763
11790SOL    HW237378   5.925   2.910  10.796 -0.2665 -0.2507  0.5115
11791SOL     OW37379   6.460   8.720   6.132  0.2889 -0.4877  0.2204
11791SOL    HW137380   6.414   8.653   6.181  0.5496 -0.8754 -0.0557
11791SOL    HW237381   6.536   8.742   6.186 -0.5401  0.6204  0.9856
11792SOL     OW37382  10.353   9.153   4.646 -0.9215  0.2609 -0.4108
11792SOL    HW137383  10.272   9.169   4.597 -1.0463 -0.5759 -0.5033
11792SOL    HW237384  10.371   9.060   4.632 -0.6968  0.1139  0.7367
11793SOL     OW37385   5.092  10.396   4.726  0.5325 -0.3674 -0.1049
11793SOL    HW137386   5.158  10.420   4.792 -0.9395  1.1650  0.8810
11793SOL    HW237387   5.008  10.412   4.769 -0.5092 -1.4700 -1.6212
11794SOL     OW37388   9.996   3.373   7.588  0.4264 -0.1646  0.5805
11794SOL    HW137389  10.040   3.384   7.673 -2.6600  1.1336  2.1895
11794SOL    HW237390  10.009   3.457   7.544  1.3643 -0.5649  0.0655
11795SOL     OW37391   0.267   3.777   0.186  0.3793 -0.6190  0.2012
11795SOL    HW137392   0.196   3.724   0.150 -0.1736 -0.1885  0.6197
11795SOL    HW237393   0.347   3.740   0.149 -0.0322 -1.4106  0.0918
11796SOL     OW37394   4.730   0.209   7.086  0.1484 -0.2222  0.2614
11796SOL    HW137395   4.770   0.130   7.120 -1.0230 -1.0995 -0.3125
11796SOL    HW237396   4.756   0.278   7.148  1.7893 -0.8853  0.3564
11797SOL     OW37397   6.767   7.401   1.638 -0.1818 -0.2373  0.0060
11797SOL    HW137398   6.784   7.367   1.550  2.5706  1.8707 -0.4099
11797SOL    HW237399   6.817   7.343   1.695  1.6209  0.8763 -0.3499
11798SOL     OW37400   0.108   0.416  10.904  0.1395  0.5413  0.0536
11798SOL    HW137401   0.083   0.488  10.846 -1.4949 -0.6576 -0.8153
11798SOL    HW237402   0.185   0.378  10.861 -1.4122 -0.7244 -1.7963
11799SOL     OW37403   3.789   7.175   8.162 -0.0318 -0.2499  0.5142
11799SOL    HW137404   3.819   7.232   8.091  0.4514  1.7965  2.2546
11799SOL    HW237405   3.696   7.161   8.143 -0.0756  0.8411 -0.1751
11800SOL     OW37406   0.299   3.176   8.052 -0.0748 -0.1063  0.1080
11800SOL    HW137407   0.338   3.225   8.125 -1.1126 -0.0523  0.6392
11800SOL    HW237408   0.366   3.177   7.984  0.7798  0.1431  0.9340
11801SOL     OW37409   4.230   5.873  11.062  0.3864 -0.2191  0.4344
11801SOL    HW137410   4.232   5.806  11.131 -0.8067 -2.0334 -1.1839
11801SOL    HW237411   4.306   5.853  11.007  0.4786  0.2920  0.3669
11802SOL     OW37412   6.816   8.050   4.833 -0.1989  0.8305  0.4925
11802SOL    HW137413   6.907   8.069   4.812  0.0716 -0.8944 -0.0361
11802SOL    HW237414   6.808   8.071   4.926  0.5897  1.4784  0.4235
11803SOL     OW37415   4.307   7.889   6.941 -0.4302 -0.1634  0.3654
11803SOL    HW137416   4.344   7.977   6.945 -0.3302 -0.0445 -1.9040
11803SOL    HW237417   4.379   7.834   6.910 -0.9195 -0.7761  0.2917
11804SOL     OW37418   8.659   2.074   4.328 -0.0303 -0.2468  0.7134
11804SOL    HW137419   8.592   2.021   4.286  0.4733 -1.1247  0.9848
11804SOL    HW237420   8.741   2.028   4.308  0.4287  0.5116  0.8364
11805SOL     OW37421   6.633   8.309   8.792  0.6796  0.0365 -0.1355
11805SOL    HW137422   6.658   8.278   8.879 -0.5366 -0.7795 -0.0513
11805SOL    HW237423   6.715   8.338   8.753  1.4835 -0.9630  0.7358
11806SOL     OW37424   1.404  10.120   3.606  0.9021 -0.1227 -0.2282
11806SOL    HW137425   1.412  10.038   3.653  2.4525 -0.1498 -0.4848
11806SOL    HW237426   1.324  10.160   3.640  1.5637 -0.4768  1.8926
11807SOL     OW37427   8.136   7.641   8.512 -0.4421  0.3967  0.1215
11807SOL    HW137428   8.048   7.602   8.515 -1.5534  2.6710 -0.3452
11807SOL    HW237429   8.120   7.734   8.500  2.0979  0.6432 -2.3460
11808SOL     OW37430  10.930   3.085   2.593 -0.7744  0.1632 -0.0910
11808SOL    HW137431  10.895   2.999   2.617  0.7350  0.3053  3.1436
11808SOL    HW237432  10.857   3.146   2.609 -2.0878 -0.4292 -3.0790
11809SOL     OW37433   4.300   6.687   3.766 -0.0978  0.0724 -0.1280
11809SOL    HW137434   4.264   6.684   3.678  1.7120  2.0222 -1.0289
11809SOL    HW237435   4.343   6.602   3.777 -0.1489 -0.1119 -1.2406
11810SOL     OW37436   6.220   5.494   9.037 -0.0104 -0.4513  0.3336
11810SOL    HW137437   6.221   5.520   8.944 -1.2092  1.7166  0.8421
11810SOL    HW237438   6.143   5.439   9.045  1.2102 -2.3543 -0.2917
11811SOL     OW37439   8.084   1.446   2.741  0.1005  0.5434 -0.6904
11811SOL    HW137440   8.133   1.482   2.815 -0.9365  1.8235 -0.6026
11811SOL    HW237441   8.137   1.466   2.664 -0.0709  1.5572 -0.5534
11812SOL     OW37442   1.278   5.470   4.684 -0.2603 -0.2139  0.2475
11812SOL    HW137443   1.276   5.500   4.593  0.9403 -0.4749  0.1180
11812SOL    HW237444   1.313   5.381   4.679 -0.4327 -0.3269  0.9465
11813SOL     OW37445   4.379   6.719   8.690  0.6783  0.3056  0.2465
11813SOL    HW137446   4.468   6.692   8.713  1.3822  2.8978  0.8740
11813SOL    HW237447   4.377   6.718   8.594  0.3942 -2.4910  0.1910
11814SOL     OW37448   4.455   2.000   0.011  0.5323 -0.5150  0.1748
11814SOL    HW137449   4.393   2.037   0.075 -1.2488 -0.3171 -1.5741
11814SOL    HW237450   4.448   2.058  -0.065 -0.3462 -2.8834 -1.6645
11815SOL     OW37451   7.304   6.606   2.522 -0.5039 -0.7051 -1.1091
11815SOL    HW137452   7.361   6.682   2.534 -0.3096 -1.0557  0.4919
11815SOL    HW237453   7.258   6.597   2.606 -1.3642 -1.6762 -1.6591
11816SOL     OW37454   7.617   7.642  10.323 -0.2981  0.1786 -0.6219
11816SOL    HW137455   7.539   7.623  10.272  0.1030  0.3038 -1.3007
11816SOL    HW237456   7.678   7.570  10.301  0.6528  1.3346 -1.9930
11817SOL     OW37457   9.762   4.951   1.248  0.1886 -0.0034 -0.0855
11817SOL    HW137458   9.749   4.861   1.278 -0.2459  0.0287 -0.1629
11817SOL    HW237459   9.704   5.004   1.303 -3.1305 -0.2923 -2.9271
11818SOL     OW37460   3.060   0.935   7.875  0.6153  0.7111 -0.3923
11818SOL    HW137461   3.117   0.859   7.862 -0.7354 -0.9731  2.4539
11818SOL    HW237462   2.998   0.931   7.802  2.1403  0.6880 -1.7392
11819SOL     OW37463   8.045   8.573   5.645  0.1614  0.1718 -0.7181
11819SOL    HW137464   8.043   8.495   5.701 -0.9417  2.1243  2.1697
11819SOL    HW237465   8.138   8.598   5.644  0.4995 -1.0371 -1.5262
11820SOL     OW37466   3.524   3.154   4.826 -0.7157 -0.4306 -0.0924
11820SOL    HW137467   3.497   3.236   4.867 -2.7403 -1.9269  1.8475
11820SOL    HW237468   3.619   3.149   4.842 -0.7107  1.1068  0.5054
11821SOL     OW37469   4.211   1.533   3.746  0.5858  0.7185  0.4401
11821SOL    HW137470   4.139   1.555   3.687  1.6439  1.3192 -0.6803
11821SOL    HW237471   4.187   1.448   3.782 -0.1975  0.4129 -0.7221
11822SOL     OW37472   5.107  10.862   6.172  0.0072 -0.1002 -0.0292
11822SOL    HW137473   5.111  10.891   6.081 -2.2152  1.2643  0.2235
11822SOL    HW237474   5.083  10.941   6.221 -0.9570 -1.2466  1.4373
11823SOL     OW37475   9.107   2.695   9.687  0.3941  0.3841 -0.1981
11823SOL    HW137476   9.090   2.706   9.781  0.4543  0.4335 -0.1933
11823SOL    HW237477   9.188   2.742   9.671 -0.2533  1.4424 -0.5189
11824SOL     OW37478   3.400   8.510   6.019 -0.0111  0.1326 -0.1304
11824SOL    HW137479   3.438   8.437   6.067 -0.7186  0.2087  0.5667
11824SOL    HW237480   3.475   8.563   5.991  0.4394 -0.2600  0.3269
11825SOL     OW37481   8.982   9.993  10.674 -0.4316 -0.1654  0.2125
11825SOL    HW137482   8.893   9.973  10.704 -0.2577 -0.9627  0.2292
11825SOL    HW237483   9.008  10.070  10.724 -0.5732 -0.8023  1.2805
11826SOL     OW37484   9.801   4.690   1.880 -1.1917 -0.0155  0.0927
11826SOL    HW137485   9.849   4.705   1.798  0.5684 -2.2509  0.5997
11826SOL    HW237486   9.709   4.690   1.855 -0.8300  1.8041 -1.4107
11827SOL     OW37487   3.730   6.520  10.722  0.2068  0.0457  0.3208
11827SOL    HW137488   3.669   6.447  10.736  1.7691 -1.2239  0.7753
11827SOL    HW237489   3.699   6.588  10.781 -0.0344 -1.0535  1.5159
11828SOL     OW37490  10.342   3.772  10.533  0.3989 -0.0403 -0.4972
11828SOL    HW137491  10.402   3.707  10.570 -1.2546  0.0673  2.6700
11828SOL    HW237492  10.282   3.720  10.479  2.6649 -0.2403 -3.0792
11829SOL     OW37493   4.405   3.261   6.736  0.5676  0.1097 -0.3657
11829SOL    HW137494   4.481   3.302   6.776  2.0518 -0.0796 -2.7532
11829SOL    HW237495   4.399   3.301   6.649 -0.9611 -1.1619 -0.9013
11830SOL     OW37496   0.277   3.751   7.981  0.4311 -0.0223  0.1010
11830SOL    HW137497   0.188   3.744   7.945  0.0429 -1.7454  1.2785
11830SOL    HW237498   0.286   3.844   8.003 -1.2146  0.1343  0.2865
11831SOL     OW37499  10.272   6.747   3.165  0.0178 -0.1606 -0.3598
11831SOL    HW137500  10.226   6.732   3.082 -2.1520 -0.1983  0.7804
11831SOL    HW237501  10.357   6.703   3.153 -0.4879 -0.7160 -2.3167
11832SOL     OW37502   7.654   5.402   2.353  0.5348  0.0448  0.2888
11832SOL    HW137503   7.696   5.442   2.277  0.0874 -2.1372 -1.2183
11832SOL    HW237504   7.719   5.341   2.388 -1.2639 -4.0588 -2.6215
11833SOL     OW37505  11.089   2.960   6.328 -0.0220  0.1483  0.2758
11833SOL    HW137506  11.036   3.022   6.280 -0.6732 -0.1101  0.6455
11833SOL    HW237507  11.108   2.890   6.266  0.2150  0.4296  0.0318
11834SOL     OW37508   5.998   1.782   2.600 -0.0313  0.2108  0.2510
11834SOL    HW137509   6.016   1.693   2.632  0.5447  0.4995  0.7710
11834SOL    HW237510   6.053   1.791   2.523 -0.9119 -0.2541 -0.4471
11835SOL     OW37511   3.468   5.325   8.522 -0.6905  0.9808 -0.6619
11835SOL    HW137512   3.498   5.410   8.492  0.4588  1.0046  0.4467
11835SOL    HW237513   3.547   5.280   8.550 -1.4736  0.2777  0.5450
11836SOL     OW37514   9.224   5.499   6.951  0.3309 -0.1545 -0.0823
11836SOL    HW137515   9.298   5.513   6.893  0.0924  0.4989 -0.2358
11836SOL    HW237516   9.148   5.531   6.902  0.0224 -0.2954  0.2921
11837SOL     OW37517   5.948   7.229  11.029  0.1816 -0.8372 -0.0383
11837SOL    HW137518   5.961   7.274  11.112  1.5796 -1.1566 -0.0666
11837SOL    HW237519   5.943   7.136  11.052 -1.0344 -0.8263 -0.1609
11838SOL     OW37520   3.632   3.895   1.745 -0.0133  0.0236 -0.1497
11838SOL    HW137521   3.701   3.829   1.751  0.1055 -0.0018 -1.4443
11838SOL    HW237522   3.676   3.978   1.763  0.4763  0.0561 -1.3686
11839SOL     OW37523   7.422   7.764   4.965  0.6470 -0.0506  0.1132
11839SOL    HW137524   7.499   7.821   4.967  0.8614 -0.3300 -0.0461
11839SOL    HW237525   7.433   7.705   5.039 -0.4130  1.1717  1.3060
11840SOL     OW37526   7.690   6.047  10.551 -0.2361 -1.0737 -0.0070
11840SOL    HW137527   7.625   6.074  10.616  0.4934  1.1528 -0.1370
11840SOL    HW237528   7.678   6.108  10.478  1.6588 -0.9037 -0.2299
11841SOL     OW37529   0.736   1.254   1.175 -0.0772 -0.0677  0.1448
11841SOL    HW137530   0.697   1.339   1.154 -0.6706 -0.1483  0.9132
11841SOL    HW237531   0.796   1.237   1.101 -0.7763  0.4904 -0.5711
11842SOL     OW37532   9.931   7.859   6.952  0.0823 -0.5358  0.0733
11842SOL    HW137533   9.973   7.842   7.037  1.5148 -2.8081 -0.9965
11842SOL    HW237534   9.864   7.792   6.946  1.4736 -1.8621 -1.4874
11843SOL     OW37535   8.939   7.878  10.259  0.1377 -0.0881 -0.3621
11843SOL    HW137536   9.001   7.948  10.280  1.0158 -1.5617  2.6597
11843SOL    HW237537   8.884   7.872  10.337 -0.8528 -1.8215 -1.1499
11844SOL     OW37538   0.350   4.207   5.908 -0.3131  0.3892  0.5758
11844SOL    HW137539   0.377   4.145   5.841  0.4606  0.3776  0.8856
11844SOL    HW237540   0.297   4.156   5.969  0.2721  0.0293  0.7996
11845SOL     OW37541   9.412   4.670   6.026 -0.8347 -0.2569 -0.4109
11845SOL    HW137542   9.479   4.731   5.997  0.9402 -1.6145  0.6277
11845SOL    HW237543   9.399   4.611   5.951 -0.2355 -0.4902 -0.3385
11846SOL     OW37544   4.023   6.636   6.225 -0.3560  0.1851  0.2860
11846SOL    HW137545   4.079   6.666   6.297  1.9846  4.1874 -2.7610
11846SOL    HW237546   4.068   6.558   6.191  1.0783  0.8599  0.5310
11847SOL     OW37547   8.539   0.835   0.320  0.1450 -0.8394 -0.5569
11847SOL    HW137548   8.454   0.805   0.350  0.2036 -2.5495 -1.8795
11847SOL    HW237549   8.558   0.913   0.372 -1.9288 -0.7779  0.1884
11848SOL     OW37550   2.780   3.605   6.366  0.3232  0.3119 -0.2618
11848SOL    HW137551   2.858   3.614   6.311  1.6810 -3.7515  0.6999
11848SOL    HW237552   2.718   3.556   6.313  1.3383 -2.9197  1.2529
11849SOL     OW37553   1.642   8.345   8.683  0.1466  0.1730  0.6319
11849SOL    HW137554   1.575   8.393   8.633 -0.8449 -1.1530  0.6317
11849SOL    HW237555   1.724   8.364   8.638 -0.2933  1.3912  0.2949
11850SOL     OW37556   1.623   8.675  10.392  0.0589 -0.0397 -0.3904
11850SOL    HW137557   1.624   8.769  10.406 -0.8182  0.3452 -2.4985
11850SOL    HW237558   1.608   8.638  10.479  0.9750  1.7177  0.5616
11851SOL     OW37559   9.815   6.460   7.865  0.1678 -0.0561 -0.2121
11851SOL    HW137560   9.907   6.445   7.886  0.8112  2.3804 -0.9290
11851SOL    HW237561   9.811   6.461   7.769 -0.7033 -0.6241 -0.1948
11852SOL     OW37562   1.621   0.564   7.985  0.0255  0.1877 -0.5622
11852SOL    HW137563   1.664   0.561   8.070 -0.7478 -2.2413 -0.1858
11852SOL    HW237564   1.567   0.485   7.982 -1.1548  0.9800 -2.7073
11853SOL     OW37565   0.264   8.580   8.294  0.2925 -0.0033 -0.9111
11853SOL    HW137566   0.263   8.551   8.385  2.1786 -1.3070 -1.2516
11853SOL    HW237567   0.174   8.567   8.264 -0.1564 -0.3757  0.5108
11854SOL     OW37568   7.284   8.159   7.516  0.2186 -0.3629  0.2238
11854SOL    HW137569   7.331   8.185   7.595  0.3427  0.9775 -0.2606
11854SOL    HW237570   7.199   8.128   7.548  0.5366 -0.5284  0.9285
11855SOL     OW37571   4.463   9.373   3.173 -0.3843  0.0901 -0.0145
11855SOL    HW137572   4.455   9.281   3.196  0.4229 -0.5059 -2.0139
11855SOL    HW237573   4.454   9.376   3.078 -2.9119  2.3826  0.1664
11856SOL     OW37574   9.209   6.342  10.903  0.0655 -0.8748  0.1059
11856SOL    HW137575   9.152   6.418  10.895  2.2318  0.7237 -1.5666
11856SOL    HW237576   9.180   6.282  10.835 -0.9684 -1.0661  0.7063
11857SOL     OW37577   2.762   0.794   9.603 -0.1256 -0.6749 -0.3298
11857SOL    HW137578   2.752   0.847   9.682  1.2863 -0.9148  0.0427
11857SOL    HW237579   2.805   0.714   9.633  0.5517 -0.7142 -1.3425
11858SOL     OW37580   5.702   5.749   3.393 -0.6976  0.4899 -0.3712
11858SOL    HW137581   5.668   5.839   3.390 -1.0558  0.4550  1.5381
11858SOL    HW237582   5.781   5.752   3.339 -1.4431  1.6001 -1.4602
11859SOL     OW37583   1.262   5.522  10.060 -0.3201  0.0482 -0.6772
11859SOL    HW137584   1.290   5.526   9.968  1.8643 -2.1832 -0.2149
11859SOL    HW237585   1.261   5.429  10.081 -2.4976  0.3886  1.1452
11860SOL     OW37586   7.119  10.342   8.468  0.2282 -0.3221 -0.3220
11860SOL    HW137587   7.067  10.417   8.440  0.0796 -0.0898  0.5642
11860SOL    HW237588   7.061  10.267   8.455 -0.4795 -0.0239  1.0260
11861SOL     OW37589   9.916   7.134   4.741  0.1257  0.6679 -0.0714
11861SOL    HW137590   9.944   7.074   4.671 -1.3594 -2.0993  1.5216
11861SOL    HW237591   9.986   7.199   4.746  2.9527 -2.0703 -0.6539
11862SOL     OW37592   6.872   8.017   5.090 -0.1708 -0.3556 -0.4033
11862SOL    HW137593   6.952   8.068   5.099  0.7620 -1.9812  0.9910
11862SOL    HW237594   6.858   7.978   5.176 -2.3473 -0.3111 -0.6676
11863SOL     OW37595   1.671   1.256  11.015 -0.3179  0.0232  0.6280
11863SOL    HW137596   1.727   1.187  10.979  0.8893  0.3803  1.7435
11863SOL    HW237597   1.729   1.306  11.073 -2.0705 -0.2564  2.7147
11864SOL     OW37598   8.919   4.379   4.217  0.7408 -0.1057 -0.0030
11864SOL    HW137599   8.947   4.335   4.297 -1.9867 -1.8368  0.1598
11864SOL    HW237600   8.934   4.472   4.234 -0.2668 -0.3527  2.8064
11865SOL     OW37601  11.026   9.859   6.713  0.2527 -0.6031 -0.0422
11865SOL    HW137602  11.114   9.897   6.718 -0.4618  1.0475  0.7169
11865SOL    HW237603  10.967   9.934   6.722 -1.2429 -1.7969  0.5321
11866SOL     OW37604  10.338   4.418   9.820 -0.2436  0.3330 -0.2829
11866SOL    HW137605  10.314   4.361   9.893 -1.9798  0.2157 -0.8778
11866SOL    HW237606  10.355   4.359   9.747 -0.9912  0.5006 -0.6124
11867SOL     OW37607   1.742   9.810   6.093  0.6032  0.6639  0.1283
11867SOL    HW137608   1.701   9.724   6.104 -2.5798  2.3266  3.7333
11867SOL    HW237609   1.818   9.808   6.152 -0.0914  0.6234  1.0396
11868SOL     OW37610   9.883   9.968   4.710 -0.4765 -0.1280  0.5504
11868SOL    HW137611   9.946   9.998   4.645 -1.6051  1.5036  0.1461
11868SOL    HW237612   9.838   9.895   4.668 -0.1541 -0.0736  0.1055
11869SOL     OW37613  10.227   5.205   4.692 -1.0522  0.3358  0.5445
11869SOL    HW137614  10.257   5.157   4.770  2.0380 -0.1470 -0.7921
11869SOL    HW237615  10.215   5.137   4.626 -0.2781  1.0097 -0.3223
11870SOL     OW37616   1.474  10.558   5.647  0.3435  0.1146 -0.3871
11870SOL    HW137617   1.395  10.612   5.651  0.1021 -0.0271 -2.3286
11870SOL    HW237618   1.444  10.470   5.668  0.4931  0.4392  1.4119
11871SOL     OW37619   7.403  11.056   3.936  0.1036 -0.8770  0.6272
11871SOL    HW137620   7.314  11.037   3.908 -0.7709  2.6080  0.6043
11871SOL    HW237621   7.394  11.126   4.001  2.8583  0.9216 -0.7013
11872SOL     OW37622   1.982   1.514   4.763  1.3110  1.7088 -0.4123
11872SOL    HW137623   1.893   1.478   4.771  1.2908  1.9822  0.7702
11872SOL    HW237624   1.968   1.600   4.723  1.1113  1.4974 -0.8104
11873SOL     OW37625   6.526   6.045   7.096  0.3870  0.1567  0.4820
11873SOL    HW137626   6.578   6.097   7.157  1.3584  0.5771 -0.6463
11873SOL    HW237627   6.573   5.962   7.088 -0.6764 -0.5725  1.5994
11874SOL     OW37628   2.774   0.778   4.015 -0.3332 -0.5805  0.2651
11874SOL    HW137629   2.772   0.730   3.932 -1.9399  0.1276 -0.1480
11874SOL    HW237630   2.721   0.725   4.075  0.5707 -0.9349  0.7758
11875SOL     OW37631   3.482   3.530   2.713  0.0566 -0.3041  0.5313
11875SOL    HW137632   3.389   3.521   2.732 -0.6807  0.0071 -2.4406
11875SOL    HW237633   3.518   3.442   2.724 -0.6637 -0.5144  1.2930
11876SOL     OW37634   2.698   5.105   5.530 -0.1871  0.5329  0.0914
11876SOL    HW137635   2.745   5.032   5.570  0.8938  0.9867 -0.3182
11876SOL    HW237636   2.648   5.065   5.459  0.5008  0.2170 -0.2166
11877SOL     OW37637   9.060   6.966  10.783  0.4370  0.2118  0.8261
11877SOL    HW137638   9.129   7.021  10.745 -0.1354 -0.1137 -0.7699
11877SOL    HW237639   9.022   6.921  10.708 -1.1998  0.0255  1.7275
11878SOL     OW37640   6.352   3.153   2.201  0.2220  0.2479  0.1361
11878SOL    HW137641   6.364   3.228   2.259 -0.6198 -1.5631  2.8596
11878SOL    HW237642   6.417   3.089   2.230 -1.6978 -1.5647  0.7167
11879SOL     OW37643   1.512   9.517   8.788  0.2918  0.4547 -0.4705
11879SOL    HW137644   1.518   9.535   8.882 -0.6213 -0.7706 -0.1475
11879SOL    HW237645   1.592   9.467   8.768 -0.7420 -1.6461  0.2848
11880SOL     OW37646   9.495   7.908   3.842 -0.1182 -0.3977  0.8962
11880SOL    HW137647   9.505   8.002   3.830  0.2553 -0.4046  1.1389
11880SOL    HW237648   9.518   7.871   3.757 -0.0535 -0.2859  0.8650
11881SOL     OW37649  10.675   8.103   8.538 -0.8888 -1.0719 -0.4444
11881SOL    HW137650  10.730   8.177   8.566 -1.8444 -0.1170 -0.9977
11881SOL    HW237651  10.585   8.132   8.558 -1.2394 -2.4450  0.1131
11882SOL     OW37652   2.465   2.434   8.163 -0.1097 -1.2384  0.1705
11882SOL    HW137653   2.396   2.485   8.122  0.6836  1.4439  1.8872
11882SOL    HW237654   2.436   2.421   8.253  0.2730 -2.7967  0.0932
11883SOL     OW37655  10.827   9.794   1.833 -0.0720 -0.6926  0.4283
11883SOL    HW137656  10.859   9.728   1.893 -0.7713 -1.0235  0.4474
11883SOL    HW237657  10.887   9.790   1.758  1.5533  0.5754  1.5935
11884SOL     OW37658   6.474   0.601   9.632  0.5574 -0.4652  0.2564
11884SOL    HW137659   6.489   0.545   9.556  0.2691 -0.1694 -0.0278
11884SOL    HW237660   6.517   0.557   9.705 -0.6976 -1.6909  0.2981
11885SOL     OW37661   5.458   5.742   4.409  0.1359 -0.1149 -0.0525
11885SOL    HW137662   5.479   5.689   4.486 -0.3483 -2.7712 -1.6009
11885SOL    HW237663   5.543   5.775   4.379  0.3303  0.9273  1.5533
11886SOL     OW37664   2.292   6.348   6.483  0.1799 -0.3117 -0.3639
11886SOL    HW137665   2.263   6.361   6.574  1.1374 -0.3311 -0.0463
11886SOL    HW237666   2.315   6.256   6.478 -2.1710 -0.9177 -1.3287
11887SOL     OW37667   1.832   7.978   7.313  0.3736  0.1953 -0.2607
11887SOL    HW137668   1.740   7.953   7.326  1.0817 -2.1377  0.9774
11887SOL    HW237669   1.857   8.021   7.395  0.1894  1.6076 -0.9261
11888SOL     OW37670   1.213   4.487   2.501  0.1171  0.1582  0.5811
11888SOL    HW137671   1.276   4.530   2.559  1.7049  0.6471 -1.4025
11888SOL    HW237672   1.176   4.558   2.449 -0.5492 -0.3887  0.2994
11889SOL     OW37673  10.296  10.947  10.854  0.3452 -0.5967  0.1014
11889SOL    HW137674  10.216  10.997  10.867  0.9912  0.5187 -0.0630
11889SOL    HW237675  10.291  10.875  10.918 -0.5708 -0.2813  0.3893
11890SOL     OW37676   0.535   7.050   7.298  0.7682 -0.4125  0.1019
11890SOL    HW137677   0.452   7.046   7.345  0.2032 -0.2626 -0.8445
11890SOL    HW237678   0.529   7.131   7.247  0.5053 -1.5150 -1.7113
11891SOL     OW37679   9.195   8.267   7.463 -0.0733  1.0942  0.1280
11891SOL    HW137680   9.254   8.198   7.431 -0.9047  1.1282 -1.5994
11891SOL    HW237681   9.166   8.236   7.548 -0.0463 -0.4740 -0.3926
11892SOL     OW37682  10.967   5.146  10.942  0.9048 -0.3003  0.0024
11892SOL    HW137683  10.904   5.076  10.923 -0.1529  0.8058 -0.7044
11892SOL    HW237684  10.981   5.140  11.037  0.2699 -1.0065  0.0639
11893SOL     OW37685   3.571   6.657   4.015  0.3403 -0.3935  0.0375
11893SOL    HW137686   3.576   6.567   4.048 -1.1289  0.0751  1.6411
11893SOL    HW237687   3.614   6.710   4.082 -1.3189  0.4039  0.5138
11894SOL     OW37688   4.478   7.902   2.009  0.4626 -0.1232  0.3944
11894SOL    HW137689   4.525   7.984   1.992 -3.3808  2.7051  1.9767
11894SOL    HW237690   4.423   7.889   1.932 -1.2496  0.7033  1.4002
11895SOL     OW37691   2.733   3.846  10.655  0.2065 -0.0473 -0.2184
11895SOL    HW137692   2.800   3.845  10.723  0.9465 -0.5255 -0.9278
11895SOL    HW237693   2.693   3.933  10.661 -0.4175 -0.4331  1.4521
11896SOL     OW37694   6.836   4.313   4.259  0.0763 -0.1925  0.7720
11896SOL    HW137695   6.810   4.228   4.223 -2.2108  1.2845 -1.4014
11896SOL    HW237696   6.759   4.368   4.248  2.1494  2.8103  0.0148
11897SOL     OW37697   7.927   4.854   9.215  0.6321  0.8832  0.4635
11897SOL    HW137698   7.851   4.889   9.262 -0.1413 -1.0600  0.7506
11897SOL    HW237699   7.901   4.852   9.123  0.3043  0.1783  0.5667
11898SOL     OW37700   1.492   7.873   9.587 -0.1776 -0.3816  0.0532
11898SOL    HW137701   1.428   7.847   9.653 -0.6710  0.4825 -0.0632
11898SOL    HW237702   1.439   7.912   9.517  0.4007 -0.5672 -0.4906
11899SOL     OW37703   6.977  10.387   0.537 -0.3820  0.1014 -0.2695
11899SOL    HW137704   6.915  10.407   0.607 -0.7671  0.7348 -0.7753
11899SOL    HW237705   6.943  10.306   0.498 -0.5656  0.1278 -0.1669
11900SOL     OW37706   6.309   9.993   7.524 -1.1220 -0.2550 -0.3729
11900SOL    HW137707   6.315   9.906   7.485  0.9464 -0.5190  0.4094
11900SOL    HW237708   6.398  10.026   7.523 -1.7969  1.7171 -0.2722
11901SOL     OW37709   1.567   8.701   4.604  0.2020  0.7722 -0.4718
11901SOL    HW137710   1.535   8.659   4.684 -0.8331 -0.2628 -1.3927
11901SOL    HW237711   1.607   8.631   4.554  2.3108  1.7066 -0.1917
11902SOL     OW37712   7.505   0.410   9.032 -0.1053  0.5494 -0.6830
11902SOL    HW137713   7.455   0.345   8.983 -1.5372 -0.9745  2.4504
11902SOL    HW237714   7.555   0.358   9.096  0.5175  2.4075  0.4058
11903SOL     OW37715   8.260   6.466   6.159 -0.3718 -0.5119 -0.5496
11903SOL    HW137716   8.279   6.379   6.124  0.4871 -1.3104  1.7355
11903SOL    HW237717   8.165   6.470   6.164 -0.4254 -1.1932 -0.9331
11904SOL     OW37718   9.105   2.824   4.145  0.6545 -0.2524 -0.1811
11904SOL    HW137719   9.089   2.767   4.219 -0.1975 -0.6328 -0.6432
11904SOL    HW237720   9.018   2.836   4.105  1.0636  0.1235 -0.9768
11905SOL     OW37721   4.848   9.627   8.221  0.1571  0.2524  0.0294
11905SOL    HW137722   4.873   9.541   8.187  1.2371  0.8070 -0.6114
11905SOL    HW237723   4.855   9.686   8.146 -0.3781  0.9395  0.5108
11906SOL     OW37724   4.424   8.596  10.455 -0.1046  0.0234  0.7084
11906SOL    HW137725   4.424   8.675  10.508 -1.7478  0.1211  0.6230
11906SOL    HW237726   4.441   8.627  10.366 -0.2181  0.2192  0.7541
11907SOL     OW37727   1.120   0.776   6.229  0.2141 -0.1974  0.4235
11907SOL    HW137728   1.144   0.698   6.178 -2.4879 -1.2102  0.5623
11907SOL    HW237729   1.120   0.746   6.320  1.2858  0.5982  0.7111
11908SOL     OW37730   2.810   6.218   5.984 -0.1417 -0.2070  0.7056
11908SOL    HW137731   2.798   6.242   5.892 -1.3669 -1.3154  0.5449
11908SOL    HW237732   2.905   6.222   5.998  0.0643 -0.0466 -0.6152
11909SOL     OW37733   3.396   4.866   6.960  0.0421 -0.2419 -1.1885
11909SOL    HW137734   3.421   4.787   6.913 -0.3593 -0.8354 -0.4225
11909SOL    HW237735   3.453   4.867   7.037 -0.0791  0.1139 -1.1018
11910SOL     OW37736   5.507   6.147   4.738  0.4858  0.3149  0.6224
11910SOL    HW137737   5.479   6.209   4.805 -1.0527  0.9056 -0.5082
11910SOL    HW237738   5.553   6.200   4.673 -0.9585  0.3272 -0.4212
11911SOL     OW37739   3.416   1.334   0.334  0.9386  0.4648 -0.0744
11911SOL    HW137740   3.469   1.397   0.383 -0.3448  1.4999  0.0740
11911SOL    HW237741   3.403   1.374   0.248  0.0285  0.4692  0.0502
11912SOL     OW37742   3.806   8.363  10.407 -0.3743  0.0221  0.3243
11912SOL    HW137743   3.751   8.286  10.397 -1.4936  0.8012  0.2836
11912SOL    HW237744   3.781   8.420  10.334 -1.2454  1.3958  1.6395
11913SOL     OW37745   0.534   8.093   6.561  0.1447 -0.0443 -0.4428
11913SOL    HW137746   0.488   8.010   6.545 -1.5951  1.1330 -1.9836
11913SOL    HW237747   0.465   8.159   6.557  1.5206  1.5199  0.5696
11914SOL     OW37748   1.457  10.713   9.887 -0.4988 -0.7876 -0.3908
11914SOL    HW137749   1.510  10.638   9.913  0.7399  0.7588  1.9399
11914SOL    HW237750   1.403  10.732   9.963 -1.2341  0.3189 -1.1525
11915SOL     OW37751   4.559   6.136   4.385 -0.0194 -0.5842  0.1847
11915SOL    HW137752   4.584   6.199   4.317 -0.8570  1.0100  1.2917
11915SOL    HW237753   4.624   6.066   4.378  0.3198 -0.1177 -1.7728
11916SOL     OW37754   3.616   7.490   5.559 -0.5591  0.1793  0.1030
11916SOL    HW137755   3.677   7.432   5.605 -1.6498 -1.7319 -0.7569
11916SOL    HW237756   3.540   7.496   5.617 -0.9947 -0.3440 -0.4112
11917SOL     OW37757   1.338   2.082   6.836 -0.5174 -0.1562  0.6959
11917SOL    HW137758   1.348   1.990   6.862  1.0997 -0.4795 -0.8898
11917SOL    HW237759   1.383   2.088   6.752  0.8584  2.4756  1.5275
11918SOL     OW37760   4.958   3.601   4.104  0.1727  0.2893  0.1731
11918SOL    HW137761   4.865   3.602   4.078 -0.9243  0.4265  3.6682
11918SOL    HW237762   4.966   3.522   4.158  2.5209 -0.4954 -1.1865
11919SOL     OW37763   0.902   3.450   5.227 -0.0921 -0.2772 -1.0515
11919SOL    HW137764   0.976   3.510   5.232  1.0427 -1.5520 -1.7208
11919SOL    HW237765   0.825   3.506   5.233  0.8815  0.9858  1.0297
11920SOL     OW37766   1.910   7.820   3.101  0.2313 -0.8316  0.6678
11920SOL    HW137767   1.873   7.796   3.186  2.0038  0.2413  1.8056
11920SOL    HW237768   1.988   7.765   3.092  0.6056 -0.2359  0.2023
11921SOL     OW37769   9.975   7.245   3.304  0.4818  0.3772  0.5335
11921SOL    HW137770  10.053   7.288   3.270  0.4018 -0.6672 -1.0242
11921SOL    HW237771  10.008   7.172   3.356  0.6331 -1.9991 -2.6375
11922SOL     OW37772   4.940   5.206   2.634  0.3099  0.2413 -0.6383
11922SOL    HW137773   4.854   5.245   2.652 -0.4191 -0.4178 -2.4151
11922SOL    HW237774   4.933   5.116   2.665 -0.1727 -0.2364 -2.0684
11923SOL     OW37775   5.828   5.897   7.968 -0.1944 -0.6547 -0.4807
11923SOL    HW137776   5.739   5.931   7.982  0.4790  0.6007  1.0065
11923SOL    HW237777   5.884   5.975   7.972  1.0302 -1.4944 -0.9069
11924SOL     OW37778   9.904   5.687   9.537 -0.2549 -0.2305 -0.5622
11924SOL    HW137779   9.955   5.626   9.589 -0.0692  0.0885 -0.3661
11924SOL    HW237780   9.892   5.643   9.453  2.3208  0.6042 -1.4483
11925SOL     OW37781   8.634   5.841  10.896  0.8670 -0.3450 -0.2713
11925SOL    HW137782   8.633   5.863  10.803  2.3728 -0.9853 -0.4750
11925SOL    HW237783   8.666   5.751  10.899 -0.7594 -0.9321  0.7871
11926SOL     OW37784   8.816   1.212  10.483  0.4273  0.0775  0.1102
11926SOL    HW137785   8.861   1.294  10.500 -2.6167  1.5911  1.7269
11926SOL    HW237786   8.870   1.145  10.526  2.1481  1.4008  0.1094
11927SOL     OW37787   8.484   9.670   7.195  0.4569  0.7503 -0.4569
11927SOL    HW137788   8.404   9.700   7.154 -0.0155  1.4836  0.9401
11927SOL    HW237789   8.523   9.749   7.233  1.1234  0.1837  0.0681
11928SOL     OW37790   5.416   8.901   7.992 -0.0021 -0.2339 -0.1916
11928SOL    HW137791   5.461   8.935   7.915 -0.7261  0.8890 -0.1331
11928SOL    HW237792   5.401   8.978   8.047 -2.4121 -0.4857 -0.4197
11929SOL     OW37793   6.993   3.947   9.158  0.3416 -0.6349 -0.4748
11929SOL    HW137794   7.036   3.977   9.238  0.7206 -0.8124 -0.6095
11929SOL    HW237795   6.951   4.025   9.122  0.2234 -0.5418 -0.1369
11930SOL     OW37796   9.505  10.299   6.870  0.0790 -0.2906 -0.0200
11930SOL    HW137797   9.475  10.212   6.896 -1.0244 -0.6225 -2.1957
11930SOL    HW237798   9.425  10.350   6.859  0.6515  0.6328 -0.0058
11931SOL     OW37799   0.254   4.073   8.736  0.5471  0.1299  0.2080
11931SOL    HW137800   0.343   4.107   8.725  0.1371  1.0481 -0.3575
11931SOL    HW237801   0.252   4.039   8.826  0.6219  2.7449  1.2767
11932SOL     OW37802   8.155   4.790   0.634 -0.0229  0.0110  0.1795
11932SOL    HW137803   8.062   4.807   0.619 -0.0356 -0.9417 -0.9984
11932SOL    HW237804   8.198   4.873   0.612 -0.4903  0.0921 -0.4565
11933SOL     OW37805   4.060  10.255   7.110  0.3513  0.6653 -0.0102
11933SOL    HW137806   4.153  10.276   7.111  0.1123  2.3544 -2.7598
11933SOL    HW237807   4.038  10.247   7.017 -2.5745  1.8871  0.4662
11934SOL     OW37808   2.748   6.968   7.875  0.3111 -0.0839 -0.1284
11934SOL    HW137809   2.756   7.035   7.942 -0.3810  1.0062 -1.0756
11934SOL    HW237810   2.838   6.942   7.855  0.6195  0.7918  0.0604
11935SOL     OW37811   1.369   4.260   2.067 -0.3525  0.3427  0.5820
11935SOL    HW137812   1.355   4.348   2.102  1.2863  0.1588  1.7880
11935SOL    HW237813   1.319   4.203   2.125  0.6849  0.2470  1.4103
11936SOL     OW37814   7.606   2.973   8.703  0.4987 -0.3727  0.4407
11936SOL    HW137815   7.680   2.979   8.642  0.1355  0.4082  0.0730
11936SOL    HW237816   7.566   3.059   8.701 -0.0214 -0.5928  1.1587
11937SOL     OW37817   0.556   4.391   2.627 -0.3807 -0.1952 -0.8408
11937SOL    HW137818   0.472   4.420   2.592 -1.0691 -0.4880  0.4678
11937SOL    HW237819   0.614   4.386   2.552 -1.0292  1.7773 -1.5283
11938SOL     OW37820   6.878   1.617   8.889 -0.3514  0.2456  0.7326
11938SOL    HW137821   6.904   1.624   8.981 -2.1781  1.3910  1.2069
11938SOL    HW237822   6.805   1.678   8.879 -0.2880  0.0580 -1.4640
11939SOL     OW37823   2.898   3.734  10.854  0.2847 -0.4387  0.0219
11939SOL    HW137824   2.886   3.786  10.934 -0.9455  0.3072 -0.6026
11939SOL    HW237825   2.983   3.692  10.865  0.5730  0.4062  1.2945
11940SOL     OW37826   9.614   2.366   5.533  0.7747 -0.4757  0.5873
11940SOL    HW137827   9.539   2.312   5.508 -0.3345  1.7148 -1.2005
11940SOL    HW237828   9.686   2.333   5.481  0.5228 -1.2281  0.7048
11941SOL     OW37829   0.432   6.539   6.250  0.3387  0.4765  0.0632
11941SOL    HW137830   0.396   6.471   6.307 -0.1414 -0.3857 -1.2320
11941SOL    HW237831   0.361   6.601   6.237 -1.0943 -1.5733 -3.0472
11942SOL     OW37832   6.200   0.182   8.384 -0.0380  0.1994 -0.1197
11942SOL    HW137833   6.114   0.224   8.382 -0.2586 -0.1828  0.9404
11942SOL    HW237834   6.184   0.095   8.421  0.7471 -0.0233 -0.2814
11943SOL     OW37835   6.861   5.050   1.099  0.3475  0.1027  0.3001
11943SOL    HW137836   6.876   5.145   1.098  1.9827 -0.1159  0.1191
11943SOL    HW237837   6.901   5.021   1.180 -1.4918 -0.2795  1.1098
11944SOL     OW37838   6.995   3.594   5.122  0.4677  0.6514 -0.1224
11944SOL    HW137839   6.992   3.551   5.037 -0.6985  0.9383 -0.2514
11944SOL    HW237840   7.034   3.679   5.105 -1.4815  1.4786 -0.7733
11945SOL     OW37841   3.032   3.970   2.452  0.2100 -0.3239  0.2362
11945SOL    HW137842   2.976   3.910   2.402  2.3162 -1.7087 -0.5668
11945SOL    HW237843   3.027   4.053   2.404 -1.0241 -0.4427  0.1189
11946SOL     OW37844   9.439   8.693   9.116 -1.1241  0.3072  0.0979
11946SOL    HW137845   9.517   8.747   9.124 -0.3603 -0.6583 -0.6560
11946SOL    HW237846   9.366   8.755   9.121 -0.2606  1.4792 -1.3258
11947SOL     OW37847   6.775   0.512   6.247 -0.3424  0.5363  0.2957
11947SOL    HW137848   6.745   0.488   6.334 -2.0608 -1.5104 -0.7813
11947SOL    HW237849   6.771   0.608   6.246  1.2003  0.7254  2.8864
11948SOL     OW37850   8.328  10.996   4.556  0.7337  0.3283  0.4979
11948SOL    HW137851   8.289  10.975   4.471  0.8362  0.1520  0.4943
11948SOL    HW237852   8.409  11.041   4.535  1.9989 -1.8171  0.4448
11949SOL     OW37853   8.001   7.953   0.935  0.0117  0.3706  0.1032
11949SOL    HW137854   8.062   7.947   1.009 -0.7831  3.2421  1.1182
11949SOL    HW237855   7.948   8.030   0.954 -0.8704  0.6760 -3.0406
11950SOL     OW37856   6.439   4.246  10.391  0.3571  0.1732 -0.4770
11950SOL    HW137857   6.468   4.157  10.409 -0.1057 -0.1084 -1.0978
11950SOL    HW237858   6.367   4.261  10.453  0.7921  0.3160 -0.0007
11951SOL     OW37859   3.422   5.604   1.492 -0.2232 -0.9008  0.3401
11951SOL    HW137860   3.418   5.630   1.400  1.0642 -2.5540 -0.2377
11951SOL    HW237861   3.454   5.513   1.490  2.3412 -0.1817  2.4985
11952SOL     OW37862   2.913   1.254   7.808  0.0004  0.2568 -0.5866
11952SOL    HW137863   2.844   1.188   7.803  0.3239 -0.0803 -0.7055
11952SOL    HW237864   2.970   1.235   7.733  0.1693  0.5899 -0.5459
11953SOL     OW37865  10.350   7.897  10.174 -0.1298 -0.0968 -0.0751
11953SOL    HW137866  10.421   7.920  10.113 -0.8633 -1.0508 -1.3193
11953SOL    HW237867  10.297   7.833  10.126 -0.9910 -0.5224  1.4072
11954SOL     OW37868   9.822   0.974   8.382  0.0295 -0.1165 -0.3278
11954SOL    HW137869   9.836   0.879   8.376 -0.8482 -0.3401  0.8285
11954SOL    HW237870   9.826   0.993   8.475  2.8086  1.4456 -0.6589
11955SOL     OW37871   1.733   6.978   4.157 -0.2360 -0.0299 -0.0306
11955SOL    HW137872   1.811   7.011   4.113  0.6416  1.5993  2.5873
11955SOL    HW237873   1.673   7.052   4.160 -0.6920 -0.4118  0.6084
11956SOL     OW37874   0.515   7.892   7.282 -0.2087  0.2362  0.0571
11956SOL    HW137875   0.498   7.814   7.335 -1.3223  1.0832  1.0234
11956SOL    HW237876   0.603   7.879   7.248 -0.7437 -1.9164 -0.6829
11957SOL     OW37877   0.772   7.411   6.131 -0.7190 -0.2209  0.0388
11957SOL    HW137878   0.726   7.330   6.113 -2.3988  1.0316 -1.6986
11957SOL    HW237879   0.830   7.423   6.056  0.3750 -0.3675  0.8445
11958SOL     OW37880   8.665   2.891   0.581 -0.4132  0.0613 -0.0371
11958SOL    HW137881   8.713   2.833   0.640  0.8050  1.3943  0.3326
11958SOL    HW237882   8.607   2.941   0.638  1.1330  1.7193  0.1908
11959SOL     OW37883   6.187   3.035   4.994  0.4232 -0.2020  0.4659
11959SOL    HW137884   6.190   2.947   4.955 -0.6020 -0.6753  1.3943
11959SOL    HW237885   6.274   3.047   5.031  0.1001 -1.5485  1.7728
11960SOL     OW37886   9.651   9.435   4.515 -0.6773 -0.0920 -0.3340
11960SOL    HW137887   9.593   9.367   4.551  0.1581 -0.7332 -0.1532
11960SOL    HW237888   9.731   9.388   4.493  0.6750  1.1642  1.6145
11961SOL     OW37889  10.916   3.649   4.005  0.1831  0.0829  0.0419
11961SOL    HW137890  10.848   3.622   3.943  1.0678  2.5162 -2.1417
11961SOL    HW237891  10.894   3.739   4.027  1.0519 -0.0839  1.6908
11962SOL     OW37892   2.436   4.093   7.505  0.2427  0.1008  0.8876
11962SOL    HW137893   2.351   4.065   7.472  0.5602 -0.3246  0.4106
11962SOL    HW237894   2.416   4.156   7.574 -0.4907 -0.9260  1.6400
11963SOL     OW37895   0.831   7.865   7.914  0.6131  1.5345  0.1971
11963SOL    HW137896   0.741   7.861   7.881 -0.0744  2.4547  1.8502
11963SOL    HW237897   0.856   7.774   7.928 -0.0639  1.2741 -0.2738
11964SOL     OW37898   7.354   6.685   8.748  0.4903  0.1782  0.4832
11964SOL    HW137899   7.334   6.775   8.772 -1.9608 -0.1555  0.0066
11964SOL    HW237900   7.440   6.689   8.706 -0.0253  2.4786 -0.4882
11965SOL     OW37901   4.911   5.359   2.902 -0.4008  0.3962  0.3442
11965SOL    HW137902   4.927   5.375   2.809 -1.2456 -0.1005  0.1035
11965SOL    HW237903   4.843   5.292   2.904 -1.1129  1.1089  1.3099
11966SOL     OW37904   6.850   7.869   9.134 -0.6812 -0.2933 -0.1127
11966SOL    HW137905   6.807   7.858   9.050  0.3026  2.1301 -1.0134
11966SOL    HW237906   6.779   7.873   9.198 -1.5898  0.3405 -1.1446
11967SOL     OW37907   9.800   2.968   2.474 -0.1396 -0.1505  0.4079
11967SOL    HW137908   9.738   2.990   2.542 -0.6532 -0.7269  0.1345
11967SOL    HW237909   9.884   2.957   2.520 -0.1501  0.9979  0.7207
11968SOL     OW37910  10.840   3.359   7.394  0.0636 -0.0882  0.0485
11968SOL    HW137911  10.773   3.418   7.428  0.9901  0.1018  1.6483
11968SOL    HW237912  10.900   3.416   7.347 -0.6968 -0.2163 -1.1144
11969SOL     OW37913   2.563  11.098   9.693  0.4729 -0.6636 -0.4208
11969SOL    HW137914   2.495  11.031   9.684 -0.0502 -0.1449 -0.3730
11969SOL    HW237915   2.515  11.181   9.693  1.1067 -0.2930 -0.3722
11970SOL     OW37916   5.327   1.972   8.002  0.0542  0.2944 -0.1811
11970SOL    HW137917   5.249   1.918   8.007  0.6300 -0.5315  0.0399
11970SOL    HW237918   5.331   2.000   7.910 -0.0118 -0.3864 -0.3913
11971SOL     OW37919   5.627   3.623   3.351  0.0449  0.0342 -1.0279
11971SOL    HW137920   5.701   3.598   3.295  2.5628  0.7467  1.7221
11971SOL    HW237921   5.591   3.701   3.309 -0.3017 -1.2516 -3.3045
11972SOL     OW37922   4.755  10.618   5.497 -0.0449  0.6874  0.0302
11972SOL    HW137923   4.749  10.653   5.586  1.9529 -0.1761  0.5561
11972SOL    HW237924   4.849  10.611   5.480 -0.3376 -1.9555 -0.9946
11973SOL     OW37925  10.247   4.815   9.201 -0.0509  0.3696 -1.2636
11973SOL    HW137926  10.159   4.853   9.197  0.6144  2.1924  0.1328
11973SOL    HW237927  10.297   4.867   9.138  0.8367  1.8352  0.5603
11974SOL     OW37928   9.821   8.173   6.746 -0.5642 -0.6613  0.2305
11974SOL    HW137929   9.850   8.206   6.832  0.0808  0.2213 -0.3066
11974SOL    HW237930   9.879   8.216   6.683 -2.5975  0.6348 -0.8552
11975SOL     OW37931   3.606   9.218   4.356  0.0043  0.0506 -0.5435
11975SOL    HW137932   3.618   9.234   4.450  0.4442  0.8486 -0.7277
11975SOL    HW237933   3.613   9.304   4.316 -0.1403 -0.2908 -1.3206
11976SOL     OW37934   1.300   5.827   9.129 -0.3391  0.2068 -0.5093
11976SOL    HW137935   1.259   5.746   9.160  1.3602 -1.3743 -2.1329
11976SOL    HW237936   1.228   5.890   9.124 -1.4656 -0.6880  2.2064
11977SOL     OW37937   0.274   7.440   5.538  0.1860 -0.1853  0.1836
11977SOL    HW137938   0.249   7.365   5.592 -0.6265  0.0129  0.1018
11977SOL    HW237939   0.337   7.488   5.592 -0.1124 -0.3432  0.6840
11978SOL     OW37940   8.672   7.019   1.241 -0.4632 -0.7309 -0.4928
11978SOL    HW137941   8.624   7.100   1.257 -0.1723 -0.9209  1.6162
11978SOL    HW237942   8.604   6.952   1.234 -0.6209 -0.5807 -0.4060
11979SOL     OW37943   0.913   9.858   6.262 -0.7133 -0.6260  0.8421
11979SOL    HW137944   0.971   9.832   6.334  2.3178  1.6791 -0.5129
11979SOL    HW237945   0.875   9.941   6.291 -0.0513 -0.0597  0.1366
11980SOL     OW37946  10.125   9.370   0.428  0.4926  0.7165  0.1030
11980SOL    HW137947  10.094   9.339   0.514 -0.6515 -0.1287 -0.5899
11980SOL    HW237948  10.127   9.292   0.374  0.4879  1.3701 -0.8576
11981SOL     OW37949  10.050   5.467   7.506 -0.5940  0.2210  0.1261
11981SOL    HW137950  10.023   5.522   7.580 -0.2161  1.2359 -0.4649
11981SOL    HW237951  10.135   5.502   7.479 -1.3510  0.8351 -1.6729
11982SOL     OW37952   3.904   6.429   2.562 -0.5059 -0.1153 -0.0824
11982SOL    HW137953   3.919   6.392   2.475 -0.1195  0.9119 -0.4620
11982SOL    HW237954   3.935   6.361   2.623  4.7045  1.2319 -0.7446
11983SOL     OW37955   7.240   7.482   7.868  0.4862  0.0240 -0.7196
11983SOL    HW137956   7.198   7.567   7.877 -2.0717 -1.1803 -0.1060
11983SOL    HW237957   7.331   7.501   7.848 -0.0502  2.8709 -0.8028
11984SOL     OW37958   6.088   2.081  11.068 -0.0763  0.3191 -0.4241
11984SOL    HW137959   5.999   2.110  11.089 -0.0442  0.9743 -1.1748
11984SOL    HW237960   6.086   2.065  10.974  0.2540 -0.9264 -0.2333
11985SOL     OW37961  10.341   1.764   0.172 -0.1352  0.6349 -0.0004
11985SOL    HW137962  10.394   1.794   0.247  0.0084 -0.3526  0.3017
11985SOL    HW237963  10.387   1.686   0.141 -2.1320 -1.0803  1.1273
11986SOL     OW37964   0.841   1.298   2.272 -0.1158  0.0585  0.0744
11986SOL    HW137965   0.835   1.243   2.194  1.4740  0.2606 -0.2248
11986SOL    HW237966   0.903   1.252   2.329 -1.8531 -0.5037  1.6085
11987SOL     OW37967   4.428   1.548   8.353 -0.1040  0.5477 -0.3811
11987SOL    HW137968   4.458   1.462   8.324 -0.8884 -0.5821  1.9718
11987SOL    HW237969   4.414   1.539   8.447 -0.2811  3.2448 -0.0650
11988SOL     OW37970  10.085   3.012   4.538  0.3203 -0.6615 -0.1329
11988SOL    HW137971  10.172   3.014   4.499  0.7388 -1.2527  0.7451
11988SOL    HW237972  10.094   2.956   4.615 -0.3816  0.7661  1.0403
11989SOL     OW37973   5.968   1.103   2.132 -0.6938  0.4293 -0.1369
11989SOL    HW137974   5.981   1.089   2.226  2.7491  0.5488 -0.4488
11989SOL    HW237975   5.911   1.180   2.127  0.4137  1.4810  1.9283
11990SOL     OW37976   4.724   8.267  10.276 -0.6489  0.3002 -0.5694
11990SOL    HW137977   4.783   8.211  10.326  2.3285  2.1740 -1.6738
11990SOL    HW237978   4.695   8.333  10.339  1.6564  1.6047 -0.7486
11991SOL     OW37979   8.557   1.909   2.762  0.7220 -0.0043  0.0567
11991SOL    HW137980   8.631   1.855   2.789 -0.6653 -1.4906  1.1406
11991SOL    HW237981   8.522   1.864   2.685  1.2343  0.9923 -0.7783
11992SOL     OW37982   5.419   1.767   1.532 -0.3697 -0.1210  0.3272
11992SOL    HW137983   5.406   1.694   1.593 -0.6064 -1.3713 -1.1576
11992SOL    HW237984   5.514   1.782   1.534  0.1040 -2.2742 -1.2261
11993SOL     OW37985   6.393   5.446  11.101 -0.7773  0.6151 -0.1229
11993SOL    HW137986   6.434   5.531  11.118 -0.9632  1.1836 -2.2759
11993SOL    HW237987   6.377   5.445  11.006 -0.4344 -1.9741 -0.2280
11994SOL     OW37988   2.358   7.833   3.962 -0.4785  0.3540  0.9572
11994SOL    HW137989   2.278   7.793   3.996 -0.8159  1.0896  1.0454
11994SOL    HW237990   2.384   7.777   3.889  0.7758 -1.8171  2.9202
11995SOL     OW37991   8.165  10.010   3.600 -0.3591 -1.1017 -0.2503
11995SOL    HW137992   8.120  10.058   3.531 -1.7553  0.9072  1.8983
11995SOL    HW237993   8.228  10.073   3.635  0.3402 -2.0900  0.2934
11996SOL     OW37994   0.296   5.708   6.588 -0.0824 -0.2029  0.1136
11996SOL    HW137995   0.301   5.803   6.576 -3.0167 -0.1094 -1.2334
11996SOL    HW237996   0.327   5.693   6.678  3.5013  1.5551 -0.6298
11997SOL     OW37997   2.039   2.781   8.344 -0.4244  0.0935  0.5412
11997SOL    HW137998   1.944   2.778   8.358 -0.3121  0.9651  1.7275
11997SOL    HW237999   2.073   2.706   8.391 -0.4408  0.4399  1.1167
11998SOL     OW38000   9.617  10.715   1.740  0.1400  0.5178  0.0505
11998SOL    HW138001   9.639  10.769   1.816 -0.9204  3.2869 -1.4374
11998SOL    HW238002   9.612  10.777   1.668 -1.1366 -1.6433 -1.8550
11999SOL     OW38003   1.472   7.173   7.893  0.6014  0.2805  0.5381
11999SOL    HW138004   1.473   7.083   7.859  1.6039  0.6061 -0.3576
11999SOL    HW238005   1.529   7.222   7.833 -0.6539  1.7215  0.4571
12000SOL     OW38006   5.559   6.335   3.378  0.3077 -0.2344  0.4293
12000SOL    HW138007   5.559   6.244   3.349 -0.1965 -0.3998  0.9282
12000SOL    HW238008   5.488   6.376   3.328  0.5697 -0.1020  0.1654
12001SOL     OW38009  10.420   4.944   9.360  0.2428  0.2320 -0.7996
12001SOL    HW138010  10.352   4.898   9.311 -0.7588  0.7486  0.0468
12001SOL    HW238011  10.445   4.883   9.430 -1.0751  0.9027  0.3136
12002SOL     OW38012   5.585  10.664   1.838 -0.4995 -0.0196 -0.1513
12002SOL    HW138013   5.499  10.621   1.831 -0.2824 -0.3525 -0.7728
12002SOL    HW238014   5.648  10.593   1.836 -0.0988  0.3341 -1.8397
12003SOL     OW38015  10.408   8.750   4.214  0.5695 -0.1709 -0.3313
12003SOL    HW138016  10.493   8.737   4.171  0.5360 -0.9428 -0.1876
12003SOL    HW238017  10.345   8.754   4.143 -0.0272 -5.2268 -0.4764
12004SOL     OW38018   8.926   5.668   3.588 -0.7703 -0.1463 -0.9469
12004SOL    HW138019   8.998   5.642   3.529 -1.8332 -1.2722 -1.8026
12004SOL    HW238020   8.855   5.692   3.529 -0.7002  2.3069 -0.1285
12005SOL     OW38021   3.430   6.709   1.050  0.1623 -0.4400 -0.2124
12005SOL    HW138022   3.388   6.626   1.025 -0.8657 -0.3292  1.0003
12005SOL    HW238023   3.444   6.700   1.144  1.8804 -0.0057 -0.4055
12006SOL     OW38024   5.195   1.488   5.805  0.5003  0.5304 -0.3966
12006SOL    HW138025   5.233   1.511   5.721  1.0347 -0.6444 -0.4934
12006SOL    HW238026   5.268   1.454   5.857 -0.3651 -1.9906 -0.6704
12007SOL     OW38027   0.138   6.408  10.246 -0.3556  0.6967 -0.0833
12007SOL    HW138028   0.122   6.313  10.244  0.5639  0.4637  1.7134
12007SOL    HW238029   0.166   6.426  10.336  0.9041  2.4457 -0.7686
12008SOL     OW38030   9.204   8.957   7.164 -0.2304 -0.0705 -0.2589
12008SOL    HW138031   9.263   8.932   7.093 -0.8635  1.4649 -1.3677
12008SOL    HW238032   9.260   8.956   7.243  0.3414 -2.3766 -0.6184
12009SOL     OW38033   1.733   6.506  11.054  0.7267 -0.0243  1.0454
12009SOL    HW138034   1.766   6.596  11.055  1.4426 -0.2603  2.5187
12009SOL    HW238035   1.638   6.515  11.046  0.9279  0.7479 -1.1084
12010SOL     OW38036   2.329   5.007   1.109  0.1516 -0.6065 -0.2841
12010SOL    HW138037   2.425   5.007   1.116  0.2286 -2.2329 -0.9151
12010SOL    HW238038   2.310   4.934   1.050 -1.5802 -1.6501  1.4534
12011SOL     OW38039   6.021   8.541   6.551  0.0936 -0.1681  0.4264
12011SOL    HW138040   6.070   8.567   6.473  1.2011 -0.3645  1.0401
12011SOL    HW238041   6.007   8.447   6.539  2.4671 -0.7375  1.5969
12012SOL     OW38042   2.645   2.286   3.355 -0.6711  0.3371  0.2557
12012SOL    HW138043   2.653   2.263   3.263  2.6073 -1.4262  0.8232
12012SOL    HW238044   2.597   2.213   3.394 -2.1220  1.1181 -0.0284
12013SOL     OW38045   8.872   9.106   2.678  0.3719  0.2539 -0.0208
12013SOL    HW138046   8.808   9.109   2.749 -0.1159  0.8862 -0.4733
12013SOL    HW238047   8.920   9.189   2.685  1.3069 -0.2959  0.4405
12014SOL     OW38048   2.762   7.883   6.523 -0.6145  0.5653  0.8546
12014SOL    HW138049   2.704   7.957   6.542 -1.5295 -0.2068  1.1712
12014SOL    HW238050   2.759   7.829   6.603 -0.8214 -0.3575  0.2345
12015SOL     OW38051   9.173   4.594   6.134  0.4606 -0.2892 -0.1619
12015SOL    HW138052   9.194   4.669   6.079 -1.1144  0.3944  0.1218
12015SOL    HW238053   9.258   4.554   6.153  1.1498  0.1458 -2.0775
12016SOL     OW38054   1.879  10.313  10.980  1.0182  0.7075  0.0700
12016SOL    HW138055   1.816  10.274  10.919  1.0164 -0.8503  1.0163
12016SOL    HW238056   1.955  10.254  10.978  0.9303  0.4783  1.7218
12017SOL     OW38057   6.007   0.334   8.531 -0.8482  0.0333 -0.0885
12017SOL    HW138058   5.913   0.324   8.548 -1.0449 -0.8764 -1.5426
12017SOL    HW238059   6.018   0.427   8.511 -1.1267  0.4870  1.6570
12018SOL     OW38060   7.991   2.366   4.906 -0.3872 -0.6113  0.5093
12018SOL    HW138061   8.068   2.394   4.856 -0.3652 -1.8583 -0.1744
12018SOL    HW238062   7.919   2.369   4.844 -0.9689  0.7125  1.1885
12019SOL     OW38063   3.425   6.543  10.246 -1.0590  0.0524 -0.3862
12019SOL    HW138064   3.340   6.500  10.243 -0.6264 -0.9217  0.5756
12019SOL    HW238065   3.472   6.510  10.170 -0.7763 -1.1014  0.2753
12020SOL     OW38066   6.363   9.943   4.373 -0.0018 -0.2002  0.2361
12020SOL    HW138067   6.420   9.887   4.426  0.4917 -1.3644 -1.4564
12020SOL    HW238068   6.278   9.938   4.417  0.2991 -1.4513  0.7170
12021SOL     OW38069   1.472   4.879   3.845  0.6280  0.1812  0.0927
12021SOL    HW138070   1.428   4.963   3.851 -0.1952 -0.3532  2.9282
12021SOL    HW238071   1.565   4.901   3.853  0.3470  0.7840  2.3415
12022SOL     OW38072   3.152   5.376  10.352 -0.0085  0.3181 -0.2061
12022SOL    HW138073   3.065   5.376  10.391  1.0972  1.7843  2.5584
12022SOL    HW238074   3.158   5.461  10.308 -0.1195  0.0450 -0.7477
12023SOL     OW38075   0.332   9.685   6.696 -0.1349 -0.5021 -0.3510
12023SOL    HW138076   0.275   9.610   6.715 -0.0528 -0.5263 -0.1978
12023SOL    HW238077   0.275   9.761   6.705 -0.0684 -0.5049  0.1257
12024SOL     OW38078   0.678  10.920   3.122 -0.0092 -0.5289 -0.0601
12024SOL    HW138079   0.749  10.955   3.175 -0.0295 -0.5884  0.0059
12024SOL    HW238080   0.704  10.940   3.032  0.9519 -2.0971 -0.1709
12025SOL     OW38081   7.378   3.066   1.376 -0.6417 -0.0737 -0.5917
12025SOL    HW138082   7.387   3.038   1.285  0.1212 -2.0704  0.0662
12025SOL    HW238083   7.299   3.021   1.407  0.3784 -1.2535  0.3698
12026SOL     OW38084   3.381   2.949   7.886 -0.1461  0.6327  0.1566
12026SOL    HW138085   3.374   2.996   7.803 -2.1950  2.0598  1.0614
12026SOL    HW238086   3.313   2.882   7.881 -0.1124  0.5667  0.5838
12027SOL     OW38087   9.729   8.884   6.474  1.0310 -0.4273 -0.6856
12027SOL    HW138088   9.650   8.927   6.442  0.7499 -1.7370 -1.8441
12027SOL    HW238089   9.705   8.852   6.561  0.7539  0.3800 -0.4583
12028SOL     OW38090   6.934  10.286   0.249 -0.6400 -0.0458 -0.1134
12028SOL    HW138091   6.942  10.299   0.155  0.2748  0.4385  0.0259
12028SOL    HW238092   6.866  10.348   0.276 -1.4807 -0.7461 -0.5611
12029SOL     OW38093   5.878   6.345   9.408  0.0212 -1.0741  0.1063
12029SOL    HW138094   5.880   6.257   9.448  1.2960 -0.9529  0.3748
12029SOL    HW238095   5.817   6.395   9.463  0.4395 -1.3894  0.8860
12030SOL     OW38096   0.506   1.559   7.221  0.2969  0.2251 -0.5464
12030SOL    HW138097   0.470   1.645   7.200 -0.2146  0.3726  0.8778
12030SOL    HW238098   0.597   1.576   7.245  0.4515  0.2401 -1.1165
12031SOL     OW38099   0.386   6.590   6.628  0.5662 -0.4567 -0.2503
12031SOL    HW138100   0.343   6.649   6.566 -1.0405  0.2238  1.4186
12031SOL    HW238101   0.360   6.502   6.601 -0.5596 -0.1336 -0.2423
12032SOL     OW38102   5.660   9.167   1.217 -0.0872 -0.0925  0.6817
12032SOL    HW138103   5.691   9.078   1.202 -0.1291 -0.0922  0.5910
12032SOL    HW238104   5.569   9.166   1.187 -0.1188 -0.0453  0.7744
12033SOL     OW38105   7.459   7.789   4.273 -0.0438 -0.2310  0.0869
12033SOL    HW138106   7.494   7.798   4.362  0.9360  1.0347 -0.4031
12033SOL    HW238107   7.371   7.828   4.278  0.4996  1.0394  0.2327
12034SOL     OW38108   7.941   1.852  10.795 -0.0708  0.6674  0.2570
12034SOL    HW138109   7.957   1.773  10.848  1.4849 -0.3990 -1.6645
12034SOL    HW238110   7.880   1.824  10.727  0.1323  1.2540 -0.1754
12035SOL     OW38111   1.392   2.394   2.431 -0.1159  0.2566  0.6133
12035SOL    HW138112   1.456   2.384   2.501  2.1827  0.1178 -1.3664
12035SOL    HW238113   1.368   2.305   2.407  0.9726  0.1736 -0.2984
12036SOL     OW38114   8.105  10.482   7.787 -0.2122  0.5060 -0.2946
12036SOL    HW138115   8.129  10.512   7.875 -1.5628  0.6241  0.0547
12036SOL    HW238116   8.177  10.511   7.731  0.6737  0.4149  0.7771
12037SOL     OW38117   1.875   7.477   7.108  0.0186 -0.1060 -0.1370
12037SOL    HW138118   1.800   7.487   7.166  0.7768 -0.3186  0.9103
12037SOL    HW238119   1.851   7.404   7.050 -0.4431 -0.3983  0.4115
12038SOL     OW38120   9.727   6.224  11.038  0.0786 -0.4480 -0.0197
12038SOL    HW138121   9.787   6.197  10.968  0.1229  0.5958 -0.4026
12038SOL    HW238122   9.645   6.178  11.018  0.6413 -1.6425  0.3344
12039SOL     OW38123   7.239   8.269   6.747  0.0849  0.1760  0.2228
12039SOL    HW138124   7.193   8.272   6.831  0.4971  2.5095  0.4429
12039SOL    HW238125   7.176   8.229   6.687 -0.9565  0.2318  1.2457
12040SOL     OW38126   2.482  10.196   9.941 -0.8034  0.1093 -0.1017
12040SOL    HW138127   2.575  10.189   9.921 -0.3178 -0.3094  2.0609
12040SOL    HW238128   2.444  10.238   9.864  1.0645 -0.2310 -1.2673
12041SOL     OW38129   9.916   5.862   0.120 -0.8691  0.4492  0.8293
12041SOL    HW138130   9.837   5.901   0.158  0.1610  2.3068  1.1783
12041SOL    HW238131   9.945   5.925   0.055  0.6012  0.0298  1.0502
12042SOL     OW38132   3.971   2.625  10.553  0.2937 -0.6680 -0.0728
12042SOL    HW138133   4.035   2.554  10.550 -0.2011 -1.1620  0.7402
12042SOL    HW238134   4.016   2.700  10.513  1.5933 -0.8472  0.9890
12043SOL     OW38135   8.103   7.982   0.647 -0.2168 -0.0564  0.1595
12043SOL    HW138136   8.011   7.965   0.630  0.2629 -1.8319 -0.8692
12043SOL    HW238137   8.130   7.914   0.708  0.7379 -0.4943 -0.7003
12044SOL     OW38138   5.057  10.596   5.039 -0.1048  0.0481  0.3655
12044SOL    HW138139   5.100  10.510   5.032  2.0291  1.1725 -1.8564
12044SOL    HW238140   5.115  10.647   5.094 -0.1755  0.7007 -0.1540
12045SOL     OW38141   8.709   5.793   3.436  0.3445  0.8971 -0.4473
12045SOL    HW138142   8.664   5.871   3.467 -1.1679 -0.5178  1.1125
12045SOL    HW238143   8.639   5.732   3.411  1.3562 -0.8308  0.6684
12046SOL     OW38144   1.748   9.592   6.790  0.2494  0.0733  1.2393
12046SOL    HW138145   1.816   9.533   6.821  0.2874 -0.7052 -0.2241
12046SOL    HW238146   1.781   9.624   6.706 -0.9542  0.0862  0.7532
12047SOL     OW38147   3.748   6.362   1.456 -0.5741  0.1059  0.3781
12047SOL    HW138148   3.796   6.284   1.426  1.2993  1.7617 -1.1821
12047SOL    HW238149   3.687   6.328   1.521 -0.0193 -2.7064 -0.4162
12048SOL     OW38150   2.888   2.851   9.712  0.4134 -0.3981  0.2019
12048SOL    HW138151   2.887   2.932   9.764 -2.6520  0.0884 -0.4097
12048SOL    HW238152   2.808   2.855   9.661  0.0148 -3.9678  0.2956
12049SOL     OW38153   6.368   3.484   4.426  0.2134 -0.0525  1.3282
12049SOL    HW138154   6.454   3.524   4.413  0.2193 -0.0787  1.2849
12049SOL    HW238155   6.364   3.414   4.360  0.3187 -0.3063  1.5909
12050SOL     OW38156   8.160   6.334   8.783 -0.9410 -0.2514  0.0967
12050SOL    HW138157   8.237   6.391   8.790 -0.4070 -0.9436  0.0074
12050SOL    HW238158   8.089   6.384   8.823  0.1117 -0.6267  2.5851
12051SOL     OW38159   5.910   4.739   9.350 -0.0575 -0.0471 -0.1044
12051SOL    HW138160   5.868   4.654   9.364 -0.0676 -0.3129 -1.5907
12051SOL    HW238161   5.839   4.796   9.318  0.4155 -0.1373 -1.3586
12052SOL     OW38162   4.207   3.635  10.817  0.4314  0.3124 -0.1903
12052SOL    HW138163   4.216   3.729  10.835 -0.1704  0.0106  1.9573
12052SOL    HW238164   4.284   3.613  10.765  0.0433  2.1914 -1.6627
12053SOL     OW38165   0.578   8.963   5.235 -0.2098 -0.0942 -0.0265
12053SOL    HW138166   0.600   9.019   5.310 -0.5580 -2.9013  2.3807
12053SOL    HW238167   0.494   8.996   5.204  0.3724  1.6991  0.2094
12054SOL     OW38168   4.558   0.262   3.707 -0.0478  0.7300 -0.3030
12054SOL    HW138169   4.572   0.169   3.724  1.1771  1.1867  1.3291
12054SOL    HW238170   4.464   0.274   3.719  0.0250  0.0139  1.1856
12055SOL     OW38171   0.061   4.720   7.207 -0.3004 -0.4914  0.4771
12055SOL    HW138172   0.076   4.799   7.258 -1.4530  0.1230 -0.0844
12055SOL    HW238173  -0.032   4.723   7.184  0.6258  0.9425 -4.2714
12056SOL     OW38174   1.304   3.514  10.778 -0.2670  0.5744  0.2288
12056SOL    HW138175   1.232   3.453  10.787 -1.4329  2.0136  1.0096
12056SOL    HW238176   1.344   3.491  10.693 -0.1931 -1.6806  0.8036
12057SOL     OW38177   5.424   9.251   3.776 -0.4091  0.1770 -0.0912
12057SOL    HW138178   5.358   9.253   3.846  0.0373 -0.6186  0.3701
12057SOL    HW238179   5.452   9.342   3.767 -1.4293  0.5030 -0.1729
12058SOL     OW38180   2.158   6.428   7.544 -0.0302  0.0969  0.4512
12058SOL    HW138181   2.132   6.411   7.453 -1.8902  1.4120  0.6771
12058SOL    HW238182   2.193   6.516   7.544 -2.6031  1.2220  1.3846
12059SOL     OW38183   6.785   9.176  10.830 -0.3483  0.2162 -0.2681
12059SOL    HW138184   6.876   9.150  10.837 -0.3472  0.0240 -0.9379
12059SOL    HW238185   6.754   9.181  10.921  0.6350  1.4207  0.0297
12060SOL     OW38186   2.432   0.284   2.412  0.3867  0.4917 -0.0016
12060SOL    HW138187   2.415   0.260   2.321  0.3670 -2.1108  0.6144
12060SOL    HW238188   2.520   0.321   2.410 -0.3201  2.2880 -1.3064
12061SOL     OW38189   3.192   3.205   6.632  0.1060  0.8283 -0.1668
12061SOL    HW138190   3.189   3.246   6.719  0.0146  2.1577 -0.7676
12061SOL    HW238191   3.268   3.147   6.635 -0.0866  0.6085  0.9032
12062SOL     OW38192   7.132   2.531   8.518  0.3977 -0.0583 -0.7092
12062SOL    HW138193   7.202   2.596   8.510  1.0343 -0.3692  1.5305
12062SOL    HW238194   7.169   2.464   8.576 -1.1122 -1.1659 -0.9946
12063SOL     OW38195   7.713   2.568   6.308 -0.5045 -0.3485  0.7464
12063SOL    HW138196   7.781   2.595   6.369 -0.6042 -0.2179  0.7989
12063SOL    HW238197   7.761   2.532   6.233 -0.3892 -1.3954  1.2953
12064SOL     OW38198   6.771   4.216   7.441 -0.3749 -0.5102 -0.0090
12064SOL    HW138199   6.712   4.143   7.421  0.3940 -0.5750 -2.3385
12064SOL    HW238200   6.857   4.176   7.447 -0.0058  0.1080 -0.9107
12065SOL     OW38201  11.042  10.903   9.316 -0.0340 -0.2673 -0.2641
12065SOL    HW138202  11.095  10.851   9.377 -1.5224 -1.9891 -0.3578
12065SOL    HW238203  11.099  10.976   9.292  1.2903 -0.5480  1.7180
12066SOL     OW38204   0.575   8.389   7.841  0.5549  0.1661 -0.1496
12066SOL    HW138205   0.578   8.316   7.903  1.5983  0.2912 -0.0344
12066SOL    HW238206   0.530   8.459   7.889  0.7665  0.0449  0.2260
12067SOL     OW38207   6.749   6.782   9.301 -0.4142 -0.3134 -0.1300
12067SOL    HW138208   6.684   6.759   9.235 -0.2410  0.9128 -0.7520
12067SOL    HW238209   6.701   6.777   9.384 -1.3558  0.7244 -0.5892
12068SOL     OW38210   2.810   0.964   5.347  0.4123 -0.1142  0.2043
12068SOL    HW138211   2.882   0.987   5.405 -0.7692  1.3897  1.1563
12068SOL    HW238212   2.788   1.046   5.302 -0.6750 -0.5499 -0.0977
12069SOL     OW38213   7.543   9.109   2.536  0.7533 -0.5893 -0.0426
12069SOL    HW138214   7.464   9.114   2.590 -1.1472 -2.7573 -2.4251
12069SOL    HW238215   7.613   9.142   2.594 -1.8292  1.6655  2.0908
12070SOL     OW38216   8.614   7.022   5.268 -0.0899  0.8239  0.3295
12070SOL    HW138217   8.677   7.055   5.205 -0.1731 -1.0976 -0.8684
12070SOL    HW238218   8.558   6.963   5.216 -2.1145  1.5550  1.5881
12071SOL     OW38219   5.042   6.113   1.251 -0.2551  0.2269  0.1211
12071SOL    HW138220   4.966   6.100   1.195  0.6469  1.0759 -1.3576
12071SOL    HW238221   5.112   6.064   1.208  0.6741  1.6130 -0.0095
12072SOL     OW38222   2.009   9.739  10.194 -0.1599 -0.2994 -0.1665
12072SOL    HW138223   1.920   9.776  10.191 -0.8326 -1.7809  0.4010
12072SOL    HW238224   2.005   9.675  10.266 -0.2642 -4.4130 -3.4728
12073SOL     OW38225   2.353  10.110   7.918 -0.3172 -0.2250 -0.9898
12073SOL    HW138226   2.405  10.077   7.992 -0.2514  0.4596 -0.7253
12073SOL    HW238227   2.262  10.092   7.942 -0.8536  4.5035  1.7513
12074SOL     OW38228   8.811   0.810   7.131  0.2339  0.4013  0.2824
12074SOL    HW138229   8.802   0.899   7.164 -0.4627 -0.4502  2.5717
12074SOL    HW238230   8.739   0.800   7.068 -0.0066  1.2787  0.4085
12075SOL     OW38231  10.965   8.299   0.263 -0.1776  0.1530 -0.2908
12075SOL    HW138232  10.941   8.310   0.171 -2.1175 -3.4849 -0.3790
12075SOL    HW238233  10.883   8.276   0.307  0.5726  2.3509  2.5839
12076SOL     OW38234   2.468   2.701   2.214  0.3934  0.2422 -0.7249
12076SOL    HW138235   2.397   2.652   2.255  0.4388 -0.0673 -1.0068
12076SOL    HW238236   2.520   2.734   2.286  2.4743 -3.1694 -0.4637
12077SOL     OW38237  10.018   7.617   5.825 -0.1144  1.3654 -0.5177
12077SOL    HW138238  10.099   7.631   5.874 -0.2183  0.6705 -0.1356
12077SOL    HW238239   9.949   7.621   5.891 -0.3436  1.4130 -0.7594
12078SOL     OW38240   3.838  10.114   5.127  0.2164  0.6322 -0.3986
12078SOL    HW138241   3.861  10.033   5.174 -0.4422 -0.1540 -1.3835
12078SOL    HW238242   3.806  10.083   5.042  2.3103  2.0440 -1.7915
12079SOL     OW38243   6.859   8.258   8.992  0.5321 -0.8609 -0.8538
12079SOL    HW138244   6.947   8.290   8.973  0.5816  0.0734  0.7515
12079SOL    HW238245   6.823   8.322   9.054 -1.3094 -1.1878 -1.5341
12080SOL     OW38246   6.738   1.783   5.180 -0.8485 -0.2598  0.4175
12080SOL    HW138247   6.757   1.838   5.255 -2.1504 -0.5814  0.9982
12080SOL    HW238248   6.787   1.702   5.197 -1.0202 -0.2757  0.8459
12081SOL     OW38249  10.444   8.091  10.705  0.0647  0.1228  0.1626
12081SOL    HW138250  10.370   8.084  10.645 -2.8567 -3.4267  3.6726
12081SOL    HW238251  10.412   8.147  10.776  0.5099 -1.6367  1.8373
12082SOL     OW38252   2.852   1.556   2.475 -0.0789  0.5792  0.3208
12082SOL    HW138253   2.783   1.613   2.507  0.4777  1.0563  0.7008
12082SOL    HW238254   2.855   1.572   2.381  0.3064  1.4538  0.4687
12083SOL     OW38255   0.778   6.107   3.041  0.3178 -0.7752  0.1445
12083SOL    HW138256   0.868   6.115   3.075 -0.1082 -1.2575  1.4722
12083SOL    HW238257   0.778   6.022   2.996  1.3600  0.6174 -2.7254
12084SOL     OW38258   3.478   5.913   6.738 -0.0252 -0.4050 -0.3475
12084SOL    HW138259   3.392   5.949   6.718 -0.6121 -1.5592 -0.0196
12084SOL    HW238260   3.494   5.939   6.829  0.5129  0.7867 -0.7570
12085SOL     OW38261   2.202   0.406   0.945 -0.2504 -0.0577 -0.3715
12085SOL    HW138262   2.279   0.354   0.923 -0.4627 -0.5825  0.0993
12085SOL    HW238263   2.144   0.394   0.869 -0.2135 -0.3469 -0.3572
12086SOL     OW38264   1.635   8.502   6.427  0.2143  0.6693 -1.2190
12086SOL    HW138265   1.713   8.477   6.476 -0.4351 -2.3675 -1.5205
12086SOL    HW238266   1.608   8.422   6.382 -2.7813  1.7110 -1.5270
12087SOL     OW38267   3.706   5.603   7.216  0.3324 -0.3776 -0.1249
12087SOL    HW138268   3.702   5.610   7.311 -0.9721 -2.3917  0.0226
12087SOL    HW238269   3.771   5.534   7.200  0.9386  0.3216 -0.7347
12088SOL     OW38270   4.252  10.129   9.568  0.4055  0.1294  0.8595
12088SOL    HW138271   4.235  10.222   9.582 -0.4575  0.1466 -0.1929
12088SOL    HW238272   4.308  10.126   9.491 -1.3473 -0.2969 -0.4513
12089SOL     OW38273   1.493  11.085   0.788  0.0371  0.3470  0.4555
12089SOL    HW138274   1.589  11.084   0.780  0.0102  1.5805 -0.4071
12089SOL    HW238275   1.468  10.993   0.789  1.2550 -0.0055  1.0298
12090SOL     OW38276   4.528   5.602  10.651 -0.5647 -0.0223  0.5313
12090SOL    HW138277   4.436   5.628  10.657 -0.9348 -0.9255 -0.7970
12090SOL    HW238278   4.528   5.528  10.591  1.2932  1.2711 -1.1916
12091SOL     OW38279   9.424   3.568   6.738  0.4837  0.4613 -0.1538
12091SOL    HW138280   9.504   3.592   6.784 -0.9951  3.5238  1.1115
12091SOL    HW238281   9.433   3.611   6.652  0.6031 -0.0184 -0.3827
12092SOL     OW38282  10.131   3.398   2.832  0.1653 -0.4074 -0.6206
12092SOL    HW138283  10.206   3.404   2.891  0.1649 -0.6610 -0.5925
12092SOL    HW238284  10.103   3.488   2.820 -0.0464 -0.3822  0.0382
12093SOL     OW38285   5.432   6.993   8.613 -0.1550  0.0185  0.5998
12093SOL    HW138286   5.410   6.986   8.520  0.9901  1.6654  0.1502
12093SOL    HW238287   5.350   7.018   8.655 -0.1681  1.7903 -0.3855
12094SOL     OW38288   0.905  11.027   7.777  0.0509 -0.1558 -0.0727
12094SOL    HW138289   0.904  10.984   7.862 -0.3904 -0.3696 -0.1810
12094SOL    HW238290   0.952  11.110   7.792  1.6907 -1.0429 -0.0597
12095SOL     OW38291   7.916  10.734   6.677  0.4201 -0.1516 -0.4907
12095SOL    HW138292   7.895  10.702   6.765 -3.1725  0.0108 -1.1405
12095SOL    HW238293   7.852  10.691   6.620  1.5138  1.0868 -2.7863
12096SOL     OW38294   1.312   7.598   6.924 -0.3035 -0.4299  0.3802
12096SOL    HW138295   1.369   7.674   6.941 -0.3934 -0.6253  1.7247
12096SOL    HW238296   1.288   7.568   7.012  1.1037 -3.0565 -0.0433
12097SOL     OW38297   4.295  10.808  10.182 -0.4340  0.1597 -0.1307
12097SOL    HW138298   4.356  10.802  10.256  0.2782  1.8754 -0.5301
12097SOL    HW238299   4.345  10.775  10.107 -0.9072 -0.8716 -0.0182
12098SOL     OW38300   8.137   8.655   9.927 -0.0792  0.0645 -0.9582
12098SOL    HW138301   8.139   8.693   9.839  1.6502  0.4217 -0.8039
12098SOL    HW238302   8.177   8.721   9.983  0.0872 -0.7119 -0.1379
12099SOL     OW38303  10.009  10.421   1.530  0.3762  0.0117  0.6072
12099SOL    HW138304   9.995  10.390   1.441  0.9350  1.7613 -0.1402
12099SOL    HW238305   9.922  10.421   1.570 -0.3463  1.6896 -0.8320
12100SOL     OW38306   2.435   2.512   9.447 -0.4707  0.0579 -0.2241
12100SOL    HW138307   2.461   2.440   9.503 -0.8425  0.9039  1.0899
12100SOL    HW238308   2.353   2.483   9.406  1.5610 -1.9992 -3.2095
12101SOL     OW38309   0.791   9.825   9.957 -0.0440 -0.5567 -0.5021
12101SOL    HW138310   0.762   9.840  10.047  0.7776  2.5815 -0.6530
12101SOL    HW238311   0.755   9.739   9.934 -1.2403 -0.9420  2.3998
12102SOL     OW38312   3.994   6.433   3.476  0.0014  0.4944 -0.0676
12102SOL    HW138313   4.015   6.468   3.389  1.5206  0.2389  0.1725
12102SOL    HW238314   3.904   6.463   3.492 -0.4341  0.2731 -1.8498
12103SOL     OW38315   0.739   0.144   5.473 -0.2558 -0.1190  0.1615
12103SOL    HW138316   0.656   0.190   5.464 -0.4348  0.1155  2.4617
12103SOL    HW238317   0.804   0.204   5.437 -0.7199  1.0730  1.2612
12104SOL     OW38318   6.117   4.661  10.190  0.5429  0.0058 -0.0417
12104SOL    HW138319   6.112   4.672  10.095 -0.5704  1.1285  0.1278
12104SOL    HW238320   6.132   4.567  10.202 -0.5775 -0.3718 -1.2998
12105SOL     OW38321   4.617   9.449   3.774  0.1175  0.5156  0.0841
12105SOL    HW138322   4.547   9.496   3.820  1.3304  1.6128  0.8940
12105SOL    HW238323   4.664   9.517   3.727 -0.1339 -0.3968 -1.5406
12106SOL     OW38324   3.550   1.068   4.521  0.3708 -0.1045 -0.3349
12106SOL    HW138325   3.575   1.143   4.468  1.3326 -0.5936 -0.5870
12106SOL    HW238326   3.458   1.084   4.542  1.1260  2.4255  1.7149
12107SOL     OW38327   5.586   6.546   3.825  0.3103  0.1774 -0.1270
12107SOL    HW138328   5.576   6.467   3.877 -0.4356  1.6358  2.1166
12107SOL    HW238329   5.680   6.554   3.811  0.3654 -1.2836 -0.7634
12108SOL     OW38330   8.143   5.768   6.623  0.0458  0.4568  0.2820
12108SOL    HW138331   8.163   5.812   6.540 -0.9431  1.6617  0.6544
12108SOL    HW238332   8.067   5.714   6.603 -0.0652  0.5886  0.3431
12109SOL     OW38333  10.364   6.293   6.903 -0.6271 -0.3875 -0.5660
12109SOL    HW138334  10.426   6.237   6.856  0.1282  0.7336 -0.9388
12109SOL    HW238335  10.279   6.251   6.890 -0.0791 -1.4571 -0.8094
12110SOL     OW38336   0.879   2.615  10.862  0.3554 -0.3596  0.2279
12110SOL    HW138337   0.946   2.666  10.817 -1.3382  0.6819 -1.2432
12110SOL    HW238338   0.905   2.524  10.848  1.2587  0.0084 -0.6429
12111SOL     OW38339   0.389   0.052   7.538 -0.2407 -0.0414  0.4013
12111SOL    HW138340   0.406   0.122   7.475  0.5146 -2.0822 -1.8418
12111SOL    HW238341   0.300   0.068   7.570  0.1929  2.3158  0.5848
12112SOL     OW38342   6.244   3.132   0.768  0.5448 -0.4871  0.0891
12112SOL    HW138343   6.327   3.126   0.816  0.7290 -2.6990 -0.3743
12112SOL    HW238344   6.191   3.060   0.802  0.1746 -1.2973 -2.0200
12113SOL     OW38345   6.822   1.606  10.489  0.0932  0.4218 -0.3750
12113SOL    HW138346   6.792   1.588  10.400  0.9604  1.0021 -0.8028
12113SOL    HW238347   6.801   1.698  10.504 -2.9285 -0.4055  1.2291
12114SOL     OW38348   2.760   8.749   1.814 -0.1749  0.0998  0.1251
12114SOL    HW138349   2.821   8.807   1.769 -2.0188  1.6473 -0.4965
12114SOL    HW238350   2.720   8.697   1.744 -1.8900  1.4002  0.0619
12115SOL     OW38351   0.486   1.383   2.386 -0.5631 -0.2886 -0.2478
12115SOL    HW138352   0.504   1.472   2.353 -0.2531  0.0469  0.7775
12115SOL    HW238353   0.426   1.396   2.458  0.2237 -0.8221  0.5221
12116SOL     OW38354   7.410   7.076   4.360  0.6852  0.3051 -0.4988
12116SOL    HW138355   7.417   6.981   4.357 -1.3925  0.1520 -2.3191
12116SOL    HW238356   7.375   7.095   4.447 -1.8664 -0.8992 -1.1761
12117SOL     OW38357   4.601  10.993   1.664 -0.2135 -0.3326 -0.3648
12117SOL    HW138358   4.544  11.035   1.599 -1.0087 -1.0885 -0.1700
12117SOL    HW238359   4.550  10.920   1.698  0.2711 -0.0729  0.9853
12118SOL     OW38360   1.772   4.312   4.572  0.4344  0.3447 -0.0461
12118SOL    HW138361   1.688   4.287   4.533  0.2095  1.7928 -0.5446
12118SOL    HW238362   1.783   4.404   4.549  2.0442  0.2552  0.2491
12119SOL     OW38363   7.895   6.938   4.525  0.0552 -0.3260  0.1772
12119SOL    HW138364   7.807   6.970   4.545  0.7730  0.2535  2.7759
12119SOL    HW238365   7.951   6.975   4.594  2.2798 -1.0162 -1.1357
12120SOL     OW38366   9.460   0.970   7.015  0.1729  0.1682 -0.7541
12120SOL    HW138367   9.417   0.987   7.098 -1.1679 -0.7668 -1.2174
12120SOL    HW238368   9.393   0.986   6.949  1.2018  0.8727 -1.6790
12121SOL     OW38369   8.474   9.375   0.136 -0.6473 -0.3127  0.1290
12121SOL    HW138370   8.383   9.404   0.131 -0.3250  1.1881  1.6696
12121SOL    HW238371   8.483   9.309   0.067 -2.4683  0.6268 -1.0829
12122SOL     OW38372   2.059   3.458   2.218 -0.2175  0.4513 -0.3547
12122SOL    HW138373   2.133   3.483   2.163 -0.2511  1.6939  0.1181
12122SOL    HW238374   2.088   3.378   2.263  1.0742  1.2176  0.2373
12123SOL     OW38375   2.432   0.206   4.715 -0.2612 -0.3080 -0.4170
12123SOL    HW138376   2.497   0.272   4.691 -1.2024  0.7876 -0.0607
12123SOL    HW238377   2.358   0.224   4.657 -0.5338 -1.0476 -0.3038
12124SOL     OW38378   1.729   8.154   1.010 -0.0949 -0.3602 -0.0313
12124SOL    HW138379   1.793   8.086   0.989  1.3381  1.3943 -1.7551
12124SOL    HW238380   1.680   8.167   0.930 -0.8354  0.1509  0.4914
12125SOL     OW38381   0.318   8.867   8.245 -0.5593 -0.8249  0.3929
12125SOL    HW138382   0.308   8.777   8.277  1.1573 -1.0541  0.3795
12125SOL    HW238383   0.264   8.870   8.166  0.3244 -2.2632 -0.3256
12126SOL     OW38384   3.433   4.937   5.487  0.0790  0.3562  0.1054
12126SOL    HW138385   3.385   4.984   5.555 -0.7255 -1.0588  0.5537
12126SOL    HW238386   3.502   4.998   5.461 -1.2427  2.0104  0.2373
12127SOL     OW38387   2.235   0.399   9.177 -0.8360 -0.8221  0.1358
12127SOL    HW138388   2.219   0.494   9.177 -2.5658 -1.0631  1.4714
12127SOL    HW238389   2.302   0.386   9.244  0.1564 -0.4700 -0.7611
12128SOL     OW38390   6.647   2.702   2.806  0.6239 -0.5927  0.3986
12128SOL    HW138391   6.647   2.676   2.898  1.6300 -1.0518  0.2793
12128SOL    HW238392   6.603   2.629   2.761 -0.3040 -0.1498  0.5554
12129SOL     OW38393   1.297   0.917   9.344  0.2581  0.5876  0.5128
12129SOL    HW138394   1.392   0.924   9.345  0.4187 -1.1261  1.2720
12129SOL    HW238395   1.277   0.873   9.261  0.1568  0.4978  0.5853
12130SOL     OW38396   6.098   0.560   5.617  0.3111 -0.0506 -0.2000
12130SOL    HW138397   6.132   0.473   5.598  0.2301  0.2057 -1.6436
12130SOL    HW238398   6.004   0.553   5.603  0.3022  0.2551 -0.3136
12131SOL     OW38399  10.484   0.856   4.454 -0.5256 -0.5855  0.4692
12131SOL    HW138400  10.483   0.770   4.410 -0.2571 -0.4048  0.1071
12131SOL    HW238401  10.394   0.889   4.444 -0.7938 -1.0772  1.1257
12132SOL     OW38402   0.047   7.712   2.829  0.7240 -0.2911 -0.1847
12132SOL    HW138403   0.009   7.632   2.792  1.2051 -0.6089 -0.0012
12132SOL    HW238404  -0.012   7.781   2.801 -0.5345 -0.8854  0.9042
12133SOL     OW38405   1.361   3.168   3.718  0.2654 -0.5465 -0.0710
12133SOL    HW138406   1.378   3.209   3.803  0.3645 -1.0791  0.1744
12133SOL    HW238407   1.305   3.230   3.672  2.1059  0.8572 -0.5499
12134SOL     OW38408   3.860   7.358   6.906 -0.2641  0.0727  1.0095
12134SOL    HW138409   3.896   7.396   6.986 -2.3519  0.6479  1.7216
12134SOL    HW238410   3.765   7.366   6.915 -0.5913 -0.5371 -1.1922
12135SOL     OW38411   1.962  10.436   3.805 -0.4835 -0.7313  0.0324
12135SOL    HW138412   2.019  10.359   3.807  0.6141  0.0740  0.8560
12135SOL    HW238413   1.921  10.438   3.891 -2.0048 -1.4424 -0.6324
12136SOL     OW38414   8.255   7.370  10.231 -0.0583  0.4923  1.0445
12136SOL    HW138415   8.295   7.452  10.260 -0.1358  0.7994  0.3016
12136SOL    HW238416   8.314   7.337  10.162 -0.5167  0.4032  0.6883
12137SOL     OW38417   3.969   6.573   4.373  0.2468 -0.3290  0.7856
12137SOL    HW138418   3.921   6.504   4.327 -0.1522  0.3873  0.1043
12137SOL    HW238419   4.031   6.526   4.428  0.0633 -1.2317  0.2460
12138SOL     OW38420   3.816   2.643   6.897  0.4256 -0.5284 -0.0409
12138SOL    HW138421   3.854   2.707   6.958 -2.4169 -0.4332  1.8640
12138SOL    HW238422   3.755   2.694   6.844  0.2893 -1.1904 -0.5290
12139SOL     OW38423   7.079  10.814   1.411  0.3046  0.2914  0.7593
12139SOL    HW138424   7.099  10.871   1.485 -0.3858 -0.7431  1.7759
12139SOL    HW238425   6.984  10.822   1.400  0.1343 -0.9665  1.1990
12140SOL     OW38426   9.953   6.383   4.924 -0.4770 -0.4629 -0.1680
12140SOL    HW138427  10.037   6.339   4.932 -0.9811 -1.3275  0.4645
12140SOL    HW238428   9.976   6.473   4.901  0.5781 -0.9215 -0.9875
12141SOL     OW38429   5.400   5.308  10.698 -0.0421 -0.3532 -0.0521
12141SOL    HW138430   5.361   5.393  10.719 -1.1276 -1.2206  1.6283
12141SOL    HW238431   5.417   5.267  10.783  2.2399 -1.0798 -0.7729
12142SOL     OW38432   0.581   8.145   7.491  0.0840 -0.3282  0.0933
12142SOL    HW138433   0.498   8.098   7.500 -0.7897  1.4267  2.2445
12142SOL    HW238434   0.634   8.090   7.434 -1.5738 -2.8646  0.8388
12143SOL     OW38435   5.472   5.467   8.794 -0.3499 -0.3537 -0.4793
12143SOL    HW138436   5.553   5.422   8.818  0.9716  2.4273  0.6571
12143SOL    HW238437   5.477   5.478   8.699  0.2552 -0.8459 -0.5078
12144SOL     OW38438   5.319  10.844   6.759 -0.3274  0.1425 -0.4573
12144SOL    HW138439   5.286  10.912   6.817  0.1406  2.5948 -2.8366
12144SOL    HW238440   5.414  10.854   6.761 -0.0191 -2.1636  0.9626
12145SOL     OW38441  10.801   1.722   8.743 -0.0087  0.1856  0.3601
12145SOL    HW138442  10.737   1.769   8.796 -0.0116 -1.2406  1.6956
12145SOL    HW238443  10.764   1.635   8.731  0.8585 -0.0985 -0.4275
12146SOL     OW38444   6.447   0.856   6.956  0.1242 -0.3230 -0.0786
12146SOL    HW138445   6.538   0.829   6.958 -0.0407 -1.0679 -1.2304
12146SOL    HW238446   6.397   0.777   6.976 -0.2713  0.3074  1.6070
12147SOL     OW38447   5.569   3.648   1.296 -0.1403  0.5586 -0.3517
12147SOL    HW138448   5.656   3.670   1.262  0.6585 -1.5207  0.2292
12147SOL    HW238449   5.534   3.732   1.326  1.4057  1.5423 -1.1206
12148SOL     OW38450   7.824   6.994   1.304  0.8169 -0.2043  0.3997
12148SOL    HW138451   7.842   6.930   1.236 -1.9749  1.2394 -1.8869
12148SOL    HW238452   7.792   6.942   1.378  1.5852 -1.6354 -0.2312
12149SOL     OW38453  11.042   9.345  10.038 -0.8316  0.7091 -0.1823
12149SOL    HW138454  11.087   9.273  10.082 -0.5299  0.0377 -1.5475
12149SOL    HW238455  11.102   9.420  10.045 -0.6313  0.5140  0.2131
12150SOL     OW38456   5.556  11.075   4.003 -0.0479  0.5434  0.2544
12150SOL    HW138457   5.475  11.048   3.959 -0.2569 -0.2160  1.0900
12150SOL    HW238458   5.555  11.171   3.999 -0.1253  0.5036 -1.2694
12151SOL     OW38459   0.190   0.982   8.242  0.1486  0.6326 -0.4432
12151SOL    HW138460   0.216   0.982   8.150  0.4534  1.0082 -0.3634
12151SOL    HW238461   0.179   0.890   8.265 -0.9060  0.5830 -1.1205
12152SOL     OW38462   0.830   4.407   9.720 -0.7109 -0.2897 -0.2023
12152SOL    HW138463   0.806   4.426   9.811 -0.0730  0.9428 -0.2710
12152SOL    HW238464   0.860   4.491   9.685  1.8785 -1.3306 -0.6947
12153SOL     OW38465   0.826   9.695   5.743  0.2632 -0.0519 -0.1785
12153SOL    HW138466   0.846   9.782   5.777  3.1102 -1.3529  1.8983
12153SOL    HW238467   0.852   9.697   5.651 -1.0988  1.6504 -0.5614
12154SOL     OW38468  10.283   1.956  10.765  0.2721  0.2281  0.4133
12154SOL    HW138469  10.360   1.899  10.765  0.2009  0.1300  0.7221
12154SOL    HW238470  10.314   2.039  10.729  0.2022 -0.2360 -0.7929
12155SOL     OW38471  10.216   4.583  10.165 -0.1624  0.1742  0.5670
12155SOL    HW138472  10.201   4.593  10.071 -2.5066  1.6333  1.0100
12155SOL    HW238473  10.293   4.637  10.183 -0.8308  1.4547 -0.2484
12156SOL     OW38474   2.796   6.681  10.789 -0.2046 -0.1063 -0.0498
12156SOL    HW138475   2.839   6.602  10.823 -1.3700 -0.1391  1.4459
12156SOL    HW238476   2.710   6.651  10.760 -0.0608  0.3449 -0.9670
12157SOL     OW38477   6.712   0.277   1.175  0.5274  0.5942 -0.1681
12157SOL    HW138478   6.748   0.361   1.202 -1.1407  1.2707  0.0631
12157SOL    HW238479   6.666   0.295   1.093  2.6058 -0.7390 -1.7472
12158SOL     OW38480   4.120   4.524   5.529  0.4185 -0.5736 -0.4416
12158SOL    HW138481   4.149   4.440   5.566  1.2351  0.0194  0.3322
12158SOL    HW238482   4.077   4.569   5.602 -0.0132 -0.3181 -0.8487
12159SOL     OW38483   0.195   7.580   2.508 -0.4762  0.6416 -0.1271
12159SOL    HW138484   0.220   7.605   2.419 -0.0618  0.9864  0.0873
12159SOL    HW238485   0.275   7.586   2.559 -0.1137 -1.9927 -0.2202
12160SOL     OW38486   6.235   1.821   1.784  0.1326  0.0083  0.4486
12160SOL    HW138487   6.222   1.808   1.690  2.2820 -1.4291  0.2937
12160SOL    HW238488   6.308   1.883   1.789 -0.3083  0.4803  1.1912
12161SOL     OW38489   3.801   8.241   9.628  0.1269  0.8904 -0.5013
12161SOL    HW138490   3.770   8.199   9.708  2.2057 -0.0181 -0.1073
12161SOL    HW238491   3.829   8.328   9.658  0.9452  0.5357 -0.2159
12162SOL     OW38492   5.250   9.601   9.187 -0.5911  0.0661 -0.9989
12162SOL    HW138493   5.231   9.666   9.120  0.2078  0.5221 -0.7997
12162SOL    HW238494   5.173   9.603   9.244 -0.6523  0.7199 -1.0898
12163SOL     OW38495   2.125   4.947  10.704 -0.1998  0.0661 -1.0989
12163SOL    HW138496   2.059   4.994  10.755  0.1376 -0.4977 -0.1131
12163SOL    HW238497   2.204   4.999  10.713  0.1580 -0.6350 -0.0593
12164SOL     OW38498   2.283   4.688   1.425 -0.0750  0.1880 -0.7207
12164SOL    HW138499   2.224   4.677   1.350  0.7558 -1.7085 -1.1609
12164SOL    HW238500   2.352   4.745   1.394 -0.3228  0.3175 -1.0404
12165SOL     OW38501   3.087   7.463   4.781  0.1812  0.0986  0.1821
12165SOL    HW138502   3.030   7.530   4.820 -3.0845 -1.1091 -2.1017
12165SOL    HW238503   3.140   7.511   4.717  0.8314  1.0409  1.3870
12166SOL     OW38504   7.525   2.308   4.375  1.2073 -0.0588 -0.5401
12166SOL    HW138505   7.526   2.259   4.293  0.2906 -1.7332  0.4059
12166SOL    HW238506   7.568   2.251   4.438 -0.9271 -0.2291  0.8624
12167SOL     OW38507  10.638   1.262   9.135  0.5008 -0.8044  0.6180
12167SOL    HW138508  10.706   1.267   9.202  1.5579  1.5648 -0.5150
12167SOL    HW238509  10.674   1.204   9.068  0.0032 -2.1058  1.4435
12168SOL     OW38510   2.847   3.470   0.788  0.3242  0.3215 -0.3499
12168SOL    HW138511   2.793   3.391   0.780 -0.4430  0.8717 -0.6069
12168SOL    HW238512   2.816   3.512   0.868  1.4646 -0.1694  0.3944
12169SOL     OW38513   8.200   1.737   1.256 -0.9798 -0.8229  0.0122
12169SOL    HW138514   8.230   1.657   1.212  0.0675 -0.0078 -0.8100
12169SOL    HW238515   8.269   1.801   1.239 -1.3533  0.0066  1.4543
12170SOL     OW38516   7.609   1.566   3.809  0.8497  0.2663 -0.1466
12170SOL    HW138517   7.579   1.555   3.719  1.4283  1.9963 -0.5831
12170SOL    HW238518   7.580   1.487   3.853 -0.1048 -0.2839 -1.6744
12171SOL     OW38519   7.188  10.877  10.199 -0.2869 -0.8164  0.6357
12171SOL    HW138520   7.178  10.950  10.261 -1.4553  3.0534 -3.5031
12171SOL    HW238521   7.282  10.861  10.195  0.3739  2.4506 -0.0496
12172SOL     OW38522   5.387  10.075   1.924 -0.3887 -0.2895  0.0558
12172SOL    HW138523   5.435  10.155   1.946  1.2194 -1.2501  0.2029
12172SOL    HW238524   5.309  10.106   1.877 -0.1646  1.3856  0.7254
12173SOL     OW38525   4.400   1.473   7.301  0.8239 -0.1413 -0.0511
12173SOL    HW138526   4.462   1.516   7.360  0.9863  0.6491 -0.7761
12173SOL    HW238527   4.440   1.387   7.283  0.8507 -0.3256  0.8436
12174SOL     OW38528   7.116   8.657   1.390 -0.1151  0.1470  0.1655
12174SOL    HW138529   7.133   8.697   1.475 -0.7331 -1.1495  0.9345
12174SOL    HW238530   7.183   8.589   1.381 -0.3774 -0.0762 -0.1363
12175SOL     OW38531  10.426   9.861   7.890  0.1372 -0.0962  0.1005
12175SOL    HW138532  10.360   9.888   7.825  0.3976  1.2409  0.3543
12175SOL    HW238533  10.398   9.905   7.971  0.6910 -0.4710  0.4968
12176SOL     OW38534   2.817   4.502   1.030 -0.2355  0.3063  0.1110
12176SOL    HW138535   2.762   4.544   1.095 -0.7661  1.6150 -1.1306
12176SOL    HW238536   2.805   4.554   0.951 -1.5280 -2.5683 -1.7648
12177SOL     OW38537   4.310   3.214   3.848  0.7408  0.3617  0.4293
12177SOL    HW138538   4.243   3.151   3.822  0.8516  0.5269 -0.2537
12177SOL    HW238539   4.392   3.164   3.848  0.9886  0.7294 -1.0956
12178SOL     OW38540   7.499   7.582   2.984 -0.5763 -0.5606 -0.3287
12178SOL    HW138541   7.494   7.502   3.036 -2.4648 -0.2026  0.1288
12178SOL    HW238542   7.562   7.637   3.031  0.0832 -1.4356 -0.1716
12179SOL     OW38543   6.077   7.321   8.135 -0.4988  0.2743  0.1490
12179SOL    HW138544   6.133   7.309   8.059 -1.2496 -0.3530 -0.3170
12179SOL    HW238545   6.060   7.415   8.137 -2.2813  0.0742 -1.8095
12180SOL     OW38546   3.282   9.777  10.527 -0.0350  0.0452 -0.2948
12180SOL    HW138547   3.357   9.753  10.473  0.7491 -1.0360  1.1984
12180SOL    HW238548   3.275   9.706  10.592 -0.3753  1.6791  1.5676
12181SOL     OW38549   1.817   0.437   3.821 -0.1225  0.2594 -0.0616
12181SOL    HW138550   1.746   0.376   3.839 -1.4681  1.6826 -0.3428
12181SOL    HW238551   1.858   0.453   3.906  0.0570 -0.7783  0.0543
12182SOL     OW38552   8.156   3.388   7.188  0.6509 -0.5436  0.2687
12182SOL    HW138553   8.156   3.480   7.159 -0.0840 -0.0564  1.7212
12182SOL    HW238554   8.248   3.369   7.207  0.9789 -0.5001 -1.1659
12183SOL     OW38555  10.346   1.902   3.529 -0.0423 -0.7440  0.3581
12183SOL    HW138556  10.312   1.866   3.611 -0.9683 -0.4476  0.1147
12183SOL    HW238557  10.400   1.831   3.492  1.5424 -0.4003  1.8783
12184SOL     OW38558   2.055   7.442   7.394  0.7080 -0.0216  0.1366
12184SOL    HW138559   2.103   7.497   7.456  1.5620 -0.0004 -0.5231
12184SOL    HW238560   2.028   7.503   7.325  0.9571 -0.2831 -0.1934
12185SOL     OW38561  10.065   4.285   2.402  0.1447 -0.3219 -0.2903
12185SOL    HW138562  10.014   4.359   2.368  1.0763  0.4553 -0.0202
12185SOL    HW238563  10.100   4.316   2.485  0.3543 -1.1565 -0.0633
12186SOL     OW38564  10.474   2.433  10.004 -0.0303 -0.0981  0.1038
12186SOL    HW138565  10.428   2.510  10.036 -0.9361 -0.7793  0.5002
12186SOL    HW238566  10.550   2.425  10.062 -0.3886  0.0258  0.5989
12187SOL     OW38567   7.447   2.276   0.035  0.1870  0.4740  0.0840
12187SOL    HW138568   7.454   2.313  -0.053 -0.8421  0.1717 -0.1478
12187SOL    HW238569   7.532   2.235   0.051  1.0820  2.2119  0.0255
12188SOL     OW38570   5.437   5.164   1.447  0.0635 -0.5093 -0.0177
12188SOL    HW138571   5.389   5.168   1.364  0.4973  1.1460 -0.2265
12188SOL    HW238572   5.501   5.236   1.441  3.1371 -3.0333 -0.0809
12189SOL     OW38573  10.212   7.554  10.572 -0.1637 -0.2914 -0.8436
12189SOL    HW138574  10.244   7.493  10.507  0.1814 -0.2234 -0.7407
12189SOL    HW238575  10.239   7.516  10.656  0.9222  0.4773 -0.8182
12190SOL     OW38576  11.065   8.684   3.839 -0.4595  0.3747 -0.4147
12190SOL    HW138577  11.098   8.613   3.784 -1.1953 -0.2259 -0.0997
12190SOL    HW238578  10.981   8.652   3.872 -0.2349  0.8994  0.7094
12191SOL     OW38579   0.001   3.519   3.128 -0.1789 -0.5171  0.6360
12191SOL    HW138580   0.013   3.441   3.073 -0.3063 -0.2980  0.2949
12191SOL    HW238581   0.065   3.508   3.198 -1.2864 -1.7329  1.5008
12192SOL     OW38582   9.071   8.957   2.567  0.2330  0.5368 -0.0257
12192SOL    HW138583   9.065   8.891   2.635 -0.4082  0.1071 -0.4863
12192SOL    HW238584   9.004   9.021   2.589  0.6807  0.9088  0.2779
12193SOL     OW38585  10.344   0.337   9.240 -0.0973 -0.8060  0.9279
12193SOL    HW138586  10.430   0.377   9.252 -0.3493 -0.5770  2.1257
12193SOL    HW238587  10.346   0.258   9.293 -0.4471 -1.0763  0.5442
12194SOL     OW38588   4.253   7.889   3.647 -0.2614 -0.3805  0.1000
12194SOL    HW138589   4.184   7.823   3.653  0.7739 -1.7468 -1.8061
12194SOL    HW238590   4.267   7.917   3.737 -2.3052 -1.0736  0.7022
12195SOL     OW38591   9.508   7.602   9.142 -0.0495 -0.0975 -0.2299
12195SOL    HW138592   9.492   7.552   9.222  1.1396 -2.2500 -1.2530
12195SOL    HW238593   9.504   7.694   9.169 -3.4043 -0.6166  1.5427
12196SOL     OW38594   2.329   4.491   0.456  0.0781 -0.6689  0.5309
12196SOL    HW138595   2.327   4.526   0.545  0.3855 -1.3706  0.8278
12196SOL    HW238596   2.342   4.397   0.469  1.1815 -0.6410 -0.2920
12197SOL     OW38597   1.266   5.830   0.525 -0.5671  0.1680  0.3339
12197SOL    HW138598   1.245   5.868   0.440  1.0572  0.3572 -0.0059
12197SOL    HW238599   1.351   5.787   0.513  0.4153  1.4336  2.1841
12198SOL     OW38600   8.298   3.045   5.801 -0.5940  0.2406  0.0172
12198SOL    HW138601   8.255   2.967   5.767 -0.2402 -0.5655  1.3270
12198SOL    HW238602   8.232   3.114   5.794 -1.8199 -0.7586  1.1513
12199SOL     OW38603   9.836   7.309   8.510 -0.3194  0.1830 -0.0426
12199SOL    HW138604   9.742   7.315   8.492 -0.1308 -1.0196 -1.7297
12199SOL    HW238605   9.849   7.359   8.590 -2.4853 -0.0771  0.5328
12200SOL     OW38606   2.278  10.608   1.160  0.1988  0.1744  0.4316
12200SOL    HW138607   2.286  10.623   1.066 -1.2126  0.5118  0.3528
12200SOL    HW238608   2.187  10.582   1.173  0.1680  0.8780  1.8058
12201SOL     OW38609   2.453   5.362   5.033  0.1905 -0.0448 -0.1192
12201SOL    HW138610   2.452   5.450   4.997  0.1505  0.2863  0.6596
12201SOL    HW238611   2.430   5.374   5.126  0.9461 -0.7893  0.1748
12202SOL     OW38612  10.807  10.602   9.053  0.2619 -0.6964  0.1205
12202SOL    HW138613  10.733  10.572   9.001 -1.0324  2.8760 -0.4023
12202SOL    HW238614  10.776  10.596   9.144  0.2603 -1.4261  0.0761
12203SOL     OW38615   1.699   3.251   2.964 -0.0653  0.5023  0.3815
12203SOL    HW138616   1.724   3.201   2.886  1.1896  2.5388 -0.6358
12203SOL    HW238617   1.627   3.307   2.935 -0.4901  0.3282  1.0789
12204SOL     OW38618  10.549   6.697   8.303 -0.8555  0.8694  0.2976
12204SOL    HW138619  10.600   6.680   8.224 -1.8898 -0.2977 -0.1457
12204SOL    HW238620  10.607   6.751   8.358 -0.1794  1.8321 -1.3027
12205SOL     OW38621   6.332   5.988  10.321 -0.9262 -0.3060  0.3612
12205SOL    HW138622   6.395   5.964  10.389 -0.2391 -1.5577 -0.6821
12205SOL    HW238623   6.385   6.019  10.248 -1.6357  0.7083  0.2587
12206SOL     OW38624  10.683   8.456   9.245  0.2461  0.0845 -0.6040
12206SOL    HW138625  10.743   8.511   9.295  1.0690 -0.1356 -1.3271
12206SOL    HW238626  10.738   8.417   9.177 -0.6720 -0.3176 -1.1248
12207SOL     OW38627   3.408   5.140   6.449  0.2026  0.0914 -0.1326
12207SOL    HW138628   3.377   5.074   6.511 -1.7986  1.7611  0.7710
12207SOL    HW238629   3.480   5.183   6.494 -0.3946  0.4336  0.5104
12208SOL     OW38630   1.065   8.627   5.214 -0.2854 -0.5944  0.0329
12208SOL    HW138631   1.129   8.591   5.153  1.7378  1.0286  1.0879
12208SOL    HW238632   1.034   8.707   5.173  0.1709 -0.1362  0.5683
12209SOL     OW38633   9.367   2.154   8.038 -0.9143  1.2632  0.3878
12209SOL    HW138634   9.390   2.213   7.967  0.5199 -0.7368 -0.9432
12209SOL    HW238635   9.451   2.127   8.075 -1.4950 -0.0569  0.8252
12210SOL     OW38636   3.055   8.788   7.865 -0.5069  0.3658 -0.6539
12210SOL    HW138637   3.105   8.707   7.880  1.1697  1.4561 -0.1237
12210SOL    HW238638   3.017   8.776   7.778  1.5536 -0.1265 -1.5566
12211SOL     OW38639   7.684   4.169  10.701  0.6589  0.1318 -0.4331
12211SOL    HW138640   7.611   4.226  10.680  1.4921  0.8810 -1.4209
12211SOL    HW238641   7.644   4.090  10.737 -0.5688  0.9264  0.0178
12212SOL     OW38642   5.269  10.375   3.037 -0.2506  0.0337 -0.6139
12212SOL    HW138643   5.310  10.447   3.084 -0.1944 -0.9630  0.9447
12212SOL    HW238644   5.208  10.336   3.099 -2.6985  0.6677 -2.4515
12213SOL     OW38645   7.488   5.095   8.785  0.5680 -0.4564 -0.2866
12213SOL    HW138646   7.436   5.067   8.709  1.4997 -1.1009 -0.7179
12213SOL    HW238647   7.528   5.014   8.817 -0.2606 -0.2901  1.2750
12214SOL     OW38648   4.360   9.748  10.324 -0.3456  0.8514  0.2081
12214SOL    HW138649   4.415   9.750  10.403 -0.0118 -0.3176  0.0328
12214SOL    HW238650   4.408   9.801  10.260  0.3063  0.3091  0.2345
12215SOL     OW38651   0.894   0.739   4.513  0.0593  0.3316 -0.6782
12215SOL    HW138652   0.871   0.742   4.420 -0.6382 -0.6825 -0.5582
12215SOL    HW238653   0.978   0.693   4.516 -0.8293 -1.3680 -0.6934
12216SOL     OW38654   3.157   7.111   5.312 -0.7193  1.2411 -0.2247
12216SOL    HW138655   3.125   7.190   5.267 -0.0585  0.6814 -1.7551
12216SOL    HW238656   3.093   7.043   5.288 -0.0440  0.8041 -0.8207
12217SOL     OW38657   0.593   0.005   7.697  0.2433  0.0290 -0.1223
12217SOL    HW138658   0.534   0.026   7.625 -0.4607  1.3395  0.7999
12217SOL    HW238659   0.655  -0.058   7.660  0.2461  1.0768 -2.0303
12218SOL     OW38660   1.676  10.841   9.518 -0.2360 -0.6762  0.0966
12218SOL    HW138661   1.679  10.746   9.503 -0.8183 -0.6917  0.0445
12218SOL    HW238662   1.630  10.875   9.441 -0.1637 -0.3633  0.1919
12219SOL     OW38663   6.978   7.406   7.848 -0.2014  0.4120  0.0143
12219SOL    HW138664   6.945   7.389   7.936 -0.2144 -0.5618 -0.1627
12219SOL    HW238665   7.071   7.385   7.853 -0.4330 -0.8466 -0.4812
12220SOL     OW38666   9.091   7.986   6.749 -0.3312  0.2259  0.2949
12220SOL    HW138667   9.056   8.030   6.672  0.7424 -0.6180 -0.7171
12220SOL    HW238668   9.039   7.906   6.757  1.2347 -1.0187 -1.1978
12221SOL     OW38669   1.204   9.535   9.752  0.1348  0.1343 -0.1628
12221SOL    HW138670   1.159   9.618   9.769  3.5772  2.3147 -0.7011
12221SOL    HW238671   1.288   9.561   9.714  0.9644 -3.7011 -1.3474
12222SOL     OW38672   2.810   1.746   6.678  0.5759  0.1440 -0.6187
12222SOL    HW138673   2.842   1.664   6.716 -0.1927  0.4412  0.7440
12222SOL    HW238674   2.735   1.719   6.625  2.8616 -0.5499 -3.7911
12223SOL     OW38675   0.051   8.046   2.923  0.2361  0.9396 -0.7109
12223SOL    HW138676   0.004   8.085   2.849 -2.3739  2.3408  1.5214
12223SOL    HW238677   0.125   8.105   2.938  0.4100  1.0080 -1.7636
12224SOL     OW38678   9.142   0.161   1.734  0.3222  0.5901  0.2573
12224SOL    HW138679   9.168   0.079   1.691 -1.7872 -0.0917  0.1627
12224SOL    HW238680   9.082   0.202   1.672 -0.0845  1.2892  1.0926
12225SOL     OW38681   3.201   1.250   7.230  0.6904  0.1933  0.0698
12225SOL    HW138682   3.235   1.160   7.229 -0.1661 -0.1431 -1.0615
12225SOL    HW238683   3.187   1.271   7.138 -0.7362  0.8495  0.4131
12226SOL     OW38684   5.763   3.883   9.024  0.3015  0.3667  0.0415
12226SOL    HW138685   5.722   3.796   9.019  0.1892  0.3037  1.6125
12226SOL    HW238686   5.691   3.944   9.010 -0.0965  0.2250  1.3116
12227SOL     OW38687   3.820   4.914  10.406 -0.2338  0.4652  0.0040
12227SOL    HW138688   3.726   4.894  10.410 -0.7506  2.5722  4.7721
12227SOL    HW238689   3.862   4.844  10.456 -0.0230  2.0596  2.2100
12228SOL     OW38690   8.232   2.030   4.853  0.3569  0.6476  0.3465
12228SOL    HW138691   8.137   2.028   4.843  0.3488 -0.1348  0.5290
12228SOL    HW238692   8.251   2.118   4.884 -0.5980 -0.0117  3.0599
12229SOL     OW38693   4.341   8.954  10.002  0.0464  0.4242  0.1145
12229SOL    HW138694   4.413   8.953  10.064  2.1168 -2.4220 -2.1200
12229SOL    HW238695   4.321   9.047   9.990  1.0514  1.1453  3.2223
12230SOL     OW38696   0.411   5.204   2.256  0.2716  0.3772  0.4806
12230SOL    HW138697   0.468   5.247   2.191 -2.0459  0.7862 -1.4140
12230SOL    HW238698   0.382   5.124   2.213 -0.4879  0.0981  1.4803
12231SOL     OW38699   0.326   4.565   6.226  0.2216  0.3767 -0.0122
12231SOL    HW138700   0.260   4.611   6.175  0.8383 -1.6064 -2.8513
12231SOL    HW238701   0.401   4.624   6.227 -1.1830  2.3023  2.5429
12232SOL     OW38702   7.646   7.016   2.089  0.1662  0.6148 -0.4738
12232SOL    HW138703   7.667   7.096   2.139  1.0026 -0.4493  0.9654
12232SOL    HW238704   7.692   6.946   2.136 -0.2132 -0.6664 -1.9424
12233SOL     OW38705  10.453   4.577   6.383  0.1029  0.0420 -0.0591
12233SOL    HW138706  10.415   4.498   6.343  0.4873 -0.1282 -0.0870
12233SOL    HW238707  10.537   4.589   6.339 -0.2191  0.8183 -0.4798
12234SOL     OW38708   7.409   3.047   3.326 -0.0113 -0.6018  0.3680
12234SOL    HW138709   7.326   3.057   3.279 -0.0673  0.5124  0.6638
12234SOL    HW238710   7.387   3.058   3.418  0.4326 -0.5197  0.4679
12235SOL     OW38711   8.690   4.190   9.596  0.3617 -0.6864  0.3043
12235SOL    HW138712   8.641   4.197   9.514 -0.4279  3.7588  0.8923
12235SOL    HW238713   8.648   4.118   9.643 -2.4923 -0.1970 -1.2340
12236SOL     OW38714   8.475   7.603   4.515 -0.2845 -0.3681  0.2685
12236SOL    HW138715   8.407   7.556   4.563  0.8613 -0.5277  1.8035
12236SOL    HW238716   8.556   7.584   4.562  0.6518  0.8034 -0.7861
12237SOL     OW38717   1.944   5.139   1.450  0.0679  0.2427  0.0733
12237SOL    HW138718   2.000   5.216   1.440  0.9576 -0.4685 -0.6412
12237SOL    HW238719   1.963   5.085   1.373  0.1002 -1.0820  0.9675
12238SOL     OW38720   6.449   2.090  11.062 -0.5068  0.0619  0.7616
12238SOL    HW138721   6.510   2.026  11.099  0.3100 -1.6021 -2.9663
12238SOL    HW238722   6.363   2.049  11.071 -0.4355  0.0651  1.4997
12239SOL     OW38723   3.200   4.675   2.667 -0.8403  0.3489  0.1067
12239SOL    HW138724   3.172   4.714   2.584 -1.9186 -0.4969  0.0458
12239SOL    HW238725   3.118   4.662   2.715 -0.4740 -1.3346  0.3315
12240SOL     OW38726  10.488   9.801   8.939 -0.3485 -0.5808 -0.3729
12240SOL    HW138727  10.495   9.886   8.982 -3.5636 -0.1763 -0.3457
12240SOL    HW238728  10.522   9.816   8.851 -0.5112  0.6719 -0.2428
12241SOL     OW38729   6.434   5.248   7.747 -0.4354 -0.4793 -0.3374
12241SOL    HW138730   6.516   5.290   7.720 -0.2348 -0.9436 -0.4541
12241SOL    HW238731   6.371   5.273   7.680 -0.1065 -1.0614 -0.8766
12242SOL     OW38732   5.119   1.790   4.447 -0.0736  0.0902  0.8152
12242SOL    HW138733   5.175   1.849   4.396  0.2489 -1.1613 -0.3523
12242SOL    HW238734   5.135   1.815   4.538  1.4481  0.6001  0.4542
12243SOL     OW38735   4.552   9.095   9.199  0.7386  0.3246  0.3262
12243SOL    HW138736   4.497   9.024   9.232 -0.7223  1.1329 -0.2779
12243SOL    HW238737   4.581   9.065   9.113  1.3368 -0.1491  0.6909
12244SOL     OW38738   3.332   8.126   3.470  0.1925 -0.0941 -0.5578
12244SOL    HW138739   3.245   8.156   3.443  0.9609  1.5117 -1.3863
12244SOL    HW238740   3.315   8.068   3.544 -1.4613  2.7121  1.4979
12245SOL     OW38741   2.797   5.601   7.218  0.3880  0.8431 -0.2554
12245SOL    HW138742   2.814   5.507   7.219  2.1845  1.1384  0.8143
12245SOL    HW238743   2.750   5.619   7.299 -1.4608  0.6741 -1.2261
12246SOL     OW38744   1.685   2.704   0.115  0.0526  0.1274 -0.0319
12246SOL    HW138745   1.692   2.706   0.210 -0.2332  2.4647  0.0032
12246SOL    HW238746   1.591   2.696   0.098  0.0045  0.7467 -0.0851
12247SOL     OW38747   6.690   3.900   5.569  0.4173  0.3810 -0.3481
12247SOL    HW138748   6.612   3.946   5.539 -0.1774 -1.0047 -1.0653
12247SOL    HW238749   6.756   3.918   5.501  0.5962  1.1879  0.0291
12248SOL     OW38750   9.627   1.880   7.174 -0.7115 -0.1647 -0.3500
12248SOL    HW138751   9.609   1.950   7.237 -0.8349  0.3774 -0.9675
12248SOL    HW238752   9.619   1.923   7.089  1.1328 -0.4671 -0.7183
12249SOL     OW38753   3.268   2.998   8.952 -0.3694  0.5474 -0.1624
12249SOL    HW138754   3.178   2.968   8.962 -0.5758  1.6960  1.8722
12249SOL    HW238755   3.263   3.093   8.962  1.0729  0.6282 -0.0259
12250SOL     OW38756  10.058   2.482   1.365  0.2848  0.1455  0.1843
12250SOL    HW138757  10.038   2.520   1.450 -1.7348 -0.2956 -0.0434
12250SOL    HW238758   9.997   2.409   1.356  0.3056  0.3024 -1.7240
12251SOL     OW38759   9.584   0.096   8.785  0.3210 -0.5758  0.4675
12251SOL    HW138760   9.559   0.185   8.810 -1.5202 -1.2265  1.1223
12251SOL    HW238761   9.676   0.089   8.812  0.3681  0.9612  0.8365
12252SOL     OW38762   1.718   6.712   8.454  0.0443 -0.2056 -0.0559
12252SOL    HW138763   1.731   6.740   8.363  0.6317 -1.3408 -0.3365
12252SOL    HW238764   1.805   6.685   8.484 -0.1394  0.1853  0.8650
12253SOL     OW38765   8.542   3.801   8.010  0.0949 -0.4857 -0.1351
12253SOL    HW138766   8.453   3.836   8.018 -0.0910 -0.5457 -1.5791
12253SOL    HW238767   8.534   3.733   7.943  1.3567 -0.0055 -0.8027
12254SOL     OW38768   2.008   1.302   8.415  0.0396 -0.0861  0.4636
12254SOL    HW138769   2.030   1.240   8.345 -1.1808 -0.0257  0.0013
12254SOL    HW238770   1.943   1.256   8.468  0.2472  0.2372  0.9979
12255SOL     OW38771   5.278   8.410   4.865  0.0410  0.1426 -0.2876
12255SOL    HW138772   5.351   8.362   4.903  1.1704  0.6701 -1.7213
12255SOL    HW238773   5.290   8.500   4.896  0.1774  0.2920 -0.7740
12256SOL     OW38774   9.012   1.881   0.792  1.3739 -0.0407  0.2153
12256SOL    HW138775   9.067   1.822   0.740  3.4962  1.5970  0.4982
12256SOL    HW238776   8.965   1.822   0.851  0.3721 -1.7749 -2.1234
12257SOL     OW38777   6.195   9.091   6.108 -0.7064  0.6107  0.0515
12257SOL    HW138778   6.265   9.151   6.082  0.4269 -0.1806  1.1762
12257SOL    HW238779   6.199   9.089   6.204 -0.0819 -1.9376  0.0515
12258SOL     OW38780   6.661   7.819   5.449 -0.0235 -0.0704 -0.1600
12258SOL    HW138781   6.734   7.881   5.447 -1.6405  1.9017 -1.4259
12258SOL    HW238782   6.681   7.758   5.377 -0.8352  2.0296 -2.2735
12259SOL     OW38783   3.708   0.519  10.165  0.0952  0.8893 -0.0094
12259SOL    HW138784   3.731   0.476  10.248 -1.4028 -0.6765 -0.3521
12259SOL    HW238785   3.779   0.582  10.150  0.6817  0.8271  2.1747
12260SOL     OW38786   8.693   9.325  10.714 -0.4277  0.6199  0.5045
12260SOL    HW138787   8.730   9.238  10.703 -1.1471  0.3149  0.4270
12260SOL    HW238788   8.609   9.310  10.759 -1.1071  1.1572 -0.5510
12261SOL     OW38789  10.377   5.630   2.311 -0.7316 -0.0858 -0.3615
12261SOL    HW138790  10.296   5.673   2.282 -0.5051  0.0165 -0.8420
12261SOL    HW238791  10.384   5.552   2.256  0.5379  0.9398 -1.7152
12262SOL     OW38792   8.732   5.278   0.963  0.0918 -0.6171  0.0328
12262SOL    HW138793   8.822   5.260   0.937 -0.2762 -2.1078 -0.3380
12262SOL    HW238794   8.680   5.218   0.909 -1.1117  0.1423  0.3168
12263SOL     OW38795   9.155   1.090   5.723  0.8310 -0.1575  0.1967
12263SOL    HW138796   9.114   1.033   5.658  0.6489  0.9956 -0.7185
12263SOL    HW238797   9.094   1.089   5.797  1.5085 -2.2615  0.8184
12264SOL     OW38798   1.915   1.666   0.200 -0.2522 -0.2617 -0.6057
12264SOL    HW138799   1.883   1.668   0.110  1.8618 -0.0025 -1.3999
12264SOL    HW238800   1.870   1.591   0.239 -2.0822  0.3131 -1.4878
12265SOL     OW38801   5.430  10.715   4.459 -0.3818 -0.2517  0.2449
12265SOL    HW138802   5.359  10.754   4.509 -0.9879  0.7675 -1.3487
12265SOL    HW238803   5.496  10.784   4.452 -0.6158 -0.1231 -0.9385
12266SOL     OW38804   2.050   3.582   2.556 -0.2913  0.2889  0.3513
12266SOL    HW138805   2.140   3.556   2.537 -0.2886 -0.5910  1.4616
12266SOL    HW238806   2.038   3.562   2.649 -1.1108  2.0093  0.6552
12267SOL     OW38807   4.472   0.378   9.058 -0.2780 -0.0116 -0.5337
12267SOL    HW138808   4.543   0.438   9.082 -1.0543  0.5191  0.4854
12267SOL    HW238809   4.506   0.291   9.079 -0.5098  0.3534  1.4888
12268SOL     OW38810   0.077   6.230   1.182 -0.3887 -0.0960  0.1310
12268SOL    HW138811   0.162   6.226   1.138 -1.1781  0.7699 -1.5796
12268SOL    HW238812   0.096   6.210   1.274  1.4780 -1.0578 -0.4158
12269SOL     OW38813   1.788   1.572   5.601  0.0944 -0.9124  0.5432
12269SOL    HW138814   1.701   1.548   5.568 -0.8202 -0.9889  2.8264
12269SOL    HW238815   1.823   1.632   5.535 -3.4861  2.5416  1.4208
12270SOL     OW38816   0.270   5.299   7.887  0.2338  0.4127  0.3208
12270SOL    HW138817   0.338   5.362   7.864  0.3604  0.0743 -0.2532
12270SOL    HW238818   0.192   5.352   7.904  0.3920  0.7356  0.0410
12271SOL     OW38819   4.400   3.567   1.158 -1.0232 -0.0928  0.4646
12271SOL    HW138820   4.437   3.653   1.177  0.2891 -0.6992  0.7375
12271SOL    HW238821   4.310   3.585   1.130 -0.5308  1.4244 -0.2213
12272SOL     OW38822  10.355   2.959   4.688 -0.6310  0.1647  0.0487
12272SOL    HW138823  10.343   2.909   4.769  3.2126 -0.6155  0.3220
12272SOL    HW238824  10.375   3.048   4.718  0.7630 -0.1177  0.0355
12273SOL     OW38825   0.703  10.146   6.045 -0.2107  0.1432 -0.1459
12273SOL    HW138826   0.784  10.111   6.082 -0.9009 -0.2348  1.0417
12273SOL    HW238827   0.666  10.199   6.115  0.0505  2.0732 -1.3943
12274SOL     OW38828   1.094   6.985   7.667 -0.4343  0.1884 -0.9228
12274SOL    HW138829   1.033   7.054   7.695  2.2082  1.3299  2.9830
12274SOL    HW238830   1.169   7.032   7.632  1.0424 -0.6067  0.9684
12275SOL     OW38831   2.032   0.348   4.897  0.2765 -0.3936  0.4974
12275SOL    HW138832   2.013   0.255   4.889  3.2007 -0.9695 -1.0373
12275SOL    HW238833   2.016   0.384   4.810 -1.2696  0.6842  1.1852
12276SOL     OW38834  10.010   6.371   7.163  0.0230  0.3742 -0.3346
12276SOL    HW138835  10.090   6.423   7.169  0.2714 -0.0360 -0.0183
12276SOL    HW238836  10.041   6.282   7.147 -0.2668 -0.1610  1.7511
12277SOL     OW38837   6.822   4.376  10.889  0.0207  0.2508  0.6497
12277SOL    HW138838   6.750   4.355  10.828  0.7409 -0.0430 -0.1155
12277SOL    HW238839   6.790   4.453  10.937 -0.2493  1.0056 -0.6791
12278SOL     OW38840   1.880   3.446   7.648 -0.0728  0.4426 -0.7787
12278SOL    HW138841   1.798   3.496   7.656  0.4301  1.3058 -0.9326
12278SOL    HW238842   1.948   3.513   7.636  0.8046 -0.2047  0.4107
12279SOL     OW38843   6.731   6.190   9.474 -0.2488 -0.8936  0.2162
12279SOL    HW138844   6.680   6.212   9.396 -0.7541 -0.9819  0.5195
12279SOL    HW238845   6.686   6.235   9.546  0.6468 -0.1902  0.3604
12280SOL     OW38846   1.659   7.081   5.864  0.0176 -0.7613  0.0273
12280SOL    HW138847   1.694   7.086   5.775 -0.2883 -0.9389 -0.1058
12280SOL    HW238848   1.599   7.156   5.870 -0.6692 -1.2820 -0.2336
12281SOL     OW38849   9.490   5.214   3.207 -1.0672  0.2484  0.2246
12281SOL    HW138850   9.563   5.240   3.150 -0.2736  0.5997  1.3653
12281SOL    HW238851   9.442   5.295   3.223 -1.2859  0.1514  0.0561
12282SOL     OW38852   6.862  10.728   1.903  0.0718 -0.2057  0.1942
12282SOL    HW138853   6.793  10.760   1.845  0.0839 -1.7312 -0.6960
12282SOL    HW238854   6.869  10.635   1.884  1.0436 -0.4734  1.6745
12283SOL     OW38855   6.589   7.937   3.363  0.0509 -0.3026  1.0358
12283SOL    HW138856   6.645   7.901   3.432  0.0474  0.7121  1.5903
12283SOL    HW238857   6.509   7.962   3.409 -1.3440 -2.6880  0.0973
12284SOL     OW38858  10.781   3.501   0.757  0.4144  0.4487  0.1825
12284SOL    HW138859  10.724   3.575   0.777  0.7708  0.6015  0.6496
12284SOL    HW238860  10.772   3.489   0.663 -0.5771  0.3135  0.2816
12285SOL     OW38861   1.795   6.163   8.100  0.5943  0.2597 -0.6453
12285SOL    HW138862   1.796   6.075   8.138 -0.8861  0.9668  1.1821
12285SOL    HW238863   1.791   6.148   8.006 -0.3828 -1.6697 -0.3555
12286SOL     OW38864   1.308   8.502   6.976  0.1071 -0.2715 -0.1229
12286SOL    HW138865   1.370   8.574   6.986 -0.1441  0.1865 -1.6158
12286SOL    HW238866   1.282   8.505   6.884  0.9711 -2.9783 -0.5627
12287SOL     OW38867   6.490   7.522   9.974 -0.4888  0.6992 -0.3739
12287SOL    HW138868   6.563   7.572   9.938 -1.8878  1.8467 -1.7515
12287SOL    HW238869   6.519   7.431   9.973  0.5559  1.0329 -1.8123
12288SOL     OW38870   7.563   0.922   3.977  0.1854 -0.3025 -0.1447
12288SOL    HW138871   7.469   0.920   3.993  0.3177  0.9552  0.9743
12288SOL    HW238872   7.575   0.987   3.908  0.3782  1.3822  1.3779
12289SOL     OW38873  10.605   8.321   4.892  0.1092 -0.2472 -0.1412
12289SOL    HW138874  10.569   8.320   4.803 -0.4690  0.7630  0.0725
12289SOL    HW238875  10.627   8.229   4.910  1.2467 -0.3215 -1.7265
12290SOL     OW38876   2.914   6.764   0.437 -0.5445 -0.0568  0.0730
12290SOL    HW138877   2.874   6.693   0.387 -0.0173  0.9965 -1.9580
12290SOL    HW238878   2.918   6.837   0.375  1.5349  0.8601  1.1938
12291SOL     OW38879   5.347   2.575   5.427 -0.2065 -0.0759  0.3719
12291SOL    HW138880   5.415   2.543   5.368 -0.0593  0.3236  0.3198
12291SOL    HW238881   5.349   2.515   5.501 -0.3706 -0.5586 -0.0131
12292SOL     OW38882  10.205   8.441   0.845  0.8276 -0.8637  0.1997
12292SOL    HW138883  10.113   8.423   0.862  1.0762 -2.0978  0.3719
12292SOL    HW238884  10.213   8.434   0.749  0.7433 -0.7899  0.1875
12293SOL     OW38885   1.243   2.410   0.327  0.5487 -0.7439  0.6381
12293SOL    HW138886   1.165   2.463   0.344 -0.1669 -0.8114 -1.9631
12293SOL    HW238887   1.216   2.320   0.348  0.2853 -0.6356  0.7664
12294SOL     OW38888   6.130   7.632   3.761 -0.1963  0.6873  0.8811
12294SOL    HW138889   6.223   7.635   3.738 -0.1711  1.7922  1.0848
12294SOL    HW238890   6.088   7.590   3.686  0.4501  0.3023  0.7302
12295SOL     OW38891   7.533   4.143   3.390 -0.0513 -0.2227 -0.8226
12295SOL    HW138892   7.564   4.210   3.451 -1.7393 -1.2081  1.2646
12295SOL    HW238893   7.549   4.180   3.303 -1.9775  3.4202  0.1976
12296SOL     OW38894   6.158   2.786   2.015  0.0468 -0.2000 -0.1594
12296SOL    HW138895   6.079   2.783   2.069  0.1897 -0.1932  0.0464
12296SOL    HW238896   6.149   2.866   1.964 -1.4539 -1.5484 -2.1910
12297SOL     OW38897   7.615   3.285   6.956  0.3064  0.5170  0.1212
12297SOL    HW138898   7.651   3.218   7.015 -1.1598 -0.2842  0.1562
12297SOL    HW238899   7.689   3.343   6.937  1.3684 -0.5447  0.8895
12298SOL     OW38900  10.603   7.651   5.507 -0.1235  0.2610  0.5089
12298SOL    HW138901  10.663   7.600   5.561 -0.2361 -0.2905  0.1237
12298SOL    HW238902  10.518   7.643   5.551  0.0309  0.8562  0.9307
12299SOL     OW38903   2.639   4.085   8.721  0.0771 -0.6123  0.1798
12299SOL    HW138904   2.630   4.181   8.720  1.6185 -0.4374  0.5228
12299SOL    HW238905   2.549   4.053   8.718 -0.4711  0.8449 -0.0719
12300SOL     OW38906   8.216   3.372   5.929  1.1398  0.6936  0.2394
12300SOL    HW138907   8.312   3.364   5.929  1.2144  1.4384 -0.4680
12300SOL    HW238908   8.197   3.429   5.855  0.0352 -0.6537 -0.5674
12301SOL     OW38909   7.810  10.391   2.204 -0.5367 -0.4044 -0.0392
12301SOL    HW138910   7.721  10.422   2.189 -0.8949 -1.5535 -0.3588
12301SOL    HW238911   7.800  10.316   2.263 -0.0903 -2.3483 -2.2872
12302SOL     OW38912  10.456  10.237  10.713 -1.0311  0.5610 -0.5498
12302SOL    HW138913  10.538  10.202  10.678 -0.7792 -0.8862  1.3698
12302SOL    HW238914  10.388  10.180  10.677 -0.9355  0.1354 -0.0624
12303SOL     OW38915  10.775   6.843   4.969 -0.7481  0.2153  0.1170
12303SOL    HW138916  10.726   6.795   4.903  1.3573 -0.1024 -1.2967
12303SOL    HW238917  10.785   6.931   4.933  0.8086 -0.0861 -0.2599
12304SOL     OW38918   9.899   6.701   8.928  0.1808  0.1236 -0.0619
12304SOL    HW138919   9.869   6.751   8.852  0.7169  0.0055 -0.3590
12304SOL    HW238920   9.820   6.661   8.964 -0.0557  0.0466 -0.6592
12305SOL     OW38921   0.978   4.016   7.500  0.0581  0.4017  0.2957
12305SOL    HW138922   1.004   4.080   7.434 -1.3164  1.0553  0.3535
12305SOL    HW238923   0.996   4.060   7.583 -0.5461  0.5995  0.3333
12306SOL     OW38924   0.405   3.533   1.929 -0.3025 -0.7639 -0.5669
12306SOL    HW138925   0.451   3.456   1.895 -1.3072 -1.2871 -0.7769
12306SOL    HW238926   0.407   3.522   2.024 -1.0807 -1.4516 -0.6151
12307SOL     OW38927  10.425   7.079   0.038 -0.3685  0.8426 -0.7068
12307SOL    HW138928  10.443   7.127   0.119 -1.4542  3.3924 -1.8776
12307SOL    HW238929  10.416   6.988   0.066 -0.1059  1.5357  1.9294
12308SOL     OW38930   1.681   4.550  10.498 -0.8928 -0.2672 -0.0019
12308SOL    HW138931   1.687   4.536  10.403  1.5596 -2.4532  0.3590
12308SOL    HW238932   1.595   4.514  10.522 -0.3331 -2.5069 -1.0644
12309SOL     OW38933   4.053   4.743   6.547  0.4792 -0.0339 -0.4135
12309SOL    HW138934   4.040   4.785   6.462  0.6807  2.3653  0.6488
12309SOL    HW238935   3.966   4.739   6.586  0.4464 -0.7097 -0.5622
12310SOL     OW38936   0.006   2.833   5.236 -0.2085  0.3492  0.2447
12310SOL    HW138937   0.071   2.895   5.272  1.6401 -0.7008 -1.1243
12310SOL    HW238938  -0.046   2.886   5.176 -1.1356  1.3658  1.8576
12311SOL     OW38939   6.997   5.498   3.537 -1.1272 -0.3302 -0.1087
12311SOL    HW138940   6.989   5.532   3.626 -0.8705  0.5365 -0.4142
12311SOL    HW238941   6.932   5.427   3.533  0.7104 -2.2544  1.6238
12312SOL     OW38942   9.243  10.445   4.072  0.2520  0.8519 -0.4586
12312SOL    HW138943   9.319  10.493   4.038  1.5066  0.2315  1.3173
12312SOL    HW238944   9.270  10.353   4.071 -0.4507  0.6259  0.2163
12313SOL     OW38945   9.516   6.782   6.733  0.2655  0.2381 -0.3522
12313SOL    HW138946   9.455   6.720   6.772  0.7568  0.2541  0.4613
12313SOL    HW238947   9.592   6.729   6.708  0.8774  0.5574  0.7582
12314SOL     OW38948   4.755   2.597   7.023  0.5190  0.0464  0.0013
12314SOL    HW138949   4.720   2.585   6.935  2.4126  0.3512 -0.8346
12314SOL    HW238950   4.766   2.508   7.056  2.7040 -0.2574 -1.3274
12315SOL     OW38951   1.279   5.582   2.847  0.1699  0.1736  0.0030
12315SOL    HW138952   1.344   5.550   2.910  0.9452  0.1737 -0.7747
12315SOL    HW238953   1.254   5.505   2.797 -1.2244 -0.0253  0.9764
12316SOL     OW38954   6.876   1.846   2.016  0.5628  0.1132 -0.2179
12316SOL    HW138955   6.937   1.861   1.943  1.2610  0.8823  0.4843
12316SOL    HW238956   6.823   1.772   1.989  1.6766 -0.4410 -0.9575
12317SOL     OW38957   9.446  10.643   4.024  0.0038  0.1666  0.1555
12317SOL    HW138958   9.539  10.623   4.014  0.3039  2.3973 -3.1871
12317SOL    HW238959   9.443  10.739   4.024 -2.2562  0.1582  1.4581
12318SOL     OW38960  10.705   5.409   5.274 -0.4257  0.1760  0.2387
12318SOL    HW138961  10.796   5.384   5.284 -0.1755 -1.0284 -3.5299
12318SOL    HW238962  10.708   5.497   5.237 -0.8895  0.7234  1.4516
12319SOL     OW38963   7.508  10.174   2.261 -0.0296 -0.1563  0.3586
12319SOL    HW138964   7.502  10.268   2.245 -0.0152  0.1537  1.9801
12319SOL    HW238965   7.435  10.136   2.213  0.3964  0.5820 -0.9205
12320SOL     OW38966   8.036   1.243   2.337  0.0314 -0.3921 -0.0155
12320SOL    HW138967   8.131   1.255   2.343 -0.0567 -0.0434  0.7021
12320SOL    HW238968   8.025   1.173   2.272  0.6828  1.2031 -1.9430
12321SOL     OW38969   4.920  11.086   9.141 -0.2035 -0.1358 -0.3940
12321SOL    HW138970   4.850  11.143   9.109 -0.2444 -1.3736 -2.6476
12321SOL    HW238971   4.927  11.108   9.234 -4.0340 -0.4245  0.1277
12322SOL     OW38972  10.072   6.574   9.328  0.0240 -0.5374  0.0595
12322SOL    HW138973  10.153   6.530   9.357  1.7840  1.5883 -1.3446
12322SOL    HW238974  10.063   6.549   9.237 -0.8004 -0.5618  0.1430
12323SOL     OW38975   0.377   5.351  10.460 -0.3710  0.2958 -0.6094
12323SOL    HW138976   0.370   5.365  10.555 -0.6508  0.7383 -0.6949
12323SOL    HW238977   0.366   5.437  10.422 -0.0656  0.1447 -1.0420
12324SOL     OW38978   2.463  10.786   7.577  0.5474  0.3184  0.6409
12324SOL    HW138979   2.477  10.699   7.540  0.7897 -0.2433  2.0091
12324SOL    HW238980   2.537  10.800   7.636 -0.9994  0.1721  2.7263
12325SOL     OW38981   1.558   7.791   9.961 -0.1871 -0.0623  0.5353
12325SOL    HW138982   1.468   7.766   9.979 -1.1888  2.1382 -0.8538
12325SOL    HW238983   1.570   7.872  10.011 -0.1743  1.4482 -1.7561
12326SOL     OW38984   4.995   3.089   4.830  0.0477 -0.4307  0.0936
12326SOL    HW138985   5.019   3.008   4.875 -2.5546 -1.4463 -0.1729
12326SOL    HW238986   4.965   3.148   4.900  0.9182 -0.0619  0.1721
12327SOL     OW38987   0.732  10.238   0.854  0.4068 -0.0675 -0.5149
12327SOL    HW138988   0.727  10.163   0.912 -1.8297  0.8907  0.6901
12327SOL    HW238989   0.825  10.252   0.840  1.1365 -0.2571  3.0656
12328SOL     OW38990   0.027   0.315   2.804 -0.1311 -0.3969 -0.4020
12328SOL    HW138991  -0.015   0.263   2.735  2.2079 -2.6310 -0.2894
12328SOL    HW238992   0.024   0.260   2.881  0.5747  0.5344  0.3178
12329SOL     OW38993  10.289   2.775   9.638 -0.0110 -0.4377 -0.5058
12329SOL    HW138994  10.199   2.804   9.655 -0.7398 -1.9515 -1.5742
12329SOL    HW238995  10.321   2.832   9.569  0.5436  1.2811  1.0795
12330SOL     OW38996   5.867   9.642   0.596  0.2323  0.4782 -0.0152
12330SOL    HW138997   5.868   9.614   0.505  0.3912 -0.0022  0.1307
12330SOL    HW238998   5.873   9.738   0.592  0.5943  0.4379 -0.4979
12331SOL     OW38999   3.767   3.258   6.700 -0.2708  0.6359  0.9146
12331SOL    HW139000   3.772   3.348   6.733  1.0096  1.0782 -0.3951
12331SOL    HW239001   3.789   3.266   6.607 -0.6042 -0.9848  0.6801
12332SOL     OW39002   9.667   5.501   6.577  0.6093  0.1629 -0.8985
12332SOL    HW139003   9.687   5.511   6.484  0.5689 -0.1842 -0.9437
12332SOL    HW239004   9.720   5.427   6.605 -0.0939 -0.3292 -0.8610
12333SOL     OW39005   1.360  10.938   9.079 -0.0939 -0.4393  0.3576
12333SOL    HW139006   1.429  10.927   9.013 -0.4601 -2.8331  0.2499
12333SOL    HW239007   1.368  11.028   9.109  0.8385  0.3827 -2.1288
12334SOL     OW39008   0.776   7.706   8.266 -0.2053  0.0022 -0.3404
12334SOL    HW139009   0.740   7.733   8.351 -0.9494 -0.3305 -0.5397
12334SOL    HW239010   0.709   7.733   8.202  0.6861  0.9279 -0.9098
12335SOL     OW39011   9.246   3.497  10.725 -0.0520 -0.6353 -0.2926
12335SOL    HW139012   9.161   3.457  10.740  0.2477 -0.7681  1.1685
12335SOL    HW239013   9.249   3.571  10.786  0.2519  0.3313 -1.4446
12336SOL     OW39014   1.084   7.830   1.200 -0.4212  0.0702 -0.1107
12336SOL    HW139015   1.062   7.790   1.116  2.7576 -0.2221 -0.9459
12336SOL    HW239016   1.089   7.756   1.261 -0.2516 -0.0483 -0.2683
12337SOL     OW39017   7.240   7.572   8.788 -0.7936  0.1706  0.4016
12337SOL    HW139018   7.279   7.656   8.764 -0.1608 -0.1446  0.3076
12337SOL    HW239019   7.162   7.596   8.837 -1.0559  0.8148 -0.3066
12338SOL     OW39020   1.061   3.475   1.464 -0.0840  0.1775 -1.0714
12338SOL    HW139021   1.134   3.465   1.403  2.0797  2.2149  0.9651
12338SOL    HW239022   1.034   3.566   1.454  1.0228  0.8854  1.6137
12339SOL     OW39023   1.198   0.605   1.026  0.6766  0.0828  0.2888
12339SOL    HW139024   1.197   0.539   1.096  1.4544 -0.8403 -0.5406
12339SOL    HW239025   1.110   0.642   1.028  0.0918 -1.2311  0.5509
12340SOL     OW39026   5.168   2.598  11.100 -0.0952  0.5267  1.0717
12340SOL    HW139027   5.158   2.595  11.195  0.9173  2.2013  1.2755
12340SOL    HW239028   5.245   2.545  11.081 -1.1096 -0.9953  0.9825
12341SOL     OW39029   4.210  10.898   0.364  0.4237  0.2196  0.3590
12341SOL    HW139030   4.241  10.820   0.318  1.0366  0.9611 -0.5309
12341SOL    HW239031   4.193  10.961   0.294 -2.0730  0.2352  0.8862
12342SOL     OW39032   3.428  10.603   9.586 -0.5468 -0.3201 -0.0974
12342SOL    HW139033   3.447  10.615   9.679  1.1103 -0.1979 -0.4190
12342SOL    HW239034   3.368  10.674   9.564 -1.5098 -0.7542  1.0081
12343SOL     OW39035  10.948   4.172   3.246 -0.2784 -0.1704  0.4004
12343SOL    HW139036  10.892   4.239   3.207  0.1226 -0.2233 -0.2783
12343SOL    HW239037  10.899   4.142   3.323 -0.4561  0.8873  0.7077
12344SOL     OW39038   0.044   3.932   1.089  0.2415  0.3249  0.0763
12344SOL    HW139039   0.060   4.013   1.040  1.1009  0.4533  0.5516
12344SOL    HW239040   0.055   3.862   1.025  1.2811  0.4944  0.0524
12345SOL     OW39041   9.888  10.092   0.769 -0.0069 -0.2223 -0.1098
12345SOL    HW139042   9.890  10.182   0.800  1.1425 -0.7440  1.5470
12345SOL    HW239043   9.945  10.091   0.692 -1.1243  0.6972 -0.9748
12346SOL     OW39044   2.882   8.274   1.798  0.4697 -0.1850  0.3251
12346SOL    HW139045   2.812   8.325   1.755 -0.2340 -0.6572  0.8875
12346SOL    HW239046   2.963   8.311   1.763 -0.0605  0.3040 -0.4275
12347SOL     OW39047   9.226   5.457   0.364  0.3346  0.0127 -0.1891
12347SOL    HW139048   9.215   5.496   0.278 -1.4819  0.9501  0.4129
12347SOL    HW239049   9.141   5.469   0.407  0.3775 -2.6624  0.8502
12348SOL     OW39050   0.087   7.604   4.420 -0.0438 -0.6918 -0.1386
12348SOL    HW139051   0.064   7.550   4.344  0.2735 -3.4105  1.5404
12348SOL    HW239052   0.004   7.617   4.466 -0.2150  0.8387 -0.8314
12349SOL     OW39053   2.091   5.788   6.599 -0.3750 -0.2843  0.2314
12349SOL    HW139054   2.125   5.698   6.606 -0.7815 -0.6701 -1.9949
12349SOL    HW239055   2.154   5.833   6.542 -0.1136  0.9177  1.4111
12350SOL     OW39056   4.395   7.289   5.165  0.2166 -0.3555 -0.1977
12350SOL    HW139057   4.353   7.359   5.115 -2.5057 -1.2990  0.6059
12350SOL    HW239058   4.428   7.228   5.098 -0.0545  0.2184 -0.8652
12351SOL     OW39059   9.040   1.038   6.626 -0.1427  0.2554  0.2881
12351SOL    HW139060   9.088   1.009   6.549 -0.9342 -0.9252  0.2155
12351SOL    HW239061   9.006   1.124   6.602  3.2945  1.9928  0.9598
12352SOL     OW39062   9.324   9.321  11.063 -0.3897  0.2143 -0.7896
12352SOL    HW139063   9.392   9.255  11.081 -0.5765  0.1729 -0.2487
12352SOL    HW239064   9.357   9.402  11.102 -1.4233 -0.1859  1.0137
12353SOL     OW39065   5.597   0.666   1.288  0.4582 -0.0578  0.3113
12353SOL    HW139066   5.662   0.598   1.306  1.3405  1.2242  2.3155
12353SOL    HW239067   5.520   0.639   1.338 -0.1778 -0.9543 -1.0998
12354SOL     OW39068   2.107   1.043   6.470 -0.3384 -0.1712 -0.1343
12354SOL    HW139069   2.200   1.044   6.448 -0.1158 -1.3842  0.6727
12354SOL    HW239070   2.102   1.091   6.552 -0.3631 -0.5202  0.0658
12355SOL     OW39071   3.562   4.065   1.170  0.1449  0.5436  1.0253
12355SOL    HW139072   3.611   4.125   1.113 -0.3185  0.4989  0.5780
12355SOL    HW239073   3.582   4.095   1.259  1.4124  0.2021  0.8768
12356SOL     OW39074   5.225   7.888  10.604 -0.6651  0.2084  0.1869
12356SOL    HW139075   5.290   7.941  10.559 -0.9138  0.6485  0.3445
12356SOL    HW239076   5.141   7.929  10.583 -1.0682 -1.2315 -1.2916
12357SOL     OW39077   7.155   7.793   5.475 -0.0034  0.1091 -0.0536
12357SOL    HW139078   7.115   7.802   5.388 -0.1017 -1.1798 -0.1608
12357SOL    HW239079   7.083   7.806   5.536 -0.3461 -0.9687 -0.2169
12358SOL     OW39080   2.886   2.564   9.508  0.1713  0.5356 -0.1710
12358SOL    HW139081   2.868   2.472   9.492 -0.6079  0.5235  0.7106
12358SOL    HW239082   2.800   2.606   9.505  0.2274  0.8463  1.8079
12359SOL     OW39083  10.907   2.223   0.661 -0.7482  0.0302 -0.2705
12359SOL    HW139084  10.890   2.138   0.620 -0.8989 -0.6719  1.1889
12359SOL    HW239085  10.823   2.268   0.660 -0.6503  0.2183 -1.1168
12360SOL     OW39086   3.256  10.935   1.422  1.4620 -1.0843  0.0293
12360SOL    HW139087   3.200  10.857   1.419 -1.7403  0.8917  2.1457
12360SOL    HW239088   3.326  10.913   1.483 -0.8247 -1.6478  2.6667
12361SOL     OW39089  11.048   5.248   2.301  0.2879 -0.1500  0.1932
12361SOL    HW139090  11.054   5.237   2.396 -3.5821 -1.0103  0.4893
12361SOL    HW239091  11.053   5.159   2.267 -0.2999 -0.0251 -0.2209
12362SOL     OW39092  10.043   9.528   9.833  0.5946  0.5510 -0.4803
12362SOL    HW139093  10.138   9.535   9.832  0.6371  1.1659  1.8388
12362SOL    HW239094  10.025   9.450   9.886 -0.1721  1.1117  0.1213
12363SOL     OW39095  10.597   4.269   2.039 -0.5724 -0.1183 -0.2049
12363SOL    HW139096  10.653   4.277   2.116 -0.4335  1.2655 -0.4183
12363SOL    HW239097  10.556   4.355   2.031 -0.7905 -0.3258 -1.5169
12364SOL     OW39098  10.848   5.193   0.174 -0.3892 -0.5923 -0.5851
12364SOL    HW139099  10.772   5.189   0.231 -0.3439 -1.1007 -0.5567
12364SOL    HW239100  10.921   5.212   0.233 -0.7835  2.2031 -0.8782
12365SOL     OW39101   8.237   7.822   9.802 -0.2494 -0.0914 -0.3226
12365SOL    HW139102   8.302   7.799   9.736 -0.1068 -0.9431  0.0952
12365SOL    HW239103   8.252   7.759   9.873 -2.9003 -1.7404 -1.0872
12366SOL     OW39104  10.599   1.401   5.718 -0.2776 -0.1103  0.0851
12366SOL    HW139105  10.561   1.474   5.767 -0.8966  0.4015 -1.1041
12366SOL    HW239106  10.555   1.324   5.753  1.8644 -0.2278  2.8102
12367SOL     OW39107   7.070   7.175   2.616  0.8345 -0.6630 -0.4285
12367SOL    HW139108   6.999   7.215   2.665  1.7030  0.3210  0.0706
12367SOL    HW239109   7.115   7.248   2.574  2.4797 -1.0632  0.5257
12368SOL     OW39110   0.205   0.437   5.416 -0.1962 -0.2252  0.3275
12368SOL    HW139111   0.195   0.493   5.340  0.0839 -0.2450  0.2736
12368SOL    HW239112   0.207   0.497   5.491 -0.4725 -0.2064  0.3196
12369SOL     OW39113   8.236   9.117  10.725  0.4407  0.4286  0.0771
12369SOL    HW139114   8.180   9.194  10.723 -2.8647 -1.8011  0.0165
12369SOL    HW239115   8.313   9.142  10.673 -2.0121  2.6151 -2.8929
12370SOL     OW39116   6.035   4.449   8.542 -0.0715  0.0691  0.2432
12370SOL    HW139117   5.958   4.449   8.484  0.4664 -1.2351 -0.5025
12370SOL    HW239118   6.080   4.367   8.523  1.2530  0.5777  1.0260
12371SOL     OW39119  10.369   9.068   4.274 -0.4763 -0.2816 -0.2979
12371SOL    HW139120  10.421   9.051   4.196  0.6169 -2.0296  0.7469
12371SOL    HW239121  10.375   8.987   4.325 -1.7747  0.5421  1.2573
12372SOL     OW39122   3.182   6.718   4.361  0.2453 -0.1300  0.3963
12372SOL    HW139123   3.152   6.650   4.421 -0.5274 -0.0546  0.1102
12372SOL    HW239124   3.212   6.671   4.283  2.6507 -0.3247  1.3811
12373SOL     OW39125   0.865   1.567   0.381  0.3061  0.1824  0.4898
12373SOL    HW139126   0.936   1.612   0.336 -0.8921  1.3533 -0.2906
12373SOL    HW239127   0.795   1.563   0.317  0.5438 -3.4882  0.2479
12374SOL     OW39128   1.214   3.956   7.757  0.2371  0.5035  0.3525
12374SOL    HW139129   1.249   3.886   7.702 -1.4910 -1.3938  1.5212
12374SOL    HW239130   1.286   3.977   7.817  1.9803  2.2775 -2.1731
12375SOL     OW39131   5.593  10.854   9.837 -0.4936 -0.5586  0.1529
12375SOL    HW139132   5.598  10.950   9.835 -1.0210 -0.4978  1.0426
12375SOL    HW239133   5.591  10.828   9.745  0.6175  0.2231 -0.1104
12376SOL     OW39134  10.859  10.217  10.419 -0.5479  0.0607 -0.1592
12376SOL    HW139135  10.869  10.267  10.338 -1.9951 -0.4300 -0.6747
12376SOL    HW239136  10.797  10.268  10.471 -0.5250 -0.2160  0.1445
12377SOL     OW39137   9.647   7.972   4.655  0.1961 -0.2628  0.5957
12377SOL    HW139138   9.683   7.968   4.743  0.3323  2.5786  0.7619
12377SOL    HW239139   9.659   8.063   4.628 -2.0017 -0.4632 -1.4425
12378SOL     OW39140   1.724   2.114   6.418  0.2995  0.7195 -0.2685
12378SOL    HW139141   1.814   2.134   6.442  0.8055  1.5548 -2.6535
12378SOL    HW239142   1.720   2.018   6.419  1.7387  0.6009 -1.7227
12379SOL     OW39143   2.800   9.005   9.276  0.4291 -0.3792  0.0753
12379SOL    HW139144   2.846   8.927   9.305  1.0368 -0.6976 -1.6130
12379SOL    HW239145   2.793   8.995   9.181  1.4677  2.0796 -0.3469
12380SOL     OW39146   5.436   3.495   9.461 -0.3736 -0.1776  0.2875
12380SOL    HW139147   5.522   3.520   9.496 -0.4369 -0.1497  0.4263
12380SOL    HW239148   5.379   3.569   9.485 -1.0231 -1.3089  2.4406
12381SOL     OW39149   4.421   0.799   2.148 -0.3696  0.5482 -0.3057
12381SOL    HW139150   4.380   0.722   2.108  0.6500 -0.2309  0.0974
12381SOL    HW239151   4.502   0.766   2.186  0.3274  1.9156 -0.5222
12382SOL     OW39152   5.587  10.457   6.551 -0.5736  0.0197 -0.3758
12382SOL    HW139153   5.591  10.362   6.558  0.7194 -0.1944 -2.7821
12382SOL    HW239154   5.509  10.474   6.499 -0.5811  0.2525 -0.2895
12383SOL     OW39155   3.807   1.636   6.969 -0.3004  0.1839 -0.0409
12383SOL    HW139156   3.722   1.613   7.005  0.2320  0.5513  1.5447
12383SOL    HW239157   3.816   1.730   6.987  0.8079 -0.0378  0.7004
12384SOL     OW39158   5.220  10.835   6.526 -0.0729 -0.0067  0.1844
12384SOL    HW139159   5.130  10.866   6.538 -0.0648 -0.1161  0.5420
12384SOL    HW239160   5.253  10.821   6.615  0.1829 -0.3007  0.0458
12385SOL     OW39161   5.836   2.291   7.498  0.6840 -0.3199 -0.3463
12385SOL    HW139162   5.922   2.254   7.476  0.3911 -1.3913  0.2333
12385SOL    HW239163   5.812   2.343   7.422  1.7169 -0.2574 -0.6403
12386SOL     OW39164   8.796   7.940   7.502  0.2374  0.1867  0.5483
12386SOL    HW139165   8.748   7.978   7.428  2.3318  1.8201 -0.0870
12386SOL    HW239166   8.748   7.968   7.579 -1.4543 -0.7262 -0.1325
12387SOL     OW39167   1.160   4.843   2.658  0.2438  0.2839  0.0600
12387SOL    HW139168   1.184   4.923   2.706  0.3160  0.5773 -0.4587
12387SOL    HW239169   1.080   4.813   2.701  1.9103 -1.1826  2.3823
12388SOL     OW39170   5.341   2.872   1.017 -0.7234  0.1619  0.3980
12388SOL    HW139171   5.348   2.948   0.959  1.3204 -0.1874  0.0770
12388SOL    HW239172   5.352   2.908   1.105 -1.3069  0.4098  0.3709
12389SOL     OW39173   5.435   2.200   2.079  0.0008  0.9466  0.1910
12389SOL    HW139174   5.365   2.135   2.085  0.1831  0.8025  0.8646
12389SOL    HW239175   5.436   2.243   2.165 -0.1607  1.8888 -0.2650
12390SOL     OW39176   2.745  10.381   3.640  0.0177 -0.0569 -0.1561
12390SOL    HW139177   2.781  10.313   3.696  1.8084  1.5623  0.7998
12390SOL    HW239178   2.663  10.345   3.607  0.8423 -2.5944  0.3753
12391SOL     OW39179   4.369   5.076   2.591 -0.4520 -0.7486  0.4632
12391SOL    HW139180   4.425   5.099   2.664  0.9439 -0.0976 -0.7628
12391SOL    HW239181   4.406   4.994   2.557 -0.3588 -0.4373 -0.2103
12392SOL     OW39182   2.522   7.512   8.336  0.3461 -0.1115 -0.7705
12392SOL    HW139183   2.572   7.499   8.256  2.4717 -1.3051  0.6670
12392SOL    HW239184   2.569   7.580   8.384 -1.7631  1.7060 -1.1326
12393SOL     OW39185   7.811   2.033  10.955 -0.1363  0.6541  0.3008
12393SOL    HW139186   7.766   1.977  11.019  2.1768  0.3730  1.8065
12393SOL    HW239187   7.843   1.972  10.889  0.3781  0.4574  0.7153
12394SOL     OW39188  10.641   5.992   2.783  0.7392 -0.5261 -0.3875
12394SOL    HW139189  10.690   6.046   2.721  1.1235 -0.0770  0.2898
12394SOL    HW239190  10.611   6.054   2.850 -0.4936 -0.8488 -0.6257
12395SOL     OW39191   2.687   5.588   7.853 -0.3069  0.5705 -0.1308
12395SOL    HW139192   2.592   5.585   7.838 -0.2358  0.9546 -0.6622
12395SOL    HW239193   2.721   5.645   7.784  0.5330 -0.9304 -1.0011
12396SOL     OW39194   3.356   2.106   7.962  0.2952  0.6440  0.5550
12396SOL    HW139195   3.411   2.184   7.963 -1.4120  1.9227  0.3721
12396SOL    HW239196   3.359   2.076   7.872  2.9316 -1.0470  1.1225
12397SOL     OW39197   7.689   5.270   9.063 -0.2819  0.3233 -0.7776
12397SOL    HW139198   7.699   5.265   8.968 -3.0649 -1.5093 -1.0925
12397SOL    HW239199   7.762   5.218   9.097  0.3453  0.3999 -1.9471
12398SOL     OW39200   0.709   7.010   3.369 -0.7512  0.1376  0.0509
12398SOL    HW139201   0.781   7.000   3.307  0.3408 -1.2896  1.4711
12398SOL    HW239202   0.704   7.104   3.386  0.3792  0.3152 -0.5286
12399SOL     OW39203   0.562   7.433   0.299 -0.1005  0.1213  0.0199
12399SOL    HW139204   0.572   7.528   0.303 -0.8924  0.2907 -1.2205
12399SOL    HW239205   0.510   7.418   0.219  1.6620 -1.4684 -0.9173
12400SOL     OW39206   3.219  10.056  10.583  0.2563  0.5797  0.1615
12400SOL    HW139207   3.248   9.968  10.560 -0.1296  0.3862  0.4030
12400SOL    HW239208   3.153  10.078  10.517 -0.9225 -0.0161  1.1081
12401SOL     OW39209   4.416   8.509   0.952 -0.5393  0.1932  0.0847
12401SOL    HW139210   4.491   8.561   0.924 -0.6320 -0.3399 -1.2169
12401SOL    HW239211   4.431   8.494   1.045  0.6032  0.7011  0.0002
12402SOL     OW39212   4.826   8.791   0.121  0.3755  0.2115 -0.0839
12402SOL    HW139213   4.889   8.799   0.050  1.4131  1.3698  0.9214
12402SOL    HW239214   4.822   8.697   0.138 -2.0625 -0.4910 -3.4747
12403SOL     OW39215   4.928   6.170   9.610  0.6068 -0.2094 -1.0712
12403SOL    HW139216   4.982   6.146   9.684 -1.7320  2.1525  1.6576
12403SOL    HW239217   4.883   6.090   9.585  1.5933 -1.0950 -0.0731
12404SOL     OW39218   2.897   3.608   0.320  0.4055 -0.5877 -0.2397
12404SOL    HW139219   2.878   3.542   0.386 -1.0287 -0.9848 -1.0019
12404SOL    HW239220   2.811   3.645   0.297  0.7659 -0.9036 -2.3250
12405SOL     OW39221   8.946   8.595   9.421  0.1794 -0.5927 -0.3589
12405SOL    HW139222   8.886   8.651   9.471  0.2036  0.0037 -0.9916
12405SOL    HW239223   8.919   8.506   9.445 -1.9718 -0.3917 -1.7306
12406SOL     OW39224   8.384   9.931   7.334 -0.2551 -0.6683  0.1861
12406SOL    HW139225   8.315   9.881   7.290 -0.0662 -0.0508 -0.8502
12406SOL    HW239226   8.337   9.998   7.384 -0.4268  0.1265 -0.9853
12407SOL     OW39227   1.944   1.420  10.481  0.7277 -0.0661 -0.2536
12407SOL    HW139228   1.976   1.510  10.486 -1.2445  0.6652  0.1447
12407SOL    HW239229   1.875   1.416  10.547 -0.8035 -1.1898 -1.8399
12408SOL     OW39230   1.738   8.397   0.621 -1.0676  0.3414  0.8440
12408SOL    HW139231   1.672   8.448   0.668  1.0760  1.8717  2.3851
12408SOL    HW239232   1.747   8.316   0.672 -0.4636  0.9374  1.6927
12409SOL     OW39233   3.825  10.873   2.049 -0.0232  0.2378 -0.3007
12409SOL    HW139234   3.765  10.930   2.000  0.3029 -0.1820 -1.2069
12409SOL    HW239235   3.851  10.925   2.124 -2.2934  0.0895  0.6747
12410SOL     OW39236   2.354   0.714  10.701 -0.5700  0.1553  0.3793
12410SOL    HW139237   2.355   0.794  10.755 -1.6467  0.3887  0.0740
12410SOL    HW239238   2.267   0.714  10.661  0.1125 -0.1666 -1.1391
12411SOL     OW39239   3.644  10.656  10.128 -0.8326 -0.2582 -0.6173
12411SOL    HW139240   3.613  10.661  10.038 -1.3487 -0.1058 -0.4338
12411SOL    HW239241   3.730  10.697  10.127 -1.4051  0.9802 -0.7815
12412SOL     OW39242   8.172   1.964   4.238  0.0040  0.5338 -0.3194
12412SOL    HW139243   8.096   1.991   4.187  1.4720  2.1160 -1.7882
12412SOL    HW239244   8.179   1.870   4.222 -0.3708  0.7567 -2.0075
12413SOL     OW39245   7.625   9.946   8.512 -0.5983 -0.1569 -1.0167
12413SOL    HW139246   7.706   9.895   8.511  1.8716  3.1416  1.7902
12413SOL    HW239247   7.583   9.923   8.595 -0.5728  0.7604 -0.7383
12414SOL     OW39248   3.848   8.561   3.824  0.0950  0.1041  0.0180
12414SOL    HW139249   3.887   8.593   3.905 -0.4853  0.9777 -0.0351
12414SOL    HW239250   3.787   8.630   3.798 -1.0674 -0.9691 -0.1873
12415SOL     OW39251   0.776   7.263   8.675 -0.9350  0.1383 -0.3777
12415SOL    HW139252   0.751   7.354   8.662 -1.6520 -0.2115 -1.5901
12415SOL    HW239253   0.699   7.222   8.715 -0.5253  0.1040  0.4012
12416SOL     OW39254   3.900   8.741   4.048  0.1864  0.2076  0.1924
12416SOL    HW139255   3.943   8.663   4.084 -0.1276  0.9035  2.1518
12416SOL    HW239256   3.962   8.812   4.062 -0.8084  0.8816  1.3741
12417SOL     OW39257   6.722   2.797   0.641 -0.0357 -0.1787  0.1075
12417SOL    HW139258   6.709   2.723   0.583 -1.8609  0.2462 -0.0691
12417SOL    HW239259   6.637   2.841   0.644  0.5736  0.9858  1.4699
12418SOL     OW39260   1.257   7.846   5.718  0.7309 -0.6045  0.0682
12418SOL    HW139261   1.327   7.829   5.655  1.4603  0.5483  0.5522
12418SOL    HW239262   1.244   7.940   5.715 -0.4618 -0.7432  0.3696
12419SOL     OW39263   1.160   3.756   4.832 -0.7053 -0.3608  0.2957
12419SOL    HW139264   1.248   3.789   4.851 -0.7368 -0.5527  0.7680
12419SOL    HW239265   1.120   3.825   4.778 -0.6834  0.2709  1.0738
12420SOL     OW39266   1.529   6.634   9.364  0.3543  0.3650 -0.4414
12420SOL    HW139267   1.596   6.613   9.429 -0.1489  0.4033  0.0994
12420SOL    HW239268   1.564   6.602   9.282  0.9677  0.2427 -0.1332
12421SOL     OW39269   3.462   2.368   8.430  0.1759  0.1540 -0.0404
12421SOL    HW139270   3.530   2.383   8.496  1.2866 -1.0202 -0.8665
12421SOL    HW239271   3.406   2.445   8.436  2.5845  2.0925 -0.5054
12422SOL     OW39272   0.939   8.191   1.396  0.0203 -0.1569 -0.1497
12422SOL    HW139273   0.975   8.261   1.451  1.5805  1.0298 -2.5008
12422SOL    HW239274   0.882   8.237   1.334  0.5490 -1.0661 -1.3246
12423SOL     OW39275   8.532   1.743   2.200  0.6771  0.6640  0.2592
12423SOL    HW139276   8.480   1.776   2.127  1.6078 -0.0290 -0.7437
12423SOL    HW239277   8.617   1.721   2.161 -0.2737 -4.3695  0.4296
12424SOL     OW39278   2.304   3.837   9.349  0.1198 -0.1720 -0.4733
12424SOL    HW139279   2.302   3.742   9.337  0.4970 -0.1725 -0.5258
12424SOL    HW239280   2.320   3.849   9.443 -4.4119 -0.1890  0.5646
12425SOL     OW39281   0.407   6.794  10.360  0.4717  0.8912 -0.1057
12425SOL    HW139282   0.372   6.867  10.310 -1.5406  1.5053  2.0601
12425SOL    HW239283   0.332   6.758  10.407  2.0480 -0.2994  1.6624
12426SOL     OW39284   0.127   5.160   2.551 -0.1323  0.6597  0.4454
12426SOL    HW139285   0.219   5.188   2.556 -0.1279  0.7096  0.0769
12426SOL    HW239286   0.099   5.157   2.642  0.0819  1.1565  0.5319
12427SOL     OW39287   5.956   5.145   6.513  0.6511 -0.4715 -0.3453
12427SOL    HW139288   5.926   5.084   6.446 -2.7096 -1.2243  1.5994
12427SOL    HW239289   5.950   5.231   6.472 -1.5206 -0.8835 -1.0315
12428SOL     OW39290   1.708   4.742   7.765  0.1059 -0.0392 -0.0240
12428SOL    HW139291   1.748   4.658   7.787  0.7998  0.1563 -0.4947
12428SOL    HW239292   1.614   4.724   7.762  0.2576 -0.8354 -0.2860
12429SOL     OW39293   0.161   7.599   7.505  0.0090 -0.2092 -0.1743
12429SOL    HW139294   0.184   7.677   7.555 -0.4795  0.5114 -1.0302
12429SOL    HW239295   0.084   7.564   7.549  1.3693 -1.3802  1.3978
12430SOL     OW39296  10.149   2.553   6.810 -0.7952 -0.1300  0.1097
12430SOL    HW139297  10.066   2.505   6.812 -1.1568  0.4636  2.4639
12430SOL    HW239298  10.130   2.632   6.759 -0.7849 -1.3857 -1.9362
12431SOL     OW39299  10.073   5.678   5.806  0.3381  0.0021  0.1996
12431SOL    HW139300  10.086   5.695   5.713 -1.9841 -1.0102 -0.3705
12431SOL    HW239301  10.049   5.763   5.843  1.3372  0.4222 -0.0705
12432SOL     OW39302   6.775  10.862   2.116  0.4570 -0.3468  0.9498
12432SOL    HW139303   6.824  10.835   2.039 -2.9583 -2.0170 -0.8500
12432SOL    HW239304   6.813  10.812   2.188  0.6836 -2.5202 -0.5788
12433SOL     OW39305   5.171   7.079   8.707  0.2491  0.1411  0.0007
12433SOL    HW139306   5.171   7.173   8.724  0.1656  0.1767 -0.1959
12433SOL    HW239307   5.079   7.057   8.692  0.3055  0.0821 -0.2555
12434SOL     OW39308   4.863   7.569   6.055  0.9732 -0.3652  0.3147
12434SOL    HW139309   4.914   7.574   5.974  1.5617  0.5294  0.7339
12434SOL    HW239310   4.774   7.592   6.028  1.0337 -0.7069 -0.1936
12435SOL     OW39311   0.258   4.426   3.148  0.1027 -0.6274  0.2338
12435SOL    HW139312   0.211   4.347   3.176 -0.5688  0.1374  1.3779
12435SOL    HW239313   0.206   4.460   3.075 -0.6717 -0.2641  0.9284
12436SOL     OW39314   8.174   4.390   9.564 -0.5688 -0.3702 -0.5062
12436SOL    HW139315   8.155   4.296   9.553 -0.6647 -0.1876 -2.2236
12436SOL    HW239316   8.182   4.402   9.658  1.0782 -2.4465 -0.3076
12437SOL     OW39317   3.087   3.306   3.829 -0.6847 -0.1360  0.1178
12437SOL    HW139318   3.138   3.227   3.810  1.0105  0.5907  1.3541
12437SOL    HW239319   3.150   3.377   3.823 -1.7772  0.9273  0.7636
12438SOL     OW39320   5.916   3.563   9.959  0.0326  0.6471  0.3741
12438SOL    HW139321   5.834   3.565   9.909  0.7149 -0.0867 -0.8208
12438SOL    HW239322   5.920   3.475   9.996  0.3030  0.6667  0.3924
12439SOL     OW39323   7.034   9.112   2.373  0.1180 -0.4032 -0.1915
12439SOL    HW139324   7.013   9.205   2.369  0.1424 -0.4222 -0.7448
12439SOL    HW239325   7.049   9.086   2.282  0.7353 -0.8049  0.0185
12440SOL     OW39326   4.390   3.150   5.070  0.3174 -0.7204 -0.1805
12440SOL    HW139327   4.454   3.079   5.076  0.9194 -0.1508  0.3169
12440SOL    HW239328   4.443   3.229   5.059 -0.2413 -0.1190  1.2229
12441SOL     OW39329   6.513   7.220   1.698 -0.7081 -0.3561 -0.0198
12441SOL    HW139330   6.599   7.181   1.684 -1.7024 -3.0426  0.6207
12441SOL    HW239331   6.521   7.268   1.781  0.3817  0.2191 -0.4412
12442SOL     OW39332   0.374   6.221   7.369 -0.0569  0.1067 -0.4286
12442SOL    HW139333   0.305   6.242   7.432 -0.3931  0.3105 -0.8537
12442SOL    HW239334   0.414   6.305   7.346  1.1057 -0.1262  0.6625
12443SOL     OW39335   9.752   0.023   3.061 -0.1848 -0.2334  0.4251
12443SOL    HW139336   9.803   0.003   3.139  0.3729  1.2272  0.4509
12443SOL    HW239337   9.775   0.113   3.039 -1.2027 -0.2379 -0.7632
12444SOL     OW39338  11.089   8.262   9.515 -0.3232 -0.1416 -0.0217
12444SOL    HW139339  11.045   8.232   9.595  1.5269  0.7298  1.4219
12444SOL    HW239340  11.105   8.182   9.465  0.2137 -0.9817  1.4322
12445SOL     OW39341   0.566  10.465   0.521 -0.1213 -0.0041 -1.1684
12445SOL    HW139342   0.504  10.477   0.592  1.1600 -0.8639  0.1506
12445SOL    HW239343   0.512  10.441   0.446 -1.5882  1.8312 -0.7704
12446SOL     OW39344   4.884   9.414   1.915  0.4773  0.2248 -0.1336
12446SOL    HW139345   4.828   9.338   1.898 -1.0776  0.7576  2.0698
12446SOL    HW239346   4.959   9.378   1.963 -0.1612  0.0129  0.7376
12447SOL     OW39347   9.749   8.753   3.721 -0.1196  0.6909 -0.2925
12447SOL    HW139348   9.657   8.754   3.696 -0.0751  1.0468 -0.4535
12447SOL    HW239349   9.780   8.842   3.700  0.9538 -0.1781 -2.8317
12448SOL     OW39350   8.581   3.038   4.629  0.9457  1.0579  0.6438
12448SOL    HW139351   8.541   2.953   4.609  2.7528 -0.4190  2.8332
12448SOL    HW239352   8.507   3.098   4.636 -0.6540 -0.8839  1.5258
12449SOL     OW39353   1.745   8.291   7.708  0.1583  0.7984 -0.1518
12449SOL    HW139354   1.681   8.243   7.656  0.0276  1.2744 -0.4310
12449SOL    HW239355   1.721   8.273   7.799 -1.1364  1.9578 -0.2361
12450SOL     OW39356   4.807   7.906   0.551  0.1860  0.4592 -0.6017
12450SOL    HW139357   4.871   7.977   0.544  0.9937  0.0786  1.9093
12450SOL    HW239358   4.851   7.830   0.513  1.2304  0.2460  0.9413
12451SOL     OW39359   7.789   3.603   2.917 -0.3122  0.2204 -0.4346
12451SOL    HW139360   7.869   3.601   2.969  0.4364  1.6604 -1.4748
12451SOL    HW239361   7.727   3.551   2.968  1.5359 -1.8116 -0.0739
12452SOL     OW39362  10.250   5.430  10.730  0.4626 -0.0946  0.1491
12452SOL    HW139363  10.322   5.373  10.757  0.3648 -0.1943  0.2011
12452SOL    HW239364  10.221   5.394  10.647 -1.5430 -1.9553  1.5290
12453SOL     OW39365   2.576   9.925   3.797  0.0190  0.2115  0.0497
12453SOL    HW139366   2.632   9.880   3.860  0.4329 -1.7208 -1.6148
12453SOL    HW239367   2.637   9.961   3.732 -0.4555  1.5429  0.2998
12454SOL     OW39368   9.892   0.371   4.768  0.2520 -0.0223 -0.8953
12454SOL    HW139369   9.836   0.437   4.727 -0.6754 -1.7911 -2.6959
12454SOL    HW239370   9.834   0.326   4.830  0.0728 -0.8031 -1.5949
12455SOL     OW39371   5.851  10.264  10.549  0.4216  0.2486 -0.2822
12455SOL    HW139372   5.904  10.344  10.551  1.1027 -0.1763 -0.5817
12455SOL    HW239373   5.803  10.269  10.466  1.2054 -0.1001 -0.7719
12456SOL     OW39374   5.991   3.550   9.115 -0.0584 -0.6407  0.3371
12456SOL    HW139375   6.083   3.524   9.118  0.5696  1.4318  0.8150
12456SOL    HW239376   5.949   3.484   9.060  2.5332  0.5739 -3.5392
12457SOL     OW39377   7.070   6.008  10.169 -0.2424  0.0994 -0.1339
12457SOL    HW139378   7.034   6.079  10.116  1.4164  1.7544  0.8259
12457SOL    HW239379   7.142   5.973  10.116 -0.2539 -0.0264 -0.0671
12458SOL     OW39380   4.143   1.863   0.658  0.6345  0.2453  0.0759
12458SOL    HW139381   4.204   1.844   0.729 -1.1287 -0.4325  1.4973
12458SOL    HW239382   4.137   1.781   0.609 -0.6874 -0.3864  1.2237
12459SOL     OW39383   0.885   0.408   3.030  0.2866  0.2933 -0.0314
12459SOL    HW139384   0.883   0.479   3.094 -2.4141  2.1580 -1.9825
12459SOL    HW239385   0.965   0.424   2.980  0.3980  1.1656  0.4055
12460SOL     OW39386   6.187  10.586   5.253 -0.0974 -0.2522  0.1413
12460SOL    HW139387   6.142  10.660   5.212  0.0877  0.6092  1.4326
12460SOL    HW239388   6.135  10.509   5.228  0.8428 -0.0469 -2.9470
12461SOL     OW39389   0.408   4.767   1.934  0.1209 -0.0674 -0.6231
12461SOL    HW139390   0.503   4.769   1.946  0.4414  0.5715 -2.6975
12461SOL    HW239391   0.390   4.681   1.896  0.0071  0.1620 -1.0934
12462SOL     OW39392   4.587   7.498   2.258  0.4479  0.4202  0.3439
12462SOL    HW139393   4.632   7.510   2.343  0.8651  3.0054 -0.1731
12462SOL    HW239394   4.652   7.453   2.204  0.1539 -1.3271  1.3681
12463SOL     OW39395   1.643   2.653   1.206 -0.2401 -0.0671 -0.3104
12463SOL    HW139396   1.587   2.593   1.157 -1.0705 -0.1598  0.7178
12463SOL    HW239397   1.683   2.709   1.139  0.5147 -1.7008 -1.2902
12464SOL     OW39398   0.921   0.848   6.850  0.0995 -0.3423  0.1207
12464SOL    HW139399   0.881   0.848   6.937 -1.6395 -0.0369 -0.6271
12464SOL    HW239400   0.991   0.912   6.855  1.3653 -1.7638  1.8346
12465SOL     OW39401   7.959   0.019   9.290 -0.0351 -0.5748 -0.3549
12465SOL    HW139402   8.046   0.034   9.327  1.2952 -1.6974 -2.7374
12465SOL    HW239403   7.967   0.048   9.199 -3.0568  1.9552  0.0172
12466SOL     OW39404   6.835   3.600   4.670 -0.5381 -0.0436 -0.6258
12466SOL    HW139405   6.751   3.616   4.627 -0.4917  0.3295 -0.5877
12466SOL    HW239406   6.877   3.686   4.671  0.7925 -0.5971 -2.6342
12467SOL     OW39407   5.178   8.429   7.941  0.1810  0.2759 -0.2595
12467SOL    HW139408   5.189   8.378   8.021  1.4820  1.1215  0.1336
12467SOL    HW239409   5.091   8.469   7.950  0.5445  0.8261  1.0116
12468SOL     OW39410   8.239   6.328   0.522  0.4657  0.2619 -0.0348
12468SOL    HW139411   8.168   6.265   0.521  0.8927 -0.2333  0.2482
12468SOL    HW239412   8.313   6.281   0.484  1.0179  0.3096  0.9492
12469SOL     OW39413   4.911   1.356   4.694 -0.2803 -0.4814  0.2508
12469SOL    HW139414   4.943   1.273   4.659  0.8978  0.5632 -1.3303
12469SOL    HW239415   4.869   1.399   4.620 -3.1880 -0.6912  1.6671
12470SOL     OW39416   9.751   3.118   3.226  0.1173  0.0025  0.1553
12470SOL    HW139417   9.805   3.152   3.298  0.6493  1.8585 -1.0490
12470SOL    HW239418   9.708   3.196   3.190 -2.2164 -1.2134  0.0931
12471SOL     OW39419   2.036   6.370   4.368  0.1723  0.3328  0.4243
12471SOL    HW139420   2.012   6.423   4.444 -1.0244  1.7961 -0.9026
12471SOL    HW239421   2.112   6.415   4.330  0.7788 -0.4043  0.7305
12472SOL     OW39422   8.616   0.311   0.113 -0.5981  0.5760 -0.0292
12472SOL    HW139423   8.637   0.365   0.037  1.4087 -0.4272 -0.2567
12472SOL    HW239424   8.539   0.353   0.152 -3.2004 -0.1356 -3.8624
12473SOL     OW39425   8.960   6.384   0.067 -0.4948  0.0513 -0.0697
12473SOL    HW139426   8.892   6.325   0.099 -0.8481 -0.8245 -2.2488
12473SOL    HW239427   9.023   6.327   0.024 -0.3020  1.1325 -1.3029
12474SOL     OW39428   0.874   4.678  10.280 -0.0535  0.3911  0.5310
12474SOL    HW139429   0.858   4.613  10.347  2.0246 -0.5972  0.1472
12474SOL    HW239430   0.788   4.697  10.243 -0.7111 -2.1961  0.5961
12475SOL     OW39431   4.750  10.932   0.615 -0.5392 -0.3572  0.7893
12475SOL    HW139432   4.796  10.865   0.564  0.6402  1.0946 -0.1155
12475SOL    HW239433   4.657  10.914   0.599 -0.2266 -1.1704 -0.2496
12476SOL     OW39434   8.029   4.505   5.450  0.0927  0.4143  0.1163
12476SOL    HW139435   8.090   4.432   5.436  1.8301  1.6551  0.8972
12476SOL    HW239436   7.943   4.465   5.443  0.9745 -1.5398 -0.4086
12477SOL     OW39437   9.695   7.519  10.229 -0.4299 -0.0840 -0.3589
12477SOL    HW139438   9.639   7.460  10.280 -1.6596  0.8820 -0.5505
12477SOL    HW239439   9.692   7.484  10.140 -2.8771  1.3880 -0.9362
12478SOL     OW39440   5.392   4.819   2.102 -0.3155 -0.5702 -1.1394
12478SOL    HW139441   5.432   4.859   2.179 -0.8632  0.7098 -1.4758
12478SOL    HW239442   5.416   4.877   2.030 -1.9084 -0.3015 -1.5022
12479SOL     OW39443   6.660   9.548   9.546  0.0631  0.0641  0.1917
12479SOL    HW139444   6.626   9.589   9.626  0.8436  0.4118  0.3515
12479SOL    HW239445   6.596   9.479   9.526  1.1561 -1.7809  2.5631
12480SOL     OW39446   0.261   0.439   0.556  0.4671 -0.2415  0.2455
12480SOL    HW139447   0.315   0.485   0.491  0.2178  0.5749  0.5953
12480SOL    HW239448   0.186   0.498   0.570 -0.5460 -1.3610 -0.2579
12481SOL     OW39449  10.680  10.024   1.658 -0.8109 -0.2974  0.1973
12481SOL    HW139450  10.717   9.959   1.717 -0.9695 -0.0875  0.5298
12481SOL    HW239451  10.735  10.102   1.669 -1.1591 -0.0852  0.4660
12482SOL     OW39452   2.047   8.366   4.288 -0.5428  0.3642  0.0212
12482SOL    HW139453   2.033   8.353   4.195 -2.1461 -0.3055  0.3267
12482SOL    HW239454   2.121   8.426   4.293  1.1645 -1.4534 -1.6313
12483SOL     OW39455   9.614   2.040   9.451 -0.4359  0.4389 -0.2025
12483SOL    HW139456   9.700   2.028   9.491 -0.9311  1.2399  1.1768
12483SOL    HW239457   9.599   2.134   9.453 -1.0820  0.3649 -1.0214
12484SOL     OW39458   5.283   5.028   7.444  0.1590 -0.3158 -0.1853
12484SOL    HW139459   5.334   5.035   7.525  0.5458  0.2442 -0.4731
12484SOL    HW239460   5.234   4.947   7.454 -1.2439  0.6690  1.4374
12485SOL     OW39461   9.781   5.328   8.501  0.4551  0.0461 -0.0164
12485SOL    HW139462   9.761   5.317   8.595 -1.3031  2.9520  0.0743
12485SOL    HW239463   9.729   5.260   8.458  2.3058 -2.2186  1.0799
12486SOL     OW39464   9.359   6.150   5.586  0.4858  0.0319 -0.0448
12486SOL    HW139465   9.412   6.193   5.519 -0.3038  0.4781 -0.4010
12486SOL    HW239466   9.282   6.206   5.595 -1.1446 -1.8581 -1.3553
12487SOL     OW39467   2.592  10.228   9.201  0.0415  0.3229  0.0152
12487SOL    HW139468   2.655  10.163   9.231 -1.1783  0.3287  2.9256
12487SOL    HW239469   2.507  10.185   9.209 -0.5933  1.4463 -0.4721
12488SOL     OW39470   9.170   6.459   6.210 -0.1474  0.4853  0.1061
12488SOL    HW139471   9.128   6.373   6.218 -0.9775  1.0711  4.0206
12488SOL    HW239472   9.256   6.448   6.251 -1.0863  1.8805  2.6747
12489SOL     OW39473   0.553   8.847   4.245 -0.3165  0.3648 -0.4033
12489SOL    HW139474   0.625   8.827   4.306 -0.8807  1.7474  0.7436
12489SOL    HW239475   0.484   8.884   4.299 -2.9529 -3.0670 -1.0519
12490SOL     OW39476  10.422   9.417   5.840  0.0433  0.2285 -0.0049
12490SOL    HW139477  10.470   9.394   5.920 -0.9847  1.7399  1.1122
12490SOL    HW239478  10.332   9.391   5.858  0.1403 -1.3352 -1.5447
12491SOL     OW39479   2.800   5.440   5.113 -0.4349  0.6074 -0.0687
12491SOL    HW139480   2.833   5.360   5.153 -3.1635 -0.5695  0.0903
12491SOL    HW239481   2.720   5.412   5.067  0.2568  2.6786 -2.7612
12492SOL     OW39482   3.665   8.966  10.621  0.1622 -0.1707  0.1962
12492SOL    HW139483   3.598   8.957  10.553  0.2183  0.5667  0.0346
12492SOL    HW239484   3.745   8.933  10.581  0.2945  0.6840 -0.2610
12493SOL     OW39485   2.339   6.862   1.315 -0.7777  0.3001  0.1092
12493SOL    HW139486   2.352   6.842   1.222 -1.6488  0.4450 -0.0507
12493SOL    HW239487   2.380   6.788   1.361  1.5159  1.2168 -0.2985
12494SOL     OW39488   1.083   7.263   9.961  0.3495 -0.1952 -0.1690
12494SOL    HW139489   1.005   7.235   9.913  0.3780 -1.4522  0.4794
12494SOL    HW239490   1.156   7.249   9.900  0.2781 -0.8712 -0.1004
12495SOL     OW39491   5.438   4.372   4.022 -0.4515 -0.3247  0.5486
12495SOL    HW139492   5.499   4.310   3.983  0.9647  1.2957  0.0820
12495SOL    HW239493   5.357   4.361   3.971  0.0190 -1.2322 -0.0208
12496SOL     OW39494   2.904   0.477   6.438  0.1547 -0.4061  0.6374
12496SOL    HW139495   2.882   0.392   6.475  0.0554 -0.6404  0.0606
12496SOL    HW239496   2.904   0.537   6.512 -2.0813 -0.4553  0.7698
12497SOL     OW39497   0.160   8.679   0.113  0.1601  0.1364 -0.5137
12497SOL    HW139498   0.121   8.671   0.027  1.4065 -0.3869 -1.0557
12497SOL    HW239499   0.087   8.669   0.174 -0.2596 -3.4091 -1.3910
12498SOL     OW39500   4.762   1.998  10.412  0.4727 -0.0555 -0.1371
12498SOL    HW139501   4.748   2.064  10.344  0.9253 -0.0502 -0.2249
12498SOL    HW239502   4.849   2.017  10.447  0.9152 -1.0358 -0.6551
12499SOL     OW39503   1.511   6.523   8.838  0.3183  0.0256  0.4400
12499SOL    HW139504   1.571   6.585   8.796  0.4910  0.5913  1.4913
12499SOL    HW239505   1.544   6.437   8.812  0.2910  0.3505 -0.7450
12500SOL     OW39506   1.639   1.768   6.227  0.7326 -0.1555 -0.5851
12500SOL    HW139507   1.567   1.745   6.168 -0.0423  0.8402 -0.0764
12500SOL    HW239508   1.660   1.686   6.272 -1.5166 -0.0943  0.7526
12501SOL     OW39509   1.330   0.956   9.749  0.4576 -0.2839 -0.3267
12501SOL    HW139510   1.347   1.049   9.730  0.9017 -0.3257 -0.1332
12501SOL    HW239511   1.263   0.931   9.685  1.3693 -0.2110 -1.3262
12502SOL     OW39512  10.036   2.123   7.835 -0.0287 -0.1706  0.0819
12502SOL    HW139513  10.028   2.030   7.814 -0.3858 -0.3700  1.0453
12502SOL    HW239514   9.958   2.142   7.886  0.9197  0.2036  1.4579
12503SOL     OW39515   4.549   4.872   2.488 -0.2238 -0.4392  0.0250
12503SOL    HW139516   4.619   4.822   2.530  0.3145 -0.8620 -1.2985
12503SOL    HW239517   4.595   4.934   2.430 -0.9258  0.2761  0.2035
12504SOL     OW39518  10.231   9.245   0.923 -0.4543 -0.2113 -0.4585
12504SOL    HW139519  10.321   9.216   0.910 -1.6247 -3.6663 -2.1608
12504SOL    HW239520  10.227   9.330   0.880  2.5643  1.4729  2.1914
12505SOL     OW39521   0.963   1.829   5.366  0.3546 -0.7863  0.6561
12505SOL    HW139522   1.055   1.803   5.372 -0.0264 -2.1873  0.8873
12505SOL    HW239523   0.964   1.924   5.372  1.7928 -0.7773  0.5844
12506SOL     OW39524   6.182   8.699  11.064 -0.0829  0.2640  0.7499
12506SOL    HW139525   6.154   8.608  11.071 -1.5848  0.5722 -0.7246
12506SOL    HW239526   6.128   8.746  11.126 -0.7797  0.4306  0.0296
12507SOL     OW39527   1.947   0.683   7.556 -0.0873  0.3752 -0.0954
12507SOL    HW139528   1.888   0.728   7.616 -0.2709  0.3786 -0.2768
12507SOL    HW239529   2.032   0.685   7.600  0.0711  1.5391 -0.4181
12508SOL     OW39530   2.820   3.942   7.536 -0.1914  0.1626  0.2811
12508SOL    HW139531   2.808   4.015   7.475  1.8567 -0.2975 -0.7584
12508SOL    HW239532   2.753   3.878   7.512 -0.7452  0.8734 -0.0806
12509SOL     OW39533   2.275   7.088   2.840  0.0076 -0.7387  0.0608
12509SOL    HW139534   2.370   7.082   2.848 -0.1041 -0.7587  1.6661
12509SOL    HW239535   2.261   7.127   2.753  1.5649  1.5559  0.7216
12510SOL     OW39536   5.521   5.814   2.942 -0.2843  0.1444 -0.0913
12510SOL    HW139537   5.519   5.907   2.920  1.1785  0.1912 -0.0999
12510SOL    HW239538   5.583   5.807   3.015 -0.4157 -0.8074 -0.0543
12511SOL     OW39539   9.930   8.631   5.508 -0.3270  0.1573  0.4563
12511SOL    HW139540   9.939   8.722   5.480  1.2900  0.1668  0.9115
12511SOL    HW239541   9.967   8.580   5.436  1.8759  0.0716  1.5716
12512SOL     OW39542   8.205   7.769   2.169  0.2522 -0.1991 -0.1197
12512SOL    HW139543   8.284   7.810   2.135  0.3499  1.1352  1.6072
12512SOL    HW239544   8.142   7.774   2.096  1.4750 -0.5479 -1.2340
12513SOL     OW39545   4.660   8.953   6.061 -0.5373 -0.5401 -0.0628
12513SOL    HW139546   4.703   8.974   5.977 -0.5007 -3.3312 -0.8472
12513SOL    HW239547   4.567   8.957   6.042 -0.5636  0.3617  0.2157
12514SOL     OW39548   9.954   0.048   1.908  0.5093  0.3464  0.6379
12514SOL    HW139549  10.010   0.121   1.881  1.0098  0.8249  2.7753
12514SOL    HW239550   9.867   0.072   1.875  0.9113  1.2898  0.2184
12515SOL     OW39551   2.431   7.319   3.073  0.0681  0.1854 -0.4726
12515SOL    HW139552   2.369   7.246   3.085 -0.6896  0.9063  0.1641
12515SOL    HW239553   2.374   7.395   3.060  0.8177  0.8788  0.2119
12516SOL     OW39554   2.507   9.645   7.308  0.2479  0.4575 -0.2799
12516SOL    HW139555   2.600   9.623   7.298  0.2465  1.0925 -1.9050
12516SOL    HW239556   2.499   9.734   7.275 -1.3069 -0.3729 -2.3671
12517SOL     OW39557   4.937   6.090   2.123  0.7443  0.2035 -0.1327
12517SOL    HW139558   4.913   6.172   2.081  1.8490  1.7625  2.1321
12517SOL    HW239559   4.970   6.115   2.209  0.0390 -2.7001  1.1064
12518SOL     OW39560   7.603  10.032   8.837  0.1590  0.9005  0.3422
12518SOL    HW139561   7.651  10.096   8.785  0.6739  0.7854  0.6614
12518SOL    HW239562   7.552  10.084   8.899  1.2880  1.0052  1.2211
12519SOL     OW39563   9.841   7.487   5.075 -0.4893  0.0453 -0.3091
12519SOL    HW139564   9.796   7.422   5.128  0.1205  0.2724  0.5163
12519SOL    HW239565   9.925   7.501   5.121 -0.5457  1.2863 -0.5492
12520SOL     OW39566   3.024   0.203   1.235 -0.0593  0.0662 -0.2326
12520SOL    HW139567   2.942   0.197   1.187  1.1175 -3.5538 -2.1954
12520SOL    HW239568   3.009   0.151   1.314  0.0186  0.3144 -0.0550
12521SOL     OW39569   3.230   8.686   2.657 -0.3841 -0.0794 -0.9685
12521SOL    HW139570   3.243   8.649   2.744 -0.0339 -0.6440 -1.2561
12521SOL    HW239571   3.160   8.632   2.619 -0.5314  0.1607 -1.0390
12522SOL     OW39572   7.582   6.996   7.931 -0.5054 -0.3386  0.2369
12522SOL    HW139573   7.496   6.956   7.923 -0.9125  0.6733 -0.6486
12522SOL    HW239574   7.642   6.931   7.893 -0.9141 -0.8712  0.4856
12523SOL     OW39575  11.093   9.572   1.188  0.5211  0.3190  0.1815
12523SOL    HW139576  11.009   9.595   1.147 -0.0526  0.3211  1.3148
12523SOL    HW239577  11.079   9.484   1.222  2.0994 -1.1048 -2.4952
12524SOL     OW39578  11.066   4.468   1.683 -0.5479  0.6786  0.2431
12524SOL    HW139579  11.140   4.464   1.623 -0.1451 -0.1619  0.7756
12524SOL    HW239580  11.081   4.397   1.745 -2.7455 -0.7240 -0.7130
12525SOL     OW39581   8.812   1.902   0.231 -0.2813 -0.2356 -0.4812
12525SOL    HW139582   8.830   1.895   0.137 -0.7211  1.3692 -0.7185
12525SOL    HW239583   8.719   1.880   0.240 -1.3134  3.2230 -1.0449
12526SOL     OW39584   7.761   2.507   1.517  0.5121  0.0382  0.1693
12526SOL    HW139585   7.697   2.437   1.531  0.7486  0.1570  2.2038
12526SOL    HW239586   7.756   2.526   1.423 -1.1470 -1.1677 -0.0381
12527SOL     OW39587   4.657   7.604   5.552  0.1079 -0.2583  0.5125
12527SOL    HW139588   4.655   7.515   5.588 -1.1700 -0.1105  0.8641
12527SOL    HW239589   4.724   7.649   5.602 -0.4373 -0.5516  1.5286
12528SOL     OW39590   0.176   5.679   8.916  0.1672  0.2231 -0.7007
12528SOL    HW139591   0.106   5.617   8.898 -3.2434  1.7957  4.8667
12528SOL    HW239592   0.150   5.759   8.871 -0.8461  0.3318  0.0479
12529SOL     OW39593   0.885   9.176   3.186 -0.2690 -1.1696 -1.1364
12529SOL    HW139594   0.807   9.181   3.240  0.7388  2.8057  0.3009
12529SOL    HW239595   0.937   9.105   3.224  0.1820  1.1409  3.0682
12530SOL     OW39596   1.611   4.645   1.136 -0.2638 -0.1256  0.0408
12530SOL    HW139597   1.578   4.566   1.095  0.4247 -0.3312 -0.1346
12530SOL    HW239598   1.659   4.690   1.067 -1.0757  0.7073 -0.0015
12531SOL     OW39599   7.796  10.977   0.511  0.4059 -0.3114  0.2832
12531SOL    HW139600   7.724  10.987   0.574 -0.5653 -2.2540 -0.4078
12531SOL    HW239601   7.765  11.019   0.431  1.0436  0.8875  0.6394
12532SOL     OW39602   4.630   3.275   2.692 -0.2381 -0.0091 -0.3617
12532SOL    HW139603   4.628   3.214   2.767  1.5503 -0.9287 -0.9836
12532SOL    HW239604   4.654   3.359   2.730  0.8606 -0.5139  0.1131
12533SOL     OW39605   6.233   8.243  10.648  0.3860  0.2734  0.1563
12533SOL    HW139606   6.275   8.160  10.630  1.2371 -0.1010  3.2828
12533SOL    HW239607   6.144   8.219  10.675  0.0439  0.5521 -0.7069
12534SOL     OW39608   3.248   6.584   0.298  0.2039  0.2210  0.0416
12534SOL    HW139609   3.303   6.612   0.225 -1.0409  0.8465 -0.6767
12534SOL    HW239610   3.228   6.492   0.279 -0.3046  0.4465 -0.5356
12535SOL     OW39611   5.274   4.710   7.405  0.0933 -0.1518 -0.3306
12535SOL    HW139612   5.346   4.756   7.363  1.5545 -2.9681 -1.2093
12535SOL    HW239613   5.256   4.636   7.346 -3.8851  0.6485 -0.4090
12536SOL     OW39614   5.854   6.098   5.484  0.5350  0.3886  0.2471
12536SOL    HW139615   5.763   6.070   5.494 -0.3194  2.8838 -0.0072
12536SOL    HW239616   5.885   6.111   5.573  0.7614 -0.6926  0.3444
12537SOL     OW39617   5.290   5.148   0.884  0.0225  0.4684  0.2143
12537SOL    HW139618   5.349   5.088   0.839 -0.2035  0.4903 -0.1076
12537SOL    HW239619   5.348   5.209   0.929  0.2641 -0.1915  0.8327
12538SOL     OW39620   0.706   5.430   8.955  0.7824 -0.0991 -0.4290
12538SOL    HW139621   0.735   5.463   8.870  0.8538  2.2522  0.4223
12538SOL    HW239622   0.783   5.439   9.011  0.2071  0.2128  0.3239
12539SOL     OW39623   0.172   8.078   8.832 -0.0284 -0.0148 -1.0195
12539SOL    HW139624   0.144   8.047   8.918  0.2965  2.3905  0.0435
12539SOL    HW239625   0.105   8.047   8.771 -1.7760  0.5342  0.5453
12540SOL     OW39626   3.675   8.174   9.865 -0.6295 -0.3705  0.3263
12540SOL    HW139627   3.719   8.219   9.937 -0.3539 -1.9600  1.1958
12540SOL    HW239628   3.591   8.147   9.901 -1.6056  1.0374 -0.7721
12541SOL     OW39629   5.556   2.840   4.255 -0.1617  0.2592  0.4691
12541SOL    HW139630   5.492   2.905   4.225  0.1769  0.8828  1.0726
12541SOL    HW239631   5.637   2.890   4.268  0.9494 -0.7918 -1.8374
12542SOL     OW39632  10.297   0.533   8.751  0.6677  0.5869  0.2306
12542SOL    HW139633  10.207   0.511   8.726  0.6260  1.2409 -0.2460
12542SOL    HW239634  10.310   0.490   8.835  0.3466 -0.5738 -0.3037
12543SOL     OW39635   8.376   1.586   4.283 -0.8395 -0.1924 -0.5995
12543SOL    HW139636   8.444   1.652   4.293 -2.2900  1.4987 -1.3988
12543SOL    HW239637   8.312   1.606   4.352 -0.3398 -2.0616  0.4654
12544SOL     OW39638   9.692  10.026   0.933 -0.2112 -0.1924 -0.3945
12544SOL    HW139639   9.756  10.043   0.863 -1.0269  1.2464 -0.8175
12544SOL    HW239640   9.738  10.050   1.013  0.7056 -1.7855 -0.3908
12545SOL     OW39641   3.335   5.454   7.153 -0.5463  0.2002 -0.7823
12545SOL    HW139642   3.399   5.478   7.220 -0.4644  1.2890 -1.2312
12545SOL    HW239643   3.264   5.518   7.165 -1.0382 -0.2921 -1.0240
12546SOL     OW39644   9.187   0.382   3.933 -0.3512  0.3379 -0.4179
12546SOL    HW139645   9.151   0.317   3.873  1.8703 -2.2083  0.8155
12546SOL    HW239646   9.223   0.450   3.875  0.4175 -1.3110 -1.9898
12547SOL     OW39647   0.825   4.951   7.419 -0.0581  0.0567 -0.2952
12547SOL    HW139648   0.776   4.897   7.482  1.3431  1.5941  2.3264
12547SOL    HW239649   0.803   5.041   7.444  1.9114  0.7310 -0.8402
12548SOL     OW39650   7.987   2.676   8.883  0.5262 -0.0803 -0.3692
12548SOL    HW139651   7.976   2.744   8.817 -1.8078 -1.4589 -1.5422
12548SOL    HW239652   8.037   2.608   8.838 -0.6096 -0.7964 -0.5921
12549SOL     OW39653   4.163   8.512   1.715 -0.1654 -0.1242  0.0654
12549SOL    HW139654   4.205   8.521   1.629  0.4744 -1.6109  0.2038
12549SOL    HW239655   4.086   8.570   1.710 -0.2748 -0.3638 -1.5981
12550SOL     OW39656   6.918   0.286   9.779 -0.0411  0.1474  0.1152
12550SOL    HW139657   6.903   0.192   9.778 -1.5840  0.3595 -1.4768
12550SOL    HW239658   6.838   0.324   9.815  0.1132  0.9105 -0.3181
12551SOL     OW39659   1.249  10.276  10.500 -0.5734  0.5975 -0.2152
12551SOL    HW139660   1.262  10.224  10.421  0.8106  0.3977  0.1203
12551SOL    HW239661   1.162  10.252  10.531  0.2263 -1.9523  0.2449
12552SOL     OW39662   3.498   2.711   7.662 -0.4361 -0.1414 -0.3581
12552SOL    HW139663   3.512   2.791   7.712  1.1234 -1.1976  0.9921
12552SOL    HW239664   3.461   2.741   7.579 -0.4194  1.9140  0.3196
12553SOL     OW39665   4.263   6.286   8.276  0.4765  0.3050 -0.7970
12553SOL    HW139666   4.286   6.307   8.367 -0.2898  2.6568 -1.0709
12553SOL    HW239667   4.167   6.287   8.275  0.3713 -2.3619 -1.1355
12554SOL     OW39668   2.402   9.324   0.166  0.4969  0.9717  0.5759
12554SOL    HW139669   2.447   9.291   0.244  1.2231  1.2357  0.2805
12554SOL    HW239670   2.472   9.336   0.102  0.1632  2.4568  0.4612
12555SOL     OW39671   7.718   5.673   6.339 -0.2216 -0.5916  0.2690
12555SOL    HW139672   7.784   5.605   6.354  1.6565  0.4543 -2.5160
12555SOL    HW239673   7.636   5.624   6.327  0.4682 -2.0941  1.3548
12556SOL     OW39674   8.571   4.400   5.278  0.1700  0.4731  0.0581
12556SOL    HW139675   8.635   4.468   5.298  1.0842  0.2039 -1.7918
12556SOL    HW239676   8.486   4.444   5.283  0.5489  1.0719  1.5337
12557SOL     OW39677   3.866  11.023   7.711  0.0047  0.6798  0.1755
12557SOL    HW139678   3.818  11.059   7.786 -0.2348 -0.3528  0.5321
12557SOL    HW239679   3.850  11.085   7.640 -1.5044  0.5761  0.4064
12558SOL     OW39680   2.715   9.238   4.634  0.2274  0.0250 -0.5347
12558SOL    HW139681   2.638   9.250   4.690  2.4484  1.4284  2.5064
12558SOL    HW239682   2.706   9.305   4.566 -1.7248 -0.5600 -0.9082
12559SOL     OW39683   0.850   4.220   9.318 -0.0570  1.0603 -0.3068
12559SOL    HW139684   0.886   4.183   9.238 -2.3783  0.4987 -1.1816
12559SOL    HW239685   0.761   4.184   9.323  0.7322 -0.8303  3.8080
12560SOL     OW39686   7.523   5.767   3.124 -0.4784  0.4366  0.4131
12560SOL    HW139687   7.598   5.801   3.076 -0.9372  0.3038 -0.4284
12560SOL    HW239688   7.469   5.844   3.142 -0.6923  0.3905 -0.0032
12561SOL     OW39689   5.681   8.827   4.320  0.2647  0.4830 -0.3622
12561SOL    HW139690   5.610   8.883   4.353 -0.3905 -1.2602  1.3278
12561SOL    HW239691   5.760   8.861   4.362 -0.5350 -1.6681  3.3204
12562SOL     OW39692   0.781   5.241   4.817 -0.5675 -0.1377  0.1494
12562SOL    HW139693   0.765   5.153   4.783  0.3642  0.1256 -1.0786
12562SOL    HW239694   0.865   5.235   4.862 -0.2568  0.2026 -0.3599
12563SOL     OW39695   2.221   9.069   0.863 -0.2809  0.2262 -0.5356
12563SOL    HW139696   2.181   9.145   0.904  1.7311  2.8148 -3.0078
12563SOL    HW239697   2.275   9.030   0.932 -2.6030 -0.0994  1.2422
12564SOL     OW39698   4.744   0.150   1.952 -0.5437  0.4949 -0.2977
12564SOL    HW139699   4.746   0.151   1.857  0.8833 -0.7325 -0.3122
12564SOL    HW239700   4.652   0.134   1.974 -0.4980 -1.9603 -1.5512
12565SOL     OW39701   1.998   4.467   9.131  0.4818  0.7271  0.5513
12565SOL    HW139702   2.079   4.458   9.080  2.0451  0.6595  2.9157
12565SOL    HW239703   1.989   4.561   9.146 -0.0251  0.7552  0.1044
12566SOL     OW39704   3.949  10.489   5.871  0.0551  0.4922 -0.2046
12566SOL    HW139705   3.974  10.398   5.860 -0.8824  0.3692 -1.6025
12566SOL    HW239706   3.860  10.486   5.905  0.9547  0.9217  2.4036
12567SOL     OW39707   7.012   5.284   9.970  0.1258 -0.2287 -0.0093
12567SOL    HW139708   7.039   5.361   9.919  0.4213 -1.3481 -1.6147
12567SOL    HW239709   6.941   5.315  10.026 -0.7963  0.8641 -1.7275
12568SOL     OW39710   1.247   8.774   7.249 -0.0290 -0.1044 -0.7515
12568SOL    HW139711   1.202   8.832   7.310  1.1263 -0.4543  0.4731
12568SOL    HW239712   1.300   8.717   7.304 -1.0331 -2.3047 -1.9203
12569SOL     OW39713   2.302   3.558   0.359 -0.0610  1.2046  0.1919
12569SOL    HW139714   2.263   3.555   0.446  0.9353  0.9928  0.6333
12569SOL    HW239715   2.304   3.652   0.337  0.0808  1.2943  0.5763
12570SOL     OW39716   5.620   0.460   4.658  0.4589  0.1979 -0.3582
12570SOL    HW139717   5.708   0.443   4.691  0.5646 -1.0341 -1.1894
12570SOL    HW239718   5.564   0.455   4.736  0.9618 -0.4635 -0.0222
12571SOL     OW39719   1.644   8.475  10.617 -0.2528 -0.5065 -0.0506
12571SOL    HW139720   1.688   8.439  10.693  0.4778 -0.3807 -0.4100
12571SOL    HW239721   1.678   8.424  10.543  0.2585  0.4333 -0.4769
12572SOL     OW39722   9.766  10.067   6.257 -0.3947  0.0068 -0.2717
12572SOL    HW139723   9.834  10.134   6.258 -1.6310  1.3682  1.9427
12572SOL    HW239724   9.798  10.001   6.197  0.6577  2.8048 -3.0450
12573SOL     OW39725   3.592   8.677   8.521  0.3300  0.2604 -0.1862
12573SOL    HW139726   3.570   8.751   8.578  0.7082  0.4723 -0.3107
12573SOL    HW239727   3.603   8.603   8.581 -1.4577 -0.0389 -0.1818
12574SOL     OW39728   3.894   3.913   8.071  0.1389  1.0010 -0.5768
12574SOL    HW139729   3.952   3.982   8.106  2.2505 -0.6246 -0.6481
12574SOL    HW239730   3.946   3.872   8.001 -1.4514 -0.0321 -1.1968
12575SOL     OW39731   1.154   0.672   6.478 -0.5404 -0.2001  0.4752
12575SOL    HW139732   1.250   0.675   6.481 -0.4328 -1.1938 -0.8982
12575SOL    HW239733   1.128   0.644   6.566  0.3326  1.2861  1.2478
12576SOL     OW39734   6.355   4.138   5.300  0.0020  0.3207  0.6214
12576SOL    HW139735   6.286   4.198   5.270 -1.7081 -1.9292 -0.2304
12576SOL    HW239736   6.436   4.176   5.266 -1.2809  0.8144 -2.1686
12577SOL     OW39737   3.874   2.148   6.194  0.0834  0.2019 -0.2974
12577SOL    HW139738   3.944   2.179   6.137 -0.2756  0.2355 -0.7248
12577SOL    HW239739   3.906   2.165   6.283 -0.0123  1.6340 -0.5041
12578SOL     OW39740   6.742   6.401   1.918 -0.1555  0.3603  0.1274
12578SOL    HW139741   6.651   6.401   1.947  0.0226  2.0451  0.7834
12578SOL    HW239742   6.792   6.372   1.994 -0.2707 -3.1067 -0.9674
12579SOL     OW39743   4.679   8.284   6.347  0.4515  0.6842 -0.4521
12579SOL    HW139744   4.624   8.267   6.270  1.1094  2.1818 -1.2903
12579SOL    HW239745   4.669   8.377   6.364  1.9192  0.7873  0.0248
12580SOL     OW39746   1.755   6.751   0.682  0.3982 -0.5713  0.0084
12580SOL    HW139747   1.827   6.697   0.715  0.8856 -0.7779 -1.3543
12580SOL    HW239748   1.699   6.690   0.634 -0.4731 -0.3280  0.6770
12581SOL     OW39749   4.740   1.626   5.801  0.1456 -0.4929  0.0477
12581SOL    HW139750   4.730   1.535   5.829  0.4478  0.2071  2.6854
12581SOL    HW239751   4.650   1.657   5.789  0.0438 -1.7261 -3.3144
12582SOL     OW39752   6.895   7.528   2.798  0.1063 -0.1412 -0.1343
12582SOL    HW139753   6.925   7.619   2.792  2.0152 -0.6401  0.9503
12582SOL    HW239754   6.816   7.533   2.852 -0.2636  0.9324 -0.7336
12583SOL     OW39755   9.980   5.936   4.917  0.0114  0.0330  0.4296
12583SOL    HW139756   9.900   5.932   4.970 -0.1866 -0.0481  0.1273
12583SOL    HW239757  10.025   5.854   4.937 -1.0934 -1.0141 -1.1285
12584SOL     OW39758   2.982   5.137   2.214 -0.0819 -0.2226  0.4363
12584SOL    HW139759   3.072   5.118   2.187  0.9919  1.4902  2.5731
12584SOL    HW239760   2.934   5.055   2.196  1.6493 -0.8883 -1.5660
12585SOL     OW39761   8.655  10.457   5.881 -0.2364  0.4999 -0.5586
12585SOL    HW139762   8.661  10.473   5.786  1.0878  2.8699 -0.1637
12585SOL    HW239763   8.632  10.543   5.918  3.4890  0.7718  1.5823
12586SOL     OW39764   9.888   5.050  10.842  0.4742 -0.2767 -0.7098
12586SOL    HW139765   9.925   5.133  10.811  0.3337  0.5088  1.0708
12586SOL    HW239766   9.856   5.007  10.764  0.2169  1.5278 -1.6506
12587SOL     OW39767   2.650   4.831   7.933 -0.3918  0.0699  0.1681
12587SOL    HW139768   2.636   4.924   7.920  0.0242  0.2872  1.1824
12587SOL    HW239769   2.654   4.794   7.845 -0.9239  0.9490 -0.2324
12588SOL     OW39770   9.166   1.431  10.339  0.3938  0.3114  0.2840
12588SOL    HW139771   9.143   1.368  10.271  2.0567 -0.3524  0.2875
12588SOL    HW239772   9.097   1.497  10.336  0.3148  0.1944 -1.9129
12589SOL     OW39773   4.950   5.405  11.028 -0.5086 -0.0685  0.0682
12589SOL    HW139774   4.893   5.480  11.046 -2.1340 -0.9011 -1.3779
12589SOL    HW239775   5.020   5.412  11.093 -1.1324  2.1500  0.5872
12590SOL     OW39776   8.089   7.831   3.068  0.6501 -0.8874  0.1280
12590SOL    HW139777   8.090   7.914   3.116  0.7566 -0.1908 -1.0446
12590SOL    HW239778   8.159   7.779   3.109  1.1547 -0.0683  0.3189
12591SOL     OW39779   9.069  10.979   4.883 -0.0481  0.1467 -0.4221
12591SOL    HW139780   9.028  11.060   4.912  0.5252  0.6756 -1.0363
12591SOL    HW239781   9.053  10.977   4.788  1.9494  0.7751 -0.8349
12592SOL     OW39782   0.975   5.950   8.369 -0.0878  0.5945 -0.5034
12592SOL    HW139783   1.027   5.871   8.386  0.4939  1.1017  0.0927
12592SOL    HW239784   1.030   6.004   8.313 -0.2670  0.8232 -0.4599
12593SOL     OW39785   5.807   2.084  10.346  0.0015 -0.7867  0.2720
12593SOL    HW139786   5.741   2.133  10.296  0.2908 -1.4156 -0.7457
12593SOL    HW239787   5.794   2.113  10.436 -3.2287 -2.5763  0.5366
12594SOL     OW39788   9.288   7.508   3.490  0.8852 -0.2678 -0.4037
12594SOL    HW139789   9.356   7.544   3.433  0.6962  0.5936 -0.0898
12594SOL    HW239790   9.330   7.431   3.530  2.1683  0.9839  0.7957
12595SOL     OW39791   2.475   3.389   8.860 -0.3521  0.1981  0.2248
12595SOL    HW139792   2.562   3.430   8.867  0.1527 -1.0107  1.9919
12595SOL    HW239793   2.432   3.410   8.943 -1.0074 -0.7620  0.1529
12596SOL     OW39794   4.620  10.515   4.180 -0.3771  0.0291 -0.1048
12596SOL    HW139795   4.553  10.449   4.197  0.7949 -1.3488 -0.6388
12596SOL    HW239796   4.678  10.509   4.256 -1.8676  2.6372  1.3811
12597SOL     OW39797   2.206   7.585   1.186 -0.4752 -0.0446  0.3226
12597SOL    HW139798   2.275   7.523   1.159 -0.3593 -1.0204  2.6555
12597SOL    HW239799   2.222   7.600   1.279 -2.1083  1.4752  0.4078
12598SOL     OW39800   3.563   9.344   8.352 -0.3207 -0.7924  0.1865
12598SOL    HW139801   3.515   9.301   8.281  0.1303 -0.1686 -0.5120
12598SOL    HW239802   3.643   9.292   8.361 -0.0723 -0.4847 -0.2195
12599SOL     OW39803  10.816   9.607   5.823 -0.5278 -0.4213  0.5846
12599SOL    HW139804  10.730   9.646   5.807 -0.1396  0.7219  1.1602
12599SOL    HW239805  10.878   9.672   5.790  0.1335 -0.5443  1.5362
12600SOL     OW39806   7.953   7.295   6.302  0.3209  0.6474  0.1099
12600SOL    HW139807   7.873   7.244   6.300  0.7018  0.0474  0.1358
12600SOL    HW239808   8.007   7.254   6.369 -0.3021  2.4994  1.8727
12601SOL     OW39809   3.024   2.166  10.351  0.8618  0.1381 -0.0188
12601SOL    HW139810   3.008   2.072  10.353  1.9445 -0.1306 -1.7389
12601SOL    HW239811   3.117   2.176  10.369  0.2761  1.1541  3.0138
12602SOL     OW39812   3.034   5.059   3.498  0.2353  0.7160  0.0570
12602SOL    HW139813   3.105   4.998   3.482  2.1819  2.3256  1.9369
12602SOL    HW239814   2.956   5.015   3.465  1.5421 -2.6440  1.0583
12603SOL     OW39815  10.142  10.611   9.716  0.0104 -0.6469 -0.4053
12603SOL    HW139816  10.192  10.658   9.783 -0.7399 -0.5393  0.0798
12603SOL    HW239817  10.130  10.524   9.752  0.8622 -1.0502 -1.0402
12604SOL     OW39818   3.558   6.216   2.432  0.2471 -0.0793 -0.0098
12604SOL    HW139819   3.644   6.256   2.415  0.7490 -1.4441 -0.9275
12604SOL    HW239820   3.577   6.122   2.441 -1.0416 -0.2893  0.6875
12605SOL     OW39821   1.853   0.420   8.498  0.5280  0.2993  0.0516
12605SOL    HW139822   1.901   0.339   8.482  0.2092  0.1295 -0.0294
12605SOL    HW239823   1.825   0.414   8.589 -1.1374 -0.5371 -0.4957
12606SOL     OW39824   4.243   6.712   4.477  0.3911  0.1333  0.4166
12606SOL    HW139825   4.158   6.685   4.512 -0.6593  1.8449 -0.6846
12606SOL    HW239826   4.289   6.749   4.552 -0.4332  0.5573  0.7284
12607SOL     OW39827   9.413   7.952  10.321 -0.1732 -0.3716  0.0460
12607SOL    HW139828   9.424   7.861  10.295 -1.5591 -0.9837  1.4374
12607SOL    HW239829   9.426   8.002  10.241 -0.3517 -1.8507 -0.9388
12608SOL     OW39830   4.771   2.225   0.542  0.0094 -0.7517  0.7311
12608SOL    HW139831   4.832   2.221   0.616  0.8043 -0.4087  0.1010
12608SOL    HW239832   4.766   2.135   0.510 -0.3064 -0.8947  1.1661
12609SOL     OW39833   6.074   3.214   6.085  0.0839  0.0521  0.1269
12609SOL    HW139834   6.122   3.262   6.017 -1.3919  0.1753 -0.8759
12609SOL    HW239835   5.983   3.241   6.073 -0.7280 -2.5233 -0.0946
12610SOL     OW39836   6.103  10.314   0.378 -0.1078  0.0795  0.1676
12610SOL    HW139837   6.163  10.367   0.325  0.8491  0.5778  1.6840
12610SOL    HW239838   6.068  10.249   0.317  2.4681 -0.6417 -0.6663
12611SOL     OW39839   3.349   6.479   4.454  0.6771  0.1245  0.2767
12611SOL    HW139840   3.307   6.441   4.377  1.9793  0.5778 -0.7024
12611SOL    HW239841   3.280   6.482   4.520 -0.0341 -1.8929 -0.2957
12612SOL     OW39842   5.548   7.518   4.657 -0.0799  0.0577  0.3196
12612SOL    HW139843   5.613   7.523   4.587  0.2059  1.2023  0.6362
12612SOL    HW239844   5.594   7.552   4.734 -0.3152 -1.4037  1.1296
12613SOL     OW39845   4.674   9.054  10.685 -0.3869  0.2605 -0.2602
12613SOL    HW139846   4.756   9.029  10.728 -0.4876 -0.9955 -0.7493
12613SOL    HW239847   4.673   9.003  10.604 -2.2626 -0.7264  0.3357
12614SOL     OW39848   0.442   4.895   7.263 -0.5403 -0.2842  0.1952
12614SOL    HW139849   0.491   4.910   7.182 -0.0776 -0.5455  0.4264
12614SOL    HW239850   0.469   4.965   7.321  0.9537 -1.4552  0.9652
12615SOL     OW39851   6.020  11.063   6.405 -0.4002 -0.1688 -0.1473
12615SOL    HW139852   6.108  11.089   6.431 -0.0106 -2.0826  0.6537
12615SOL    HW239853   5.964  11.133   6.437  0.2923 -1.2590  4.0243
12616SOL     OW39854   6.813   7.011  10.959 -0.1974  0.2596 -0.3320
12616SOL    HW139855   6.747   7.005  10.890  1.6570 -1.2465 -2.0814
12616SOL    HW239856   6.765   6.985  11.039 -1.5327 -1.7689 -1.6933
12617SOL     OW39857   5.464   9.904   8.590  0.7916  0.0475  0.0181
12617SOL    HW139858   5.423   9.894   8.504  2.2316 -0.0844 -0.6968
12617SOL    HW239859   5.463   9.815   8.627 -0.1698  0.1740  0.3148
12618SOL     OW39860   5.110   5.336   2.322 -0.5417  0.6067 -0.0255
12618SOL    HW139861   5.169   5.412   2.326 -2.4087  2.1009  0.7177
12618SOL    HW239862   5.131   5.285   2.400  0.5025  0.5063 -0.3563
12619SOL     OW39863   5.468   6.634   5.457  0.1975 -0.0010  0.2895
12619SOL    HW139864   5.512   6.586   5.527  0.8970  1.2752  0.7692
12619SOL    HW239865   5.439   6.715   5.499 -2.4338 -0.6767 -0.0808
12620SOL     OW39866   8.086   2.827  10.948  0.0201  0.3592  0.0795
12620SOL    HW139867   8.004   2.778  10.953  0.7159 -0.8996 -0.2090
12620SOL    HW239868   8.090   2.858  10.858  0.9790 -1.7075 -0.6556
12621SOL     OW39869   7.820   4.477   0.362 -0.3593 -0.2079  0.9119
12621SOL    HW139870   7.792   4.460   0.272  0.9860 -0.9020  0.6020
12621SOL    HW239871   7.773   4.413   0.415  1.1899 -1.9540  0.2960
12622SOL     OW39872   5.518  10.244   7.494 -0.4485 -0.5335 -0.2774
12622SOL    HW139873   5.557  10.233   7.407  2.4482 -0.5158  0.8938
12622SOL    HW239874   5.463  10.322   7.486 -0.6116 -0.8063 -2.1957
12623SOL     OW39875   6.957   8.590   0.431 -0.7994 -0.3456 -0.3392
12623SOL    HW139876   6.996   8.647   0.365 -2.1162  1.5354  0.4024
12623SOL    HW239877   7.028   8.572   0.492 -0.4517  0.9172 -0.3456
12624SOL     OW39878   0.742   3.980   7.373  0.0071 -0.0031 -0.7229
12624SOL    HW139879   0.735   3.889   7.343 -0.2169 -0.9252  1.8030
12624SOL    HW239880   0.834   3.989   7.399 -0.3903 -0.2038  0.8616
12625SOL     OW39881   3.775   0.692   7.190  0.7557  0.5265 -0.4500
12625SOL    HW139882   3.868   0.678   7.171  0.3151 -2.2000 -0.9795
12625SOL    HW239883   3.768   0.680   7.284  0.9673  1.0459 -0.3630
12626SOL     OW39884   4.965   9.477   8.761  0.1697 -0.4945 -0.6995
12626SOL    HW139885   5.040   9.536   8.752 -0.0284 -0.0062  0.5794
12626SOL    HW239886   4.949   9.444   8.673 -0.5959  2.4256 -1.7302
12627SOL     OW39887   1.510   7.163   4.964 -0.2065  0.1889  0.4122
12627SOL    HW139888   1.594   7.209   4.973  1.0335 -1.3860 -1.9647
12627SOL    HW239889   1.496   7.158   4.869 -1.4477 -2.2107  0.6600
12628SOL     OW39890   2.772   8.825   6.337 -0.5833  0.0781  0.2515
12628SOL    HW139891   2.713   8.757   6.369 -0.1691 -0.4440 -0.0906
12628SOL    HW239892   2.823   8.851   6.414  0.0870 -0.8481  0.1407
12629SOL     OW39893  10.081   4.963   3.339  0.4620  0.5510  0.1588
12629SOL    HW139894  10.149   4.973   3.406  0.2978 -3.3498  1.1249
12629SOL    HW239895   9.999   4.978   3.386  0.4243 -0.4587  0.4258
12630SOL     OW39896   4.997   2.160   9.929  0.1750 -0.4409 -0.0247
12630SOL    HW139897   5.075   2.215   9.935 -0.5848  0.5620  1.0820
12630SOL    HW239898   5.002   2.104  10.006  0.2150 -0.9703 -0.4032
12631SOL     OW39899  10.271   9.041   2.111 -0.4864  0.3369  0.0030
12631SOL    HW139900  10.229   9.001   2.187  1.2634 -1.5758  0.0761
12631SOL    HW239901  10.224   9.123   2.097 -3.1393 -0.8996  0.9830
12632SOL     OW39902   0.533   0.433   9.620 -0.0672  0.2071 -0.1598
12632SOL    HW139903   0.526   0.526   9.601 -0.4463 -0.1746 -2.0780
12632SOL    HW239904   0.627   0.415   9.624  0.0150  0.8225  1.2068
12633SOL     OW39905   9.910  10.008   9.184  0.3024 -0.4109 -0.3122
12633SOL    HW139906   9.883  10.094   9.214  1.7480  0.9226 -2.5108
12633SOL    HW239907   9.856   9.946   9.233  0.5658  1.6258  2.7445
12634SOL     OW39908   1.222   7.923   0.649  0.9171 -0.4600  0.1541
12634SOL    HW139909   1.265   7.905   0.733  0.6218  1.1065  0.6941
12634SOL    HW239910   1.276   7.881   0.583  0.1737 -3.3252  1.2477
12635SOL     OW39911   4.578   7.425   3.710  0.0722  0.8018  0.3376
12635SOL    HW139912   4.555   7.337   3.680 -1.3828  1.5296 -0.7853
12635SOL    HW239913   4.615   7.411   3.797  2.3206 -1.1659 -0.8068
12636SOL     OW39914   3.250   6.593   9.032  0.4881 -0.3486  0.1841
12636SOL    HW139915   3.161   6.594   9.067  0.6376  2.2080  0.6423
12636SOL    HW239916   3.287   6.677   9.058  1.9526  0.0384 -2.8108
12637SOL     OW39917   8.275   8.301   1.249 -0.5247 -0.7106 -0.2812
12637SOL    HW139918   8.182   8.280   1.255 -1.0572  0.9536 -1.7516
12637SOL    HW239919   8.289   8.367   1.316 -0.3487 -1.0718  0.0437
12638SOL     OW39920   5.753   7.846   8.389  0.0033 -0.2554 -0.6851
12638SOL    HW139921   5.824   7.899   8.351  0.3339 -1.3245 -1.6044
12638SOL    HW239922   5.783   7.756   8.380 -0.0059 -0.6076  1.9484
12639SOL     OW39923   5.097   1.649   9.221 -0.2270  0.1283  0.2401
12639SOL    HW139924   5.075   1.600   9.142  0.4781  1.9812 -1.1916
12639SOL    HW239925   5.038   1.725   9.219 -1.6062 -0.7589  2.6179
12640SOL     OW39926   3.233   9.558   9.483  0.0340 -0.5630  0.9624
12640SOL    HW139927   3.229   9.467   9.512 -0.0874 -0.2469  1.9857
12640SOL    HW239928   3.238   9.553   9.388 -0.5611 -1.6236  0.9749
12641SOL     OW39929   0.730   8.221   0.245 -0.0525  0.3327 -0.4397
12641SOL    HW139930   0.696   8.147   0.295  0.9512 -0.1351 -0.4232
12641SOL    HW239931   0.789   8.181   0.181  1.5053  1.2097  0.4093
12642SOL     OW39932   9.781   9.626   1.809 -0.5586 -0.2947 -0.2601
12642SOL    HW139933   9.872   9.595   1.807  0.0119  1.1004  1.2071
12642SOL    HW239934   9.788   9.719   1.829 -2.3375 -0.3714  0.9654
12643SOL     OW39935   2.287   6.182   0.524 -0.3993  0.7413  1.0430
12643SOL    HW139936   2.276   6.200   0.431 -2.0053 -2.6519  0.4464
12643SOL    HW239937   2.317   6.265   0.561  1.6749  1.8651 -2.6719
12644SOL     OW39938   0.874   8.119   3.964  0.5739  0.1191 -0.2291
12644SOL    HW139939   0.954   8.133   4.015  0.0488  1.2937  0.3093
12644SOL    HW239940   0.884   8.177   3.888  1.0016 -1.0473 -1.1044
12645SOL     OW39941   6.948   7.225   1.792 -0.3385  0.1095  0.4865
12645SOL    HW139942   6.998   7.225   1.874  0.8372  1.1296 -0.1945
12645SOL    HW239943   6.869   7.174   1.812 -0.0945  0.3578  2.2535
12646SOL     OW39944   4.074   2.335   5.401  0.4468 -0.6230 -0.3384
12646SOL    HW139945   4.100   2.313   5.311  1.3369 -1.5139  0.1272
12646SOL    HW239946   3.982   2.307   5.406  1.2803 -3.6592 -0.0250
12647SOL     OW39947   4.004   0.379   5.957  0.1812  0.1645  0.0264
12647SOL    HW139948   4.030   0.351   6.045 -0.4929  0.4544  0.3259
12647SOL    HW239949   4.085   0.380   5.907  0.2733 -2.3144 -0.0095
12648SOL     OW39950   3.840   6.213   3.720  0.9255  0.1694  0.1858
12648SOL    HW139951   3.755   6.186   3.755 -0.7464  1.9448 -2.1221
12648SOL    HW239952   3.899   6.213   3.796 -0.9311 -1.7403  1.7493
12649SOL     OW39953   8.480   4.314  10.599  0.4394  0.4758 -0.4217
12649SOL    HW139954   8.568   4.302  10.635  1.0727 -0.2270 -2.0829
12649SOL    HW239955   8.490   4.295  10.505 -1.7506 -1.0081 -0.4299
12650SOL     OW39956   9.684   6.531   2.066  0.0824  0.1133 -0.5063
12650SOL    HW139957   9.614   6.500   2.124  1.3248  2.0181  2.2172
12650SOL    HW239958   9.737   6.453   2.049 -0.6614 -0.6264  0.3996
12651SOL     OW39959   5.983   6.756   9.414  0.2408  0.9441 -0.4356
12651SOL    HW139960   5.970   6.796   9.328  1.6289  0.1660 -1.0480
12651SOL    HW239961   5.933   6.811   9.474 -0.9597  1.3676 -1.7622
12652SOL     OW39962  10.950   9.625   5.501 -0.3173  0.4377 -0.0426
12652SOL    HW139963  10.895   9.586   5.569 -0.9433  0.8953 -0.2687
12652SOL    HW239964  11.026   9.568   5.496 -0.5206  0.0855  0.6538
12653SOL     OW39965   4.281   6.965   2.112  0.6645 -0.1093 -0.9692
12653SOL    HW139966   4.188   6.944   2.106  1.1166 -2.0235 -1.7699
12653SOL    HW239967   4.301   7.010   2.030  0.8501 -1.4370 -1.6631
12654SOL     OW39968   8.234   3.141   1.375  0.5413  0.0101  0.1821
12654SOL    HW139969   8.250   3.128   1.282 -0.5780 -3.0097  0.2966
12654SOL    HW239970   8.202   3.231   1.382  0.5338  0.2699 -2.3574
12655SOL     OW39971   4.068   8.415   7.230 -0.2421 -0.6391  0.2801
12655SOL    HW139972   4.023   8.388   7.311  0.5121  2.8054  2.0294
12655SOL    HW239973   4.160   8.395   7.246  0.0966  1.2320  0.9372
12656SOL     OW39974   3.245   2.713   3.270 -0.1323 -0.1436  0.0630
12656SOL    HW139975   3.175   2.650   3.250 -0.8355  0.5643  0.2663
12656SOL    HW239976   3.302   2.667   3.332 -0.1760 -0.8762 -0.4184
12657SOL     OW39977   3.783   9.202   0.875 -0.1576  0.6423 -0.4934
12657SOL    HW139978   3.704   9.236   0.833 -0.6170 -0.9251 -0.9490
12657SOL    HW239979   3.780   9.107   0.861  1.8415  0.5422 -0.5774
12658SOL     OW39980   8.080   4.637  10.231 -0.5127 -0.6224 -0.3770
12658SOL    HW139981   8.167   4.608  10.260 -0.4990  0.4561  0.7558
12658SOL    HW239982   8.025   4.558  10.238  0.2140 -1.1480 -0.4531
12659SOL     OW39983   2.864   1.148  11.029 -0.1611 -0.1040 -0.8931
12659SOL    HW139984   2.912   1.071  10.999 -0.9252  0.0744 -2.6425
12659SOL    HW239985   2.919   1.184  11.099 -1.2287 -3.8964  2.2625
12660SOL     OW39986   1.295   1.869   5.267  0.4362  0.6253 -0.0950
12660SOL    HW139987   1.278   1.866   5.361 -0.2623  0.4796 -0.2177
12660SOL    HW239988   1.390   1.878   5.260  0.2786  4.7159  0.6957
12661SOL     OW39989   2.233   2.515   0.133  0.4795  0.5871 -0.3997
12661SOL    HW139990   2.145   2.502   0.168 -0.5285  2.2481 -2.0983
12661SOL    HW239991   2.292   2.489   0.203 -1.3490 -1.0103  0.6295
12662SOL     OW39992   3.376   0.894   3.352 -0.3066 -0.2972 -0.3370
12662SOL    HW139993   3.406   0.820   3.405 -1.3767 -1.0050 -0.6825
12662SOL    HW239994   3.415   0.971   3.393 -2.7600 -0.5575  2.8274
12663SOL     OW39995   3.505   3.023   6.620  0.1174 -0.0086  0.2189
12663SOL    HW139996   3.583   3.033   6.674  0.7535 -0.5393 -0.5718
12663SOL    HW239997   3.441   2.982   6.679  0.5794  0.0117  0.7504
12664SOL     OW39998   4.152   6.536   8.615 -0.4849  0.7606 -0.4576
12664SOL    HW139999   4.143   6.632   8.616 -1.8976  0.6846 -1.8944
12664SOL    HW240000   4.112   6.509   8.533 -1.9606 -1.2459  0.8203
12665SOL     OW40001   8.164   5.805   0.905  0.3469 -0.2143 -0.0669
12665SOL    HW140002   8.082   5.836   0.867  0.7698  0.9261 -0.1047
12665SOL    HW240003   8.220   5.786   0.830  0.2561 -0.6028 -0.0371
12666SOL     OW40004   0.152   3.413   5.935  0.2852 -0.6883 -0.4878
12666SOL    HW140005   0.200   3.477   5.883 -1.7162  0.1437 -1.4423
12666SOL    HW240006   0.192   3.417   6.022  0.4265  1.7074 -0.5813
12667SOL     OW40007   9.666  10.894   6.215 -0.4546  0.1590  0.2384
12667SOL    HW140008   9.626  10.974   6.180  3.4472  2.2416  0.0527
12667SOL    HW240009   9.648  10.898   6.309 -0.4392  1.1774  0.2108
12668SOL     OW40010   7.134   0.671   3.672  0.2125 -0.2950  0.4881
12668SOL    HW140011   7.119   0.672   3.577 -0.9380 -1.2647  0.6326
12668SOL    HW240012   7.220   0.712   3.683 -0.5157  1.7593 -0.7813
12669SOL     OW40013   0.398   6.700   9.365 -1.1396  0.2858 -0.2677
12669SOL    HW140014   0.396   6.621   9.421  1.9358  0.9238  0.9419
12669SOL    HW240015   0.424   6.770   9.425 -0.8205  1.6334 -1.9380
12670SOL     OW40016   8.248   9.477   4.850  0.7671  0.0105 -0.3283
12670SOL    HW140017   8.307   9.504   4.779 -0.3060  1.2198 -0.8160
12670SOL    HW240018   8.223   9.559   4.892 -0.2205 -0.5144  0.1354
12671SOL     OW40019   5.232   3.725   6.951  0.6357 -0.0778 -0.1089
12671SOL    HW140020   5.212   3.767   7.034 -0.4901 -1.1664  0.1906
12671SOL    HW240021   5.319   3.759   6.927 -0.2676  2.4958  0.0244
12672SOL     OW40022   1.794   8.405   2.167  0.6866  0.0318  0.1513
12672SOL    HW140023   1.876   8.362   2.145  0.0084 -2.2246  1.6637
12672SOL    HW240024   1.815   8.461   2.242  1.0286  0.1728 -0.0492
12673SOL     OW40025   7.597   9.059   0.637 -0.3773 -0.4725 -0.2097
12673SOL    HW140026   7.525   9.110   0.599  0.4760  0.7300 -0.2597
12673SOL    HW240027   7.642   9.121   0.694 -1.7332 -2.2097  3.0296
12674SOL     OW40028   6.917   8.558  10.854 -0.0409  0.2881  0.8710
12674SOL    HW140029   6.939   8.552  10.947 -0.2186  1.6158  1.0070
12674SOL    HW240030   6.822   8.555  10.851 -0.0226 -0.6049  0.6429
12675SOL     OW40031   3.148   5.038   5.529  0.8525  0.5413  0.1797
12675SOL    HW140032   3.170   5.129   5.545  0.3823  0.4931  1.1493
12675SOL    HW240033   3.150   4.997   5.616  1.2964 -0.4272 -0.2661
12676SOL     OW40034   5.304   5.877   9.018  0.1322  0.2998  0.2516
12676SOL    HW140035   5.346   5.794   9.042 -1.4974 -1.3638 -2.1003
12676SOL    HW240036   5.344   5.900   8.934  0.9143  2.2486  1.0975
12677SOL     OW40037   4.501   4.796   8.385  0.5029  0.0837  0.3415
12677SOL    HW140038   4.466   4.707   8.391  1.1451 -0.1244  1.0226
12677SOL    HW240039   4.426   4.852   8.408 -0.5688 -0.1343 -2.3282
12678SOL     OW40040   5.564  10.736  10.742  0.5607  0.0683  0.3967
12678SOL    HW140041   5.481  10.783  10.757  0.4528 -0.3329  1.1173
12678SOL    HW240042   5.621  10.802  10.702 -0.7842 -0.2514 -2.2445
12679SOL     OW40043   2.028  10.079   5.928  0.1761  0.0452  0.2411
12679SOL    HW140044   2.112  10.112   5.896  0.3010 -0.1935  0.3172
12679SOL    HW240045   1.964  10.144   5.898  0.3830  0.2163  0.1604
12680SOL     OW40046   3.950   4.542  10.698 -0.2997  0.1213 -0.6291
12680SOL    HW140047   3.901   4.472  10.654 -0.4494  0.7689 -1.5178
12680SOL    HW240048   4.002   4.497  10.764 -0.4370 -0.8260 -1.1538
12681SOL     OW40049   4.919   1.969   3.294  0.2318  0.7263 -0.0432
12681SOL    HW140050   4.948   1.965   3.385  0.1631  0.1483 -0.0411
12681SOL    HW240051   4.956   2.051   3.261 -0.4680  1.3795  0.7454
12682SOL     OW40052   2.733   1.150   5.143  0.2584 -0.1422 -0.6436
12682SOL    HW140053   2.736   1.246   5.153  0.4682 -0.3538  2.5743
12682SOL    HW240054   2.821   1.126   5.115  0.9050  0.5152  0.6896
12683SOL     OW40055   2.561   8.074   3.719  0.7124 -0.0388  0.4241
12683SOL    HW140056   2.612   8.005   3.762  3.5466  1.9260  0.5082
12683SOL    HW240057   2.529   8.128   3.790 -3.8456 -2.4867  0.5772
12684SOL     OW40058   5.768   9.969   2.457  0.0817 -0.7986 -0.8545
12684SOL    HW140059   5.828   9.919   2.512  1.1945  2.1500  0.8523
12684SOL    HW240060   5.821  10.000   2.384  0.1621  0.2188 -0.3766
12685SOL     OW40061   6.382   1.214   4.653 -0.9380  0.0800 -0.1320
12685SOL    HW140062   6.315   1.277   4.680 -0.0715  0.8336  0.3122
12685SOL    HW240063   6.357   1.188   4.565 -1.1751  1.2448 -0.4184
12686SOL     OW40064  10.743   6.305   6.066 -0.0433 -0.3515 -0.5512
12686SOL    HW140065  10.760   6.399   6.058  2.1489 -0.5766  0.6808
12686SOL    HW240066  10.763   6.270   5.979 -0.6381  0.2616 -0.9511
12687SOL     OW40067   1.644   1.833   9.015  0.0502 -0.3983 -0.3142
12687SOL    HW140068   1.734   1.840   9.048 -0.1223  0.6056 -0.0066
12687SOL    HW240069   1.643   1.889   8.937 -0.4822  0.2168  0.1159
12688SOL     OW40070   5.667  10.256   3.553 -0.0177  0.3380  0.5509
12688SOL    HW140071   5.658  10.221   3.642  0.5285 -0.1473  0.4195
12688SOL    HW240072   5.586  10.307   3.540 -0.2028  0.2422  1.2414
12689SOL     OW40073   1.286  10.986   8.147  0.3873  0.4533  0.7182
12689SOL    HW140074   1.291  11.079   8.128 -0.4160  0.0500 -1.7765
12689SOL    HW240075   1.265  10.945   8.063  0.2660 -1.9374  1.8320
12690SOL     OW40076   3.819   0.296   9.341  0.2001  0.3110 -0.4424
12690SOL    HW140077   3.802   0.224   9.281 -0.6071  0.7261 -0.7270
12690SOL    HW240078   3.911   0.317   9.329  0.6896 -1.2419  0.2854
12691SOL     OW40079   1.802  10.162   0.466  0.0840  0.0351  0.3273
12691SOL    HW140080   1.881  10.141   0.415  0.4253  3.1827 -0.6408
12691SOL    HW240081   1.731  10.121   0.416  0.5364  2.0840 -2.2286
12692SOL     OW40082  10.949  10.776   8.393  0.7666 -0.0201  0.2597
12692SOL    HW140083  11.003  10.719   8.338 -0.2075  0.4883 -1.2866
12692SOL    HW240084  10.859  10.750   8.373  0.1899  3.1191 -1.8253
12693SOL     OW40085   8.181   0.410   8.437  0.1920  0.2677  0.2310
12693SOL    HW140086   8.237   0.373   8.368  1.2838  0.5414  0.9341
12693SOL    HW240087   8.168   0.501   8.411  1.3832  0.6353  0.8120
12694SOL     OW40088  10.177   7.926   5.343  0.3502  0.2690  0.7243
12694SOL    HW140089  10.232   7.971   5.406 -0.7822  1.7255  0.7213
12694SOL    HW240090  10.238   7.891   5.278  1.2237  3.5738 -0.4187
12695SOL     OW40091   4.320   0.589   1.747 -0.4498 -0.4077 -0.3111
12695SOL    HW140092   4.365   0.656   1.695  0.1125  1.4366  2.3520
12695SOL    HW240093   4.390   0.533   1.780 -0.6688 -0.7381 -0.3999
12696SOL     OW40094   1.658   6.333   9.246  0.0469  0.3474 -0.6313
12696SOL    HW140095   1.731   6.388   9.277 -0.1340  0.1718  0.1268
12696SOL    HW240096   1.685   6.244   9.266  1.0138 -0.0115 -3.2447
12697SOL     OW40097   1.705  10.008   5.259 -0.1683  0.1886  0.4512
12697SOL    HW140098   1.795  10.019   5.229 -0.1097  0.7374  0.8163
12697SOL    HW240099   1.682  10.093   5.298 -1.2978  0.4977 -0.8261
12698SOL     OW40100   2.075   6.078   4.391  0.5062 -0.5094 -0.8419
12698SOL    HW140101   1.981   6.092   4.400  0.6400 -0.9354  4.0274
12698SOL    HW240102   2.113   6.166   4.390  0.1283 -0.3267  0.0082
12699SOL     OW40103   8.742   4.861   0.085  0.5751  0.2781  0.1738
12699SOL    HW140104   8.743   4.873   0.180 -1.4832 -2.0270  0.6016
12699SOL    HW240105   8.721   4.947   0.050  0.9170  1.0776  1.8374
12700SOL     OW40106   8.763   1.996   1.452  0.3003  0.1472 -0.4024
12700SOL    HW140107   8.671   1.988   1.475  0.4029 -0.3124 -0.1396
12700SOL    HW240108   8.801   2.047   1.524  0.9450 -2.6570  1.3806
12701SOL     OW40109   2.795   6.421   9.066  0.4385 -0.5570 -0.1963
12701SOL    HW140110   2.794   6.482   8.993 -0.9681  0.5909  0.7388
12701SOL    HW240111   2.711   6.434   9.110  0.6924 -2.1732  0.8547
12702SOL     OW40112   7.532   9.138   8.176 -0.1500  0.2143 -0.5443
12702SOL    HW140113   7.474   9.203   8.136 -0.4452  2.5318  3.1986
12702SOL    HW240114   7.476   9.062   8.190 -0.3644 -0.1789 -3.0717
12703SOL     OW40115   1.972   6.072   0.198 -0.0607  0.3314 -0.7260
12703SOL    HW140116   1.958   6.151   0.250  0.8759  1.2200 -1.7831
12703SOL    HW240117   1.973   6.001   0.262 -0.8994  1.1588  0.2419
12704SOL     OW40118   7.165   2.382   5.180 -0.9119 -0.1388 -0.3419
12704SOL    HW140119   7.196   2.409   5.267  0.4880  1.4383 -1.2766
12704SOL    HW240120   7.244   2.357   5.133 -1.9038 -4.0348 -0.2881
12705SOL     OW40121   0.177  10.589  10.349 -0.4355  0.2640  0.1486
12705SOL    HW140122   0.119  10.531  10.399 -1.4929  1.4597  0.3583
12705SOL    HW240123   0.124  10.616  10.274 -0.3557  1.7940  0.6155
12706SOL     OW40124   1.144   8.177   3.412 -0.2390 -0.3191 -0.1326
12706SOL    HW140125   1.098   8.223   3.341 -0.8839 -1.1664 -0.2762
12706SOL    HW240126   1.235   8.172   3.382 -0.5212 -0.7445 -0.9447
12707SOL     OW40127   8.449   3.006  10.225  0.6130  0.2408  0.1744
12707SOL    HW140128   8.514   2.942  10.254  1.5540  0.2755 -1.6816
12707SOL    HW240129   8.500   3.084  10.202 -0.2666  0.8554  0.2414
12708SOL     OW40130   7.566  10.443   3.012  0.0312 -0.2374  0.3585
12708SOL    HW140131   7.655  10.413   3.034  0.7798  1.4529 -0.1957
12708SOL    HW240132   7.546  10.397   2.930  0.9133  0.2749 -0.1669
12709SOL     OW40133  10.500   6.613   6.535  0.7238 -0.0312  0.1225
12709SOL    HW140134  10.475   6.564   6.613  1.3323 -0.9535 -0.2365
12709SOL    HW240135  10.571   6.561   6.497  0.2270  0.2396 -1.2076
12710SOL     OW40136   0.006  10.168  10.540  0.3595  0.3722  0.2826
12710SOL    HW140137   0.034  10.079  10.522  0.6813  0.2305  1.4150
12710SOL    HW240138  -0.079  10.175  10.498 -0.3463 -0.9537  1.4157
12711SOL     OW40139   6.435   9.753   0.038  0.0533 -0.1198 -0.1152
12711SOL    HW140140   6.527   9.733   0.056 -0.7363 -1.3409  3.1911
12711SOL    HW240141   6.432   9.849   0.038  0.8406  0.0289  3.4929
12712SOL     OW40142   2.252   6.704   7.562  0.3261 -0.0602 -0.0918
12712SOL    HW140143   2.253   6.744   7.475 -0.5591  1.3156  0.4972
12712SOL    HW240144   2.330   6.739   7.606 -1.6391  3.1276  1.2466
12713SOL     OW40145   3.868   5.121   0.877 -0.1867 -0.3031 -0.0605
12713SOL    HW140146   3.806   5.106   0.805  2.4914  1.7069 -3.0990
12713SOL    HW240147   3.890   5.034   0.909 -3.6701 -1.1330  0.4982
12714SOL     OW40148   3.661   6.563   0.444  0.3123  0.5585  0.5466
12714SOL    HW140149   3.579   6.576   0.491 -1.0615  1.8900 -2.0064
12714SOL    HW240150   3.635   6.531   0.358  2.5686 -0.0514  0.0286
12715SOL     OW40151   1.738   5.325   3.362  0.1247 -0.4558 -0.0562
12715SOL    HW140152   1.651   5.300   3.394  0.1027 -0.4931 -0.1446
12715SOL    HW240153   1.722   5.405   3.312  0.3028  0.1550  0.8408
12716SOL     OW40154   3.036   4.140   6.296 -0.4213 -0.3097 -0.1819
12716SOL    HW140155   3.028   4.100   6.382 -0.7231  2.1428  1.0246
12716SOL    HW240156   2.951   4.128   6.255 -0.8172 -0.0171  0.5537
12717SOL     OW40157   8.856   5.388   6.106  0.0790  0.0181  0.6432
12717SOL    HW140158   8.813   5.406   6.023 -1.2039 -2.6191  0.6029
12717SOL    HW240159   8.941   5.351   6.082  1.1734  2.3845  0.6524
12718SOL     OW40160   4.330   9.892   4.342 -0.5191  0.3817  0.2259
12718SOL    HW140161   4.275   9.849   4.408 -1.1572  1.0319  0.1316
12718SOL    HW240162   4.363   9.821   4.288 -0.2583 -0.1323  1.0409
12719SOL     OW40163   5.809   4.809  10.554  0.1562  0.2453 -1.0518
12719SOL    HW140164   5.816   4.902  10.575 -1.1602  0.0612  0.3537
12719SOL    HW240165   5.876   4.794  10.487  1.5147  1.8551 -0.1265
12720SOL     OW40166  10.407   7.381   6.161 -0.6672  0.4249  0.6488
12720SOL    HW140167  10.433   7.411   6.074  2.3890 -1.7748  0.6176
12720SOL    HW240168  10.453   7.439   6.222 -0.8555  0.4642  0.7547
12721SOL     OW40169   0.326   1.991   4.824  0.2694 -0.1046 -0.0237
12721SOL    HW140170   0.335   2.070   4.877  0.0613  1.7783 -2.5888
12721SOL    HW240171   0.414   1.978   4.787 -0.2053  0.2662 -1.3238
12722SOL     OW40172   0.326   5.328   5.958  0.4369  0.4316  0.4584
12722SOL    HW140173   0.306   5.421   5.951 -1.8062  0.0467  0.7794
12722SOL    HW240174   0.325   5.310   6.052  1.9565  0.2651  0.4605
12723SOL     OW40175  10.877   7.090   7.317 -0.0087 -0.0531 -0.1629
12723SOL    HW140176  10.784   7.085   7.295  0.5442 -2.4388 -2.4573
12723SOL    HW240177  10.888   7.029   7.389 -0.3620  1.1601  0.9615
12724SOL     OW40178   9.071  10.112   5.060  0.6627  0.2574  0.6661
12724SOL    HW140179   9.141  10.164   5.100  0.4648  0.8351  0.2767
12724SOL    HW240180   8.992  10.137   5.109  0.3825  1.1129 -0.1724
12725SOL     OW40181   8.274   6.912   0.927  0.1183 -0.3722 -0.0191
12725SOL    HW140182   8.339   6.844   0.909 -1.1446 -1.0774 -2.2650
12725SOL    HW240183   8.214   6.871   0.989  0.0630 -0.8438 -0.3809
12726SOL     OW40184   5.783   0.193   8.026  0.2481  0.3368  0.0880
12726SOL    HW140185   5.698   0.235   8.013 -0.5475 -1.3649 -0.6050
12726SOL    HW240186   5.798   0.198   8.120  0.5061  2.6777 -0.0322
12727SOL     OW40187   7.958   9.064   4.805 -0.2709 -0.0956 -0.0402
12727SOL    HW140188   7.870   9.099   4.790 -0.7256 -1.3252 -0.3821
12727SOL    HW240189   8.007   9.137   4.842 -0.9566  1.1192 -1.4602
12728SOL     OW40190   5.040   1.018   9.338 -0.6800  0.3454 -0.1253
12728SOL    HW140191   5.007   0.983   9.421 -0.5698 -1.5975 -0.8470
12728SOL    HW240192   5.133   1.037   9.355 -0.4601 -0.7766  0.0074
12729SOL     OW40193   8.169  10.870   1.466  0.6846  0.3637 -0.1412
12729SOL    HW140194   8.163  10.788   1.515 -1.0477  0.8249  0.4938
12729SOL    HW240195   8.263  10.883   1.452  1.0149 -1.5671 -0.0137
12730SOL     OW40196   8.390   2.432   5.769 -0.6442 -0.1236 -0.0028
12730SOL    HW140197   8.348   2.518   5.760  1.3295  1.0202  1.0861
12730SOL    HW240198   8.473   2.450   5.813  0.2485 -2.4940 -0.5550
12731SOL     OW40199   4.224   9.210   9.999  0.4014  0.9045 -0.1607
12731SOL    HW140200   4.210   9.253  10.084 -0.3464  1.6339 -0.6436
12731SOL    HW240201   4.150   9.238   9.946 -0.0526 -0.9046 -0.5347
12732SOL     OW40202   9.528   4.243   5.414  0.1667 -0.0069  0.0826
12732SOL    HW140203   9.476   4.178   5.368  1.5578 -1.1631  0.0803
12732SOL    HW240204   9.471   4.273   5.486  0.2647 -2.9122  1.5037
12733SOL     OW40205  11.035   8.426   7.923  0.0155 -0.1036  0.0225
12733SOL    HW140206  11.103   8.459   7.981  0.3406  0.4307 -0.6536
12733SOL    HW240207  10.953   8.448   7.967  0.2005 -2.8247  2.0454
12734SOL     OW40208   0.685   9.137   2.730 -0.7152 -0.1938 -0.4600
12734SOL    HW140209   0.617   9.177   2.676  0.2216  0.9901 -0.8098
12734SOL    HW240210   0.688   9.045   2.702 -1.1550  0.0913 -1.4739
12735SOL     OW40211   4.085   4.919   6.296  0.0471 -0.9868  0.1407
12735SOL    HW140212   4.039   5.002   6.291 -0.7499 -1.4802 -1.1411
12735SOL    HW240213   4.171   4.936   6.259 -0.0304 -0.6787  0.1029
12736SOL     OW40214   5.522  10.408   9.899  0.5876  0.2352 -0.7051
12736SOL    HW140215   5.475  10.337   9.942  0.2621  1.0721  0.3807
12736SOL    HW240216   5.465  10.435   9.827  0.4956 -0.2708 -0.8283
12737SOL     OW40217   8.187   3.505   3.916 -0.4435 -0.1052  0.1357
12737SOL    HW140218   8.243   3.493   3.993  0.6361  0.4245 -0.5387
12737SOL    HW240219   8.107   3.544   3.950 -0.4923 -1.0311  1.1515
12738SOL     OW40220   9.755  10.391   6.742  0.0273  0.4822 -0.5716
12738SOL    HW140221   9.704  10.351   6.813  0.7105  1.5223  0.5564
12738SOL    HW240222   9.806  10.319   6.705  2.8926  0.5263  2.8316
12739SOL     OW40223   4.365   7.253   6.416  0.0326 -1.0186  0.4923
12739SOL    HW140224   4.447   7.258   6.465 -0.5758 -0.6997  1.4996
12739SOL    HW240225   4.318   7.333   6.440 -1.3941 -2.0934  1.4323
12740SOL     OW40226   7.292   6.673   5.257 -0.3908  0.4144 -0.1103
12740SOL    HW140227   7.388   6.678   5.262 -0.2967 -1.4069  1.6732
12740SOL    HW240228   7.275   6.605   5.192 -0.2863 -1.2987  1.5428
12741SOL     OW40229   7.497   6.690   2.270 -0.0619 -0.0432 -0.4699
12741SOL    HW140230   7.437   6.691   2.344  0.3727  1.6898 -0.1172
12741SOL    HW240231   7.497   6.598   2.242 -3.6391 -0.0215 -1.1257
12742SOL     OW40232   4.038   7.999   9.332  0.2614  0.1301 -0.4174
12742SOL    HW140233   4.031   7.914   9.377 -0.9178  0.3308 -0.1946
12742SOL    HW240234   4.018   8.063   9.400  0.3574  0.5451 -0.7810
12743SOL     OW40235   2.326  10.961   2.695  0.1563 -0.3734 -1.0835
12743SOL    HW140236   2.316  11.040   2.642 -1.1715 -0.9322 -1.7154
12743SOL    HW240237   2.336  10.890   2.631  1.4433 -0.7273 -0.5280
12744SOL     OW40238   3.379   4.602   5.913 -0.2818  0.0931 -0.5044
12744SOL    HW140239   3.301   4.615   5.860 -0.4608  0.3920 -0.1745
12744SOL    HW240240   3.420   4.688   5.917  0.7509 -0.3167 -1.7256
12745SOL     OW40241   8.272   7.949   6.767  0.1297  0.9480 -0.5831
12745SOL    HW140242   8.335   7.900   6.819  1.2456  1.1445 -1.6904
12745SOL    HW240243   8.290   8.041   6.789 -0.2250  0.9739 -0.4051
12746SOL     OW40244   6.290  10.535  10.659  0.3630 -0.2702  0.4709
12746SOL    HW140245   6.320  10.623  10.636  0.1165 -0.1511  0.6077
12746SOL    HW240246   6.201  10.547  10.691  0.3272 -0.5704  0.4878
12747SOL     OW40247   2.482   7.184   7.288  0.0688  0.2062  0.2865
12747SOL    HW140248   2.464   7.137   7.369 -0.2543  0.2756  0.2544
12747SOL    HW240249   2.397   7.196   7.247  0.3509 -0.8544 -0.6423
12748SOL     OW40250   6.239   7.365   7.924 -0.4400 -0.5616  0.4009
12748SOL    HW140251   6.246   7.451   7.885  0.7562 -0.3703  0.9831
12748SOL    HW240252   6.315   7.359   7.983  0.1070 -2.3881 -0.3909
12749SOL     OW40253   5.782   1.205   7.297  0.4721  0.0859 -0.7572
12749SOL    HW140254   5.822   1.133   7.248  0.6821 -0.8688  0.7143
12749SOL    HW240255   5.851   1.232   7.359  0.1496  1.0900 -0.8283
12750SOL     OW40256   0.227  10.253   3.177 -0.2371  0.0290 -0.3030
12750SOL    HW140257   0.181  10.170   3.178 -1.2406  0.5501  1.2902
12750SOL    HW240258   0.193  10.300   3.254  1.8300  1.0516  0.0648
12751SOL     OW40259   1.145   9.838   3.081 -0.3010  0.5714 -0.1987
12751SOL    HW140260   1.189   9.905   3.028  0.3801  1.0478  0.9238
12751SOL    HW240261   1.064   9.819   3.034 -0.0334  1.4687 -1.0517
12752SOL     OW40262  10.746   7.043  10.196 -0.6618  0.4206  0.5777
12752SOL    HW140263  10.790   7.120  10.159 -0.8036  1.3724  2.2941
12752SOL    HW240264  10.663   7.038  10.147 -0.1327  0.6196 -0.3684
12753SOL     OW40265  10.678   7.720   5.258  0.1112 -0.2849  0.1711
12753SOL    HW140266  10.766   7.758   5.255 -1.0419  2.6290 -0.2796
12753SOL    HW240267  10.659   7.710   5.351  0.9680 -1.1339  0.2682
12754SOL     OW40268   4.722  10.483   2.379  0.3323  0.6753  1.0554
12754SOL    HW140269   4.658  10.526   2.435  2.4089  2.7508  2.0103
12754SOL    HW240270   4.720  10.391   2.406 -0.4705  1.1736  2.8019
12755SOL     OW40271   3.331   6.925   4.049 -0.4954  0.3547  0.2106
12755SOL    HW140272   3.337   6.855   3.984 -1.0076 -2.1504  2.6833
12755SOL    HW240273   3.377   6.890   4.125 -1.7921  2.2433  1.9514
12756SOL     OW40274   1.922   0.301   6.204 -0.7852 -0.0243 -0.7590
12756SOL    HW140275   1.973   0.249   6.266 -0.3248 -0.3192 -1.3769
12756SOL    HW240276   1.831   0.290   6.233 -0.4496  1.1702  0.8421
12757SOL     OW40277   4.170   3.190   4.890  0.1925  0.2344  0.3956
12757SOL    HW140278   4.245   3.180   4.950  1.5364 -0.4554 -1.3218
12757SOL    HW240279   4.145   3.101   4.867 -0.6918  0.4843  0.3534
12758SOL     OW40280   5.869   0.863   9.574  0.7527  0.0390 -0.7190
12758SOL    HW140281   5.812   0.937   9.592  0.8080 -0.1407  0.2257
12758SOL    HW240282   5.929   0.895   9.506  0.5462  0.7345 -0.5778
12759SOL     OW40283   3.231   6.024   6.667  0.0667  0.0075 -0.4256
12759SOL    HW140284   3.137   6.015   6.685  0.0432 -0.1806 -0.6355
12759SOL    HW240285   3.241   6.113   6.635 -0.3540 -0.5891 -2.2981
12760SOL     OW40286   3.891   6.296   1.190 -0.2631  0.3295  0.1415
12760SOL    HW140287   3.910   6.225   1.130  0.3671  1.0254 -0.5063
12760SOL    HW240288   3.796   6.295   1.199 -0.3948  0.3270 -1.0417
12761SOL     OW40289   4.319   2.218   5.870 -0.2930  0.6468  0.2680
12761SOL    HW140290   4.346   2.140   5.918 -1.8094  1.7846  3.2433
12761SOL    HW240291   4.396   2.274   5.869  1.2313 -1.1746 -3.0289
12762SOL     OW40292   3.662   1.000  10.223 -0.0624  0.1817  0.2579
12762SOL    HW140293   3.654   0.978  10.316  0.1356 -0.3120  0.1609
12762SOL    HW240294   3.725   0.937  10.189  0.7961  1.1467  0.0399
12763SOL     OW40295   2.192   1.748   4.957 -0.7654  0.8504 -0.1938
12763SOL    HW140296   2.199   1.827   5.012  1.1572 -0.2091  1.2074
12763SOL    HW240297   2.149   1.684   5.013  1.2556 -0.2636  0.1499
12764SOL     OW40298   5.808   1.993   3.170 -0.8597  0.6288  0.1224
12764SOL    HW140299   5.832   1.919   3.225 -2.2790 -1.1193 -1.4496
12764SOL    HW240300   5.891   2.028   3.139 -0.1087  0.8041  2.2518
12765SOL     OW40301  11.038   1.058   5.136  0.4338 -0.5560  0.5416
12765SOL    HW140302  10.986   0.978   5.144 -0.3315 -0.2778 -1.1607
12765SOL    HW240303  11.017   1.091   5.049 -0.2223  2.1381  1.6060
12766SOL     OW40304   7.195   8.459   8.509  0.3510  0.3500 -0.1210
12766SOL    HW140305   7.218   8.427   8.421  0.0854 -2.4401  0.7321
12766SOL    HW240306   7.243   8.401   8.568 -1.1142  0.8265  1.5932
12767SOL     OW40307   0.944   9.706   5.486  0.2127 -0.4751  0.0300
12767SOL    HW140308   0.936   9.621   5.443 -0.9435 -0.0909 -0.5642
12767SOL    HW240309   0.895   9.766   5.429  3.0026  1.0925 -0.8824
12768SOL     OW40310   0.944   0.435   6.316  0.1192  0.2476  0.6480
12768SOL    HW140311   1.015   0.492   6.346 -0.1681  0.4439  0.9576
12768SOL    HW240312   0.864   0.486   6.330 -0.3116 -0.8336  2.4897
12769SOL     OW40313   2.848   8.223  10.192 -0.6926  0.1391  0.4057
12769SOL    HW140314   2.832   8.207  10.284 -0.8782 -0.5508  0.2569
12769SOL    HW240315   2.882   8.313  10.188  0.5678 -0.2678  1.2773
12770SOL     OW40316   7.829   0.995   9.217 -0.2737 -0.5226  0.0966
12770SOL    HW140317   7.804   1.020   9.306 -0.4317 -1.0880  0.2126
12770SOL    HW240318   7.768   0.925   9.193  0.8927 -1.5994  0.2006
12771SOL     OW40319   3.702   7.782   6.566 -0.0360 -0.0389  0.4407
12771SOL    HW140320   3.794   7.761   6.579  0.7542  1.9712 -1.3499
12771SOL    HW240321   3.698   7.878   6.568 -1.5206  0.0745 -2.4556
12772SOL     OW40322   1.300  10.380   0.034 -0.2750  0.7613  0.2704
12772SOL    HW140323   1.388  10.409   0.009  0.6671 -1.5320  0.6691
12772SOL    HW240324   1.298  10.386   0.129 -0.6024  0.9423  0.2529
12773SOL     OW40325   1.384   1.654   2.723 -0.4423 -0.3886  0.5365
12773SOL    HW140326   1.402   1.563   2.697 -0.0166 -0.3306  0.6286
12773SOL    HW240327   1.303   1.676   2.676  0.2905 -0.3000 -0.7153
12774SOL     OW40328   3.502   6.833   4.262 -0.3297 -0.0853  0.0631
12774SOL    HW140329   3.586   6.799   4.292  0.7598  2.1393 -0.2579
12774SOL    HW240330   3.440   6.811   4.332  0.9202 -0.0399  1.2158
12775SOL     OW40331   1.493   2.908   5.800 -0.1727 -0.1705  0.0121
12775SOL    HW140332   1.466   2.829   5.845 -2.5354  0.2656 -0.5356
12775SOL    HW240333   1.501   2.974   5.869 -2.4467  0.1506  0.0474
12776SOL     OW40334   1.078   3.487   0.800  0.0077 -0.0036 -0.1018
12776SOL    HW140335   1.039   3.494   0.713  4.2304  0.9651 -2.2399
12776SOL    HW240336   1.083   3.393   0.817 -0.6161 -0.2304 -1.0718
12777SOL     OW40337   4.391   1.625   1.833 -0.7080 -0.0990 -0.7079
12777SOL    HW140338   4.328   1.583   1.774  0.1828 -1.2798 -0.8509
12777SOL    HW240339   4.364   1.598   1.920 -0.9216  0.1207 -0.7055
12778SOL     OW40340   2.390   5.865   4.442 -0.8079  0.1109  0.3398
12778SOL    HW140341   2.342   5.918   4.378 -1.6383 -1.6208 -0.5547
12778SOL    HW240342   2.468   5.917   4.463 -0.2774  0.5983 -2.4372
12779SOL     OW40343  10.000   3.753   2.120 -0.4598  0.2666  0.2011
12779SOL    HW140344   9.918   3.765   2.167 -1.8233 -1.6494 -1.5369
12779SOL    HW240345   9.992   3.806   2.041  0.6412  1.2406  0.7052
12780SOL     OW40346   2.080  10.028   4.025  0.3240  0.2180  0.2888
12780SOL    HW140347   2.107   9.981   4.103 -1.6145  1.4655  1.8214
12780SOL    HW240348   2.013   9.973   3.985  0.8775 -0.1287 -0.1889
12781SOL     OW40349   5.659   5.787   3.931  0.0890 -0.9024  0.4435
12781SOL    HW140350   5.650   5.744   4.016  0.4399 -2.3626 -0.2266
12781SOL    HW240351   5.741   5.836   3.938  0.3296 -1.3439  0.8221
12782SOL     OW40352   3.561   4.169   2.639  0.2459 -0.8822 -0.0565
12782SOL    HW140353   3.497   4.162   2.710  0.3216 -0.2989  0.0718
12782SOL    HW240354   3.560   4.261   2.614  2.0548 -0.5493  0.9116
12783SOL     OW40355   3.488   3.256   0.393  0.1031  0.5517 -0.0180
12783SOL    HW140356   3.565   3.298   0.430 -0.4916  1.7735 -0.1386
12783SOL    HW240357   3.418   3.272   0.457 -0.1136 -0.3723 -0.0021
12784SOL     OW40358   8.154   7.457   9.230 -1.0120  0.0619  0.9969
12784SOL    HW140359   8.119   7.371   9.208 -1.9857  0.9852 -1.5200
12784SOL    HW240360   8.239   7.461   9.187 -2.5432  1.5590 -2.2794
12785SOL     OW40361   0.472   8.677   4.490  0.7340 -0.2915  0.5800
12785SOL    HW140362   0.558   8.711   4.517  0.5103  1.0807 -0.3379
12785SOL    HW240363   0.487   8.640   4.403  0.2986  0.4457  0.1820
12786SOL     OW40364   7.596   3.980   8.495 -0.4245  0.6602  0.1637
12786SOL    HW140365   7.678   3.998   8.449  1.1053 -2.0073  1.5883
12786SOL    HW240366   7.530   3.977   8.426  0.8907  1.5639 -1.1971
12787SOL     OW40367   6.955   5.621   4.469 -0.0728  0.5019 -0.5301
12787SOL    HW140368   6.999   5.684   4.412  1.3486  0.7580  0.7612
12787SOL    HW240369   6.872   5.662   4.492  0.0383  1.0877 -1.1663
12788SOL     OW40370   9.174   3.874   9.606  0.0526 -0.3481 -0.6110
12788SOL    HW140371   9.082   3.888   9.628  0.0191 -0.6555 -0.5456
12788SOL    HW240372   9.190   3.930   9.529  0.8032  2.6027  1.5291
12789SOL     OW40373   0.318   2.210   4.976  0.0660  0.2770  0.3066
12789SOL    HW140374   0.312   2.286   4.919  2.5517  0.2099 -0.1299
12789SOL    HW240375   0.255   2.228   5.046 -1.6752  1.2210 -1.4201
12790SOL     OW40376   1.226   1.974   4.663  0.2122 -0.2405 -0.4443
12790SOL    HW140377   1.252   1.970   4.755 -1.2117  1.9236  0.1334
12790SOL    HW240378   1.156   1.908   4.656 -0.1890  0.1019  0.2252
12791SOL     OW40379   7.088   8.375   1.847 -0.4716 -0.1109  0.2056
12791SOL    HW140380   7.039   8.452   1.822 -1.7971 -0.4502  1.6294
12791SOL    HW240381   7.108   8.388   1.940  1.4700 -0.3594 -0.1237
12792SOL     OW40382   6.587   0.632   5.745  0.6348 -0.6144 -0.5273
12792SOL    HW140383   6.567   0.652   5.837 -1.6043  0.7613 -1.2583
12792SOL    HW240384   6.571   0.538   5.738  1.1107 -0.7926  0.5521
12793SOL     OW40385   3.539   3.963   3.639  0.5258  0.0738 -0.0092
12793SOL    HW140386   3.489   3.898   3.688 -1.5428 -0.3932 -2.4891
12793SOL    HW240387   3.475   4.029   3.614  1.0993 -0.3556 -3.0268
12794SOL     OW40388   8.450   9.588   6.728  0.1089  0.0229 -0.2106
12794SOL    HW140389   8.524   9.528   6.739  1.6900  1.5937 -1.6195
12794SOL    HW240390   8.420   9.571   6.639 -0.8609 -0.1811  0.1483
12795SOL     OW40391   0.436  10.857   4.476 -0.5281  0.3907  0.0738
12795SOL    HW140392   0.482  10.941   4.484  0.7308 -0.3745  1.3807
12795SOL    HW240393   0.478  10.801   4.541 -2.1582 -0.8994  0.0699
12796SOL     OW40394   8.378   6.712   5.318 -0.1656 -0.7417  0.0607
12796SOL    HW140395   8.384   6.625   5.358  0.2072 -2.2684 -3.0536
12796SOL    HW240396   8.289   6.741   5.338 -0.5897 -2.2268  0.4612
12797SOL     OW40397   3.165   2.662   0.422  0.3159  0.0247 -0.2138
12797SOL    HW140398   3.222   2.672   0.346  1.5607  1.3108  0.8229
12797SOL    HW240399   3.182   2.740   0.475 -1.1572 -0.4028  0.9768
12798SOL     OW40400   7.474   8.261   3.690 -0.1319 -0.6267 -0.3783
12798SOL    HW140401   7.461   8.351   3.659  2.5734 -0.4605 -1.2721
12798SOL    HW240402   7.385   8.226   3.697 -1.2636  1.9836 -0.3138
12799SOL     OW40403   7.419   8.115   9.829 -0.4069  0.0546 -0.0763
12799SOL    HW140404   7.373   8.082   9.752  0.9265 -1.5080 -0.2624
12799SOL    HW240405   7.506   8.138   9.796  0.3623 -1.1533  1.0234
12800SOL     OW40406  10.456   7.826  10.418  0.6947  0.1133 -0.4722
12800SOL    HW140407  10.434   7.896  10.357 -0.9156 -0.0264 -0.0767
12800SOL    HW240408  10.427   7.746  10.374 -1.0441  0.0628  0.6908
12801SOL     OW40409   0.193   3.176   5.810 -0.0192  0.0755  0.2127
12801SOL    HW140410   0.158   3.095   5.848 -0.4190 -0.2877 -0.9111
12801SOL    HW240411   0.174   3.243   5.876 -0.1772 -0.6403  0.9109
12802SOL     OW40412   5.411   3.251   9.015 -0.3403 -0.6125  0.4866
12802SOL    HW140413   5.474   3.322   9.023 -0.7202 -0.0235 -1.3947
12802SOL    HW240414   5.464   3.171   9.022  0.1569 -0.1752  2.0836
12803SOL     OW40415   4.817   7.821   6.605  0.0529  0.5331 -0.3527
12803SOL    HW140416   4.845   7.889   6.666 -1.8125 -0.0282  1.2450
12803SOL    HW240417   4.850   7.739   6.643 -1.7289  0.1045  0.3818
12804SOL     OW40418   9.572   4.472   7.282  0.0055 -0.3495  0.8272
12804SOL    HW140419   9.534   4.524   7.211 -2.0824 -0.8009  1.5230
12804SOL    HW240420   9.629   4.410   7.239 -2.6831 -1.9208 -0.7690
12805SOL     OW40421   0.290  10.132   3.782  0.4673  1.0040 -0.4259
12805SOL    HW140422   0.320  10.062   3.724  0.5409  0.7267 -0.0577
12805SOL    HW240423   0.341  10.209   3.755 -0.0849  1.0905 -1.2684
12806SOL     OW40424   3.296  10.730   9.078 -0.2913  0.0749 -0.5924
12806SOL    HW140425   3.223  10.757   9.134  0.5163 -0.9449  1.0051
12806SOL    HW240426   3.304  10.636   9.092  0.4187 -0.0795 -1.8721
12807SOL     OW40427  10.803   3.030  10.160 -0.0994 -0.0211 -0.4067
12807SOL    HW140428  10.717   3.044  10.199 -0.3425  1.8068 -1.4806
12807SOL    HW240429  10.785   3.012  10.068  0.6914  1.9130 -0.9818
12808SOL     OW40430   9.681   7.509  10.849  0.4796 -0.2580  0.2381
12808SOL    HW140431   9.693   7.414  10.854 -2.5603 -0.7531 -0.1095
12808SOL    HW240432   9.650   7.534  10.936 -1.1912 -0.0511 -0.3819
12809SOL     OW40433   1.497   8.814   2.860  0.4701 -0.0782 -0.2776
12809SOL    HW140434   1.584   8.810   2.898  0.9164  0.3996 -1.2107
12809SOL    HW240435   1.462   8.725   2.869  0.1869  0.2149  2.0234
12810SOL     OW40436   4.028   8.083   7.584  0.1799 -0.0549  0.5003
12810SOL    HW140437   4.053   8.111   7.496 -0.3778  1.0809  0.6784
12810SOL    HW240438   4.111   8.065   7.628  0.4171 -3.0490 -0.9538
12811SOL     OW40439   6.566   2.954   7.624 -0.1980 -0.5007 -0.4138
12811SOL    HW140440   6.641   2.927   7.571  0.5304 -1.1457  0.8898
12811SOL    HW240441   6.604   3.008   7.693 -1.1613  0.5864 -0.7167
12812SOL     OW40442   3.330   1.506   7.203  0.2574  0.5377 -0.3686
12812SOL    HW140443   3.263   1.569   7.229  1.5941  2.1146 -0.5561
12812SOL    HW240444   3.292   1.420   7.223 -0.4051  1.4728  2.9603
12813SOL     OW40445  10.573   9.327   6.328  0.3534 -0.4821  0.4460
12813SOL    HW140446  10.577   9.351   6.420 -0.4634 -1.9845  0.9123
12813SOL    HW240447  10.626   9.248   6.322  0.9784 -0.0034 -0.5284
12814SOL     OW40448   8.715   3.419  10.785 -0.7043  0.0311  0.2191
12814SOL    HW140449   8.642   3.383  10.734 -0.5759 -0.1496  0.1613
12814SOL    HW240450   8.729   3.355  10.854  0.3536 -0.6800 -0.6259
12815SOL     OW40451   8.853   5.996   2.036  0.3188 -0.1063 -0.1496
12815SOL    HW140452   8.757   6.000   2.037  0.1344 -2.7072  0.5023
12815SOL    HW240453   8.881   6.082   2.066 -1.8199  0.5016  0.2938
12816SOL     OW40454   8.252   6.482   5.148 -0.3047  0.3563 -0.6795
12816SOL    HW140455   8.256   6.433   5.065  3.8820  0.4915 -0.7570
12816SOL    HW240456   8.254   6.414   5.216 -2.5325  0.2930 -0.6052
12817SOL     OW40457   8.540   3.462   2.395 -0.3155 -0.5416 -1.2400
12817SOL    HW140458   8.633   3.480   2.377  0.0786 -1.0559  0.1151
12817SOL    HW240459   8.498   3.547   2.393  1.2325  0.6504  3.5778
12818SOL     OW40460  10.544   5.185   6.283  0.1472 -0.4369  0.1907
12818SOL    HW140461  10.470   5.222   6.333  0.9223  0.6065  0.6118
12818SOL    HW240462  10.556   5.097   6.319 -1.1434 -0.7846 -0.1693
12819SOL     OW40463   6.318   6.942   2.610  0.4606  0.2341  0.3627
12819SOL    HW140464   6.385   6.970   2.673  2.4764  0.5973 -1.7943
12819SOL    HW240465   6.291   7.022   2.566 -0.3784 -0.1060  0.2426
12820SOL     OW40466   0.865   7.546   1.923  0.2414 -0.2690 -0.6298
12820SOL    HW140467   0.830   7.457   1.912  3.1639 -1.4624 -1.1641
12820SOL    HW240468   0.792   7.603   1.901 -1.9247 -2.4954  0.2552
12821SOL     OW40469   0.552  10.916   0.481 -0.4420 -0.2333 -0.3761
12821SOL    HW140470   0.540  10.877   0.567 -0.0735  2.3356  0.9477
12821SOL    HW240471   0.464  10.941   0.453 -0.3380  1.2217  0.4836
12822SOL     OW40472   8.596   2.991   3.544  0.3428  0.1983 -0.2355
12822SOL    HW140473   8.649   3.056   3.498 -0.0078  0.0212 -0.8966
12822SOL    HW240474   8.603   2.912   3.490  1.1647 -0.4782  0.8147
12823SOL     OW40475   4.122   6.421   2.787 -0.2588  0.3601 -0.8276
12823SOL    HW140476   4.197   6.481   2.786  1.0179 -1.1732 -0.2668
12823SOL    HW240477   4.059   6.464   2.846  0.7321  1.0192 -0.2159
12824SOL     OW40478   9.451   6.326   6.304  0.0655  0.3745  0.1802
12824SOL    HW140479   9.482   6.290   6.222 -0.9402  1.6403 -0.8094
12824SOL    HW240480   9.488   6.415   6.307 -3.0393  1.8697 -0.9447
12825SOL     OW40481   4.062   0.639   0.411  0.2203  0.1732  0.4989
12825SOL    HW140482   4.034   0.702   0.477 -3.2146  1.1344 -1.6114
12825SOL    HW240483   4.092   0.693   0.338  0.0633 -0.7456 -0.2633
12826SOL     OW40484   7.443   6.956   0.611  0.1279 -0.1431 -0.5076
12826SOL    HW140485   7.387   6.881   0.590 -0.9992  0.3093  0.7364
12826SOL    HW240486   7.526   6.937   0.568 -0.6647 -1.3174 -1.5679
12827SOL     OW40487   3.866   2.696  10.263 -0.4140 -0.0051 -0.2932
12827SOL    HW140488   3.785   2.671  10.308 -0.5929  1.2139  0.1123
12827SOL    HW240489   3.872   2.791  10.277  0.4339  0.1184 -1.3843
12828SOL     OW40490   8.166   3.337   3.695  0.3835 -0.4882  0.3930
12828SOL    HW140491   8.147   3.245   3.715  2.3581 -1.3051 -1.1676
12828SOL    HW240492   8.179   3.378   3.781 -2.0804 -1.2302  1.2081
12829SOL     OW40493   8.465   8.494   0.598  0.1769  0.2735  0.0095
12829SOL    HW140494   8.398   8.466   0.660  0.6603  0.1920  0.5016
12829SOL    HW240495   8.430   8.469   0.512  0.1374 -0.9229  0.3545
12830SOL     OW40496  10.515   8.691   0.748  0.7486 -0.4061 -0.1213
12830SOL    HW140497  10.544   8.620   0.690  1.2210 -1.3978  1.2671
12830SOL    HW240498  10.588   8.753   0.750  0.5824 -0.1851 -0.8637
12831SOL     OW40499   8.109   1.104   3.699  0.1843 -0.1210  0.2605
12831SOL    HW140500   8.095   1.164   3.772 -0.0635  0.6322 -0.3835
12831SOL    HW240501   8.026   1.104   3.651  1.4322  2.5538 -2.2755
12832SOL     OW40502   3.967   4.777   0.489  0.4602 -0.4356  0.9400
12832SOL    HW140503   3.928   4.748   0.407 -0.0327  2.9163 -0.1405
12832SOL    HW240504   4.059   4.792   0.469  0.2281  0.9130  0.8036
12833SOL     OW40505   8.710   3.530  10.319  0.2471  0.0629  0.0448
12833SOL    HW140506   8.715   3.437  10.295 -2.7561 -0.3302  0.4428
12833SOL    HW240507   8.747   3.577  10.245  0.9266 -1.4280 -0.5927
12834SOL     OW40508   7.249   4.267   3.846 -0.3995 -0.3762 -0.0797
12834SOL    HW140509   7.158   4.254   3.870 -0.1529 -1.3214  0.4003
12834SOL    HW240510   7.264   4.361   3.858 -1.0223 -0.3905  0.9090
12835SOL     OW40511   6.705   7.063   0.707 -0.1217 -1.1177  0.4521
12835SOL    HW140512   6.720   7.019   0.791 -0.2900 -0.8511  0.6222
12835SOL    HW240513   6.780   7.123   0.698 -1.8234  1.4384  2.0906
12836SOL     OW40514   2.697   6.355   6.209  0.0161  0.3204 -0.2168
12836SOL    HW140515   2.641   6.429   6.185 -0.3588  0.5196  1.2035
12836SOL    HW240516   2.720   6.315   6.125 -2.2515  0.2310 -0.8658
12837SOL     OW40517   0.178   8.787   3.448 -0.8859  0.1089 -0.2836
12837SOL    HW140518   0.265   8.772   3.410 -0.4181 -0.0646  0.8098
12837SOL    HW240519   0.122   8.807   3.373  0.1629  0.5336 -0.9735
12838SOL     OW40520  10.268   5.897   2.712  0.3942 -0.3407  0.3771
12838SOL    HW140521  10.228   5.955   2.777 -2.1387 -0.9762 -0.4700
12838SOL    HW240522  10.303   5.956   2.646 -2.4828  0.3516 -0.6709
12839SOL     OW40523   0.909   1.899   1.905  0.6086 -0.0897 -0.0620
12839SOL    HW140524   0.935   1.851   1.825  0.3690  0.0547 -0.2253
12839SOL    HW240525   0.868   1.832   1.960 -1.3171  0.2558 -1.0054
12840SOL     OW40526   4.939   9.332   3.550 -0.5766 -0.4378 -0.1982
12840SOL    HW140527   4.929   9.256   3.493 -1.2910 -1.0892  0.7530
12840SOL    HW240528   4.853   9.375   3.548 -0.0847  0.5340 -0.9741
12841SOL     OW40529   1.675   9.475   9.872  0.1064 -0.2191  0.3770
12841SOL    HW140530   1.710   9.523   9.797  0.0873 -0.0618  0.4680
12841SOL    HW240531   1.691   9.532   9.947 -1.9221  0.6653  0.2010
12842SOL     OW40532   1.003   1.899  10.668  0.2833  0.2153 -0.1245
12842SOL    HW140533   1.038   1.860  10.747 -1.7248  0.1422  0.7967
12842SOL    HW240534   1.073   1.957  10.636  1.2480  0.0054  1.5105
12843SOL     OW40535   3.271   3.019   7.168 -0.6644  0.6519 -0.0775
12843SOL    HW140536   3.359   2.999   7.136 -1.1659 -1.6246 -0.2187
12843SOL    HW240537   3.269   3.114   7.176  1.5726  0.8047 -0.7250
12844SOL     OW40538   0.599   3.954   5.038  0.0397 -0.4426  0.0659
12844SOL    HW140539   0.539   3.880   5.042 -1.5072  0.6611 -1.3236
12844SOL    HW240540   0.680   3.918   5.003 -1.2904 -1.2142 -2.4492
12845SOL     OW40541   9.554   2.881   7.923 -0.1922  0.0756  0.9170
12845SOL    HW140542   9.606   2.912   7.997  0.3104  0.1493  0.5377
12845SOL    HW240543   9.618   2.849   7.860 -0.6912 -3.4479  2.0112
12846SOL     OW40544   7.369   0.212   3.384 -0.3443  0.0278  0.4624
12846SOL    HW140545   7.452   0.252   3.358  0.1856 -1.5263 -0.3591
12846SOL    HW240546   7.303   0.279   3.364  0.5180  0.5450 -0.7811
12847SOL     OW40547   6.454   2.828   5.488  0.2612 -0.5623  0.2616
12847SOL    HW140548   6.369   2.872   5.488  1.3287  1.6191  0.3983
12847SOL    HW240549   6.454   2.774   5.409 -0.6961  0.5750 -0.5363
12848SOL     OW40550   7.421   0.907   4.360  0.1711  0.6443  0.6124
12848SOL    HW140551   7.403   0.838   4.424 -0.8431 -0.3991 -0.7331
12848SOL    HW240552   7.447   0.860   4.281 -3.4170  1.5276 -1.3088
12849SOL     OW40553   9.363   8.990   1.474 -0.2232 -0.0314 -0.0143
12849SOL    HW140554   9.300   9.011   1.543 -1.1937 -1.2887 -0.4819
12849SOL    HW240555   9.315   9.000   1.393  0.3699 -0.3445 -0.4138
12850SOL     OW40556   6.414   1.794   5.648  0.4562 -0.2802 -0.0256
12850SOL    HW140557   6.433   1.805   5.555 -1.9858 -0.2080 -0.5865
12850SOL    HW240558   6.318   1.792   5.653  0.5018  0.2135  2.5526
12851SOL     OW40559   8.614  10.187  10.835 -0.0376  0.6355 -0.3888
12851SOL    HW140560   8.529  10.204  10.795 -0.5423 -0.5840  0.1096
12851SOL    HW240561   8.675  10.243  10.787 -0.9378  0.6989 -1.5018
12852SOL     OW40562   9.334  10.126   6.091  0.0068 -0.8577 -0.5641
12852SOL    HW140563   9.265  10.106   6.028 -1.0604 -1.6895  0.8089
12852SOL    HW240564   9.292  10.184   6.155  1.0680 -0.0113 -0.6074
12853SOL     OW40565   4.072   5.323   0.598 -0.2013 -0.1095  0.2886
12853SOL    HW140566   4.093   5.328   0.505  1.4804 -1.5690  0.5269
12853SOL    HW240567   4.071   5.414   0.628 -1.9692  0.4801 -1.3503
12854SOL     OW40568  10.757   0.320  10.884 -0.8210 -0.7653 -0.4437
12854SOL    HW140569  10.740   0.365  10.801  0.5913 -0.1326 -0.4219
12854SOL    HW240570  10.807   0.242  10.860  2.1921  0.8763 -0.0628
12855SOL     OW40571   7.600   9.917   0.675 -0.3587  0.1560  0.4261
12855SOL    HW140572   7.575   9.911   0.583  1.5379  0.4461 -0.1620
12855SOL    HW240573   7.696   9.923   0.673 -0.2305 -0.5249  2.4582
12856SOL     OW40574   2.952   5.396   2.212  0.2967  0.5715  0.3374
12856SOL    HW140575   2.946   5.421   2.120 -1.7811  2.2374  0.8480
12856SOL    HW240576   2.974   5.303   2.210 -0.9312  0.2596 -1.8768
12857SOL     OW40577   7.351   1.006  11.088  0.1611  0.6243 -0.2045
12857SOL    HW140578   7.443   0.986  11.102  0.1612  2.5384  3.9006
12857SOL    HW240579   7.352   1.086  11.036  0.7635  0.1807 -0.8909
12858SOL     OW40580   9.841   4.467   7.172  0.4030  0.2290  0.3851
12858SOL    HW140581   9.842   4.381   7.129  0.3296 -0.1258  1.0861
12858SOL    HW240582   9.844   4.530   7.099  2.4951 -0.3540 -0.0842
12859SOL     OW40583   0.124  10.619   3.391  0.2544  0.6767 -0.5908
12859SOL    HW140584   0.178  10.559   3.339  1.7086  0.5156  1.0205
12859SOL    HW240585   0.114  10.696   3.335  0.7296  0.0352 -1.5852
12860SOL     OW40586  10.531   5.103   4.029 -0.0581 -0.4879 -0.1634
12860SOL    HW140587  10.450   5.124   4.075 -0.9064 -2.1432 -0.7879
12860SOL    HW240588  10.577   5.186   4.020 -1.7579  0.5165  0.0837
12861SOL     OW40589  10.371   8.065   2.480 -0.2514  0.5099  0.7764
12861SOL    HW140590  10.372   7.997   2.548 -0.1887  0.1308  0.3954
12861SOL    HW240591  10.464   8.083   2.464 -0.1684 -1.0993 -0.8962
12862SOL     OW40592  10.817   5.919   1.729 -0.1391 -0.2959 -0.1048
12862SOL    HW140593  10.726   5.948   1.716 -0.3315 -1.4213 -1.4719
12862SOL    HW240594  10.809   5.841   1.783  0.0309 -0.2918 -0.0748
12863SOL     OW40595   8.592   2.070   8.559  0.3307 -0.0187 -0.4293
12863SOL    HW140596   8.651   1.997   8.540  0.8290  0.4215 -0.6117
12863SOL    HW240597   8.638   2.122   8.626 -0.1419 -0.0170 -0.0942
12864SOL     OW40598   3.822   7.254  10.845 -0.6761 -0.2906 -0.4086
12864SOL    HW140599   3.732   7.284  10.852 -0.4338  0.5055 -0.5509
12864SOL    HW240600   3.843   7.261  10.751 -0.1485  0.5294 -0.2415
12865SOL     OW40601   0.310   2.771   1.846  0.1177  0.7994 -0.2806
12865SOL    HW140602   0.347   2.689   1.815  2.1792  1.9752 -1.1079
12865SOL    HW240603   0.244   2.794   1.780 -0.2845 -0.0336 -0.1814
12866SOL     OW40604   9.461   8.807   2.779 -0.2012  0.5988 -0.0325
12866SOL    HW140605   9.538   8.757   2.750 -0.8882 -0.2541 -0.4269
12866SOL    HW240606   9.494   8.895   2.793  1.3323 -0.2134  1.8963
12867SOL     OW40607   9.534   1.121   3.587  0.2006  0.0642 -0.0444
12867SOL    HW140608   9.523   1.131   3.492 -1.3155 -1.2404 -0.0387
12867SOL    HW240609   9.584   1.040   3.596  2.4212  1.3699  0.2588
12868SOL     OW40610   6.936   7.630   0.498  0.4526  0.3069  0.2458
12868SOL    HW140611   6.935   7.547   0.450  1.4386  0.8413 -0.7537
12868SOL    HW240612   7.012   7.677   0.462 -0.0927  1.6391  0.7849
12869SOL     OW40613   6.862   1.305   3.531  0.5639  0.8465 -0.0293
12869SOL    HW140614   6.781   1.257   3.514  0.8817  0.2018  0.2370
12869SOL    HW240615   6.907   1.253   3.598  1.1311  1.2712 -0.0725
12870SOL     OW40616   4.045   8.579   3.034  0.1287 -0.1499 -0.5988
12870SOL    HW140617   4.122   8.617   3.078 -0.1169 -1.0995  0.7270
12870SOL    HW240618   4.082   8.526   2.963  0.6350  0.1477 -0.5648
12871SOL     OW40619   8.433   8.821   2.146  0.1536  0.6216 -0.3956
12871SOL    HW140620   8.474   8.776   2.073 -0.1556 -0.2286 -0.0533
12871SOL    HW240621   8.443   8.914   2.125  5.2100  0.7367  1.1698
12872SOL     OW40622   5.065   4.169   0.628  0.0457 -0.7237 -0.2391
12872SOL    HW140623   5.125   4.224   0.578  1.3447 -1.7707  0.1091
12872SOL    HW240624   5.044   4.097   0.569 -0.5573 -0.5691 -0.2167
12873SOL     OW40625   2.916   0.471   4.273 -0.4760  0.1694  0.3444
12873SOL    HW140626   2.901   0.387   4.317  0.1925 -0.0550  0.1466
12873SOL    HW240627   2.848   0.529   4.309 -1.9740 -0.8762 -0.6731
12874SOL     OW40628   0.413   8.469  10.589  0.5671 -0.3643 -0.1838
12874SOL    HW140629   0.371   8.460  10.674  0.1113  1.1497 -0.2280
12874SOL    HW240630   0.364   8.410  10.532 -0.4968  0.1858  0.1336
12875SOL     OW40631   7.508   4.984   9.762  0.0843  0.4461 -0.3223
12875SOL    HW140632   7.479   5.058   9.709  1.0490  0.5251 -0.7551
12875SOL    HW240633   7.579   4.944   9.712 -1.5556 -1.8607 -0.9477
12876SOL     OW40634   4.063   9.615  10.828  0.1814 -0.1278  0.3747
12876SOL    HW140635   4.133   9.550  10.829 -0.1214 -0.5316 -1.3395
12876SOL    HW240636   4.103   9.694  10.864  1.1000 -0.7452  0.7480
12877SOL     OW40637   4.960   8.034   5.593 -0.1374  0.1448 -0.1235
12877SOL    HW140638   4.999   7.951   5.565  2.2026  1.4662 -1.0238
12877SOL    HW240639   4.869   8.029   5.564  0.0961 -1.8754 -0.6274
12878SOL     OW40640   7.671   9.789   6.142  0.1840 -0.7516 -0.1544
12878SOL    HW140641   7.694   9.781   6.049  0.5386  1.5291 -0.3222
12878SOL    HW240642   7.746   9.834   6.181 -0.6862 -0.1552  0.8821
12879SOL     OW40643   6.385   8.888   5.926 -0.7681 -0.2998 -0.3263
12879SOL    HW140644   6.347   8.819   5.871 -0.6494  0.4361 -1.3673
12879SOL    HW240645   6.427   8.841   5.998  0.2348 -1.4024 -1.5674
12880SOL     OW40646   5.720   3.629   8.230  0.4297  0.9182 -0.0021
12880SOL    HW140647   5.681   3.545   8.207  1.7877  0.3979 -0.5114
12880SOL    HW240648   5.799   3.634   8.177  0.4237  2.4872  0.0837
12881SOL     OW40649   1.120   9.549   5.770  0.3940 -0.8133  0.3386
12881SOL    HW140650   1.128   9.521   5.679  0.3242  0.2653 -0.0214
12881SOL    HW240651   1.030   9.580   5.777 -0.0373 -2.1975  1.1804
12882SOL     OW40652   2.019   4.986   1.227  0.1303 -0.2362 -0.2054
12882SOL    HW140653   1.999   4.985   1.134  0.4344  0.5630 -0.2834
12882SOL    HW240654   1.950   4.932   1.267  1.7146 -3.2150 -1.1895
12883SOL     OW40655   0.043   0.220   6.879  0.3310  0.2310 -0.0197
12883SOL    HW140656   0.087   0.158   6.937  0.8128  1.4473  0.9725
12883SOL    HW240657  -0.042   0.179   6.860  0.6412 -0.7322  0.5851
12884SOL     OW40658   8.908   4.978   6.107 -0.2677  0.3292 -0.3447
12884SOL    HW140659   8.861   4.964   6.189  1.5187  0.1202  0.6971
12884SOL    HW240660   8.938   4.892   6.081 -1.5217  0.2700 -1.7062
12885SOL     OW40661   5.405   2.622   0.313 -0.4221 -0.0119  0.1498
12885SOL    HW140662   5.358   2.703   0.334 -0.3529  0.1460 -0.2967
12885SOL    HW240663   5.478   2.620   0.375 -0.3480  0.3343  0.0789
12886SOL     OW40664  10.161   9.556   5.869  0.3136 -0.1845 -0.1139
12886SOL    HW140665  10.215   9.576   5.792 -0.7673 -0.1824 -0.8841
12886SOL    HW240666  10.105   9.484   5.842  0.6526 -0.9094  1.0316
12887SOL     OW40667   9.318   9.218  10.615 -0.0519  0.1208  0.1799
12887SOL    HW140668   9.410   9.246  10.622 -0.1415  0.6803 -0.7409
12887SOL    HW240669   9.319   9.154  10.543  0.0955 -2.0897  2.0384
12888SOL     OW40670   7.674   2.235   4.911 -0.5288  0.6646 -0.5079
12888SOL    HW140671   7.730   2.157   4.914 -1.2675  0.1607  0.4514
12888SOL    HW240672   7.639   2.244   4.999  0.3174  2.6842 -0.3102
12889SOL     OW40673   0.510   6.994   0.749 -0.1885 -0.5218  0.3985
12889SOL    HW140674   0.581   6.943   0.788 -0.6127 -4.1323 -2.8809
12889SOL    HW240675   0.433   6.970   0.800 -0.1626 -2.4169 -0.3686
12890SOL     OW40676   4.802   6.679  11.019 -0.8067  0.4038  0.0821
12890SOL    HW140677   4.731   6.743  11.009 -0.9178  0.2979  0.1913
12890SOL    HW240678   4.757   6.597  11.040 -0.5989  0.5541  1.1863
12891SOL     OW40679   3.686   8.097   4.614 -0.1763 -0.4240  1.0230
12891SOL    HW140680   3.597   8.109   4.647 -0.4887 -0.4784  0.2215
12891SOL    HW240681   3.721   8.025   4.667  0.0348  0.7450  2.5535
12892SOL     OW40682   5.652   4.851   3.423 -0.1485 -0.3283  0.3939
12892SOL    HW140683   5.709   4.808   3.485  0.2722 -1.5023 -0.7678
12892SOL    HW240684   5.567   4.855   3.466  0.4022 -0.0592  1.4776
12893SOL     OW40685   6.465   8.181   3.913  0.5634  0.0076  0.1537
12893SOL    HW140686   6.387   8.163   3.966  0.8218 -0.1417  0.4878
12893SOL    HW240687   6.455   8.272   3.886 -1.2529 -0.8263 -2.3933
12894SOL     OW40688   6.548   5.090   2.489  0.0007  0.4749  0.6325
12894SOL    HW140689   6.564   5.156   2.556  2.1192  2.1714 -1.3700
12894SOL    HW240690   6.460   5.109   2.458  0.4494  2.2212  0.3202
12895SOL     OW40691   0.377   1.336   8.634 -0.0820 -0.3948 -0.6131
12895SOL    HW140692   0.303   1.309   8.580 -0.2485  1.4821 -1.3970
12895SOL    HW240693   0.383   1.430   8.621  1.4730 -0.2747  0.6825
12896SOL     OW40694   7.065   3.309   3.283  0.3076  0.3709 -0.7280
12896SOL    HW140695   7.021   3.309   3.367 -0.1485 -2.6396 -0.8528
12896SOL    HW240696   7.068   3.401   3.257  0.3668  1.3866  2.4644
12897SOL     OW40697   9.076   3.453   3.726  0.3041  0.0417  0.1890
12897SOL    HW140698   9.169   3.436   3.740  0.3673  1.2034  1.3911
12897SOL    HW240699   9.038   3.451   3.814 -0.8472 -0.5270 -0.2944
12898SOL     OW40700   1.133   8.209  11.000  0.4495  0.1824  0.9276
12898SOL    HW140701   1.205   8.218  11.063  1.1110  0.5175  0.1312
12898SOL    HW240702   1.152   8.128  10.953  2.2401  1.9721 -1.6651
12899SOL     OW40703   2.194   2.950   2.462 -0.5170 -0.8667  0.5691
12899SOL    HW140704   2.169   2.954   2.369  0.1951  0.8718  0.4134
12899SOL    HW240705   2.119   2.909   2.505 -1.4503 -0.4364 -0.5839
12900SOL     OW40706   6.312   7.400   1.785  0.1574  0.5127 -0.1912
12900SOL    HW140707   6.387   7.413   1.727  0.7801  0.5182  0.5888
12900SOL    HW240708   6.251   7.470   1.762  0.2126  0.2583 -1.1139
12901SOL     OW40709   1.543   2.254   7.249 -0.5322 -0.0720 -0.3946
12901SOL    HW140710   1.568   2.305   7.172 -0.0832  1.3057  0.6145
12901SOL    HW240711   1.606   2.281   7.317 -0.5771 -1.6457  0.3074
12902SOL     OW40712   2.280  10.249   4.480 -0.2680 -0.0753  0.2196
12902SOL    HW140713   2.350  10.224   4.540 -1.7545 -1.1191  1.6065
12902SOL    HW240714   2.204  10.264   4.536 -1.3743  0.2176 -1.2864
12903SOL     OW40715   3.446   5.974   8.012  0.1573 -0.6464 -0.1392
12903SOL    HW140716   3.370   5.964   8.070 -0.8759 -1.2876 -1.5104
12903SOL    HW240717   3.442   6.065   7.983 -0.0621 -0.6535 -0.1398
12904SOL     OW40718   7.780   8.803   2.023  0.4673 -0.8039 -0.2523
12904SOL    HW140719   7.770   8.890   2.061  3.1010 -1.3428  1.9140
12904SOL    HW240720   7.740   8.744   2.086  0.7071 -1.3669 -0.6183
12905SOL     OW40721   1.350   8.975   1.293  0.5807  0.1346 -0.5583
12905SOL    HW140722   1.309   8.922   1.225  0.0812 -2.7837  1.7997
12905SOL    HW240723   1.437   8.936   1.304  0.2366 -0.2278  1.1733
12906SOL     OW40724   5.723   9.057   6.497  0.0019  0.2070  0.1524
12906SOL    HW140725   5.632   9.032   6.480 -0.0750  0.1429  0.6320
12906SOL    HW240726   5.736   9.035   6.589  0.2075  1.1258  0.3516
12907SOL     OW40727   9.702   9.457   8.448 -0.2531 -0.5909 -0.3569
12907SOL    HW140728   9.679   9.505   8.528  1.6721  0.6881 -0.5120
12907SOL    HW240729   9.633   9.390   8.440 -1.8646  0.7999  1.0123
12908SOL     OW40730   8.310   5.577   5.831  0.6441 -0.1414 -0.5759
12908SOL    HW140731   8.281   5.507   5.890  1.6181 -0.2947 -0.2711
12908SOL    HW240732   8.246   5.574   5.759  0.2067 -0.8163 -0.1807
12909SOL     OW40733   4.545   5.312   2.290  0.0912  0.3559 -0.4740
12909SOL    HW140734   4.572   5.229   2.331  1.7244 -0.2868 -2.6522
12909SOL    HW240735   4.562   5.378   2.358  1.8977 -0.7301  0.2265
12910SOL     OW40736   6.137   2.084   8.912  0.2164  0.1486  0.2631
12910SOL    HW140737   6.146   2.157   8.973 -2.9533 -0.5356  1.7874
12910SOL    HW240738   6.119   2.126   8.828  0.0622  1.1415  0.7694
12911SOL     OW40739  10.278  10.690   2.416  0.1529 -0.0191  0.3431
12911SOL    HW140740  10.287  10.649   2.330  1.4521 -0.9493  0.8792
12911SOL    HW240741  10.295  10.619   2.478 -0.5391  0.6843  1.3661
12912SOL     OW40742   9.786   4.123   2.367  0.1168  0.4546 -0.1995
12912SOL    HW140743   9.746   4.041   2.337  0.6775  0.1973 -0.2685
12912SOL    HW240744   9.866   4.095   2.411 -0.6301  0.8410  1.4488
12913SOL     OW40745   2.650   2.285   8.056  0.6621  0.1914 -0.3203
12913SOL    HW140746   2.573   2.332   8.089  1.1438  0.3839  0.5332
12913SOL    HW240747   2.636   2.194   8.082 -0.4349 -0.2539 -2.2613
12914SOL     OW40748   5.767   8.052   2.898  0.0951  0.9393 -0.3780
12914SOL    HW140749   5.829   8.117   2.865  1.3871 -0.4319 -0.7298
12914SOL    HW240750   5.812   7.968   2.889 -1.6624 -0.0698 -0.2656
12915SOL     OW40751   8.964   1.214   0.087 -0.2882  0.2047 -0.2184
12915SOL    HW140752   8.925   1.285   0.137  0.3901  0.1811  0.3749
12915SOL    HW240753   9.020   1.257   0.023  0.2449  0.2191  0.2437
12916SOL     OW40754   4.261   4.844  10.534  0.3743  0.2263 -0.5851
12916SOL    HW140755   4.237   4.857  10.443  0.6566 -1.0032 -0.8536
12916SOL    HW240756   4.177   4.835  10.580  0.2189 -2.0863 -1.2119
12917SOL     OW40757   1.682   1.263   4.360  0.0836 -0.8779 -0.1334
12917SOL    HW140758   1.670   1.234   4.451  2.2749  4.4228  2.2991
12917SOL    HW240759   1.610   1.323   4.344 -0.1077 -1.5276 -1.8900
12918SOL     OW40760   2.912   7.431   3.122 -0.3417  0.2446  0.4240
12918SOL    HW140761   2.877   7.494   3.184  2.9755  1.3826  1.3426
12918SOL    HW240762   2.920   7.350   3.172  1.5133  0.9330  1.3344
12919SOL     OW40763   9.257   5.502   3.809 -0.3777 -0.2648 -0.0999
12919SOL    HW140764   9.285   5.492   3.718 -3.2137 -0.6299 -1.0262
12919SOL    HW240765   9.215   5.418   3.831  2.6429 -1.2759  2.5698
12920SOL     OW40766   3.863   9.467   0.879 -1.2953  0.4755  0.3946
12920SOL    HW140767   3.782   9.507   0.850 -2.1821 -0.7014  1.1703
12920SOL    HW240768   3.857   9.376   0.850  0.8442  0.9102 -1.6768
12921SOL     OW40769   5.171   1.896   9.752  0.4427 -0.6036 -0.0168
12921SOL    HW140770   5.148   1.989   9.750 -1.6826 -1.0241  1.5712
12921SOL    HW240771   5.094   1.853   9.790  2.7944 -2.5582  2.9557
12922SOL     OW40772   7.452   7.454   5.610 -0.0284 -0.3092  0.0486
12922SOL    HW140773   7.442   7.450   5.515  0.5907  1.7435 -0.1414
12922SOL    HW240774   7.397   7.382   5.642  1.4914 -2.5288 -1.9218
12923SOL     OW40775   9.315   0.731  10.029  0.8215  0.3627  0.1852
12923SOL    HW140776   9.262   0.752  10.106  1.5907  1.2890  0.4735
12923SOL    HW240777   9.253   0.730   9.956 -0.0330 -1.1805  0.8932
12924SOL     OW40778   2.236   5.794   9.401 -0.3800  0.8635 -0.1699
12924SOL    HW140779   2.217   5.781   9.309 -0.3030  1.6529 -0.3021
12924SOL    HW240780   2.326   5.763   9.412 -1.0204 -1.0187  0.0497
12925SOL     OW40781   2.317   0.790   7.991  0.2521 -0.3811  0.0619
12925SOL    HW140782   2.375   0.845   7.939 -0.6252 -0.4470 -1.0341
12925SOL    HW240783   2.358   0.786   8.077 -0.1262  2.8384  0.5451
12926SOL     OW40784  10.769   9.815   9.357  0.3504 -0.3446 -0.0132
12926SOL    HW140785  10.682   9.822   9.317 -0.2089  0.1495  1.2201
12926SOL    HW240786  10.780   9.722   9.374 -0.2712 -0.3303  0.5097
12927SOL     OW40787   8.189   9.704   4.966 -0.0514  0.3004 -0.3761
12927SOL    HW140788   8.254   9.772   4.986 -0.4081  0.7265 -0.6437
12927SOL    HW240789   8.152   9.681   5.051  1.0552 -0.5821 -0.1002
12928SOL     OW40790   3.166   5.916   0.570  0.6808 -0.3302 -0.3033
12928SOL    HW140791   3.261   5.926   0.577  0.4956  0.0681  3.4730
12928SOL    HW240792   3.148   5.828   0.604 -0.3676  0.1334  0.3985
12929SOL     OW40793  10.283   7.987   3.643 -0.4240 -0.0339  0.4372
12929SOL    HW140794  10.214   7.938   3.688 -0.4402 -1.8115 -1.3406
12929SOL    HW240795  10.237   8.029   3.570  0.4223 -2.1270 -1.4198
12930SOL     OW40796   3.550   5.098  10.649  0.5203 -0.1540  0.0704
12930SOL    HW140797   3.466   5.131  10.619  0.5039 -1.4566 -1.4417
12930SOL    HW240798   3.556   5.010  10.612  2.4247 -0.1947  0.3684
12931SOL     OW40799   6.819   9.296   5.270  0.4629  0.0204  0.3146
12931SOL    HW140800   6.835   9.203   5.258  0.0916 -0.0033 -0.0305
12931SOL    HW240801   6.821   9.309   5.365  1.4702 -0.1577  0.3272
12932SOL     OW40802   0.225  10.005   0.462  0.2078 -0.5385  0.3365
12932SOL    HW140803   0.284   9.979   0.391 -1.8793 -0.5078 -1.5094
12932SOL    HW240804   0.138  10.002   0.423 -0.9000  0.9201  2.5166
12933SOL     OW40805   0.059   5.522   8.178  0.6577  0.2725  1.0039
12933SOL    HW140806  -0.002   5.532   8.105 -1.7995  2.3683  3.1346
12933SOL    HW240807   0.004   5.493   8.252  2.8760 -0.9586  2.2806
12934SOL     OW40808   4.156   1.202   8.610 -0.0637  0.0058 -0.0252
12934SOL    HW140809   4.160   1.154   8.528 -1.2752  0.0102 -0.1099
12934SOL    HW240810   4.243   1.192   8.649  1.1939  1.6414 -2.1985
12935SOL     OW40811   9.880   2.124   1.769  0.0053  0.4898 -0.3836
12935SOL    HW140812   9.955   2.086   1.722 -0.2061  0.4041 -0.6603
12935SOL    HW240813   9.918   2.163   1.847  0.1215 -1.1749  0.4448
12936SOL     OW40814  11.074   4.143   3.887 -0.5606 -0.1949  0.2078
12936SOL    HW140815  11.152   4.121   3.939  1.8661 -2.6249 -3.8963
12936SOL    HW240816  11.074   4.239   3.883  2.1903 -0.1040  0.5420
12937SOL     OW40817   8.830   1.163   7.850  0.1885  0.6639  0.4174
12937SOL    HW140818   8.909   1.118   7.820 -0.7715 -2.3580  1.9756
12937SOL    HW240819   8.815   1.232   7.785  3.8859  1.1822 -0.0798
12938SOL     OW40820   9.473   1.463   6.266 -0.0310  0.2315 -0.0502
12938SOL    HW140821   9.495   1.380   6.310 -0.3374 -0.0238 -0.3721
12938SOL    HW240822   9.475   1.528   6.335 -1.5280 -0.3266  0.5518
12939SOL     OW40823   7.196   7.547   6.037 -0.4693 -0.4012 -0.5290
12939SOL    HW140824   7.276   7.494   6.041  0.4095  0.8235 -1.1985
12939SOL    HW240825   7.213   7.621   6.094 -1.7778 -0.9049  0.5747
12940SOL     OW40826   1.590   5.712   3.863  0.0962 -0.3376 -0.3923
12940SOL    HW140827   1.499   5.733   3.883  0.0868  0.8340 -1.5452
12940SOL    HW240828   1.600   5.733   3.770  1.5309 -0.4836 -0.2994
12941SOL     OW40829   9.274  10.460   7.656 -0.2073  0.4267 -0.1081
12941SOL    HW140830   9.300  10.481   7.746 -0.2234  2.2317 -0.4903
12941SOL    HW240831   9.322  10.380   7.635 -0.6880 -0.3949  1.7055
12942SOL     OW40832  10.572   6.308   7.518 -0.0535  0.0770  0.3499
12942SOL    HW140833  10.602   6.382   7.572 -2.6160  0.3149  1.5939
12942SOL    HW240834  10.550   6.240   7.582  2.8126 -2.1378 -0.7901
12943SOL     OW40835   0.898   3.612   5.788 -0.3973  0.3055  0.6986
12943SOL    HW140836   0.919   3.519   5.790 -1.7498 -0.3235 -3.7713
12943SOL    HW240837   0.818   3.620   5.839 -3.0305 -2.1066 -2.6375
12944SOL     OW40838   6.575   3.513   4.873 -0.3201 -0.6535  0.2989
12944SOL    HW140839   6.497   3.481   4.919  0.6287  1.1710  3.4259
12944SOL    HW240840   6.622   3.433   4.850 -2.6596 -1.7791 -1.0670
12945SOL     OW40841   3.183   7.432   2.653 -0.1719 -0.6469  0.8548
12945SOL    HW140842   3.160   7.519   2.684  1.0234 -0.3180  0.8855
12945SOL    HW240843   3.152   7.430   2.562  0.8104  0.2628  0.4726
12946SOL     OW40844   7.224   8.171   3.739 -0.2233 -0.0803  0.0872
12946SOL    HW140845   7.200   8.169   3.832 -0.7177 -0.7968 -0.0454
12946SOL    HW240846   7.174   8.099   3.700  2.1404 -1.6543 -0.2330
12947SOL     OW40847   8.441   5.170   3.175  0.0502  0.1193  0.5773
12947SOL    HW140848   8.431   5.179   3.270  0.8161 -0.6876  0.7528
12947SOL    HW240849   8.357   5.135   3.146  0.7061 -2.3372  1.3888
12948SOL     OW40850   2.620   7.907   8.467 -0.2420 -0.8048 -0.9219
12948SOL    HW140851   2.604   7.915   8.373  3.1190 -0.4572 -1.6107
12948SOL    HW240852   2.701   7.855   8.473 -0.3774 -0.8503  1.7875
12949SOL     OW40853   3.792   8.893   5.848  0.5013  0.4651  0.3762
12949SOL    HW140854   3.768   8.946   5.924  2.3721  1.8304  0.0878
12949SOL    HW240855   3.861   8.943   5.805  0.7323 -1.1406 -1.2268
12950SOL     OW40856   1.269   0.024   2.988 -0.5259 -0.2069  0.4666
12950SOL    HW140857   1.219   0.045   2.909  0.3972  0.0701 -0.0625
12950SOL    HW240858   1.300  -0.066   2.973  0.5732  0.2335  0.0003
12951SOL     OW40859   3.221   1.344   9.070 -0.2554 -0.6566 -0.5944
12951SOL    HW140860   3.183   1.430   9.054  0.6700  0.2780  1.8480
12951SOL    HW240861   3.240   1.309   8.983  0.8248  2.2747 -1.6261
12952SOL     OW40862   9.039   0.980   4.295 -0.0319 -0.4583 -0.1378
12952SOL    HW140863   9.117   0.994   4.241 -0.1745 -2.3112 -0.8811
12952SOL    HW240864   9.073   0.953   4.380  0.1487  0.8917  0.2529
12953SOL     OW40865   4.675   8.375  10.905  0.1430 -0.6600 -0.0681
12953SOL    HW140866   4.647   8.441  10.968  0.3575 -0.3499 -0.2899
12953SOL    HW240867   4.614   8.302  10.916 -1.5738  0.4947 -1.4378
12954SOL     OW40868   2.702   4.386   6.196 -0.5131  0.1367  0.3165
12954SOL    HW140869   2.778   4.444   6.196  0.6496 -1.3085  1.8535
12954SOL    HW240870   2.628   4.443   6.218  0.4069  1.2381  0.6369
12955SOL     OW40871   2.835   5.085   0.511 -0.1465 -0.0626 -0.0648
12955SOL    HW140872   2.892   5.075   0.435  0.0980  0.8446 -0.0105
12955SOL    HW240873   2.779   5.159   0.490 -0.1513  0.1287  0.5851
12956SOL     OW40874   2.974  10.733   5.081  0.3927  0.2377  0.3487
12956SOL    HW140875   3.042  10.696   5.025  0.5143  3.9221 -2.3360
12956SOL    HW240876   3.014  10.810   5.121 -1.3108  0.7784  1.1294
12957SOL     OW40877   0.659   1.543  10.760  0.0400  0.5139  0.0100
12957SOL    HW140878   0.714   1.566  10.835  2.2691 -0.8977 -1.0778
12957SOL    HW240879   0.702   1.587  10.686 -1.5827  1.1287 -0.6022
12958SOL     OW40880   1.155   6.841   0.136 -0.3947  0.5031  0.2699
12958SOL    HW140881   1.108   6.761   0.113  0.5067 -0.7145  2.3928
12958SOL    HW240882   1.086   6.902   0.163 -1.0968  0.5111 -1.4552
12959SOL     OW40883   1.025   5.518   8.509  0.0846 -0.2293  0.2086
12959SOL    HW140884   0.933   5.514   8.481 -0.5112  0.1850  1.9761
12959SOL    HW240885   1.061   5.594   8.464 -0.6246 -0.0214 -0.0141
12960SOL     OW40886   9.059   7.919   8.559  0.1551 -0.1775 -0.2529
12960SOL    HW140887   9.131   7.920   8.622 -0.4175  0.5913  0.4191
12960SOL    HW240888   8.980   7.916   8.613 -0.4003  2.0550 -0.8524
12961SOL     OW40889   4.093   9.741   1.773  0.8520  0.0363  0.3507
12961SOL    HW140890   4.059   9.778   1.854 -0.1130  4.1406 -1.6724
12961SOL    HW240891   4.020   9.692   1.736  0.4269  0.3876  0.7130
12962SOL     OW40892   6.580   1.955   1.058 -0.2551 -0.6439  0.2875
12962SOL    HW140893   6.645   1.993   0.999 -1.6257 -0.9657 -1.4842
12962SOL    HW240894   6.552   2.028   1.113  0.1015 -0.0361 -0.3199
12963SOL     OW40895   4.664   4.355   5.090  0.3064  0.0119  0.3192
12963SOL    HW140896   4.605   4.281   5.077 -0.5970  0.5985  0.9962
12963SOL    HW240897   4.661   4.372   5.184  1.3524  0.2297  0.3292
12964SOL     OW40898   0.270   9.162   1.292 -0.4192 -0.4275  0.3561
12964SOL    HW140899   0.366   9.171   1.287 -0.3936  0.0876  1.5695
12964SOL    HW240900   0.257   9.072   1.323 -0.3125 -0.2771  0.8355
12965SOL     OW40901   8.365   5.425   1.336 -0.2686 -0.0444  0.4723
12965SOL    HW140902   8.404   5.422   1.249 -2.5384  1.5045 -0.7021
12965SOL    HW240903   8.276   5.458   1.322 -0.9080 -0.2300  3.3304
12966SOL     OW40904   6.569  10.010   7.947  0.8017  0.1485  0.3649
12966SOL    HW140905   6.523  10.055   8.018  0.5260  1.9508 -0.8845
12966SOL    HW240906   6.599   9.928   7.986 -2.3256 -0.5353  1.6011
12967SOL     OW40907   1.860   1.720   1.028  0.0908  0.3155  0.3984
12967SOL    HW140908   1.840   1.768   1.109  3.4801  1.4929  0.7055
12967SOL    HW240909   1.917   1.649   1.057  0.1651 -0.1349 -0.8170
12968SOL     OW40910   1.278  10.890   7.903  0.4974  0.5486 -0.5320
12968SOL    HW140911   1.238  10.844   7.829  0.9961 -1.1260  0.1977
12968SOL    HW240912   1.365  10.914   7.872  0.7322 -0.2135 -0.4905
12969SOL     OW40913   5.390   5.427   4.736 -0.0457  0.3945 -0.0317
12969SOL    HW140914   5.311   5.374   4.730 -0.3841  0.9592 -0.6224
12969SOL    HW240915   5.414   5.425   4.829  0.2937 -1.2915 -0.1286
12970SOL     OW40916   4.410   7.271   0.237  0.5016 -0.5386  0.5583
12970SOL    HW140917   4.467   7.195   0.230  1.3544  0.0388  1.0515
12970SOL    HW240918   4.417   7.298   0.329  0.4988  0.3556  0.3089
12971SOL     OW40919  10.492   1.097  10.536 -0.5145 -0.2959 -0.5397
12971SOL    HW140920  10.480   1.058  10.449 -1.1192 -0.6288 -0.3128
12971SOL    HW240921  10.418   1.064  10.587 -0.8959  0.9392 -0.2622
12972SOL     OW40922   4.061   9.528   3.813  0.0731  0.1145 -0.1225
12972SOL    HW140923   4.029   9.472   3.883 -1.6780 -0.7572 -1.5479
12972SOL    HW240924   4.121   9.472   3.764 -1.3551 -0.4531 -1.2989
12973SOL     OW40925   8.394   7.244   6.813 -0.4413 -0.5359 -0.7941
12973SOL    HW140926   8.304   7.277   6.809 -0.5418 -0.6192  0.3898
12973SOL    HW240927   8.386   7.151   6.793 -0.7161 -0.6687 -0.1217
12974SOL     OW40928   0.384   9.562   6.228 -0.4505  0.6407 -0.8084
12974SOL    HW140929   0.335   9.500   6.175  1.3387  0.3196 -2.2048
12974SOL    HW240930   0.473   9.528   6.228  0.0814  1.9513  0.4017
12975SOL     OW40931  10.239   8.484   9.888  0.4873 -0.1000 -0.8797
12975SOL    HW140932  10.180   8.533   9.831  0.3566 -1.2247 -1.7589
12975SOL    HW240933  10.211   8.506   9.977  0.2126  1.1139 -1.2566
12976SOL     OW40934   7.342   6.549   1.616  0.1473 -0.3583 -0.1055
12976SOL    HW140935   7.431   6.526   1.644  0.6711 -1.3274 -2.3418
12976SOL    HW240936   7.287   6.527   1.692  1.7393 -0.0384  1.2091
12977SOL     OW40937   4.867   1.668  10.880 -0.0678 -0.2852 -0.3069
12977SOL    HW140938   4.781   1.636  10.852  0.3247 -0.0459 -1.9309
12977SOL    HW240939   4.862   1.763  10.869  0.0354 -0.1491  0.7370
12978SOL     OW40940  10.286  10.914   7.844 -0.0748  0.0959  0.0529
12978SOL    HW140941  10.308  10.849   7.778 -0.8859  0.7120 -0.8515
12978SOL    HW240942  10.352  10.983   7.834  1.7136 -1.2003  2.0177
12979SOL     OW40943   8.709   9.843   2.812  0.4026 -0.0612  0.0893
12979SOL    HW140944   8.620   9.834   2.845 -0.0293  1.4879 -0.5798
12979SOL    HW240945   8.764   9.828   2.889 -0.2962 -2.9952  0.1377
12980SOL     OW40946   4.551   7.545   7.665  0.5531 -0.3341 -0.3853
12980SOL    HW140947   4.469   7.499   7.685  0.5998 -0.4894 -0.5456
12980SOL    HW240948   4.525   7.637   7.656  0.6415 -0.1528  1.0338
12981SOL     OW40949   2.337   4.739   1.824  0.2968 -0.0378  0.0898
12981SOL    HW140950   2.294   4.659   1.856  0.6533  0.6424  2.5361
12981SOL    HW240951   2.268   4.787   1.778 -0.5463 -0.7212  0.6004
12982SOL     OW40952   1.240   5.786   2.678 -0.6229 -0.2394  0.5281
12982SOL    HW140953   1.217   5.758   2.590 -0.5516 -1.4712  0.8904
12982SOL    HW240954   1.280   5.709   2.719 -1.5326  0.0161  1.9598
12983SOL     OW40955   3.518   5.026   8.302 -0.3637  0.1444  0.1999
12983SOL    HW140956   3.600   5.038   8.349 -0.3643 -2.0417  0.8766
12983SOL    HW240957   3.507   4.931   8.297 -1.6340  0.3267 -2.0416
12984SOL     OW40958  11.025   1.145   9.313 -0.6503  0.5409  0.5435
12984SOL    HW140959  10.977   1.206   9.369  0.5193  2.0927 -0.0449
12984SOL    HW240960  10.982   1.151   9.228  0.6696  2.1766 -0.0718
12985SOL     OW40961   3.119   4.724   8.240 -0.2585  0.4461  0.1392
12985SOL    HW140962   3.032   4.737   8.201 -0.6864 -0.0116  0.9137
12985SOL    HW240963   3.125   4.629   8.253 -0.6520  0.6730  2.3151
12986SOL     OW40964   3.814   0.730   7.718 -0.1358 -0.3545  0.2147
12986SOL    HW140965   3.893   0.751   7.669 -1.5392  0.4379 -1.8546
12986SOL    HW240966   3.812   0.635   7.721  0.7898 -0.3854  0.1509
12987SOL     OW40967   1.535   2.007   1.137  0.3766 -0.1083 -0.1748
12987SOL    HW140968   1.568   2.088   1.097  0.6767 -0.4460 -0.6093
12987SOL    HW240969   1.553   2.018   1.231 -1.9262  1.4790  0.1758
12988SOL     OW40970   7.463   4.379   8.187  0.3733  0.2360 -0.6787
12988SOL    HW140971   7.446   4.287   8.207  0.1359  0.2654 -0.7376
12988SOL    HW240972   7.558   4.383   8.172  0.4732  0.1199 -0.0805
12989SOL     OW40973   7.613   4.310   0.158 -0.3633 -0.9298 -0.4543
12989SOL    HW140974   7.583   4.251   0.088  0.7108 -1.2541 -0.6630
12989SOL    HW240975   7.650   4.385   0.113  2.2656 -2.0607 -0.3767
12990SOL     OW40976   3.717   1.474   5.783 -0.2813  0.1771 -0.3034
12990SOL    HW140977   3.638   1.479   5.837 -1.5411 -0.2726 -2.0252
12990SOL    HW240978   3.715   1.554   5.730  0.4189  0.1485 -0.3846
12991SOL     OW40979   1.155   7.081   6.226 -0.1259  0.2588  0.4541
12991SOL    HW140980   1.192   7.087   6.137  1.0144 -0.5243  0.8574
12991SOL    HW240981   1.172   7.167   6.264 -0.8460  0.6870 -0.1594
12992SOL     OW40982   1.311   6.141   3.890  0.4066  0.1416 -0.7765
12992SOL    HW140983   1.217   6.155   3.880  0.6271  1.5882 -1.0559
12992SOL    HW240984   1.330   6.166   3.981  0.1698 -2.5038  0.0951
12993SOL     OW40985   1.755  10.140   5.558  0.0364 -0.6608  0.2381
12993SOL    HW140986   1.850  10.148   5.559  0.0742 -1.1021  0.3579
12993SOL    HW240987   1.723  10.224   5.591  0.3655 -0.2509 -0.4668
12994SOL     OW40988   6.182   2.379   3.785  0.4774  0.4993  0.3910
12994SOL    HW140989   6.093   2.405   3.763  0.1005 -1.3499 -0.4395
12994SOL    HW240990   6.216   2.452   3.838 -0.4044  2.6989 -1.8769
12995SOL     OW40991   8.889   6.579  10.073  0.2384  0.0067 -0.3766
12995SOL    HW140992   8.851   6.552  10.157  1.2573 -2.1188 -0.5521
12995SOL    HW240993   8.941   6.656  10.095  0.9377 -0.8246  1.0715
12996SOL     OW40994   7.602   4.792   1.374  0.5328  0.0936  0.4217
12996SOL    HW140995   7.554   4.800   1.456  0.7753  0.9837  0.4860
12996SOL    HW240996   7.694   4.801   1.398  0.7715 -1.7997  0.3213
12997SOL     OW40997   4.483   7.307   5.430 -0.1847 -0.7740 -0.4766
12997SOL    HW140998   4.409   7.353   5.470  0.1395 -0.3712 -0.3329
12997SOL    HW240999   4.469   7.318   5.336 -0.6997 -1.3276 -0.4709
12998SOL     OW41000   0.231   7.634   5.008 -0.2787  0.3047  0.0325
12998SOL    HW141001   0.187   7.580   4.943  0.7987 -0.1271 -0.3622
12998SOL    HW241002   0.200   7.601   5.092  0.3297 -0.9391 -0.2013
12999SOL     OW41003  10.389   2.403   8.300 -0.2416  1.2207 -0.2387
12999SOL    HW141004  10.437   2.486   8.310 -0.2415  1.0656  1.3539
12999SOL    HW241005  10.357   2.405   8.210  1.6510  1.9187 -0.9418
13000SOL     OW41006  10.865   8.902   1.018  0.1317  0.2027  0.1470
13000SOL    HW141007  10.897   8.984   1.056  0.4432 -0.4744  1.4195
13000SOL    HW241008  10.872   8.839   1.090  2.0377 -1.4913 -1.4130
13001SOL     OW41009   1.455   3.185   9.078  0.5784 -0.6630 -0.3699
13001SOL    HW141010   1.402   3.106   9.086 -1.8665  0.8029 -0.9633
13001SOL    HW241011   1.395   3.251   9.042  1.4856  2.3517  2.9658
13002SOL     OW41012  11.085   9.344   3.387 -0.4187 -0.2519 -0.1588
13002SOL    HW141013  11.066   9.438   3.387  1.5426  0.1779 -0.5495
13002SOL    HW241014  11.071   9.317   3.296 -0.9655 -0.3510 -0.0500
13003SOL     OW41015   8.226   1.925  10.452 -0.0608 -1.3103  0.5212
13003SOL    HW141016   8.221   1.979  10.374  0.6606 -1.9952 -0.0161
13003SOL    HW241017   8.189   1.979  10.522  0.2922 -0.2818 -0.0724
13004SOL     OW41018   4.977   1.518   8.062  1.0061  0.8040 -0.5492
13004SOL    HW141019   4.886   1.487   8.063  0.9805  0.8574 -1.0634
13004SOL    HW241020   4.994   1.545   8.152  0.2721  1.5020 -0.6176
13005SOL     OW41021   3.133   9.567   8.911 -0.8248 -0.2036 -0.0123
13005SOL    HW141022   3.201   9.606   8.966 -1.0133 -0.1803  0.2026
13005SOL    HW241023   3.115   9.633   8.844  0.1622 -0.6508 -0.7450
13006SOL     OW41024   0.826   7.851   7.151 -0.6214  0.3688  0.2136
13006SOL    HW141025   0.917   7.877   7.135  0.5115 -0.1079  4.6670
13006SOL    HW241026   0.776   7.932   7.137  0.6070  0.9316 -1.1958
13007SOL     OW41027   6.976   0.716   4.562  0.0104 -0.1172  0.0341
13007SOL    HW141028   7.031   0.645   4.598  2.1710  1.3661 -0.1495
13007SOL    HW241029   6.976   0.699   4.468 -0.7716 -0.7160  0.1322
13008SOL     OW41030   4.269   4.340   1.882  0.2876  0.0778 -0.0904
13008SOL    HW141031   4.320   4.288   1.943  1.2939  1.2949  0.1534
13008SOL    HW241032   4.317   4.423   1.875  2.4753 -1.2094 -5.4094
13009SOL     OW41033   3.999   9.261   6.582 -0.1999 -0.6857  0.1869
13009SOL    HW141034   3.969   9.301   6.501  2.0265  0.4493 -0.1566
13009SOL    HW241035   3.950   9.179   6.588 -1.7010  0.0404 -1.3514
13010SOL     OW41036  11.018   6.472   3.715 -0.5446 -0.2264  0.4740
13010SOL    HW141037  10.977   6.531   3.651 -0.4398  0.6189  1.1764
13010SOL    HW241038  11.111   6.490   3.707 -0.5963  0.5595  1.5124
13011SOL     OW41039   1.154   8.716   3.871  0.3716  0.4211  0.5820
13011SOL    HW141040   1.147   8.812   3.877  2.0900  0.5146  1.6985
13011SOL    HW241041   1.203   8.701   3.790 -2.3574  0.2858 -1.1668
13012SOL     OW41042  10.270   9.605   7.602  0.0194  0.0937 -0.3739
13012SOL    HW141043  10.346   9.616   7.659 -1.7552  2.6127  1.7852
13012SOL    HW241044  10.305   9.611   7.514  2.2064  3.3862  0.5251
13013SOL     OW41045   7.878   5.543   7.048 -0.1831 -0.0269  0.1907
13013SOL    HW141046   7.869   5.529   6.954 -0.9569 -1.4797  0.4518
13013SOL    HW241047   7.811   5.608   7.069 -0.5948 -0.3454 -0.1283
13014SOL     OW41048   1.307   5.424   7.040 -0.0196  0.7678  0.6340
13014SOL    HW141049   1.379   5.428   7.103 -0.0156  4.0278  0.5602
13014SOL    HW241050   1.333   5.483   6.970 -1.0452 -1.0605 -1.4242
13015SOL     OW41051   1.923   6.473   2.356  0.1285 -0.0905  0.3397
13015SOL    HW141052   1.934   6.415   2.431  0.8324 -1.8125 -1.0204
13015SOL    HW241053   1.829   6.494   2.355  0.0594 -0.2822  1.4867
13016SOL     OW41054  10.491   9.961   4.503 -0.2960 -0.1838 -0.4646
13016SOL    HW141055  10.573   9.955   4.552  0.5203 -0.8408 -1.8706
13016SOL    HW241056  10.492  10.049   4.467 -0.0606 -0.2933 -0.7281
13017SOL     OW41057  11.046   6.274   4.727  0.3065 -0.4158  0.1026
13017SOL    HW141058  11.037   6.213   4.800  0.9023  2.5825  2.9584
13017SOL    HW241059  11.134   6.258   4.692  0.1752 -1.6214  0.2784
13018SOL     OW41060   0.288  10.867   5.874  0.5213  0.3564 -0.1055
13018SOL    HW141061   0.346  10.792   5.887  2.6390  2.1009  1.5357
13018SOL    HW241062   0.202  10.837   5.902  1.5789 -1.1120  1.8085
13019SOL     OW41063   4.966  11.022   4.823  0.6312  0.3336 -0.2211
13019SOL    HW141064   5.022  11.016   4.901  1.0549 -0.1675 -0.5618
13019SOL    HW241065   5.020  11.068   4.759  0.4970  0.2109 -0.4206
13020SOL     OW41066   5.724   3.162   0.148 -0.0899  0.2963 -0.3522
13020SOL    HW141067   5.729   3.078   0.193 -3.4052  0.2473  0.2144
13020SOL    HW241068   5.772   3.149   0.067 -0.2531 -2.0619 -0.1357
13021SOL     OW41069  10.892   2.209   5.534  0.2085  0.4591  0.1257
13021SOL    HW141070  10.884   2.283   5.594  1.5547  0.6744  0.0609
13021SOL    HW241071  10.958   2.152   5.574 -0.1914 -0.2811 -0.2544
13022SOL     OW41072  10.015   5.685   1.581 -0.9319 -0.1220  0.2798
13022SOL    HW141073  10.036   5.699   1.489 -2.7469  0.1483 -0.1291
13022SOL    HW241074  10.097   5.702   1.627  0.1625 -0.8677 -1.3204
13023SOL     OW41075   7.156   2.337   0.060 -0.1239 -0.3818  0.0062
13023SOL    HW141076   7.114   2.416   0.096 -1.0102  0.4736 -2.6490
13023SOL    HW241077   7.243   2.367   0.033  1.3307 -1.4988  3.0116
13024SOL     OW41078   4.957   9.161   6.610 -0.6427  0.2727  0.7471
13024SOL    HW141079   4.910   9.236   6.573  1.3739  0.5828 -1.4350
13024SOL    HW241080   5.025   9.199   6.665 -0.6632 -0.0320  0.9900
13025SOL     OW41081   0.053   0.157   4.222 -0.4067  0.1653  0.0288
13025SOL    HW141082   0.096   0.234   4.259  0.0892 -0.2418  0.3136
13025SOL    HW241083   0.108   0.132   4.147 -1.0942  0.6479 -0.6593
13026SOL     OW41084   7.096   5.574   1.849 -0.1804 -0.1943  0.0175
13026SOL    HW141085   7.101   5.649   1.791 -2.6255 -0.7212 -1.0308
13026SOL    HW241086   7.022   5.594   1.907 -0.3812 -1.4476  0.2251
13027SOL     OW41087   2.390   1.771   4.327 -0.1591  0.4666  0.3286
13027SOL    HW141088   2.366   1.733   4.242 -0.2141  0.1441  0.4878
13027SOL    HW241089   2.482   1.749   4.338 -0.0229  0.9371  0.1257
13028SOL     OW41090   7.126   7.248   1.986 -0.1425  0.4187  0.0837
13028SOL    HW141091   7.064   7.285   2.049 -1.1750 -2.2749  0.7941
13028SOL    HW241092   7.175   7.182   2.035  1.0503  0.2394 -1.2578
13029SOL     OW41093   7.405   3.434   7.874 -0.1405  0.3023 -0.1431
13029SOL    HW141094   7.407   3.484   7.956 -2.6023 -0.1844  0.2710
13029SOL    HW241095   7.443   3.349   7.897 -2.6026 -0.5480  1.0920
13030SOL     OW41096   5.236   0.933  10.689  0.4609  0.3049 -1.0340
13030SOL    HW141097   5.238   0.953  10.783  0.5501 -2.6934 -0.2763
13030SOL    HW241098   5.328   0.938  10.662  0.7485 -0.9247 -0.3778
13031SOL     OW41099   7.288  10.697   1.547 -0.1491  0.6807  0.1147
13031SOL    HW141100   7.239  10.661   1.621  0.8789  0.0360  0.5072
13031SOL    HW241101   7.221  10.728   1.486 -1.0455 -0.7102  0.3561
13032SOL     OW41102  10.786   3.196   3.329  0.2933 -0.4477  0.6869
13032SOL    HW141103  10.791   3.291   3.322 -1.2031 -0.4108 -0.3430
13032SOL    HW241104  10.871   3.165   3.300  0.7335  0.5682  0.8573
13033SOL     OW41105   8.841   1.377   6.574  0.2100 -0.5804  0.4445
13033SOL    HW141106   8.824   1.289   6.540 -0.8658 -0.7902  1.4599
13033SOL    HW241107   8.883   1.363   6.658  2.5126 -0.0652 -0.5416
13034SOL     OW41108   0.127   9.002   0.171 -0.2769  0.4838 -0.2263
13034SOL    HW141109   0.162   8.923   0.212  0.2150  1.1312  0.6359
13034SOL    HW241110   0.121   8.980   0.078  2.1171  0.2127 -0.3710
13035SOL     OW41111  10.036   4.239   0.190  0.4840 -0.2854 -0.3874
13035SOL    HW141112   9.974   4.166   0.193  2.0190 -1.6579  0.0134
13035SOL    HW241113  10.013   4.287   0.110  0.3564 -2.1143 -1.5206
13036SOL     OW41114   8.805   2.356   9.117 -0.4809 -0.2589  0.3322
13036SOL    HW141115   8.742   2.407   9.167 -0.5910  0.7549 -0.7992
13036SOL    HW241116   8.866   2.322   9.183 -0.9858  0.4970  1.2154
13037SOL     OW41117   6.614   7.607   0.671 -0.0611 -0.5756 -0.2965
13037SOL    HW141118   6.642   7.516   0.667  0.3477 -0.7238  2.9036
13037SOL    HW241119   6.526   7.603   0.709  0.8010  0.3176  2.0322
13038SOL     OW41120   2.863   5.742   6.533  0.2662 -0.0590  0.1832
13038SOL    HW141121   2.887   5.649   6.535 -1.8737 -0.6544  0.4750
13038SOL    HW241122   2.808   5.754   6.611  2.0146  1.9244  1.2043
13039SOL     OW41123   1.491   9.307   1.825 -0.6449 -0.1293 -0.2685
13039SOL    HW141124   1.531   9.263   1.900 -2.0218  1.6971  1.6638
13039SOL    HW241125   1.403   9.271   1.819 -0.7580  0.1893 -0.6160
13040SOL     OW41126   5.777   2.535   9.378 -0.6792 -1.0768  0.2412
13040SOL    HW141127   5.846   2.502   9.321 -1.1542  2.0064 -2.4285
13040SOL    HW241128   5.818   2.543   9.464  2.4500  0.8556 -1.2796
13041SOL     OW41129   3.334   2.839   3.027  0.2375  0.4268 -0.3970
13041SOL    HW141130   3.392   2.767   3.003 -1.0253 -0.2748 -1.4869
13041SOL    HW241131   3.308   2.820   3.117  0.5749 -0.0220 -0.3909
13042SOL     OW41132   6.623   8.558   3.528 -0.7806 -0.2931 -0.0277
13042SOL    HW141133   6.642   8.643   3.488 -2.0811 -0.3934 -0.9194
13042SOL    HW241134   6.606   8.578   3.620  3.1183 -0.1719  0.8005
13043SOL     OW41135   7.870  10.839   8.281  0.1436  0.1722 -0.0144
13043SOL    HW141136   7.865  10.785   8.203  1.8020  1.3046 -0.9526
13043SOL    HW241137   7.964  10.854   8.295 -0.2132  2.0231  0.7489
13044SOL     OW41138   8.558   1.066   8.978  0.3767  0.4573 -0.0193
13044SOL    HW141139   8.642   1.110   8.992 -0.6541  2.2439  0.9725
13044SOL    HW241140   8.570   1.017   8.897  1.9753  1.6822 -0.5778
13045SOL     OW41141  10.222   5.201   8.086  0.0534 -0.2225 -0.2086
13045SOL    HW141142  10.293   5.255   8.122 -0.4220  1.2650 -1.3894
13045SOL    HW241143  10.147   5.219   8.143 -0.1285  0.4657 -0.6530
13046SOL     OW41144   5.264   1.800   3.335  0.2438 -0.2551 -0.2161
13046SOL    HW141145   5.219   1.731   3.286  0.7130  0.0371 -1.0680
13046SOL    HW241146   5.208   1.815   3.411 -1.3818  0.4374 -1.4954
13047SOL     OW41147   9.175   0.093   0.434 -0.5071 -0.2803 -0.2576
13047SOL    HW141148   9.177  -0.000   0.457 -0.2683 -0.7571 -2.0643
13047SOL    HW241149   9.262   0.111   0.398  0.1498  1.1788  1.8685
13048SOL     OW41150  10.548   5.395   0.189  0.1953  0.0344 -0.2761
13048SOL    HW141151  10.559   5.394   0.094 -0.1799  1.2045 -0.3508
13048SOL    HW241152  10.453   5.402   0.202  0.0595 -1.9830  0.2372
13049SOL     OW41153   7.286   0.880  10.680 -0.0399 -0.6482  0.3016
13049SOL    HW141154   7.295   0.975  10.668  1.4050 -0.9809 -1.5237
13049SOL    HW241155   7.192   0.868  10.697 -0.1475  1.1548  1.2525
13050SOL     OW41156   3.673   6.998   5.601 -0.2970  0.1838 -0.1102
13050SOL    HW141157   3.756   6.969   5.562 -0.0073  1.1050 -0.2096
13050SOL    HW241158   3.606   6.968   5.540  0.0741  0.6705 -0.7755
13051SOL     OW41159   3.123   1.009   0.803 -0.0748  0.0624  0.0373
13051SOL    HW141160   3.182   0.995   0.729 -1.7838 -0.0517 -1.3510
13051SOL    HW241161   3.099   0.920   0.832  1.7130  0.0515  1.7553
13052SOL     OW41162  10.354   1.858   4.157  0.0413  0.0068 -0.4682
13052SOL    HW141163  10.402   1.935   4.128  1.3530  0.6338  2.9253
13052SOL    HW241164  10.419   1.787   4.155  0.0188 -0.0481  0.3097
13053SOL     OW41165   2.651   3.713   0.390 -0.2374  0.2743  0.2824
13053SOL    HW141166   2.638   3.748   0.478 -2.9548 -0.6318  0.3225
13053SOL    HW241167   2.602   3.772   0.332  0.3909  0.0905 -0.4629
13054SOL     OW41168   9.275   3.368   4.204  0.4325  0.5755 -0.3942
13054SOL    HW141169   9.324   3.287   4.198  1.4803  1.2840 -2.4369
13054SOL    HW241170   9.188   3.347   4.169  0.5292  0.2178 -0.4189
13055SOL     OW41171   2.446  11.004   6.768  0.1178 -0.0716  0.2624
13055SOL    HW141172   2.523  11.031   6.817 -0.9991  1.2726  1.3566
13055SOL    HW241173   2.400  10.944   6.826  0.0878 -0.5007 -0.1976
13056SOL     OW41174   5.925   5.020   5.406  0.0301  0.2364 -0.4851
13056SOL    HW141175   5.993   4.981   5.463  0.1850 -0.2025 -0.9626
13056SOL    HW241176   5.973   5.079   5.349 -0.2331  1.3067  0.3755
13057SOL     OW41177   2.732   5.630   3.635  0.1700  0.6454  0.5305
13057SOL    HW141178   2.769   5.563   3.693 -0.9070 -0.1039  0.3835
13057SOL    HW241179   2.779   5.620   3.553  0.8153  0.8553  0.8690
13058SOL     OW41180   1.536   0.855   7.197  0.1303 -0.1184 -0.6077
13058SOL    HW141181   1.523   0.761   7.208 -1.5071  0.0683 -0.6938
13058SOL    HW241182   1.461   0.883   7.144 -0.0317  1.4035  0.3716
13059SOL     OW41183   2.352   6.411  10.768  0.2099  0.0960 -0.4824
13059SOL    HW141184   2.410   6.358  10.822  0.2492  0.0863 -0.5343
13059SOL    HW241185   2.264   6.392  10.802  0.2714  0.4625 -0.0951
13060SOL     OW41186   5.010   3.477   2.928 -0.3444  0.0610 -0.0152
13060SOL    HW141187   5.018   3.571   2.916 -2.0978 -0.0437 -3.0432
13060SOL    HW241188   4.931   3.467   2.982 -2.1797  0.3690 -2.4901
13061SOL     OW41189   0.179   3.485   4.496  0.0767  0.2022 -0.2708
13061SOL    HW141190   0.219   3.472   4.411 -0.1028 -3.0048  0.0349
13061SOL    HW241191   0.089   3.453   4.486  0.4438 -1.5271  1.3931
13062SOL     OW41192  10.247   7.458   5.701  0.0747  0.2264  0.2102
13062SOL    HW141193  10.262   7.544   5.741 -1.6660 -0.2922  2.2250
13062SOL    HW241194  10.231   7.401   5.776 -2.8120 -0.9731 -1.1625
13063SOL     OW41195   3.383   2.275   9.063  0.1192 -0.1089 -0.1310
13063SOL    HW141196   3.380   2.352   9.121  0.6418  0.1689 -0.4638
13063SOL    HW241197   3.467   2.233   9.084  0.0374 -0.3413 -0.2683
13064SOL     OW41198   1.134   3.764   0.919  0.4982  0.1377  0.2594
13064SOL    HW141199   1.142   3.710   0.840 -0.6810 -0.4793  0.5509
13064SOL    HW241200   1.106   3.850   0.885 -2.1043 -0.6954  0.1278
13065SOL     OW41201   4.387   5.094   5.265 -0.2548 -0.2392  0.4110
13065SOL    HW141202   4.423   5.115   5.179 -0.2719 -0.3360  0.3804
13065SOL    HW241203   4.360   5.179   5.301 -2.7628 -0.4427 -0.7762
13066SOL     OW41204   0.552  10.826   3.321  0.5992  0.0986 -0.3406
13066SOL    HW141205   0.590  10.740   3.336 -2.4824 -1.2928  0.2598
13066SOL    HW241206   0.594  10.857   3.241  2.6845 -1.3567  0.0958
13067SOL     OW41207   7.818   7.020  10.145 -0.3603  0.2417 -0.5634
13067SOL    HW141208   7.749   7.037  10.081  1.4280  3.9984 -1.8298
13067SOL    HW241209   7.817   7.097  10.202  2.8162  0.5822 -0.7835
13068SOL     OW41210   5.418   6.099   0.196 -0.1765 -0.1280  0.0308
13068SOL    HW141211   5.404   6.005   0.185 -1.5947 -0.2327  2.2058
13068SOL    HW241212   5.331   6.134   0.216  0.7691  1.1410  2.2576
13069SOL     OW41213   9.681   5.754   1.750 -0.0148 -0.4399  0.4060
13069SOL    HW141214   9.698   5.847   1.732 -0.1227 -0.2837  1.1011
13069SOL    HW241215   9.587   5.750   1.768  0.1048 -0.5825  1.0013
13070SOL     OW41216   4.403   4.583   9.655 -0.2039 -0.1306 -0.0200
13070SOL    HW141217   4.494   4.580   9.687  0.2486  0.2771 -1.2138
13070SOL    HW241218   4.392   4.672   9.623  0.2233 -1.0848 -3.2716
13071SOL     OW41219   9.324  10.334   3.577  0.0658 -0.0475 -0.9903
13071SOL    HW141220   9.256  10.364   3.638  1.0936 -0.9549  0.6864
13071SOL    HW241221   9.400  10.388   3.597  0.8429 -1.2987 -0.4298
13072SOL     OW41222   5.911   2.041   7.425  0.0016  0.6394  0.1855
13072SOL    HW141223   5.928   1.952   7.393  2.7553 -0.1312  3.2804
13072SOL    HW241224   5.913   2.096   7.347 -0.3694 -1.7901 -1.6553
13073SOL     OW41225   5.151   0.333   2.071  0.2522  0.6042  0.0332
13073SOL    HW141226   5.226   0.337   2.013 -0.9624 -1.8164 -1.8855
13073SOL    HW241227   5.181   0.281   2.146  0.1143 -1.8010 -1.4970
13074SOL     OW41228   4.693  10.811   8.758  0.3554  0.3629 -0.1639
13074SOL    HW141229   4.653  10.791   8.842 -1.0546  0.9473 -0.6691
13074SOL    HW241230   4.670  10.737   8.702 -1.4188  1.4223 -0.8973
13075SOL     OW41231   7.428   9.649   9.952  0.2618  0.1249 -0.9806
13075SOL    HW141232   7.506   9.672   9.900 -0.6545  0.6128 -2.1851
13075SOL    HW241233   7.448   9.679  10.040  0.8479  1.6325 -1.5904
13076SOL     OW41234   9.165   7.490   9.175  0.3170 -0.1113  0.2169
13076SOL    HW141235   9.158   7.571   9.125  0.5205 -0.9105 -1.1349
13076SOL    HW241236   9.250   7.497   9.219 -0.0459  0.7778  0.8070
13077SOL     OW41237   4.648   4.182  10.592 -0.6550 -0.0051  0.3971
13077SOL    HW141238   4.636   4.094  10.628 -0.2967 -0.3787 -0.3659
13077SOL    HW241239   4.643   4.240  10.668 -1.0327 -0.6710  0.8950
13078SOL     OW41240   9.866   1.854   8.030 -0.0915 -0.2286  0.5399
13078SOL    HW141241   9.937   1.848   8.094  0.7753 -1.4122 -0.4838
13078SOL    HW241242   9.885   1.784   7.966 -0.5528  1.2831 -1.3564
13079SOL     OW41243   1.427   7.302   8.912 -0.7020  0.2448  0.7326
13079SOL    HW141244   1.444   7.241   8.984 -0.0887 -0.0028  0.3847
13079SOL    HW241245   1.388   7.249   8.844 -0.8116  0.3787  0.6914
13080SOL     OW41246   0.056   6.052   5.937 -0.3314 -0.0798  0.3816
13080SOL    HW141247   0.098   6.041   6.023  0.1072  0.5335  0.2502
13080SOL    HW241248   0.060   5.965   5.897  0.4552 -0.1199  0.5364
13081SOL     OW41249  10.163   4.589   8.400 -0.4739 -0.0202  0.2072
13081SOL    HW141250  10.105   4.575   8.475  3.0306 -2.1263  2.8275
13081SOL    HW241251  10.147   4.513   8.344  0.0678 -0.9154  1.2193
13082SOL     OW41252   0.241   2.728   2.152 -0.3036  0.1978 -0.1837
13082SOL    HW141253   0.243   2.635   2.175  0.3348  0.5864  1.5258
13082SOL    HW241254   0.274   2.731   2.063  3.6648 -0.9351  1.0232
13083SOL     OW41255   3.282   4.013  10.327  0.4038 -0.1796 -0.0962
13083SOL    HW141256   3.365   4.053  10.301 -0.2977  0.7839 -0.9111
13083SOL    HW241257   3.218   4.049  10.267 -0.5561 -1.2320  0.2574
13084SOL     OW41258  10.556   2.522   2.732  0.1606  0.3736 -0.2587
13084SOL    HW141259  10.582   2.461   2.663  1.2906  2.5750 -1.8756
13084SOL    HW241260  10.636   2.537   2.782  0.5770  2.3345 -1.3945
13085SOL     OW41261   0.834   3.438   9.570 -0.4404  0.3188  0.0394
13085SOL    HW141262   0.863   3.399   9.652 -1.5108 -1.6020 -0.4147
13085SOL    HW241263   0.913   3.444   9.516  0.1842  1.1581  1.0270
13086SOL     OW41264   4.262   9.061   0.282  0.0898 -0.4579 -0.0787
13086SOL    HW141265   4.308   8.978   0.273  1.5035  0.1932  0.7698
13086SOL    HW241266   4.278   9.107   0.199  2.2764  0.3475  0.7143
13087SOL     OW41267   2.268  10.325  10.865  0.3843  0.0501 -0.3757
13087SOL    HW141268   2.286  10.285  10.950 -0.3155  0.9835  0.2250
13087SOL    HW241269   2.329  10.281  10.805 -0.1031 -1.6661  0.3094
13088SOL     OW41270   3.123   2.033   6.126  0.1193  0.3222  0.2243
13088SOL    HW141271   3.185   1.969   6.161  1.1401  0.7956 -0.6612
13088SOL    HW241272   3.080   1.989   6.053  1.3987  0.8590 -0.9031
13089SOL     OW41273   6.159   0.687   4.667 -0.1376  0.4230 -0.1769
13089SOL    HW141274   6.142   0.731   4.583 -2.1652  0.5024  0.2355
13089SOL    HW241275   6.087   0.714   4.724  1.0104  0.1068  1.5198
13090SOL     OW41276   0.331   7.418   4.355  0.2490  0.4729 -0.1441
13090SOL    HW141277   0.364   7.496   4.400  1.4552  0.4597 -0.9540
13090SOL    HW241278   0.248   7.447   4.317 -0.2686  0.7808  1.1836
13091SOL     OW41279   4.254   0.987   4.382  0.3908 -0.3257  0.1836
13091SOL    HW141280   4.286   0.905   4.344  2.5407  0.3309  0.4389
13091SOL    HW241281   4.184   0.959   4.442  0.1581 -1.8220 -0.7212
13092SOL     OW41282   4.823  10.125   8.097  0.2945  0.1422  0.2427
13092SOL    HW141283   4.836  10.131   8.002  0.4200 -0.6089  0.2040
13092SOL    HW241284   4.905  10.090   8.130 -0.0957 -0.5596  0.5032
13093SOL     OW41285   3.343   4.433   9.232 -0.4882  0.7369  0.0797
13093SOL    HW141286   3.361   4.392   9.147 -0.0260  2.0741 -0.4800
13093SOL    HW241287   3.282   4.373   9.274  0.0569 -0.4639 -0.7725
13094SOL     OW41288   8.576   3.424   6.983  0.5012  0.2245  0.4231
13094SOL    HW141289   8.528   3.342   6.983  0.5240  0.1745  2.0528
13094SOL    HW241290   8.660   3.403   7.024  0.8149  0.9033  0.1570
13095SOL     OW41291   0.422   5.467   4.803  0.4253  0.8361  0.3782
13095SOL    HW141292   0.424   5.377   4.835  1.5880  0.5627 -0.3814
13095SOL    HW241293   0.445   5.521   4.879  2.4879  0.2507  0.2433
13096SOL     OW41294   6.143   1.488   7.588  0.5623 -0.5132 -0.2071
13096SOL    HW141295   6.157   1.405   7.634  0.2397  0.2531  1.3754
13096SOL    HW241296   6.129   1.552   7.659 -2.0313  0.3831 -1.3943
13097SOL     OW41297   7.020   3.792   2.466 -0.1870 -0.0806 -0.1037
13097SOL    HW141298   7.010   3.725   2.533  0.6721  0.0532  0.1794
13097SOL    HW241299   6.959   3.861   2.492 -0.1785 -0.2208  0.2998
13098SOL     OW41300   4.573   4.502   0.563 -0.4371  0.3862 -0.0761
13098SOL    HW141301   4.523   4.424   0.590  0.4258 -0.6047 -1.2213
13098SOL    HW241302   4.601   4.541   0.646 -0.5629 -0.7467  0.5275
13099SOL     OW41303   5.091   7.147   4.117  0.0523  0.3690 -0.4314
13099SOL    HW141304   5.186   7.137   4.122 -0.0327 -0.2856  0.2220
13099SOL    HW241305   5.076   7.240   4.102  0.7738  0.7357  0.9434
13100SOL     OW41306   2.674   8.160   4.700  0.7718  0.6093  0.0947
13100SOL    HW141307   2.754   8.137   4.653 -0.3789 -0.1416 -1.5557
13100SOL    HW241308   2.663   8.254   4.684  0.5664  0.4244 -0.8724
13101SOL     OW41309   9.211   2.424   8.723  0.6695 -0.4470  0.1014
13101SOL    HW141310   9.291   2.444   8.772  0.5142  2.7468 -0.7486
13101SOL    HW241311   9.241   2.409   8.634  0.3895  0.4081 -0.1470
13102SOL     OW41312   9.008   1.040  10.649  0.3859  0.3715  0.2641
13102SOL    HW141313   9.013   1.090  10.731 -0.7462 -1.6054  1.6135
13102SOL    HW241314   8.930   0.986  10.659  1.4678 -1.5582 -1.2020
13103SOL     OW41315   4.073  10.533  10.610 -0.0012  0.4905  0.0721
13103SOL    HW141316   4.030  10.449  10.594  0.6640  0.2620 -0.6063
13103SOL    HW241317   4.054  10.585  10.532 -1.4824  1.4605  1.0263
13104SOL     OW41318   4.746   2.263   8.543  0.9026 -0.1757 -0.0906
13104SOL    HW141319   4.793   2.335   8.502 -0.0485  1.0025  0.8047
13104SOL    HW241320   4.654   2.290   8.540  0.7792 -0.0410  2.7190
13105SOL     OW41321   2.414   8.163   4.480 -0.1058  0.0714  0.5221
13105SOL    HW141322   2.500   8.203   4.486 -0.7225  2.0796 -2.1626
13105SOL    HW241323   2.359   8.213   4.541  0.1127  0.3408  0.4971
13106SOL     OW41324   3.406   9.139   9.333 -0.1536  0.4051 -0.4989
13106SOL    HW141325   3.341   9.101   9.273 -0.1160 -0.2345 -0.1394
13106SOL    HW241326   3.427   9.068   9.394  0.9673  0.5702 -0.6728
13107SOL     OW41327   3.391   0.564   1.291  0.3096 -0.2360  0.3322
13107SOL    HW141328   3.342   0.636   1.330  1.5388  0.3224  0.8829
13107SOL    HW241329   3.327   0.493   1.285 -0.4843  0.3546  1.3400
13108SOL     OW41330   5.460   5.160   6.120 -0.1404 -0.5439 -0.6752
13108SOL    HW141331   5.488   5.180   6.031  1.9274 -2.6223 -0.5828
13108SOL    HW241332   5.409   5.079   6.112  0.6283 -1.1183  0.0813
13109SOL     OW41333   4.482   0.868   4.876 -0.0830 -0.4705 -0.0424
13109SOL    HW141334   4.445   0.904   4.796 -0.4375 -1.1732 -0.2067
13109SOL    HW241335   4.444   0.920   4.946 -0.4999 -0.4477 -0.2823
13110SOL     OW41336   9.563   0.130   3.292  0.7237 -0.0026  0.3509
13110SOL    HW141337   9.554   0.068   3.364 -0.1694 -3.8677 -2.6885
13110SOL    HW241338   9.513   0.207   3.319 -1.7044 -2.2428  2.8423
13111SOL     OW41339   5.293   5.842   0.773 -1.0989  0.4377  0.2753
13111SOL    HW141340   5.205   5.817   0.745 -0.9577 -1.0279  1.0322
13111SOL    HW241341   5.351   5.800   0.710 -0.9409  2.1100 -0.7300
13112SOL     OW41342   5.726   9.392   4.583  0.7738 -0.2733 -0.5193
13112SOL    HW141343   5.723   9.317   4.523  1.6352  0.2302 -1.2056
13112SOL    HW241344   5.634   9.414   4.598  0.5246 -1.1028 -0.7661
13113SOL     OW41345   9.647   6.352   8.387 -0.2360 -0.7622 -0.0735
13113SOL    HW141346   9.651   6.384   8.297 -0.9365 -1.9631 -0.5574
13113SOL    HW241347   9.726   6.387   8.429 -0.0802  0.0916 -1.0490
13114SOL     OW41348   1.542   7.001   0.987 -0.2587  0.0776 -0.1007
13114SOL    HW141349   1.577   7.047   0.911 -0.7694  0.8474  0.1133
13114SOL    HW241350   1.520   6.914   0.955 -1.7672  0.8291 -1.2018
13115SOL     OW41351   3.379   6.228   7.892  0.1641  0.3293  0.5531
13115SOL    HW141352   3.443   6.292   7.923 -0.2702  0.6787  0.7391
13115SOL    HW241353   3.300   6.280   7.874 -0.1346 -0.1281  0.5353
13116SOL     OW41354   9.227   6.876   0.510  0.4591  0.9322 -0.1001
13116SOL    HW141355   9.223   6.937   0.436 -0.0453  0.4673 -0.4621
13116SOL    HW241356   9.269   6.798   0.473 -0.8839  0.2398 -0.2363
13117SOL     OW41357   1.178   5.814   4.934 -0.2364 -0.9926 -0.3606
13117SOL    HW141358   1.139   5.888   4.886  0.9098 -0.9151 -1.2116
13117SOL    HW241359   1.258   5.849   4.973 -0.5468 -1.3680  0.6416
13118SOL     OW41360   6.126   0.969   4.236  0.6522 -0.8821 -0.2604
13118SOL    HW141361   6.043   1.016   4.236  0.6299 -0.9142 -0.9707
13118SOL    HW241362   6.114   0.901   4.302  0.2806 -0.5988 -0.0295
13119SOL     OW41363   5.817   0.675   6.760  0.1290 -0.7026  0.0065
13119SOL    HW141364   5.844   0.606   6.699 -0.4225 -1.1920  0.3079
13119SOL    HW241365   5.735   0.708   6.725  0.1519 -0.5181  0.1229
13120SOL     OW41366   7.686   5.267   1.166  0.3134 -0.7120  0.8329
13120SOL    HW141367   7.711   5.317   1.243  0.3155  0.0909  0.3205
13120SOL    HW241368   7.642   5.330   1.109 -1.4923 -1.7488  1.0253
13121SOL     OW41369   1.101   7.717   0.479  0.0872 -0.3743  0.0726
13121SOL    HW141370   1.129   7.796   0.526 -0.4035  0.2142 -0.5897
13121SOL    HW241371   1.011   7.736   0.452 -0.5132 -1.7060  1.0277
13122SOL     OW41372   2.995   0.998   1.438 -0.1478 -0.2231  0.0749
13122SOL    HW141373   2.903   0.980   1.456 -0.1170 -0.5539 -0.0994
13122SOL    HW241374   3.041   0.921   1.471  0.0034 -0.3814 -0.4971
13123SOL     OW41375   5.896   9.997   6.752  0.3941 -0.5192 -0.0251
13123SOL    HW141376   5.801   9.985   6.756  0.1491  0.3697 -2.0076
13123SOL    HW241377   5.911  10.083   6.791  0.4826 -0.8773  0.7677
13124SOL     OW41378   5.284   3.961   4.246 -0.0299 -0.0900 -0.3124
13124SOL    HW141379   5.194   3.986   4.223 -0.8603 -1.5968  1.1289
13124SOL    HW241380   5.313   4.030   4.306 -0.7932 -0.3449  0.3784
13125SOL     OW41381   2.934   6.072   5.138  0.1876  0.0818 -0.0203
13125SOL    HW141382   2.889   6.151   5.108 -0.5621 -0.8613 -1.5071
13125SOL    HW241383   3.000   6.055   5.070  0.1350 -0.7315  0.1188
13126SOL     OW41384   7.849   5.701   1.743  0.6876  0.5240 -0.7083
13126SOL    HW141385   7.926   5.728   1.693  0.1905  1.4917 -0.9821
13126SOL    HW241386   7.854   5.750   1.825  0.7662  0.0055 -0.4024
13127SOL     OW41387   6.143   4.804   9.568 -0.4884 -1.1148  0.0828
13127SOL    HW141388   6.053   4.813   9.538 -0.9836  1.0205  1.9151
13127SOL    HW241389   6.151   4.713   9.596 -0.9824 -2.2660 -3.1737
13128SOL     OW41390   0.982   9.194   7.434 -0.2863  0.0716 -0.4015
13128SOL    HW141391   1.060   9.226   7.389 -0.0406  1.7511  1.1047
13128SOL    HW241392   1.015   9.152   7.513 -0.8438 -0.2409 -0.3269
13129SOL     OW41393   7.114   6.903   3.634 -0.4063  0.2104  0.5470
13129SOL    HW141394   7.024   6.871   3.638 -0.6358  0.7229 -0.2815
13129SOL    HW241395   7.153   6.856   3.560 -0.3538  0.8520  0.1548
13130SOL     OW41396   0.091   7.573   0.247  0.7261 -0.7116 -0.2033
13130SOL    HW141397   0.031   7.605   0.180 -0.8949  0.2804  1.6364
13130SOL    HW241398   0.163   7.636   0.247 -0.7608  1.0951  1.0135
13131SOL     OW41399   4.544   0.626   8.630 -1.5068  1.4076 -0.2347
13131SOL    HW141400   4.489   0.593   8.559 -0.6212 -1.7066  0.3885
13131SOL    HW241401   4.500   0.596   8.710  1.3142 -1.9825  0.2791
13132SOL     OW41402   9.909   8.922  10.695 -0.1169 -0.8887 -0.5244
13132SOL    HW141403   9.929   9.012  10.719 -0.9905 -1.1560  1.3600
13132SOL    HW241404   9.993   8.877  10.702 -0.1234 -0.7073  1.0117
13133SOL     OW41405   5.569   5.870   7.213  0.0565  0.3086  0.0795
13133SOL    HW141406   5.477   5.847   7.231 -0.2778  0.9225 -0.7566
13133SOL    HW241407   5.581   5.954   7.258 -0.4770  1.3355 -1.6141
13134SOL     OW41408   7.198  10.099   0.935 -0.5008 -0.6648 -0.0658
13134SOL    HW141409   7.125  10.108   0.874 -1.4151  0.8239  1.2047
13134SOL    HW241410   7.245  10.182   0.930 -0.2479 -0.7403  0.8012
13135SOL     OW41411   1.050   1.592   5.796  0.3627 -0.9752  0.1199
13135SOL    HW141412   0.986   1.531   5.761  0.8734 -0.8420 -1.1066
13135SOL    HW241413   1.049   1.577   5.890 -1.4264 -1.0007  0.1226
13136SOL     OW41414  10.368   0.822   6.659 -0.8913 -0.2280 -0.3890
13136SOL    HW141415  10.384   0.728   6.657  1.9725  0.1473  0.6128
13136SOL    HW241416  10.389   0.848   6.749 -3.3533  1.1826 -0.1188
13137SOL     OW41417   7.541   5.579   0.787  0.0559  0.1760 -0.2263
13137SOL    HW141418   7.506   5.491   0.773 -0.1927  0.1964  0.2682
13137SOL    HW241419   7.586   5.600   0.704 -0.1577 -0.2827 -0.4624
13138SOL     OW41420  10.120   0.106   0.631  0.5692 -0.4187 -0.1572
13138SOL    HW141421  10.115   0.012   0.620  2.2320 -0.5590  0.0870
13138SOL    HW241422  10.182   0.135   0.564  0.4558  0.4435  0.0990
13139SOL     OW41423   0.555   5.598   1.291 -0.7112  0.4024  0.0974
13139SOL    HW141424   0.604   5.522   1.322 -2.5433 -0.1509  1.8610
13139SOL    HW241425   0.511   5.567   1.212 -0.1947  0.1306 -0.0862
13140SOL     OW41426   0.063  10.573   3.865 -0.0533  0.4803 -0.7934
13140SOL    HW141427   0.142  10.583   3.812 -0.4505 -1.1902 -1.7772
13140SOL    HW241428   0.050  10.478   3.870 -0.4351  0.6098  1.7362
13141SOL     OW41429   6.885   9.687   4.670 -0.1096  0.0784 -0.4253
13141SOL    HW141430   6.888   9.636   4.589  2.0634  0.0561 -0.3805
13141SOL    HW241431   6.904   9.624   4.739  0.3421  0.5183 -0.1406
13142SOL     OW41432   8.450   3.607   4.710  0.3230 -0.0244  0.3347
13142SOL    HW141433   8.542   3.605   4.736  0.8333 -1.5423 -1.4240
13142SOL    HW241434   8.407   3.546   4.771  0.8011 -0.5693  0.1393
13143SOL     OW41435   8.740   4.967   6.350  0.4476  0.0330 -0.0946
13143SOL    HW141436   8.670   5.032   6.337  0.2092  0.2318  1.8488
13143SOL    HW241437   8.751   4.964   6.445  0.9708 -2.2648 -0.1942
13144SOL     OW41438  10.349   8.486   8.133  0.2374  1.0354 -0.1164
13144SOL    HW141439  10.264   8.446   8.114  0.3804  1.1361 -0.9821
13144SOL    HW241440  10.330   8.579   8.146  0.1108  0.9321  0.4647
13145SOL     OW41441   6.109   0.855   6.952  0.3707  0.2093  0.2528
13145SOL    HW141442   6.172   0.820   7.014  0.5897  0.3616  0.1199
13145SOL    HW241443   6.161   0.875   6.874 -0.1830 -1.6197 -0.6432
13146SOL     OW41444   3.345   0.288   1.662 -0.2157 -0.2596 -0.3987
13146SOL    HW141445   3.435   0.314   1.640 -0.2270 -1.4206 -1.9556
13146SOL    HW241446   3.354   0.241   1.745  0.3471  1.1467  0.3671
13147SOL     OW41447  10.275   8.920   0.168  0.1861 -0.8809  0.3360
13147SOL    HW141448  10.344   8.854   0.176 -0.3903 -1.3604  1.6041
13147SOL    HW241449  10.321   9.000   0.142  1.3061 -1.0672  1.6429
13148SOL     OW41450   7.251   9.943   8.876 -0.3560  0.0942 -0.4809
13148SOL    HW141451   7.321   9.995   8.916 -2.0111  0.0299  2.8791
13148SOL    HW241452   7.234   9.985   8.792  0.4911  3.0589  0.7089
13149SOL     OW41453   9.795  11.007   8.679 -0.0610  0.0227  0.3371
13149SOL    HW141454   9.816  11.011   8.772  0.4127 -1.4089  0.3187
13149SOL    HW241455   9.814  10.917   8.654 -1.0672  0.1345 -0.9477
13150SOL     OW41456   3.107   2.753   4.820  0.0886 -0.6551  0.0511
13150SOL    HW141457   3.027   2.803   4.808 -0.1168 -0.1019  3.0041
13150SOL    HW241458   3.162   2.776   4.745 -1.2319  1.5378 -0.3063
13151SOL     OW41459   6.795   0.655   7.858 -0.4429  0.6277  0.5779
13151SOL    HW141460   6.867   0.607   7.818  1.3852  0.5321  3.6758
13151SOL    HW241461   6.717   0.625   7.811  1.0382 -2.4795 -0.1387
13152SOL     OW41462   7.937  10.915   6.499 -0.6080 -0.1046  0.5385
13152SOL    HW141463   7.844  10.913   6.478 -0.9457  1.7594  1.6490
13152SOL    HW241464   7.947  10.854   6.572 -0.5131 -1.9123 -0.8875
13153SOL     OW41465   3.997   5.383   3.475  0.4186  0.0730  0.3737
13153SOL    HW141466   4.063   5.347   3.415 -0.0341 -0.6470  0.2961
13153SOL    HW241467   3.995   5.477   3.456  1.9069  0.2307  0.8367
13154SOL     OW41468   0.496   4.506   8.429 -0.0232 -0.9551  0.1583
13154SOL    HW141469   0.471   4.539   8.343 -0.4284 -0.8331  0.3210
13154SOL    HW241470   0.525   4.584   8.477  0.6857 -1.0966 -0.0342
13155SOL     OW41471   3.973   8.254   2.719  0.2055  0.6415  0.3137
13155SOL    HW141472   3.985   8.165   2.752 -1.7596 -0.0713 -0.6769
13155SOL    HW241473   3.950   8.305   2.796 -4.4356 -1.0106  0.3334
13156SOL     OW41474   8.525   8.554   8.507 -0.1639  0.4055  0.1257
13156SOL    HW141475   8.468   8.476   8.501 -0.9642  1.0656 -1.3430
13156SOL    HW241476   8.535   8.583   8.416 -0.2070  2.2505  0.6804
13157SOL     OW41477   4.654   9.873  11.051  0.0712  0.0962 -0.0366
13157SOL    HW141478   4.644   9.817  10.974  1.4407  1.4020 -1.2220
13157SOL    HW241479   4.748   9.887  11.059 -0.1675  1.3498  0.8854
13158SOL     OW41480   0.541   7.591   5.301  0.0062 -0.4331  0.0986
13158SOL    HW141481   0.502   7.506   5.280 -1.4659 -0.1514  1.4639
13158SOL    HW241482   0.587   7.617   5.222 -1.5076 -1.4364 -1.1688
13159SOL     OW41483   3.308   9.765   7.663  0.3890 -0.0856  0.8573
13159SOL    HW141484   3.326   9.853   7.696 -2.8186  1.1294 -0.1992
13159SOL    HW241485   3.386   9.714   7.686  1.7949  2.6503  2.7432
13160SOL     OW41486   3.081   1.472   3.414 -0.7857  0.3648  0.3532
13160SOL    HW141487   3.087   1.382   3.380  2.2759  0.5677  0.0458
13160SOL    HW241488   3.103   1.527   3.339 -0.6753  1.2547  1.0205
13161SOL     OW41489   2.506   6.831   8.301  0.8870  0.7635  0.3281
13161SOL    HW141490   2.420   6.823   8.344  0.4636  2.5106 -0.1225
13161SOL    HW241491   2.489   6.888   8.226  2.1756 -0.0299 -0.5911
13162SOL     OW41492   9.315   9.313   2.964 -0.3321 -0.3251  0.0611
13162SOL    HW141493   9.245   9.250   2.983 -0.9365 -0.4554 -2.3076
13162SOL    HW241494   9.316   9.371   3.040 -0.9150 -2.1305  1.5410
13163SOL     OW41495   2.050   0.113   2.676  0.4134 -0.4863  0.2749
13163SOL    HW141496   2.025   0.206   2.668 -0.0834 -0.5891  0.5817
13163SOL    HW241497   2.142   0.111   2.650  0.2584 -0.0029 -0.3549
13164SOL     OW41498   7.651   6.783   1.159  0.0290  0.1853  0.2296
13164SOL    HW141499   7.577   6.724   1.174  1.5634 -2.0555 -0.4814
13164SOL    HW241500   7.674   6.770   1.066  0.6381  1.6635  0.1471
13165SOL     OW41501   8.311   6.489   5.644  0.5595 -0.0431  0.0050
13165SOL    HW141502   8.286   6.397   5.637  0.8857 -0.1023 -0.4159
13165SOL    HW241503   8.247   6.537   5.591 -0.9559  0.2340  1.9503
13166SOL     OW41504  10.580   1.798   8.420 -0.3465  0.5473 -0.5189
13166SOL    HW141505  10.489   1.787   8.449 -0.1951 -0.1490 -0.3024
13166SOL    HW241506  10.615   1.865   8.479  0.0971 -1.1833  1.2767
13167SOL     OW41507   6.812   0.604  10.908 -0.0254 -0.2542 -0.1119
13167SOL    HW141508   6.868   0.529  10.887 -0.9504 -1.1862  0.5903
13167SOL    HW241509   6.873   0.675  10.928  0.9275 -1.2597  0.7187
13168SOL     OW41510   1.933   1.689   5.363  0.9319 -0.0606  0.0483
13168SOL    HW141511   1.876   1.726   5.296  0.4641 -0.3203  0.3046
13168SOL    HW241512   1.939   1.758   5.429  0.9722 -0.0084 -0.0090
13169SOL     OW41513   1.214   1.169   4.901 -0.1568 -0.0948  0.2534
13169SOL    HW141514   1.248   1.080   4.888  1.5498  0.6749 -0.9669
13169SOL    HW241515   1.283   1.226   4.866 -2.5576  1.6128 -2.0646
13170SOL     OW41516   7.120   3.712   5.739  0.6777 -0.5435  0.6169
13170SOL    HW141517   7.026   3.702   5.722 -0.2807  0.1444  4.5740
13170SOL    HW241518   7.132   3.805   5.754  1.8393 -0.7231  0.9168
13171SOL     OW41519   8.509   7.158   6.006  0.1977 -0.3314  0.4958
13171SOL    HW141520   8.572   7.099   5.965 -0.3270  1.6211 -3.6294
13171SOL    HW241521   8.504   7.233   5.946 -3.9636  0.9239  2.0718
13172SOL     OW41522  10.562  10.182   0.196 -0.0277 -0.3975 -0.6879
13172SOL    HW141523  10.478  10.187   0.241  0.4685  1.4465  0.1268
13172SOL    HW241524  10.547  10.225   0.112  0.3448  0.9319 -0.0948
13173SOL     OW41525  10.506   2.624   5.833 -0.2124 -0.3845 -0.0182
13173SOL    HW141526  10.433   2.571   5.863 -2.1182  1.3895 -1.2615
13173SOL    HW241527  10.495   2.629   5.738  0.2950  1.5982 -0.0251
13174SOL     OW41528  10.021   8.524   2.179  0.6261 -0.1537 -0.7240
13174SOL    HW141529  10.077   8.464   2.129  0.9748 -1.0964  0.7521
13174SOL    HW241530  10.075   8.552   2.252 -0.9950 -1.6679  1.1607
13175SOL     OW41531   9.241   1.873   6.762  0.1575  0.5346  0.6151
13175SOL    HW141532   9.165   1.821   6.789 -0.4281  1.0054 -0.0812
13175SOL    HW241533   9.239   1.870   6.666  0.3921  1.4292  0.5724
13176SOL     OW41534   1.157   7.505   9.717  0.0326  0.7633 -1.0176
13176SOL    HW141535   1.077   7.558   9.723 -1.3487 -1.2740 -0.2204
13176SOL    HW241536   1.151   7.462   9.631 -0.4025 -0.3541 -0.4463
13177SOL     OW41537   0.339   3.019   0.178  0.1281  0.4677  0.2086
13177SOL    HW141538   0.415   3.027   0.120 -0.2673 -0.3217 -0.4389
13177SOL    HW241539   0.377   2.999   0.263  0.6734  0.4543 -0.0298
13178SOL     OW41540   3.991   2.088  10.233 -0.3293  0.5580  0.1588
13178SOL    HW141541   3.986   2.021  10.164  1.4385 -0.1958  0.7026
13178SOL    HW241542   4.052   2.052  10.297 -0.4151  2.1001  1.1638
13179SOL     OW41543  10.468   5.270   0.875  0.0495 -0.2311  0.1393
13179SOL    HW141544  10.432   5.356   0.896  2.9495  1.0920  0.1910
13179SOL    HW241545  10.449   5.259   0.782  0.2933  0.8453 -0.0570
13180SOL     OW41546   8.943  10.296   8.633  0.0817 -0.4487  0.0118
13180SOL    HW141547   8.986  10.232   8.690  2.4162 -1.2785 -2.4632
13180SOL    HW241548   9.009  10.364   8.619 -0.0465 -0.7210 -2.3053
13181SOL     OW41549   2.533  10.265   4.876  0.9447 -0.2019 -0.4130
13181SOL    HW141550   2.513  10.224   4.960  1.1869 -0.1413 -0.3261
13181SOL    HW241551   2.629  10.263   4.870  1.3542  3.9137  1.4059
13182SOL     OW41552   2.731  10.571   0.476  0.2236 -0.2109 -0.2899
13182SOL    HW141553   2.764  10.488   0.440  1.1265  0.5925 -1.3882
13182SOL    HW241554   2.718  10.553   0.569  2.6053 -0.9586 -0.0372
13183SOL     OW41555  10.869   5.804  10.143  0.3203 -0.6398 -0.1550
13183SOL    HW141556  10.848   5.720  10.104  0.7244 -0.6657 -0.3209
13183SOL    HW241557  10.951   5.831  10.101  0.9395 -0.8206  0.8956
13184SOL     OW41558   2.929   0.894   6.383 -0.6521 -0.1614 -0.8138
13184SOL    HW141559   2.939   0.844   6.465  0.2360  0.8681 -0.2693
13184SOL    HW241560   2.835   0.897   6.369 -0.8463 -0.0540  0.3779
13185SOL     OW41561   9.850   8.908   0.317  0.3303  0.3126 -0.0851
13185SOL    HW141562   9.886   8.963   0.387 -0.3500 -1.1552  1.5086
13185SOL    HW241563   9.821   8.829   0.362 -1.9550  0.0998 -1.7554
13186SOL     OW41564   1.227   4.254   4.449  0.2839  0.6143 -0.3095
13186SOL    HW141565   1.242   4.204   4.369  3.0842 -0.3234  0.6870
13186SOL    HW241566   1.163   4.321   4.424 -1.9689 -2.0360 -2.2449
13187SOL     OW41567   1.357   2.565   9.776 -0.0343 -0.2654 -0.5652
13187SOL    HW141568   1.422   2.524   9.834  0.0023 -1.0931 -1.1657
13187SOL    HW241569   1.321   2.637   9.827 -0.7190 -1.5691  0.8861
13188SOL     OW41570   2.405   1.841   5.911 -0.4214 -0.7306 -0.2602
13188SOL    HW141571   2.360   1.821   5.829 -2.4723  0.2925  0.5416
13188SOL    HW241572   2.494   1.864   5.884 -0.6547 -1.7196 -2.0436
13189SOL     OW41573   5.213   7.847   1.006 -0.0052  0.5306 -0.3375
13189SOL    HW141574   5.281   7.859   0.940  0.2047  2.7883  0.2108
13189SOL    HW241575   5.151   7.917   0.990 -0.8829  0.0361  0.7561
13190SOL     OW41576   9.398   2.595   6.785  0.2239  0.5720 -0.1659
13190SOL    HW141577   9.438   2.681   6.795 -0.7285  1.2372 -1.6077
13190SOL    HW241578   9.304   2.611   6.797 -0.2009  0.1808 -2.4507
13191SOL     OW41579   8.402   9.286   3.276 -0.3156 -0.2691 -0.1935
13191SOL    HW141580   8.454   9.352   3.230 -1.4437  0.6714 -0.1603
13191SOL    HW241581   8.335   9.336   3.323 -0.3204 -1.3331  1.0018
13192SOL     OW41582   1.355  11.052   3.573  0.1580 -0.7513 -0.2867
13192SOL    HW141583   1.385  11.022   3.658 -0.0294 -1.0268 -0.3146
13192SOL    HW241584   1.377  10.980   3.513 -1.2475 -1.3160 -0.1764
13193SOL     OW41585   2.662   0.764   0.228 -0.1210  0.3339 -0.9485
13193SOL    HW141586   2.597   0.734   0.165  0.3324 -0.9779 -0.8182
13193SOL    HW241587   2.611   0.804   0.298 -0.7911 -0.7523 -0.8069
13194SOL     OW41588   0.513   3.187   9.550  0.7640  0.0027 -0.0851
13194SOL    HW141589   0.463   3.114   9.586  0.8069 -0.6550 -1.2825
13194SOL    HW241590   0.480   3.196   9.460  2.9208 -0.5947 -1.0029
13195SOL     OW41591   6.997   6.230   3.161  0.4760 -0.5413  0.0656
13195SOL    HW141592   6.967   6.267   3.244  3.7009 -2.7307  2.4634
13195SOL    HW241593   6.970   6.138   3.164  1.1393 -0.7987 -1.0597
13196SOL     OW41594   1.819   6.869  10.519  0.4426  0.2204  0.2461
13196SOL    HW141595   1.813   6.919  10.437 -0.5169 -0.1382  0.0825
13196SOL    HW241596   1.862   6.788  10.494  3.1399  1.4135  0.7483
13197SOL     OW41597   4.006   1.072   0.851 -0.4097 -0.2435  0.1134
13197SOL    HW141598   4.050   1.126   0.917 -0.6918  0.3206 -0.1538
13197SOL    HW241599   3.990   0.989   0.895  2.7833 -1.2702 -0.3906
13198SOL     OW41600   7.806   8.667   5.859  0.3476 -0.1391  0.2543
13198SOL    HW141601   7.876   8.732   5.856 -1.3173  1.7856  1.0109
13198SOL    HW241602   7.825   8.614   5.936  2.3841 -1.4206 -1.0424
13199SOL     OW41603  10.068   2.960   9.972  0.2031  0.2259  0.3990
13199SOL    HW141604  10.079   2.865   9.980 -0.2521  0.3099  2.3884
13199SOL    HW241605  10.152   2.996  10.001  0.5489  0.4424 -0.8183
13200SOL     OW41606   7.275   3.276   8.155  0.2821  1.1098 -0.4782
13200SOL    HW141607   7.194   3.253   8.110  0.8087 -1.0136 -0.4447
13200SOL    HW241608   7.252   3.278   8.248  0.4616 -0.6166 -0.3699
13201SOL     OW41609   5.265   3.232   2.741 -1.2955 -0.9500 -0.7601
13201SOL    HW141610   5.315   3.244   2.660  1.5236 -1.3787  0.7977
13201SOL    HW241611   5.234   3.141   2.736 -1.5891 -0.8116 -1.5683
13202SOL     OW41612   6.048   5.580   5.493 -0.3312  0.0102  0.3076
13202SOL    HW141613   5.976   5.553   5.550  0.4518 -0.1559  1.2446
13202SOL    HW241614   6.124   5.532   5.526  0.0005 -0.6674 -1.3610
13203SOL     OW41615   3.220   7.672   6.729 -0.2785  0.2315  0.3572
13203SOL    HW141616   3.229   7.632   6.643  0.9770 -3.1993  1.8921
13203SOL    HW241617   3.284   7.744   6.729  0.5105 -0.4336 -1.2162
13204SOL     OW41618   1.055  10.017   6.560 -0.2965  0.3892  0.2674
13204SOL    HW141619   1.011  10.100   6.540  0.2491  0.8882  1.0867
13204SOL    HW241620   1.124  10.041   6.622 -0.0178 -0.6556  0.3720
13205SOL     OW41621   7.672   8.690   3.911 -0.4153  0.4125  0.2385
13205SOL    HW141622   7.702   8.614   3.960 -0.5266  0.2673  0.0861
13205SOL    HW241623   7.738   8.758   3.927  0.5457 -0.2156 -0.9131
13206SOL     OW41624   3.852   4.374   0.399  0.0873  0.1693 -0.0099
13206SOL    HW141625   3.862   4.386   0.305 -0.0462  1.4327  0.1087
13206SOL    HW241626   3.935   4.334   0.427  0.5489  0.7390 -0.5197
13207SOL     OW41627   0.326   0.038   5.953  0.0108  0.0281 -0.0877
13207SOL    HW141628   0.385   0.081   5.892  1.2939 -0.7156  0.5801
13207SOL    HW241629   0.305  -0.045   5.912  0.0702 -0.0478  0.0354
13208SOL     OW41630   2.859   3.354   7.048  0.4091  0.2123  0.2719
13208SOL    HW141631   2.908   3.275   7.026 -1.1825 -0.4702 -1.0486
13208SOL    HW241632   2.877   3.369   7.141  2.5468 -0.3478  0.0064
13209SOL     OW41633   1.425   4.416   9.634 -0.9257  0.4650  0.2248
13209SOL    HW141634   1.440   4.394   9.542  0.0955  2.4666 -0.1576
13209SOL    HW241635   1.340   4.379   9.655  0.1141 -2.6840 -0.5908
13210SOL     OW41636   9.809   6.724   5.152 -0.2386  0.1008  0.1001
13210SOL    HW141637   9.714   6.737   5.150 -0.1381  0.8629 -1.8895
13210SOL    HW241638   9.829   6.682   5.069  1.3018  0.9729 -0.0010
13211SOL     OW41639   0.053   2.494   6.028  0.0720  0.0416 -0.1752
13211SOL    HW141640   0.114   2.494   5.954 -2.3112  1.9592 -2.3307
13211SOL    HW241641  -0.026   2.450   5.995 -0.3433 -0.9975  1.9880
13212SOL     OW41642   9.879   3.248   8.435  0.3740 -0.0771  0.5785
13212SOL    HW141643   9.942   3.316   8.411 -1.0427  1.2258  0.3394
13212SOL    HW241644   9.931   3.170   8.449  2.5675  1.7533  4.1153
13213SOL     OW41645   2.958   6.897   5.386 -0.4228 -0.2518  0.5869
13213SOL    HW141646   2.985   6.810   5.355 -1.9975 -0.0006 -1.7541
13213SOL    HW241647   2.895   6.879   5.456 -0.8968 -1.0357 -0.0139
13214SOL     OW41648   1.476   9.010  10.893  0.3504  0.5151 -0.3132
13214SOL    HW141649   1.408   9.034  10.956  0.6382 -0.6188  0.4502
13214SOL    HW241650   1.461   8.917  10.876  0.4614  0.7325 -1.7094
13215SOL     OW41651   8.399   5.765   9.877 -0.4689 -0.3366  0.5620
13215SOL    HW141652   8.346   5.768   9.798  0.0646 -1.1670  0.1532
13215SOL    HW241653   8.338   5.739   9.946 -1.0027  0.7033  0.4889
13216SOL     OW41654   8.282   5.427   0.299 -0.2807 -0.1934 -0.4540
13216SOL    HW141655   8.209   5.477   0.261  0.2902  0.3643 -0.8286
13216SOL    HW241656   8.317   5.377   0.226  0.4647  0.4536 -0.5558
13217SOL     OW41657   0.854   8.365   4.451 -0.0356 -0.0538  0.3034
13217SOL    HW141658   0.792   8.438   4.444 -0.2870 -0.2714  0.2283
13217SOL    HW241659   0.801   8.293   4.486  0.7209  0.4529  2.7010
13218SOL     OW41660   3.767   4.631  10.435  0.0020 -0.3675 -0.0887
13218SOL    HW141661   3.720   4.640  10.519 -0.7054 -0.0466 -0.5089
13218SOL    HW241662   3.835   4.566  10.453 -0.9287 -1.2537  0.4211
13219SOL     OW41663   6.345   3.014   6.729  0.0027 -0.0759  0.2367
13219SOL    HW141664   6.397   2.935   6.747  0.7316  0.0360 -1.2385
13219SOL    HW241665   6.401   3.067   6.672 -0.4535  1.5576  1.2407
13220SOL     OW41666   2.570   3.667   3.494 -0.0820 -0.1217 -0.6625
13220SOL    HW141667   2.490   3.614   3.485 -0.3804  0.4870 -1.6940
13220SOL    HW241668   2.622   3.645   3.417  0.2618  0.2959 -0.5499
13221SOL     OW41669   4.079   1.015   3.070 -0.1457  0.2966  0.1803
13221SOL    HW141670   4.093   1.043   2.979  2.2131 -1.4326 -0.1000
13221SOL    HW241671   4.113   1.087   3.123 -1.6714  1.3808 -0.2713
13222SOL     OW41672   9.517   6.954   7.916  0.1255 -0.5229  0.7860
13222SOL    HW141673   9.506   6.870   7.962  0.2005  0.1758  2.1281
13222SOL    HW241674   9.582   7.001   7.967  0.2869  0.2613 -0.1119
13223SOL     OW41675   7.099   3.218   6.765  0.3468  0.6167  0.0475
13223SOL    HW141676   7.076   3.294   6.711  1.5041  0.8529 -0.1426
13223SOL    HW241677   7.184   3.190   6.732 -0.3900 -1.2657 -0.3885
13224SOL     OW41678   9.809   2.345   2.530  0.6695  0.0926  0.1594
13224SOL    HW141679   9.868   2.359   2.456  0.3652  0.6315  0.0100
13224SOL    HW241680   9.834   2.260   2.564  0.4388 -0.4275 -0.9195
13225SOL     OW41681   5.931   6.239   4.892  0.1349  0.1177  0.4286
13225SOL    HW141682   5.940   6.307   4.825  0.0991  0.3010  0.6079
13225SOL    HW241683   5.840   6.244   4.920  0.7199  1.7520  2.2689
13226SOL     OW41684   6.555   7.169   9.871 -0.5190  0.0793  0.2343
13226SOL    HW141685   6.495   7.215   9.813 -2.0496 -1.0159  0.8866
13226SOL    HW241686   6.554   7.078   9.840  1.8968  0.2640 -0.5976
13227SOL     OW41687   2.324   1.161   3.985 -0.0846  0.0427 -0.1884
13227SOL    HW141688   2.365   1.194   4.064 -1.8064  0.5988  0.5238
13227SOL    HW241689   2.393   1.162   3.919  0.9077  1.3447  0.8288
13228SOL     OW41690   7.790   0.771   6.274 -0.4396 -0.0849  0.7029
13228SOL    HW141691   7.849   0.730   6.211 -1.0097  0.6005 -0.2964
13228SOL    HW241692   7.847   0.796   6.347  0.3682 -0.1606  0.1107
13229SOL     OW41693  11.022   6.481   5.443  0.1231 -0.0893  0.1218
13229SOL    HW141694  11.107   6.503   5.480 -0.3339  0.4099  0.9008
13229SOL    HW241695  10.990   6.409   5.498 -0.3450  0.3244  0.3962
13230SOL     OW41696   8.944   7.741   0.401  0.4220  0.7771  0.1936
13230SOL    HW141697   8.972   7.798   0.472 -0.9248  0.5315  0.9651
13230SOL    HW241698   8.848   7.741   0.407  0.2517  1.0097 -1.8355
13231SOL     OW41699   6.537   3.523   1.869  0.4445  0.3216 -0.5087
13231SOL    HW141700   6.476   3.464   1.914 -0.9906  2.3941  0.4543
13231SOL    HW241701   6.523   3.506   1.776  0.7629 -1.4749 -0.2575
13232SOL     OW41702   3.945   9.672   4.248  0.4711  0.4312 -0.0906
13232SOL    HW141703   4.018   9.612   4.243 -0.5058 -0.6976 -1.6434
13232SOL    HW241704   3.916   9.668   4.340 -0.5129 -2.6963 -0.4147
13233SOL     OW41705   1.676   5.297   3.925  0.4975  0.0765  0.3558
13233SOL    HW141706   1.680   5.360   3.997  0.7164  1.0008 -0.4468
13233SOL    HW241707   1.598   5.322   3.875  1.0616  0.2701 -0.4555
13234SOL     OW41708   7.679   8.508   4.309  0.1857  0.5641 -0.3180
13234SOL    HW141709   7.599   8.551   4.337  0.2834  0.3221  0.3474
13234SOL    HW241710   7.708   8.458   4.385  0.5527  0.0314 -0.7943
13235SOL     OW41711   8.306   1.621   2.021 -0.3474 -0.0624  0.5106
13235SOL    HW141712   8.367   1.556   1.986 -0.5856  0.5763 -1.1992
13235SOL    HW241713   8.262   1.577   2.093 -1.0115 -2.0836 -1.0299
13236SOL     OW41714   4.725   6.801   3.579  0.1021  0.1274  0.2559
13236SOL    HW141715   4.724   6.737   3.651  1.5579 -0.8382 -0.5227
13236SOL    HW241716   4.701   6.884   3.620  2.8558  0.0438  2.3327
13237SOL     OW41717  10.128   9.254   4.860  0.2560  0.0264  0.6679
13237SOL    HW141718  10.180   9.184   4.901  0.5369 -0.1939 -0.0307
13237SOL    HW241719  10.165   9.261   4.771 -0.7880 -0.0018  0.2219
13238SOL     OW41720  10.463   3.319   5.891  0.5765  0.0568  0.1426
13238SOL    HW141721  10.405   3.243   5.898 -0.6764  0.9996  0.1396
13238SOL    HW241722  10.441   3.359   5.807 -0.1794  1.5498  1.0216
13239SOL     OW41723   7.512   7.685   8.034  0.4204  0.6316 -0.6555
13239SOL    HW141724   7.557   7.610   8.074  5.3930  3.9169  0.9407
13239SOL    HW241725   7.448   7.713   8.100  1.9152  0.4538  0.9505
13240SOL     OW41726   7.412   5.923   4.348 -0.4501 -0.1089  0.4963
13240SOL    HW141727   7.466   5.851   4.381  0.0139 -0.3301 -0.6956
13240SOL    HW241728   7.469   6.000   4.354  1.1170 -0.7713 -3.2719
13241SOL     OW41729   8.212   1.245   1.399  0.1435  0.5852 -0.4646
13241SOL    HW141730   8.262   1.223   1.320 -1.0528 -2.1192 -0.6089
13241SOL    HW241731   8.165   1.325   1.376  0.2693  0.1913 -2.2919
13242SOL     OW41732   3.978   5.994  10.205 -0.3332  0.1483 -0.0500
13242SOL    HW141733   3.993   5.902  10.226  0.3698 -0.3876 -2.5420
13242SOL    HW241734   3.885   5.999  10.185 -0.2477 -0.1661 -0.5300
13243SOL     OW41735   7.854   5.066   9.423 -0.3136  0.1557  0.6089
13243SOL    HW141736   7.934   5.028   9.458  0.7809  0.4815 -1.3747
13243SOL    HW241737   7.809   5.103   9.499  0.9039 -0.9176  1.8972
13244SOL     OW41738   4.564   1.005   7.543  0.1872 -0.4215  0.5153
13244SOL    HW141739   4.520   0.927   7.510  1.1157  0.0294 -1.9675
13244SOL    HW241740   4.530   1.077   7.490 -0.4297  0.8863  2.5477
13245SOL     OW41741   6.133   2.322   5.222 -0.7791 -0.2491  0.0544
13245SOL    HW141742   6.095   2.307   5.135  2.1597  0.8440 -1.5403
13245SOL    HW241743   6.227   2.311   5.210 -0.2488 -0.1437  3.1781
13246SOL     OW41744   0.549   3.394   8.026  0.0791  0.3501  0.2669
13246SOL    HW141745   0.512   3.334   7.962 -0.9318  2.1173 -0.9170
13246SOL    HW241746   0.643   3.389   8.013 -0.0184 -0.6939 -0.0631
13247SOL     OW41747   9.147   4.396   2.689  0.3865 -0.0428 -0.0341
13247SOL    HW141748   9.112   4.310   2.665 -0.5179  0.4846 -0.7361
13247SOL    HW241749   9.170   4.436   2.605  4.1746 -0.9031  0.4566
13248SOL     OW41750   4.227  10.221   8.124 -0.0694 -0.2535  0.2510
13248SOL    HW141751   4.283  10.250   8.052 -0.6020  0.3420  0.0757
13248SOL    HW241752   4.138  10.243   8.097 -0.3373 -0.6251  0.8040
13249SOL     OW41753   6.865   4.591   9.026  0.0084  0.1023  0.5260
13249SOL    HW141754   6.824   4.538   9.094  0.9857 -1.9892 -0.4251
13249SOL    HW241755   6.845   4.545   8.944  1.8462  0.5270 -0.2274
13250SOL     OW41756   7.387   0.398   4.320 -0.5527 -0.3448 -0.2761
13250SOL    HW141757   7.326   0.465   4.289 -0.6694  0.6183  1.8745
13250SOL    HW241758   7.353   0.316   4.285 -0.5260  0.6399 -2.7972
13251SOL     OW41759   4.635   8.252   0.267 -0.0030 -0.3301 -0.4512
13251SOL    HW141760   4.548   8.250   0.228 -0.3558  0.1241  0.3114
13251SOL    HW241761   4.622   8.284   0.356  1.3648  3.4619 -1.4449
13252SOL     OW41762   7.359  10.607   1.227  0.1428  0.1033  0.4380
13252SOL    HW141763   7.360  10.512   1.244  0.5511 -0.1456 -0.8504
13252SOL    HW241764   7.303  10.643   1.296  0.1926 -1.0412  1.1047
13253SOL     OW41765   7.178   4.237   0.012  0.3686  0.0926 -0.3892
13253SOL    HW141766   7.170   4.271   0.101  0.5344  1.7966 -0.9912
13253SOL    HW241767   7.223   4.153   0.022 -1.3803 -0.7077  1.2943
13254SOL     OW41768   5.606   1.074   6.014  0.4397 -0.2589  0.5973
13254SOL    HW141769   5.517   1.044   6.034  0.5141 -0.7572  0.2181
13254SOL    HW241770   5.659   1.042   6.087  0.2575  0.3270  0.9930
13255SOL     OW41771   3.408   1.384   1.512 -0.6952  0.2990  0.3604
13255SOL    HW141772   3.336   1.327   1.539 -1.5284 -0.3904 -2.7914
13255SOL    HW241773   3.378   1.421   1.429  3.1372 -1.3452 -2.0560
13256SOL     OW41774   6.424   7.218   3.354  0.7642 -0.1748 -0.5032
13256SOL    HW141775   6.459   7.138   3.393  2.2855  0.5672 -0.2924
13256SOL    HW241776   6.501   7.272   3.335 -0.1946  1.0411 -1.0881
13257SOL     OW41777   6.832   2.491   2.591 -0.5165 -0.1324  0.2672
13257SOL    HW141778   6.882   2.550   2.649 -0.8918  0.7084 -0.2404
13257SOL    HW241779   6.747   2.483   2.632  0.1084 -1.8411  1.3111
13258SOL     OW41780   2.340   5.976   1.123  0.0929  0.5155  0.2669
13258SOL    HW141781   2.290   5.895   1.126 -0.4753  0.8621  0.4511
13258SOL    HW241782   2.317   6.016   1.039 -0.1896  0.8296  0.4908
13259SOL     OW41783   8.144   7.004   9.473  0.3389 -0.5823 -0.2018
13259SOL    HW141784   8.210   7.060   9.512  0.4703 -1.1435  0.3884
13259SOL    HW241785   8.107   7.057   9.402  2.2474 -0.6907 -1.3495
13260SOL     OW41786  10.179   6.729  10.257  0.3604 -0.0717  0.5426
13260SOL    HW141787  10.247   6.754  10.320 -0.3281 -0.0426  1.2811
13260SOL    HW241788  10.102   6.778  10.284  0.1911  0.3579 -0.6574
13261SOL     OW41789   1.457   1.543   0.222 -0.8701  0.6043  0.2441
13261SOL    HW141790   1.451   1.460   0.175  1.4800  0.2767  0.3733
13261SOL    HW241791   1.401   1.531   0.299 -0.4909 -0.9311  0.3245
13262SOL     OW41792  11.041   8.994   4.667  0.4958  0.6843  0.0274
13262SOL    HW141793  11.092   9.061   4.713 -1.2661  0.1535  2.9840
13262SOL    HW241794  11.059   8.913   4.715  0.0290 -0.3542 -1.4651
13263SOL     OW41795   2.198   4.310   9.626  0.1123 -0.7190 -0.2705
13263SOL    HW141796   2.280   4.360   9.622  0.4085 -1.1758  0.0096
13263SOL    HW241797   2.195   4.264   9.542 -0.4380  0.1821 -0.7641
13264SOL     OW41798   2.768   2.934   2.796 -0.4239 -0.0051 -0.5374
13264SOL    HW141799   2.676   2.932   2.771 -0.2793  2.7104 -1.5944
13264SOL    HW241800   2.805   2.854   2.759 -1.9413 -0.1334 -1.8725
13265SOL     OW41801   6.912   5.601   0.058 -0.5978  0.0942 -0.3103
13265SOL    HW141802   6.831   5.550   0.056 -1.7963  1.8925 -2.1124
13265SOL    HW241803   6.929   5.617   0.151 -0.9769 -2.2644  0.2136
13266SOL     OW41804   4.888   9.864   2.711  0.4012 -0.8673 -0.6486
13266SOL    HW141805   4.970   9.844   2.667  0.1486 -0.8231 -1.1469
13266SOL    HW241806   4.889   9.959   2.723  2.1361 -1.1521  2.7712
13267SOL     OW41807   0.454   6.072   0.863  0.1121 -0.3980  0.7933
13267SOL    HW141808   0.427   5.999   0.808 -0.2369 -0.7032  1.3599
13267SOL    HW241809   0.524   6.037   0.918  0.0689 -0.2568  0.9399
13268SOL     OW41810   4.114   6.785   0.516 -0.0359 -0.0029 -0.1978
13268SOL    HW141811   4.021   6.784   0.496 -0.1014  0.4123  0.0750
13268SOL    HW241812   4.157   6.765   0.433 -0.3821 -0.8327 -0.1937
13269SOL     OW41813   5.702   8.928   1.675 -0.6517  0.5070 -0.0110
13269SOL    HW141814   5.672   8.994   1.737  1.0290 -0.0995  1.5211
13269SOL    HW241815   5.739   8.859   1.729  2.0486  0.5003 -1.6910
13270SOL     OW41816  10.590   8.136   0.265  0.1268 -0.4502  0.4642
13270SOL    HW141817  10.531   8.061   0.273  0.2615 -0.4097  1.9938
13270SOL    HW241818  10.619   8.133   0.174 -0.6593 -1.6551  0.2272
13271SOL     OW41819   4.651   6.644   1.345 -0.7303  0.3751 -0.3787
13271SOL    HW141820   4.592   6.646   1.270 -3.3482 -0.3127  1.5266
13271SOL    HW241821   4.692   6.731   1.345 -2.1073  1.0729 -1.5208
13272SOL     OW41822   7.313  10.501   3.187 -0.3323 -0.2026 -0.2856
13272SOL    HW141823   7.284  10.422   3.141  1.3472 -1.3596  0.5404
13272SOL    HW241824   7.397  10.522   3.149 -1.5130  2.3220 -1.7211
13273SOL     OW41825   9.654   3.111   1.414 -0.4956  0.3002  0.2291
13273SOL    HW141826   9.739   3.141   1.445 -0.9152  1.9429 -0.1070
13273SOL    HW241827   9.620   3.185   1.363 -2.5030  0.0452  1.1077
13274SOL     OW41828   1.276   5.504   5.778 -0.0711  0.4974  0.4635
13274SOL    HW141829   1.260   5.554   5.697 -2.0547 -0.7045  0.0568
13274SOL    HW241830   1.285   5.571   5.845  0.4557  1.4970 -0.5665
13275SOL     OW41831   8.396  10.845   3.207 -0.4180  0.1796 -0.3828
13275SOL    HW141832   8.479  10.810   3.174 -0.9137 -1.1444 -0.2688
13275SOL    HW241833   8.350  10.874   3.128 -1.2040 -2.1101 -0.8192
13276SOL     OW41834   3.706   0.919   7.914  0.5459 -0.0914  0.0303
13276SOL    HW141835   3.616   0.905   7.943  0.3921  0.7897  0.0240
13276SOL    HW241836   3.707   0.886   7.824  0.4807 -0.9519  0.3379
13277SOL     OW41837   5.512   8.658   4.814  0.6949  0.1196 -0.1457
13277SOL    HW141838   5.591   8.711   4.826  0.9829 -0.0056 -1.3854
13277SOL    HW241839   5.542   8.583   4.762 -0.2950  0.1648 -0.7853
13278SOL     OW41840  10.150   0.849   7.038  0.2101 -0.1409 -0.1601
13278SOL    HW141841  10.152   0.761   7.001  0.6735  0.3401 -1.3301
13278SOL    HW241842  10.203   0.843   7.118  0.5282 -0.8368 -0.4198
13279SOL     OW41843   3.468   7.748   6.396 -0.2740  0.1006 -0.0776
13279SOL    HW141844   3.433   7.835   6.377  2.5780  0.9342 -2.1555
13279SOL    HW241845   3.518   7.759   6.477 -2.4392 -0.4829  1.4419
13280SOL     OW41846   3.944   3.329   1.791  0.2670  0.6362  0.7413
13280SOL    HW141847   3.916   3.388   1.721 -1.8016  1.8093  2.4426
13280SOL    HW241848   4.007   3.380   1.842  0.2259  0.5254  0.9044
13281SOL     OW41849   4.118   7.475   0.412 -0.4067  0.0759 -0.1777
13281SOL    HW141850   4.057   7.537   0.451 -2.8192 -1.3966 -1.3727
13281SOL    HW241851   4.119   7.498   0.319  0.4610 -0.2794 -0.2682
13282SOL     OW41852   9.081   5.204  10.102 -0.6207 -0.4130 -0.2210
13282SOL    HW141853   9.041   5.258  10.034 -0.7034 -1.4085 -0.9762
13282SOL    HW241854   9.010   5.147  10.131 -0.7447  0.3712  1.1199
13283SOL     OW41855   9.057   0.946   8.943  0.4289 -0.0034  0.9668
13283SOL    HW141856   9.054   0.853   8.963 -1.6644 -1.0942 -3.3585
13283SOL    HW241857   9.107   0.952   8.862 -1.3529  2.2578 -0.0956
13284SOL     OW41858   2.522   8.183   7.281  0.3382 -0.5144 -0.0981
13284SOL    HW141859   2.612   8.210   7.263  0.9461 -1.9776  0.6329
13284SOL    HW241860   2.476   8.266   7.297  2.0716  0.1965  1.7660
13285SOL     OW41861  10.877   9.812   2.289 -0.1859  0.9383  0.7006
13285SOL    HW141862  10.885   9.721   2.318  1.3728  0.3504 -1.3104
13285SOL    HW241863  10.784   9.824   2.272 -0.3683 -0.4283  0.6322
13286SOL     OW41864   7.916   1.767   8.244  0.1212  0.0523 -0.2745
13286SOL    HW141865   7.847   1.831   8.226 -1.0536 -1.3016 -0.7736
13286SOL    HW241866   7.998   1.813   8.225 -0.6112  1.7416  0.4611
13287SOL     OW41867   8.625   0.776   7.907  0.4658  0.0514  0.1481
13287SOL    HW141868   8.565   0.836   7.863 -0.1310  1.5099  2.7380
13287SOL    HW241869   8.704   0.778   7.853 -0.3894  1.2569 -1.1544
13288SOL     OW41870   6.030   0.599   8.887  0.1781 -0.3035  0.3176
13288SOL    HW141871   6.125   0.590   8.896 -0.0529 -1.4410  1.9804
13288SOL    HW241872   5.995   0.512   8.906 -1.2606  0.3165  0.6749
13289SOL     OW41873   3.898  10.225   0.448 -0.2071  0.5302 -1.0555
13289SOL    HW141874   3.810  10.240   0.415 -0.4707  1.1253 -0.1192
13289SOL    HW241875   3.907  10.286   0.522  0.9087  0.3302 -1.0067
13290SOL     OW41876   9.830   7.106   0.556  0.2720 -0.1530  0.9887
13290SOL    HW141877   9.920   7.099   0.588  0.3345 -1.5680  0.5655
13290SOL    HW241878   9.822   7.197   0.527  1.7096 -0.1113  0.6449
13291SOL     OW41879   2.167  10.197   7.175 -0.1253  0.0096  0.4779
13291SOL    HW141880   2.217  10.172   7.253  1.4453  0.6271 -0.2735
13291SOL    HW241881   2.221  10.166   7.102 -1.2000  0.1040 -0.3742
13292SOL     OW41882   4.001   6.058   3.898 -0.5104 -0.6539 -0.8881
13292SOL    HW141883   3.969   6.046   3.988 -1.2110 -1.2858 -1.2058
13292SOL    HW241884   4.028   5.971   3.871  0.6838 -0.2751 -0.9428
13293SOL     OW41885  10.644   8.860  10.108  0.6532  0.5993  0.1681
13293SOL    HW141886  10.723   8.862  10.054  1.1939  0.1531  0.9162
13293SOL    HW241887  10.572   8.862  10.045  1.2486  1.6788 -0.4976
13294SOL     OW41888   1.006   9.537   8.294 -0.7278  0.0564  0.4438
13294SOL    HW141889   0.974   9.596   8.225  0.5113  0.2286 -0.0076
13294SOL    HW241890   1.053   9.468   8.247  1.6860  1.1283  1.1528
13295SOL     OW41891  10.906   1.527   5.209  0.0976  0.7297 -0.8141
13295SOL    HW141892  10.972   1.458   5.213  0.4849  1.1412  0.3892
13295SOL    HW241893  10.853   1.514   5.288 -1.1144  0.5793 -1.6076
13296SOL     OW41894   9.932   3.115   9.258 -0.0915  0.7006  0.3669
13296SOL    HW141895   9.991   3.162   9.317  0.7247 -1.1816  1.1063
13296SOL    HW241896   9.875   3.065   9.316 -1.2500  1.1259 -0.3928
13297SOL     OW41897   3.634   2.537   0.098 -0.0954 -0.0113  0.5463
13297SOL    HW141898   3.640   2.631   0.118 -1.1541 -0.1867  1.8344
13297SOL    HW241899   3.696   2.496   0.158  0.3863 -0.1417 -0.0344
13298SOL     OW41900   9.635   4.564   4.307  0.3414 -0.3239  0.5488
13298SOL    HW141901   9.571   4.614   4.358 -1.2543 -1.5233 -0.1888
13298SOL    HW241902   9.620   4.473   4.332 -0.4938 -0.9559 -1.9598
13299SOL     OW41903   4.208   3.455   4.896 -0.0733  0.5199 -0.2209
13299SOL    HW141904   4.190   3.362   4.883  0.6029  0.5575 -1.5943
13299SOL    HW241905   4.216   3.491   4.808  2.2092  1.3706  0.2564
13300SOL     OW41906   6.950  10.308   4.588  0.5678 -0.1025 -0.1788
13300SOL    HW141907   6.906  10.363   4.653  1.0301  1.4771 -1.1471
13300SOL    HW241908   6.969  10.226   4.635  1.3755  1.1621  1.8513
13301SOL     OW41909   6.256   9.776   1.417  0.1876 -0.7789  0.0570
13301SOL    HW141910   6.226   9.775   1.508 -1.2384 -2.3129 -0.3705
13301SOL    HW241911   6.254   9.684   1.391  0.5070 -0.3544 -1.5554
13302SOL     OW41912   3.810   0.594   1.374  0.0924  0.5322  0.4438
13302SOL    HW141913   3.812   0.535   1.449  1.6527  0.0461  0.0564
13302SOL    HW241914   3.858   0.548   1.305  2.0803  2.5116  0.3586
13303SOL     OW41915   8.269   4.735   9.353  0.4143 -0.2262  0.5590
13303SOL    HW141916   8.301   4.648   9.329  2.5367  0.2516  1.3655
13303SOL    HW241917   8.193   4.750   9.297  1.0346 -1.9034 -0.8155
13304SOL     OW41918   2.185   3.584   9.239  0.1537 -0.0178 -0.1524
13304SOL    HW141919   2.137   3.513   9.281  0.0807 -0.3875 -0.8399
13304SOL    HW241920   2.136   3.601   9.158  0.0954  0.9046  0.0705
13305SOL     OW41921   9.084   9.189   7.532 -0.3666 -0.7889  0.1458
13305SOL    HW141922   9.078   9.232   7.447 -1.6941 -0.7938  0.2218
13305SOL    HW241923   8.994   9.176   7.559  0.0283 -0.3395  1.7935
13306SOL     OW41924   7.262   5.493   8.417  0.0051  0.1424  0.0669
13306SOL    HW141925   7.217   5.440   8.351  1.0392 -0.3694 -0.2388
13306SOL    HW241926   7.296   5.430   8.480  1.0334  0.4489 -0.1676
13307SOL     OW41927   6.503   6.925   8.093  0.3895  0.1439 -0.3089
13307SOL    HW141928   6.487   6.959   8.005 -0.8198  0.4407  0.0120
13307SOL    HW241929   6.520   6.832   8.080 -1.6303 -0.2140 -0.7155
13308SOL     OW41930   2.929   2.221   3.482 -0.0237 -0.1297 -0.1797
13308SOL    HW141931   3.019   2.246   3.462 -0.2074 -0.0938 -0.9951
13308SOL    HW241932   2.925   2.128   3.461  0.2591 -0.5425  1.4441
13309SOL     OW41933   8.229   0.749   7.074  0.3226  0.2449 -0.0838
13309SOL    HW141934   8.218   0.794   6.991  0.2424 -2.0375 -1.4123
13309SOL    HW241935   8.145   0.706   7.089 -0.0040  1.4267  1.7404
13310SOL     OW41936   6.844   0.051   9.527 -0.5019  0.7601  0.0587
13310SOL    HW141937   6.753   0.025   9.516 -0.2535  0.8407 -3.0513
13310SOL    HW241938   6.878  -0.008   9.595 -1.7369 -2.3926 -1.8417
13311SOL     OW41939   8.638   6.644   2.792 -0.0388  0.1156  0.7614
13311SOL    HW141940   8.597   6.702   2.856 -0.7643 -1.0587  1.4213
13311SOL    HW241941   8.564   6.602   2.748  0.4430 -1.2590  1.2155
13312SOL     OW41942   1.597   4.564   3.477 -0.3103 -0.4394  0.1879
13312SOL    HW141943   1.523   4.604   3.433  0.7423  0.4999 -0.7583
13312SOL    HW241944   1.557   4.515   3.550 -1.6936  1.6776  0.9356
13313SOL     OW41945   5.211   9.149  10.029  0.4822 -0.2523 -0.3455
13313SOL    HW141946   5.244   9.239  10.018  0.7878 -0.5370 -2.0163
13313SOL    HW241947   5.165   9.151  10.113 -0.3374  1.7193 -0.7754
13314SOL     OW41948   4.487   8.757   0.566 -0.0533 -0.2532  0.4144
13314SOL    HW141949   4.579   8.733   0.573  0.2777  0.4436 -1.0854
13314SOL    HW241950   4.460   8.774   0.656  1.7376  1.1034  0.7705
13315SOL     OW41951   4.426   5.304   4.790  0.0741 -0.2364 -0.6235
13315SOL    HW141952   4.496   5.365   4.814  0.5914 -0.7977 -0.7046
13315SOL    HW241953   4.430   5.235   4.856 -0.1756 -0.4527 -0.8306
13316SOL     OW41954   7.252   1.638   5.814 -0.0136  1.0608 -0.0727
13316SOL    HW141955   7.322   1.622   5.751 -0.1645 -0.2337  0.0636
13316SOL    HW241956   7.296   1.675   5.890  0.1546  2.8019 -0.9563
13317SOL     OW41957   6.642   5.690   5.889  0.2518  0.3532  0.5054
13317SOL    HW141958   6.637   5.696   5.793 -2.7141 -0.0509  0.5416
13317SOL    HW241959   6.611   5.775   5.920  2.1906  0.8626  1.1645
13318SOL     OW41960   7.567   0.480   0.772 -0.1625 -0.6923 -0.8816
13318SOL    HW141961   7.538   0.443   0.856  1.4460 -0.8039 -0.3323
13318SOL    HW241962   7.506   0.552   0.755  0.8796  0.9854  1.6983
13319SOL     OW41963  10.937   5.854   8.496  0.1922  0.5029  0.3688
13319SOL    HW141964  10.876   5.884   8.563  0.8052  2.3884  0.1470
13319SOL    HW241965  10.908   5.898   8.416  0.8204  0.0825 -0.1029
13320SOL     OW41966   8.970   0.538   5.519 -0.3352 -0.7193  0.9051
13320SOL    HW141967   8.991   0.627   5.492  2.9423 -2.0887 -1.8237
13320SOL    HW241968   8.980   0.538   5.614  0.9672  1.5211  0.8272
13321SOL     OW41969   8.587   3.449   6.336 -0.1490  0.0093  0.1129
13321SOL    HW141970   8.642   3.370   6.336  0.4347  0.3749 -1.6341
13321SOL    HW241971   8.498   3.416   6.335  0.0406 -0.6034  1.3620
13322SOL     OW41972  10.228   1.171   4.643 -0.3146 -1.0327  0.4353
13322SOL    HW141973  10.302   1.189   4.701 -1.5371 -2.4829  2.5962
13322SOL    HW241974  10.236   1.079   4.621 -0.8521 -0.9193 -0.2711
13323SOL     OW41975   2.631   2.607   0.263  0.6523 -0.3756 -0.2884
13323SOL    HW141976   2.634   2.544   0.192  3.2470 -0.4308 -0.2361
13323SOL    HW241977   2.633   2.692   0.220 -1.3025 -0.3142 -0.3201
13324SOL     OW41978   5.679   0.855   0.277  0.8852 -0.0192 -0.1293
13324SOL    HW141979   5.753   0.868   0.336  1.5658 -1.2534 -0.6935
13324SOL    HW241980   5.657   0.763   0.285  1.0384 -0.2313 -1.8409
13325SOL     OW41981   1.344   6.631   9.856  0.1467 -0.4522 -0.0079
13325SOL    HW141982   1.254   6.598   9.854  0.2678 -0.7643 -0.3760
13325SOL    HW241983   1.343   6.699   9.924 -0.2799 -0.6969  0.2338
13326SOL     OW41984   0.553   0.308   5.336 -0.4909  0.0395 -0.0238
13326SOL    HW141985   0.497   0.363   5.281  1.0175  1.5255 -0.1758
13326SOL    HW241986   0.642   0.326   5.305  0.2798 -0.2773  1.8549
13327SOL     OW41987   0.450   5.892  10.348  0.0266 -0.2707  0.0490
13327SOL    HW141988   0.531   5.857  10.310 -0.5173 -0.6771 -0.7737
13327SOL    HW241989   0.444   5.850  10.433  1.2134  0.5637  0.5691
13328SOL     OW41990   3.893   7.847   6.258  0.2147  0.3023 -0.5834
13328SOL    HW141991   3.804   7.814   6.248  0.3923 -1.5205  2.5377
13328SOL    HW241992   3.911   7.840   6.352  3.4527  1.1956 -1.0049
13329SOL     OW41993   8.916   7.633   5.972 -0.0973 -0.0487  0.3307
13329SOL    HW141994   8.857   7.558   5.983 -1.2583  0.8863  0.6515
13329SOL    HW241995   8.922   7.672   6.059  1.5626 -0.5081  0.4549
13330SOL     OW41996   6.776   7.004   5.622 -0.3824 -0.3067  0.9153
13330SOL    HW141997   6.870   6.987   5.626 -0.3934 -0.1189  2.2872
13330SOL    HW241998   6.738   6.951   5.691 -1.3354 -0.5875  0.2008
13331SOL     OW41999   6.001   0.292   3.074  0.0798 -0.3091  0.7489
13331SOL    HW142000   6.003   0.235   3.151  0.1227 -1.8424 -0.3399
13331SOL    HW242001   6.091   0.323   3.066 -0.1300  0.6515  1.8514
13332SOL     OW42002   5.305   0.767   8.582  0.9463 -0.4951 -0.2173
13332SOL    HW142003   5.300   0.863   8.589  0.4153 -0.5362  0.0036
13332SOL    HW242004   5.394   0.746   8.612  0.6069 -0.1795  1.0758
13333SOL     OW42005  10.960   1.330   0.525  0.1446 -0.1966  0.5924
13333SOL    HW142006  10.917   1.334   0.610  1.0934 -2.5442  1.2856
13333SOL    HW242007  10.890   1.310   0.463 -0.1193 -2.1744  1.4350
13334SOL     OW42008   2.064   8.389   0.259  0.1322 -0.4402  0.2038
13334SOL    HW142009   2.011   8.384   0.338  0.3563 -0.5876  0.3480
13334SOL    HW242010   2.011   8.347   0.191  0.3364 -1.2040  0.4985
13335SOL     OW42011  10.802   8.736   8.492 -0.6019  0.0998 -0.7105
13335SOL    HW142012  10.796   8.830   8.514  0.7944  0.5967 -2.2704
13335SOL    HW242013  10.877   8.705   8.542 -1.2219 -0.2703  0.0064
13336SOL     OW42014   5.154   3.028   4.571 -0.1492  0.3334  0.2280
13336SOL    HW142015   5.230   3.082   4.553  1.1675 -1.7939 -1.1606
13336SOL    HW242016   5.135   3.041   4.664  1.7513  1.1347  0.5369
13337SOL     OW42017   6.764   1.451   5.930 -0.1749 -0.2754 -0.0051
13337SOL    HW142018   6.840   1.506   5.952  0.2002 -0.6050 -0.4719
13337SOL    HW242019   6.797   1.388   5.866 -0.5664 -1.1484  0.6340
13338SOL     OW42020  10.191   6.002   6.239  0.4016  0.1938  0.4283
13338SOL    HW142021  10.128   5.930   6.232 -0.1944  0.8121 -0.8511
13338SOL    HW242022  10.155   6.058   6.308  1.6888 -1.4641  2.5975
13339SOL     OW42023   5.136  10.325   5.105 -0.2822 -0.1108  1.0920
13339SOL    HW142024   5.046  10.350   5.126 -1.3468 -1.8521 -0.9950
13339SOL    HW242025   5.141  10.232   5.128  1.0351 -0.0192  1.2554
13340SOL     OW42026   6.612   4.377   2.743 -0.0174 -0.5197  0.8293
13340SOL    HW142027   6.615   4.443   2.674 -1.4655 -1.2039  0.0760
13340SOL    HW242028   6.539   4.402   2.799  0.3777 -0.6505  1.4158
13341SOL     OW42029  10.497   9.362   0.348  0.1384 -0.3739  0.1420
13341SOL    HW142030  10.591   9.378   0.336 -0.2733  0.6014 -2.9031
13341SOL    HW242031  10.474   9.303   0.276 -1.5026 -1.0650  1.1860
13342SOL     OW42032   0.936  10.253   6.837  0.6062  0.1066  0.0792
13342SOL    HW142033   0.998  10.193   6.798 -0.5304  0.4847 -2.4746
13342SOL    HW242034   0.885  10.199   6.898  0.4301 -1.2352 -1.2232
13343SOL     OW42035  10.432  11.020   9.288  0.0761  0.0445  0.4832
13343SOL    HW142036  10.378  10.954   9.244 -0.2562  0.1188  0.7691
13343SOL    HW242037  10.375  11.055   9.357  0.1120  0.9121  0.0803
13344SOL     OW42038   1.291   6.399   1.266  0.1973  0.3437  0.2551
13344SOL    HW142039   1.376   6.423   1.229 -0.8565  1.3679 -1.6695
13344SOL    HW242040   1.257   6.480   1.302  0.5583 -0.3434  2.2575
13345SOL     OW42041   2.107   2.818   0.270 -0.6934  0.2815 -0.4616
13345SOL    HW142042   2.167   2.782   0.336  1.4494  0.2669 -2.2990
13345SOL    HW242043   2.098   2.910   0.294 -0.2289  0.2042  0.0396
13346SOL     OW42044   7.690   5.255   8.797  0.1045 -0.7544 -0.1438
13346SOL    HW142045   7.668   5.341   8.762 -0.8413 -1.5929 -1.7186
13346SOL    HW242046   7.616   5.199   8.774  0.8134 -2.0642  0.6129
13347SOL     OW42047   9.999   6.471   3.979 -0.0246 -0.6088  0.2423
13347SOL    HW142048   9.914   6.497   4.013  1.4151  1.0102  2.9836
13347SOL    HW242049  10.013   6.527   3.903 -0.2511  1.2632  1.5057
13348SOL     OW42050   6.034   2.558   6.644 -0.9162  0.3128  0.6917
13348SOL    HW142051   5.990   2.475   6.664 -1.0540  0.1497 -0.2698
13348SOL    HW242052   5.962   2.620   6.630 -0.9453 -0.2793 -2.3233
13349SOL     OW42053   9.894   0.257  10.686 -0.0877  0.8595  0.2780
13349SOL    HW142054   9.840   0.214  10.619  0.8566 -1.2856  0.8000
13349SOL    HW242055   9.948   0.319  10.636 -0.8991  0.8453 -0.6506
13350SOL     OW42056   8.967   6.293   3.460  0.1120 -0.5190  0.5923
13350SOL    HW142057   9.007   6.302   3.547 -1.0397 -0.5678  1.1521
13350SOL    HW242058   9.032   6.246   3.408  0.2472 -1.8223  1.8710
13351SOL     OW42059  10.730   1.606   7.152  0.0520  0.3027 -0.2662
13351SOL    HW142060  10.733   1.648   7.066 -1.4252 -0.4715 -0.7155
13351SOL    HW242061  10.785   1.662   7.207  0.3115  1.3054 -1.4928
13352SOL     OW42062  10.995   9.633   2.029 -0.2827 -0.0335 -0.2151
13352SOL    HW142063  11.077   9.595   2.058 -2.4306 -2.5684  3.3215
13352SOL    HW242064  10.964   9.685   2.104 -2.3250  0.0951 -1.0693
13353SOL     OW42065   7.436   3.295   6.332 -0.1428 -0.6610 -0.2787
13353SOL    HW142066   7.383   3.241   6.274  1.8809 -1.9509 -1.0683
13353SOL    HW242067   7.468   3.234   6.399  0.2508  0.0770  0.2202
13354SOL     OW42068   6.613   7.478   5.072 -0.3709 -0.2189  0.1789
13354SOL    HW142069   6.533   7.489   5.123  0.2436  2.0913  0.7564
13354SOL    HW242070   6.587   7.498   4.982 -0.6467 -0.5428  0.1832
13355SOL     OW42071   0.166   4.577   6.590  0.1769 -0.0556 -0.0267
13355SOL    HW142072   0.175   4.667   6.622  1.9700  0.1122 -0.8993
13355SOL    HW242073   0.113   4.534   6.657  1.3383  1.0263  1.6995
13356SOL     OW42074   8.405   9.950   6.296  0.9319 -0.5912  0.5795
13356SOL    HW142075   8.333   9.894   6.327  0.2526 -0.3461 -0.4759
13356SOL    HW242076   8.361  10.029   6.263  1.7820  0.0376  0.9092
13357SOL     OW42077   3.315   7.186   1.406  0.4646  0.0305  0.7682
13357SOL    HW142078   3.242   7.188   1.467  0.1115 -1.2959  0.4192
13357SOL    HW242079   3.281   7.222   1.324 -0.4990 -2.5114 -0.0563
13358SOL     OW42080   4.164   5.399   2.401 -0.0122 -0.0012  0.2892
13358SOL    HW142081   4.096   5.332   2.405 -0.0082 -0.2888 -2.5115
13358SOL    HW242082   4.141   5.453   2.326  1.9481  0.9309  0.2752
13359SOL     OW42083   1.742   9.022   3.736  0.0478 -0.0830  0.3743
13359SOL    HW142084   1.817   9.079   3.724 -1.1156  1.1767 -1.4276
13359SOL    HW242085   1.742   8.965   3.659 -0.5551 -0.3816  0.5876
13360SOL     OW42086   4.772   6.361   3.131 -0.4275 -0.7795  0.2942
13360SOL    HW142087   4.717   6.358   3.209  0.6256 -0.7781  1.0731
13360SOL    HW242088   4.802   6.271   3.119 -0.1924 -0.6916  0.1976
13361SOL     OW42089   6.650   8.032   7.983 -0.1247  0.6893 -0.4153
13361SOL    HW142090   6.621   7.957   7.930  0.1139 -0.0652  0.4914
13361SOL    HW242091   6.578   8.047   8.044  1.3440 -1.3380  2.0008
13362SOL     OW42092  11.022   4.844   1.043  0.3887  0.2663  0.3115
13362SOL    HW142093  10.966   4.872   0.971 -0.7324 -1.7079  0.3339
13362SOL    HW242094  10.965   4.845   1.120  0.7082 -0.5588  0.5721
13363SOL     OW42095   9.160   7.484   2.910  0.0239  0.1255 -0.3077
13363SOL    HW142096   9.239   7.486   2.965  0.5469  0.1396 -1.0387
13363SOL    HW242097   9.126   7.573   2.913  1.4571  0.7872 -1.9628
13364SOL     OW42098   8.471   1.047   9.971 -0.4131  0.1000  0.5373
13364SOL    HW142099   8.433   0.966   9.937 -0.7823  0.7136 -0.5609
13364SOL    HW242100   8.468   1.108   9.897  2.6901  0.2014  0.3479
13365SOL     OW42101   6.391   3.631   3.264  1.0363  0.1417 -0.3493
13365SOL    HW142102   6.307   3.588   3.246  1.1315 -0.9507  1.4838
13365SOL    HW242103   6.451   3.559   3.283  2.1607  0.9560 -0.7305
13366SOL     OW42104   4.065   1.058   3.368  0.2375  0.9474 -0.1822
13366SOL    HW142105   3.981   1.101   3.355 -0.4141  0.2223  1.4037
13366SOL    HW242106   4.089   1.079   3.458  0.1428 -1.5132  0.4805
13367SOL     OW42107   9.090   6.451   4.784  0.1911  0.7474 -0.3019
13367SOL    HW142108   9.122   6.539   4.800 -0.0945  0.7168  0.4819
13367SOL    HW242109   9.041   6.428   4.863  1.3797 -0.6247  0.0939
13368SOL     OW42110   2.167   1.253  10.877 -0.1822 -0.4294 -0.0056
13368SOL    HW142111   2.255   1.268  10.913  0.8222  0.8735 -2.7331
13368SOL    HW242112   2.179   1.255  10.782 -3.1214 -0.5752 -0.4779
13369SOL     OW42113   5.327   0.710   6.891  0.2190 -0.1666 -0.3349
13369SOL    HW142114   5.378   0.701   6.811  1.8874 -1.2796  0.7897
13369SOL    HW242115   5.275   0.629   6.895  0.9124 -0.5938  0.2064
13370SOL     OW42116   1.531   6.771   9.686  0.1594  0.1025 -0.5746
13370SOL    HW142117   1.569   6.697   9.637 -1.1703  0.1269 -1.6968
13370SOL    HW242118   1.468   6.731   9.746  0.6140  0.2116 -0.0135
13371SOL     OW42119   0.541   5.539   9.496 -0.4903 -0.1648 -0.2195
13371SOL    HW142120   0.569   5.482   9.568 -0.1379 -0.8110 -0.8676
13371SOL    HW242121   0.617   5.596   9.480 -0.9660  0.7590  0.6693
13372SOL     OW42122   4.920   3.108  10.092 -0.2735  0.0701 -0.2861
13372SOL    HW142123   4.897   3.190  10.048  1.2816 -0.1145 -1.5774
13372SOL    HW242124   4.862   3.043  10.053 -0.7669  0.3784 -0.0651
13373SOL     OW42125   6.786   2.053   2.802  0.0747  0.1633  0.3626
13373SOL    HW142126   6.867   2.004   2.813  0.4304  0.7216  0.2579
13373SOL    HW242127   6.717   1.986   2.801  0.7065 -0.5358 -1.8451
13374SOL     OW42128  10.350   1.078   1.940 -0.3544  0.2948 -0.4644
13374SOL    HW142129  10.397   0.998   1.919 -0.6634  0.1435 -0.5923
13374SOL    HW242130  10.366   1.091   2.034 -2.0134 -1.0768  0.0607
13375SOL     OW42131   1.750   2.200   5.590  0.1228 -0.0987 -0.3960
13375SOL    HW142132   1.720   2.243   5.670 -1.1038 -0.5801 -0.5755
13375SOL    HW242133   1.844   2.215   5.589  0.2128 -0.3615  1.3135
13376SOL     OW42134  11.020   0.781   1.811  0.2421 -0.0366 -0.8798
13376SOL    HW142135  11.102   0.756   1.855  1.6337  0.9181 -2.7879
13376SOL    HW242136  11.002   0.869   1.844 -0.6215 -0.6318  0.3075
13377SOL     OW42137   8.075   5.216   8.319 -0.2534 -0.2065  0.1964
13377SOL    HW142138   8.150   5.227   8.376  0.9098  3.4092 -1.6962
13377SOL    HW242139   8.012   5.166   8.370  2.8519 -2.2266  2.3584
13378SOL     OW42140   1.282   7.763  10.013  0.5434  0.5258 -0.2327
13378SOL    HW142141   1.193   7.768  10.049  0.8850 -0.5540  0.8342
13378SOL    HW242142   1.292   7.672   9.985  1.4755  0.5046  0.1370
13379SOL     OW42143   4.955   0.032   4.462  0.3236 -0.3599 -0.0089
13379SOL    HW142144   4.977   0.122   4.488 -1.8009  0.5330 -0.9798
13379SOL    HW242145   5.035  -0.001   4.421  1.3539  0.8445  0.9344
13380SOL     OW42146   1.043  10.490   0.549 -0.0601 -0.1792 -0.4621
13380SOL    HW142147   1.128  10.500   0.593 -0.2753  0.2917 -0.1427
13380SOL    HW242148   0.980  10.525   0.612 -0.4526 -0.1775 -0.8561
13381SOL     OW42149   7.339   1.491   7.386  0.2652  0.1588  0.1884
13381SOL    HW142150   7.354   1.470   7.293 -0.3668  1.7239 -0.2831
13381SOL    HW242151   7.421   1.530   7.415  0.7018 -0.9405  0.5006
13382SOL     OW42152   6.444   0.204   1.092 -0.2086 -0.2173  0.4269
13382SOL    HW142153   6.517   0.177   1.147 -0.2536 -0.6325  0.2883
13382SOL    HW242154   6.423   0.293   1.121 -1.0406 -0.8589  1.9303
13383SOL     OW42155  10.444   8.322   5.699  0.6600  0.1038  0.5236
13383SOL    HW142156  10.403   8.354   5.618  1.1476 -2.4449 -0.8336
13383SOL    HW242157  10.529   8.366   5.701  0.9299 -0.2958 -0.7723
13384SOL     OW42158  10.471   4.443   2.580  0.1794 -0.1045 -0.0624
13384SOL    HW142159  10.514   4.413   2.659 -1.3890 -0.0904  0.8449
13384SOL    HW242160  10.387   4.478   2.610  0.0564  1.0234 -1.6005
13385SOL     OW42161   9.359   7.495   8.244 -0.2608 -0.0113  0.2959
13385SOL    HW142162   9.427   7.563   8.246  0.1571 -0.0606 -4.0778
13385SOL    HW242163   9.377   7.442   8.322  3.7517  0.9133  0.2281
13386SOL     OW42164   8.786   7.313   8.352 -0.1947  0.6134  0.2636
13386SOL    HW142165   8.717   7.273   8.298 -1.7363  0.0336  2.5357
13386SOL    HW242166   8.815   7.243   8.410  2.5797  0.7744 -0.7483
13387SOL     OW42167   6.098   8.313   2.205 -0.4062  0.0374 -0.0280
13387SOL    HW142168   6.130   8.342   2.119  0.5234 -0.7687  0.0315
13387SOL    HW242169   6.098   8.393   2.258 -0.1167  0.3690 -0.5128
13388SOL     OW42170  10.831  10.501   4.009  0.4274 -0.7832 -0.9111
13388SOL    HW142171  10.851  10.413   4.040  0.7175 -1.0553 -1.8332
13388SOL    HW242172  10.917  10.540   3.991  0.2532 -0.8384 -1.9054
13389SOL     OW42173   0.098   7.437   3.744  0.2554  0.0097  0.7482
13389SOL    HW142174   0.050   7.375   3.799  0.3965 -0.5562  0.2414
13389SOL    HW242175   0.083   7.407   3.655  1.1881  0.0867  0.5536
13390SOL     OW42176   1.326   2.730   1.073 -0.3614  0.1546  0.1244
13390SOL    HW142177   1.406   2.781   1.064  0.4997 -1.3268 -0.9701
13390SOL    HW242178   1.340   2.653   1.018 -1.0028 -2.0303  2.7832
13391SOL     OW42179  10.572   1.737   2.661  0.1916  0.4445 -1.1454
13391SOL    HW142180  10.640   1.770   2.720 -0.2097  1.1558 -1.0632
13391SOL    HW242181  10.619   1.688   2.595  0.6681 -0.2075 -0.3359
13392SOL     OW42182   2.929   4.478   0.319 -0.2971  0.0395 -0.0600
13392SOL    HW142183   2.993   4.461   0.388 -0.9279  4.5677  2.0117
13392SOL    HW242184   2.849   4.437   0.350  0.0453 -0.1005  0.6688
13393SOL     OW42185   0.046   7.105   2.142 -0.7018 -0.3314 -0.7685
13393SOL    HW142186   0.007   7.188   2.117 -0.3459  0.4028  0.9425
13393SOL    HW242187   0.140   7.120   2.140 -0.6545 -0.2900  0.7044
13394SOL     OW42188   8.986   3.020   7.680  0.0732 -0.3283 -1.1637
13394SOL    HW142189   9.046   2.946   7.678  1.2998  0.5151  0.8609
13394SOL    HW242190   8.948   3.017   7.768 -2.0186 -0.1561 -2.0155
13395SOL     OW42191   5.171  10.616   9.868 -0.7195  0.6758  0.1703
13395SOL    HW142192   5.181  10.711   9.874 -1.4462  0.7723 -0.0758
13395SOL    HW242193   5.229  10.590   9.796 -0.2105  0.8702  0.4991
13396SOL     OW42194   4.459   7.181   3.622 -0.5745 -0.6500  0.0069
13396SOL    HW142195   4.444   7.117   3.691 -0.0145 -1.0027 -0.1910
13396SOL    HW242196   4.484   7.129   3.546  2.9312 -0.1614  0.6206
13397SOL     OW42197   0.750   6.777   3.476 -0.0903 -0.4437 -0.1867
13397SOL    HW142198   0.721   6.864   3.450  0.6131  0.5469  2.0926
13397SOL    HW242199   0.837   6.767   3.436 -0.2515 -0.2064 -0.6034
13398SOL     OW42200   9.409  10.321  10.508  0.2104 -0.1667  0.0174
13398SOL    HW142201   9.456  10.347  10.587  0.9300 -0.7165 -0.2265
13398SOL    HW242202   9.376  10.404  10.472  2.9348  0.5733 -1.0430
13399SOL     OW42203   3.485   7.903   3.019  0.3317  0.0810  0.1125
13399SOL    HW142204   3.521   7.987   2.990 -1.4766  0.8077 -0.1801
13399SOL    HW242205   3.504   7.899   3.112 -0.4569  1.3379  0.3569
13400SOL     OW42206   9.860   1.726   8.381 -0.1086 -0.6465  0.4438
13400SOL    HW142207   9.811   1.677   8.314  0.1556 -1.1070  0.5843
13400SOL    HW242208   9.811   1.808   8.391  0.6266  0.0529 -1.3208
13401SOL     OW42209  10.244   5.373   5.479 -0.2921  1.0544  0.3152
13401SOL    HW142210  10.302   5.298   5.481 -1.5468  0.0536  0.8409
13401SOL    HW242211  10.287   5.438   5.535  0.7272  0.6826 -0.0110
13402SOL     OW42212   1.967   5.009   2.317  0.3074  0.2059  0.4377
13402SOL    HW142213   1.980   5.039   2.227  0.3230  1.6334  0.9068
13402SOL    HW242214   1.954   4.914   2.308 -0.4939  0.4329 -1.1396
13403SOL     OW42215   7.861  10.555   2.879 -0.8116  0.1185 -0.2931
13403SOL    HW142216   7.836  10.587   2.793 -1.6874  1.5418  0.4557
13403SOL    HW242217   7.842  10.627   2.938 -2.0628 -1.4821  1.3687
13404SOL     OW42218   4.731   0.163   3.150  0.1464  0.0548 -0.2875
13404SOL    HW142219   4.686   0.247   3.159  0.0501  0.2826 -2.3438
13404SOL    HW242220   4.664   0.104   3.117  0.7398 -0.2548 -0.9554
13405SOL     OW42221   1.924   1.146  10.974  0.4279  0.1305  0.6300
13405SOL    HW142222   1.956   1.115  10.890  1.7742  1.3054  0.6693
13405SOL    HW242223   1.983   1.108  11.039 -1.2915 -1.7216  1.2129
13406SOL     OW42224   7.340   7.175  10.547 -0.3952 -0.6386 -0.1091
13406SOL    HW142225   7.265   7.226  10.518 -0.6305 -1.2839 -0.6712
13406SOL    HW242226   7.316   7.145  10.635  0.1893  1.0661  0.6705
13407SOL     OW42227   1.501   7.645   7.427 -0.0935  0.0877 -0.1061
13407SOL    HW142228   1.492   7.615   7.517 -0.1106  0.5989  0.0636
13407SOL    HW242229   1.543   7.730   7.434 -1.4288  0.8102 -0.4804
13408SOL     OW42230  10.819   1.484   6.842  0.0301  0.1901 -1.1301
13408SOL    HW142231  10.726   1.503   6.848 -0.3614 -1.2501 -1.9585
13408SOL    HW242232  10.847   1.527   6.761  0.3212  1.3824 -0.4226
13409SOL     OW42233   8.762   7.327  10.875 -0.3399 -0.2573  0.1688
13409SOL    HW142234   8.761   7.422  10.865 -2.5026 -0.1887  0.6184
13409SOL    HW242235   8.758   7.293  10.786  1.1298  0.0307 -0.0321
13410SOL     OW42236   4.930   5.701   7.462  0.0890  0.2743 -0.2340
13410SOL    HW142237   5.021   5.671   7.455  0.5380  1.5752 -0.1275
13410SOL    HW242238   4.936   5.794   7.481 -1.2666  0.1216  1.1435
13411SOL     OW42239   6.859   2.113   3.793 -0.4898  0.2425  0.2420
13411SOL    HW142240   6.866   2.087   3.701 -0.5762 -0.4159  0.4207
13411SOL    HW242241   6.948   2.104   3.827 -0.4600  0.4770  0.2294
13412SOL     OW42242   9.809   2.222   8.065  0.2609  0.2896 -0.4439
13412SOL    HW142243   9.721   2.206   8.030  0.3092  1.2739 -1.0448
13412SOL    HW242244   9.794   2.242   8.158 -0.0771 -0.2344 -0.3832
13413SOL     OW42245   1.908   8.501   2.385  0.6360 -0.1017  0.6716
13413SOL    HW142246   1.938   8.480   2.474  1.2272 -2.5347 -0.0162
13413SOL    HW242247   1.988   8.524   2.338  0.5619 -0.5026  0.3507
13414SOL     OW42248   3.941   0.297  10.941  0.3671 -0.1803 -0.2747
13414SOL    HW142249   4.013   0.244  10.975 -0.1161  0.4524  1.9068
13414SOL    HW242250   3.862   0.257  10.978 -0.1986  0.6685 -0.5354
13415SOL     OW42251   2.968   8.026   5.566 -0.2467  0.1603  0.1696
13415SOL    HW142252   3.060   8.015   5.543 -0.3178  0.9328 -0.5597
13415SOL    HW242253   2.930   8.071   5.490 -2.3294 -4.3225 -1.8722
13416SOL     OW42254   4.388  10.435   2.167  0.2009  0.1417 -0.7007
13416SOL    HW142255   4.359  10.510   2.219 -1.1137  0.7846 -2.2666
13416SOL    HW242256   4.307  10.398   2.132  0.8072 -2.1812  0.2188
13417SOL     OW42257   7.694   8.672   3.106  1.0946 -0.4078 -0.3679
13417SOL    HW142258   7.753   8.733   3.150  0.8428 -2.2593  2.8106
13417SOL    HW242259   7.610   8.717   3.105  1.5449  0.4633 -0.8579
13418SOL     OW42260   5.994   4.970   4.650 -0.2952 -0.3705 -0.1714
13418SOL    HW142261   5.973   4.992   4.741  1.4134  1.2835 -0.1090
13418SOL    HW242262   5.919   4.919   4.620 -1.6542  0.4067  1.6733
13419SOL     OW42263   2.615   7.188   7.746  0.2101  0.1456 -0.0464
13419SOL    HW142264   2.622   7.261   7.808  0.3441  0.6934 -0.6962
13419SOL    HW242265   2.661   7.116   7.790 -2.6778 -0.5884  2.0430
13420SOL     OW42266   2.317   2.082   9.629  0.0197 -0.4977 -0.2587
13420SOL    HW142267   2.337   2.170   9.660  0.5648 -0.8948  0.5395
13420SOL    HW242268   2.246   2.052   9.686  1.3057 -1.3894  0.9303
13421SOL     OW42269   3.802   7.732   7.444  0.0227 -0.6075 -0.4117
13421SOL    HW142270   3.839   7.776   7.521  0.8853 -0.9876 -0.5961
13421SOL    HW242271   3.807   7.798   7.375  0.3515 -0.6558 -0.4340
13422SOL     OW42272   1.487   5.646   3.030 -0.5708  0.3791  0.1982
13422SOL    HW142273   1.442   5.731   3.032 -0.6651  0.3357 -0.0076
13422SOL    HW242274   1.503   5.630   2.937  2.4144  1.7098  0.3828
13423SOL     OW42275   6.274   0.609   7.828 -0.2529  0.2101  0.0482
13423SOL    HW142276   6.183   0.585   7.843 -0.2445 -1.5706 -2.2233
13423SOL    HW242277   6.323   0.527   7.838  0.6304  0.4428 -1.8825
13424SOL     OW42278   3.836   9.378   3.045  0.3028  0.3830  0.1437
13424SOL    HW142279   3.772   9.437   3.007  0.0632 -0.8808 -1.5373
13424SOL    HW242280   3.838   9.401   3.138 -2.5381  0.5185  0.2485
13425SOL     OW42281   5.213   8.150   2.149 -0.8647 -0.1411  0.0706
13425SOL    HW142282   5.222   8.213   2.220  1.2127 -1.0450  0.6737
13425SOL    HW242283   5.292   8.159   2.097 -0.6901 -1.9389 -0.0586
13426SOL     OW42284   4.496   0.655   0.325  0.7009  0.5817  0.5864
13426SOL    HW142285   4.495   0.738   0.373 -0.6791 -0.0712  1.7650
13426SOL    HW242286   4.525   0.590   0.389 -0.7510 -0.2362  0.4548
13427SOL     OW42287   2.643   6.862   8.954  0.0521  0.7095  0.5809
13427SOL    HW142288   2.604   6.908   9.029  2.6876  3.0016  0.7297
13427SOL    HW242289   2.637   6.925   8.882  0.2340 -0.2972 -0.3387
13428SOL     OW42290   6.218  10.825   3.979 -0.0461 -0.1854 -0.7608
13428SOL    HW142291   6.296  10.771   3.994  0.2904  0.4998 -0.0117
13428SOL    HW242292   6.192  10.853   4.066 -3.4046 -3.4843 -0.4388
13429SOL     OW42293   5.570   3.933   2.405  0.4173 -0.1915  0.1592
13429SOL    HW142294   5.553   3.884   2.325 -0.6048  0.5650 -0.0970
13429SOL    HW242295   5.486   3.934   2.451  0.9356 -0.4179  1.1400
13430SOL     OW42296   9.144   4.757  10.631  0.4640  0.0037 -0.0479
13430SOL    HW142297   9.123   4.746  10.538  0.0503  1.6043 -0.1715
13430SOL    HW242298   9.234   4.788  10.631  0.7577 -0.8180  0.1544
13431SOL     OW42299   8.330   4.717   5.567  0.1779 -0.8537  1.4851
13431SOL    HW142300   8.275   4.670   5.504  1.1981  0.2678 -0.3277
13431SOL    HW242301   8.293   4.805   5.571  1.8615 -0.0299  0.1075
13432SOL     OW42302   5.695   6.967   7.288 -0.1570  0.0301  0.1450
13432SOL    HW142303   5.629   7.032   7.312  1.2527  1.7847 -0.5369
13432SOL    HW242304   5.777   7.002   7.323  0.4309 -2.1739  1.1183
13433SOL     OW42305   1.580   2.512   5.457 -1.0301  0.5842  0.4363
13433SOL    HW142306   1.562   2.602   5.430 -2.8213  0.2803  0.5387
13433SOL    HW242307   1.538   2.457   5.391 -1.0159 -0.1792  1.0375
13434SOL     OW42308   0.685   8.779   8.749 -0.0543 -0.2027  0.1243
13434SOL    HW142309   0.695   8.816   8.661  0.0306 -0.3081  0.0900
13434SOL    HW242310   0.590   8.777   8.763 -0.2211 -2.3983 -0.9035
13435SOL     OW42311   5.829   3.435   8.940  0.4495 -0.0611  0.9521
13435SOL    HW142312   5.765   3.405   8.876  0.3689  0.5937  0.7180
13435SOL    HW242313   5.914   3.420   8.897  0.4129 -0.0139  0.8638
13436SOL     OW42314   4.757   8.926   1.533 -0.3274 -0.1618 -1.0198
13436SOL    HW142315   4.789   9.013   1.509 -0.4358 -0.1540 -1.1398
13436SOL    HW242316   4.825   8.890   1.589 -1.4185  0.9932  1.1552
13437SOL     OW42317   5.739  10.351  10.287 -0.6427 -0.2701 -0.3602
13437SOL    HW142318   5.796  10.393  10.223  1.0547 -0.7653  0.7629
13437SOL    HW242319   5.670  10.415  10.304  0.0321  0.6923 -1.1617
13438SOL     OW42320   7.759   6.640   5.931  0.0500  0.0965 -0.1981
13438SOL    HW142321   7.712   6.663   6.011  3.2913 -0.2719  2.0134
13438SOL    HW242322   7.788   6.724   5.895  1.2869  0.1530  0.8660
13439SOL     OW42323   7.364   1.565   6.548  0.0480  0.0943  0.0716
13439SOL    HW142324   7.391   1.537   6.635  3.2845  1.3286 -0.4003
13439SOL    HW242325   7.446   1.576   6.499 -1.2582  3.9545 -1.6984
13440SOL     OW42326   1.387   6.258   8.531 -0.5028 -0.5481 -0.0535
13440SOL    HW142327   1.344   6.285   8.450 -1.7024 -1.5627  0.2084
13440SOL    HW242328   1.441   6.333   8.556  0.7667 -0.6391 -2.3619
13441SOL     OW42329   2.439   5.146   6.326  0.6773 -0.0008 -0.3547
13441SOL    HW142330   2.465   5.058   6.353  0.2854 -0.9551 -2.8451
13441SOL    HW242331   2.505   5.204   6.366  1.0025 -1.3863  1.2237
13442SOL     OW42332   7.429   3.099   5.392 -0.7096 -0.0578 -0.1042
13442SOL    HW142333   7.481   3.126   5.316 -0.1257  3.4655  1.3096
13442SOL    HW242334   7.338   3.118   5.368 -0.4747  1.6036  0.1649
13443SOL     OW42335   9.708   4.138   0.604  0.4547  0.4332 -0.1739
13443SOL    HW142336   9.776   4.071   0.604  0.5007  0.4786 -0.4943
13443SOL    HW242337   9.654   4.117   0.680  0.5183  0.0832 -0.2235
13444SOL     OW42338   2.473  10.001   5.065  0.1979 -0.7505 -0.4732
13444SOL    HW142339   2.418   9.933   5.025  1.0495 -1.8501  0.1697
13444SOL    HW242340   2.490   9.968   5.154 -0.8180  1.1419  0.4945
13445SOL     OW42341   1.804   3.052   3.596 -0.6960 -0.1180  0.9974
13445SOL    HW142342   1.846   2.975   3.557  0.6766  0.3079  1.5797
13445SOL    HW242343   1.813   3.038   3.690 -0.8403  0.5492  1.1107
13446SOL     OW42344   2.977   8.456   9.186 -0.1507 -0.3574  0.0983
13446SOL    HW142345   2.999   8.453   9.279  0.4733  1.4397  0.0399
13446SOL    HW242346   2.906   8.392   9.177 -0.7275 -0.0458  1.9526
13447SOL     OW42347   7.415   9.604   4.292 -0.8652  0.1615 -0.0571
13447SOL    HW142348   7.415   9.645   4.205  1.4485 -1.1581 -0.7701
13447SOL    HW242349   7.406   9.678   4.352 -1.8076  1.1845 -1.3774
13448SOL     OW42350   5.771   9.377   8.819 -0.1581  0.0303  0.1282
13448SOL    HW142351   5.808   9.418   8.741  0.2305  1.2176  0.9029
13448SOL    HW242352   5.699   9.435   8.845 -0.7713 -0.7609  0.2268
13449SOL     OW42353   3.474  10.514   6.977 -0.0063  0.3157 -0.1120
13449SOL    HW142354   3.464  10.477   7.065  1.1636  0.9865  0.3308
13449SOL    HW242355   3.440  10.446   6.919  1.9560 -1.4603  0.6683
13450SOL     OW42356  11.093   9.464   6.681 -1.1415  0.7600  0.0490
13450SOL    HW142357  11.054   9.540   6.637 -0.9896  0.1595 -1.1932
13450SOL    HW242358  11.179   9.454   6.640 -1.2639 -0.2288  0.0006
13451SOL     OW42359  10.538   9.668   5.752  0.6403 -0.1009 -0.8160
13451SOL    HW142360  10.529   9.693   5.660 -0.5409 -0.4693 -0.8202
13451SOL    HW242361  10.524   9.573   5.752 -0.7496  0.0818 -0.1031
13452SOL     OW42362   4.292   0.427   0.455  0.5409  0.5005 -0.4365
13452SOL    HW142363   4.216   0.373   0.434  0.6261  0.8164 -1.6806
13452SOL    HW242364   4.262   0.517   0.437  0.5882  0.8225  1.0107
13453SOL     OW42365   8.208   9.565   6.980  0.4230  0.1106  0.0451
13453SOL    HW142366   8.289   9.534   6.940 -1.3105 -0.9506 -3.0051
13453SOL    HW242367   8.142   9.502   6.950 -1.7736  1.7923  1.1298
13454SOL     OW42368   8.471   3.493   0.455 -0.4428 -1.2454 -0.9781
13454SOL    HW142369   8.434   3.436   0.522  2.6203 -1.2548  0.9100
13454SOL    HW242370   8.565   3.474   0.456 -0.0124  0.1165 -4.0186
13455SOL     OW42371   2.224   6.805   2.566  0.1421  0.5109 -0.2815
13455SOL    HW142372   2.181   6.737   2.514 -0.0388  0.3155  0.1177
13455SOL    HW242373   2.154   6.842   2.621  0.5889 -0.2480  0.8442
13456SOL     OW42374   8.117   5.596   0.187 -0.1746 -0.8330 -0.1789
13456SOL    HW142375   8.117   5.680   0.142 -0.7518 -0.4911  0.4495
13456SOL    HW242376   8.044   5.548   0.147  0.8579 -1.4841 -1.3370
13457SOL     OW42377   2.058  10.498  10.808  0.3169 -0.1331  0.4766
13457SOL    HW142378   2.132  10.440  10.826  1.2226  1.4948  2.4665
13457SOL    HW242379   1.990  10.470  10.869  0.7684  0.8407  1.4657
13458SOL     OW42380   1.034   8.430  10.718  0.5562  0.1141 -1.0065
13458SOL    HW142381   1.089   8.370  10.769  2.4731  2.4828 -0.1007
13458SOL    HW242382   1.052   8.407  10.627 -0.9715 -2.5035 -0.7441
13459SOL     OW42383  11.087   7.268   7.481  0.1382 -0.5904 -0.1176
13459SOL    HW142384  11.119   7.214   7.553  1.2931 -0.1081 -0.2476
13459SOL    HW242385  11.096   7.212   7.404  0.6930 -0.4532 -0.1553
13460SOL     OW42386   5.970   0.384   9.885 -0.5939 -0.7260 -0.2674
13460SOL    HW142387   6.049   0.334   9.908 -0.3244 -0.8722 -1.4454
13460SOL    HW242388   5.897   0.328   9.914 -0.3188  0.1306  2.3453
13461SOL     OW42389   6.545   7.030   3.556  0.1269  0.0848  0.4838
13461SOL    HW142390   6.635   7.037   3.527  0.8905  1.6288  2.8924
13461SOL    HW242391   6.552   7.006   3.649 -1.9369  0.3865  0.7610
13462SOL     OW42392   2.691   1.475   1.155 -0.8960  0.7378  0.1957
13462SOL    HW142393   2.764   1.475   1.217  0.6669 -1.6505 -1.4564
13462SOL    HW242394   2.680   1.566   1.131  0.2334  1.3956  1.9708
13463SOL     OW42395   6.808   9.229   4.853  0.8889 -0.3457  0.8246
13463SOL    HW142396   6.714   9.213   4.846  0.7333  0.6993  0.2647
13463SOL    HW242397   6.818   9.285   4.929  1.3328 -2.2781  2.2564
13464SOL     OW42398   3.357   0.565   2.677  0.4764 -0.1268  0.2524
13464SOL    HW142399   3.439   0.608   2.702  0.0886 -0.5236  2.3629
13464SOL    HW242400   3.321   0.531   2.759 -0.6096 -2.0923 -0.9562
13465SOL     OW42401   4.374   6.332   5.320 -0.7153  0.0942 -0.7250
13465SOL    HW142402   4.402   6.365   5.405  0.2487 -2.7410  0.1482
13465SOL    HW242403   4.454   6.332   5.267 -0.7894 -0.4256 -0.8400
13466SOL     OW42404   5.017  10.759  10.587  0.1889  0.1881  0.3161
13466SOL    HW142405   5.068  10.763  10.667  1.1951 -0.9957 -0.2341
13466SOL    HW242406   5.068  10.703  10.528 -0.0511  1.7757 -1.5007
13467SOL     OW42407   6.074   5.580   5.025 -0.2596 -0.2135  0.3647
13467SOL    HW142408   6.033   5.666   5.018  1.4316  0.5102 -1.3102
13467SOL    HW242409   6.009   5.520   4.987 -1.0996  0.4194  0.7725
13468SOL     OW42410  10.334   2.756   9.334  0.0943 -0.3043 -0.6882
13468SOL    HW142411  10.290   2.799   9.261  1.4098  0.0403 -1.3084
13468SOL    HW242412  10.288   2.672   9.344 -1.2229  0.3904 -0.7465
13469SOL     OW42413   4.557   1.920   5.069 -0.2375 -0.5920  0.0544
13469SOL    HW142414   4.620   1.967   5.014 -0.1074 -2.6172 -1.6149
13469SOL    HW242415   4.511   1.990   5.116 -0.1303  1.2374 -2.3616
13470SOL     OW42416   2.636   2.916   8.794 -0.3884 -0.3782 -0.0795
13470SOL    HW142417   2.600   2.829   8.780  1.1928 -1.0972  0.0253
13470SOL    HW242418   2.696   2.929   8.719 -2.4593  1.7103 -1.5197
13471SOL     OW42419   7.983   6.311   9.035 -0.1585 -0.1997 -0.5946
13471SOL    HW142420   7.959   6.401   9.015  3.0358  0.8445 -0.3077
13471SOL    HW242421   7.984   6.307   9.130  1.4380  0.0696 -0.5690
13472SOL     OW42422   2.701   1.576   8.946 -0.0724 -0.0185 -0.9138
13472SOL    HW142423   2.709   1.669   8.924  0.7083 -0.6215 -3.3818
13472SOL    HW242424   2.703   1.531   8.862 -0.9962 -2.2642  0.1981
13473SOL     OW42425   2.731   7.638   2.321  0.3406 -0.2782 -0.2692
13473SOL    HW142426   2.781   7.699   2.375  0.2758 -3.1930  3.5168
13473SOL    HW242427   2.640   7.666   2.332  0.4119 -0.2914  0.3701
13474SOL     OW42428   8.941   0.273   6.529 -0.6444  0.1577 -0.0263
13474SOL    HW142429   8.985   0.244   6.609 -0.8515  0.8058  0.3314
13474SOL    HW242430   8.984   0.355   6.507 -0.3222 -0.2179 -0.8096
13475SOL     OW42431   1.842   1.983   2.767 -0.2881  0.6575 -0.0064
13475SOL    HW142432   1.818   1.915   2.830 -0.0778  0.2854 -0.3219
13475SOL    HW242433   1.838   1.939   2.682 -0.2044  1.0553 -0.2204
13476SOL     OW42434   7.408   1.897   9.619 -0.5135  0.2064 -0.1757
13476SOL    HW142435   7.427   1.838   9.546 -0.4330  0.4847 -0.3769
13476SOL    HW242436   7.336   1.854   9.666  0.1494 -0.5211  0.2111
13477SOL     OW42437   0.197   1.289   2.361 -0.0283 -0.0200 -0.3546
13477SOL    HW142438   0.110   1.306   2.325  0.3063  3.0181  0.0745
13477SOL    HW242439   0.255   1.286   2.284 -0.4925 -2.7326 -0.7072
13478SOL     OW42440  10.342   4.815  10.589  0.5092  0.3114 -0.3115
13478SOL    HW142441  10.346   4.909  10.569 -0.4770  0.3081 -0.5404
13478SOL    HW242442  10.394   4.775  10.519  1.7228  0.7478  0.3125
13479SOL     OW42443   6.365   2.078   1.756  0.6573  0.3575 -0.1126
13479SOL    HW142444   6.421   2.110   1.685  1.7086 -0.6356  0.2399
13479SOL    HW242445   6.353   2.154   1.813  0.4485  0.9577 -0.9372
13480SOL     OW42446   2.800   8.975   9.581 -0.0720  0.3647 -0.3826
13480SOL    HW142447   2.858   8.935   9.517  1.1664  1.4152  0.0444
13480SOL    HW242448   2.833   9.064   9.591 -1.7427  1.0034 -0.0988
13481SOL     OW42449   2.130   0.848   2.668  0.0882  0.4226  0.2716
13481SOL    HW142450   2.059   0.793   2.700  0.3128 -0.0713 -0.0740
13481SOL    HW242451   2.205   0.824   2.721  0.2010  0.3586  0.0823
13482SOL     OW42452   7.384   0.428   7.386  0.6310  0.7401 -0.2939
13482SOL    HW142453   7.415   0.496   7.447 -0.3689  0.3009  0.7435
13482SOL    HW242454   7.303   0.396   7.425 -1.1263  1.7547 -2.8061
13483SOL     OW42455   3.079   4.971   8.389  0.2401  0.3355 -0.3371
13483SOL    HW142456   3.168   5.005   8.405  0.2996  0.1699 -0.3179
13483SOL    HW242457   3.093   4.881   8.359  0.1012  0.4521 -0.7650
13484SOL     OW42458   3.705   1.416   9.663 -0.1815 -0.1302  0.4002
13484SOL    HW142459   3.757   1.471   9.723  1.6095 -0.8229 -0.4339
13484SOL    HW242460   3.758   1.412   9.583 -1.1485 -1.5658 -0.2016
13485SOL     OW42461   1.201   8.186   6.234  0.3562 -1.0387  0.1913
13485SOL    HW142462   1.272   8.125   6.258 -0.0064 -2.0753 -1.2442
13485SOL    HW242463   1.229   8.224   6.151  0.6390  0.9225  1.1452
13486SOL     OW42464   1.379   4.558   9.051  0.0844 -0.2825  0.5986
13486SOL    HW142465   1.374   4.537   8.958 -0.3550 -0.5777  0.6871
13486SOL    HW242466   1.345   4.480   9.095 -1.3996  0.5254  0.9491
13487SOL     OW42467   5.300   5.214   0.272 -0.0672  0.6479  0.2502
13487SOL    HW142468   5.290   5.134   0.221 -0.1728  0.9170 -0.1511
13487SOL    HW242469   5.292   5.185   0.363  0.2636  0.1484  0.1248
13488SOL     OW42470   3.972   9.127  10.544 -0.7986 -0.2740 -0.2095
13488SOL    HW142471   3.913   9.190  10.584 -0.4426  0.3974 -0.7231
13488SOL    HW242472   4.033   9.104  10.615 -2.3617 -1.9037  0.6904
13489SOL     OW42473   4.585   0.733   5.228 -0.6215  0.4051 -0.2240
13489SOL    HW142474   4.513   0.712   5.288  0.9835  0.5217  1.8515
13489SOL    HW242475   4.541   0.758   5.146 -2.8644 -1.3838  0.3162
13490SOL     OW42476  10.942   6.208   5.346 -0.6659 -0.0158 -0.2459
13490SOL    HW142477  11.005   6.140   5.366  0.2201  0.9960  0.5368
13490SOL    HW242478  10.896   6.176   5.268 -1.6005 -2.3514  1.1657
13491SOL     OW42479   8.090   7.518   6.467  0.6571  0.7673 -0.0897
13491SOL    HW142480   8.150   7.563   6.527  1.4131 -1.4380  0.9411
13491SOL    HW242481   8.115   7.425   6.474 -1.4235  0.0482 -1.3488
13492SOL     OW42482   1.633   2.733   0.484  0.3170 -0.0924  0.3938
13492SOL    HW142483   1.673   2.655   0.523  2.7989 -0.9655 -3.3573
13492SOL    HW242484   1.557   2.700   0.437 -1.0841  0.5279  2.1149
13493SOL     OW42485   7.625   9.927   5.169  0.2258  0.2015 -0.8551
13493SOL    HW142486   7.677   9.850   5.145 -0.8174 -0.6931 -0.3742
13493SOL    HW242487   7.674  10.001   5.134  2.1205 -0.5354  0.0695
13494SOL     OW42488   3.535   9.444   6.916  0.0050  0.1677  0.5858
13494SOL    HW142489   3.588   9.524   6.912  0.6724 -0.1446  2.1456
13494SOL    HW242490   3.599   9.373   6.906 -0.7108 -0.2052 -1.8361
13495SOL     OW42491   4.821   0.283   9.554  0.4293  0.0541  0.0973
13495SOL    HW142492   4.769   0.207   9.579  0.6929 -0.7094 -1.5607
13495SOL    HW242493   4.902   0.273   9.604  0.8146 -1.2542 -0.7285
13496SOL     OW42494  10.459   2.166   9.820  0.5348  0.2881 -1.2024
13496SOL    HW142495  10.520   2.240   9.822  1.1664 -0.0697  3.2823
13496SOL    HW242496  10.385   2.197   9.768  2.2391  2.7336 -2.3602
13497SOL     OW42497   0.001   1.678   9.193 -0.0671 -0.0997  0.1672
13497SOL    HW142498  -0.084   1.716   9.171 -1.3681 -3.0359 -0.3440
13497SOL    HW242499  -0.015   1.626   9.272  1.1496 -0.9610 -0.1224
13498SOL     OW42500   0.645  10.884  11.075  0.5718 -0.1717 -0.0651
13498SOL    HW142501   0.709  10.940  11.119  0.6425  1.1041 -1.6969
13498SOL    HW242502   0.645  10.803  11.125 -0.1721  1.5458  2.9251
13499SOL     OW42503  10.338   0.386  10.369 -0.4172  0.7586  0.4756
13499SOL    HW142504  10.311   0.404  10.460 -0.0741  0.6904  0.5909
13499SOL    HW242505  10.301   0.459  10.319 -2.0528 -0.0679  0.4002
13500SOL     OW42506   4.252   6.592   2.029 -0.4679 -0.8260 -0.2686
13500SOL    HW142507   4.281   6.555   2.112  0.1493 -0.2952 -0.2419
13500SOL    HW242508   4.308   6.668   2.016 -2.5550  0.9468  0.3646
13501SOL     OW42509   3.943   6.221   7.851 -0.9448  0.0421 -0.2622
13501SOL    HW142510   3.914   6.176   7.772 -0.1506  2.1761 -1.8622
13501SOL    HW242511   3.912   6.311   7.841  2.3495  1.3722 -0.0678
13502SOL     OW42512   2.223   3.069   5.785  0.2820 -0.0612 -0.2623
13502SOL    HW142513   2.148   3.097   5.838 -0.2787 -2.2082  0.1987
13502SOL    HW242514   2.195   2.985   5.747  2.8773 -1.6478  1.0111
13503SOL     OW42515   8.634   2.964   9.518 -0.0293 -0.6523  0.4711
13503SOL    HW142516   8.574   2.892   9.540  1.9824 -2.2821  0.9265
13503SOL    HW242517   8.699   2.963   9.588  1.4725 -0.0768 -0.8585
13504SOL     OW42518   4.476   0.133   7.240 -0.6765 -0.2205 -0.3967
13504SOL    HW142519   4.543   0.115   7.174  0.9617  3.2872  0.1250
13504SOL    HW242520   4.395   0.143   7.189 -0.2403 -1.3635 -1.3745
13505SOL     OW42521   2.952   0.893   4.501 -0.1294 -0.2857  0.2113
13505SOL    HW142522   2.977   0.889   4.593 -0.4818 -0.4254  0.3045
13505SOL    HW242523   2.894   0.969   4.495  1.3228  0.8325 -0.2571
13506SOL     OW42524   8.915   4.526   1.934  0.0208  0.2264 -0.2529
13506SOL    HW142525   8.942   4.440   1.900 -1.3391 -0.6747  0.8382
13506SOL    HW242526   8.996   4.577   1.936  1.2325 -1.6123  0.7550
13507SOL     OW42527   5.933   3.003   9.208 -0.1111 -0.5283  0.2778
13507SOL    HW142528   5.953   2.945   9.282  0.5913 -0.8200 -0.1430
13507SOL    HW242529   6.018   3.035   9.178 -0.4626  0.4140  0.2430
13508SOL     OW42530   5.864   9.893   5.341 -1.0254  0.1709  0.4936
13508SOL    HW142531   5.837   9.965   5.397 -0.4830  1.7563 -1.1903
13508SOL    HW242532   5.786   9.839   5.331 -2.0808  1.7503 -0.0151
13509SOL     OW42533   9.487  10.000   3.992  0.3184 -0.4916 -0.1879
13509SOL    HW142534   9.520   9.989   3.903 -1.0917 -1.1809 -0.6515
13509SOL    HW242535   9.487  10.095   4.006  3.7131 -0.4437  0.3695
13510SOL     OW42536   9.573   3.853   5.333 -0.2712 -0.0498 -0.5348
13510SOL    HW142537   9.601   3.911   5.403 -2.6292 -0.7351  1.0803
13510SOL    HW242538   9.560   3.911   5.258  1.5844  0.8038 -0.2381
13511SOL     OW42539  10.704   9.099   3.459 -0.0906 -0.6968  0.6465
13511SOL    HW142540  10.690   9.150   3.538 -1.9428  1.2587 -0.8263
13511SOL    HW242541  10.776   9.143   3.414 -0.5587 -0.3826  0.1874
13512SOL     OW42542   9.718   1.468  10.040 -0.5726  0.0118  0.3731
13512SOL    HW142543   9.778   1.403  10.076 -0.7492 -0.6139 -0.4432
13512SOL    HW242544   9.639   1.419  10.018  0.2073 -0.0595 -2.7139
13513SOL     OW42545   8.076   6.967   7.427  0.9289 -0.2096  0.5984
13513SOL    HW142546   8.027   6.919   7.493  0.6807  0.2879  0.7880
13513SOL    HW242547   8.154   6.998   7.472  0.3208  0.9139  0.9417
13514SOL     OW42548   3.306   5.225   5.246  0.7479 -0.0113  0.1541
13514SOL    HW142549   3.303   5.269   5.331  1.2518  1.4249 -0.5355
13514SOL    HW242550   3.399   5.221   5.223  0.7950 -2.0780  0.4676
13515SOL     OW42551   3.848   9.095   4.088 -0.2479  0.5117  0.1015
13515SOL    HW142552   3.755   9.105   4.109 -0.4832  1.5898 -1.3402
13515SOL    HW242553   3.869   9.005   4.114 -2.7311 -1.2324 -3.1425
13516SOL     OW42554   4.376   8.191   0.866  0.1799  0.7951  0.0096
13516SOL    HW142555   4.461   8.197   0.824  0.4268  1.6097  0.6082
13516SOL    HW242556   4.364   8.276   0.909  0.1265 -0.1564  1.9532
13517SOL     OW42557  10.991   0.155   1.117 -0.5498 -0.3195 -0.0316
13517SOL    HW142558  10.960   0.243   1.136  0.1721  0.2102 -1.2025
13517SOL    HW242559  10.916   0.111   1.077 -0.8080 -0.1248  0.2380
13518SOL     OW42560   6.660   6.637   2.206 -0.1336 -0.0318  0.0364
13518SOL    HW142561   6.682   6.549   2.178 -2.8466 -0.6240 -0.4532
13518SOL    HW242562   6.714   6.651   2.285  0.6983 -1.9061 -0.1438
13519SOL     OW42563   5.400   8.596   9.553  0.0700  0.2492 -0.5653
13519SOL    HW142564   5.444   8.660   9.608 -1.5423  1.5411 -0.7155
13519SOL    HW242565   5.341   8.549   9.613 -0.2006  0.2777 -0.8036
13520SOL     OW42566   9.943  10.216   0.222  0.2944  0.1665  0.2372
13520SOL    HW142567   9.972  10.125   0.210 -1.9284 -0.4490 -1.0107
13520SOL    HW242568   9.997  10.266   0.161  0.5935 -0.5121 -0.0763
13521SOL     OW42569   9.231   9.154   3.382 -0.1025 -0.7315 -0.7390
13521SOL    HW142570   9.196   9.119   3.464 -2.1969 -1.3113 -1.8009
13521SOL    HW242571   9.326   9.160   3.396 -0.5651  1.2312  2.4565
13522SOL     OW42572   6.071   1.554   0.235 -1.0962 -0.0928  0.4432
13522SOL    HW142573   6.107   1.490   0.297 -0.5172  1.0428  1.3026
13522SOL    HW242574   6.048   1.629   0.288 -2.4436  0.1684 -0.4639
13523SOL     OW42575   3.078   7.994   2.681 -0.3118 -0.0307  0.1529
13523SOL    HW142576   3.169   7.965   2.691  0.3862  2.0478  0.4828
13523SOL    HW242577   3.026   7.926   2.722  1.2216 -0.5979  1.2665
13524SOL     OW42578  10.119   4.055   7.016 -0.1118 -0.2439  0.1434
13524SOL    HW142579  10.136   4.004   6.937 -0.6333 -1.4678  0.7819
13524SOL    HW242580  10.161   4.139   7.001  0.9706 -0.9402 -0.8716
13525SOL     OW42581   0.315   6.269   9.810 -0.3081  0.3611 -0.2625
13525SOL    HW142582   0.372   6.339   9.780 -2.4045  2.6961  0.8540
13525SOL    HW242583   0.347   6.246   9.897  0.0009  0.3797 -0.3719
13526SOL     OW42584   6.271   3.235   3.594  0.2509 -0.1630 -0.1244
13526SOL    HW142585   6.332   3.275   3.532  1.2257 -2.4796 -0.7952
13526SOL    HW242586   6.193   3.216   3.541  0.8337 -1.5450 -0.5337
13527SOL     OW42587   9.805   5.576   9.300 -0.2007  0.5063  0.1742
13527SOL    HW142588   9.862   5.501   9.281 -1.7914 -0.4830 -1.0266
13527SOL    HW242589   9.718   5.537   9.312 -1.2223  2.1891 -1.2176
13528SOL     OW42590   1.224   7.258   1.974  0.2341  0.0177 -0.1609
13528SOL    HW142591   1.173   7.232   2.051 -0.5886 -1.5851 -1.1931
13528SOL    HW242592   1.188   7.342   1.947  1.1963  1.1058  1.7427
13529SOL     OW42593   2.816   5.216   8.514 -0.2371 -0.4472  0.4930
13529SOL    HW142594   2.883   5.224   8.446  0.0694  1.4972  0.9625
13529SOL    HW242595   2.841   5.280   8.580 -1.7346 -0.7652  1.4169
13530SOL     OW42596   1.051   1.887   6.263 -0.1374 -0.5640 -0.0331
13530SOL    HW142597   1.006   1.803   6.262 -0.2746 -0.5162  1.2031
13530SOL    HW242598   1.080   1.899   6.172 -1.3307 -1.2693 -0.5332
13531SOL     OW42599   4.687   1.008   0.257 -0.2148  0.1289  0.5597
13531SOL    HW142600   4.616   0.957   0.217 -0.4649  0.3691  0.6921
13531SOL    HW242601   4.733   0.945   0.312  0.2468 -0.2493 -0.2444
13532SOL     OW42602   5.904   8.071   3.904  0.1423  0.1265  0.5007
13532SOL    HW142603   5.915   7.979   3.930 -1.5717 -0.3771 -0.3764
13532SOL    HW242604   5.959   8.081   3.827 -0.1181 -0.3413  0.2504
13533SOL     OW42605   8.799   3.134   5.396 -0.3254  0.4533 -0.3948
13533SOL    HW142606   8.817   3.042   5.377  0.7681  1.0817 -2.7621
13533SOL    HW242607   8.725   3.156   5.339 -1.9608  0.5902  1.6544
13534SOL     OW42608   0.405   1.061   0.261 -0.7789  0.4652  0.6925
13534SOL    HW142609   0.399   1.153   0.289 -1.0998  0.4978  0.5208
13534SOL    HW242610   0.382   1.011   0.339  1.5047  0.4587  1.4273
13535SOL     OW42611   5.705   7.446   6.621  0.6142 -0.1740  0.6182
13535SOL    HW142612   5.715   7.353   6.600 -0.1609 -0.4878  1.5443
13535SOL    HW242613   5.665   7.446   6.708 -0.1118  1.0235  0.2967
13536SOL     OW42614   0.273   8.689   2.534  0.3056  0.0795  0.5277
13536SOL    HW142615   0.275   8.633   2.611  0.1676  0.2716  0.6706
13536SOL    HW242616   0.222   8.765   2.560 -0.8866 -0.4531 -0.1458
13537SOL     OW42617   1.712   0.857   1.175  0.1856 -0.5757  0.0604
13537SOL    HW142618   1.697   0.947   1.148 -1.6381 -0.4154  1.3522
13537SOL    HW242619   1.691   0.804   1.098  1.2696  0.0769 -0.7039
13538SOL     OW42620   0.106   9.467   6.193 -0.1400 -0.2200  0.4705
13538SOL    HW142621   0.068   9.545   6.152 -0.9179  0.5895  2.6051
13538SOL    HW242622   0.068   9.393   6.145  1.2236  0.6270 -2.1446
13539SOL     OW42623   7.114  10.841   5.943  0.0142  0.1649 -0.2287
13539SOL    HW142624   7.092  10.883   6.026 -1.9756 -0.5851 -0.3305
13539SOL    HW242625   7.209  10.832   5.946  0.2483  2.2238  0.9400
13540SOL     OW42626   5.416   8.609   5.697 -0.4884  0.0999  0.1562
13540SOL    HW142627   5.332   8.566   5.681  0.2462 -1.8651  1.2328
13540SOL    HW242628   5.465   8.598   5.616 -0.2899 -1.2179  0.4389
13541SOL     OW42629  10.486   2.392   9.196 -0.4840  0.2817 -0.3982
13541SOL    HW142630  10.457   2.409   9.286  1.0026  1.4498 -0.1041
13541SOL    HW242631  10.466   2.299   9.182  2.2033 -0.8965  2.3397
13542SOL     OW42632   9.092   2.348   3.596 -0.4376  0.3681 -0.1481
13542SOL    HW142633   9.128   2.314   3.678 -4.3003  0.6287  1.9075
13542SOL    HW242634   9.075   2.441   3.614 -0.5316  0.6600 -1.5999
13543SOL     OW42635  10.446   6.693   0.376 -0.0261 -0.0321  0.9825
13543SOL    HW142636  10.376   6.692   0.310 -1.0649 -0.5658  2.0593
13543SOL    HW242637  10.449   6.603   0.408  1.9989 -0.3081  0.1217
13544SOL     OW42638   3.234   2.331   6.156  0.5728  0.3578  0.5125
13544SOL    HW142639   3.204   2.240   6.153  0.2314  0.4295 -2.8497
13544SOL    HW242640   3.156   2.383   6.135  1.1273  1.2961  0.6949
13545SOL     OW42641   1.717   8.003   3.433  0.3819  0.3181  0.8259
13545SOL    HW142642   1.707   7.910   3.413 -0.3082  0.6633 -0.5660
13545SOL    HW242643   1.788   8.007   3.497  0.8785 -1.0972  0.3881
13546SOL     OW42644   1.791   0.649  10.516  0.0461 -0.1847  0.4567
13546SOL    HW142645   1.795   0.717  10.449 -1.5349  1.4903  1.9677
13546SOL    HW242646   1.882   0.622  10.528  0.7411  1.8044 -0.0557
13547SOL     OW42647   6.956   6.710   9.778 -0.4858  0.5966 -0.1565
13547SOL    HW142648   7.037   6.671   9.811 -1.2856 -0.0465  1.1416
13547SOL    HW242649   6.983   6.791   9.736  0.7378  0.8145  1.0120
13548SOL     OW42650   9.261   9.883   4.037 -0.0455  0.0080  0.0183
13548SOL    HW142651   9.229   9.866   3.949 -1.6972 -2.2227  0.9598
13548SOL    HW242652   9.352   9.911   4.025 -0.1363 -0.5677 -2.3507
13549SOL     OW42653   9.449   1.551   3.780  0.6913 -0.1627 -0.9878
13549SOL    HW142654   9.506   1.493   3.731 -0.7640 -1.5359 -1.1196
13549SOL    HW242655   9.465   1.638   3.741  0.7823 -0.9323 -2.7760
13550SOL     OW42656  10.223   9.839   6.631 -0.0947 -0.5107  0.5778
13550SOL    HW142657  10.294   9.832   6.567  0.2538  1.0969  0.7504
13550SOL    HW242658  10.186   9.751   6.634  1.9053 -1.4222  0.5144
13551SOL     OW42659   1.583   7.890   8.238  0.0234  0.3518  0.0419
13551SOL    HW142660   1.516   7.822   8.245 -2.0276  2.4399  2.1279
13551SOL    HW242661   1.649   7.865   8.303 -0.3747  0.0394  0.3276
13552SOL     OW42662   9.949  10.633  10.588  0.3209  0.5437 -0.5812
13552SOL    HW142663   9.898  10.694  10.642  0.4614 -0.2096  0.4473
13552SOL    HW242664  10.009  10.591  10.651  1.1336  0.3002 -1.4984
13553SOL     OW42665   3.136   8.635   5.897  0.5847 -0.1013  0.1535
13553SOL    HW142666   3.170   8.553   5.860 -0.2195 -1.2203  1.7266
13553SOL    HW242667   3.097   8.608   5.981 -0.5291  1.7555  0.2861
13554SOL     OW42668   6.010   9.378   1.978  0.3296 -0.1887 -0.4943
13554SOL    HW142669   6.037   9.453   1.925 -0.2584  0.6842  0.4175
13554SOL    HW242670   6.014   9.304   1.917 -1.4110  0.9441 -2.1359
13555SOL     OW42671   8.601  10.935   0.855 -0.7378 -0.6386  0.0982
13555SOL    HW142672   8.591  10.844   0.824 -0.3438 -0.1574 -1.5366
13555SOL    HW242673   8.545  10.986   0.797  0.3717  0.3724 -0.1153
13556SOL     OW42674   2.071   8.749   7.853  0.1026  0.0351  0.4041
13556SOL    HW142675   2.010   8.688   7.896  0.4903  0.1559  1.1405
13556SOL    HW242676   2.026   8.773   7.772 -0.7588 -0.0199  0.8435
13557SOL     OW42677   4.816   7.627   3.679  0.1620  0.0148 -0.4413
13557SOL    HW142678   4.725   7.599   3.668  0.6230 -1.6497 -0.3402
13557SOL    HW242679   4.865   7.545   3.687  1.5299  0.8998  0.6758
13558SOL     OW42680  10.214   3.112   7.357  0.5109 -0.4038 -0.2385
13558SOL    HW142681  10.155   3.138   7.428 -0.7706 -2.2710 -0.5611
13558SOL    HW242682  10.169   3.137   7.277  2.2582  2.3422 -0.5050
13559SOL     OW42683   8.765   2.652   9.481  0.5553  0.5511  0.0636
13559SOL    HW142684   8.855   2.652   9.448  0.2198 -2.4013 -1.2403
13559SOL    HW242685   8.715   2.604   9.414 -1.1114 -1.7258  2.6853
13560SOL     OW42686  10.287   1.616   9.938 -0.0296 -0.0062  0.6179
13560SOL    HW142687  10.278   1.707   9.909  0.6034 -0.5616 -1.5539
13560SOL    HW242688  10.374   1.612   9.977 -0.2604  0.4247  1.1811
13561SOL     OW42689   5.027   4.813   9.755  0.2088 -0.5164  0.1084
13561SOL    HW142690   5.105   4.823   9.701 -0.1887  1.5630 -0.1658
13561SOL    HW242691   5.061   4.792   9.843  0.9718 -1.2966 -0.3550
13562SOL     OW42692   3.462   5.681   3.192  0.2724 -0.0183  0.2018
13562SOL    HW142693   3.450   5.728   3.275 -0.0832 -0.3620  0.3473
13562SOL    HW242694   3.555   5.688   3.173  0.4895 -0.5827  1.0202
13563SOL     OW42695   2.169   4.320   7.903 -0.3959 -0.2079 -0.3188
13563SOL    HW142696   2.188   4.381   7.974 -0.6343  0.5922 -0.9191
13563SOL    HW242697   2.089   4.355   7.863 -1.4792 -1.8379  0.3344
13564SOL     OW42698   0.855   5.735   1.449 -0.4157 -0.1320 -0.3275
13564SOL    HW142699   0.935   5.764   1.494 -0.8257 -0.1951  0.4581
13564SOL    HW242700   0.858   5.640   1.454 -0.6690 -0.1259 -0.0729
13565SOL     OW42701  10.659   4.017   8.468 -0.4034 -0.3492  0.3449
13565SOL    HW142702  10.742   3.971   8.463 -0.8903 -1.2311  0.1808
13565SOL    HW242703  10.623   4.012   8.379  0.1558  1.5488 -0.0300
13566SOL     OW42704   1.509   5.108   1.912  0.5156 -0.4384 -0.2620
13566SOL    HW142705   1.583   5.064   1.954  0.2766 -1.9697 -1.3534
13566SOL    HW242706   1.513   5.198   1.945  2.0099 -0.8445  0.7898
13567SOL     OW42707   2.202   9.039   8.444 -1.0801 -0.1741 -0.0482
13567SOL    HW142708   2.254   8.975   8.493 -0.5371  1.2142  1.2479
13567SOL    HW242709   2.171   8.990   8.368  0.4981 -1.5879  0.1480
13568SOL     OW42710   7.778  10.516   5.118 -1.0255 -0.5749 -0.0565
13568SOL    HW142711   7.765  10.450   5.050 -3.7670 -1.2653  1.0023
13568SOL    HW242712   7.807  10.466   5.194  2.0518  0.1944 -0.5908
13569SOL     OW42713   4.978  10.195   9.931  0.2522 -0.2726 -0.2502
13569SOL    HW142714   5.001  10.263   9.994 -1.0594 -0.3426  0.3423
13569SOL    HW242715   4.884  10.181   9.945  0.5326 -2.3355 -0.2189
13570SOL     OW42716   3.838   7.977   9.144  0.7047  0.2597  0.1929
13570SOL    HW142717   3.918   7.976   9.196  0.6618 -1.6956  0.2844
13570SOL    HW242718   3.868   7.988   9.053  1.1057 -0.7818  0.1932
13571SOL     OW42719   1.652   8.514   1.328  0.3899  0.0782 -0.3380
13571SOL    HW142720   1.707   8.517   1.406 -0.6211  0.8683  0.3757
13571SOL    HW242721   1.672   8.595   1.281  0.8782 -0.3187 -0.8288
13572SOL     OW42722   3.108   1.885   5.738 -0.2841  0.2031 -0.1278
13572SOL    HW142723   3.065   1.970   5.745  1.5562  1.2024 -0.1158
13572SOL    HW242724   3.132   1.878   5.646 -1.4504 -0.8676 -0.3700
13573SOL     OW42725  10.619   0.980   1.076 -0.0472  0.1122 -0.0045
13573SOL    HW142726  10.559   0.973   1.149  1.2929 -2.2034  0.9685
13573SOL    HW242727  10.577   0.931   1.005 -1.2455  2.1754 -0.8044
13574SOL     OW42728   0.537   9.137   0.290  0.1652  0.2803  0.4646
13574SOL    HW142729   0.444   9.130   0.312  0.3421 -0.8044  0.9615
13574SOL    HW242730   0.576   9.182   0.365  0.2304 -0.4097  0.8570
13575SOL     OW42731   2.408   7.684   6.201  0.4811  0.4395  0.2518
13575SOL    HW142732   2.400   7.634   6.282 -0.1656  0.4895  0.2256
13575SOL    HW242733   2.444   7.768   6.229  0.6880  0.2956  0.4241
13576SOL     OW42734   2.231   1.841   6.390 -0.2487 -0.0522  0.3764
13576SOL    HW142735   2.228   1.801   6.477 -4.0934 -0.6457  0.1745
13576SOL    HW242736   2.140   1.838   6.360  0.5114  2.3736 -2.6779
13577SOL     OW42737   2.187   2.378   7.278  0.3040  0.1798 -0.7512
13577SOL    HW142738   2.207   2.364   7.371  0.3529  1.4951 -0.5413
13577SOL    HW242739   2.093   2.399   7.277  0.1505 -0.4888 -1.0883
13578SOL     OW42740   5.836   6.009   4.016  0.4510  0.2789  0.4027
13578SOL    HW142741   5.904   6.001   4.083  0.6246  1.7859  0.4471
13578SOL    HW242742   5.844   6.099   3.985 -1.6395  0.5693  0.5559
13579SOL     OW42743   2.803   1.900   3.486 -0.1956 -0.4278 -0.6206
13579SOL    HW142744   2.788   1.807   3.498  1.1360 -0.9443 -2.4049
13579SOL    HW242745   2.724   1.932   3.444 -1.4165 -0.3111  1.6266
13580SOL     OW42746   7.593   8.370   8.763 -0.3180  0.1525 -0.5041
13580SOL    HW142747   7.640   8.287   8.753 -0.7982 -0.1941  0.0355
13580SOL    HW242748   7.617   8.400   8.851  0.5809  1.0535 -1.0471
13581SOL     OW42749   1.135   7.550   0.015  0.4385 -0.6010 -0.0613
13581SOL    HW142750   1.136   7.537   0.110 -0.5305 -0.9909 -0.0942
13581SOL    HW242751   1.071   7.487  -0.017 -0.7430  0.9118 -0.7664
13582SOL     OW42752   9.177   8.876   5.628  0.8499 -0.9945 -0.7135
13582SOL    HW142753   9.265   8.840   5.612  1.9245 -1.1168  3.8577
13582SOL    HW242754   9.122   8.799   5.642  1.3946 -1.0210  1.6965
13583SOL     OW42755  10.754   9.405   0.263 -0.4988  0.0379  0.1582
13583SOL    HW142756  10.789   9.320   0.237  0.2096  0.2098  0.4976
13583SOL    HW242757  10.832   9.458   0.280 -0.9315  0.7653 -0.0789
13584SOL     OW42758   3.773   7.751   2.868 -0.1231  0.0779  0.7820
13584SOL    HW142759   3.772   7.772   2.775 -3.0631  4.1870  1.4571
13584SOL    HW242760   3.720   7.671   2.876 -0.4298  0.0801 -0.9782
13585SOL     OW42761   5.378   0.242   0.294  0.5481 -0.0036 -0.8025
13585SOL    HW142762   5.324   0.304   0.245  1.3364  1.3070 -0.0596
13585SOL    HW242763   5.454   0.227   0.238  1.1900  1.0775 -0.2537
13586SOL     OW42764  10.955   9.415   8.005 -0.4491 -0.2372 -0.4979
13586SOL    HW142765  10.997   9.359   7.940  0.1661  0.3550 -0.6256
13586SOL    HW242766  10.883   9.457   7.958 -0.0124  0.1820 -0.8011
13587SOL     OW42767   1.769   2.683   4.703  0.3872 -0.2787 -0.2713
13587SOL    HW142768   1.812   2.721   4.780  0.6374  0.8556 -0.9499
13587SOL    HW242769   1.820   2.717   4.629 -0.1550 -0.9528 -0.9608
13588SOL     OW42770   3.345   0.340   1.019 -1.0396 -0.2059 -0.5460
13588SOL    HW142771   3.291   0.396   0.964 -2.3460  2.6476  3.1735
13588SOL    HW242772   3.283   0.281   1.062 -0.4489 -0.6296 -0.2546
13589SOL     OW42773   0.093   6.292   0.686 -0.4912 -0.4605 -0.0059
13589SOL    HW142774   0.077   6.385   0.670 -1.4950 -0.9958 -2.6145
13589SOL    HW242775   0.014   6.262   0.731 -0.0224 -0.0252  1.1471
13590SOL     OW42776   3.856   6.664   3.148  0.3329  0.5133  0.3383
13590SOL    HW142777   3.902   6.711   3.218 -0.6791  1.2115  0.5586
13590SOL    HW242778   3.765   6.663   3.176 -0.4006  2.2933 -1.7145
13591SOL     OW42779   4.446  10.709   1.364  0.4351 -0.3492  0.4189
13591SOL    HW142780   4.509  10.652   1.319 -0.4586 -0.6254 -0.5285
13591SOL    HW242781   4.423  10.775   1.298 -2.7856 -2.1941 -0.5299
13592SOL     OW42782   4.152   7.066   6.742  0.1435  0.7945  0.1769
13592SOL    HW142783   4.205   7.143   6.764 -0.1307  0.5730  1.7401
13592SOL    HW242784   4.079   7.102   6.692  1.4320  1.1748 -1.5238
13593SOL     OW42785   9.632  10.469   4.602 -0.2524 -0.7581 -0.0792
13593SOL    HW142786   9.594  10.554   4.582  1.2958  0.2325  1.0306
13593SOL    HW242787   9.558  10.407   4.594 -1.2119  0.5261 -1.7500
13594SOL     OW42788   3.908   3.042   1.224 -0.3547 -0.4922 -0.1103
13594SOL    HW142789   3.868   3.067   1.307 -2.2508 -0.6625 -0.9029
13594SOL    HW242790   3.932   2.950   1.235  1.0612 -0.0453  0.8038
13595SOL     OW42791   8.369  10.917   0.059 -0.2757  0.1020  0.5095
13595SOL    HW142792   8.390  11.003   0.023 -0.2102 -0.2362 -0.2841
13595SOL    HW242793   8.357  10.933   0.153  1.4110  0.6823  0.6608
13596SOL     OW42794   2.380   1.233  10.023  0.0873  0.6703  0.3774
13596SOL    HW142795   2.405   1.193   9.940 -2.0217 -4.2171  1.7188
13596SOL    HW242796   2.437   1.190  10.088 -1.9446  0.1792  1.9339
13597SOL     OW42797   8.585   5.051  10.771 -0.4697 -0.0659  1.1112
13597SOL    HW142798   8.535   5.007  10.701 -2.0219 -0.5272  2.4497
13597SOL    HW242799   8.645   5.108  10.724 -1.2810 -0.5517 -0.6264
13598SOL     OW42800   2.229  10.512   6.910 -0.6526  0.0707  0.5898
13598SOL    HW142801   2.269  10.505   6.997 -1.1888 -1.8594  0.7191
13598SOL    HW242802   2.291  10.564   6.859 -0.8500  2.2556  2.3872
13599SOL     OW42803   4.288   9.932   0.504 -0.6473  0.2008 -0.2287
13599SOL    HW142804   4.368   9.976   0.475  0.9580 -2.4338 -0.1484
13599SOL    HW242805   4.301   9.918   0.598 -2.1295  1.4665  0.1968
13600SOL     OW42806   5.094   1.302  10.986  0.5299 -0.3823 -0.4604
13600SOL    HW142807   5.052   1.220  11.011  0.2437 -0.4302 -1.0817
13600SOL    HW242808   5.046   1.331  10.909  1.2148 -0.1040 -0.7906
13601SOL     OW42809   2.137   4.510   2.681 -0.3289 -0.0286 -0.2385
13601SOL    HW142810   2.139   4.476   2.770  0.8875  0.6053  0.0021
13601SOL    HW242811   2.145   4.433   2.625  0.3870 -0.3098  0.2414
13602SOL     OW42812   7.854   1.903   1.758 -0.2006 -0.0596  0.6403
13602SOL    HW142813   7.875   1.879   1.848 -1.7384 -0.2429  0.9753
13602SOL    HW242814   7.773   1.856   1.738  1.5431 -2.3152 -1.8361
13603SOL     OW42815   6.121   8.889   1.621  0.0189  0.0463  0.0786
13603SOL    HW142816   6.179   8.958   1.653  1.3772 -0.3740 -1.3290
13603SOL    HW242817   6.120   8.901   1.526 -2.7932  0.4370  0.0788
13604SOL     OW42818   6.044   0.543   8.348 -0.4487  0.3513  0.0815
13604SOL    HW142819   6.139   0.533   8.348 -0.2187  2.1511  0.8954
13604SOL    HW242820   6.027   0.617   8.291 -1.4097 -0.1405 -0.3014
13605SOL     OW42821   7.976   2.247   2.673 -0.2504  0.0911  0.1125
13605SOL    HW142822   7.903   2.267   2.732 -2.3134  0.1115 -2.2544
13605SOL    HW242823   8.001   2.158   2.696  0.0463  0.6200  1.9783
13606SOL     OW42824   3.468   5.183   3.524 -0.7010 -0.1899 -0.0575
13606SOL    HW142825   3.417   5.170   3.604 -2.0206  1.0011 -0.6643
13606SOL    HW242826   3.508   5.098   3.508 -0.4644 -0.4847  1.8092
13607SOL     OW42827   1.997   4.993   0.071 -0.8300 -0.1865  0.1047
13607SOL    HW142828   1.981   4.996   0.165 -0.1939  0.7407  0.1907
13607SOL    HW242829   1.912   5.011   0.031 -1.2250 -1.1484  0.4812
13608SOL     OW42830  10.606   3.984   3.865  0.5681 -0.7852  0.5047
13608SOL    HW142831  10.530   4.007   3.919  0.1421 -0.2419 -0.3153
13608SOL    HW242832  10.629   4.066   3.820  1.2499 -1.1031  0.2679
13609SOL     OW42833   8.945   8.572   0.595 -0.4445 -0.2763  0.1143
13609SOL    HW142834   8.885   8.635   0.556  3.1924  3.6481  0.1917
13609SOL    HW242835   8.989   8.531   0.521  0.0750  0.4088  0.0349
13610SOL     OW42836   2.816   7.343   9.309 -0.1034 -0.2841  0.0376
13610SOL    HW142837   2.726   7.367   9.286 -0.9397 -1.4082  1.9417
13610SOL    HW242838   2.835   7.267   9.254 -1.2565 -1.5648  1.3416
13611SOL     OW42839   2.591   2.442   9.825 -0.5210  0.1899 -0.5370
13611SOL    HW142840   2.654   2.370   9.831 -1.5952 -0.8082 -0.9376
13611SOL    HW242841   2.623   2.506   9.888  1.0928 -0.1240 -0.9814
13612SOL     OW42842   8.249   6.185   3.507 -0.0258 -0.0894  0.1566
13612SOL    HW142843   8.316   6.240   3.547 -0.2764  2.4460 -2.5548
13612SOL    HW242844   8.170   6.201   3.559  0.7405 -0.7856  1.5842
13613SOL     OW42845   5.937   1.714   0.441 -0.2289 -0.1897  0.0452
13613SOL    HW142846   5.947   1.803   0.408  1.5350 -0.9597 -1.6832
13613SOL    HW242847   5.858   1.718   0.496  0.2341  2.5820  0.6780
13614SOL     OW42848   1.936   1.663   6.523 -0.6656  0.7757  0.1101
13614SOL    HW142849   1.952   1.718   6.446 -2.7503  1.8721  0.3895
13614SOL    HW242850   1.959   1.575   6.494  2.8073  1.6825 -0.3461
13615SOL     OW42851   9.741   5.232   4.624 -0.0540  0.0341  0.5156
13615SOL    HW142852   9.781   5.261   4.541  1.3095 -0.3481  1.0193
13615SOL    HW242853   9.705   5.312   4.662  2.1937  0.8312  1.0857
13616SOL     OW42854   9.168   6.681  10.135 -0.3069 -0.9586  0.5274
13616SOL    HW142855   9.181   6.718  10.047 -1.5098  2.6028  1.6715
13616SOL    HW242856   9.254   6.646  10.159  1.1756  1.6156 -0.6016
13617SOL     OW42857   9.414   8.754   1.292  0.2901  0.2038  0.4802
13617SOL    HW142858   9.376   8.825   1.344 -0.4005 -2.0478  3.3180
13617SOL    HW242859   9.494   8.730   1.340 -0.0496 -1.5986  0.1966
13618SOL     OW42860   5.662   2.372   2.523 -0.8456  0.5074  0.3267
13618SOL    HW142861   5.648   2.355   2.616  0.5206 -0.5224  0.3811
13618SOL    HW242862   5.755   2.355   2.509 -0.5692  2.5662 -0.8379
13619SOL     OW42863  10.673   7.385   9.419 -0.2724  0.2792  0.0252
13619SOL    HW142864  10.583   7.389   9.453 -0.6038  0.0722 -0.8047
13619SOL    HW242865  10.694   7.291   9.419 -0.0048  0.3405  0.3528
13620SOL     OW42866   8.472  10.228   7.428 -0.0461  0.8541 -0.2507
13620SOL    HW142867   8.529  10.177   7.370 -0.2722  1.5022 -1.0635
13620SOL    HW242868   8.397  10.251   7.373 -3.2605 -3.4063  1.7937
13621SOL     OW42869   7.275   9.892   1.108  0.3289  0.1021  0.7877
13621SOL    HW142870   7.224   9.954   1.056 -0.5636 -0.3921  1.0630
13621SOL    HW242871   7.355   9.940   1.130  0.7149  0.3588 -0.9668
13622SOL     OW42872   3.643   6.246   3.474  0.1913  0.4308  0.3020
13622SOL    HW142873   3.662   6.340   3.476  0.2753  0.4233 -0.0630
13622SOL    HW242874   3.699   6.209   3.542  0.8761  0.5198 -0.2033
13623SOL     OW42875   4.975   5.214   1.405 -0.1747  0.1892  0.6921
13623SOL    HW142876   4.930   5.229   1.488  0.1925  1.1087  0.7431
13623SOL    HW242877   4.964   5.296   1.357  1.6067  0.5280  0.7981
13624SOL     OW42878  10.419   7.951   3.108  0.1999 -0.7765 -0.0210
13624SOL    HW142879  10.508   7.929   3.137  0.2269 -1.2273 -0.4432
13624SOL    HW242880  10.365   7.879   3.139  0.3169 -1.5722 -1.5451
13625SOL     OW42881   3.461   7.051   4.847 -0.3099  0.3653  0.6679
13625SOL    HW142882   3.378   7.032   4.804 -0.7547  1.0978  1.1762
13625SOL    HW242883   3.458   7.145   4.865 -0.0897  0.1025  2.1774
13626SOL     OW42884   4.465   3.881   6.546  0.6070  0.1183  0.2112
13626SOL    HW142885   4.402   3.941   6.585 -0.3365  0.6609 -1.9948
13626SOL    HW242886   4.449   3.798   6.590 -2.0671  0.1101 -0.6203
13627SOL     OW42887   8.137   1.385   9.767 -0.0890 -0.8965  0.1093
13627SOL    HW142888   8.043   1.379   9.781 -0.2145 -1.6034 -0.8856
13627SOL    HW242889   8.170   1.437   9.841 -1.3747  0.1864 -0.0537
13628SOL     OW42890   3.224   8.336   9.979 -0.2393 -0.7208 -0.5334
13628SOL    HW142891   3.173   8.398   9.927  0.1901 -0.6668 -0.9027
13628SOL    HW242892   3.216   8.253   9.933  0.0199 -0.7059 -0.6103
13629SOL     OW42893   6.429   5.024   8.671  0.1610  0.3440 -0.3435
13629SOL    HW142894   6.374   4.999   8.746 -0.0493 -1.6343 -1.1152
13629SOL    HW242895   6.415   4.955   8.607  0.9593  1.5909 -1.9198
13630SOL     OW42896   4.222   0.480   8.114  0.1262 -0.2109  0.4250
13630SOL    HW142897   4.222   0.475   8.210 -0.1898  2.8782  0.6801
13630SOL    HW242898   4.130   0.488   8.090  0.3100  1.6381  0.1563
13631SOL     OW42899   5.360   8.927   0.251  1.0034  0.1007 -0.0680
13631SOL    HW142900   5.336   8.867   0.181 -2.4971  0.6923  0.4557
13631SOL    HW242901   5.388   9.007   0.207 -0.5224  0.2393 -0.8179
13632SOL     OW42902   3.116   7.142   2.157 -0.0037 -1.0721  0.0354
13632SOL    HW142903   3.192   7.148   2.216 -0.6594  0.2673  0.8145
13632SOL    HW242904   3.041   7.161   2.214 -0.9229 -2.2594 -0.7409
13633SOL     OW42905   9.410   5.324   1.065 -0.0214  1.0790  0.6842
13633SOL    HW142906   9.440   5.338   1.155 -0.2416 -0.0043  0.9465
13633SOL    HW242907   9.487   5.289   1.020  0.6402  3.3295 -0.0607
13634SOL     OW42908   1.717   5.578   9.454 -0.5495  0.2445 -0.2180
13634SOL    HW142909   1.793   5.535   9.493 -0.9638 -0.2699  0.0379
13634SOL    HW242910   1.646   5.564   9.517 -0.8626  0.7119 -0.4549
13635SOL     OW42911  10.480   3.676   1.508 -0.3284  0.4317  0.5650
13635SOL    HW142912  10.550   3.692   1.571 -1.5796  1.6118  1.7391
13635SOL    HW242913  10.407   3.646   1.562 -1.0516  0.2686 -0.4826
13636SOL     OW42914   6.790   9.041   9.904  0.4709  0.1391  0.8331
13636SOL    HW142915   6.780   9.132   9.933 -0.0826  0.5049 -0.4353
13636SOL    HW242916   6.882   9.020   9.921  0.1319  0.2014  3.1043
13637SOL     OW42917   9.174   4.499  10.209  0.3224 -0.7294  0.0539
13637SOL    HW142918   9.145   4.518  10.119 -0.7222 -0.8876  0.3417
13637SOL    HW242919   9.260   4.459  10.198  0.6010  0.0770 -0.8237
13638SOL     OW42920  10.153  10.121   6.528  0.2433  0.1915 -0.1409
13638SOL    HW142921  10.216  10.132   6.457 -1.2596 -0.8826 -1.7114
13638SOL    HW242922  10.153  10.027   6.546 -2.1515 -0.1632 -1.4766
13639SOL     OW42923  11.093   8.503  10.440  0.1111  0.0484  0.1610
13639SOL    HW142924  11.171   8.537  10.395  0.6479  1.6290  2.1236
13639SOL    HW242925  11.020   8.541  10.393  0.5343 -0.5333 -1.0112
13640SOL     OW42926   8.066   2.487  10.785  0.2691 -0.3294 -0.1362
13640SOL    HW142927   8.026   2.574  10.783  0.3842 -0.2529  0.6768
13640SOL    HW242928   8.083   2.466  10.693  0.1918  0.4840 -0.3390
13641SOL     OW42929   5.182   0.577   9.600 -0.1950 -0.2027  0.1380
13641SOL    HW142930   5.248   0.584   9.531 -0.2143  0.8293  0.2112
13641SOL    HW242931   5.099   0.576   9.553 -0.2177  0.6951  0.1365
13642SOL     OW42932   8.559   2.306   9.587  0.1886  0.3344  0.6263
13642SOL    HW142933   8.621   2.374   9.613  0.2187  0.4531  0.2568
13642SOL    HW242934   8.578   2.291   9.494  0.6506 -0.6745  0.8718
13643SOL     OW42935   2.660   1.958  10.153 -0.1124  0.2055 -0.0568
13643SOL    HW142936   2.658   1.862  10.161 -0.6729  0.3607  2.3927
13643SOL    HW242937   2.613   1.976  10.072 -3.2375 -1.4865  1.1948
13644SOL     OW42938   7.620  10.430   4.174 -0.3398  0.2310 -0.2797
13644SOL    HW142939   7.678  10.505   4.166 -0.0300 -0.0984 -1.2667
13644SOL    HW242940   7.532  10.465   4.162 -0.1303  0.3081 -1.8048
13645SOL     OW42941   3.191   2.223   8.158  0.2604 -0.6628 -0.0750
13645SOL    HW142942   3.243   2.180   8.089  0.6405 -0.4815  0.0928
13645SOL    HW242943   3.132   2.154   8.190 -0.4749 -0.5387 -1.1139
13646SOL     OW42944   2.258   0.374   5.699 -0.2013  0.1545 -0.7467
13646SOL    HW142945   2.285   0.285   5.720 -0.4101  0.2293 -0.1460
13646SOL    HW242946   2.192   0.364   5.631  0.5142 -0.0876 -1.4282
13647SOL     OW42947   9.013   2.202   2.338 -0.0289 -0.1585  0.5380
13647SOL    HW142948   9.052   2.199   2.251 -2.6471 -2.7169 -0.7349
13647SOL    HW242949   9.026   2.114   2.373  0.7513  0.7427  2.7273
13648SOL     OW42950   6.792   1.649   2.504 -0.6164 -0.1265 -0.2388
13648SOL    HW142951   6.801   1.645   2.409  1.1208 -2.3821 -0.0605
13648SOL    HW242952   6.877   1.622   2.538 -1.2627  0.3799  1.9883
13649SOL     OW42953   1.914   6.533  10.075  0.7712  0.4436  0.3805
13649SOL    HW142954   1.978   6.564  10.138  0.0929  2.0898  0.3059
13649SOL    HW242955   1.950   6.559   9.990  1.2720 -1.0195  0.1060
13650SOL     OW42956   8.729   4.849   7.131  0.2715  0.5998 -0.6773
13650SOL    HW142957   8.688   4.774   7.175  0.3701  0.6054 -0.5742
13650SOL    HW242958   8.796   4.879   7.193 -0.8444  1.7937 -0.0063
13651SOL     OW42959   8.510   6.517  10.622 -0.3263  0.1937  0.0444
13651SOL    HW142960   8.459   6.592  10.654  0.2818 -0.1976  2.0716
13651SOL    HW242961   8.564   6.492  10.697  1.4450 -0.6077 -1.4487
13652SOL     OW42962   7.646   6.832   8.892 -0.8209 -0.2727  0.1165
13652SOL    HW142963   7.626   6.747   8.930 -0.1992 -0.3903  0.1866
13652SOL    HW242964   7.644   6.818   8.797  0.2905 -0.6160  0.1273
13653SOL     OW42965   3.781   4.082   7.212 -0.5411 -0.6004 -0.5081
13653SOL    HW142966   3.746   4.047   7.130 -0.1120  2.3550 -2.1226
13653SOL    HW242967   3.708   4.079   7.273 -1.5084 -0.9783 -1.6453
13654SOL     OW42968   6.534   1.650   1.133 -0.0135  0.1287 -0.0524
13654SOL    HW142969   6.625   1.625   1.150 -0.5501 -0.6361  2.0347
13654SOL    HW242970   6.538   1.742   1.107  1.4119 -0.1498 -0.9331
13655SOL     OW42971   4.318   9.459  10.363  0.1889 -0.5309 -0.5179
13655SOL    HW142972   4.337   9.540  10.315 -0.6513 -0.0544 -0.0714
13655SOL    HW242973   4.240   9.424  10.321  0.0643 -0.6683 -0.1726
13656SOL     OW42974   4.507   7.719   7.157 -0.3210 -0.2396  0.3087
13656SOL    HW142975   4.541   7.640   7.199  0.0819  1.4677  3.4791
13656SOL    HW242976   4.498   7.782   7.228 -2.1914  2.0875 -1.8224
13657SOL     OW42977   8.845   3.887   7.979 -0.0442 -0.3736  0.1634
13657SOL    HW142978   8.769   3.831   7.969 -0.4519  0.0115  0.9806
13657SOL    HW242979   8.915   3.829   8.010 -0.3165 -0.5221  0.4948
13658SOL     OW42980   4.869   7.555   7.045  0.7603 -0.3608  0.7846
13658SOL    HW142981   4.914   7.614   6.985 -1.0952  0.0029 -0.3315
13658SOL    HW242982   4.844   7.610   7.119 -0.0996  0.0792  0.1957
13659SOL     OW42983   4.732   9.219   0.909  0.6327  0.2960 -0.0437
13659SOL    HW142984   4.655   9.185   0.863  2.9563 -2.1063 -2.5121
13659SOL    HW242985   4.722   9.187   0.998 -1.1970  0.0330 -0.3018
13660SOL     OW42986   3.186   2.312   3.421  0.5333  0.6895  0.3280
13660SOL    HW142987   3.263   2.356   3.455  1.9700 -1.2241 -0.2534
13660SOL    HW242988   3.155   2.368   3.350 -0.8214  3.2798  2.7470
13661SOL     OW42989   7.044   0.101   3.635 -0.0473  0.5804  0.2459
13661SOL    HW142990   7.140   0.091   3.637  0.3397  2.3983 -2.5707
13661SOL    HW242991   7.013   0.020   3.596  0.2399 -0.2795  1.7405
13662SOL     OW42992   5.852   6.784   1.705 -0.8171  0.2849  0.4823
13662SOL    HW142993   5.920   6.751   1.763 -1.9235  1.4564  2.5844
13662SOL    HW242994   5.796   6.708   1.686  1.2181 -0.8113 -1.6948
13663SOL     OW42995   4.837   8.795   3.115 -0.1689 -0.6069  0.2701
13663SOL    HW142996   4.796   8.878   3.137 -1.8416 -1.6655  1.3393
13663SOL    HW242997   4.808   8.735   3.183  0.9640 -2.0844 -0.4975
13664SOL     OW42998   3.788   7.899   2.301  0.4783 -0.0612  0.0810
13664SOL    HW142999   3.693   7.895   2.296  0.3890 -0.2637  1.4831
13664SOL    HW243000   3.818   7.837   2.235 -0.3787 -0.6096  0.1951
13665SOL     OW43001   2.743   4.666  10.419 -0.7917  0.0135 -0.6482
13665SOL    HW143002   2.772   4.753  10.446  1.6605 -0.9244  0.0336
13665SOL    HW243003   2.687   4.636  10.491  0.6137 -0.0230  0.4616
13666SOL     OW43004   4.776   8.417   0.082  0.1906 -0.3350 -1.2450
13666SOL    HW143005   4.806   8.373   0.003  0.2122 -1.5754 -0.5766
13666SOL    HW243006   4.717   8.353   0.124 -1.5142  1.1120 -1.3229
13667SOL     OW43007   2.038   5.738   1.760 -0.1041 -0.5153 -0.4876
13667SOL    HW143008   1.978   5.740   1.835 -0.7715  1.4143 -1.0049
13667SOL    HW243009   2.032   5.648   1.726  0.2491 -1.4415  1.7488
13668SOL     OW43010   3.102   9.042  10.008 -0.0252 -0.2986  0.4898
13668SOL    HW143011   3.119   8.948  10.008 -2.2908 -0.7785 -0.4229
13668SOL    HW243012   3.148   9.075   9.931 -0.1109 -0.8662  0.1896
13669SOL     OW43013   3.442   4.125   4.844 -0.2515 -0.6470 -0.1710
13669SOL    HW143014   3.362   4.170   4.869 -1.2485 -3.0481  1.2506
13669SOL    HW243015   3.442   4.126   4.748 -0.5240  1.7418 -0.1838
13670SOL     OW43016   5.020  10.394   2.548  0.7334 -0.0093  0.0347
13670SOL    HW143017   5.056  10.483   2.559  0.1505  0.2359 -0.0181
13670SOL    HW243018   5.013  10.384   2.453  2.0480 -0.6222 -0.0164
13671SOL     OW43019   1.878   5.740   9.276  0.2828  0.2835 -0.4390
13671SOL    HW143020   1.825   5.671   9.316  2.1052 -1.0619 -0.1996
13671SOL    HW243021   1.885   5.807   9.344 -1.2952  0.6257 -0.5766
13672SOL     OW43022  10.153   9.534   8.277  0.1742  0.7855 -0.1305
13672SOL    HW143023  10.196   9.456   8.240 -1.2962 -0.3938  0.5646
13672SOL    HW243024  10.176   9.604   8.216 -1.0654 -0.8132 -2.5898
13673SOL     OW43025  10.164   6.927   8.437 -0.4950 -0.0831 -0.5479
13673SOL    HW143026  10.226   6.870   8.391  0.4993  1.1770 -0.8102
13673SOL    HW243027  10.201   6.938   8.524 -1.8378 -1.6003  0.2727
13674SOL     OW43028   2.339   4.661   5.373 -0.1150  0.3703 -0.1252
13674SOL    HW143029   2.434   4.651   5.368  0.0714  1.8910 -0.0943
13674SOL    HW243030   2.322   4.684   5.465 -0.3967  1.0482 -0.3403
13675SOL     OW43031   8.769   7.924   6.135 -0.5039 -0.2182  0.1014
13675SOL    HW143032   8.797   7.956   6.049  0.8721  2.6797  1.5123
13675SOL    HW243033   8.839   7.865   6.162  0.3871  0.9258  0.3235
13676SOL     OW43034   3.595   9.570   4.621 -0.4176 -0.2857 -0.7562
13676SOL    HW143035   3.645   9.496   4.655  1.1399  1.6268  1.3452
13676SOL    HW243036   3.504   9.550   4.643  0.3615  0.2982  3.8193
13677SOL     OW43037   0.078   1.888   7.348  0.0603  0.2103  0.0476
13677SOL    HW143038   0.129   1.814   7.381  0.2498 -0.1025 -0.9308
13677SOL    HW243039   0.128   1.921   7.273  0.6112  2.1064  1.1555
13678SOL     OW43040   3.080   7.970   4.088 -0.0929 -0.2963  0.8689
13678SOL    HW143041   3.065   8.056   4.126  0.1538  0.5483 -0.8474
13678SOL    HW243042   3.175   7.957   4.096 -0.3045 -1.1192  2.4898
13679SOL     OW43043  11.024   7.403   1.593 -0.0440 -0.0900 -0.0713
13679SOL    HW143044  10.940   7.370   1.623 -1.2257  0.6120 -2.3231
13679SOL    HW243045  11.001   7.471   1.529  2.2191 -0.2069 -1.1153
13680SOL     OW43046  10.796   4.776   2.118  0.5912  0.5976  0.7220
13680SOL    HW143047  10.794   4.703   2.056  2.0451  0.5934  0.6496
13680SOL    HW243048  10.842   4.742   2.195 -1.4259  0.5241  1.9654
13681SOL     OW43049   6.031   5.748   7.934 -0.4032  0.0706 -0.4935
13681SOL    HW143050   5.947   5.785   7.959 -1.8364 -2.4546 -1.1694
13681SOL    HW243051   6.095   5.816   7.953 -2.6692  2.3730 -0.6677
13682SOL     OW43052   0.746   2.492   3.245 -0.4347 -0.6625  0.7603
13682SOL    HW143053   0.665   2.518   3.201  0.3139  3.2566  1.3375
13682SOL    HW243054   0.814   2.507   3.179  0.2239  0.8323  1.7284
13683SOL     OW43055   1.801   4.864   1.361 -0.1589  0.0803 -0.4127
13683SOL    HW143056   1.733   4.925   1.387  0.0847 -0.4844  1.6861
13683SOL    HW243057   1.755   4.781   1.344 -0.3200  0.4477 -1.9622
13684SOL     OW43058   1.977   1.706   2.891 -0.1088  0.1236  0.5573
13684SOL    HW143059   2.035   1.669   2.957  1.9798  1.0272 -0.6856
13684SOL    HW243060   2.026   1.778   2.852 -2.4604  1.5946  0.0903
13685SOL     OW43061  10.671   3.647   6.778  0.0382  0.3460  0.0549
13685SOL    HW143062  10.666   3.557   6.810 -1.0835  0.1885 -0.5213
13685SOL    HW243063  10.655   3.640   6.684  1.0428  1.0460 -0.1833
13686SOL     OW43064   5.879   2.653   5.065  0.7247  0.2238 -0.3975
13686SOL    HW143065   5.929   2.644   5.145 -0.2700  2.5389  0.5839
13686SOL    HW243066   5.824   2.574   5.061 -0.2061  0.6786  1.9761
13687SOL     OW43067   8.919   3.316   8.645  0.7150 -0.4027  0.0854
13687SOL    HW143068   8.983   3.303   8.715  1.7817  0.0378 -0.7867
13687SOL    HW243069   8.948   3.394   8.599 -1.5896  1.0236  0.8607
13688SOL     OW43070   8.269   9.912   4.003 -0.0597 -0.0690 -0.1947
13688SOL    HW143071   8.233   9.993   4.041  1.9629  0.7702  0.0772
13688SOL    HW243072   8.200   9.879   3.947 -1.3239  1.3168  0.4708
13689SOL     OW43073   8.727   0.258   0.825  0.3777  0.1801 -0.1737
13689SOL    HW143074   8.781   0.288   0.752  1.2949 -0.2058  0.3309
13689SOL    HW243075   8.775   0.183   0.862 -2.3345 -2.7426 -2.0645
13690SOL     OW43076   4.252   2.449   6.221  0.0853 -0.3035  0.0005
13690SOL    HW143077   4.163   2.464   6.188 -0.0800 -1.8098 -0.3271
13690SOL    HW243078   4.283   2.535   6.249 -1.8582  0.1032  1.0846
13691SOL     OW43079   0.603   3.678   3.567 -0.0743 -0.0382  0.1532
13691SOL    HW143080   0.686   3.635   3.548  0.4471  0.6069  0.8709
13691SOL    HW243081   0.591   3.666   3.661 -1.1931 -0.7901 -0.0677
13692SOL     OW43082   9.340   9.169   0.258 -0.6026  0.5677 -0.0805
13692SOL    HW143083   9.336   9.263   0.277 -1.6316  0.4658  0.2627
13692SOL    HW243084   9.266   9.131   0.305  2.0230 -1.0549  3.2059
13693SOL     OW43085   2.078   0.865   3.546  0.0649  0.4487  0.0027
13693SOL    HW143086   2.022   0.943   3.541 -1.5224 -0.5265  1.6371
13693SOL    HW243087   2.031   0.798   3.496  0.3400 -0.0475  0.3996
13694SOL     OW43088   1.958   7.640   6.271  0.3175 -0.0190  0.0481
13694SOL    HW143089   2.000   7.555   6.257  1.5458  0.4932  0.5070
13694SOL    HW243090   1.906   7.654   6.192 -0.9018 -1.7423  0.4804
13695SOL     OW43091   6.237   1.913   1.196 -0.5146  0.3760 -0.1987
13695SOL    HW143092   6.203   1.864   1.121 -0.5027 -0.9172  0.6102
13695SOL    HW243093   6.239   2.004   1.166 -4.2236  0.4994 -0.4949
13696SOL     OW43094   3.198   6.324  10.435  0.7843 -0.0509 -0.4348
13696SOL    HW143095   3.127   6.317  10.372 -0.6012 -1.7533  1.1978
13696SOL    HW243096   3.166   6.388  10.499  0.4445 -1.2065  0.5848
13697SOL     OW43097   6.096   9.223   9.019 -0.8337 -0.6286  0.4198
13697SOL    HW143098   6.084   9.132   8.991  2.0843 -0.9825  0.0052
13697SOL    HW243099   6.157   9.217   9.093  0.3689  1.0364 -0.3738
13698SOL     OW43100   9.493  10.013   4.482  0.6766 -0.0660  0.1954
13698SOL    HW143101   9.456  10.101   4.476  0.3646 -0.3006 -2.1925
13698SOL    HW243102   9.447   9.963   4.415  0.7733 -2.1105  1.5721
13699SOL     OW43103   4.082   2.629   5.436 -0.6970 -0.3125  0.7223
13699SOL    HW143104   4.147   2.685   5.479 -0.7917  1.1043 -0.8797
13699SOL    HW243105   4.109   2.540   5.458  0.8784  0.2883  1.3637
13700SOL     OW43106   4.805   1.315   1.908 -0.2450 -0.3555  0.0373
13700SOL    HW143107   4.893   1.344   1.930 -0.8868  2.4070 -0.6156
13700SOL    HW243108   4.791   1.236   1.961  2.3813 -0.5669  0.5367
13701SOL     OW43109   6.692  10.112   2.018  0.8330  0.0186  0.1539
13701SOL    HW143110   6.742  10.031   2.011  0.2906 -0.2359 -1.0439
13701SOL    HW243111   6.705  10.156   1.934  0.4559  0.7852  0.4816
13702SOL     OW43112   3.452  10.642   0.717 -0.3118 -0.0336 -0.1850
13702SOL    HW143113   3.450  10.720   0.772 -0.9469 -0.7922  0.9092
13702SOL    HW243114   3.526  10.656   0.658 -0.7587  1.6347 -0.3900
13703SOL     OW43115   9.869   5.360   7.347 -0.3460 -0.4312  0.1199
13703SOL    HW143116   9.923   5.391   7.419 -1.6230 -0.8426  1.2879
13703SOL    HW243117   9.823   5.437   7.316 -1.2007 -0.5832  0.9902
13704SOL     OW43118   8.907   5.459   1.830  0.0175  0.3007  0.0193
13704SOL    HW143119   8.961   5.536   1.850 -2.1518  1.9191  0.0510
13704SOL    HW243120   8.822   5.479   1.869 -0.7016 -2.0305 -0.2229
13705SOL     OW43121   4.213   1.487   8.864  0.1280  0.0537  0.5813
13705SOL    HW143122   4.195   1.449   8.950 -0.8662  2.4034  1.4714
13705SOL    HW243123   4.128   1.489   8.821  0.6332 -1.1811 -0.5403
13706SOL     OW43124   8.902   3.464  10.513 -0.5482  0.1840 -0.8868
13706SOL    HW143125   8.872   3.438  10.600  0.7078  0.4631 -0.3448
13706SOL    HW243126   8.838   3.530  10.484  0.4550  2.1311  1.0056
13707SOL     OW43127  10.069   3.618   3.033  0.0634 -0.0054 -0.2238
13707SOL    HW143128   9.979   3.642   3.010  0.5372  1.1530 -0.9405
13707SOL    HW243129  10.117   3.700   3.032  1.1484 -0.6152  0.1161
13708SOL     OW43130   7.728  10.537   9.834  0.1132  0.1112 -0.5012
13708SOL    HW143131   7.715  10.605   9.769 -0.3972  0.0937 -0.4256
13708SOL    HW243132   7.821  10.543   9.858 -0.1016  1.3119  0.0994
13709SOL     OW43133   8.067   8.530   7.310 -0.8753  0.2011 -0.2841
13709SOL    HW143134   8.022   8.548   7.228 -0.7688  1.5314 -0.0637
13709SOL    HW243135   8.158   8.516   7.285 -0.9623 -0.0899 -0.4530
13710SOL     OW43136   8.743   8.605   4.429 -0.0417 -0.0512  0.0748
13710SOL    HW143137   8.770   8.560   4.509 -1.1621  0.7161  0.9146
13710SOL    HW243138   8.695   8.681   4.460 -0.1693  0.4653 -1.3429
13711SOL     OW43139   2.051   8.555   0.881 -0.3471 -0.4765 -0.2855
13711SOL    HW143140   1.967   8.602   0.876 -1.7512 -2.6645  0.8851
13711SOL    HW243141   2.057   8.510   0.797 -0.0049  0.1651 -0.6141
13712SOL     OW43142   0.831   9.950  10.511 -0.8456  0.5528 -0.2485
13712SOL    HW143143   0.739   9.973  10.497 -1.5547 -1.3413  0.9137
13712SOL    HW243144   0.850   9.983  10.599  0.0937  2.2542 -1.0382
13713SOL     OW43145   5.016   5.013   4.861  0.4526 -0.5229 -0.2137
13713SOL    HW143146   4.984   4.936   4.814 -0.9802 -0.2688  0.3011
13713SOL    HW243147   4.941   5.044   4.911  1.9965 -1.0091  2.5888
13714SOL     OW43148   5.495   1.409   3.959 -0.0674 -0.4626 -0.1515
13714SOL    HW143149   5.542   1.454   3.888 -0.3640 -0.8485 -0.5957
13714SOL    HW243150   5.501   1.470   4.033 -2.2235  1.3113 -1.3024
13715SOL     OW43151  10.713   1.770  10.459 -0.5202  0.2685  0.3119
13715SOL    HW143152  10.769   1.831  10.506 -1.0831  0.4004  0.8107
13715SOL    HW243153  10.644   1.747  10.521 -0.5219 -0.5856  0.0038
13716SOL     OW43154   2.597   0.880   9.280  0.6369  0.1243  0.4007
13716SOL    HW143155   2.525   0.916   9.228  0.3188 -1.7303 -0.5003
13716SOL    HW243156   2.674   0.926   9.249  0.3573 -0.4964 -1.2928
13717SOL     OW43157   5.760   8.062   1.222  0.2048 -0.4949  0.7007
13717SOL    HW143158   5.833   8.057   1.284 -0.1497 -0.5201  1.1258
13717SOL    HW243159   5.802   8.062   1.136  0.6969 -0.7306  0.9305
13718SOL     OW43160   5.478   7.766   0.660  0.3824  0.7411  0.4176
13718SOL    HW143161   5.465   7.719   0.577  0.6400  0.6068  0.4522
13718SOL    HW243162   5.472   7.858   0.636 -0.5349  0.6897  0.4173
13719SOL     OW43163   3.970   4.848   0.850 -0.4951  0.4077 -0.2674
13719SOL    HW143164   4.059   4.813   0.851  1.0484  3.8710 -1.6760
13719SOL    HW243165   3.918   4.781   0.805  0.5861 -3.0486  3.0867
13720SOL     OW43166   7.275   5.822   5.667 -0.5675  0.4184  0.0471
13720SOL    HW143167   7.269   5.857   5.755 -2.0763  1.7919 -0.5506
13720SOL    HW243168   7.343   5.874   5.624  1.1347 -1.1274  0.7148
13721SOL     OW43169   6.478   1.360   9.365 -0.2468 -0.4286  0.0366
13721SOL    HW143170   6.559   1.319   9.336 -0.3203 -0.7272  0.2533
13721SOL    HW243171   6.409   1.309   9.322 -0.3810 -1.2329  1.1684
13722SOL     OW43172   0.325   4.045   6.149  0.0046  0.5496 -0.0676
13722SOL    HW143173   0.324   3.963   6.197  0.2816  1.2840  1.2437
13722SOL    HW243174   0.318   4.113   6.216 -1.7445  1.5840 -1.1918
13723SOL     OW43175  10.542   8.863   8.616 -0.3412 -0.1523 -0.5842
13723SOL    HW143176  10.526   8.958   8.614 -0.7889 -0.2148 -0.2302
13723SOL    HW243177  10.615   8.852   8.676 -0.7000 -0.0817 -0.1323
13724SOL     OW43178   2.478   4.403   4.981 -0.6754 -0.2443  0.1161
13724SOL    HW143179   2.449   4.441   4.898 -3.1246  0.4867  1.2109
13724SOL    HW243180   2.448   4.464   5.048 -2.0407 -2.5466  1.7772
13725SOL     OW43181   8.829   0.665   9.997  0.1816 -0.2483 -0.4549
13725SOL    HW143182   8.829   0.759  10.016 -1.5849 -0.3192  0.0859
13725SOL    HW243183   8.762   0.654   9.930  1.2282 -0.9855 -1.4114
13726SOL     OW43184   0.721   2.909   2.473  0.1087 -0.3378  0.4703
13726SOL    HW143185   0.698   2.819   2.499 -2.5709  0.3981  0.9264
13726SOL    HW243186   0.734   2.904   2.378 -0.3733 -1.1320  0.4384
13727SOL     OW43187   2.020   2.014  10.757 -0.1381  0.1977 -0.4470
13727SOL    HW143188   1.977   1.930  10.772 -1.9107  0.4771 -3.1424
13727SOL    HW243189   2.063   2.004  10.672  0.8576  1.5698 -0.1487
13728SOL     OW43190   9.008   2.468   1.269  0.0557 -0.3795 -0.3487
13728SOL    HW143191   8.922   2.432   1.249  0.2429 -1.3041  0.4522
13728SOL    HW243192   8.999   2.505   1.357  0.0102  1.0995 -0.9534
13729SOL     OW43193   2.195   9.680   9.527  1.0249 -0.1517 -0.1589
13729SOL    HW143194   2.255   9.754   9.525  0.3090  0.5228  1.7083
13729SOL    HW243195   2.108   9.719   9.535  0.2792 -1.1186 -2.5076
13730SOL     OW43196   3.078   8.575   6.365  0.0503  0.0873  0.5924
13730SOL    HW143197   3.031   8.625   6.298  1.5198 -0.3016 -0.7983
13730SOL    HW243198   3.071   8.629   6.444 -3.2722 -0.2932  0.6912
13731SOL     OW43199   4.370   7.574   4.778 -0.5429  0.3621  0.0990
13731SOL    HW143200   4.337   7.525   4.702  0.8373  0.2808 -0.4839
13731SOL    HW243201   4.413   7.651   4.740 -0.9211  0.9726  0.8830
13732SOL     OW43202   9.013   6.359   8.127  0.6249 -0.1673 -0.0211
13732SOL    HW143203   8.943   6.323   8.073 -0.9389  1.6919  0.6417
13732SOL    HW243204   9.059   6.283   8.161  0.7257 -1.4112 -2.7186
13733SOL     OW43205   6.105   3.161   3.392  0.2436 -0.4860  0.0549
13733SOL    HW143206   6.023   3.208   3.412  0.3725 -0.2606  0.0633
13733SOL    HW243207   6.092   3.128   3.303  0.0456 -0.6625  0.1510
13734SOL     OW43208   0.329  10.247   0.518 -0.2328 -0.0077  0.2810
13734SOL    HW143209   0.281  10.164   0.517  2.3295 -1.6093  0.6911
13734SOL    HW243210   0.344  10.264   0.611  1.1925 -0.3378  0.1324
13735SOL     OW43211   9.361   3.746   9.489  0.4402 -0.5977 -1.2179
13735SOL    HW143212   9.420   3.817   9.462 -1.3378  0.7664 -1.7172
13735SOL    HW243213   9.294   3.790   9.541 -0.3596 -2.0325 -1.0070
13736SOL     OW43214   9.728   1.687   9.086  1.1552  0.2755  0.8460
13736SOL    HW143215   9.640   1.716   9.061  1.4327  0.6763  0.3267
13736SOL    HW243216   9.716   1.595   9.110  0.9665 -0.3717 -1.4345
13737SOL     OW43217   1.618   7.813   5.900 -0.0752  0.2395 -0.0217
13737SOL    HW143218   1.530   7.825   5.936  0.1644  0.9706  0.3378
13737SOL    HW243219   1.634   7.893   5.850  1.4813  1.4449  2.2196
13738SOL     OW43220   8.272   6.104   6.360  0.4448 -0.0286 -0.3063
13738SOL    HW143221   8.335   6.143   6.300  0.6947  1.2325  0.7108
13738SOL    HW243222   8.301   6.014   6.370  0.7658 -0.0834 -1.5607
13739SOL     OW43223   8.936   0.534   6.672  0.2896  0.3814 -0.1841
13739SOL    HW143224   8.847   0.512   6.641 -0.2364  2.5366 -0.3607
13739SOL    HW243225   8.976   0.580   6.599  0.6448  1.6096  0.7479
13740SOL     OW43226   1.586   4.447   4.172 -0.5106  0.3499  0.6998
13740SOL    HW143227   1.673   4.417   4.198 -0.4929 -0.4377 -0.2032
13740SOL    HW243228   1.595   4.542   4.160  0.3536  0.2076  0.1501
13741SOL     OW43229   7.349   3.178   9.210  0.2339 -0.1387  0.4016
13741SOL    HW143230   7.323   3.145   9.296 -1.0014  0.5275  0.3076
13741SOL    HW243231   7.411   3.113   9.178  2.1879  0.5464  2.5546
13742SOL     OW43232   9.621   5.183   7.616 -0.5806  0.4246 -0.0248
13742SOL    HW143233   9.688   5.157   7.554 -0.9047 -0.8660  0.1340
13742SOL    HW243234   9.668   5.233   7.683  0.4627 -1.4013  0.6867
13743SOL     OW43235   4.847   6.412   9.431 -0.1138 -0.8068  0.3331
13743SOL    HW143236   4.918   6.382   9.488  1.6717  0.4318 -1.1262
13743SOL    HW243237   4.792   6.466   9.487  0.3571 -1.3820  1.3811
13744SOL     OW43238   4.181   8.117  10.610  0.0337  0.1318 -0.8510
13744SOL    HW143239   4.172   8.198  10.559  0.8904  1.1765  0.6154
13744SOL    HW243240   4.091   8.086  10.622 -0.2970  0.8637 -1.4046
13745SOL     OW43241   5.520   0.208   4.567 -0.1492 -0.4058 -0.5804
13745SOL    HW143242   5.562   0.183   4.485  0.5635 -1.5655  0.1177
13745SOL    HW243243   5.593   0.226   4.626 -0.6375  1.8706 -0.5842
13746SOL     OW43244  10.311   7.900   1.400 -0.0347  0.3485  0.2762
13746SOL    HW143245  10.284   7.940   1.483 -2.5706  0.9927 -0.7647
13746SOL    HW243246  10.342   7.973   1.347  1.3028 -0.0216  0.5170
13747SOL     OW43247   5.723   4.974   7.193 -0.0947  0.0417 -0.6551
13747SOL    HW143248   5.751   5.066   7.195  1.1826 -0.3054 -1.4706
13747SOL    HW243249   5.629   4.978   7.178  0.0879  1.2252 -1.6944
13748SOL     OW43250   6.133  10.240   6.605  0.4874  0.4099  1.0354
13748SOL    HW143251   6.148  10.147   6.588  1.5406  0.9631 -1.4504
13748SOL    HW243252   6.038  10.251   6.599  0.4998 -0.1883 -0.7224
13749SOL     OW43253   9.852   2.132   0.338  0.0370 -0.3471  0.2018
13749SOL    HW143254   9.832   2.082   0.259 -0.6546  0.0004  0.1404
13749SOL    HW243255   9.792   2.207   0.334 -1.0018 -1.0475  1.7466
13750SOL     OW43256   5.278   5.821   7.245  0.3350  0.2978  1.1183
13750SOL    HW143257   5.267   5.774   7.162  0.4937 -0.2728  1.4233
13750SOL    HW243258   5.277   5.753   7.312  1.4663  0.6325  1.4968
13751SOL     OW43259   4.416   5.057   5.528  0.3312 -0.4516 -0.4483
13751SOL    HW143260   4.502   5.094   5.551 -0.2721 -0.0523  1.3120
13751SOL    HW243261   4.421   5.043   5.434  2.0884  0.2108 -0.4979
13752SOL     OW43262   7.701   7.922   2.069  0.3649  0.4902  0.1644
13752SOL    HW143263   7.677   7.846   2.121  1.7220  0.5946  0.9847
13752SOL    HW243264   7.640   7.991   2.097 -1.0144 -0.3116 -0.7396
13753SOL     OW43265   7.032   2.580   6.244  0.1925  0.4627  0.4035
13753SOL    HW143266   6.945   2.572   6.205 -0.5807  0.6536  1.9897
13753SOL    HW243267   7.080   2.504   6.212 -0.3853  0.6085 -0.8807
13754SOL     OW43268   0.707   9.565   4.062  1.1831  0.0684  0.0855
13754SOL    HW143269   0.618   9.528   4.062  0.9318  0.4654 -2.2364
13754SOL    HW243270   0.721   9.596   4.151 -0.5032 -1.1782  0.8331
13755SOL     OW43271   8.510   7.568   3.057 -0.1104  0.7143 -0.6200
13755SOL    HW143272   8.525   7.662   3.045 -1.7610  1.1295  0.2012
13755SOL    HW243273   8.445   7.546   2.989  0.4365  0.0995 -0.9550
13756SOL     OW43274   9.658   7.098  10.511 -0.5944 -0.1254 -0.6557
13756SOL    HW143275   9.627   7.075  10.599 -1.1376  0.3003 -0.7319
13756SOL    HW243276   9.657   7.015  10.463  1.2206 -0.6732  0.1673
13757SOL     OW43277   2.513   7.065   7.540 -0.2220  0.0007 -0.7767
13757SOL    HW143278   2.521   7.115   7.621  0.0116 -2.3313  0.7493
13757SOL    HW243279   2.603   7.060   7.506 -0.0641 -0.3099 -0.3233
13758SOL     OW43280   4.912   1.814   0.895 -0.2634  0.3292  0.3076
13758SOL    HW143281   4.873   1.848   0.814  1.1043 -0.8905 -0.9376
13758SOL    HW243282   4.973   1.883   0.922 -2.3087  1.7190  1.6096
13759SOL     OW43283   8.531   6.833   5.097  0.2862  0.0524  0.1005
13759SOL    HW143284   8.569   6.774   5.032 -1.2094 -1.1837  0.2885
13759SOL    HW243285   8.481   6.775   5.155 -1.0768  1.4716  0.4066
13760SOL     OW43286   1.921   7.954   0.964 -0.0983  0.4848  0.3639
13760SOL    HW143287   2.002   7.917   0.999 -1.9022 -2.2905  2.0807
13760SOL    HW243288   1.921   7.929   0.872  1.8076  2.2235 -0.1629
13761SOL     OW43289   1.387   4.159   9.807  0.7491  0.0113 -0.1800
13761SOL    HW143290   1.462   4.215   9.787 -0.7026  1.7133 -1.1547
13761SOL    HW243291   1.319   4.187   9.746 -1.1889 -0.4070  1.6686
13762SOL     OW43292   9.388   4.585   1.353  0.5844  1.2325 -0.1036
13762SOL    HW143293   9.468   4.546   1.318  0.2314 -0.2582  0.6692
13762SOL    HW243294   9.318   4.527   1.324  0.2483  0.0267  2.7572
13763SOL     OW43295   7.917   7.580   7.724  0.2702 -0.2541 -0.4579
13763SOL    HW143296   7.884   7.660   7.766 -1.6331 -0.6832 -1.0371
13763SOL    HW243297   7.838   7.536   7.692  1.3721 -1.8479 -1.0814
13764SOL     OW43298   7.110   7.207   5.971  0.1401  0.6392 -0.0878
13764SOL    HW143299   7.052   7.158   5.914 -0.7298  2.0407 -0.4567
13764SOL    HW243300   7.161   7.140   6.017 -0.2186 -0.5499 -1.3623
13765SOL     OW43301   4.624   3.782   8.700 -0.1282  0.5561 -0.4895
13765SOL    HW143302   4.709   3.824   8.714  0.0225  0.1575 -0.1889
13765SOL    HW243303   4.645   3.694   8.669 -0.4365  0.5594 -0.7095
13766SOL     OW43304   9.126  11.054   6.168  0.3556  0.3251 -0.9214
13766SOL    HW143305   9.200  11.032   6.111  0.5271 -0.1903 -0.5126
13766SOL    HW243306   9.106  11.146   6.148 -0.1490 -0.0752 -2.4292
13767SOL     OW43307   6.379   9.236   3.437 -0.5105 -0.1170 -0.0905
13767SOL    HW143308   6.446   9.170   3.456 -0.5464 -0.2557 -0.4426
13767SOL    HW243309   6.356   9.272   3.523 -0.0808 -0.1624  0.0454
13768SOL     OW43310   8.159   7.563   1.130 -0.0043  0.2808 -0.3266
13768SOL    HW143311   8.236   7.619   1.144 -0.3042  1.0333 -1.5751
13768SOL    HW243312   8.116   7.600   1.053 -1.9221  0.1900  0.6445
13769SOL     OW43313   5.340   8.217   9.560  0.0474 -0.1244  0.5442
13769SOL    HW143314   5.354   8.123   9.556  2.6125  0.2331 -0.7197
13769SOL    HW243315   5.417   8.251   9.606 -0.3372  1.4204  0.1145
13770SOL     OW43316   8.762   6.138   3.020  0.3691  0.3844  0.1856
13770SOL    HW143317   8.728   6.217   2.978  2.9639  0.7788 -1.3681
13770SOL    HW243318   8.751   6.155   3.114  0.9104  2.6557 -0.0970
13771SOL     OW43319   9.133   5.362   1.284 -0.1485 -0.5469 -0.0189
13771SOL    HW143320   9.106   5.369   1.375 -0.6318  1.7990 -0.2758
13771SOL    HW243321   9.226   5.383   1.285  0.2645 -2.2094  0.0849
13772SOL     OW43322   5.844   0.713   0.102 -0.2254 -0.7907  0.6385
13772SOL    HW143323   5.794   0.785   0.140 -0.7834 -1.0362  0.3938
13772SOL    HW243324   5.892   0.753   0.030  1.8630 -0.0546  2.3508
13773SOL     OW43325   6.267   1.795   4.902 -0.9726  0.4698 -0.3079
13773SOL    HW143326   6.332   1.853   4.862 -1.9909  1.3979 -0.6904
13773SOL    HW243327   6.295   1.707   4.878 -0.4183  0.9067 -1.3422
13774SOL     OW43328   0.714   6.533   6.231  0.0733 -0.1751  0.7857
13774SOL    HW143329   0.744   6.578   6.310 -0.1678 -0.4135  1.0154
13774SOL    HW243330   0.618   6.529   6.240  0.1251 -1.2168  1.0359
13775SOL     OW43331   2.171  10.294   4.228 -0.1643  0.5804 -0.2229
13775SOL    HW143332   2.220  10.280   4.310  0.3190  1.6167 -0.3278
13775SOL    HW243333   2.214  10.236   4.165  1.6584  2.2018 -0.5800
13776SOL     OW43334   0.815   3.534   7.100  0.6656  0.0723  0.7276
13776SOL    HW143335   0.889   3.486   7.063 -0.0582 -0.4700 -0.0371
13776SOL    HW243336   0.741   3.473   7.094 -0.2783  1.2768 -0.2692
13777SOL     OW43337   5.009   6.955   9.861  0.0765  0.5577 -0.2320
13777SOL    HW143338   4.948   6.957   9.935 -0.5854 -0.4949 -0.7307
13777SOL    HW243339   5.018   6.862   9.840 -0.1924  0.8662 -1.8222
13778SOL     OW43340   8.878   1.590   4.808 -0.3456  0.6518 -0.0749
13778SOL    HW143341   8.853   1.515   4.862 -1.5796  0.3412 -1.0192
13778SOL    HW243342   8.891   1.662   4.869  0.0978 -0.1436  0.7801
13779SOL     OW43343   4.028   9.670   9.523  0.0387  0.1910 -0.1293
13779SOL    HW143344   4.057   9.759   9.502  0.5464  0.4364  1.4149
13779SOL    HW243345   3.933   9.677   9.530  0.0357  0.5121 -0.4619
13780SOL     OW43346   2.939   1.646   3.552  0.2270  0.0433  0.2434
13780SOL    HW143347   2.863   1.604   3.592 -0.1140  0.3123 -0.1108
13780SOL    HW243348   2.972   1.582   3.489 -0.1708  0.2157 -0.1501
13781SOL     OW43349   8.730  10.348   7.863 -0.0118  0.6821 -0.9392
13781SOL    HW143350   8.765  10.321   7.948 -0.2307  0.2597 -0.9800
13781SOL    HW243351   8.758  10.439   7.853 -3.5093  2.2248  1.4733
13782SOL     OW43352   0.504   2.492   0.111 -0.2987 -0.7889  0.6576
13782SOL    HW143353   0.426   2.448   0.144 -2.1043  1.3668 -0.4578
13782SOL    HW243354   0.561   2.501   0.188 -0.6056 -3.3463  1.2749
13783SOL     OW43355   2.346   7.889   5.954  0.3231  0.3200 -0.0482
13783SOL    HW143356   2.440   7.889   5.971  0.3233 -1.4075  0.0845
13783SOL    HW243357   2.329   7.804   5.913 -0.9016  1.3083 -1.7127
13784SOL     OW43358   6.196   9.081   1.354 -0.8580 -0.0349 -0.0920
13784SOL    HW143359   6.101   9.090   1.343 -0.6044  0.3194 -2.5527
13784SOL    HW243360   6.226   9.169   1.375 -1.0903 -0.2081  1.0106
13785SOL     OW43361   2.727   8.992   1.413 -0.4599  0.0334  0.6197
13785SOL    HW143362   2.814   8.974   1.447 -0.1379 -0.4091 -0.3783
13785SOL    HW243363   2.673   9.010   1.490  0.1637 -1.1857  1.3769
13786SOL     OW43364  10.106   2.512   8.434 -0.7249 -0.3976  0.3956
13786SOL    HW143365  10.054   2.591   8.426  1.8378  1.2548 -1.6715
13786SOL    HW243366  10.114   2.498   8.528  0.3594  3.0612  0.9678
13787SOL     OW43367  10.288   2.472   3.954  0.3843  0.4580  0.2052
13787SOL    HW143368  10.231   2.466   4.031  0.2670  1.8007  0.2503
13787SOL    HW243369  10.359   2.411   3.972  0.4945  0.9350  1.5002
13788SOL     OW43370   1.005   0.432  10.928 -0.5372 -0.2696 -0.0058
13788SOL    HW143371   1.011   0.421  11.023 -0.9553  1.2049  0.2251
13788SOL    HW243372   1.086   0.395  10.894  0.0705  0.0731  1.0246
13789SOL     OW43373   7.128   3.047  10.058  0.1450 -0.4129 -0.0019
13789SOL    HW143374   7.122   3.034  10.152  3.0790 -1.0302  0.1939
13789SOL    HW243375   7.150   3.140  10.047 -0.1456 -0.3523 -0.0692
13790SOL     OW43376   4.796   1.495   9.367  0.5972  0.3929  0.3252
13790SOL    HW143377   4.744   1.546   9.305 -1.2324 -1.1917  0.4701
13790SOL    HW243378   4.842   1.431   9.313  0.5257  0.2624  0.4187
13791SOL     OW43379   2.511   1.114   5.805  0.3785 -0.4359  0.2260
13791SOL    HW143380   2.546   1.181   5.747 -0.2934  0.3479  0.6983
13791SOL    HW243381   2.579   1.047   5.809  1.5620  0.7502  0.6618
13792SOL     OW43382   2.519   6.984  10.993 -0.2355 -0.5274  0.0062
13792SOL    HW143383   2.559   6.960  11.077  0.8516  0.9229 -0.0781
13792SOL    HW243384   2.483   7.071  11.008 -1.1279 -0.7619 -0.6940
13793SOL     OW43385   5.018   7.908  10.348  0.3190  0.9567  0.4168
13793SOL    HW143386   4.977   7.822  10.353 -0.2932  1.2835  1.4225
13793SOL    HW243387   5.065   7.908  10.265 -0.0276 -0.1876  0.2073
13794SOL     OW43388  10.629   0.551   1.064 -0.2016 -0.0026 -0.0160
13794SOL    HW143389  10.719   0.583   1.059 -0.0343 -0.5434 -0.5863
13794SOL    HW243390  10.631   0.485   1.133 -0.2853  0.3514  0.3334
13795SOL     OW43391   3.539   2.454   5.815 -0.1119  0.3137 -0.2067
13795SOL    HW143392   3.634   2.460   5.805 -0.2000  2.4352 -0.1497
13795SOL    HW243393   3.525   2.375   5.867  1.6215  0.0892 -0.0468
13796SOL     OW43394   3.706   7.676   8.405  0.4892 -0.3189 -0.7966
13796SOL    HW143395   3.618   7.693   8.370  0.0179 -0.4104  0.3101
13796SOL    HW243396   3.762   7.670   8.327 -0.2333  1.1187 -1.4623
13797SOL     OW43397   0.069   0.449  10.392  0.3076 -0.4188 -0.4427
13797SOL    HW143398  -0.026   0.455  10.389  0.1065 -1.3992  1.8770
13797SOL    HW243399   0.088   0.358  10.371  0.6013 -0.6102  0.6052
13798SOL     OW43400  10.362   1.673   6.832  0.3910 -0.3395  0.6943
13798SOL    HW143401  10.272   1.652   6.859  0.2286  0.3411  0.7121
13798SOL    HW243402  10.417   1.633   6.900 -0.0027  1.0566  1.8854
13799SOL     OW43403   8.992  10.225  10.513 -0.6179 -0.4463  0.2480
13799SOL    HW143404   8.975  10.146  10.563  1.1273 -0.0182  1.5988
13799SOL    HW243405   9.024  10.288  10.577  0.8266  0.4247 -1.2580
13800SOL     OW43406   2.935   8.792   4.488 -0.0464 -0.4787  0.3501
13800SOL    HW143407   3.012   8.738   4.470 -1.3793 -2.5858  0.6079
13800SOL    HW243408   2.937   8.806   4.583  0.7630  0.7469  0.1813
13801SOL     OW43409   8.104   2.958   9.880 -0.5022 -0.1005  0.1338
13801SOL    HW143410   8.014   2.929   9.891 -1.2251  1.1666 -1.9898
13801SOL    HW243411   8.134   2.916   9.800  0.0071  1.2464 -0.4163
13802SOL     OW43412  10.045   3.874   2.880  0.5933  0.4115  0.0607
13802SOL    HW143413   9.999   3.949   2.918 -0.0352  0.5977 -1.0099
13802SOL    HW243414  10.084   3.909   2.800  0.9987 -0.2164 -0.0233
13803SOL     OW43415   0.250   8.263   0.868  0.4372 -0.2004  0.6632
13803SOL    HW143416   0.312   8.314   0.920  2.4189 -1.2668 -0.5303
13803SOL    HW243417   0.165   8.282   0.907  1.1640  3.1997  0.8980
13804SOL     OW43418   2.032  10.382   9.859  0.5518 -0.2761 -0.8313
13804SOL    HW143419   2.001  10.295   9.885 -1.2838  0.4856 -0.2514
13804SOL    HW243420   1.974  10.407   9.787  0.5536  0.7693 -0.4856
13805SOL     OW43421   4.500   7.793   7.481 -0.1320  0.2694  0.2324
13805SOL    HW143422   4.457   7.836   7.555 -0.5779 -0.2929  0.3009
13805SOL    HW243423   4.500   7.859   7.412 -2.5902 -0.2252 -0.3240
13806SOL     OW43424   3.691   8.100  10.759 -0.0587 -0.1085 -0.1255
13806SOL    HW143425   3.623   8.038  10.734  0.0141  0.1732 -1.0615
13806SOL    HW243426   3.671   8.179  10.709  2.0779 -0.6502 -1.9958
13807SOL     OW43427   1.432   1.634   4.095 -0.5225  0.3524  0.2753
13807SOL    HW143428   1.355   1.593   4.133 -1.4810  1.8579  0.0450
13807SOL    HW243429   1.477   1.564   4.048 -1.1538 -0.7789  1.3114
13808SOL     OW43430   7.763   0.864  10.230 -0.0105  0.2082  0.5109
13808SOL    HW143431   7.759   0.801  10.302 -1.3265 -0.1999  0.1098
13808SOL    HW243432   7.673   0.871  10.199  0.4447  0.7864 -0.7529
13809SOL     OW43433   5.149   8.307   2.415  0.2290 -0.4566 -0.0702
13809SOL    HW143434   5.064   8.265   2.428 -0.2283  0.8544  1.4037
13809SOL    HW243435   5.128   8.392   2.377  0.9418 -0.3574 -0.2566
13810SOL     OW43436   8.235   3.419   6.752 -0.3629 -0.0546  0.2146
13810SOL    HW143437   8.292   3.355   6.795  0.7039 -0.4993 -1.7156
13810SOL    HW243438   8.225   3.385   6.663 -2.0278  1.0857 -0.0727
13811SOL     OW43439   0.120   8.761   6.880 -0.3773  0.1003  0.6221
13811SOL    HW143440   0.151   8.851   6.888 -0.7975  0.2420  0.7029
13811SOL    HW243441   0.196   8.711   6.848 -0.3204  0.6012 -0.0507
13812SOL     OW43442   2.346   5.929   8.753 -0.0058 -0.0168 -0.2999
13812SOL    HW143443   2.262   5.944   8.710 -0.1277 -2.3529 -1.0000
13812SOL    HW243444   2.325   5.921   8.846 -0.5065 -0.1776 -0.4232
13813SOL     OW43445   8.084   5.656   2.037  0.1637  0.3667  0.9240
13813SOL    HW143446   8.110   5.683   1.949 -0.2151 -2.0842 -0.0220
13813SOL    HW243447   8.075   5.738   2.086 -0.1896  1.8374 -1.4547
13814SOL     OW43448   0.070  10.825   7.055  0.1179 -0.6591  0.2173
13814SOL    HW143449   0.145  10.858   7.103  0.4957 -0.6592 -0.3636
13814SOL    HW243450   0.058  10.736   7.087  1.3783 -1.2343 -0.8460
13815SOL     OW43451   9.190   3.259  10.241  0.2930  0.7104 -0.0171
13815SOL    HW143452   9.101   3.241  10.270  0.1776 -1.9893 -1.6446
13815SOL    HW243453   9.243   3.191  10.282  0.5206 -1.5849 -3.6148
13816SOL     OW43454   6.423   5.408   8.236  0.3439 -0.4431 -0.4128
13816SOL    HW143455   6.386   5.493   8.260  0.2003 -0.6321  0.0401
13816SOL    HW243456   6.432   5.412   8.141 -0.5306 -0.2708 -0.4968
13817SOL     OW43457   9.385   6.097   2.801  0.1859 -0.4405 -0.2484
13817SOL    HW143458   9.349   6.073   2.886  1.4309 -0.2634  0.3515
13817SOL    HW243459   9.412   6.014   2.762  1.0913 -0.3905  0.2389
13818SOL     OW43460   8.080   7.064   9.922  0.4919  0.0720 -0.7525
13818SOL    HW143461   8.038   6.999   9.865  1.4350  0.0871 -1.4853
13818SOL    HW243462   8.052   7.040  10.010  1.9080 -2.1806 -0.8565
13819SOL     OW43463   9.637   7.330   5.176 -0.4316 -0.8162 -0.3069
13819SOL    HW143464   9.643   7.367   5.264  3.4515 -0.9143 -0.3405
13819SOL    HW243465   9.676   7.243   5.184 -0.0765 -0.8609 -2.0814
13820SOL     OW43466  10.905   6.043   4.207  0.5926 -0.3101  0.0102
13820SOL    HW143467  10.862   6.042   4.121 -1.7483 -1.2769  1.0832
13820SOL    HW243468  10.959   5.964   4.208 -0.9935 -1.4643  0.0869
13821SOL     OW43469   4.153   6.982   6.016  0.7522  0.0971 -0.2156
13821SOL    HW143470   4.235   6.984   6.066  0.1674  2.1053  0.8032
13821SOL    HW243471   4.089   6.945   6.076  0.5930  0.0078 -0.4392
13822SOL     OW43472   8.651   6.134   7.890  0.0855 -0.3493  0.5537
13822SOL    HW143473   8.728   6.142   7.945 -0.8558  0.6262  1.7792
13822SOL    HW243474   8.583   6.184   7.935 -0.0913  2.8238 -2.7629
13823SOL     OW43475   0.679   6.562   2.223 -0.1416 -0.3192  0.5070
13823SOL    HW143476   0.719   6.645   2.250 -0.1651 -0.2535  0.3429
13823SOL    HW243477   0.721   6.542   2.140  0.3907 -0.8474  0.9010
13824SOL     OW43478   1.440   7.423   3.011  0.2022 -0.8170 -0.1842
13824SOL    HW143479   1.519   7.455   2.968  0.6257 -1.8122 -0.1753
13824SOL    HW243480   1.448   7.454   3.102 -1.0686  1.9572 -0.9036
13825SOL     OW43481  10.360   9.414   5.492  0.4493  0.2521 -0.0060
13825SOL    HW143482  10.401   9.498   5.474 -1.6845  2.2554  3.3690
13825SOL    HW243483  10.426   9.365   5.542  1.8169 -0.3563 -2.2597
13826SOL     OW43484   5.218   9.505   9.593 -0.2648 -0.1501 -0.7809
13826SOL    HW143485   5.193   9.435   9.532  1.9355 -1.2760 -0.4886
13826SOL    HW243486   5.311   9.518   9.577 -0.5365  2.5443 -0.5698
13827SOL     OW43487  10.408  10.240   9.129  0.5907 -0.3199  0.8583
13827SOL    HW143488  10.413  10.334   9.112  2.4748 -0.1078  2.2726
13827SOL    HW243489  10.391  10.234   9.223  0.1690 -1.4077  0.7253
13828SOL     OW43490   5.310   1.069  10.947 -0.2185 -0.4246  0.5167
13828SOL    HW143491   5.318   1.074  11.042 -0.5246  1.1507  0.4840
13828SOL    HW243492   5.299   1.159  10.919  1.8527 -0.6247 -1.2143
13829SOL     OW43493   4.593   4.913   3.873  0.4284 -0.2840 -0.5898
13829SOL    HW143494   4.499   4.923   3.854  0.6467  1.2914 -0.9991
13829SOL    HW243495   4.602   4.823   3.903 -0.8546 -1.1920 -2.6877
13830SOL     OW43496   5.884   6.819   0.962  0.5276  0.0543  0.3918
13830SOL    HW143497   5.896   6.899   0.911  2.4216  0.6592  1.6628
13830SOL    HW243498   5.865   6.752   0.897  0.4446  1.2462 -0.8617
13831SOL     OW43499   0.524   7.646   9.586 -0.3421 -0.0042  0.0833
13831SOL    HW143500   0.554   7.631   9.496  2.4129  2.1698  0.5087
13831SOL    HW243501   0.474   7.728   9.581 -1.0212 -0.3811  0.4346
13832SOL     OW43502   4.565   9.734  10.494 -0.4833 -0.0245 -0.2873
13832SOL    HW143503   4.637   9.797  10.494 -1.8231  1.5746 -0.3891
13832SOL    HW243504   4.574   9.687  10.577  1.8575 -1.3101 -1.2087
13833SOL     OW43505   5.803   7.769   2.916  0.3869 -0.3813  0.0107
13833SOL    HW143506   5.749   7.714   2.858 -0.1873  1.1953 -0.9910
13833SOL    HW243507   5.785   7.734   3.004 -1.3518 -0.6657 -0.4197
13834SOL     OW43508  10.477   1.477   8.104 -0.0342 -0.2309  0.0675
13834SOL    HW143509  10.465   1.396   8.153  1.1351 -0.8335 -0.5890
13834SOL    HW243510  10.412   1.473   8.034 -0.5221 -0.2112  0.5186
13835SOL     OW43511   3.815   8.047   6.444  0.3489  0.4487 -1.0912
13835SOL    HW143512   3.836   8.035   6.351 -1.5089 -1.2516 -1.3533
13835SOL    HW243513   3.734   8.099   6.443 -0.9205 -1.4322 -0.5590
13836SOL     OW43514   2.569   2.024   1.366 -0.3569 -0.0615  0.6845
13836SOL    HW143515   2.559   2.079   1.288 -1.6307 -0.0980  0.7940
13836SOL    HW243516   2.586   1.936   1.330 -2.3196 -0.3573  0.3605
13837SOL     OW43517   3.663   1.286   9.227 -0.0440  0.1740 -0.0083
13837SOL    HW143518   3.642   1.199   9.263 -0.2595 -0.0877 -0.7481
13837SOL    HW243519   3.595   1.343   9.261 -0.6108 -0.1984 -0.5007
13838SOL     OW43520  10.862   9.683   3.509 -0.1329  0.0796  0.0607
13838SOL    HW143521  10.926   9.637   3.455 -0.4621  0.5009 -0.7129
13838SOL    HW243522  10.907   9.763   3.538  0.2079 -0.3796  0.8345
13839SOL     OW43523  10.556   1.266   3.454  0.0024 -0.2447 -0.5060
13839SOL    HW143524  10.538   1.234   3.542  3.1505 -1.1200 -0.0756
13839SOL    HW243525  10.567   1.361   3.465 -1.0501 -0.1444 -0.2479
13840SOL     OW43526  11.064  10.326   0.288  0.2597  0.2241  0.0693
13840SOL    HW143527  11.035  10.375   0.365 -0.3126  0.2450 -0.1476
13840SOL    HW243528  10.997  10.344   0.222  1.1327  0.7943 -0.6719
13841SOL     OW43529   8.410   7.443   7.267  0.5077 -0.2586 -0.6883
13841SOL    HW143530   8.504   7.436   7.248  0.9142  1.2060  0.6017
13841SOL    HW243531   8.405   7.501   7.343 -1.4850  0.1399 -1.0726
13842SOL     OW43532   7.958   4.306   2.691 -0.2544  0.3318  0.7970
13842SOL    HW143533   7.885   4.311   2.629  0.2655  0.0164  0.1494
13842SOL    HW243534   7.922   4.338   2.773 -1.6542 -1.5091  0.9708
13843SOL     OW43535   1.603   8.492   6.112 -0.1559 -0.2688 -0.1743
13843SOL    HW143536   1.639   8.495   6.201 -1.0170 -0.7853  0.1997
13843SOL    HW243537   1.674   8.527   6.057  1.1098 -1.7098  0.4707
13844SOL     OW43538   3.837   9.967   8.035  0.0813 -0.3297  0.8857
13844SOL    HW143539   3.801   9.906   7.971 -0.6286 -1.5307  2.3687
13844SOL    HW243540   3.905   9.917   8.080  1.2108  0.7942  0.4815
13845SOL     OW43541   2.917   0.603   1.728 -0.4453  0.0873  1.6162
13845SOL    HW143542   2.976   0.675   1.751 -0.0246  0.0520  0.6709
13845SOL    HW243543   2.964   0.524   1.756  0.4065 -0.0088  0.0082
13846SOL     OW43544  10.735   4.151   5.041  0.0571  0.6672 -0.1563
13846SOL    HW143545  10.718   4.155   4.947 -0.9968  1.0036  0.0412
13846SOL    HW243546  10.692   4.071   5.071  2.4914 -0.8128 -0.3490
13847SOL     OW43547   2.290   9.441   8.699  0.1585  0.6938  0.6008
13847SOL    HW143548   2.380   9.417   8.675 -1.3153 -1.4916 -3.7467
13847SOL    HW243549   2.283   9.533   8.673  0.8693  0.6154  0.1032
13848SOL     OW43550   1.841   0.808   6.567  0.2651 -0.0324  0.1068
13848SOL    HW143551   1.897   0.781   6.639  0.7239  1.1245  0.2128
13848SOL    HW243552   1.900   0.854   6.507 -0.5175  0.9943  0.1001
13849SOL     OW43553   7.624   2.592   0.394  0.3105  0.0448 -0.5232
13849SOL    HW143554   7.714   2.561   0.401 -0.1953 -1.2171  1.1429
13849SOL    HW243555   7.571   2.518   0.424 -1.0848  1.8795  1.8892
13850SOL     OW43556  10.930   3.832   8.497  0.1643 -0.2349 -0.0779
13850SOL    HW143557  10.917   3.739   8.514 -0.3154  0.2181  2.4109
13850SOL    HW243558  10.997   3.858   8.559  0.5636  1.0202 -1.0064
13851SOL     OW43559   1.805   6.433   5.040  0.6817 -0.4276 -0.1644
13851SOL    HW143560   1.845   6.516   5.067  0.1990 -0.5095  0.8604
13851SOL    HW243561   1.862   6.366   5.077  2.2771 -0.6382 -2.7590
13852SOL     OW43562   3.958   3.324   4.343  0.3862 -0.3624 -0.5981
13852SOL    HW143563   4.000   3.265   4.405 -0.4866  0.5640  0.9436
13852SOL    HW243564   3.893   3.270   4.297 -0.3587 -0.6508  0.7454
13853SOL     OW43565  10.998  10.402   3.520  0.0909 -0.3125  0.1777
13853SOL    HW143566  10.959  10.473   3.469 -0.9369 -1.5076 -0.7659
13853SOL    HW243567  11.087  10.431   3.538  0.1469  0.6096 -1.4267
13854SOL     OW43568   7.684   9.568   4.142 -0.1908 -0.3370  0.2426
13854SOL    HW143569   7.599   9.601   4.114 -1.2817 -2.3414  1.0260
13854SOL    HW243570   7.722   9.529   4.062 -0.2097  0.1226  0.0068
13855SOL     OW43571  10.084   2.696   9.871  0.2075  0.0181 -0.6618
13855SOL    HW143572  10.094   2.677   9.778  0.8252 -1.0087 -0.3966
13855SOL    HW243573  10.075   2.610   9.912  0.1918  0.4487  0.2547
13856SOL     OW43574   0.622   5.669   6.379  0.0806  0.7122  0.0709
13856SOL    HW143575   0.677   5.747   6.369 -1.2231  1.9563  1.9121
13856SOL    HW243576   0.553   5.680   6.314  1.3635 -0.3878 -1.5955
13857SOL     OW43577   6.826  10.628   5.416  0.1366 -0.1458  0.3754
13857SOL    HW143578   6.917  10.654   5.402  0.1514 -1.1286 -1.7780
13857SOL    HW243579   6.821  10.539   5.382 -1.6104 -0.1324  0.5086
13858SOL     OW43580   2.905   6.032   5.717 -0.3776  0.1347 -0.3353
13858SOL    HW143581   2.939   6.008   5.803 -0.9885 -0.7241 -0.3146
13858SOL    HW243582   2.892   6.127   5.722  3.5620  0.8821 -0.9347
13859SOL     OW43583   7.601   0.198   3.175  0.2607 -0.4524  0.0229
13859SOL    HW143584   7.663   0.157   3.115 -0.5668  0.0007 -1.1608
13859SOL    HW243585   7.516   0.188   3.133 -0.2506  0.4853  0.7922
13860SOL     OW43586   4.081   8.813   1.948  0.1691 -0.1954 -0.7197
13860SOL    HW143587   4.068   8.849   2.035 -0.8454  0.6823 -1.2221
13860SOL    HW243588   4.176   8.816   1.934  0.2467  0.6320 -0.0547
13861SOL     OW43589   7.198   1.456   5.346 -0.0456 -0.1203 -0.0790
13861SOL    HW143590   7.111   1.423   5.365  0.3567  0.2408  2.9089
13861SOL    HW243591   7.184   1.526   5.282 -1.9188 -0.1702  0.2280
13862SOL     OW43592   7.209   9.538   3.635  0.1860 -0.6592 -0.2231
13862SOL    HW143593   7.175   9.491   3.711 -0.1836  0.1591  0.1146
13862SOL    HW243594   7.303   9.547   3.653  0.2805 -1.3374 -0.3342
13863SOL     OW43595   4.250   8.548   9.904  0.2825  0.3229 -0.2668
13863SOL    HW143596   4.176   8.528   9.961 -1.5793 -1.5098 -3.0356
13863SOL    HW243597   4.299   8.466   9.900  0.4200  0.4418 -1.1768
13864SOL     OW43598   5.025   6.178  10.393  0.2943  0.2714 -0.4000
13864SOL    HW143599   4.949   6.127  10.368  0.0085  1.0524 -1.1983
13864SOL    HW243600   5.061   6.210  10.310  1.5708 -0.1927 -0.0450
13865SOL     OW43601   8.267   1.341   0.695  0.1775  0.8401  0.2512
13865SOL    HW143602   8.300   1.429   0.677 -2.3960  1.9627  0.6475
13865SOL    HW243603   8.322   1.310   0.767  1.8941  1.6006 -0.6568
13866SOL     OW43604   8.123   4.695   3.650  0.1533  0.1814 -0.1368
13866SOL    HW143605   8.032   4.698   3.680  0.0954  0.0291 -0.2995
13866SOL    HW243606   8.174   4.688   3.731  0.0404  0.5736 -0.0246
13867SOL     OW43607   6.448  10.531   1.219 -0.5609  0.2297 -0.3302
13867SOL    HW143608   6.376  10.468   1.225  0.9287 -1.5077  0.2377
13867SOL    HW243609   6.506  10.495   1.153  0.5324  0.7896  0.3052
13868SOL     OW43610   5.268   3.781   1.737 -1.0615 -1.1181 -0.0347
13868SOL    HW143611   5.185   3.784   1.784 -1.4313 -0.7341 -0.6965
13868SOL    HW243612   5.314   3.861   1.764 -1.4366 -0.7011 -0.6009
13869SOL     OW43613   0.114   3.272   7.833  0.3868 -0.2716 -0.3371
13869SOL    HW143614   0.149   3.280   7.922 -0.3678  0.7954 -0.1123
13869SOL    HW243615   0.153   3.192   7.799 -0.8637 -1.8240  1.6397
13870SOL     OW43616   8.007   1.056   4.823 -0.8071 -0.2600 -0.1889
13870SOL    HW143617   7.959   1.113   4.763 -0.5215 -0.4199 -0.5787
13870SOL    HW243618   8.055   0.997   4.765 -2.4685 -2.0829  0.1591
13871SOL     OW43619   9.612   0.325   5.140  0.1944  0.3110 -0.7406
13871SOL    HW143620   9.592   0.376   5.218  2.4653  0.6832 -0.3174
13871SOL    HW243621   9.556   0.248   5.146 -1.1328  1.3126  0.1585
13872SOL     OW43622   4.892   5.517   8.923  0.2550 -0.2552  0.2001
13872SOL    HW143623   4.940   5.547   9.000 -0.5255 -1.9554  1.4247
13872SOL    HW243624   4.863   5.428   8.946 -1.4931 -0.1577 -1.3808
13873SOL     OW43625   8.566   6.808   7.091 -0.1888  0.5016  0.2127
13873SOL    HW143626   8.573   6.815   7.186 -0.9834  0.4629  0.2843
13873SOL    HW243627   8.553   6.898   7.061 -0.4072  0.4651  0.1922
13874SOL     OW43628   0.374   6.745  10.915 -0.4745  0.7101  0.3691
13874SOL    HW143629   0.397   6.688  10.988  1.2491  1.4264  0.4320
13874SOL    HW243630   0.280   6.733  10.903 -0.1855 -2.0718  0.4171
13875SOL     OW43631   8.059   5.321   1.690 -0.1000  0.4798 -0.2113
13875SOL    HW143632   7.965   5.327   1.707 -0.1844  0.8586 -0.7779
13875SOL    HW243633   8.093   5.268   1.762 -1.0741 -1.6265 -1.2319
13876SOL     OW43634  10.379   1.834   2.841 -0.1996 -0.5969 -0.0380
13876SOL    HW143635  10.331   1.775   2.899  1.1781 -1.6030  0.1288
13876SOL    HW243636  10.377   1.790   2.756 -1.0624  0.2252 -0.4657
13877SOL     OW43637   2.517   6.856   4.696  0.7333  0.6835 -0.2479
13877SOL    HW143638   2.516   6.853   4.601 -2.6868  0.3792 -0.3305
13877SOL    HW243639   2.518   6.765   4.724  0.2123  0.7246 -0.0695
13878SOL     OW43640   8.164   6.918   2.408 -0.0855 -0.5061  0.1510
13878SOL    HW143641   8.100   6.849   2.391  0.5764 -1.3759  1.0900
13878SOL    HW243642   8.231   6.906   2.340 -1.2772  0.9212 -1.3482
13879SOL     OW43643   2.655   9.230   1.271  1.0960 -0.2213 -0.2758
13879SOL    HW143644   2.693   9.150   1.308 -0.3059 -0.8695 -0.1591
13879SOL    HW243645   2.636   9.285   1.346  1.1886 -0.1805 -0.2822
13880SOL     OW43646   5.864   4.122   6.199 -0.3296  0.0509  0.5338
13880SOL    HW143647   5.905   4.199   6.237  0.2946  0.1042 -0.2235
13880SOL    HW243648   5.900   4.117   6.110 -1.7212 -0.0956 -0.0345
13881SOL     OW43649  10.762   8.628   7.780  0.0386  0.1718  0.2601
13881SOL    HW143650  10.671   8.605   7.797 -0.9600  0.9658 -3.2625
13881SOL    HW243651  10.795   8.560   7.722  1.3321  0.5585  0.4883
13882SOL     OW43652  10.859   4.597   5.653  0.2769  0.1996  0.1098
13882SOL    HW143653  10.832   4.506   5.641  1.8707 -0.3545  0.5078
13882SOL    HW243654  10.849   4.636   5.566 -0.3492 -0.3530 -0.0792
13883SOL     OW43655   8.576   5.796   1.583  0.3699 -0.0535  0.4901
13883SOL    HW143656   8.614   5.884   1.584  1.4027 -0.4814  0.1294
13883SOL    HW243657   8.650   5.738   1.565 -0.0687 -1.1138  1.8688
13884SOL     OW43658   9.495   4.817   3.786  0.2328 -0.0143  0.0826
13884SOL    HW143659   9.495   4.729   3.748  0.7213 -0.6153  1.3880
13884SOL    HW243660   9.421   4.815   3.847  1.4927 -0.2641  1.6706
13885SOL     OW43661   8.776  10.544   9.465  0.2443 -0.3058  0.2623
13885SOL    HW143662   8.695  10.560   9.417 -2.1535  0.7414  4.1743
13885SOL    HW243663   8.752  10.480   9.532  3.0570 -0.9965  0.7386
13886SOL     OW43664   4.607   1.156   1.213  0.2659 -0.0908 -0.1501
13886SOL    HW143665   4.665   1.232   1.221  0.2046  0.1696 -1.9236
13886SOL    HW243666   4.647   1.102   1.145 -0.6211 -0.7956 -0.1256
13887SOL     OW43667   1.184   1.322   3.522  0.0453  0.0012 -0.2845
13887SOL    HW143668   1.261   1.267   3.508  0.7630  1.4418 -2.4736
13887SOL    HW243669   1.220   1.405   3.554 -0.3210  1.3232 -3.0634
13888SOL     OW43670   5.627   8.563   4.361 -0.2678 -0.6853  0.0747
13888SOL    HW143671   5.636   8.653   4.330  0.8952 -1.3101 -1.5203
13888SOL    HW243672   5.656   8.509   4.288 -0.0837 -2.3498  1.3159
13889SOL     OW43673   3.908   1.195   8.730 -0.0456  0.4905  0.2565
13889SOL    HW143674   3.843   1.216   8.662 -1.0343  1.0909  1.3337
13889SOL    HW243675   3.992   1.196   8.684 -0.7380  0.1934 -1.0882
13890SOL     OW43676   1.412   5.980   4.356 -0.3872 -0.1538  0.0154
13890SOL    HW143677   1.317   5.990   4.365 -0.4333 -0.2564 -0.3263
13890SOL    HW243678   1.428   5.887   4.371 -0.3654 -0.1705 -0.1049
13891SOL     OW43679   7.765   6.943   8.303 -0.0923 -0.1594  0.2650
13891SOL    HW143680   7.737   6.859   8.268 -0.1824  0.4442 -1.2237
13891SOL    HW243681   7.848   6.925   8.347 -0.4915 -1.1440  0.6433
13892SOL     OW43682  10.741   2.191   6.529  0.7206 -0.2137  0.0963
13892SOL    HW143683  10.692   2.270   6.553  0.0836 -0.8552  0.9951
13892SOL    HW243684  10.741   2.191   6.433 -0.1416  0.3491  0.0838
13893SOL     OW43685   2.236   5.041   1.802 -0.5933 -0.3999  0.0605
13893SOL    HW143686   2.265   5.054   1.711 -1.2608  1.6089  0.0849
13893SOL    HW243687   2.160   4.984   1.795  0.4737 -1.8429 -0.4213
13894SOL     OW43688  10.928   4.705   2.336  0.2522  1.0917 -0.3031
13894SOL    HW143689  10.859   4.708   2.403  1.6652  0.4680  1.2656
13894SOL    HW243690  10.995   4.766   2.368  0.8701  0.9506 -1.2787
13895SOL     OW43691   9.039   3.263   4.104  0.2163 -0.7963  0.0036
13895SOL    HW143692   9.026   3.311   4.022  2.1226  1.4491  0.8834
13895SOL    HW243693   8.957   3.217   4.118 -0.5359 -0.4492 -2.6350
13896SOL     OW43694   6.428   2.510  10.749 -0.4931  0.0552  0.2192
13896SOL    HW143695   6.460   2.456  10.822  1.1944 -0.4757 -0.8643
13896SOL    HW243696   6.333   2.502  10.754 -0.3744 -1.0125  1.5791
13897SOL     OW43697   6.831   0.702   8.340  0.0670 -0.3971 -0.4826
13897SOL    HW143698   6.904   0.760   8.362 -0.7090  0.5032 -0.1974
13897SOL    HW243699   6.759   0.762   8.319 -1.4493 -1.2036  2.0617
13898SOL     OW43700   4.919   9.789   9.272  0.0364 -0.0169  0.5637
13898SOL    HW143701   4.907   9.803   9.179  1.1174 -1.0885  0.2396
13898SOL    HW243702   4.833   9.808   9.311  0.0479  2.2129 -0.4023
13899SOL     OW43703   7.492   5.616   7.089 -1.1024  0.5782  0.0077
13899SOL    HW143704   7.570   5.654   7.129 -1.7113  2.0704 -0.1662
13899SOL    HW243705   7.500   5.522   7.105  0.1616  0.8294  0.9744
13900SOL     OW43706   7.071   7.318   0.163 -0.1703  0.3936 -0.5253
13900SOL    HW143707   7.126   7.250   0.124  0.0714  0.5906 -0.5328
13900SOL    HW243708   7.094   7.317   0.256 -0.6722 -0.0064 -0.4032
13901SOL     OW43709   4.951   8.209   8.299  0.0049 -0.5161  0.6494
13901SOL    HW143710   5.003   8.261   8.237  0.0102 -2.0568 -0.6881
13901SOL    HW243711   4.910   8.274   8.355  1.0888  0.8761 -0.0914
13902SOL     OW43712  10.060   6.425   5.597 -0.8019  0.0993 -0.6081
13902SOL    HW143713   9.965   6.430   5.610 -0.6582  0.5995  0.3633
13902SOL    HW243714  10.096   6.439   5.685  0.3402  4.8023 -1.5836
13903SOL     OW43715   5.952   3.586  10.860 -0.1243  0.5845 -0.0055
13903SOL    HW143716   5.983   3.660  10.912 -1.5004  1.1535  0.0254
13903SOL    HW243717   6.031   3.552  10.818  0.6682  1.4796  0.7239
13904SOL     OW43718   2.838  10.096   1.822 -0.0713 -0.2449 -0.3904
13904SOL    HW143719   2.878  10.107   1.908 -1.2730  0.7045  0.0769
13904SOL    HW243720   2.808  10.005   1.821  1.1678 -0.6720 -0.3690
13905SOL     OW43721   7.845   7.875   3.574  1.2539 -0.3293  0.2627
13905SOL    HW143722   7.812   7.965   3.581  1.1681 -0.3817  0.5662
13905SOL    HW243723   7.871   7.852   3.664  0.0177 -1.0736  0.4626
13906SOL     OW43724   3.497   4.104   1.450 -0.9634 -0.0445 -0.5281
13906SOL    HW143725   3.416   4.152   1.437  0.2182  1.6994 -1.8643
13906SOL    HW243726   3.484   4.020   1.406 -2.4983 -0.3819  0.4937
13907SOL     OW43727   0.526   2.343   4.576  0.1213 -0.5266  0.3491
13907SOL    HW143728   0.613   2.375   4.599  0.7763  0.0656 -2.5465
13907SOL    HW243729   0.542   2.263   4.526 -0.8374  0.3292 -1.4334
13908SOL     OW43730   1.671   2.848   7.858 -0.0282  0.2801  0.2837
13908SOL    HW143731   1.717   2.883   7.934  1.7355 -0.9158 -0.1702
13908SOL    HW243732   1.638   2.763   7.887  0.5307 -0.1189 -0.2287
13909SOL     OW43733   5.477  10.639   5.791 -0.0733 -0.1959 -0.1104
13909SOL    HW143734   5.572  10.651   5.785  0.2137 -0.8260  2.1484
13909SOL    HW243735   5.466  10.555   5.836 -1.6905  0.1991  0.3119
13910SOL     OW43736   3.613   7.517   9.998 -0.1180 -0.0482  0.3491
13910SOL    HW143737   3.699   7.521  10.040  1.0668 -4.1218 -1.1743
13910SOL    HW243738   3.625   7.560   9.913  0.2282  0.0366  0.4418
13911SOL     OW43739   5.985   1.422   0.852 -0.5303  0.2534  0.1862
13911SOL    HW143740   5.978   1.341   0.801 -2.1232  1.5655 -1.8442
13911SOL    HW243741   6.018   1.487   0.789 -2.1097  1.8462  0.9284
13912SOL     OW43742  10.384   9.800  10.874  0.1149 -0.0106  0.6380
13912SOL    HW143743  10.388   9.773  10.965 -0.9595 -0.9101  0.4399
13912SOL    HW243744  10.474   9.826  10.853  0.1037  1.6309  2.3420
13913SOL     OW43745   1.931   5.311   6.679 -0.1274 -0.1415  0.6438
13913SOL    HW143746   1.840   5.301   6.649  0.1884 -1.6790  0.1027
13913SOL    HW243747   1.926   5.299   6.774 -0.5511  0.2997  0.6822
13914SOL     OW43748   4.344   2.726   5.530 -0.0778 -0.1760 -0.0676
13914SOL    HW143749   4.294   2.729   5.612 -1.0976  2.2031 -0.6804
13914SOL    HW243750   4.417   2.786   5.545  0.2626 -0.4554 -0.5917
13915SOL     OW43751   3.717   7.055   9.313 -0.3420 -0.5983 -0.3861
13915SOL    HW143752   3.686   7.050   9.404 -1.6383 -1.2088 -0.8419
13915SOL    HW243753   3.729   7.148   9.297 -0.3462 -0.4693  0.3367
13916SOL     OW43754   0.398  10.361   3.686  0.1837 -0.1595 -0.7952
13916SOL    HW143755   0.346  10.429   3.643  0.0587 -0.9301 -1.9115
13916SOL    HW243756   0.482  10.363   3.639  1.1108  0.8800  0.8012
13917SOL     OW43757   0.821   3.157   8.726 -0.5145 -0.1720  0.4265
13917SOL    HW143758   0.883   3.229   8.732 -2.1091  1.2132  1.0280
13917SOL    HW243759   0.779   3.168   8.641 -0.4172 -0.6832  0.3116
13918SOL     OW43760   2.382   7.572  11.053 -0.5521 -0.6839 -0.0219
13918SOL    HW143761   2.330   7.647  11.082 -0.9258 -0.6331 -0.7902
13918SOL    HW243762   2.331   7.496  11.077 -1.5810 -0.6116 -1.8033
13919SOL     OW43763   1.425   4.956   4.239 -0.1382  0.1605 -0.1810
13919SOL    HW143764   1.496   4.970   4.176 -1.4723  2.3213 -1.3276
13919SOL    HW243765   1.345   4.964   4.186 -1.2682 -0.8318  1.3126
13920SOL     OW43766   5.435  10.007   1.358  0.7203 -0.3145 -0.0636
13920SOL    HW143767   5.393  10.090   1.334 -0.0364 -1.0866 -1.5725
13920SOL    HW243768   5.409   9.946   1.288  3.1893 -1.2187 -0.2963
13921SOL     OW43769  11.025   2.124   8.830  0.0739  0.6832 -0.0426
13921SOL    HW143770  11.120   2.114   8.832  0.2109  0.3861 -3.1745
13921SOL    HW243771  11.011   2.217   8.814 -0.2072  0.8002  0.8253
13922SOL     OW43772   4.250   8.378   7.798 -0.3181 -0.1622 -0.2784
13922SOL    HW143773   4.197   8.366   7.719 -0.0485  2.7510 -1.0220
13922SOL    HW243774   4.326   8.428   7.769  0.0590  0.5364  1.7167
13923SOL     OW43775   0.987   7.400   5.946  0.0449 -0.5528 -0.5538
13923SOL    HW143776   1.014   7.308   5.943  0.9512 -0.5104  2.6293
13923SOL    HW243777   1.063   7.447   5.980 -1.2982  0.9138  0.6154
13924SOL     OW43778   2.876   9.768   5.805 -0.5189  0.2873  0.0069
13924SOL    HW143779   2.930   9.690   5.792 -1.8161 -0.8122  0.8524
13924SOL    HW243780   2.857   9.799   5.717 -0.5420 -0.7844 -0.3837
13925SOL     OW43781   6.973   3.756   2.212  0.8779 -0.0667 -0.4682
13925SOL    HW143782   7.001   3.769   2.303  0.8601  0.1840 -0.4973
13925SOL    HW243783   6.999   3.666   2.191 -0.2487 -0.5707  0.1948
13926SOL     OW43784  10.869   6.266  10.803  0.3305  0.3352  0.0829
13926SOL    HW143785  10.790   6.278  10.855  0.4827  3.3887 -0.2339
13926SOL    HW243786  10.929   6.218  10.860 -0.0737  2.1526  2.1623
13927SOL     OW43787   5.170   8.057   4.314 -0.0778  0.4102  0.7110
13927SOL    HW143788   5.134   8.091   4.232  0.2769  0.2298  0.4749
13927SOL    HW243789   5.249   8.110   4.329  0.6551 -0.4872  0.1707
13928SOL     OW43790   9.007   9.572   3.171 -0.3879 -0.1167  0.4276
13928SOL    HW143791   9.037   9.482   3.174  0.2969  0.1230  1.1131
13928SOL    HW243792   9.080   9.621   3.133 -0.0188  0.4117  1.7529
13929SOL     OW43793   5.550  10.656   6.170  0.4542 -0.4575 -0.0885
13929SOL    HW143794   5.600  10.576   6.156 -0.3857 -0.6003 -2.8054
13929SOL    HW243795   5.458  10.628   6.166  0.1224  0.3106  1.4211
13930SOL     OW43796   2.633   1.694   2.079  0.2325  0.1666 -0.4661
13930SOL    HW143797   2.573   1.750   2.128  0.6681  1.3689 -1.2594
13930SOL    HW243798   2.699   1.754   2.044  0.2838 -0.7203 -2.0083
13931SOL     OW43799   4.932   5.728   5.937  0.3344  0.5779  0.4741
13931SOL    HW143800   4.887   5.682   6.007 -1.7225 -2.3371 -2.4576
13931SOL    HW243801   4.902   5.818   5.944 -1.1970  0.0003  2.2499
13932SOL     OW43802   0.073   4.404   9.890  0.0602 -0.2201  0.0532
13932SOL    HW143803   0.092   4.486   9.935 -1.1051 -0.4420  0.9900
13932SOL    HW243804   0.157   4.377   9.854  0.9093  0.3258  1.5217
13933SOL     OW43805   3.306   0.458   3.441 -0.1439  0.0683  0.6132
13933SOL    HW143806   3.372   0.522   3.468  0.4031  0.2361 -0.9797
13933SOL    HW243807   3.228   0.510   3.425  0.5128  0.5385 -1.4378
13934SOL     OW43808  10.728   1.358   8.296  0.2199  0.7313  0.5417
13934SOL    HW143809  10.761   1.446   8.276 -1.6211  2.1133  3.0408
13934SOL    HW243810  10.673   1.335   8.221 -0.3013  2.2860  0.4181
13935SOL     OW43811   3.763   8.171   2.985 -0.3139 -0.1992  0.3679
13935SOL    HW143812   3.746   8.203   3.073 -0.4348  1.7341 -0.3154
13935SOL    HW243813   3.854   8.196   2.967 -0.2241 -0.7571  0.0140
13936SOL     OW43814   6.836   3.576   9.043  0.0941 -0.2670  0.1137
13936SOL    HW143815   6.740   3.580   9.044  0.1039 -0.0998  0.3297
13936SOL    HW243816   6.859   3.528   9.122  0.1927 -0.2739  0.0811
13937SOL     OW43817   0.292   5.709   2.151 -0.1659  0.3245 -0.2492
13937SOL    HW143818   0.290   5.800   2.180 -1.0903  0.7324 -1.4478
13937SOL    HW243819   0.202   5.678   2.165  0.4171 -0.7931  1.2267
13938SOL     OW43820   1.431   2.727   6.838  0.0245 -0.0766  0.1878
13938SOL    HW143821   1.514   2.766   6.864 -0.7147  0.6446  1.5967
13938SOL    HW243822   1.432   2.729   6.742  1.4366  0.3112  0.1989
13939SOL     OW43823   2.869   5.632   4.182  0.0155  0.4428  0.1646
13939SOL    HW143824   2.895   5.610   4.092  0.4260 -0.3515  0.4695
13939SOL    HW243825   2.922   5.709   4.204  1.9782 -0.9832  0.6739
13940SOL     OW43826   6.889   7.363   9.004  0.2597  0.0530  0.6266
13940SOL    HW143827   6.956   7.338   8.940  0.3096  1.1666  0.2325
13940SOL    HW243828   6.838   7.283   9.017  1.1833 -0.5976  0.3478
13941SOL     OW43829   9.221   5.111   1.107 -0.1056 -0.8830 -0.6063
13941SOL    HW143830   9.285   5.169   1.066 -0.8564  0.5174  0.1487
13941SOL    HW243831   9.137   5.139   1.072 -0.8434  0.7713  2.2048
13942SOL     OW43832  11.067   9.047   5.647  0.3826  0.5536 -0.6293
13942SOL    HW143833  11.078   9.138   5.673  0.2395 -0.2762  2.7179
13942SOL    HW243834  10.973   9.035   5.639  0.2859  0.2808  0.7672
13943SOL     OW43835   2.712   5.291   4.255  0.1326  0.1568 -0.0598
13943SOL    HW143836   2.682   5.203   4.230 -0.1094 -0.0913  1.0321
13943SOL    HW243837   2.662   5.311   4.334 -1.2926  2.1342 -1.3895
13944SOL     OW43838  10.509   8.252   2.251  0.5618  0.6734 -0.3848
13944SOL    HW143839  10.563   8.208   2.318 -1.1868  0.6065  1.0618
13944SOL    HW243840  10.562   8.327   2.223  0.5044  2.0616  2.7930
13945SOL     OW43841   2.701   4.998   3.527  0.3629  0.3061 -0.1977
13945SOL    HW143842   2.655   5.057   3.468  0.5952  1.5436  0.8053
13945SOL    HW243843   2.690   4.911   3.489 -1.5170  0.7634 -0.7710
13946SOL     OW43844   3.300   8.837   2.100 -0.0463 -0.3509 -0.0334
13946SOL    HW143845   3.354   8.914   2.088 -1.8902  0.8637 -1.1512
13946SOL    HW243846   3.278   8.836   2.193  0.5518  0.0573  0.1127
13947SOL     OW43847   7.824   1.727   4.914 -0.7162  0.1265 -0.0499
13947SOL    HW143848   7.824   1.634   4.936 -0.7066 -0.0236 -0.6808
13947SOL    HW243849   7.779   1.769   4.988  0.9833 -0.1432  1.2139
13948SOL     OW43850   0.838   5.639   9.533  0.6295 -0.9804  0.1159
13948SOL    HW143851   0.850   5.709   9.468 -0.5900 -1.2547 -0.4392
13948SOL    HW243852   0.921   5.636   9.580  2.6328 -2.5580 -3.1624
13949SOL     OW43853   1.082   4.436   8.592 -0.0805 -0.0348 -0.0822
13949SOL    HW143854   1.162   4.383   8.603  1.0686  1.2155 -1.8908
13949SOL    HW243855   1.069   4.476   8.678 -1.4371 -3.6847  1.6183
13950SOL     OW43856   4.355   9.215   7.581 -0.2064 -0.0523 -0.1467
13950SOL    HW143857   4.421   9.148   7.596 -0.6067 -1.3084 -3.3747
13950SOL    HW243858   4.403   9.289   7.543 -0.0632  0.8783  1.6958
13951SOL     OW43859   0.482   2.321   5.924 -0.4410 -0.4214  0.3655
13951SOL    HW143860   0.493   2.383   5.852 -2.3142  0.7104  0.9984
13951SOL    HW243861   0.565   2.272   5.926  0.1200  0.3342 -1.7548
13952SOL     OW43862   7.356   4.694   9.633  0.4191  0.3657  0.2307
13952SOL    HW143863   7.367   4.678   9.727  0.5945 -2.1746 -0.1667
13952SOL    HW243864   7.445   4.709   9.600  0.4519  0.4105  0.3413
13953SOL     OW43865   6.134   1.477   9.536 -0.2241 -1.1383 -0.3138
13953SOL    HW143866   6.220   1.511   9.561  1.0174 -3.6557 -0.7760
13953SOL    HW243867   6.075   1.507   9.605  1.0793  0.3558  0.2141
13954SOL     OW43868   2.746   6.645  10.379  0.7061 -0.0235  0.4005
13954SOL    HW143869   2.769   6.738  10.388 -0.1890  0.1793  0.7017
13954SOL    HW243870   2.825   6.598  10.406  0.6049  0.6479  1.9847
13955SOL     OW43871   0.575   4.229   4.962 -0.1326 -0.0248 -0.0594
13955SOL    HW143872   0.577   4.137   4.987  0.2579 -0.9441 -2.9990
13955SOL    HW243873   0.666   4.258   4.969 -0.3923  0.4509  1.7193
13956SOL     OW43874  10.770   4.408   4.513 -0.0640 -0.2793 -0.1861
13956SOL    HW143875  10.766   4.346   4.440 -2.1371  0.1595 -0.5014
13956SOL    HW243876  10.678   4.428   4.532  0.5186  1.4131  1.0152
13957SOL     OW43877   2.442   1.724   9.519  0.4463  0.1319 -0.6092
13957SOL    HW143878   2.483   1.706   9.434 -0.2656 -1.4211 -0.6600
13957SOL    HW243879   2.475   1.655   9.577  0.5601  0.8969  0.2733
13958SOL     OW43880   2.757   9.988   4.744 -0.4309  0.4883  0.4305
13958SOL    HW143881   2.764  10.010   4.837  0.2222  1.7442  0.1182
13958SOL    HW243882   2.749  10.073   4.700  1.4939  0.1076 -0.8139
13959SOL     OW43883   5.824   0.047   2.294  0.5487  0.1397 -0.5861
13959SOL    HW143884   5.791   0.021   2.380 -0.5661  0.1898 -0.9906
13959SOL    HW243885   5.853   0.137   2.305 -0.1633  0.3533 -0.4052
13960SOL     OW43886   9.075   5.840   0.532  0.5168 -0.7091 -0.0094
13960SOL    HW143887   9.059   5.831   0.438  0.7430 -2.9275  0.1043
13960SOL    HW243888   8.996   5.803   0.572 -0.3671  1.7965  0.7570
13961SOL     OW43889   9.765   7.686   7.126  0.5620 -0.0741 -0.2735
13961SOL    HW143890   9.787   7.598   7.097 -0.3368 -0.6332  0.6954
13961SOL    HW243891   9.801   7.692   7.215  0.5533  0.5085 -0.3054
13962SOL     OW43892   1.207   6.198   7.788  0.6450  0.8276 -0.4458
13962SOL    HW143893   1.141   6.131   7.770  1.3220  0.5934 -2.2000
13962SOL    HW243894   1.171   6.277   7.749  1.1328  0.8379 -0.8695
13963SOL     OW43895   6.881   9.018   4.697 -0.8076  0.4012  0.8095
13963SOL    HW143896   6.962   8.986   4.738  0.0050  1.1993 -0.1255
13963SOL    HW243897   6.853   9.090   4.753 -0.3523  0.7174  0.6400
13964SOL     OW43898   0.903   2.161   9.507  0.6103  0.0896  0.0691
13964SOL    HW143899   0.820   2.114   9.516  0.7267 -0.0232  0.5872
13964SOL    HW243900   0.877   2.253   9.499  0.4485  0.0809  0.4895
13965SOL     OW43901   0.628   7.582  10.985  0.0542 -0.1947  0.1968
13965SOL    HW143902   0.606   7.654  10.926  2.8121 -0.3029 -1.1517
13965SOL    HW243903   0.618   7.503  10.932 -1.2998 -0.6997  1.1477
13966SOL     OW43904   3.980   5.104   4.777 -0.3724  0.4901 -0.0803
13966SOL    HW143905   3.957   5.062   4.860 -2.0792  1.9622  0.2273
13966SOL    HW243906   3.947   5.193   4.784  2.7590  1.8557 -0.8987
13967SOL     OW43907   3.961   0.146   3.628 -0.0693 -0.0083 -0.5119
13967SOL    HW143908   3.874   0.122   3.595 -1.3862  2.0150  1.2588
13967SOL    HW243909   3.956   0.129   3.722  1.9470 -1.1038 -0.5564
13968SOL     OW43910   6.073   2.542   7.194 -0.8194  0.2498  0.3785
13968SOL    HW143911   6.014   2.542   7.119 -1.4465  0.4850  0.8555
13968SOL    HW243912   6.154   2.503   7.162 -1.6572 -1.2740  0.0319
13969SOL     OW43913   2.641  10.124   0.671 -1.2433 -0.3176 -0.4180
13969SOL    HW143914   2.679  10.044   0.707 -0.7114 -0.4185 -1.1768
13969SOL    HW243915   2.602  10.097   0.588 -0.5371  0.3115 -0.9663
13970SOL     OW43916   7.088   1.611   7.195  0.1080  0.0566  0.1981
13970SOL    HW143917   6.996   1.588   7.208 -0.0590  0.2527 -0.6216
13970SOL    HW243918   7.109   1.668   7.269 -0.7132  0.8192 -0.1407
13971SOL     OW43919   1.290   9.676   5.950 -0.0688  0.5067 -0.2187
13971SOL    HW143920   1.250   9.628   5.878  0.2958  1.8868 -1.3858
13971SOL    HW243921   1.218   9.724   5.991  0.0369  1.4078 -1.0492
13972SOL     OW43922   3.192   0.552   0.982  0.1702 -0.3512  0.0268
13972SOL    HW143923   3.185   0.560   1.077  0.1759 -0.6732  0.0562
13972SOL    HW243924   3.146   0.629   0.948 -1.3903 -1.1286  0.2628
13973SOL     OW43925   5.436   1.213  10.040 -0.2500 -0.1195  0.9502
13973SOL    HW143926   5.426   1.202   9.945 -0.6524  1.4624  0.7949
13973SOL    HW243927   5.531   1.221  10.053 -0.1121 -1.2687  0.8185
13974SOL     OW43928   9.858   6.020   6.180 -0.2535 -0.5706  0.1893
13974SOL    HW143929   9.918   5.951   6.209  0.8050 -0.5561 -1.7973
13974SOL    HW243930   9.839   5.999   6.089 -1.0067  1.0055 -0.0467
13975SOL     OW43931   4.950   9.616   3.646 -0.1891  0.3268  0.1513
13975SOL    HW143932   5.000   9.560   3.586  0.6082  0.4758  0.6605
13975SOL    HW243933   4.866   9.627   3.603 -0.2612 -1.0187 -0.1116
13976SOL     OW43934   0.429  10.227   4.704 -0.1563  0.3189 -0.5518
13976SOL    HW143935   0.385  10.167   4.765 -0.0178 -1.3179 -1.9720
13976SOL    HW243936   0.520  10.196   4.702  0.0406  0.9148 -0.9151
13977SOL     OW43937   7.033   1.194   0.343  0.2888 -0.3279  0.2978
13977SOL    HW143938   6.942   1.166   0.330  0.5671 -2.2785  2.1442
13977SOL    HW243939   7.086   1.121   0.313  1.2085  0.1494  0.7110
13978SOL     OW43940   7.021   1.999   6.108 -0.2499 -0.0461 -0.2248
13978SOL    HW143941   7.048   1.933   6.045 -1.0180 -0.2291 -0.3786
13978SOL    HW243942   6.926   2.005   6.096 -0.1010  1.6814 -0.7952
13979SOL     OW43943  10.850   0.991   1.329 -0.0111  0.1889 -0.3602
13979SOL    HW143944  10.934   0.974   1.285  1.4827 -0.2493  2.4101
13979SOL    HW243945  10.864   1.072   1.378 -1.3385  0.2775 -0.0862
13980SOL     OW43946   4.685   5.912   7.626  0.7784  0.7324 -0.3108
13980SOL    HW143947   4.594   5.896   7.598 -0.5668  3.8728  1.7017
13980SOL    HW243948   4.717   5.826   7.652 -1.2661 -0.6426 -1.9670
13981SOL     OW43949   2.665   2.067   3.707 -0.5696  0.3295  0.2208
13981SOL    HW143950   2.708   2.153   3.697 -1.6322  1.0217  1.3207
13981SOL    HW243951   2.618   2.054   3.625  1.2644 -0.2107 -0.8082
13982SOL     OW43952   8.500  10.264   7.068  0.0980  0.1724  0.4914
13982SOL    HW143953   8.458  10.319   7.002 -2.3474 -1.2807  0.7339
13982SOL    HW243954   8.508  10.321   7.144  2.8494  1.8363 -0.8969
13983SOL     OW43955   9.851   3.754   6.073  0.1945 -0.7741 -0.5311
13983SOL    HW143956   9.864   3.810   5.997 -1.0163 -0.7647 -0.7500
13983SOL    HW243957   9.925   3.773   6.131 -1.1125  2.4488  0.2812
13984SOL     OW43958   0.540   6.038   3.517  0.4545 -0.4159 -0.1295
13984SOL    HW143959   0.587   6.101   3.462 -1.1906  0.4130 -0.6439
13984SOL    HW243960   0.447   6.057   3.502 -0.0981 -2.6705  0.0747
13985SOL     OW43961  10.708  10.439   3.329  0.4347 -0.7363  0.8074
13985SOL    HW143962  10.665  10.446   3.414  0.1050 -0.9624  0.6638
13985SOL    HW243963  10.653  10.492   3.270  0.3970 -0.9597  0.6400
13986SOL     OW43964   8.849   1.625   6.187 -0.8734 -0.6138  0.5281
13986SOL    HW143965   8.799   1.647   6.108 -0.5430  0.1141  0.5101
13986SOL    HW243966   8.864   1.710   6.229 -1.6329 -1.0569  1.7337
13987SOL     OW43967   0.777   8.356   8.458 -0.4206 -0.5223  0.5708
13987SOL    HW143968   0.692   8.394   8.481  0.2943  0.8091  1.0493
13987SOL    HW243969   0.816   8.330   8.541  0.5769  0.9037  0.5779
13988SOL     OW43970  10.194   3.732   7.118  0.0213  0.3460  0.6153
13988SOL    HW143971  10.212   3.824   7.101  0.6438  0.0663 -0.2851
13988SOL    HW243972  10.277   3.688   7.104 -0.1515 -0.3032  1.5169
13989SOL     OW43973   0.792  11.014   3.445 -0.1723  0.3161 -0.3206
13989SOL    HW143974   0.754  10.927   3.451 -0.1386  0.2761 -0.6983
13989SOL    HW243975   0.883  11.003   3.474  0.0645  0.0722 -1.1467
13990SOL     OW43976   7.285   0.313  10.365 -0.5191  0.6448 -0.6512
13990SOL    HW143977   7.373   0.327  10.401 -0.1541 -0.7408 -0.9726
13990SOL    HW243978   7.287   0.354  10.279 -0.4314  1.2567 -0.3649
13991SOL     OW43979   3.965   4.129  10.170  0.1851 -0.7014  0.3035
13991SOL    HW143980   4.048   4.087  10.189  0.1163 -0.3675  1.4564
13991SOL    HW243981   3.899   4.068  10.203 -0.0125 -0.8035 -0.2749
13992SOL     OW43982   1.286   7.548   7.204 -0.1710 -0.1153 -0.2456
13992SOL    HW143983   1.226   7.501   7.262 -0.4700  1.4472  0.7860
13992SOL    HW243984   1.351   7.587   7.264 -0.0513  0.9256 -1.0157
13993SOL     OW43985   5.202  10.220   8.114  0.3488 -0.5170 -0.9688
13993SOL    HW143986   5.175  10.170   8.037 -0.3191  0.9052 -1.6950
13993SOL    HW243987   5.263  10.285   8.081  0.6262 -0.3549 -0.1658
13994SOL     OW43988   3.940   4.906   5.022  0.1170 -0.6529  0.3309
13994SOL    HW143989   3.855   4.865   5.005 -0.8284  1.8790 -1.8078
13994SOL    HW243990   4.004   4.837   5.001 -1.3836 -1.7649 -0.8768
13995SOL     OW43991   1.843   0.325   2.400 -0.4536 -0.0046 -0.1426
13995SOL    HW143992   1.772   0.366   2.351 -0.8176 -0.0167  0.3807
13995SOL    HW243993   1.913   0.316   2.335 -0.7644  0.4126 -0.5478
13996SOL     OW43994   7.100   2.220   2.112  0.0132 -0.5686 -0.2727
13996SOL    HW143995   7.097   2.315   2.124  3.5452 -0.4752  0.8965
13996SOL    HW243996   7.084   2.208   2.018  0.4844  1.2564 -0.6294
13997SOL     OW43997   4.281   0.313   3.723  0.3233  0.4074  0.4543
13997SOL    HW143998   4.206   0.343   3.673 -0.1920 -2.4116 -0.6593
13997SOL    HW243999   4.245   0.248   3.783  1.7121 -0.2321  0.6298
13998SOL     OW44000  10.338   4.466   3.251 -0.4333  0.1953  0.5019
13998SOL    HW144001  10.348   4.495   3.160  2.0197 -1.3376  0.1962
13998SOL    HW244002  10.427   4.448   3.280 -1.1561  0.6201  3.2482
13999SOL     OW44003   1.059   4.226   1.023 -0.4224 -0.1314 -0.2199
13999SOL    HW144004   1.105   4.188   1.097  0.8661  0.1963 -0.8066
13999SOL    HW244005   1.077   4.320   1.030 -1.0492  0.0096 -0.4427
14000SOL     OW44006   6.529   2.134   6.316  0.3347 -0.5581  0.5714
14000SOL    HW144007   6.452   2.146   6.261  1.6877 -1.9483 -1.8143
14000SOL    HW244008   6.528   2.209   6.376 -1.8149  0.4709 -0.6332
14001SOL     OW44009   8.052  10.753   7.242  0.7385 -0.0539 -0.2976
14001SOL    HW144010   8.077  10.772   7.152  1.4527 -1.2332 -0.3725
14001SOL    HW244011   8.008  10.832   7.272  2.0606  1.0346 -1.1087
14002SOL     OW44012   9.156   2.102   8.541  0.1262  0.6060 -0.1602
14002SOL    HW144013   9.078   2.154   8.525  0.1068  0.5121 -0.3768
14002SOL    HW244014   9.202   2.100   8.457  0.9017  1.5425  0.2186
14003SOL     OW44015   3.721   6.606   3.768  0.6877 -0.4608  0.3540
14003SOL    HW144016   3.811   6.639   3.771  0.4854  0.0028  2.2413
14003SOL    HW244017   3.673   6.661   3.830 -0.5365 -1.7623  0.6005
14004SOL     OW44018  11.042   1.140   5.837 -0.2967  0.1382  0.4174
14004SOL    HW144019  11.007   1.222   5.869 -0.5721  1.1679 -2.2700
14004SOL    HW244020  11.135   1.143   5.859 -0.5027  0.7014  1.2246
14005SOL     OW44021   2.675   4.418   4.284  0.0315 -0.7023 -0.6430
14005SOL    HW144022   2.704   4.327   4.295 -0.7152 -1.2152 -2.5560
14005SOL    HW244023   2.583   4.417   4.309  0.7126  0.2391  2.2847
14006SOL     OW44024   1.111   9.437   9.142  0.0441  0.4646  0.0674
14006SOL    HW144025   1.147   9.526   9.138  1.5944 -0.0466  1.4452
14006SOL    HW244026   1.186   9.380   9.129 -0.6577 -0.6580  0.7496
14007SOL     OW44027   4.023   7.147   6.506 -0.8775  0.2098  0.5693
14007SOL    HW144028   3.937   7.113   6.485 -0.3069 -1.1046  0.2334
14007SOL    HW244029   4.061   7.171   6.422 -0.7166  0.2695  0.6581
14008SOL     OW44030   2.728   7.121   7.382  0.0867  0.0341 -0.5549
14008SOL    HW144031   2.811   7.168   7.375 -0.5148  1.2907  0.1976
14008SOL    HW244032   2.679   7.148   7.304 -0.6546  1.5795  0.3740
14009SOL     OW44033  10.777   3.676   6.361 -0.8238  0.2084 -0.4411
14009SOL    HW144034  10.727   3.633   6.291 -2.0004 -0.1926  0.5933
14009SOL    HW244035  10.717   3.743   6.395 -0.9387 -0.7124  1.2622
14010SOL     OW44036   5.251   1.362   2.326 -0.1480 -0.0190  0.4717
14010SOL    HW144037   5.165   1.403   2.318  0.7295  1.8244  0.0905
14010SOL    HW244038   5.276   1.375   2.417  1.1414  2.5022 -0.1749
14011SOL     OW44039   5.959  10.181   7.329  0.1203  0.0056 -0.1554
14011SOL    HW144040   6.050  10.210   7.342  0.1869  0.5183 -1.5980
14011SOL    HW244041   5.907  10.257   7.355  0.1838  0.3553 -1.0173
14012SOL     OW44042   0.723   6.534   7.601 -0.3088 -0.0199 -0.8014
14012SOL    HW144043   0.768   6.601   7.653  2.2260 -0.9914 -1.6118
14012SOL    HW244044   0.654   6.503   7.659  1.0479  0.4472  1.1968
14013SOL     OW44045   4.724   4.815   9.795 -0.6177  0.9230 -0.0340
14013SOL    HW144046   4.805   4.766   9.783 -1.1394  0.2965 -1.1636
14013SOL    HW244047   4.751   4.907   9.796  0.0956  0.7303 -0.6214
14014SOL     OW44048   8.905   2.714  10.300 -0.1506 -0.2448 -1.3386
14014SOL    HW144049   8.893   2.651  10.230  1.1630 -1.5904 -0.4375
14014SOL    HW244050   8.819   2.752  10.315 -0.9392 -1.6841 -2.0662
14015SOL     OW44051   9.816   1.865   0.796  0.1719 -0.4688  0.5202
14015SOL    HW144052   9.858   1.946   0.767  0.6258 -1.1205 -0.7164
14015SOL    HW244053   9.755   1.892   0.864  0.7393  0.8324  0.5295
14016SOL     OW44054   4.774   7.409   0.092 -0.3944  0.1124  1.0156
14016SOL    HW144055   4.813   7.324   0.074  1.8551  1.3605 -0.4289
14016SOL    HW244056   4.795   7.427   0.183  1.1931  0.1200  0.6667
14017SOL     OW44057   9.100   5.510   4.574  0.5478 -0.0092 -0.3738
14017SOL    HW144058   9.157   5.443   4.536 -1.5462 -1.5890 -0.8621
14017SOL    HW244059   9.015   5.468   4.583 -0.8175  2.5382 -0.4730
14018SOL     OW44060   6.328   0.597   9.245 -0.1743  0.1002  0.5438
14018SOL    HW144061   6.406   0.575   9.296  0.9830 -0.4751 -1.3522
14018SOL    HW244062   6.363   0.637   9.165 -1.9632  3.1249  1.1037
14019SOL     OW44063   3.129   7.548   7.689  0.2919 -0.4834  0.0943
14019SOL    HW144064   3.167   7.479   7.634  2.3061 -1.1434  2.1088
14019SOL    HW244065   3.205   7.585   7.735 -1.1151  1.0146  1.3151
14020SOL     OW44066   9.360   4.533   9.634 -0.3638  0.4194 -0.5190
14020SOL    HW144067   9.282   4.485   9.664 -0.0831  0.4414  0.2781
14020SOL    HW244068   9.414   4.466   9.592 -0.1696  0.1013  0.2105
14021SOL     OW44069   1.780   7.968   6.857 -0.0736  0.0255  0.3211
14021SOL    HW144070   1.839   7.981   6.932  1.2493  1.2114 -0.8565
14021SOL    HW244071   1.821   7.899   6.806  0.4300  0.9741 -0.5930
14022SOL     OW44072   3.064   3.277   0.883  0.0765  0.5130 -0.7030
14022SOL    HW144073   3.034   3.342   0.820 -1.9763  2.1346  1.7346
14022SOL    HW244074   3.002   3.284   0.956  1.5499 -2.1298  0.9785
14023SOL     OW44075   5.143   3.964   7.516 -0.8188 -0.2960 -0.0479
14023SOL    HW144076   5.104   4.030   7.574 -0.8968 -0.1670 -0.2442
14023SOL    HW244077   5.102   3.882   7.542 -0.5563 -0.3022  0.3477
14024SOL     OW44078   7.237   7.039   2.140 -0.1957  0.0293 -0.1313
14024SOL    HW144079   7.181   6.962   2.153 -4.5060  2.7497 -0.7694
14024SOL    HW244080   7.305   7.030   2.207 -0.6351 -4.0892  0.0087
14025SOL     OW44081   8.544   2.534   5.331  0.6014  0.2184  0.1383
14025SOL    HW144082   8.544   2.592   5.255  0.2953 -0.0944 -0.1004
14025SOL    HW244083   8.591   2.456   5.302 -1.9763 -1.1140 -0.6724
14026SOL     OW44084   1.748  10.992   7.068 -0.7324 -0.3770  0.3292
14026SOL    HW144085   1.655  10.977   7.050 -0.5561  0.7232 -1.7860
14026SOL    HW244086   1.784  11.022   6.985  1.8912 -2.3229  0.6282
14027SOL     OW44087   5.621   5.691   8.772 -0.2265 -0.0644 -0.3057
14027SOL    HW144088   5.568   5.691   8.693  0.4407 -0.2507 -0.7594
14027SOL    HW244089   5.579   5.627   8.830 -1.0852  0.5333 -0.2478
14028SOL     OW44090   1.837   9.378   4.363  0.0765  0.6744  0.5623
14028SOL    HW144091   1.843   9.379   4.268 -0.0325  3.0323  0.5115
14028SOL    HW244092   1.765   9.318   4.382  0.0533  0.2261 -0.8214
14029SOL     OW44093   8.757   4.492   6.803 -0.2459 -0.2597  0.3349
14029SOL    HW144094   8.809   4.421   6.765 -0.5925 -0.3406  0.0050
14029SOL    HW244095   8.820   4.563   6.818 -0.0835 -0.2602 -0.3070
14030SOL     OW44096  10.656   2.008   5.674 -0.3284 -0.4048  0.3797
14030SOL    HW144097  10.612   1.928   5.702 -2.0633 -0.1172 -1.3513
14030SOL    HW244098  10.636   2.071   5.744 -0.9798 -0.8304  0.5903
14031SOL     OW44099   2.563   6.606   0.727  0.2699 -0.2272 -0.5255
14031SOL    HW144100   2.654   6.635   0.723  0.1581  0.0471 -1.3817
14031SOL    HW244101   2.549   6.582   0.819  1.1226 -0.0209 -0.3329
14032SOL     OW44102   9.029   4.574   9.345  0.1600  0.6218  0.3963
14032SOL    HW144103   8.953   4.592   9.289 -1.9785 -0.9623  2.5750
14032SOL    HW244104   9.006   4.613   9.429  1.4618 -0.4952  1.3001
14033SOL     OW44105  10.327   6.605   8.777 -0.1013  0.0016  0.3418
14033SOL    HW144106  10.288   6.689   8.804  2.5673  2.2081 -1.9943
14033SOL    HW244107  10.376   6.576   8.854 -1.6483  0.1300  1.4261
14034SOL     OW44108   8.555   1.332   7.134  0.5285  0.7082  0.0743
14034SOL    HW144109   8.578   1.242   7.157  0.1071  0.3802 -0.7378
14034SOL    HW244110   8.639   1.373   7.113  0.6095  0.1165 -0.8249
14035SOL     OW44111   4.466   8.192  10.964  0.3338  0.3696 -0.0050
14035SOL    HW144112   4.385   8.142  10.964  0.3571  0.3215  0.5874
14035SOL    HW244113   4.531   8.132  11.003  0.8534  0.0953 -1.2624
14036SOL     OW44114  10.556   6.582   9.781 -0.1710 -0.2188 -0.1682
14036SOL    HW144115  10.564   6.644   9.854  1.7410  0.2912 -0.7480
14036SOL    HW244116  10.538   6.637   9.705 -1.4444 -0.6855 -0.2182
14037SOL     OW44117   6.935   8.075   7.916  0.0172  0.4045 -0.0332
14037SOL    HW144118   6.858   8.087   7.972  1.6888 -0.3113  2.5664
14037SOL    HW244119   6.948   8.160   7.875 -2.5121  0.3736 -1.1249
14038SOL     OW44120   4.872   3.254   5.003  0.2961 -0.2673  0.5004
14038SOL    HW144121   4.952   3.303   5.021 -0.6048  1.8550 -0.8879
14038SOL    HW244122   4.811   3.319   4.969 -1.6479 -2.0371  0.3998
14039SOL     OW44123   3.072   0.870   7.542  0.6405  0.2706 -0.0746
14039SOL    HW144124   3.014   0.816   7.488 -0.4551  0.6688  0.6545
14039SOL    HW244125   3.142   0.811   7.569  0.0657 -0.4831 -0.2056
14040SOL     OW44126  10.606  10.296   5.074  0.1744 -0.4676 -0.1491
14040SOL    HW144127  10.612  10.222   5.013 -0.1602 -0.8858  0.3213
14040SOL    HW244128  10.540  10.353   5.035  0.8360 -0.1386 -0.8023
14041SOL     OW44129   5.587   4.695   9.400 -0.1141 -0.7082  0.5822
14041SOL    HW144130   5.630   4.614   9.371  0.3639 -0.8454  1.5983
14041SOL    HW244131   5.575   4.746   9.321  0.6568 -1.2806  0.0817
14042SOL     OW44132   8.948   7.535   0.221  0.6904 -0.2697 -0.1776
14042SOL    HW144133   8.975   7.463   0.278  0.5670 -0.6584 -0.5999
14042SOL    HW244134   8.954   7.613   0.276 -0.6506 -0.7882  0.7577
14043SOL     OW44135   3.625   5.725   7.724 -0.0621  0.4873 -0.1551
14043SOL    HW144136   3.600   5.677   7.645  0.0930  1.7325 -0.9871
14043SOL    HW244137   3.649   5.657   7.787 -2.5058 -0.6540 -0.3414
14044SOL     OW44138   0.529   7.421  10.204 -0.0266  0.4004  0.1914
14044SOL    HW144139   0.482   7.493  10.160 -1.7548 -0.3464  0.7162
14044SOL    HW244140   0.480   7.343  10.180  0.3574 -0.2954  1.5780
14045SOL     OW44141   7.331   7.883   2.801  0.0392 -0.4145 -0.3349
14045SOL    HW144142   7.332   7.840   2.715 -0.5170 -0.5825 -0.2635
14045SOL    HW244143   7.421   7.911   2.815  0.2748 -0.9841 -0.6718
14046SOL     OW44144   6.878   1.697   6.486  0.2402  0.9600 -0.0033
14046SOL    HW144145   6.892   1.681   6.392  1.8772  0.0292  0.3620
14046SOL    HW244146   6.914   1.785   6.500  0.0275  1.0862 -0.2277
14047SOL     OW44147   6.790   8.042   3.143 -0.2074 -0.0576  0.0408
14047SOL    HW144148   6.873   8.017   3.184  0.1009  2.1046  0.8851
14047SOL    HW244149   6.723   8.012   3.204  0.0497 -0.1954  0.2593
14048SOL     OW44150   5.595   2.890   8.875  0.0479 -0.1244  0.3537
14048SOL    HW144151   5.586   2.919   8.784 -1.1398  2.2289  1.1371
14048SOL    HW244152   5.688   2.868   8.884  0.5560  1.3039 -0.9598
14049SOL     OW44153   1.097   0.360   3.866  0.0276  0.0096 -0.2446
14049SOL    HW144154   1.100   0.265   3.858 -0.8074 -0.0702  0.3209
14049SOL    HW244155   1.136   0.378   3.952  2.2831  0.3630 -1.2574
14050SOL     OW44156   7.580   1.249   1.491  0.2939  0.3865  0.3571
14050SOL    HW144157   7.676   1.252   1.496  0.4145  1.3925  6.6334
14050SOL    HW244158   7.555   1.341   1.479 -0.0364  0.0182 -2.1977
14051SOL     OW44159   1.699   8.180   6.282  0.2868  0.1398 -0.5348
14051SOL    HW144160   1.764   8.250   6.292  0.9585 -0.4409 -0.8073
14051SOL    HW244161   1.667   8.190   6.193  1.5491 -0.8862 -1.1197
14052SOL     OW44162   5.738   6.240   1.026  0.0860  0.2012 -0.4765
14052SOL    HW144163   5.656   6.192   1.035  1.1075 -1.2852  2.3812
14052SOL    HW244164   5.735   6.306   1.096  1.3823  0.0149 -0.2230
14053SOL     OW44165   0.774   3.032   5.848  0.3413  0.0064 -0.0986
14053SOL    HW144166   0.825   3.029   5.767  0.5439 -0.6617  0.0491
14053SOL    HW244167   0.709   2.963   5.839 -0.7886  1.0861 -0.4373
14054SOL     OW44168   1.092   6.626   8.344  0.0387  0.4800  0.9028
14054SOL    HW144169   1.115   6.574   8.267 -0.0698  2.1104 -0.2867
14054SOL    HW244170   1.168   6.618   8.402  0.4111 -0.2265  0.3334
14055SOL     OW44171   3.849   4.768  10.138  0.0940 -0.4536 -0.2868
14055SOL    HW144172   3.837   4.792  10.230 -1.1939 -1.3654 -0.1903
14055SOL    HW244173   3.933   4.807  10.114  0.5485 -0.3507  1.3264
14056SOL     OW44174  10.503   6.947   5.554  0.2938  0.0627  0.2007
14056SOL    HW144175  10.580   6.902   5.589 -0.0917 -0.7248  0.0511
14056SOL    HW244176  10.491   7.022   5.612  1.2138  0.2392  0.1856
14057SOL     OW44177   8.421   9.052   2.666  0.6269  0.4833  0.6014
14057SOL    HW144178   8.430   9.014   2.579 -0.3822  0.5995  0.4357
14057SOL    HW244179   8.421   8.978   2.725 -0.3649  0.2780  0.3582
14058SOL     OW44180   1.322  10.844   6.048  0.3323 -0.0743 -0.6716
14058SOL    HW144181   1.404  10.809   6.084 -0.0490 -0.9056 -0.5755
14058SOL    HW244182   1.301  10.918   6.105  0.3745 -0.6214  0.0730
14059SOL     OW44183   6.924   9.621   4.054 -0.3770 -0.1903  0.0180
14059SOL    HW144184   6.977   9.634   4.133  0.3823 -0.1736 -0.4944
14059SOL    HW244185   6.872   9.701   4.047  2.0570  1.3678 -1.4137
14060SOL     OW44186  10.805   2.274   9.178  0.4344 -0.1205  0.1817
14060SOL    HW144187  10.855   2.339   9.227  0.2284  0.0782  0.1324
14060SOL    HW244188  10.860   2.196   9.178  1.5530  0.6126 -1.3778
14061SOL     OW44189   8.899   3.750   0.135 -0.6070 -0.0229  0.0525
14061SOL    HW144190   8.979   3.768   0.184 -0.4800  1.2767 -0.5734
14061SOL    HW244191   8.836   3.815   0.166 -1.5822 -1.3146  0.8568
14062SOL     OW44192   6.853   3.736   3.059 -0.0948  0.9408 -0.4250
14062SOL    HW144193   6.787   3.759   3.125  0.4731  2.3097 -0.2922
14062SOL    HW244194   6.842   3.802   2.991 -0.3402 -0.1709 -1.4809
14063SOL     OW44195  10.281   7.054  10.200 -0.2336  0.0821 -0.2588
14063SOL    HW144196  10.270   7.082  10.291  1.2000 -3.1901  1.0689
14063SOL    HW244197  10.196   7.018  10.176  0.1483 -1.7151  0.8966
14064SOL     OW44198   1.762   4.437   7.197 -0.3841 -0.6223 -0.5701
14064SOL    HW144199   1.852   4.430   7.229 -0.3621 -2.1457 -0.8904
14064SOL    HW244200   1.760   4.385   7.117 -2.2741 -3.4357  1.1233
14065SOL     OW44201   1.184   0.002   8.370  0.1198 -0.1020  0.0426
14065SOL    HW144202   1.214  -0.072   8.317 -0.1100 -0.2459  0.1124
14065SOL    HW244203   1.095   0.019   8.339 -0.2777 -0.6445  0.8612
14066SOL     OW44204   5.205   0.374   0.141  0.4888 -0.8904  0.1288
14066SOL    HW144205   5.146   0.344   0.073 -0.7369  1.8526 -0.1660
14066SOL    HW244206   5.275   0.420   0.094 -0.6187  1.4492  0.5893
14067SOL     OW44207   2.433   5.823   7.336  0.3746 -0.0866 -0.1123
14067SOL    HW144208   2.412   5.744   7.285  0.0368  0.0976 -0.2612
14067SOL    HW244209   2.504   5.795   7.395 -1.2977 -1.1953  1.5153
14068SOL     OW44210   3.397   1.544   3.595 -0.2548  0.2255  0.0605
14068SOL    HW144211   3.324   1.605   3.604  1.2367  2.4949 -1.8712
14068SOL    HW244212   3.471   1.589   3.636  0.8772 -0.2034 -1.3948
14069SOL     OW44213   9.437   7.267   5.024  0.1928  0.1636  0.2109
14069SOL    HW144214   9.448   7.304   4.936 -1.8242  2.1329  0.6877
14069SOL    HW244215   9.510   7.303   5.074 -0.1881  1.3351 -0.0306
14070SOL     OW44216   7.799   5.746   1.059  0.1556  0.4471 -0.2366
14070SOL    HW144217   7.727   5.795   1.100  0.2053  0.6151 -0.3470
14070SOL    HW244218   7.775   5.743   0.966  0.0561  0.0928 -0.1990
14071SOL     OW44219   4.878   2.286   2.455  0.0886 -0.0518  0.3548
14071SOL    HW144220   4.881   2.313   2.547 -0.2456 -0.3068  0.4412
14071SOL    HW244221   4.929   2.353   2.409  1.1296 -0.4738  0.8548
14072SOL     OW44222   2.373   7.503   2.655 -0.0563  0.1309 -0.0059
14072SOL    HW144223   2.322   7.537   2.728  0.7485  2.2473 -0.3709
14072SOL    HW244224   2.464   7.506   2.685  0.1034 -1.2957 -0.2479
14073SOL     OW44225   6.104   2.290   4.192  0.0037 -0.1495  0.5638
14073SOL    HW144226   6.040   2.248   4.135  1.5331 -1.0600 -0.5449
14073SOL    HW244227   6.129   2.370   4.145 -1.5319  1.1443  1.8105
14074SOL     OW44228   4.178  10.088   7.554  0.4712 -0.9136 -0.2639
14074SOL    HW144229   4.259  10.137   7.571 -0.9634  0.7843  2.5299
14074SOL    HW244230   4.155  10.052   7.639 -2.8299  0.5830 -0.3882
14075SOL     OW44231  10.007   2.966   7.928 -0.0615 -0.1210 -0.2972
14075SOL    HW144232   9.967   2.895   7.977  1.7822 -1.4581 -0.5915
14075SOL    HW244233  10.101   2.945   7.929  0.5177  2.2242 -0.5660
14076SOL     OW44234   2.853   1.424   3.076 -0.1873  0.3352  0.1962
14076SOL    HW144235   2.924   1.374   3.115 -0.2073  0.6757  0.6834
14076SOL    HW244236   2.781   1.362   3.067 -0.2157  0.2720  0.8058
14077SOL     OW44237  10.074   8.724   6.931 -0.2451 -0.0645  0.0068
14077SOL    HW144238  10.046   8.663   7.000 -0.1748 -0.0264  0.0696
14077SOL    HW244239  10.076   8.809   6.974  0.9338 -0.2091  0.2831
14078SOL     OW44240   5.213   0.005   0.220 -0.4639 -0.5661 -0.2966
14078SOL    HW144241   5.245   0.082   0.266  0.5853 -1.1575 -0.0187
14078SOL    HW244242   5.122  -0.005   0.250 -0.6106  0.5448 -0.3411
14079SOL     OW44243  10.411   0.105   1.962  0.2343  0.7845  0.0228
14079SOL    HW144244  10.468   0.152   1.902 -0.3398  0.6194 -0.6602
14079SOL    HW244245  10.358   0.048   1.906  1.2517 -1.0875  0.8660
14080SOL     OW44246   2.516   9.969   5.937 -0.7248  0.0221 -0.6549
14080SOL    HW144247   2.578  10.032   5.972 -1.0963  0.4928 -0.8365
14080SOL    HW244248   2.550   9.947   5.850 -1.5836  1.3987 -1.3654
14081SOL     OW44249   3.935  10.438   1.939  0.1880  1.1540 -0.2007
14081SOL    HW144250   3.982  10.509   1.895 -0.4412  1.1056 -0.9790
14081SOL    HW244251   3.937  10.366   1.876  1.9430  0.0011  1.0782
14082SOL     OW44252   8.039   1.620   8.468 -0.4617 -0.1258 -0.0164
14082SOL    HW144253   7.982   1.548   8.491 -0.1093 -0.3338  0.2191
14082SOL    HW244254   8.049   1.613   8.373 -0.2262 -0.5451  0.0351
14083SOL     OW44255   4.298   3.900   3.647  0.1720 -0.7281  0.2016
14083SOL    HW144256   4.270   3.941   3.729  3.3706  0.6937  0.7167
14083SOL    HW244257   4.287   3.968   3.581  2.4257 -0.0518  0.4592
14084SOL     OW44258   6.333   2.604   2.921  0.2307 -0.3319 -0.4356
14084SOL    HW144259   6.368   2.692   2.938  0.7508 -0.3956 -1.1287
14084SOL    HW244260   6.295   2.611   2.833  0.4117 -0.8400 -0.5555
14085SOL     OW44261   0.340   9.604   5.056  0.3342 -0.6254 -0.2959
14085SOL    HW144262   0.279   9.577   5.125  0.0375  0.7926  0.0156
14085SOL    HW244263   0.366   9.692   5.080  0.7586 -0.3614 -1.6442
14086SOL     OW44264   8.133   0.848   0.565  0.1691 -0.5266 -0.1685
14086SOL    HW144265   8.042   0.869   0.542  0.1952 -0.3653 -0.1272
14086SOL    HW244266   8.132   0.840   0.660  0.4411  0.6882 -0.0517
14087SOL     OW44267   7.945   9.359   2.011 -0.6067 -0.5375  0.0641
14087SOL    HW144268   7.886   9.434   2.000  0.3184 -0.0676 -2.1193
14087SOL    HW244269   7.887   9.285   2.027 -1.6186  0.3724  0.7754
14088SOL     OW44270   3.643  10.490   1.036 -0.3124  0.2737 -0.5389
14088SOL    HW144271   3.655  10.574   1.080 -0.3107  1.3236 -2.4577
14088SOL    HW244272   3.731  10.454   1.028 -0.2918  0.1613  0.0741
14089SOL     OW44273   8.732   1.984   5.998  0.0473  0.5089 -0.0493
14089SOL    HW144274   8.772   1.987   5.911 -0.6864  1.9903 -0.3749
14089SOL    HW244275   8.687   2.068   6.006 -2.8737 -0.9712  0.3573
14090SOL     OW44276  10.476  10.938  10.044 -0.1714  0.2954  0.0580
14090SOL    HW144277  10.454  11.015   9.991  1.8638  1.4881  0.8303
14090SOL    HW244278  10.556  10.903  10.004  0.2491 -0.0009  1.1230
14091SOL     OW44279   5.719   7.190   8.874 -0.0229  0.4525 -0.6677
14091SOL    HW144280   5.810   7.163   8.890  0.5729  1.5663 -2.0014
14091SOL    HW244281   5.690   7.134   8.802 -0.2239  0.4374 -0.5736
14092SOL     OW44282   4.394   0.395   3.402 -0.5854 -0.3578 -0.5124
14092SOL    HW144283   4.390   0.361   3.491  0.8748 -2.2489 -1.0896
14092SOL    HW244284   4.359   0.484   3.408 -2.9356 -1.3084  1.4368
14093SOL     OW44285   2.153   9.452   1.686  0.0615  0.4302 -0.2571
14093SOL    HW144286   2.135   9.545   1.671  1.7938  0.7426 -0.5657
14093SOL    HW244287   2.133   9.410   1.602 -2.5737  0.1710  0.4146
14094SOL     OW44288   0.925   0.509   0.626 -0.4073 -0.0850  0.5686
14094SOL    HW144289   0.901   0.490   0.535 -1.4286  0.2475  0.7517
14094SOL    HW244290   0.943   0.603   0.626 -1.0548  0.0498  0.8244
14095SOL     OW44291  10.946   6.207   3.584  0.6511  0.4963 -0.1424
14095SOL    HW144292  10.977   6.285   3.629 -1.2081  0.4901  1.2969
14095SOL    HW244293  11.006   6.195   3.511  2.0621  2.2032  0.6719
14096SOL     OW44294   3.963   5.794   8.675  0.2139 -0.7155  0.0108
14096SOL    HW144295   3.942   5.873   8.724  0.4856 -0.6354  0.0014
14096SOL    HW244296   3.981   5.728   8.742  2.2252 -0.1854  0.0771
14097SOL     OW44297   5.171  10.345   6.654  0.5673 -0.5331  0.3399
14097SOL    HW144298   5.187  10.410   6.585  1.8623 -0.5653  0.5818
14097SOL    HW244299   5.076  10.334   6.655  0.4630  0.0699 -0.8848
14098SOL     OW44300   1.814  11.049   8.259  0.8629  0.2353  0.1448
14098SOL    HW144301   1.794  11.042   8.165 -1.9704 -0.6059  0.6868
14098SOL    HW244302   1.903  11.016   8.267  1.4080  0.8763 -2.3076
14099SOL     OW44303   4.315   5.736   0.793  0.0286  0.6964 -0.4656
14099SOL    HW144304   4.313   5.747   0.888  1.3090  0.0308 -0.3384
14099SOL    HW244305   4.224   5.719   0.769 -0.2767  0.6200  0.6686
14100SOL     OW44306   9.147   3.100   0.791 -0.3585  0.3734 -0.0991
14100SOL    HW144307   9.145   3.121   0.884  0.2573 -0.6768  0.1710
14100SOL    HW244308   9.125   3.007   0.786  3.3421 -0.6520 -0.5849
14101SOL     OW44309   4.781   5.207   4.196  0.3279  0.2556 -0.2069
14101SOL    HW144310   4.730   5.210   4.114 -1.7987  0.0826  1.0281
14101SOL    HW244311   4.866   5.243   4.172  0.6697 -2.0020 -3.0720
14102SOL     OW44312   8.873   1.403   3.027 -0.3366 -0.5175  0.3153
14102SOL    HW144313   8.828   1.372   3.105  0.4146 -1.6390  0.3234
14102SOL    HW244314   8.937   1.335   3.007  1.1531  0.8798  0.1339
14103SOL     OW44315   2.455   0.063  10.569 -0.2471 -0.5792  0.2359
14103SOL    HW144316   2.497  -0.022  10.584  1.4814  0.3090  0.6287
14103SOL    HW244317   2.424   0.059  10.478  1.5938 -0.9088 -0.4125
14104SOL     OW44318   7.570   9.871   7.178 -0.2867  0.7055  0.2037
14104SOL    HW144319   7.492   9.871   7.234 -0.5241  0.3699 -0.1172
14104SOL    HW244320   7.622   9.797   7.208 -1.3281 -0.6989 -1.2276
14105SOL     OW44321   2.315   0.653   9.272 -0.1408  0.0462  0.2431
14105SOL    HW144322   2.253   0.727   9.274 -1.8534 -1.3355  0.3304
14105SOL    HW244323   2.379   0.674   9.340  0.2241  2.0886 -0.6399
14106SOL     OW44324   9.182   0.163   3.457 -0.2091  0.2701 -0.4925
14106SOL    HW144325   9.142   0.223   3.521 -1.1860 -0.3629 -0.4866
14106SOL    HW244326   9.130   0.174   3.378 -0.5027 -0.6764 -0.4437
14107SOL     OW44327   1.017   7.146   7.985  0.1161  0.4843 -0.7057
14107SOL    HW144328   1.015   7.070   8.043  0.4270  0.2803 -0.9541
14107SOL    HW244329   1.038   7.220   8.041  2.0295  0.0545 -0.7803
14108SOL     OW44330   0.088   6.834   9.462 -0.3915 -0.1509  0.4379
14108SOL    HW144331   0.131   6.753   9.437  1.4215  1.0634 -0.6152
14108SOL    HW244332   0.090   6.888   9.383  0.8392  1.8902  1.7662
14109SOL     OW44333   5.225   5.310   9.158 -0.0645 -0.1905 -0.5547
14109SOL    HW144334   5.243   5.382   9.098  1.5082  0.1604  0.2961
14109SOL    HW244335   5.130   5.311   9.168 -0.3404 -0.0293 -2.7258
14110SOL     OW44336   9.182   6.642   9.724 -0.0749 -0.6879 -0.7573
14110SOL    HW144337   9.222   6.715   9.770  0.1067  0.2939 -2.3825
14110SOL    HW244338   9.226   6.564   9.758 -1.0243 -0.1964  1.8026
14111SOL     OW44339   5.331   7.811   3.077  0.1059 -0.5215  0.1403
14111SOL    HW144340   5.394   7.882   3.085 -0.2775 -0.0239 -1.0816
14111SOL    HW244341   5.260   7.836   3.136  1.4608 -1.6146  2.3680
14112SOL     OW44342   3.440   3.169   8.642 -0.0840  0.3897  0.1555
14112SOL    HW144343   3.424   3.075   8.631 -3.1637  0.5441  2.0729
14112SOL    HW244344   3.353   3.206   8.658  1.1767  3.4195  0.5984
14113SOL     OW44345   5.206   2.440   8.152 -0.5648 -0.1600  0.1946
14113SOL    HW144346   5.190   2.484   8.069 -1.0858 -2.0915 -0.7804
14113SOL    HW244347   5.300   2.424   8.154 -0.4321  0.6281  0.3729
14114SOL     OW44348   3.573   0.724   1.481  0.0924 -0.1308 -0.4241
14114SOL    HW144349   3.521   0.662   1.430 -2.0247  0.1876  1.1703
14114SOL    HW244350   3.644   0.751   1.422 -0.9426 -1.4060 -2.3651
14115SOL     OW44351   5.012   6.154   2.752 -0.0842  0.3875 -0.0646
14115SOL    HW144352   5.022   6.245   2.780  0.9412  0.0147  0.8405
14115SOL    HW244353   4.926   6.151   2.710  0.3461  2.0305 -1.1494
14116SOL     OW44354   1.538   1.287   8.250 -0.1186 -0.0000  0.1611
14116SOL    HW144355   1.601   1.321   8.313  0.5481 -0.6636 -0.1334
14116SOL    HW244356   1.493   1.217   8.296 -0.1771  0.0340  0.1552
14117SOL     OW44357   7.424   6.847   2.481 -0.2845  0.2377 -0.9196
14117SOL    HW144358   7.472   6.892   2.551 -2.0638  0.5311  0.1791
14117SOL    HW244359   7.443   6.898   2.402  0.4740  0.8588 -0.3546
14118SOL     OW44360   4.448   9.817   9.205  0.6543  0.8855 -0.0612
14118SOL    HW144361   4.482   9.730   9.225  0.2444  0.6296 -0.4502
14118SOL    HW244362   4.474   9.871   9.279  1.4813  0.5875 -0.1225
14119SOL     OW44363   8.783   9.493   6.199 -0.4682 -0.4300 -0.2161
14119SOL    HW144364   8.745   9.458   6.279 -1.3644  2.3153  0.6726
14119SOL    HW244365   8.817   9.579   6.223  3.0807 -1.1480 -1.8609
14120SOL     OW44366   0.808   0.693  10.296 -0.3064  0.4750  0.2739
14120SOL    HW144367   0.785   0.781  10.327 -1.2004  0.7646 -1.1018
14120SOL    HW244368   0.781   0.693  10.204 -0.0814 -1.1615  0.1869
14121SOL     OW44369   4.850   5.648   0.182 -0.3997 -0.0487 -0.6231
14121SOL    HW144370   4.807   5.598   0.252  1.4530  1.0960  1.4779
14121SOL    HW244371   4.869   5.733   0.222 -1.4351  1.5795 -3.3573
14122SOL     OW44372  10.695   5.037   2.919  0.5376  0.4252 -0.5405
14122SOL    HW144373  10.619   4.992   2.955  0.5114  0.3682 -0.6681
14122SOL    HW244374  10.759   5.037   2.990  0.6573 -0.0984 -0.6482
14123SOL     OW44375   3.798  11.098   2.236  0.8812 -0.1296  0.4019
14123SOL    HW144376   3.736  11.164   2.205  1.1167  0.0804  0.3725
14123SOL    HW244377   3.881  11.146   2.243  1.0666 -0.4405  0.3180
14124SOL     OW44378   2.724   7.133   2.037  0.3620 -0.2605 -0.4277
14124SOL    HW144379   2.652   7.186   2.072  1.0580  0.1483  0.4245
14124SOL    HW244380   2.714   7.048   2.079  2.3136  0.7689  2.4369
14125SOL     OW44381   0.412   7.657   9.993 -0.0284  0.1764  0.3085
14125SOL    HW144382   0.405   7.733   9.935 -0.6348  1.7749  2.3367
14125SOL    HW244383   0.459   7.690  10.070 -2.7362 -0.6232  2.4763
14126SOL     OW44384   2.647   6.553   8.495  0.1004  0.0575  0.1393
14126SOL    HW144385   2.681   6.474   8.536 -0.9862 -1.7174 -2.1639
14126SOL    HW244386   2.684   6.553   8.407 -0.1037  2.0390 -0.0013
14127SOL     OW44387   0.618   3.962   3.546 -1.0273 -0.3518  0.2540
14127SOL    HW144388   0.689   3.993   3.603  0.2926 -0.8789 -1.0197
14127SOL    HW244389   0.616   3.867   3.561  0.3265 -0.7314 -1.5313
14128SOL     OW44390   8.597   5.423   5.853  0.0352  0.7197 -0.2657
14128SOL    HW144391   8.584   5.442   5.760 -0.5904  2.3169  0.1106
14128SOL    HW244392   8.513   5.444   5.893  0.2202 -0.2058  0.6457
14129SOL     OW44393   8.121   0.760   1.057 -0.4917 -0.1282 -0.5996
14129SOL    HW144394   8.125   0.854   1.076  0.5024 -0.6036  1.9448
14129SOL    HW244395   8.196   0.744   1.001 -0.5515  0.5675 -0.8887
14130SOL     OW44396   7.985   1.565   6.687 -0.1526 -0.0389 -0.3894
14130SOL    HW144397   7.909   1.614   6.656  1.0316  0.7354 -2.2230
14130SOL    HW244398   8.060   1.620   6.664  0.9860 -0.6561  1.6151
14131SOL     OW44399   5.675   6.723   4.610  0.4932  0.6635  0.2365
14131SOL    HW144400   5.675   6.816   4.588  1.2866  0.6441  0.1161
14131SOL    HW244401   5.690   6.679   4.526 -0.8459  0.3764  0.1367
14132SOL     OW44402   2.255   7.175   5.460  0.3312  0.0344  0.0495
14132SOL    HW144403   2.188   7.144   5.520 -1.0052 -2.4465 -2.5021
14132SOL    HW244404   2.206   7.220   5.391  1.5212  0.2368 -0.6918
14133SOL     OW44405   3.844   5.006  11.057  0.1789 -0.1783  0.4716
14133SOL    HW144406   3.780   4.967  10.997  1.1778 -0.5211 -0.3927
14133SOL    HW244407   3.804   5.089  11.084 -0.5187 -0.2677 -0.2478
14134SOL     OW44408   0.022   3.996   9.278 -0.3137 -0.3907 -0.4624
14134SOL    HW144409   0.059   3.946   9.350  2.2705  1.2981 -0.4734
14134SOL    HW244410  -0.047   3.941   9.243  0.6620 -2.7664  1.1216
14135SOL     OW44411   0.655   8.064   7.113  0.1836  0.4195 -0.0579
14135SOL    HW144412   0.572   8.062   7.162  0.7135 -0.7788  0.8449
14135SOL    HW244413   0.629   8.068   7.021 -0.9838 -2.6235  0.0250
14136SOL     OW44414   0.841   3.514   2.472 -0.1590 -0.0801 -0.0270
14136SOL    HW144415   0.894   3.526   2.551 -1.4073  0.4779  0.7555
14136SOL    HW244416   0.774   3.582   2.477  0.2394  0.5149 -2.0200
14137SOL     OW44417   5.835   9.282   6.115 -0.1247  0.0080 -0.4612
14137SOL    HW144418   5.873   9.208   6.163  1.4295  2.2565  2.0174
14137SOL    HW244419   5.757   9.305   6.166 -1.7039 -0.9677 -2.2877
14138SOL     OW44420   5.337   4.767   3.402 -0.0296 -0.2707  0.5859
14138SOL    HW144421   5.337   4.771   3.306  0.4293 -0.2452  0.5850
14138SOL    HW244422   5.328   4.858   3.430  1.1127 -0.1324  0.5608
14139SOL     OW44423   5.451   2.110   7.782  0.4622 -0.5867  0.6018
14139SOL    HW144424   5.483   2.182   7.727 -0.4677 -1.1576 -0.7399
14139SOL    HW244425   5.531   2.064   7.810  0.9463 -1.3596 -1.8141
14140SOL     OW44426   7.083   2.676   6.512  0.3609  0.4086 -0.3089
14140SOL    HW144427   7.119   2.587   6.519 -0.1801  0.1375 -0.8642
14140SOL    HW244428   7.047   2.680   6.423 -0.6792  0.7829  0.1231
14141SOL     OW44429   3.898   8.684   8.665  0.3780 -0.6225 -0.3946
14141SOL    HW144430   3.863   8.603   8.629 -1.7180  0.3558 -0.7282
14141SOL    HW244431   3.934   8.659   8.750  0.4013 -2.0012 -0.7822
14142SOL     OW44432   7.191  10.367   5.418 -0.0595 -0.4898 -0.7109
14142SOL    HW144433   7.220  10.386   5.328  0.0745 -1.6404 -0.9199
14142SOL    HW244434   7.164  10.275   5.416 -2.5211  0.1552 -0.2008
14143SOL     OW44435   3.485   9.009   0.754 -0.4810 -0.1392 -0.1092
14143SOL    HW144436   3.436   8.938   0.796  2.1415 -2.5800 -0.8236
14143SOL    HW244437   3.555   9.029   0.816 -1.4240  2.2472  0.2661
14144SOL     OW44438   2.313   6.949   6.965 -0.2562  0.2061 -0.0240
14144SOL    HW144439   2.345   7.031   7.001 -0.5173  1.5039 -2.5204
14144SOL    HW244440   2.232   6.973   6.919 -0.0270 -1.3010 -1.3154
14145SOL     OW44441   7.317   5.567   3.056 -0.1746  0.3911 -0.2364
14145SOL    HW144442   7.303   5.521   3.139  1.2759 -2.1521 -1.2683
14145SOL    HW244443   7.391   5.625   3.072 -2.5042  3.2209  1.3076
14146SOL     OW44444   0.630   4.070  10.047 -0.1571  0.0075  0.3518
14146SOL    HW144445   0.579   4.108  10.119 -0.5446 -1.9508  1.1625
14146SOL    HW244446   0.564   4.045   9.982  0.0829  0.5423 -0.1056
14147SOL     OW44447   2.712   1.759   2.592  0.1299 -0.0917 -0.2187
14147SOL    HW144448   2.644   1.756   2.659  0.8664 -2.4400  0.5438
14147SOL    HW244449   2.774   1.824   2.624 -0.1589 -0.2725  0.7453
14148SOL     OW44450   6.335  10.906   8.903 -0.1226 -0.4487  0.0643
14148SOL    HW144451   6.335  10.998   8.927  2.1990 -0.1674 -0.7838
14148SOL    HW244452   6.410  10.869   8.948  0.9856 -1.1404 -2.2103
14149SOL     OW44453   2.522   0.021   3.661  0.3855 -0.5809 -0.1359
14149SOL    HW144454   2.572  -0.055   3.629  0.8140 -0.3342 -0.0555
14149SOL    HW244455   2.571   0.097   3.630  0.4263 -0.3349  0.5197
14150SOL     OW44456   4.323   4.579   3.355  0.1957  0.1801 -0.6435
14150SOL    HW144457   4.409   4.548   3.326  0.3800 -1.2560  1.2356
14150SOL    HW244458   4.270   4.580   3.275  1.6342  0.0134 -1.6505
14151SOL     OW44459   6.102   5.305   0.609  1.0669  0.8363 -1.0173
14151SOL    HW144460   6.044   5.325   0.683  0.2664 -0.0016 -1.4026
14151SOL    HW244461   6.183   5.353   0.629  1.3048 -0.2821  0.9762
14152SOL     OW44462   7.411   2.365   1.297  0.3593  0.1854 -0.8555
14152SOL    HW144463   7.452   2.370   1.210  0.7679  0.9106 -0.6238
14152SOL    HW244464   7.354   2.442   1.300  0.6746  0.3951 -0.3093
14153SOL     OW44465   5.900  10.846   4.737  0.6243  0.9189  0.2965
14153SOL    HW144466   5.825  10.831   4.795 -0.3626 -0.4155 -1.2307
14153SOL    HW244467   5.958  10.771   4.752  0.1823  0.3667 -0.6722
14154SOL     OW44468   6.282   6.792   9.345  0.3182  1.0498  0.0985
14154SOL    HW144469   6.206   6.794   9.287 -0.2116 -0.5506  0.6962
14154SOL    HW244470   6.358   6.796   9.286 -0.2079 -0.3752 -0.7142
14155SOL     OW44471   5.961   1.594  10.539  0.0333  0.1509  0.0690
14155SOL    HW144472   5.869   1.568  10.543  0.2101 -0.4439  0.3245
14155SOL    HW244473   6.006   1.530  10.593  1.3025 -2.6186 -3.8912
14156SOL     OW44474   2.601   1.707  10.831 -0.5286 -0.0320 -0.1564
14156SOL    HW144475   2.681   1.741  10.791 -0.2120  1.1073  1.3582
14156SOL    HW244476   2.631   1.648  10.900 -1.0059 -0.0344  0.0550
14157SOL     OW44477   9.239   3.017   8.843  0.0632 -0.5257  0.0671
14157SOL    HW144478   9.267   2.934   8.806 -1.5142  0.2311 -3.1743
14157SOL    HW244479   9.303   3.081   8.813 -1.6585  0.2302 -2.3171
14158SOL     OW44480   2.221   5.900   3.013  0.1582 -0.4932 -0.8915
14158SOL    HW144481   2.148   5.873   2.957 -1.1510 -0.1487  0.5722
14158SOL    HW244482   2.206   5.994   3.027 -0.1861 -0.7895  0.9057
14159SOL     OW44483   3.750   5.162   5.750  0.5252  1.0387 -0.1216
14159SOL    HW144484   3.760   5.069   5.727  0.3448  1.8067 -4.1233
14159SOL    HW244485   3.836   5.200   5.732 -0.2807  2.1247 -2.0211
14160SOL     OW44486   1.681   6.868   6.045 -0.3807 -0.1567 -0.2485
14160SOL    HW144487   1.669   6.950   5.998  4.4136  2.0690  1.7907
14160SOL    HW244488   1.661   6.888   6.136  0.2257 -1.4358  0.2024
14161SOL     OW44489   6.342  10.473   0.694 -0.4250 -0.2334 -1.0335
14161SOL    HW144490   6.263  10.419   0.688  1.0297 -2.8052  0.9773
14161SOL    HW244491   6.345  10.500   0.786  0.6754  0.4323 -1.2547
14162SOL     OW44492   7.595  10.519  11.001  0.3882  0.2664  0.5645
14162SOL    HW144493   7.583  10.552  11.090 -0.5197  1.7902 -0.0803
14162SOL    HW244494   7.654  10.582  10.960 -0.2251  0.3285 -0.2683
14163SOL     OW44495   6.932   1.277   8.713  0.2457 -0.3636 -0.5262
14163SOL    HW144496   6.960   1.227   8.637 -1.5025 -1.0489 -0.7527
14163SOL    HW244497   6.934   1.215   8.786 -0.7893 -0.4739 -0.5785
14164SOL     OW44498   7.843   9.851  10.845  0.5412 -0.0064  0.4447
14164SOL    HW144499   7.916   9.839  10.905  0.2830  1.3229  1.0802
14164SOL    HW244500   7.854   9.784  10.778  2.0751 -0.1161  0.7830
14165SOL     OW44501   5.916   7.355   6.331  0.1395  0.5711  0.3296
14165SOL    HW144502   6.007   7.364   6.303  0.0978 -0.6605 -0.2919
14165SOL    HW244503   5.873   7.435   6.302  0.1722 -0.4533 -2.9079
14166SOL     OW44504   0.211   7.793   6.364 -0.0677  0.0994 -0.4417
14166SOL    HW144505   0.160   7.787   6.284  0.3585  0.6653 -0.7669
14166SOL    HW244506   0.301   7.810   6.334 -0.0898  1.4477  0.1585
14167SOL     OW44507   6.305   4.006   9.239  0.5713 -0.6314  0.0804
14167SOL    HW144508   6.217   4.028   9.210  0.8362  0.9855  0.4395
14167SOL    HW244509   6.300   3.913   9.261 -0.5667 -1.0194 -1.6207
14168SOL     OW44510   4.309   3.293   1.961  0.2275  0.5829  0.1175
14168SOL    HW144511   4.295   3.202   1.988 -0.2288  0.6598  0.1540
14168SOL    HW244512   4.328   3.288   1.867  0.8047  0.4013  0.2407
14169SOL     OW44513   0.780  10.127   5.595 -0.0282  0.0310  0.0105
14169SOL    HW144514   0.777  10.223   5.591 -1.5678  0.0031 -0.3288
14169SOL    HW244515   0.717  10.099   5.528  0.5774 -1.2227 -0.0517
14170SOL     OW44516   2.959   1.887   5.958 -0.0452 -0.1658  0.4728
14170SOL    HW144517   2.998   1.840   5.884 -0.2247 -1.2821  1.0617
14170SOL    HW244518   2.897   1.947   5.918 -1.0201 -1.5993 -0.2562
14171SOL     OW44519   2.648   2.282   2.818  0.2400 -0.3500  0.0805
14171SOL    HW144520   2.649   2.311   2.726 -0.8782  1.2503  0.5329
14171SOL    HW244521   2.732   2.238   2.830  0.7099  0.0467 -1.5185
14172SOL     OW44522   4.066   8.652   7.110  0.4624  0.3450 -0.5559
14172SOL    HW144523   4.126   8.685   7.177  1.5608  0.9302 -1.8018
14172SOL    HW244524   4.054   8.559   7.132 -0.0242  0.7407  1.0305
14173SOL     OW44525   5.318   4.524   8.180  0.2285 -1.2274 -0.0022
14173SOL    HW144526   5.263   4.551   8.253 -0.1203 -0.6292 -0.4815
14173SOL    HW244527   5.397   4.490   8.222  0.1314 -0.6806  0.6529
14174SOL     OW44528   5.719   4.896   9.208 -0.3271  0.2220 -0.0142
14174SOL    HW144529   5.648   4.955   9.234  0.3824  0.7758  0.7183
14174SOL    HW244530   5.715   4.896   9.112 -0.5044  1.2845 -0.0283
14175SOL     OW44531   7.525   7.384   9.689 -0.0712 -0.2065 -0.4806
14175SOL    HW144532   7.560   7.417   9.606  0.1067 -1.0721 -0.7609
14175SOL    HW244533   7.571   7.301   9.703 -1.9664 -1.3889 -0.8621
14176SOL     OW44534   8.029   7.902   6.425 -0.0830  0.3584  0.1281
14176SOL    HW144535   8.121   7.890   6.401  0.0515  0.4879  0.5641
14176SOL    HW244536   7.989   7.940   6.347 -0.2511 -1.6761 -0.8422
14177SOL     OW44537  10.283   5.105  10.614  0.4136  0.0164  0.0266
14177SOL    HW144538  10.355   5.114  10.551  0.6339  0.9133  0.3970
14177SOL    HW244539  10.232   5.186  10.604 -2.3822 -1.8145 -2.4533
14178SOL     OW44540   4.457   5.802   3.297  0.3058  0.2292  0.3676
14178SOL    HW144541   4.508   5.849   3.363 -1.2109  2.4649  0.0495
14178SOL    HW244542   4.376   5.852   3.289  0.3374 -0.0105 -3.0371
14179SOL     OW44543   4.817   1.759   3.574 -0.0764 -0.4782  0.7837
14179SOL    HW144544   4.791   1.684   3.627 -0.3203 -0.3332  0.8642
14179SOL    HW244545   4.753   1.762   3.503 -1.1325  0.7121  1.7347
14180SOL     OW44546   9.212   1.985   6.185 -0.6900  0.0526 -0.3258
14180SOL    HW144547   9.174   1.904   6.151 -2.5000  0.4264  0.6795
14180SOL    HW244548   9.293   1.995   6.136  0.1227 -2.8746  0.2096
14181SOL     OW44549   5.046   1.203   1.586  0.0814  0.1979  0.0229
14181SOL    HW144550   5.036   1.118   1.628 -3.3973  0.4283 -0.1231
14181SOL    HW244551   5.088   1.184   1.502 -0.4008 -1.3333  0.1145
14182SOL     OW44552  10.769   5.334   2.428 -0.1507 -0.1557  1.0084
14182SOL    HW144553  10.735   5.328   2.339 -0.4364 -0.2045  1.1189
14182SOL    HW244554  10.737   5.255   2.472  2.5032 -1.7263  0.3363
14183SOL     OW44555   1.798   8.933   2.716 -0.0187  0.7419 -0.1021
14183SOL    HW144556   1.778   9.014   2.762  1.4235  2.3336 -2.0965
14183SOL    HW244557   1.803   8.958   2.623 -0.4934 -1.8281 -0.9078
14184SOL     OW44558   6.352   2.148   4.578 -0.0700  0.2905  0.6878
14184SOL    HW144559   6.355   2.054   4.559 -1.0462  0.0818  1.4326
14184SOL    HW244560   6.407   2.188   4.512 -1.0310 -0.6531 -0.7457
14185SOL     OW44561  10.085   0.788   5.142  0.2443  0.0922  0.3569
14185SOL    HW144562  10.007   0.733   5.141 -1.2839  2.1336  0.6932
14185SOL    HW244563  10.114   0.792   5.050  2.0446 -3.3368  0.6270
14186SOL     OW44564  11.004   8.472   6.188 -0.4641  0.3105  0.1775
14186SOL    HW144565  11.097   8.490   6.203 -0.0239 -1.4069 -0.1966
14186SOL    HW244566  10.974   8.544   6.133  0.7032  0.7958  0.1459
14187SOL     OW44567  10.787   8.524   2.437  0.9516  0.9272  0.8356
14187SOL    HW144568  10.850   8.472   2.487 -0.3087 -0.8327  0.6653
14187SOL    HW244569  10.804   8.500   2.346 -1.8502 -1.9915  0.9092
14188SOL     OW44570   5.056   1.108   5.920 -0.1418 -0.1756  0.2010
14188SOL    HW144571   5.149   1.118   5.940 -0.0566 -0.9242  0.2068
14188SOL    HW244572   5.029   1.194   5.886  0.0320  0.7305  2.2209
14189SOL     OW44573   0.799   8.697   8.482  0.1426  0.7153 -0.0921
14189SOL    HW144574   0.710   8.662   8.487  0.2644  0.5651  2.3734
14189SOL    HW244575   0.825   8.684   8.391 -2.2536  0.5536 -0.8265
14190SOL     OW44576   8.111   7.877   1.814 -0.0355 -0.8293  0.3072
14190SOL    HW144577   8.063   7.814   1.867 -0.4324 -1.3109 -0.6138
14190SOL    HW244578   8.047   7.944   1.791 -0.0230 -0.9494 -0.0855
14191SOL     OW44579   8.068   6.404  10.196 -0.0326 -0.3927 -0.0759
14191SOL    HW144580   8.153   6.427  10.157  0.1529 -0.1072  0.4940
14191SOL    HW244581   8.074   6.433  10.286 -0.6218 -0.6750  0.0591
14192SOL     OW44582  10.691   5.954   5.756 -0.0318  0.1424 -0.6808
14192SOL    HW144583  10.612   5.902   5.765 -1.0565  1.7856  0.3468
14192SOL    HW244584  10.719   5.942   5.666 -1.0892 -0.9587 -0.8717
14193SOL     OW44585   1.471   4.370   8.542 -0.2052  0.1967 -0.6061
14193SOL    HW144586   1.555   4.406   8.571 -0.3220 -0.3192  0.4376
14193SOL    HW244587   1.464   4.396   8.450  1.1646  0.1174 -0.7566
14194SOL     OW44588  10.413   6.878   6.139 -0.3127 -0.5657  0.7162
14194SOL    HW144589  10.335   6.930   6.123 -0.4562 -1.0474 -0.2353
14194SOL    HW244590  10.484   6.927   6.097 -0.2723 -0.6297  0.7098
14195SOL     OW44591   0.572  11.093   7.174 -0.7611  0.6980  0.6025
14195SOL    HW144592   0.528  11.029   7.118 -0.2955  1.7456 -0.9940
14195SOL    HW244593   0.661  11.060   7.183 -1.0829  0.0196  1.5920
14196SOL     OW44594   8.606   2.770   0.077 -0.7937  0.2884  0.0270
14196SOL    HW144595   8.620   2.797  -0.014 -1.9388 -1.8416 -0.8577
14196SOL    HW244596   8.539   2.830   0.109  0.8141  2.1455  0.0615
14197SOL     OW44597   3.148   4.578   6.060 -0.4061 -0.2474  0.0496
14197SOL    HW144598   3.239   4.591   6.037 -0.3550  1.5413  1.1021
14197SOL    HW244599   3.143   4.486   6.088  1.0525 -0.3738 -0.0575
14198SOL     OW44600   3.428   8.700  10.726  0.2152  0.0424 -0.1362
14198SOL    HW144601   3.432   8.730  10.636 -0.4565  0.6891  0.0383
14198SOL    HW244602   3.371   8.763  10.770 -0.3313 -0.8683  0.4955
14199SOL     OW44603   5.457  10.749   8.567  0.5199 -1.0502  0.7728
14199SOL    HW144604   5.513  10.753   8.645 -0.3753 -1.9713  1.4942
14199SOL    HW244605   5.479  10.665   8.527 -0.0283 -1.2166  0.8173
14200SOL     OW44606   4.033   9.845   9.839 -0.3173  0.0505 -0.4858
14200SOL    HW144607   4.082   9.788   9.899 -1.3513  1.3883  1.7892
14200SOL    HW244608   3.950   9.799   9.825 -0.3831  0.0781 -0.2100
14201SOL     OW44609   0.799   8.059   9.541 -0.0805 -0.4583  0.1081
14201SOL    HW144610   0.756   8.031   9.622 -0.2606 -1.6821 -0.3917
14201SOL    HW244611   0.730   8.054   9.474  0.6452 -1.9005 -0.5947
14202SOL     OW44612   1.459   0.273   6.198 -0.5447 -0.2283 -0.0382
14202SOL    HW144613   1.456   0.216   6.121  0.3558 -1.3938  0.7463
14202SOL    HW244614   1.386   0.244   6.253 -0.7357  0.0971 -0.1196
14203SOL     OW44615   9.069   7.032   7.644 -0.5538  0.3083  0.0898
14203SOL    HW144616   9.163   7.020   7.659 -0.3210  1.8504 -0.0605
14203SOL    HW244617   9.060   7.036   7.549 -0.7284  0.5013  0.1138
14204SOL     OW44618   4.211   4.685   1.780  0.1951  0.3113 -0.0268
14204SOL    HW144619   4.295   4.678   1.824  1.6439  1.7925 -2.3511
14204SOL    HW244620   4.183   4.775   1.796  0.4477  0.6773 -1.5492
14205SOL     OW44621   5.570   6.119   5.866  0.3576  0.3025  0.8714
14205SOL    HW144622   5.604   6.142   5.953 -1.1213 -0.1016  1.5940
14205SOL    HW244623   5.648   6.106   5.812  1.4043 -1.8245  2.7447
14206SOL     OW44624   0.578   1.814   2.480  0.4863 -0.0417  0.2159
14206SOL    HW144625   0.657   1.867   2.491  0.8741 -0.2057 -1.3990
14206SOL    HW244626   0.595   1.763   2.401 -0.0754 -2.2266  1.4201
14207SOL     OW44627   5.361   3.627  10.180 -0.5258 -1.0042 -0.1587
14207SOL    HW144628   5.345   3.674  10.262  0.5323 -0.2973 -0.3293
14207SOL    HW244629   5.345   3.692  10.112  1.5605 -0.6489 -0.3760
14208SOL     OW44630   2.859   5.368   6.115  0.4798 -0.9874  0.1605
14208SOL    HW144631   2.774   5.411   6.123  1.0160 -0.1546  2.0241
14208SOL    HW244632   2.853   5.291   6.172  0.4510 -1.8685 -0.9945
14209SOL     OW44633   8.881  10.563   7.831  0.4699 -0.0954  0.3714
14209SOL    HW144634   8.969  10.601   7.832  0.3687  0.3325 -1.6897
14209SOL    HW244635   8.822  10.638   7.824  0.2049 -0.4382 -2.5043
14210SOL     OW44636   2.036   4.126   7.159 -0.2482  0.1806  0.4748
14210SOL    HW144637   2.114   4.070   7.153 -0.9649 -0.7746 -0.1913
14210SOL    HW244638   1.963   4.065   7.165 -1.1388  0.9896 -1.3297
14211SOL     OW44639   3.126   1.176   8.005  0.0822 -0.0447  0.5652
14211SOL    HW144640   3.219   1.166   7.985  0.0620 -0.4334  0.6677
14211SOL    HW244641   3.083   1.111   7.951 -0.1425  0.2267  0.4197
14212SOL     OW44642   3.419   4.436   5.544 -0.1693  0.5088  0.2246
14212SOL    HW144643   3.457   4.422   5.631 -2.1715  2.0619  1.4391
14212SOL    HW244644   3.445   4.359   5.494  0.9809 -0.4761  2.2074
14213SOL     OW44645   7.782   0.325   9.195 -0.0583 -0.1492  0.5111
14213SOL    HW144646   7.760   0.315   9.288 -0.6533  0.0166  0.3922
14213SOL    HW244647   7.814   0.415   9.188 -2.2735  0.6825  0.1454
14214SOL     OW44648   3.819   4.455   8.280  0.8930 -0.1198  0.3185
14214SOL    HW144649   3.759   4.483   8.349  2.3359  0.5984  1.3499
14214SOL    HW244650   3.788   4.368   8.254 -0.1667 -0.0531  1.2922
14215SOL     OW44651   1.804   1.435   9.965  0.1112  0.3349 -0.1570
14215SOL    HW144652   1.790   1.452  10.058 -0.8947  2.9274 -0.6930
14215SOL    HW244653   1.743   1.494   9.921  0.3548 -1.0463 -2.4729
14216SOL     OW44654   5.114   8.135   6.675  0.3705  0.4751  0.6284
14216SOL    HW144655   5.076   8.064   6.728 -0.8619  0.8813  0.3196
14216SOL    HW244656   5.112   8.101   6.585 -0.0864  0.8201  0.4996
14217SOL     OW44657   3.237   3.283   7.103 -0.4661  0.1742 -0.0043
14217SOL    HW144658   3.179   3.337   7.049 -0.8912  1.4102  1.6167
14217SOL    HW244659   3.323   3.294   7.063 -0.6477  1.6003 -0.0483
14218SOL     OW44660   0.174   2.911   0.723  0.0121  0.0303 -0.5708
14218SOL    HW144661   0.214   2.887   0.640 -1.5815  0.1008 -1.3901
14218SOL    HW244662   0.114   2.982   0.702  0.9236  1.3485  0.9715
14219SOL     OW44663   5.067   6.232   3.586  0.7066 -0.5674  0.1236
14219SOL    HW144664   5.140   6.265   3.533  0.1160 -0.6101 -0.7261
14219SOL    HW244665   5.074   6.280   3.669  2.1219 -1.0796  0.3274
14220SOL     OW44666   5.238   8.920   6.287  0.1611  0.2690 -0.4435
14220SOL    HW144667   5.228   8.874   6.204  3.9059  1.4598 -1.7595
14220SOL    HW244668   5.325   8.895   6.318 -0.3591  1.3720  2.1511
14221SOL     OW44669   5.364   6.426   2.200 -0.3508 -0.1110 -0.2858
14221SOL    HW144670   5.350   6.346   2.150  0.6132 -0.3725 -0.1545
14221SOL    HW244671   5.440   6.408   2.255 -0.2710  0.8056 -0.0678
14222SOL     OW44672   0.908   5.396   4.520  0.0412 -0.0384  0.8370
14222SOL    HW144673   0.867   5.310   4.528 -2.1094  0.7993 -0.3810
14222SOL    HW244674   0.850   5.456   4.568  1.6550  0.7551  1.9303
14223SOL     OW44675   2.819  10.949   6.654  0.4001  0.3106 -0.7979
14223SOL    HW144676   2.868  10.927   6.575 -0.1081  1.0500 -1.3320
14223SOL    HW244677   2.728  10.960   6.625  0.1689  0.4074 -0.0796
14224SOL     OW44678   5.097   7.576  10.669  0.0804 -0.1076 -0.1368
14224SOL    HW144679   5.028   7.573  10.736  0.4160 -0.9783  0.1828
14224SOL    HW244680   5.130   7.666  10.674 -0.6609  0.1675  0.0741
14225SOL     OW44681   3.328   3.519   2.350 -0.5112 -0.6329  0.1338
14225SOL    HW144682   3.413   3.560   2.366  1.3468 -2.8491 -2.8591
14225SOL    HW244683   3.269   3.593   2.333  0.3758  1.0332  3.4128
14226SOL     OW44684   2.344   8.853   4.948 -0.1345 -0.6145 -0.0503
14226SOL    HW144685   2.428   8.821   4.981  0.6189  2.5411  1.5767
14226SOL    HW244686   2.278   8.806   4.999  0.7927 -0.8477  0.9678
14227SOL     OW44687   7.489   0.236   2.372  0.3776  0.0825  0.0188
14227SOL    HW144688   7.478   0.295   2.298  0.5117 -0.8834 -0.7947
14227SOL    HW244689   7.517   0.292   2.444 -0.6609  1.1797 -0.3984
14228SOL     OW44690   6.630  10.167   7.744  0.4140 -0.4247 -0.1735
14228SOL    HW144691   6.620  10.114   7.823  0.4524 -0.0814  0.0630
14228SOL    HW244692   6.696  10.120   7.692  1.4060  0.0519  0.6129
14229SOL     OW44693   8.915   1.879   7.007  0.6434  0.3517  0.5940
14229SOL    HW144694   8.995   1.828   7.015 -0.0820 -0.6087  2.2441
14229SOL    HW244695   8.908   1.898   6.913  2.7068  0.3616  0.3981
14230SOL     OW44696   1.100   4.520   8.068 -0.4628  1.1336  0.2687
14230SOL    HW144697   1.088   4.584   7.998  0.6675  1.8357  0.6924
14230SOL    HW244698   1.018   4.524   8.118 -0.5128  2.0492  0.1251
14231SOL     OW44699   3.000   3.419   6.639  0.4442 -0.4763 -0.1811
14231SOL    HW144700   3.012   3.451   6.550 -1.9480  1.6999  0.1596
14231SOL    HW244701   2.910   3.384   6.640 -0.3996  1.5131  1.8280
14232SOL     OW44702   1.179   6.358   0.578 -0.0174 -0.4914  0.5858
14232SOL    HW144703   1.168   6.312   0.494  0.4814  1.2007 -0.4524
14232SOL    HW244704   1.105   6.327   0.631 -1.2119 -0.5155 -0.9958
14233SOL     OW44705   3.209   1.156   5.757 -0.0148 -0.2955 -0.6553
14233SOL    HW144706   3.153   1.215   5.807  0.3822 -0.3888 -0.0935
14233SOL    HW244707   3.297   1.189   5.771  0.1067 -0.3463 -1.2693
14234SOL     OW44708   7.872   9.437   3.370 -0.5558  0.2917  0.7142
14234SOL    HW144709   7.781   9.428   3.397 -0.5214  1.2631  1.1860
14234SOL    HW244710   7.899   9.524   3.402 -0.1139  0.9352 -1.2465
14235SOL     OW44711   1.621   0.093   6.527  0.2907  0.2106  0.0024
14235SOL    HW144712   1.657   0.162   6.472  0.8081  1.6403  2.0504
14235SOL    HW244713   1.526   0.110   6.528  0.3762  0.6836  0.2109
14236SOL     OW44714  10.572   3.173  10.601 -0.3928  0.3321  0.1607
14236SOL    HW144715  10.521   3.097  10.575 -0.3734  0.6704 -0.8813
14236SOL    HW244716  10.652   3.168  10.549 -0.0261  0.6264  0.6825
14237SOL     OW44717   0.592   6.203   4.320 -0.1308 -0.2241 -0.7322
14237SOL    HW144718   0.556   6.286   4.350 -1.2150  0.2637 -3.1496
14237SOL    HW244719   0.549   6.187   4.237  0.7779 -2.7541 -0.7996
14238SOL     OW44720  10.690   7.906   7.923  0.1561 -0.1869  0.0049
14238SOL    HW144721  10.768   7.961   7.919  0.9340 -1.3397 -1.5162
14238SOL    HW244722  10.622   7.957   7.879  0.7987 -0.3018 -1.1557
14239SOL     OW44723   4.557   8.445  10.121  0.2880  0.5892  0.1449
14239SOL    HW144724   4.607   8.372  10.157 -1.3775  0.1180  1.6447
14239SOL    HW244725   4.566   8.515  10.186 -0.2455  0.8118 -0.0152
14240SOL     OW44726   2.734   1.685   6.967  0.0098 -0.1308 -0.5734
14240SOL    HW144727   2.688   1.619   7.019 -0.0879  0.0890 -0.3814
14240SOL    HW244728   2.741   1.646   6.879 -0.5144 -0.1759 -0.5959
14241SOL     OW44729   4.583  10.925   2.241 -0.1743  0.0440 -0.1184
14241SOL    HW144730   4.523  10.990   2.279  1.0372  1.3982 -0.4224
14241SOL    HW244731   4.665  10.940   2.286  0.8216  0.4847 -1.9621
14242SOL     OW44732   9.683  10.561   3.965  0.0411  0.0811  0.6033
14242SOL    HW144733   9.630  10.486   3.940 -0.6843  0.2999  1.4013
14242SOL    HW244734   9.723  10.536   4.049  0.2440  0.3658  0.5946
14243SOL     OW44735  10.336  10.097   5.884  0.3711 -0.2109 -0.1546
14243SOL    HW144736  10.317  10.124   5.795 -1.5739 -2.2191 -0.4371
14243SOL    HW244737  10.355  10.003   5.877  0.3521 -0.3763  1.5071
14244SOL     OW44738   2.746  10.073   2.386  0.0197 -0.3295 -0.4884
14244SOL    HW144739   2.741  10.131   2.310  0.5386 -0.1215 -0.3673
14244SOL    HW244740   2.838  10.072   2.410 -0.1430 -0.3713  0.1615
14245SOL     OW44741   3.565  10.972   4.986  0.1489 -0.1056 -0.8669
14245SOL    HW144742   3.473  10.971   4.959 -0.0605  1.3634 -0.3007
14245SOL    HW244743   3.568  11.034   5.059  1.1933 -1.8785  0.6825
14246SOL     OW44744   6.961   8.995   5.560 -0.2060  0.1957 -0.6881
14246SOL    HW144745   6.961   9.079   5.515 -0.9018  0.5836 -0.0006
14246SOL    HW244746   6.910   8.937   5.504  1.8193 -0.3158 -2.0860
14247SOL     OW44747   6.411   8.432   7.048 -0.2346  0.0796  0.1898
14247SOL    HW144748   6.417   8.346   7.089 -1.2480 -0.8841 -1.5678
14247SOL    HW244749   6.410   8.494   7.121 -0.0334 -1.4174  1.5066
14248SOL     OW44750   7.756   4.847  10.194 -0.0067 -0.2731  0.1404
14248SOL    HW144751   7.721   4.760  10.215  0.3568 -0.3003  0.6468
14248SOL    HW244752   7.678   4.902  10.185 -0.1816 -0.0902  2.3422
14249SOL     OW44753   5.697   4.964   6.013 -0.3074 -0.4232 -0.3393
14249SOL    HW144754   5.753   5.036   5.986  1.6094 -0.7895  2.2918
14249SOL    HW244755   5.609   4.990   5.985 -0.0195  3.8009  1.9305
14250SOL     OW44756   8.894   5.900   0.062 -0.0984  0.2921  0.3707
14250SOL    HW144757   8.854   5.827   0.015 -1.0276  0.2586  1.1840
14250SOL    HW244758   8.901   5.970  -0.003  0.8260 -0.5154 -0.4177
14251SOL     OW44759   2.115   1.875   5.209 -0.0594 -0.1048 -0.8028
14251SOL    HW144760   2.028   1.841   5.187 -0.3924 -0.4876  0.9478
14251SOL    HW244761   2.098   1.952   5.262  0.6859  0.0933 -0.8374
14252SOL     OW44762   0.057  10.025  10.009  0.1081  0.2509 -0.0149
14252SOL    HW144763   0.105   9.948  10.041 -1.1687 -0.7432 -0.3933
14252SOL    HW244764   0.036  10.004   9.918  1.0667  1.7414 -0.6233
14253SOL     OW44765   5.346  10.436   9.687 -0.6633  0.1594 -0.3052
14253SOL    HW144766   5.340  10.341   9.676  2.1576  0.1296 -2.7434
14253SOL    HW244767   5.274  10.470   9.634 -1.0187 -0.5742 -0.3175
14254SOL     OW44768   7.119   6.559  10.322  0.1845  0.7225  0.3548
14254SOL    HW144769   7.172   6.483  10.347  1.2371  1.7818  1.4277
14254SOL    HW244770   7.072   6.583  10.402 -2.1681 -0.3132 -0.6038
14255SOL     OW44771   0.974   6.338   3.858  0.6823  0.2717 -0.6114
14255SOL    HW144772   0.968   6.432   3.845  0.2876  0.2807 -0.3699
14255SOL    HW244773   0.997   6.327   3.950  0.3152  0.1206 -0.5372
14256SOL     OW44774   8.018   3.978  10.956 -0.3785  0.1195  0.1713
14256SOL    HW144775   7.998   3.943  10.869  0.4450 -3.0931  1.1603
14256SOL    HW244776   8.112   3.998  10.952 -0.6496  1.4502 -0.0869
14257SOL     OW44777  11.020   6.844   5.132 -0.7125  0.2625 -0.7865
14257SOL    HW144778  10.928   6.858   5.108 -0.4465  1.8550 -0.9884
14257SOL    HW244779  11.045   6.925   5.177  0.6025 -0.1385 -0.7662
14258SOL     OW44780  11.007   1.687   2.006  0.0802  0.4120 -0.3817
14258SOL    HW144781  10.937   1.691   2.071 -2.0632 -0.7189 -2.4666
14258SOL    HW244782  11.007   1.773   1.965 -0.5585  0.2313 -0.7816
14259SOL     OW44783   7.965   2.134  10.436  0.2408 -0.6173 -0.0088
14259SOL    HW144784   8.026   2.112  10.366 -1.0900  1.3927 -1.9468
14259SOL    HW244785   7.890   2.076  10.422 -0.8327  1.0207 -1.5564
14260SOL     OW44786  10.064   8.533   9.366  0.2990  0.1881 -0.2244
14260SOL    HW144787  10.040   8.484   9.445  1.0032  0.3193  0.0722
14260SOL    HW244788  10.049   8.471   9.295  1.5717 -0.6212  0.1821
14261SOL     OW44789   0.349   6.867   9.806 -0.7036  0.1038 -0.1209
14261SOL    HW144790   0.443   6.853   9.813 -0.5978  0.7585 -0.1826
14261SOL    HW244791   0.328   6.931   9.875 -0.7739  1.4046 -1.2985
14262SOL     OW44792   4.458   2.731   6.242 -0.1682 -0.2008  0.5038
14262SOL    HW144793   4.512   2.763   6.315  0.6570  1.5811 -0.8106
14262SOL    HW244794   4.418   2.810   6.206  0.8833 -0.7703 -2.0963
14263SOL     OW44795   0.253  10.469   5.736 -0.1117  0.1948 -0.0664
14263SOL    HW144796   0.322  10.517   5.690 -1.2004  2.1910  0.2231
14263SOL    HW244797   0.240  10.518   5.817  0.0264 -1.7847  1.2156
14264SOL     OW44798   7.818   3.634   3.367 -0.0943 -0.4299 -0.7262
14264SOL    HW144799   7.810   3.591   3.453  0.2686 -2.2336 -1.5499
14264SOL    HW244800   7.902   3.679   3.372  0.0539 -0.7434 -0.2256
14265SOL     OW44801   5.628   7.845   4.605 -0.0743  0.1805  0.3642
14265SOL    HW144802   5.594   7.781   4.543  0.0248  0.6302 -0.1551
14265SOL    HW244803   5.569   7.838   4.681  0.8460 -1.6046  0.9553
14266SOL     OW44804   6.375   6.376  10.119  0.0233 -0.5250  0.0816
14266SOL    HW144805   6.406   6.306  10.061  1.0802  0.1854 -0.2245
14266SOL    HW244806   6.289   6.399  10.084  0.7170  0.0199 -1.3511
14267SOL     OW44807   4.233   2.377  10.986  0.4733 -0.6996  0.3034
14267SOL    HW144808   4.166   2.367  10.918  0.4132 -1.9855  0.5385
14267SOL    HW244809   4.316   2.371  10.939  0.4306 -1.5016  0.3180
14268SOL     OW44810   9.209   7.150   4.587  0.2290 -0.6554  0.0756
14268SOL    HW144811   9.185   7.117   4.501  2.8862  0.8200 -1.3575
14268SOL    HW244812   9.233   7.072   4.638  4.2056 -1.3709 -2.4775
14269SOL     OW44813  10.725   7.348   6.639  0.3718  0.2867 -0.6052
14269SOL    HW144814  10.695   7.395   6.717  0.3289  0.0319 -0.4693
14269SOL    HW244815  10.686   7.261   6.646 -1.1390  0.8172 -1.8379
14270SOL     OW44816   9.216   6.036   4.422  0.1314  0.2693 -0.0952
14270SOL    HW144817   9.231   5.955   4.374  0.2495 -0.1810  0.6824
14270SOL    HW244818   9.143   6.078   4.378  1.3626  0.7508 -1.7759
14271SOL     OW44819   9.672   2.392   6.833  0.1969 -0.3234  0.0449
14271SOL    HW144820   9.629   2.477   6.843  2.6419  0.8943  1.1191
14271SOL    HW244821   9.696   2.388   6.740 -0.3164 -0.0542 -0.1042
14272SOL     OW44822   3.971   0.980   4.285  0.3393  0.6968 -0.3057
14272SOL    HW144823   3.923   1.051   4.241 -0.5729 -0.1383 -0.7003
14272SOL    HW244824   3.991   0.918   4.215  1.4342  0.7155 -0.0211
14273SOL     OW44825   1.303   7.757   5.142  0.0582  0.6571 -0.3599
14273SOL    HW144826   1.213   7.784   5.164 -0.1464 -0.8079  0.6967
14273SOL    HW244827   1.352   7.770   5.223  0.3653 -0.3586 -0.3788
14274SOL     OW44828   6.548   5.842   1.011  0.3387  0.1607  0.6126
14274SOL    HW144829   6.586   5.754   1.007  1.8332  0.7365  1.1544
14274SOL    HW244830   6.532   5.866   0.920  0.3744 -0.4776  0.4328
14275SOL     OW44831   0.766   6.944   2.942  0.0854 -0.3362 -0.0246
14275SOL    HW144832   0.703   6.995   2.892  0.8801 -0.2767 -0.9871
14275SOL    HW244833   0.788   6.870   2.885  0.7552 -0.4434  0.3633
14276SOL     OW44834   2.483   8.301   0.121  0.3837 -0.1574  0.7885
14276SOL    HW144835   2.424   8.300   0.196  0.6124 -0.8855  0.9681
14276SOL    HW244836   2.446   8.367   0.062 -0.2653 -0.1728  1.1684
14277SOL     OW44837   8.672   5.895   5.003  0.3843 -0.1979  0.2012
14277SOL    HW144838   8.595   5.868   5.053 -1.4781  1.8411 -1.3596
14277SOL    HW244839   8.716   5.959   5.059  0.7556 -1.0888  0.9431
14278SOL     OW44840   1.000   2.689   7.558  0.4499 -0.1443  0.4700
14278SOL    HW144841   1.022   2.714   7.469  1.4759  1.3729  1.1189
14278SOL    HW244842   1.069   2.628   7.584  0.4065 -0.2304  0.3822
14279SOL     OW44843  10.646   1.320   2.176 -0.9853  0.0662 -0.0677
14279SOL    HW144844  10.624   1.307   2.269 -1.5010 -2.2567 -0.4700
14279SOL    HW244845  10.574   1.373   2.142 -1.3391  0.0371  0.6091
14280SOL     OW44846  10.023   3.651   0.617  0.2783  0.0518 -0.1736
14280SOL    HW144847  10.098   3.685   0.568  0.5230 -0.7503 -0.3787
14280SOL    HW244848   9.951   3.652   0.554 -0.4493  2.7188  0.5759
14281SOL     OW44849   9.849   4.034   0.250  0.4856 -0.1234  0.5864
14281SOL    HW144850   9.824   4.030   0.342 -1.0786 -0.1058  0.1961
14281SOL    HW244851   9.917   3.966   0.241  2.9411  1.9088  2.3418
14282SOL     OW44852   4.210   0.069   5.813  0.4416  0.2086  0.3462
14282SOL    HW144853   4.231   0.070   5.719 -1.0226  2.3905 -0.0184
14282SOL    HW244854   4.190  -0.023   5.832 -0.0011 -0.1569 -1.6649
14283SOL     OW44855   6.096   8.056   1.667 -0.5001 -0.2446  0.5110
14283SOL    HW144856   6.186   8.044   1.698 -0.4000 -1.4661 -0.1690
14283SOL    HW244857   6.044   7.995   1.720 -0.8003 -0.0895  0.3928
14284SOL     OW44858  10.397  10.702   7.700  0.1345 -0.1865  0.6471
14284SOL    HW144859  10.455  10.683   7.774  1.9629  0.5917 -0.5164
14284SOL    HW244860  10.405  10.626   7.643  2.0643  0.9664 -0.7189
14285SOL     OW44861   8.931  11.083   6.660  0.5442 -0.6754 -0.0918
14285SOL    HW144862   9.002  11.121   6.609  0.5036  1.1094  1.0939
14285SOL    HW244863   8.864  11.151   6.663  0.2357 -1.0002  1.6889
14286SOL     OW44864   3.626   2.931   9.299  0.4989  0.6515 -0.3367
14286SOL    HW144865   3.664   3.018   9.284 -1.6315  1.2593 -2.8980
14286SOL    HW244866   3.544   2.932   9.250  0.5874 -2.9591 -0.8105
14287SOL     OW44867   4.262   6.992   4.813  0.1443  0.3147 -0.4678
14287SOL    HW144868   4.325   6.947   4.756  0.0000 -0.9771  0.3555
14287SOL    HW244869   4.210   6.921   4.852 -0.4043  1.2314  0.5033
14288SOL     OW44870   7.116   0.396   0.700  0.0567 -0.3738 -0.4208
14288SOL    HW144871   7.067   0.320   0.668 -0.8347  0.3680 -0.8925
14288SOL    HW244872   7.120   0.384   0.795 -0.8143 -0.5932 -0.4055
14289SOL     OW44873   0.623   4.881   4.902 -0.5159 -0.9072  0.4271
14289SOL    HW144874   0.623   4.790   4.932 -0.0422 -1.1466 -0.2649
14289SOL    HW244875   0.716   4.903   4.892 -0.5206  0.2843  2.4015
14290SOL     OW44876   0.125   1.284   1.043 -0.8050 -0.1030  0.7489
14290SOL    HW144877   0.107   1.193   1.021 -0.5814 -0.6073  2.5245
14290SOL    HW244878   0.209   1.282   1.087 -0.4778  1.0688  0.2142
14291SOL     OW44879   9.768   8.601   6.552 -0.2457  0.0127  0.8283
14291SOL    HW144880   9.674   8.619   6.550 -0.1939  0.2875  0.8141
14291SOL    HW244881   9.782   8.554   6.634 -0.3741  0.1050  0.9035
14292SOL     OW44882   4.255   2.726   8.792  0.7424  0.0376 -0.1314
14292SOL    HW144883   4.266   2.631   8.799  0.3774 -0.0733 -0.9655
14292SOL    HW244884   4.322   2.762   8.850  1.5658 -0.7205 -0.5748
14293SOL     OW44885   7.226   7.862   8.676  0.4385 -0.2414 -0.1887
14293SOL    HW144886   7.239   7.936   8.736  1.1358 -0.8513  0.4308
14293SOL    HW244887   7.131   7.850   8.674  0.1523  1.7245 -1.6247
14294SOL     OW44888   0.992   6.697   8.969 -0.3438 -0.5413  0.3646
14294SOL    HW144889   1.050   6.690   8.893 -1.8059  0.6866 -0.9341
14294SOL    HW244890   1.028   6.770   9.020  0.4610 -1.1728  0.7405
14295SOL     OW44891   5.268  10.007   5.240  0.2245  0.4743  0.3403
14295SOL    HW144892   5.262  10.007   5.336 -0.7323  1.8315  0.3009
14295SOL    HW244893   5.359  10.034   5.222 -0.4245  3.4031  0.9078
14296SOL     OW44894   4.338   3.940   4.985  0.0118 -0.1639  0.2483
14296SOL    HW144895   4.349   4.003   4.913 -1.9144 -0.8644 -0.7179
14296SOL    HW244896   4.245   3.918   4.984 -0.0455 -0.3309  2.8892
14297SOL     OW44897  10.973   9.679   7.575 -0.1804  0.3134  0.3173
14297SOL    HW144898  11.040   9.633   7.626  0.4237  0.6207 -0.1848
14297SOL    HW244899  11.018   9.707   7.495 -0.2745  2.6047  1.0094
14298SOL     OW44900   9.396   3.478   1.832  0.1013 -0.1603  0.1513
14298SOL    HW144901   9.317   3.430   1.807  0.7466 -0.7541 -0.8570
14298SOL    HW244902   9.383   3.566   1.796  0.4280 -0.6220 -1.1608
14299SOL     OW44903   5.466   3.560   5.225  0.2229 -0.4136 -0.1342
14299SOL    HW144904   5.389   3.516   5.261  1.0039 -0.9047  1.0155
14299SOL    HW244905   5.445   3.653   5.227 -1.1755 -0.6528 -1.9075
14300SOL     OW44906   6.002   5.712   0.385  0.2030 -1.1645  0.1662
14300SOL    HW144907   5.970   5.683   0.470 -0.2620  0.3246  0.5169
14300SOL    HW244908   5.991   5.807   0.385  0.4448 -1.0993 -1.4518
14301SOL     OW44909   8.940   1.963   7.948 -0.3556 -0.5193 -0.1993
14301SOL    HW144910   8.881   1.919   8.009  0.7119 -1.7163  0.0027
14301SOL    HW244911   9.025   1.922   7.962  0.4549  0.8858 -0.7713
14302SOL     OW44912   7.650   0.562   9.787  0.0435  0.3884 -0.5097
14302SOL    HW144913   7.656   0.641   9.734  0.4078  1.3767  0.9348
14302SOL    HW244914   7.559   0.534   9.778 -0.8201  2.4354  0.8774
14303SOL     OW44915   3.198   7.236   7.561  0.3136  0.7742  0.2485
14303SOL    HW144916   3.290   7.226   7.583  0.8281  2.2900 -1.0367
14303SOL    HW244917   3.164   7.146   7.555  1.6128  0.2140  1.0447
14304SOL     OW44918   2.167   5.052   2.110 -0.8974 -0.2332  0.1798
14304SOL    HW144919   2.094   5.055   2.048 -0.8098 -0.6502  0.0564
14304SOL    HW244920   2.191   4.960   2.115  0.4210  0.0359 -0.7066
14305SOL     OW44921  10.812   1.639   0.303  0.5403  0.3869  0.3008
14305SOL    HW144922  10.844   1.719   0.264 -1.0430  0.3046 -1.2938
14305SOL    HW244923  10.891   1.590   0.327  1.5200  2.1363  0.7826
14306SOL     OW44924   7.967   8.903   3.331  0.2143 -0.4460  0.1896
14306SOL    HW144925   8.017   8.910   3.413  1.3040 -0.0390 -0.5004
14306SOL    HW244926   7.985   8.984   3.285  0.0933 -0.9359 -0.7353
14307SOL     OW44927   1.365   0.281   6.923 -0.2394  0.6326 -0.0525
14307SOL    HW144928   1.270   0.275   6.907  0.1911 -3.4280 -2.7962
14307SOL    HW244929   1.373   0.300   7.016 -3.6814  2.4176  0.0259
14308SOL     OW44930   1.606   9.225   8.264 -0.1033  0.2959  0.4624
14308SOL    HW144931   1.545   9.216   8.337  2.1867 -0.2489  2.4340
14308SOL    HW244932   1.656   9.304   8.284  0.9168 -0.1531 -0.2183
14309SOL     OW44933   0.218   1.219   1.358 -0.1744  0.6870  0.0373
14309SOL    HW144934   0.138   1.193   1.311  0.2471  0.0239 -0.3265
14309SOL    HW244935   0.273   1.141   1.356  0.0534  0.7922  1.2271
14310SOL     OW44936   1.726   5.291   4.339  0.0848  0.0519  0.7174
14310SOL    HW144937   1.730   5.202   4.376  3.6681 -0.3918 -0.3068
14310SOL    HW244938   1.762   5.347   4.408 -2.5278  0.8892  1.5137
14311SOL     OW44939   2.899  10.545  10.552 -0.2232 -0.3118 -0.4708
14311SOL    HW144940   2.818  10.571  10.508  0.4495 -0.7922 -2.0718
14311SOL    HW244941   2.965  10.606  10.519 -0.0567  0.7249  1.5761
14312SOL     OW44942   2.022   2.172   1.201 -0.8613 -0.1646  0.5765
14312SOL    HW144943   2.040   2.124   1.120  1.5159 -0.9181  1.4657
14312SOL    HW244944   2.086   2.243   1.201 -1.6439  0.5565  1.2438
14313SOL     OW44945   5.340  10.452   1.346  0.6789 -0.2758  0.7540
14313SOL    HW144946   5.328  10.525   1.406 -0.3652  2.5827 -2.5710
14313SOL    HW244947   5.397  10.487   1.277  2.0364 -3.4123  0.0931
14314SOL     OW44948   1.304   0.268   0.857 -0.8845  0.6687 -0.2667
14314SOL    HW144949   1.270   0.178   0.861 -0.5989  0.5833  0.7617
14314SOL    HW244950   1.314   0.293   0.949  0.3964  1.2348 -0.5415
14315SOL     OW44951   9.567   0.441  10.572  0.0499  0.2632 -0.5362
14315SOL    HW144952   9.527   0.526  10.589  0.5474  0.4605 -0.3297
14315SOL    HW244953   9.538   0.418  10.484  0.1909  0.8081 -0.7300
14316SOL     OW44954   0.907   5.387   7.812  0.1798 -1.1354 -0.6402
14316SOL    HW144955   0.956   5.375   7.730 -0.7020 -1.2111 -1.1681
14316SOL    HW244956   0.830   5.438   7.787 -0.5333 -1.8807 -0.0185
14317SOL     OW44957   0.389   0.992   6.592 -0.5129  0.0152 -0.2322
14317SOL    HW144958   0.383   1.082   6.623 -1.7792 -0.4993  1.1256
14317SOL    HW244959   0.470   0.989   6.542  0.3180  1.5387  0.9468
14318SOL     OW44960  10.074   9.433   8.708 -0.4130 -0.2235 -0.6894
14318SOL    HW144961  10.036   9.391   8.631 -0.1849  0.5185 -1.2186
14318SOL    HW244962  10.002   9.480   8.748  0.0919  2.0976 -2.3087
14319SOL     OW44963   2.561   0.163   6.481 -0.7122 -0.3377  0.1453
14319SOL    HW144964   2.637   0.150   6.539 -1.1087 -1.0424  0.5147
14319SOL    HW244965   2.487   0.129   6.531 -1.2246  0.0395 -0.3550
14320SOL     OW44966   7.463  10.275   0.414  0.4176 -0.2584 -0.4193
14320SOL    HW144967   7.378  10.294   0.374 -1.1616 -1.9937  1.8729
14320SOL    HW244968   7.526  10.290   0.343 -1.8961 -0.3460 -2.6609
14321SOL     OW44969   6.796   2.779   1.948 -0.4989  0.6492  0.0544
14321SOL    HW144970   6.700   2.788   1.948 -0.7276 -1.2665 -0.7779
14321SOL    HW244971   6.816   2.742   2.034 -0.3859  1.8143  0.5491
14322SOL     OW44972   9.325   8.385   6.068 -0.0269  0.4428 -0.4578
14322SOL    HW144973   9.360   8.444   6.135  0.0204 -0.3224  0.2055
14322SOL    HW244974   9.399   8.369   6.010  0.5920 -0.6458  0.5702
14323SOL     OW44975  10.221   5.034   1.432 -0.2281  0.0944  0.3325
14323SOL    HW144976  10.249   5.083   1.355 -0.3590 -0.6310 -0.1754
14323SOL    HW244977  10.288   4.967   1.445 -2.1336 -2.3189 -1.5050
14324SOL     OW44978   8.910   7.645  11.086 -0.1430 -0.0776 -0.4158
14324SOL    HW144979   8.925   7.605  11.171 -0.9038 -4.2789 -2.0053
14324SOL    HW244980   8.817   7.629  11.068 -0.5621  2.7515 -1.1599
14325SOL     OW44981  10.681   1.427   2.871 -0.1573  0.5831  0.1340
14325SOL    HW144982  10.642   1.344   2.842 -0.1944  0.9538 -0.9301
14325SOL    HW244983  10.754   1.400   2.927 -0.8810 -0.1403  0.7731
14326SOL     OW44984   4.034   8.403  10.528  0.5320  0.2046 -0.4308
14326SOL    HW144985   4.019   8.462  10.602 -1.5367 -0.7185 -0.0267
14326SOL    HW244986   3.946   8.383  10.496  1.1173 -2.8409 -0.3805
14327SOL     OW44987   6.815   0.250   1.647  0.2907 -0.5915 -1.3484
14327SOL    HW144988   6.871   0.217   1.576  0.2592 -1.4784 -0.9613
14327SOL    HW244989   6.772   0.327   1.609  1.7631  0.1090 -1.6548
14328SOL     OW44990   1.904   3.006   6.675 -0.4779 -0.2651 -0.3234
14328SOL    HW144991   1.946   3.082   6.636 -1.4583  0.2943 -0.3109
14328SOL    HW244992   1.872   2.955   6.601  0.4576 -0.8471 -0.3447
14329SOL     OW44993   9.096   3.496   5.814  0.0007 -0.1396  0.1890
14329SOL    HW144994   9.015   3.514   5.862  0.2205  0.5076  0.3296
14329SOL    HW244995   9.101   3.566   5.749  1.3886  0.9651  1.4093
14330SOL     OW44996   6.247   0.849   5.107  0.1525 -0.3928 -0.3289
14330SOL    HW144997   6.237   0.858   5.013 -0.4321 -0.0946 -0.2426
14330SOL    HW244998   6.220   0.760   5.127 -1.0732 -0.0176 -0.2700
14331SOL     OW44999   2.303  10.285   1.068  0.2020 -0.0568 -0.0805
14331SOL    HW145000   2.255  10.206   1.045  0.2742 -0.1478  0.0797
14331SOL    HW245001   2.249  10.326   1.137  1.0325 -0.8683  1.0870
14332SOL     OW45002  10.447   7.326   1.032  0.2951 -0.9264 -0.9655
14332SOL    HW145003  10.448   7.321   1.128 -2.4701  3.9804 -0.3897
14332SOL    HW245004  10.409   7.243   1.004  2.2796 -3.0356  1.9454
14333SOL     OW45005  10.027   4.671   6.485  0.2975  0.6014 -0.5406
14333SOL    HW145006  10.048   4.661   6.392  0.5172 -0.5605 -0.3808
14333SOL    HW245007  10.109   4.702   6.524  0.4863  0.1884 -0.5971
14334SOL     OW45008   8.054   5.205   6.003  0.1459  0.5448 -0.3556
14334SOL    HW145009   8.008   5.143   6.060 -1.3874  3.3773  1.7779
14334SOL    HW245010   8.047   5.167   5.915  0.9416 -3.1065  0.9753
14335SOL     OW45011  10.288   6.457   9.476  0.0660  0.4309 -0.8576
14335SOL    HW145012  10.324   6.510   9.548  0.6328  1.4234 -1.8314
14335SOL    HW245013  10.255   6.378   9.518  1.9389  0.2020  0.3105
14336SOL     OW45014  10.103   1.689   6.675 -0.0389  0.3773 -0.1614
14336SOL    HW145015  10.173   1.667   6.614 -0.7774  1.7132 -1.5520
14336SOL    HW245016  10.133   1.654   6.759  2.4312  1.1923 -0.6232
14337SOL     OW45017   8.774   2.659   0.819 -0.3161  0.0840  1.1758
14337SOL    HW145018   8.691   2.646   0.864 -0.9273 -1.4389 -0.3039
14337SOL    HW245019   8.807   2.571   0.802  1.0736  0.6478  0.7591
14338SOL     OW45020   9.880   1.307   6.708  0.2118  0.1285 -0.3425
14338SOL    HW145021   9.905   1.379   6.650 -0.5868  0.2096 -0.6068
14338SOL    HW245022   9.894   1.340   6.796 -0.6967  0.8355 -0.4479
14339SOL     OW45023   3.152   7.904   3.590  0.4013  0.3074  0.0389
14339SOL    HW145024   3.226   7.851   3.559  0.9067  0.3637  1.0978
14339SOL    HW245025   3.141   7.879   3.682 -1.8611 -0.7561 -0.4699
14340SOL     OW45026   9.036   2.037   7.254  0.1542 -0.1540 -0.2841
14340SOL    HW145027   9.124   2.066   7.278 -1.0683  2.7346  1.3019
14340SOL    HW245028   9.046   1.944   7.234  3.6326  0.1910 -0.7776
14341SOL     OW45029   6.628  10.258   4.990 -0.4062  0.0595 -0.6086
14341SOL    HW145030   6.576  10.178   4.993 -0.4452  0.0941  2.3253
14341SOL    HW245031   6.564  10.329   4.991 -0.4122  0.0916  1.7566
14342SOL     OW45032   5.401   0.897   7.748  0.1830 -0.3976 -0.0981
14342SOL    HW145033   5.404   0.980   7.794 -2.1740 -0.0305 -0.5235
14342SOL    HW245034   5.414   0.920   7.656  2.6601 -0.8998  0.0501
14343SOL     OW45035   0.291   2.868   1.568 -0.0663  0.7230 -0.6291
14343SOL    HW145036   0.306   2.812   1.493 -2.1195 -1.6438  0.5761
14343SOL    HW245037   0.202   2.903   1.554 -0.5440  0.1234  0.6986
14344SOL     OW45038   2.445  11.026  10.944 -0.4980 -0.1212 -1.1450
14344SOL    HW145039   2.393  11.069  10.876 -0.7739 -0.6206 -1.2601
14344SOL    HW245040   2.385  11.019  11.019 -0.3816 -0.1034 -1.0493
14345SOL     OW45041  10.980  10.989   2.719  0.2621  0.4199 -0.7784
14345SOL    HW145042  10.956  10.952   2.804  1.2585  1.7591  0.1244
14345SOL    HW245043  11.030  10.920   2.676 -0.5405 -0.3985 -0.4436
14346SOL     OW45044   0.579   2.576   7.696  0.3457 -0.1363  0.1627
14346SOL    HW145045   0.528   2.649   7.730  0.6396 -0.1722  0.6862
14346SOL    HW245046   0.670   2.605   7.701  0.5730 -0.9810  1.5372
14347SOL     OW45047  11.064   6.627  10.183 -0.2997  0.0866 -0.1119
14347SOL    HW145048  10.983   6.640  10.232  0.0770 -0.2006  0.5968
14347SOL    HW245049  11.102   6.546  10.219  0.8342  0.7765  0.3297
14348SOL     OW45050   4.984   7.086   1.906  0.4630 -0.4650  0.2169
14348SOL    HW145051   4.910   7.148   1.912  0.3554 -0.4585 -0.8932
14348SOL    HW245052   5.062   7.141   1.913  0.3597 -0.3170  0.2147
14349SOL     OW45053   8.078   8.836   0.403  1.5146 -0.4480  0.3586
14349SOL    HW145054   8.076   8.787   0.485 -2.2089  0.9083  1.2823
14349SOL    HW245055   8.099   8.926   0.428 -0.6828  0.1980  0.0841
14350SOL     OW45056   5.430   0.163   5.483 -0.1218  0.0031  0.3012
14350SOL    HW145057   5.361   0.207   5.533  0.2685 -1.1566  1.9598
14350SOL    HW245058   5.497   0.143   5.549  0.8610 -0.7186 -0.8935
14351SOL     OW45059   8.722   7.039   3.501 -0.5014  0.1085 -0.4850
14351SOL    HW145060   8.648   7.002   3.453  0.9655 -0.7254 -2.2607
14351SOL    HW245061   8.750   7.114   3.448  0.3916 -0.0677 -0.2895
14352SOL     OW45062   5.452   2.303   0.222  0.7152  0.7068  0.1125
14352SOL    HW145063   5.452   2.381   0.166  1.7200 -0.6936 -1.9917
14352SOL    HW245064   5.396   2.240   0.176  0.4084 -0.0471  1.4443
14353SOL     OW45065   5.124   4.699  10.713 -0.3353 -0.2470  0.1676
14353SOL    HW145066   5.139   4.620  10.661 -0.0856  0.7934 -1.4133
14353SOL    HW245067   5.199   4.704  10.772 -0.8414 -1.6868  0.9723
14354SOL     OW45068   7.995   0.739   8.643  0.1120 -0.2135  0.1831
14354SOL    HW145069   7.955   0.825   8.633  0.2464 -0.4263 -3.9755
14354SOL    HW245070   8.089   0.756   8.653 -0.0464  0.1071  1.2142
14355SOL     OW45071   0.803   7.976   4.667  0.1841  0.0300 -0.6615
14355SOL    HW145072   0.731   8.009   4.613 -0.6636 -2.9217 -1.5368
14355SOL    HW245073   0.780   8.003   4.756  1.6466  5.0675 -1.5158
14356SOL     OW45074   3.202   9.879   5.165  0.1967  0.7251 -0.6164
14356SOL    HW145075   3.161   9.957   5.202  0.0472 -0.1993  1.2584
14356SOL    HW245076   3.130   9.818   5.151  0.3566  0.7728 -1.8098
14357SOL     OW45077   1.912   3.865   5.375 -0.5344 -0.1764 -0.9691
14357SOL    HW145078   1.871   3.951   5.372  0.8310  0.7601  2.3211
14357SOL    HW245079   1.994   3.875   5.326 -0.8843  0.0612 -1.5056
14358SOL     OW45080   1.861   9.098   7.971 -0.2772  0.6585  0.0464
14358SOL    HW145081   1.881   9.098   7.877 -0.3567  1.3089  0.0273
14358SOL    HW245082   1.774   9.059   7.977 -1.4974  3.0937 -0.4396
14359SOL     OW45083  11.050  10.856   2.175 -0.2730 -0.5966  0.1101
14359SOL    HW145084  10.960  10.866   2.204 -0.8876 -1.9646 -1.2328
14359SOL    HW245085  11.048  10.875   2.081  0.8144 -0.7476  0.0371
14360SOL     OW45086   0.109   6.731   6.748  0.0124  0.1244 -0.1003
14360SOL    HW145087   0.080   6.816   6.716  2.2309  0.4637 -1.4380
14360SOL    HW245088   0.129   6.680   6.669  1.0558 -0.7498  0.6891
14361SOL     OW45089   8.050  10.670   5.330 -0.4455  0.6181  0.0847
14361SOL    HW145090   8.104  10.663   5.251  0.8726  0.6794  0.9500
14361SOL    HW245091   7.992  10.593   5.326 -1.7239  1.5858 -1.8535
14362SOL     OW45092   3.130   9.312   4.581  0.3474 -0.5579 -0.2211
14362SOL    HW145093   3.041   9.305   4.614  0.8794 -1.0142  1.2006
14362SOL    HW245094   3.124   9.289   4.488 -0.5759 -3.6678  0.4908
14363SOL     OW45095   1.168   0.057  10.789 -0.0281  0.1651  0.5308
14363SOL    HW145096   1.117   0.138  10.783  0.2148  0.2934  0.1087
14363SOL    HW245097   1.182   0.032  10.698 -1.2083 -1.0621  0.6642
14364SOL     OW45098   8.462   7.025   2.929  0.0919 -0.3046 -0.1978
14364SOL    HW145099   8.461   6.929   2.938 -0.3029 -0.2129  0.9076
14364SOL    HW245100   8.390   7.044   2.869  1.5717 -0.8311 -2.2538
14365SOL     OW45101   5.644  10.549   8.550  0.2209 -0.1982 -0.4648
14365SOL    HW145102   5.715  10.512   8.603  1.0600 -0.2085 -1.5396
14365SOL    HW245103   5.618  10.478   8.492 -0.8597 -0.2651  0.0878
14366SOL     OW45104   6.124   9.651   7.758  0.1321 -0.0315 -0.0880
14366SOL    HW145105   6.148   9.602   7.836  1.5370  0.7099 -0.0133
14366SOL    HW245106   6.173   9.733   7.766  0.7566 -0.1614 -2.0024
14367SOL     OW45107   1.379   8.685   4.235  0.0540  0.5257 -0.6549
14367SOL    HW145108   1.440   8.690   4.309 -2.1783 -0.6086  1.3912
14367SOL    HW245109   1.308   8.744   4.258 -2.0307 -1.8811 -0.4425
14368SOL     OW45110   0.501   5.564   6.103  0.0258 -0.3968 -0.2558
14368SOL    HW145111   0.454   5.510   6.038  0.1962 -0.5980 -0.2115
14368SOL    HW245112   0.546   5.630   6.050  0.0848 -0.4995 -0.3342
14369SOL     OW45113  10.518   1.535   7.360  0.2041 -0.1648 -0.6640
14369SOL    HW145114  10.594   1.514   7.307 -0.2634  0.6823 -1.7214
14369SOL    HW245115  10.546   1.610   7.414 -0.2694  1.1105 -2.1048
14370SOL     OW45116   7.009   5.320   1.143 -0.2268 -0.0426 -0.1674
14370SOL    HW145117   7.097   5.289   1.119 -0.4559  0.3398 -1.5514
14370SOL    HW245118   7.020   5.414   1.158 -0.2851 -0.1041  0.2683
14371SOL     OW45119   0.141   9.071   9.740 -0.3949 -0.0597  0.0989
14371SOL    HW145120   0.177   9.158   9.750  2.3932 -1.1894  0.7943
14371SOL    HW245121   0.049   9.080   9.767 -0.3424  2.7037 -0.3815
14372SOL     OW45122   2.959   8.825   0.883  0.1126  0.0907  0.6559
14372SOL    HW145123   2.943   8.771   0.960  1.2366  0.6235  1.2688
14372SOL    HW245124   2.894   8.895   0.889 -1.5979 -1.3100 -0.3296
14373SOL     OW45125   8.617   7.681   6.167  0.0618  0.2810 -0.0197
14373SOL    HW145126   8.672   7.754   6.197  0.7160 -0.3099  0.2531
14373SOL    HW245127   8.570   7.716   6.092  0.1314  1.0810  0.3002
14374SOL     OW45128   2.384   1.695   7.883 -0.0805 -0.2508  0.2112
14374SOL    HW145129   2.292   1.687   7.857  0.3220  1.6041 -2.1057
14374SOL    HW245130   2.385   1.770   7.942  0.0892  0.6044 -0.8473
14375SOL     OW45131   9.193   2.252   2.132  0.2768  0.5635  0.0070
14375SOL    HW145132   9.269   2.308   2.150 -0.0882  1.4110 -0.9738
14375SOL    HW245133   9.230   2.170   2.099  0.8118  0.2903  1.2418
14376SOL     OW45134   5.584   3.482  10.738  0.1145  0.1813  0.4973
14376SOL    HW145135   5.536   3.426  10.676 -1.1555  3.5847 -1.8934
14376SOL    HW245136   5.675   3.475  10.711 -0.1571 -0.0066 -0.4262
14377SOL     OW45137  10.201   0.226   1.391 -0.1135 -0.1260  0.0472
14377SOL    HW145138  10.232   0.180   1.313 -0.0257 -1.0547  0.6118
14377SOL    HW245139  10.160   0.157   1.444 -2.7320  0.9283 -0.4450
14378SOL     OW45140   6.065   0.014   6.125 -0.3762 -0.5141  0.6347
14378SOL    HW145141   6.055  -0.029   6.210 -0.5002 -1.5714  0.1052
14378SOL    HW245142   6.128  -0.040   6.078 -0.3973 -0.0078  0.0089
14379SOL     OW45143   9.178  11.029   8.526  0.0743  0.6325  0.5107
14379SOL    HW145144   9.214  10.941   8.538  0.4964  0.8010  0.4852
14379SOL    HW245145   9.207  11.055   8.438 -0.3211  0.6702  0.3892
14380SOL     OW45146   3.224   2.282   8.817  0.3262  0.4726  0.4590
14380SOL    HW145147   3.295   2.294   8.880  0.0467  1.4327  0.6142
14380SOL    HW245148   3.215   2.368   8.775  0.1903 -0.0268 -0.5530
14381SOL     OW45149   1.329   3.543   6.686 -0.2926  0.1723 -0.7685
14381SOL    HW145150   1.252   3.588   6.723  1.5936  0.5855  3.1532
14381SOL    HW245151   1.370   3.608   6.630 -1.4964  0.7379 -1.0371
14382SOL     OW45152   0.371   1.332   4.975 -0.1289 -0.1538 -0.3573
14382SOL    HW145153   0.453   1.292   4.946  0.0909  0.2859 -0.3506
14382SOL    HW245154   0.308   1.310   4.906 -0.2305 -1.2332  0.0595
14383SOL     OW45155   4.266   2.801   1.189 -0.3506 -0.0022  0.1340
14383SOL    HW145156   4.243   2.757   1.271  0.0739  0.3018  0.4246
14383SOL    HW245157   4.183   2.835   1.156 -0.3931  0.7358  0.9562
14384SOL     OW45158   3.257   5.480   9.703 -0.7745  0.0044 -0.1468
14384SOL    HW145159   3.271   5.394   9.663 -2.1810 -0.5854  0.5562
14384SOL    HW245160   3.312   5.480   9.781 -0.2313  0.0285 -0.5264
14385SOL     OW45161   5.269   8.155   3.082 -0.3263  0.1917 -0.3071
14385SOL    HW145162   5.348   8.156   3.028 -0.4754  0.4784 -0.5272
14385SOL    HW245163   5.296   8.189   3.167  0.1533 -1.2831  0.1568
14386SOL     OW45164   2.523   0.242   8.072  0.3574  0.5275  0.0324
14386SOL    HW145165   2.579   0.183   8.022  0.7238  0.6701  0.2646
14386SOL    HW245166   2.584   0.300   8.117  0.0463  0.2804  0.7922
14387SOL     OW45167   3.931   5.145  10.466 -0.0901 -0.1476 -0.1762
14387SOL    HW145168   3.922   5.166  10.559  1.5400 -1.3062  0.2883
14387SOL    HW245169   3.864   5.077  10.450  0.4694 -0.8630  0.4786
14388SOL     OW45170   9.987   0.306  10.398 -0.0630  0.1602 -0.5011
14388SOL    HW145171  10.006   0.394  10.431  1.2327 -1.2554  3.1163
14388SOL    HW245172  10.053   0.291  10.331  3.1623  0.3093  2.3411
14389SOL     OW45173  10.752   4.860   0.878  0.2152 -0.1328  0.1500
14389SOL    HW145174  10.680   4.876   0.939  1.0584 -1.8552  1.7055
14389SOL    HW245175  10.756   4.939   0.824 -1.3915  0.9363  1.4929
14390SOL     OW45176   7.877   7.778   8.447 -0.3102 -0.2805  0.8409
14390SOL    HW145177   7.907   7.785   8.356 -0.7554 -0.0910  0.7051
14390SOL    HW245178   7.898   7.863   8.486  0.3437 -0.5372  1.0619
14391SOL     OW45179  10.393  10.795   6.779 -0.1127  0.5807  0.4637
14391SOL    HW145180  10.466  10.808   6.840 -0.1125 -0.6013  0.7388
14391SOL    HW245181  10.423  10.723   6.722 -0.5382  0.9684 -0.2626
14392SOL     OW45182   7.192  10.747   5.516  0.0881  0.5798  0.2262
14392SOL    HW145183   7.242  10.783   5.589  0.4040  0.9672 -0.1774
14392SOL    HW245184   7.176  10.821   5.458  0.1728  0.2031 -0.2884
14393SOL     OW45185   2.593   2.710   6.673 -0.1735  0.5908  0.2495
14393SOL    HW145186   2.508   2.700   6.630 -0.1555  2.8090 -0.4714
14393SOL    HW245187   2.572   2.715   6.767 -0.6074 -0.7564  0.2364
14394SOL     OW45188   4.561   7.107   3.894 -0.3552  0.3675  0.2068
14394SOL    HW145189   4.507   7.038   3.855  0.3595 -0.6421  0.9355
14394SOL    HW245190   4.633   7.060   3.936  0.9687  1.6541 -0.5144
14395SOL     OW45191   4.845   0.178   8.003  0.1421 -0.3464 -0.4515
14395SOL    HW145192   4.832   0.146   7.914 -1.0331 -0.9820 -0.0846
14395SOL    HW245193   4.932   0.146   8.028  0.9653  0.7978 -1.7396
14396SOL     OW45194   6.586   4.601  10.558 -0.5760  0.4639  0.0055
14396SOL    HW145195   6.526   4.603  10.484  0.2670 -0.1374 -0.7137
14396SOL    HW245196   6.640   4.679  10.549  0.1586 -0.1002 -0.5661
14397SOL     OW45197   4.051   4.606   8.553 -0.0083  0.4960 -0.3932
14397SOL    HW145198   4.107   4.677   8.584  0.7562  0.3621 -1.3960
14397SOL    HW245199   4.094   4.526   8.584 -0.6985  0.4368  0.4663
14398SOL     OW45200   8.371   1.057   8.538  0.2041  0.3354 -0.3027
14398SOL    HW145201   8.300   1.112   8.503  0.9240  1.5079  0.0375
14398SOL    HW245202   8.434   1.051   8.466 -0.4391 -1.1663 -0.8023
14399SOL     OW45203   9.828   1.678   5.803 -0.6751  0.3276 -0.3114
14399SOL    HW145204   9.875   1.595   5.809  1.1129  1.1210 -2.0534
14399SOL    HW245205   9.743   1.655   5.765  0.1936 -0.6543 -1.7865
14400SOL     OW45206   4.410   0.547   7.626 -0.1151 -0.1186  0.0476
14400SOL    HW145207   4.465   0.603   7.681  1.9962  2.6768 -4.3117
14400SOL    HW245208   4.465   0.470   7.608  0.3237  0.2582 -0.2615
14401SOL     OW45209  10.949  10.514   2.088 -0.6561 -0.0677 -0.2905
14401SOL    HW145210  10.927  10.580   2.154 -1.9855 -1.8277  1.1432
14401SOL    HW245211  11.034  10.479   2.117  1.1815  2.3781 -2.2787
14402SOL     OW45212   9.580   6.817   7.343  0.1557  0.2552 -0.0501
14402SOL    HW145213   9.585   6.876   7.268  0.7282 -0.0179 -0.2301
14402SOL    HW245214   9.584   6.875   7.419  0.6792  0.4558 -0.2249
14403SOL     OW45215   1.414   0.533   6.329  0.3554  0.3588  0.0727
14403SOL    HW145216   1.356   0.528   6.253  0.8399  0.0446 -0.2870
14403SOL    HW245217   1.413   0.444   6.365 -1.3824  0.9468  1.6020
14404SOL     OW45218   0.890   8.461   1.914  0.4504  0.5169 -0.1339
14404SOL    HW145219   0.979   8.435   1.939  0.1915  1.3179  1.8043
14404SOL    HW245220   0.861   8.518   1.985 -1.6817  0.1711 -0.6549
14405SOL     OW45221   4.940   5.502   6.256 -1.0040  0.4058  0.2232
14405SOL    HW145222   4.947   5.465   6.344 -1.4346 -0.0214  0.0810
14405SOL    HW245223   4.970   5.432   6.198  0.0189  0.9488  0.0717
14406SOL     OW45224   7.161   6.647   1.382 -0.1695 -0.8355  0.5132
14406SOL    HW145225   7.136   6.620   1.471 -1.3522  1.0973  0.8105
14406SOL    HW245226   7.222   6.720   1.395 -0.1240 -0.7262 -0.2675
14407SOL     OW45227   1.506   7.193  10.057 -0.0133 -0.3020 -0.2779
14407SOL    HW145228   1.503   7.286  10.081  0.9625 -0.0154 -1.1540
14407SOL    HW245229   1.599   7.172  10.053 -0.1821 -0.9050 -1.5710
14408SOL     OW45230   5.566   1.206   1.104  0.0167 -0.0309 -0.4304
14408SOL    HW145231   5.518   1.135   1.063  1.5972 -2.0051  0.9239
14408SOL    HW245232   5.528   1.286   1.068 -1.8196 -1.5502 -2.0247
14409SOL     OW45233   0.490   8.438   8.509  0.2642 -0.3984 -0.2092
14409SOL    HW145234   0.473   8.454   8.602  1.7452  0.9262 -0.1183
14409SOL    HW245235   0.420   8.379   8.481 -1.9232  1.4697  1.0249
14410SOL     OW45236   5.748   6.359   6.810 -0.6129 -0.4945  0.3237
14410SOL    HW145237   5.729   6.413   6.887 -0.0988 -0.5633  0.5038
14410SOL    HW245238   5.768   6.422   6.741  0.0372 -0.4492  0.5474
14411SOL     OW45239   3.041   2.711   1.474 -0.5861 -0.0174  0.3545
14411SOL    HW145240   3.106   2.719   1.404  0.6069 -4.1279  0.7306
14411SOL    HW245241   3.069   2.774   1.540  2.8878 -1.3227  0.3264
14412SOL     OW45242   5.297   4.201  10.621 -0.1290  0.4314  0.9640
14412SOL    HW145243   5.252   4.285  10.613  0.2023  0.6866  1.7132
14412SOL    HW245244   5.279   4.172  10.711 -0.1410 -0.2417  0.7526
14413SOL     OW45245   4.364   6.082   9.539  0.3137 -0.0037 -0.5005
14413SOL    HW145246   4.441   6.051   9.491 -0.6809 -2.0324 -0.8741
14413SOL    HW245247   4.296   6.091   9.472 -0.2043  0.2945  0.0508
14414SOL     OW45248   1.372   0.662   0.567  0.9071  0.0646 -0.5320
14414SOL    HW145249   1.325   0.624   0.641 -0.0652  0.1985 -1.0650
14414SOL    HW245250   1.405   0.745   0.599 -1.7480  1.3931 -0.9581
14415SOL     OW45251   0.194   5.034   4.711  0.4658 -0.3201 -0.0903
14415SOL    HW145252   0.140   4.959   4.685 -1.2953  0.6983  0.4720
14415SOL    HW245253   0.240   5.004   4.790  0.1048 -0.9464 -0.1128
14416SOL     OW45254   8.261   3.673   6.884  0.0329 -0.6512 -0.0500
14416SOL    HW145255   8.255   3.579   6.866 -2.6112 -0.5496 -0.0714
14416SOL    HW245256   8.231   3.682   6.974 -1.3776  0.3197 -0.5938
14417SOL     OW45257   3.834   9.013   6.182 -0.2007 -0.0908 -0.1863
14417SOL    HW145258   3.858   9.100   6.150 -2.0232  0.2545 -0.7431
14417SOL    HW245259   3.742   9.022   6.209 -0.4132 -1.8165 -0.2177
14418SOL     OW45260   7.310   0.658  11.020  0.3418  0.8772 -0.2967
14418SOL    HW145261   7.368   0.670  11.095  0.5006  0.2390 -0.3131
14418SOL    HW245262   7.369   0.638  10.947  0.1890  1.5185 -0.5981
14419SOL     OW45263   4.146   6.095   8.626 -0.0293 -0.3107 -0.1436
14419SOL    HW145264   4.225   6.061   8.583  1.7303  1.8515  1.1340
14419SOL    HW245265   4.128   6.177   8.581 -2.1448 -1.1814 -0.9842
14420SOL     OW45266  10.513   4.492   7.557 -0.2516 -0.8153  0.1379
14420SOL    HW145267  10.555   4.440   7.626  0.0011 -2.0347 -0.8963
14420SOL    HW245268  10.537   4.448   7.476 -3.8950 -1.9163 -0.5372
14421SOL     OW45269   3.596   5.676   0.563 -0.7167 -0.0543  0.0445
14421SOL    HW145270   3.604   5.733   0.639 -0.3561 -0.3468  0.2288
14421SOL    HW245271   3.595   5.736   0.488  1.9544  0.1494  0.0506
14422SOL     OW45272  11.010   3.432   6.825  0.0717 -0.4114  0.0959
14422SOL    HW145273  11.096   3.451   6.790  0.6915 -2.4136  0.3951
14422SOL    HW245274  10.959   3.404   6.749  0.4450 -1.5891  0.2556
14423SOL     OW45275   5.633  10.247   9.494  0.1725 -0.1346  0.0013
14423SOL    HW145276   5.672  10.275   9.411 -1.1349 -0.6990 -0.8347
14423SOL    HW245277   5.667  10.308   9.559  2.5877 -0.6968 -0.6232
14424SOL     OW45278  10.318   3.792   8.142  0.3089 -0.1291 -0.0445
14424SOL    HW145279  10.401   3.753   8.169 -0.3509 -0.5313  1.4640
14424SOL    HW245280  10.269   3.719   8.104  0.2932 -0.0844 -0.1103
14425SOL     OW45281   9.467   9.507   8.852  0.3998  0.4391  0.0929
14425SOL    HW145282   9.491   9.565   8.780 -1.3090  1.4891  0.3125
14425SOL    HW245283   9.374   9.489   8.839 -1.1099  3.7791  4.0109
14426SOL     OW45284   0.483   7.665   8.977 -0.6194 -0.0514 -0.0902
14426SOL    HW145285   0.555   7.644   9.036  1.3335  1.9361 -1.6297
14426SOL    HW245286   0.452   7.751   9.005 -1.1270 -0.0508 -0.6173
14427SOL     OW45287   8.983   7.370   1.915  0.1037 -0.1674 -0.0019
14427SOL    HW145288   9.070   7.333   1.899  0.6804  1.2993 -0.4513
14427SOL    HW245289   8.932   7.343   1.839 -0.3057 -2.3004  0.9752
14428SOL     OW45290   3.401   5.523   4.290  0.4019 -0.0936  0.4028
14428SOL    HW145291   3.489   5.489   4.279  0.3659 -0.5284  1.3719
14428SOL    HW245292   3.344   5.455   4.254  0.4060 -0.3823  0.9321
14429SOL     OW45293   8.672   3.001   6.067 -0.5918 -0.3813  0.2202
14429SOL    HW145294   8.703   3.090   6.084 -1.0445 -0.0357 -0.7039
14429SOL    HW245295   8.751   2.947   6.075 -0.5471 -0.1062  2.1323
14430SOL     OW45296   4.652   6.871   6.889  0.5381 -0.1792  0.5464
14430SOL    HW145297   4.562   6.853   6.861  0.5255  0.9983 -0.2669
14430SOL    HW245298   4.675   6.952   6.843  2.5546 -1.2578 -0.4436
14431SOL     OW45299   6.916  10.160  10.224  0.0976 -0.4385 -0.0796
14431SOL    HW145300   6.831  10.123  10.245 -0.4303  1.4455  1.4449
14431SOL    HW245301   6.912  10.180  10.131 -1.6426  0.7909  0.2158
14432SOL     OW45302   0.148   3.341   2.725  0.5627  0.1031  0.4650
14432SOL    HW145303   0.133   3.280   2.653  0.1622  1.2712 -0.4822
14432SOL    HW245304   0.225   3.391   2.699  0.3344  0.6277  0.7765
14433SOL     OW45305   7.463   7.393   7.665 -1.0122  0.3411 -0.0184
14433SOL    HW145306   7.539   7.431   7.621 -1.0948  1.3874  0.7244
14433SOL    HW245307   7.388   7.438   7.626 -1.2454 -0.4097 -0.4654
14434SOL     OW45308   4.279   8.087   9.669  0.4951 -0.3176 -0.4334
14434SOL    HW145309   4.281   8.145   9.593  0.4919 -2.0938 -1.8536
14434SOL    HW245310   4.356   8.032   9.659  0.6182 -0.4341  0.9944
14435SOL     OW45311  10.915   3.311   0.148  0.4289  0.8398 -0.2303
14435SOL    HW145312  10.995   3.278   0.188  2.4801  1.9823 -3.0814
14435SOL    HW245313  10.888   3.244   0.086 -0.3731  0.8347  0.1031
14436SOL     OW45314   4.530   3.089   7.981 -0.2117  0.1701 -0.3003
14436SOL    HW145315   4.606   3.051   7.936 -1.6205 -0.3809 -2.4140
14436SOL    HW245316   4.475   3.013   8.002 -0.9813  0.6825 -0.4421
14437SOL     OW45317   2.256   5.215   6.118 -0.0040 -0.6160 -0.8968
14437SOL    HW145318   2.201   5.271   6.171  1.7146  1.6553 -1.3701
14437SOL    HW245319   2.313   5.170   6.181 -1.2536 -1.7430 -0.5337
14438SOL     OW45320   6.825   4.017   4.240 -0.5074 -0.3617 -0.1510
14438SOL    HW145321   6.825   4.002   4.145  0.2523 -1.5143  0.0095
14438SOL    HW245322   6.810   3.930   4.278 -2.2060  0.2940  0.7835
14439SOL     OW45323   3.938   5.505  10.663  0.0227  0.0023 -0.7317
14439SOL    HW145324   3.908   5.467  10.745 -0.2451  1.4246 -0.1363
14439SOL    HW245325   4.022   5.462  10.645 -0.3571 -0.9814 -0.2047
14440SOL     OW45326   8.224  10.242   7.272 -0.0150  0.1873  0.4876
14440SOL    HW145327   8.162  10.273   7.338  1.0203  0.1053  1.5181
14440SOL    HW245328   8.198  10.152   7.255  0.7327 -0.3602  2.0626
14441SOL     OW45329   8.196   0.174   2.761 -0.1099  0.0278 -0.2884
14441SOL    HW145330   8.242   0.217   2.689 -2.4389 -0.4373 -2.1858
14441SOL    HW245331   8.193   0.239   2.830  1.0493  0.9726 -1.0765
14442SOL     OW45332   3.568   9.751   0.084 -0.0339 -0.1556  0.8409
14442SOL    HW145333   3.501   9.688   0.057 -0.6910  0.1928  1.6369
14442SOL    HW245334   3.574   9.741   0.179  2.2044 -1.3287  0.6572
14443SOL     OW45335   8.397   8.304   8.423  0.2432 -0.8346  0.8370
14443SOL    HW145336   8.488   8.274   8.429  0.4111 -0.0673  2.7483
14443SOL    HW245337   8.348   8.243   8.479 -0.5793 -1.6958 -0.7605
14444SOL     OW45338   6.901   7.028   6.851  0.1023  0.0668 -0.9118
14444SOL    HW145339   6.945   6.964   6.907 -0.5387  0.7165  0.3748
14444SOL    HW245340   6.868   6.977   6.777  1.2095 -0.7646 -0.8541
14445SOL     OW45341  10.664   9.017   5.155  0.4179 -0.3732 -0.3629
14445SOL    HW145342  10.744   8.988   5.198  0.7851  1.8657  0.5782
14445SOL    HW245343  10.680   9.001   5.062  1.1640 -1.6754 -0.0381
14446SOL     OW45344   6.469   9.791   1.029 -0.5994  0.1379 -0.2433
14446SOL    HW145345   6.409   9.864   1.042  0.1061  0.8600 -0.8610
14446SOL    HW245346   6.427   9.717   1.071 -0.9971  1.0632  1.0583
14447SOL     OW45347   0.840  10.134   2.686 -0.1459  0.8529 -0.4750
14447SOL    HW145348   0.848  10.196   2.613  1.0607  0.7851 -0.4176
14447SOL    HW245349   0.924  10.089   2.689 -0.4172  0.3806  0.5431
14448SOL     OW45350   2.284   0.732   6.484 -0.3118 -0.6101  0.2131
14448SOL    HW145351   2.218   0.766   6.544 -0.0945 -1.6701  1.0948
14448SOL    HW245352   2.365   0.732   6.536 -0.2130 -1.9749  0.1013
14449SOL     OW45353   7.388   6.610   0.303  0.0429  0.0120 -0.3132
14449SOL    HW145354   7.473   6.630   0.343 -0.1692  0.2548  0.0175
14449SOL    HW245355   7.324   6.631   0.370 -0.3905  1.5485 -1.1567
14450SOL     OW45356   6.456   5.206   9.714 -0.4410  0.0105 -0.3202
14450SOL    HW145357   6.382   5.206   9.774 -0.3520  0.9409 -0.1923
14450SOL    HW245358   6.533   5.206   9.771 -0.3529  0.4591 -0.4372
14451SOL     OW45359   5.390   9.755   2.651 -0.0758 -0.3371  0.1520
14451SOL    HW145360   5.438   9.704   2.586  0.4604 -2.2894  1.9468
14451SOL    HW245361   5.452   9.822   2.679 -0.0599  0.0609 -0.8114
14452SOL     OW45362   4.847   4.005   1.504  0.0003  0.1459 -0.4118
14452SOL    HW145363   4.848   3.936   1.571 -2.2694  2.0727  1.8305
14452SOL    HW245364   4.840   3.959   1.421  1.0328 -2.3340  0.7802
14453SOL     OW45365   1.852   0.413   6.658 -0.7079  0.1955  0.7411
14453SOL    HW145366   1.851   0.429   6.563  0.8299 -2.3639  0.1961
14453SOL    HW245367   1.760   0.415   6.683 -1.4867 -2.0078 -1.4661
14454SOL     OW45368   2.498  10.886   4.097  0.1823  0.0413  0.1366
14454SOL    HW145369   2.496  10.931   4.013  0.3426  0.1147  0.1719
14454SOL    HW245370   2.528  10.953   4.159  0.0216  0.0006  0.2580
14455SOL     OW45371   0.950   5.220   5.190  0.2232 -0.2279  0.3587
14455SOL    HW145372   0.880   5.155   5.181  0.3221 -0.3952  0.7589
14455SOL    HW245373   0.968   5.249   5.100 -0.2854 -0.2603  0.2437
14456SOL     OW45374   5.654   9.784  10.061  0.3749 -0.3256  0.1311
14456SOL    HW145375   5.569   9.813  10.094  1.4765  3.0842  0.3406
14456SOL    HW245376   5.678   9.850   9.996  2.1803 -2.1109 -1.1399
14457SOL     OW45377  10.630   2.540   6.131 -0.3902 -0.1681 -0.3119
14457SOL    HW145378  10.598   2.519   6.219 -0.5192 -1.1245 -0.5790
14457SOL    HW245379  10.551   2.559   6.080 -0.3987 -0.7205 -0.5059
14458SOL     OW45380   2.072   9.790   7.031  0.0035 -0.5060 -0.0394
14458SOL    HW145381   2.118   9.848   7.092  2.2767 -0.5336 -1.6152
14458SOL    HW245382   2.087   9.702   7.067  0.4044 -0.4437 -0.0486
14459SOL     OW45383   9.457   3.209   8.992 -0.2216  0.4065 -0.2967
14459SOL    HW145384   9.362   3.209   8.978 -0.1834 -2.2987 -1.0808
14459SOL    HW245385   9.471   3.141   9.058  1.0476  2.0997  1.2603
14460SOL     OW45386   9.299   4.517   7.176 -0.1386 -0.2236 -0.2015
14460SOL    HW145387   9.226   4.507   7.116  0.6858 -1.5333 -1.0606
14460SOL    HW245388   9.368   4.559   7.123  0.0393  0.1269  0.3065
14461SOL     OW45389   9.172   0.145   9.881  0.0329 -0.6811  0.6351
14461SOL    HW145390   9.220   0.074   9.839 -1.3262  0.5120 -3.4095
14461SOL    HW245391   9.089   0.106   9.906  0.0439 -0.9564  0.2527
14462SOL     OW45392   6.904   5.725  10.518 -0.1463 -0.6219 -0.2649
14462SOL    HW145393   6.829   5.719  10.577  0.4481 -1.4531  0.4240
14462SOL    HW245394   6.980   5.712  10.574  0.6301  1.4884 -0.7118
14463SOL     OW45395   3.073   1.343   6.994  0.0694 -0.1792 -0.2404
14463SOL    HW145396   3.030   1.373   7.075 -0.3300 -0.8469 -0.2002
14463SOL    HW245397   3.007   1.291   6.950  0.8860 -1.3674 -0.1044
14464SOL     OW45398   7.964   2.710  10.660  0.2541 -0.2817 -0.2714
14464SOL    HW145399   7.871   2.691  10.669  0.3859 -0.5964  0.4474
14464SOL    HW245400   7.967   2.787  10.602 -0.5213  0.5289  0.7232
14465SOL     OW45401   6.721   2.468   0.923 -0.2122  0.1412  0.4138
14465SOL    HW145402   6.649   2.528   0.939  0.5748  0.7213  1.9286
14465SOL    HW245403   6.772   2.469   1.003  0.0887 -2.2171  0.3312
14466SOL     OW45404   3.091   9.663   1.214  0.1842 -0.4002 -0.0268
14466SOL    HW145405   3.006   9.621   1.198 -0.5755  0.9305  0.3472
14466SOL    HW245406   3.141   9.597   1.262 -0.9950 -0.8795  0.6158
14467SOL     OW45407   9.939   3.761   0.221  0.0623 -0.2849 -0.0461
14467SOL    HW145408   9.864   3.793   0.171  1.1191  1.2051 -0.7577
14467SOL    HW245409   9.967   3.682   0.174  0.9165  0.9816 -1.7833
14468SOL     OW45410  10.578   9.712   7.351  0.4876 -0.2584  0.1779
14468SOL    HW145411  10.629   9.641   7.313 -2.6587 -0.9227 -3.3838
14468SOL    HW245412  10.588   9.785   7.290 -0.7231  0.4256  0.7511
14469SOL     OW45413   5.729   2.806   3.691  0.2050 -0.0493 -0.3266
14469SOL    HW145414   5.755   2.898   3.690  1.8155 -0.4838 -1.8034
14469SOL    HW245415   5.811   2.757   3.689 -0.4830 -1.6212  2.6817
14470SOL     OW45416   2.101   4.801   5.029 -0.8572  0.2745  0.2172
14470SOL    HW145417   2.019   4.838   4.996 -1.0544 -0.3552 -0.0032
14470SOL    HW245418   2.169   4.852   4.985 -1.1264  0.1935 -0.3009
14471SOL     OW45419   0.011   0.810   4.478 -0.1605 -0.3632 -0.2613
14471SOL    HW145420   0.085   0.868   4.499 -1.1626  0.5610  0.8433
14471SOL    HW245421   0.051   0.724   4.464  1.0762  0.0027  0.8416
14472SOL     OW45422   5.934   4.254   2.534 -0.2544 -0.5351 -0.9216
14472SOL    HW145423   5.907   4.292   2.450  0.2686 -2.0075 -1.7953
14472SOL    HW245424   5.894   4.167   2.534 -0.5213 -0.4298  0.5238
14473SOL     OW45425   0.926   3.630   8.274 -0.7451  0.5270  0.4669
14473SOL    HW145426   0.931   3.534   8.277  3.4439  0.5455 -0.0661
14473SOL    HW245427   0.917   3.656   8.366  1.2930 -0.4191  0.9945
14474SOL     OW45428   2.279  10.361  10.526 -0.1639  0.3028  0.3437
14474SOL    HW145429   2.228  10.307  10.587  0.1719 -0.1311  0.2445
14474SOL    HW245430   2.312  10.299  10.461 -2.0382  0.9883 -1.3769
14475SOL     OW45431   2.519   3.986   6.119  0.0139  0.1363  0.0917
14475SOL    HW145432   2.441   4.030   6.153  0.0233  1.5206 -1.5462
14475SOL    HW245433   2.493   3.957   6.032  1.1901  0.1929 -0.2832
14476SOL     OW45434   0.865   6.510   6.892  0.0635  0.3626 -0.0878
14476SOL    HW145435   0.800   6.547   6.952 -0.0711 -0.2176  0.1342
14476SOL    HW245436   0.925   6.582   6.873  0.0030  0.5984  0.6013
14477SOL     OW45437   1.481   7.023   8.725  0.3417 -0.5368 -0.1750
14477SOL    HW145438   1.400   7.074   8.724  0.2086 -0.6560  1.5620
14477SOL    HW245439   1.535   7.062   8.656  0.2435  1.9760  1.0548
14478SOL     OW45440   7.543   7.984   9.567 -0.1166  0.7384 -0.0913
14478SOL    HW145441   7.546   7.943   9.654 -2.9547 -1.3565 -0.8718
14478SOL    HW245442   7.524   7.913   9.507 -2.3634  2.7369 -1.9231
14479SOL     OW45443   2.346   5.614   5.772  0.0635  0.7264 -0.8339
14479SOL    HW145444   2.333   5.526   5.809 -2.7887  1.0369 -0.8887
14479SOL    HW245445   2.416   5.603   5.708  0.9736 -1.1049  0.3708
14480SOL     OW45446   2.405   1.958   7.947 -0.5578  0.6179 -0.0508
14480SOL    HW145447   2.382   2.027   8.008 -1.6138  0.5046 -0.3039
14480SOL    HW245448   2.351   1.975   7.870  1.1461  1.0900 -1.1946
14481SOL     OW45449   4.910  10.760   4.787 -0.1305  0.8245 -0.7438
14481SOL    HW145450   4.952  10.725   4.866 -0.7462  0.3441 -0.6232
14481SOL    HW245451   4.972  10.824   4.754  0.6859  0.1571 -0.5459
14482SOL     OW45452   9.541   4.742   5.634  0.6028  0.8827 -0.1595
14482SOL    HW145453   9.459   4.767   5.592  1.4568  3.5561 -0.4056
14482SOL    HW245454   9.606   4.746   5.564  1.0316 -1.0060  0.0796
14483SOL     OW45455   0.567   0.685   9.589 -0.3095  0.2270  0.4618
14483SOL    HW145456   0.573   0.773   9.625  2.3553 -0.1517  1.1346
14483SOL    HW245457   0.647   0.674   9.537 -0.9755 -1.5199 -0.2725
14484SOL     OW45458   8.818   1.357   0.607 -0.2441 -0.5312 -0.0136
14484SOL    HW145459   8.869   1.317   0.678  1.1153  1.0648 -0.0237
14484SOL    HW245460   8.734   1.378   0.647  0.9469  1.5492  1.5973
14485SOL     OW45461   1.016   9.969  10.023 -0.1123 -0.5248  0.0255
14485SOL    HW145462   0.998  10.021  10.101 -1.3634 -3.6956  2.0782
14485SOL    HW245463   0.929   9.949   9.987  0.2513 -1.7627 -0.2284
14486SOL     OW45464   3.012   7.096  10.841  0.6697  1.1208 -0.6540
14486SOL    HW145465   2.996   7.011  10.883  1.8964  0.9972 -0.4204
14486SOL    HW245466   2.928   7.142  10.848 -0.3141 -0.4151 -1.6160
14487SOL     OW45467   9.545   2.219   1.535  0.2186 -0.3260 -0.4975
14487SOL    HW145468   9.587   2.267   1.606  0.7035  1.4867 -1.9086
14487SOL    HW245469   9.502   2.145   1.577  1.6137 -0.0797  1.4759
14488SOL     OW45470   8.141   8.396   5.375 -0.2745 -0.0518  0.2829
14488SOL    HW145471   8.068   8.458   5.381  0.4715  0.9873 -0.8724
14488SOL    HW245472   8.202   8.424   5.443 -0.2490  0.0607  0.2146
14489SOL     OW45473   6.434   9.309   6.440  0.5023 -1.2131  0.0391
14489SOL    HW145474   6.432   9.351   6.354  1.7439  0.3759  0.7183
14489SOL    HW245475   6.383   9.367   6.497  1.1817 -1.2834  0.7425
14490SOL     OW45476   1.016  10.499   1.008 -0.0190  0.6972 -0.3460
14490SOL    HW145477   0.959  10.495   1.085  0.6796  2.0532  0.2799
14490SOL    HW245478   0.966  10.457   0.938 -0.9696  0.1031  0.6600
14491SOL     OW45479   7.862   0.017   5.130  0.0716  0.9916 -0.7454
14491SOL    HW145480   7.872  -0.072   5.163 -2.4824  1.2640  1.0802
14491SOL    HW245481   7.947   0.057   5.145  0.5607 -0.4611  0.7257
14492SOL     OW45482   4.311   5.710   6.747  0.0051  0.2362 -0.4705
14492SOL    HW145483   4.248   5.644   6.719  1.4459 -1.1562 -0.5977
14492SOL    HW245484   4.302   5.781   6.683 -1.7096  0.2853 -0.2152
14493SOL     OW45485   5.540   7.422   8.148  0.4211 -0.5192  0.3425
14493SOL    HW145486   5.537   7.435   8.053  0.3538  0.7867  0.4997
14493SOL    HW245487   5.597   7.346   8.160  0.6516 -0.5361 -0.7263
14494SOL     OW45488   2.073   2.894   8.016 -0.2609 -0.0373 -0.9140
14494SOL    HW145489   2.034   2.920   8.100  1.0737  0.8546 -0.5470
14494SOL    HW245490   2.008   2.920   7.951 -1.2647 -0.6336 -0.1689
14495SOL     OW45491   2.804   1.533   4.557  0.0382 -0.0757 -0.2209
14495SOL    HW145492   2.788   1.512   4.465  0.3465  0.2422 -0.3484
14495SOL    HW245493   2.779   1.625   4.566 -1.0150 -0.3980  0.2663
14496SOL     OW45494   3.607   7.409   0.427 -0.4946  0.1406  0.8813
14496SOL    HW145495   3.597   7.328   0.476  3.0440 -0.8483  0.2202
14496SOL    HW245496   3.526   7.416   0.376 -0.4704 -3.6396  0.0634
14497SOL     OW45497   1.089   8.093   0.362 -0.9164 -0.1714  0.0887
14497SOL    HW145498   1.132   8.177   0.345  0.1832 -0.4110  1.5076
14497SOL    HW245499   0.997   8.115   0.374 -0.7154  0.7680  0.0068
14498SOL     OW45500   8.422   3.683   5.852  0.3867  0.5662  0.0671
14498SOL    HW145501   8.356   3.686   5.921  0.8959 -2.2832  0.7887
14498SOL    HW245502   8.389   3.618   5.789  2.1347 -0.4619  0.1240
14499SOL     OW45503  10.367   3.475   7.452  0.5684 -0.4641 -0.3687
14499SOL    HW145504  10.278   3.509   7.454  1.6690  2.7530  0.1833
14499SOL    HW245505  10.376   3.426   7.534  0.6615  3.3970  2.1412
14500SOL     OW45506  11.087   9.678   3.898  0.2567 -0.0050 -0.8633
14500SOL    HW145507  11.117   9.594   3.933 -1.4364 -0.1175  0.4231
14500SOL    HW245508  11.120   9.743   3.960  1.7998  0.3732 -2.0012
14501SOL     OW45509   7.062   0.936   6.200 -0.3447 -0.4519 -0.0401
14501SOL    HW145510   7.117   1.003   6.240  1.2489 -2.5157  1.4862
14501SOL    HW245511   7.047   0.967   6.111  1.0272  1.4980  0.3353
14502SOL     OW45512   0.582   1.911   8.505 -0.0424 -0.2311  0.0569
14502SOL    HW145513   0.641   1.837   8.519  0.3733 -0.1850 -1.2644
14502SOL    HW245514   0.495   1.872   8.506  0.1582 -0.7140 -0.3623
14503SOL     OW45515  10.381   5.337   3.488  0.6142  0.3103 -0.0173
14503SOL    HW145516  10.352   5.253   3.523 -1.2845  0.7707 -0.3853
14503SOL    HW245517  10.412   5.386   3.565 -1.5448  0.5347  0.7753
14504SOL     OW45518   1.643   7.446   7.269 -0.4521 -1.4145  0.4206
14504SOL    HW145519   1.582   7.501   7.318 -0.7345 -1.7661  0.4623
14504SOL    HW245520   1.718   7.436   7.327  0.0680 -0.1940 -0.0022
14505SOL     OW45521   5.386   9.070   9.068  0.0981 -0.1800  0.1790
14505SOL    HW145522   5.323   9.008   9.106 -2.1596  2.0241  0.2632
14505SOL    HW245523   5.358   9.079   8.977  0.8470  0.1953 -0.0144
14506SOL     OW45524   5.402   0.044   8.817 -0.2584 -0.1247 -0.0274
14506SOL    HW145525   5.411  -0.050   8.806  0.4047 -0.3430  2.0456
14506SOL    HW245526   5.309   0.058   8.835 -0.5925 -0.1971 -1.5197
14507SOL     OW45527   0.196   7.855   7.623 -0.0990  0.1666  0.0127
14507SOL    HW145528   0.269   7.916   7.633 -0.1263  0.1576  0.2924
14507SOL    HW245529   0.189   7.812   7.709 -1.5074  1.3636  0.5321
14508SOL     OW45530   4.747   5.965   9.483 -0.8952 -0.0087  0.9603
14508SOL    HW145531   4.665   5.995   9.444  0.3644  1.2954 -0.8331
14508SOL    HW245532   4.814   5.990   9.420  0.9128 -0.9316  2.4295
14509SOL     OW45533   1.573   7.935   7.406  0.5805 -0.3656  0.1619
14509SOL    HW145534   1.564   7.957   7.499 -1.8709 -0.9959  0.1352
14509SOL    HW245535   1.519   8.001   7.361  1.7853 -0.0307 -0.8528
14510SOL     OW45536   4.455   6.467   3.804  0.2431  0.6533 -0.2338
14510SOL    HW145537   4.457   6.371   3.796 -0.3356  0.5213  0.9552
14510SOL    HW245538   4.535   6.488   3.852  0.6286  0.8265 -0.9416
14511SOL     OW45539  10.451   7.913   9.869 -0.2150  0.2279  0.4682
14511SOL    HW145540  10.418   7.997   9.836 -2.8424 -0.8559  0.0787
14511SOL    HW245541  10.436   7.852   9.797  3.0467 -0.3956  0.1727
14512SOL     OW45542   2.709   4.637   3.089 -0.6846 -0.0773 -0.2672
14512SOL    HW145543   2.668   4.558   3.125 -0.0670  0.1865  1.0700
14512SOL    HW245544   2.642   4.705   3.100 -0.5729 -0.0418  0.2343
14513SOL     OW45545   5.603   7.814  10.120  0.8096  0.3143 -0.2351
14513SOL    HW145546   5.607   7.718  10.119  2.9740  0.3344 -0.8005
14513SOL    HW245547   5.525   7.835  10.070  0.2047 -1.1589  0.0325
14514SOL     OW45548   4.343   3.270   9.258  0.2409  0.0364  0.5289
14514SOL    HW145549   4.286   3.195   9.275  0.9421 -0.6783 -0.1952
14514SOL    HW245550   4.283   3.345   9.253 -0.5082 -0.5284  0.8746
14515SOL     OW45551   4.140  10.869  10.518 -0.6793  0.0379  0.6572
14515SOL    HW145552   4.228  10.838  10.498 -0.0550  1.5720  0.9354
14515SOL    HW245553   4.127  10.845  10.610 -0.8004 -0.7002  0.4580
14516SOL     OW45554   8.537   0.803   3.480  0.6360 -1.3333  1.0550
14516SOL    HW145555   8.546   0.837   3.569 -0.9023 -0.2090  0.8390
14516SOL    HW245556   8.533   0.882   3.425 -1.3131 -1.8732  0.3366
14517SOL     OW45557   9.500   1.759   2.280 -0.3896  0.2437 -0.1650
14517SOL    HW145558   9.513   1.794   2.192 -3.5484 -2.3720 -1.8786
14517SOL    HW245559   9.583   1.714   2.300  1.1316  2.5905 -0.8197
14518SOL     OW45560   5.393   6.145  10.252  0.1618 -0.5468 -0.3077
14518SOL    HW145561   5.402   6.057  10.287 -1.0239 -0.8293 -0.6541
14518SOL    HW245562   5.344   6.192  10.320 -1.5541 -0.9119 -1.2331
14519SOL     OW45563   1.315   8.475   9.061 -0.0748  0.1550  0.6324
14519SOL    HW145564   1.290   8.561   9.027 -0.8779 -0.5223 -0.5854
14519SOL    HW245565   1.405   8.463   9.032  0.3579  0.9390  1.5850
14520SOL     OW45566   3.382   5.355   8.857  0.5872 -0.2735  0.7349
14520SOL    HW145567   3.336   5.348   8.773 -0.3301 -1.8157  1.3107
14520SOL    HW245568   3.369   5.445   8.885  0.0481 -0.0153 -0.3188
14521SOL     OW45569   9.247  10.068   0.402  0.4670 -0.2856 -0.0688
14521SOL    HW145570   9.267  10.101   0.315  2.8501 -0.5224  0.3327
14521SOL    HW245571   9.286   9.981   0.405  0.8773 -0.0878  1.3957
14522SOL     OW45572   4.059   0.561   8.384  0.1876  0.0096 -0.1571
14522SOL    HW145573   3.984   0.616   8.360  1.0931  1.5226  0.2903
14522SOL    HW245574   4.058   0.559   8.480  0.5048 -0.2611 -0.1559
14523SOL     OW45575   8.759   8.848   8.407 -0.2298  0.1186  0.2808
14523SOL    HW145576   8.674   8.882   8.434  0.4614  2.1322  0.1329
14523SOL    HW245577   8.800   8.921   8.361  1.7572 -0.6232  0.7562
14524SOL     OW45578   7.568   4.761   0.041 -0.1560  0.6916 -0.3168
14524SOL    HW145579   7.547   4.790   0.130 -1.1109  1.6169 -0.8239
14524SOL    HW245580   7.612   4.836   0.001  1.6334 -0.2389 -0.1819
14525SOL     OW45581   1.950   0.450   5.137 -0.3431 -0.6204 -0.5849
14525SOL    HW145582   2.022   0.507   5.163 -1.5844  1.2648 -1.1034
14525SOL    HW245583   1.976   0.415   5.052 -1.1052  2.2175 -2.1024
14526SOL     OW45584   9.289   4.524   2.903  0.2493  0.0336 -0.7657
14526SOL    HW145585   9.323   4.458   2.963  1.2494 -0.1258 -1.4884
14526SOL    HW245586   9.244   4.475   2.835  2.5168 -0.0721 -2.2782
14527SOL     OW45587   6.462   2.183  10.557  0.3966  0.1941 -0.1110
14527SOL    HW145588   6.468   2.164  10.463  1.1778 -0.8601  0.1327
14527SOL    HW245589   6.399   2.254  10.563 -0.8894 -0.7989 -1.2978
14528SOL     OW45590   1.149   6.905   9.007  0.4151  0.4532 -0.8665
14528SOL    HW145591   1.150   7.001   9.010  0.3328  0.4439  2.0552
14528SOL    HW245592   1.230   6.883   8.961  1.0837  1.9334 -0.4793
14529SOL     OW45593   0.048   3.021   1.549 -0.2835  0.0452 -0.1307
14529SOL    HW145594  -0.000   2.960   1.494 -1.4842  0.5480  0.3262
14529SOL    HW245595   0.041   2.984   1.638  0.2717  0.0675 -0.0745
14530SOL     OW45596   0.442   3.617   0.490  0.2295  0.3986 -0.2613
14530SOL    HW145597   0.506   3.661   0.546  0.6201  1.7009 -1.6765
14530SOL    HW245598   0.434   3.529   0.528 -2.2531  2.1497  4.0749
14531SOL     OW45599   7.118   9.302   3.704  0.3178 -0.3195  0.1498
14531SOL    HW145600   7.090   9.215   3.733 -1.5140  0.1622 -0.0482
14531SOL    HW245601   7.041   9.338   3.660  1.5913  0.7309 -1.3258
14532SOL     OW45602   8.156   8.700   5.257  0.0502 -0.2746  0.5416
14532SOL    HW145603   8.229   8.661   5.304  1.1980  0.7258 -0.3539
14532SOL    HW245604   8.188   8.786   5.229 -1.8726  0.7070  1.1498
14533SOL     OW45605   9.014   8.244   9.344  0.1590  0.0987 -0.0826
14533SOL    HW145606   9.045   8.156   9.322 -0.4947 -0.2490  0.3309
14533SOL    HW245607   8.949   8.263   9.277  1.1959  0.7992 -0.9154
14534SOL     OW45608   9.879   8.894   1.258  0.3585 -0.3427  0.1091
14534SOL    HW145609   9.952   8.893   1.196 -0.8353 -0.7970 -1.3361
14534SOL    HW245610   9.897   8.970   1.314  1.8866 -0.3902 -0.2655
14535SOL     OW45611   5.566   1.237   7.053  0.3092 -0.5690  0.0767
14535SOL    HW145612   5.543   1.297   6.982 -0.7738  1.6765  2.2013
14535SOL    HW245613   5.598   1.293   7.123 -0.9112 -2.4132  2.2632
14536SOL     OW45614   3.780   9.018   8.675  0.3903 -0.2346 -0.2124
14536SOL    HW145615   3.793   8.928   8.645  0.2225  0.2891 -2.0141
14536SOL    HW245616   3.862   9.041   8.718  0.1660 -1.4695  0.9248
14537SOL     OW45617   1.360   0.211   8.392 -0.3885  0.2664 -0.5785
14537SOL    HW145618   1.449   0.189   8.368 -0.8829  0.5122 -2.8288
14537SOL    HW245619   1.322   0.128   8.424  0.8793  0.3879  1.4456
14538SOL     OW45620   0.252   1.286   6.441 -0.6348  0.1161 -0.4736
14538SOL    HW145621   0.245   1.196   6.408  1.2092  0.7823 -2.9252
14538SOL    HW245622   0.302   1.278   6.522 -0.8318 -1.0713 -0.4419
14539SOL     OW45623   6.077   5.006   7.212 -0.2051 -0.2376 -0.3676
14539SOL    HW145624   6.032   5.000   7.128  0.1276 -1.9635 -0.4710
14539SOL    HW245625   6.164   5.041   7.191 -0.3564 -0.0347 -0.6518
14540SOL     OW45626   6.808   0.224   0.205 -0.5379  0.4182 -0.2640
14540SOL    HW145627   6.836   0.262   0.289 -0.9485 -0.8918  0.4913
14540SOL    HW245628   6.713   0.236   0.204 -0.8109 -1.3683  0.4318
14541SOL     OW45629   5.649   4.418   2.839  0.4166 -0.0228 -0.0888
14541SOL    HW145630   5.610   4.334   2.814 -0.5031  1.0484 -2.6479
14541SOL    HW245631   5.574   4.473   2.863  0.8177  0.6108 -0.2548
14542SOL     OW45632   5.724   7.782   8.701  0.1497 -0.7002 -0.5852
14542SOL    HW145633   5.710   7.756   8.610  2.9083 -2.0847 -0.7353
14542SOL    HW245634   5.716   7.701   8.751  0.7345 -0.3396  0.1142
14543SOL     OW45635   5.836   0.526   5.602  0.1236  0.2946 -0.5243
14543SOL    HW145636   5.807   0.581   5.528 -0.4448  1.8231  0.7680
14543SOL    HW245637   5.755   0.488   5.636  0.3367 -0.0994 -0.4553
14544SOL     OW45638   3.635   6.899  10.169 -0.2689 -0.1230  0.0964
14544SOL    HW145639   3.671   6.811  10.170 -1.7509 -0.7836 -1.3742
14544SOL    HW245640   3.552   6.892  10.216  0.0697  0.7462  0.8786
14545SOL     OW45641   8.235  10.623   0.102 -0.4719 -0.0612  0.2906
14545SOL    HW145642   8.330  10.607   0.097 -0.0788  1.5003  1.6600
14545SOL    HW245643   8.199  10.541   0.137  0.6010 -0.1606  1.2460
14546SOL     OW45644   0.354   9.635   9.403 -0.0473 -0.3799  0.0037
14546SOL    HW145645   0.406   9.605   9.478  0.4765 -0.4578 -0.3854
14546SOL    HW245646   0.348   9.558   9.346  1.3284  0.2351 -1.0185
14547SOL     OW45647   5.320   1.631   3.610 -0.5909  0.8031  0.2469
14547SOL    HW145648   5.328   1.664   3.520 -1.3809 -0.3693 -0.2819
14547SOL    HW245649   5.391   1.673   3.658  1.1255 -0.0908 -1.3915
14548SOL     OW45650   6.252   7.233   8.606 -0.4093 -0.6565 -0.6627
14548SOL    HW145651   6.288   7.259   8.690 -0.6466  2.6729 -1.4364
14548SOL    HW245652   6.243   7.138   8.611 -0.4270 -0.5826  3.0181
14549SOL     OW45653   7.693   7.686   0.168  0.2988 -1.0821  0.1981
14549SOL    HW145654   7.725   7.718   0.084 -0.3927  0.5625  0.5282
14549SOL    HW245655   7.598   7.683   0.158  0.0284  1.0693  1.5165
14550SOL     OW45656   4.142   0.963   3.878  0.1538 -0.1501 -0.1216
14550SOL    HW145657   4.123   1.022   3.952  0.4719  1.8633 -1.5807
14550SOL    HW245658   4.144   0.876   3.918 -1.7457  0.6219  1.8994
14551SOL     OW45659   9.971   1.391   6.186 -0.6685 -0.1966  0.0086
14551SOL    HW145660   9.971   1.295   6.177  3.3272 -0.3352 -0.1022
14551SOL    HW245661   9.909   1.408   6.257  0.3739 -3.1536  1.8023
14552SOL     OW45662   2.198   2.693   9.664  0.1963  0.2730  0.4588
14552SOL    HW145663   2.260   2.765   9.655 -1.5512  1.8986  0.8543
14552SOL    HW245664   2.234   2.638   9.733  1.1650  1.1913  0.6941
14553SOL     OW45665   1.188   0.010   0.779  0.0465  0.2151 -0.1803
14553SOL    HW145666   1.144  -0.072   0.796 -1.1130  0.4646 -1.7583
14553SOL    HW245667   1.252  -0.010   0.710  0.8823  0.3229  0.5398
14554SOL     OW45668   1.952   1.633   7.627  0.3446 -0.3297 -0.1128
14554SOL    HW145669   2.033   1.604   7.585  1.3990  2.0474  0.1378
14554SOL    HW245670   1.977   1.648   7.718  0.1184  2.0544 -0.3879
14555SOL     OW45671   6.455   2.416   1.691 -0.1274 -0.1860  0.0907
14555SOL    HW145672   6.460   2.509   1.669 -2.4384 -0.4203 -2.0095
14555SOL    HW245673   6.544   2.383   1.681  0.3756  1.4415 -1.1947
14556SOL     OW45674   2.484   6.247   0.892  0.1486  0.6557  0.0914
14556SOL    HW145675   2.552   6.243   0.959  1.8351  2.2208 -1.4075
14556SOL    HW245676   2.467   6.156   0.868  3.5038  0.2065 -1.1155
14557SOL     OW45677   3.028   1.003   5.511  0.3037  0.1177  0.0943
14557SOL    HW145678   3.062   0.916   5.488  0.4305 -0.6080  2.7369
14557SOL    HW245679   3.038   1.009   5.606 -1.1850  2.4155  0.1936
14558SOL     OW45680   6.094   8.523   2.755 -0.1668 -0.6184  0.1078
14558SOL    HW145681   6.057   8.550   2.671 -0.2902 -0.6151  0.1633
14558SOL    HW245682   6.138   8.601   2.789  1.9097 -1.2233 -1.0411
14559SOL     OW45683  10.432   1.796   6.563 -0.2214 -0.0969 -0.0264
14559SOL    HW145684  10.494   1.863   6.534  0.7182 -1.1078 -0.4533
14559SOL    HW245685  10.346   1.830   6.539  0.4181 -0.4513 -3.2683
14560SOL     OW45686   5.449   6.740   2.923  0.1835  0.0015 -0.1200
14560SOL    HW145687   5.530   6.689   2.932 -0.4043 -0.9088  0.1408
14560SOL    HW245688   5.394   6.688   2.865 -1.0568 -0.4744  1.4178
14561SOL     OW45689  10.214   4.069   9.052  0.1164 -0.6898 -0.2018
14561SOL    HW145690  10.237   4.109   8.969  2.3399 -0.2920  0.5331
14561SOL    HW245691  10.166   4.137   9.099  0.7850 -0.1326 -0.3164
14562SOL     OW45692   7.434  10.966   9.475  0.0465 -0.8646  0.0181
14562SOL    HW145693   7.443  10.947   9.382 -1.2130 -0.2468 -0.2470
14562SOL    HW245694   7.407  11.057   9.479 -1.7102 -1.3790  0.8724
14563SOL     OW45695   7.913   4.525   9.112 -0.1852 -0.8951  0.4678
14563SOL    HW145696   7.940   4.443   9.154  0.2761 -0.6911  0.5690
14563SOL    HW245697   7.977   4.590   9.141 -0.8603 -0.3697  0.8417
14564SOL     OW45698   6.418  10.790   4.295  0.1742  0.1682 -0.4491
14564SOL    HW145699   6.464  10.860   4.248 -0.5348  0.3359 -0.9125
14564SOL    HW245700   6.325  10.810   4.282 -0.1123  1.1023  2.3048
14565SOL     OW45701   4.551   9.031   2.939 -0.6282 -0.0655  0.4154
14565SOL    HW145702   4.499   9.082   3.001 -0.3990  2.1863 -1.1061
14565SOL    HW245703   4.487   8.991   2.881 -0.7757 -0.1221  0.6172
14566SOL     OW45704   3.674   3.464   3.694  0.2493 -0.4453 -0.3151
14566SOL    HW145705   3.712   3.500   3.614 -0.0809  0.3919 -0.1113
14566SOL    HW245706   3.743   3.409   3.730  0.8517  0.1319 -0.5547
14567SOL     OW45707   4.299   4.654   0.147  0.5580 -0.0205  0.1784
14567SOL    HW145708   4.311   4.746   0.168  0.4094 -0.1532  0.8462
14567SOL    HW245709   4.378   4.611   0.181  0.1777 -0.2786  0.7510
14568SOL     OW45710   4.685   0.813  10.733 -0.1814  0.5021 -0.0110
14568SOL    HW145711   4.693   0.738  10.673 -1.7964 -1.2421  1.8127
14568SOL    HW245712   4.773   0.822  10.770  0.2566  0.0903 -0.8957
14569SOL     OW45713   1.009   0.924  10.114 -0.0935  0.5871  0.3792
14569SOL    HW145714   1.052   0.988  10.057 -0.5946  0.5314 -0.0674
14569SOL    HW245715   1.081   0.878  10.156  0.3691 -0.8019 -1.7799
14570SOL     OW45716   6.903   3.442   5.308  0.0424  0.6738  0.1934
14570SOL    HW145717   6.945   3.503   5.247 -2.2063 -0.4206 -2.6447
14570SOL    HW245718   6.895   3.360   5.259 -2.4849 -0.0949  1.7157
14571SOL     OW45719   1.051   4.434   7.092 -0.0423  0.3587  0.5188
14571SOL    HW145720   0.997   4.462   7.166 -1.4231 -0.4759 -0.1342
14571SOL    HW245721   1.087   4.350   7.120  1.2178  1.0602  1.0779
14572SOL     OW45722   2.468   5.267   2.147 -0.1165  0.5262 -0.1141
14572SOL    HW145723   2.472   5.362   2.137 -0.7753  1.0511  3.3571
14572SOL    HW245724   2.376   5.248   2.167  0.0054 -0.8629 -0.7442
14573SOL     OW45725   4.818   2.991   4.281  0.0479  0.3858  0.2449
14573SOL    HW145726   4.769   3.070   4.259 -0.7896 -0.2877 -0.3337
14573SOL    HW245727   4.816   2.987   4.377 -1.2708  0.2237  0.2223
14574SOL     OW45728   7.837   2.026   8.150  0.2457 -0.0216  0.3736
14574SOL    HW145729   7.861   2.107   8.195  0.2666 -0.1591  0.6113
14574SOL    HW245730   7.766   2.052   8.091  0.9567  0.3793 -0.3185
14575SOL     OW45731   5.223   4.955   6.418  0.4867  0.2464  0.2016
14575SOL    HW145732   5.205   4.866   6.448  0.1175  0.4969  0.7520
14575SOL    HW245733   5.170   5.010   6.475 -0.4553  0.7332 -1.1046
14576SOL     OW45734   9.899   0.293   6.077  0.0151  0.1592 -0.1624
14576SOL    HW145735   9.899   0.351   6.001  1.3463  1.5284  0.8021
14576SOL    HW245736   9.985   0.251   6.075  0.0953  0.2674  0.6140
14577SOL     OW45737   4.643   7.505   1.076  0.1970 -0.3226  0.8773
14577SOL    HW145738   4.567   7.472   1.125 -0.5458 -0.2432 -0.1872
14577SOL    HW245739   4.610   7.581   1.029  0.9509 -0.2677  0.4177
14578SOL     OW45740   0.102   1.046   6.583 -0.7245 -1.0757 -0.6024
14578SOL    HW145741   0.194   1.043   6.608 -0.4240 -0.4918 -1.5594
14578SOL    HW245742   0.056   1.078   6.660  0.5224  3.6994 -1.5284
14579SOL     OW45743  10.662  10.815   9.888  0.7763 -0.2793 -0.0539
14579SOL    HW145744  10.755  10.799   9.873  0.5687 -0.9299 -0.7061
14579SOL    HW245745  10.629  10.847   9.803  0.9242  2.5783  0.8547
14580SOL     OW45746   4.711   1.346   6.531  0.9430 -0.1747  0.6686
14580SOL    HW145747   4.656   1.321   6.456 -0.6005  0.0397  1.6767
14580SOL    HW245748   4.766   1.269   6.547  1.7118 -0.0093 -1.0204
14581SOL     OW45749   6.668   9.089   6.380  0.5957 -0.0499 -0.2432
14581SOL    HW145750   6.727   9.014   6.389 -1.2318 -1.9074 -2.6547
14581SOL    HW245751   6.661   9.104   6.286 -1.9290  0.7615 -0.0123
14582SOL     OW45752   5.035  10.791   8.988 -0.0314 -0.4660 -0.1381
14582SOL    HW145753   5.033  10.812   8.895  0.0736 -1.5108 -0.3849
14582SOL    HW245754   4.992  10.866   9.030  1.8328  1.0605 -0.8108
14583SOL     OW45755   4.775   3.282   3.351 -0.3472 -0.1718 -0.0852
14583SOL    HW145756   4.706   3.258   3.413  0.1116 -0.0546  0.4750
14583SOL    HW245757   4.733   3.344   3.292 -0.4355  0.7642  0.9322
14584SOL     OW45758   1.502   8.119   0.462  0.1074  0.2348  0.1461
14584SOL    HW145759   1.484   8.066   0.384  0.9866  0.1167  0.0149
14584SOL    HW245760   1.471   8.206   0.440 -2.0067 -0.3397  0.6160
14585SOL     OW45761  10.115  10.177   1.751 -0.2547  0.4733  0.0018
14585SOL    HW145762  10.202  10.140   1.759 -0.8408 -1.0839 -0.4975
14585SOL    HW245763  10.075  10.129   1.678 -2.0298  0.1241  1.1451
14586SOL     OW45764   1.586  10.580   6.387 -0.4227  0.2984  0.6075
14586SOL    HW145765   1.514  10.606   6.444 -0.5939  2.1588 -0.4143
14586SOL    HW245766   1.639  10.659   6.377  0.5819 -0.4705 -0.3915
14587SOL     OW45767   8.200   9.736   5.986 -0.2577 -0.0915 -0.2552
14587SOL    HW145768   8.222   9.789   6.063  0.1483  1.3293 -1.3197
14587SOL    HW245769   8.108   9.757   5.968 -0.9318 -1.8125  0.8765
14588SOL     OW45770  10.483  10.404   9.586 -0.1389  0.2113 -0.5473
14588SOL    HW145771  10.478  10.376   9.495 -0.5324  1.9635 -1.1029
14588SOL    HW245772  10.396  10.386   9.621  0.1641 -0.9367 -0.3504
14589SOL     OW45773   7.422   7.165   8.878 -0.3080  0.3893  1.1696
14589SOL    HW145774   7.425   7.244   8.824 -0.3744 -0.3442  0.0503
14589SOL    HW245775   7.504   7.166   8.927 -1.3205  2.3334  2.9468
14590SOL     OW45776   9.534   1.479   8.303  0.1180  0.4752  0.2498
14590SOL    HW145777   9.482   1.423   8.245 -0.2651  0.9430  0.1316
14590SOL    HW245778   9.615   1.495   8.254  0.2810 -0.0701  0.3365
14591SOL     OW45779   2.453   2.757   3.270 -0.1198 -0.3477 -0.3201
14591SOL    HW145780   2.531   2.724   3.314  0.1799  0.9225  0.1280
14591SOL    HW245781   2.444   2.847   3.301 -2.6893 -0.9466  0.9319
14592SOL     OW45782   6.695   8.030   0.792  0.0885  0.3635 -0.3534
14592SOL    HW145783   6.709   7.993   0.705 -1.1623  0.5722 -0.6694
14592SOL    HW245784   6.680   8.123   0.776 -0.3389  0.3691  0.0630
14593SOL     OW45785   9.669  10.943   0.220  0.0494 -0.0680  0.6002
14593SOL    HW145786   9.674  10.982   0.307  1.2428 -0.3098  0.6611
14593SOL    HW245787   9.755  10.959   0.182  0.3668 -2.0582  0.3840
14594SOL     OW45788   0.330  10.364  10.688  0.6426 -0.1300  0.0216
14594SOL    HW145789   0.399  10.389  10.749 -0.4602  0.0477  1.2555
14594SOL    HW245790   0.363  10.388  10.602  3.1324 -2.2713  0.2590
14595SOL     OW45791   6.047   1.314   7.347 -0.0646  0.2376 -0.7892
14595SOL    HW145792   6.110   1.381   7.318 -2.5368  1.9303 -2.6980
14595SOL    HW245793   6.048   1.248   7.277 -0.9250  0.6728 -1.2272
14596SOL     OW45794   9.885  11.073   9.719 -0.3589  0.1479  1.0488
14596SOL    HW145795   9.891  11.104   9.809 -0.3212 -0.9133  1.4202
14596SOL    HW245796   9.974  11.047   9.696 -0.1279  1.5015  0.2819
14597SOL     OW45797   6.509   2.510   4.450  0.1885 -0.4833  0.1665
14597SOL    HW145798   6.490   2.422   4.417 -0.1610 -1.3842  2.5024
14597SOL    HW245799   6.435   2.563   4.422 -0.8713 -1.5719  0.8092
14598SOL     OW45800   1.613   1.484   6.288  0.4320 -0.1213  0.6202
14598SOL    HW145801   1.611   1.392   6.263 -1.0427  0.4019 -1.4485
14598SOL    HW245802   1.522   1.506   6.307 -0.0760  1.9216 -3.2938
14599SOL     OW45803   3.265  10.953   9.890 -0.5650  0.7531 -0.0751
14599SOL    HW145804   3.322  10.942   9.814 -0.2245 -1.8942  0.4631
14599SOL    HW245805   3.319  11.001   9.954  0.4420 -0.1165 -0.2405
14600SOL     OW45806   0.949   1.191   5.828  0.2141 -0.2171 -1.1421
14600SOL    HW145807   0.904   1.259   5.778 -0.9049 -1.2473 -1.5823
14600SOL    HW245808   0.884   1.161   5.891  0.9850 -0.2781 -0.3590
14601SOL     OW45809   5.791  10.102   2.954  0.2701 -0.1907  0.5543
14601SOL    HW145810   5.742  10.161   3.012  1.0792  0.7722  0.2784
14601SOL    HW245811   5.738  10.096   2.875  0.0528 -0.0318  0.6874
14602SOL     OW45812   1.815   0.426   0.211 -0.1081 -0.0318  0.1146
14602SOL    HW145813   1.750   0.477   0.162  0.8271  1.3715  0.2839
14602SOL    HW245814   1.781   0.422   0.300  0.2786  1.1861  0.3337
14603SOL     OW45815   0.716   8.403   7.121  0.4694  0.0592  0.0669
14603SOL    HW145816   0.628   8.367   7.133 -0.5434  1.8069 -1.5508
14603SOL    HW245817   0.729   8.403   7.026  1.6934  1.0038  0.2097
14604SOL     OW45818  10.464   9.456   1.614 -0.2971 -0.0369  0.1326
14604SOL    HW145819  10.451   9.549   1.598 -1.0334 -0.2072 -0.3420
14604SOL    HW245820  10.435   9.414   1.533 -0.0462 -0.6822  0.3721
14605SOL     OW45821   1.822   0.593   1.560  0.3910 -0.7043 -0.5020
14605SOL    HW145822   1.741   0.643   1.547  0.2417 -0.9434 -0.5027
14605SOL    HW245823   1.869   0.602   1.478  0.4031 -0.4958 -0.4733
14606SOL     OW45824   1.410   0.216   2.629  0.3155  0.8508  0.0273
14606SOL    HW145825   1.362   0.282   2.579 -1.4555 -0.1825  0.2835
14606SOL    HW245826   1.502   0.244   2.624  0.6876 -0.1852 -5.4375
14607SOL     OW45827   0.598  11.099   8.613 -0.2800 -0.2665 -0.1502
14607SOL    HW145828   0.526  11.065   8.560  0.2649 -1.1095 -0.3762
14607SOL    HW245829   0.558  11.165   8.669 -1.2266 -0.7219 -0.2745
14608SOL     OW45830   9.876   3.256   1.514 -0.0080  0.0570 -0.2635
14608SOL    HW145831   9.950   3.252   1.576  0.3110 -0.2871 -0.6664
14608SOL    HW245832   9.892   3.336   1.464  1.4224 -1.2499 -1.9975
14609SOL     OW45833   7.912   4.512   7.632 -0.1092 -0.1449  0.3934
14609SOL    HW145834   7.909   4.493   7.726  0.1043 -3.0294 -0.0935
14609SOL    HW245835   7.852   4.449   7.593  0.4379  0.4398 -1.4980
14610SOL     OW45836   0.531  10.951   9.445  0.5424 -0.2074 -0.2688
14610SOL    HW145837   0.461  10.887   9.448 -0.8011  1.2252  1.1146
14610SOL    HW245838   0.503  11.016   9.381  0.0489  0.8890  0.9907
14611SOL     OW45839   0.592   5.449   3.140  0.7352 -0.3575 -0.1222
14611SOL    HW145840   0.517   5.499   3.173  0.6938 -0.4793 -0.0316
14611SOL    HW245841   0.669   5.494   3.174  0.6790 -1.1888  1.1662
14612SOL     OW45842   9.756   3.068   4.877  0.1220  0.0392 -0.0166
14612SOL    HW145843   9.778   3.151   4.919 -0.5474  0.5432 -0.6341
14612SOL    HW245844   9.694   3.027   4.936 -1.1989  0.9719 -0.7088
14613SOL     OW45845   6.526   6.190   6.546  0.0544 -0.7448 -0.4705
14613SOL    HW145846   6.563   6.277   6.563  1.1152 -1.4305  0.9827
14613SOL    HW245847   6.532   6.179   6.452  0.2104  0.6158 -0.6482
14614SOL     OW45848   6.783   1.748   8.092 -0.1666  0.1530  0.0504
14614SOL    HW145849   6.795   1.709   8.005  1.1117 -0.4816  0.5002
14614SOL    HW245850   6.688   1.750   8.104 -0.3326 -3.2798  0.1883
14615SOL     OW45851   8.187  10.344   6.421  0.0533  0.0949  0.5273
14615SOL    HW145852   8.188  10.360   6.327 -0.4762  0.0621  0.5168
14615SOL    HW245853   8.266  10.292   6.437  0.9650  1.3868  0.3396
14616SOL     OW45854   3.347   1.748   0.848 -1.0032  0.2252  0.1862
14616SOL    HW145855   3.266   1.702   0.829 -0.6659 -0.4692  0.4141
14616SOL    HW245856   3.415   1.680   0.849 -0.1543  0.9721 -1.5435
14617SOL     OW45857   6.347   8.550   8.029  0.0295  0.7571 -0.3889
14617SOL    HW145858   6.279   8.506   8.082  0.0395 -0.5504 -1.4112
14617SOL    HW245859   6.314   8.545   7.940  2.1873 -1.4294 -1.1626
14618SOL     OW45860   8.303   3.951  10.459 -0.0137  0.2246  0.0186
14618SOL    HW145861   8.242   4.023  10.476 -0.0708  0.1226  0.2476
14618SOL    HW245862   8.389   3.991  10.471  0.1408  1.1889 -3.2371
14619SOL     OW45863   5.006   2.797   7.041 -0.3054  0.5726 -0.1615
14619SOL    HW145864   4.933   2.825   6.986  0.3303 -1.1211 -1.9782
14619SOL    HW245865   5.083   2.838   7.001 -0.0490  0.9904  0.7386
14620SOL     OW45866   6.279  10.775   8.416 -0.0773 -0.0251 -0.3208
14620SOL    HW145867   6.363  10.813   8.391 -0.6455  1.1954 -0.4389
14620SOL    HW245868   6.217  10.804   8.349 -0.5920 -0.9405 -0.2646
14621SOL     OW45869   9.654   4.932   4.047  0.5605  0.0660  0.3639
14621SOL    HW145870   9.599   5.002   4.083  2.2700  1.5194  0.3087
14621SOL    HW245871   9.601   4.892   3.978 -0.4984  1.2696  0.4476
14622SOL     OW45872   2.161   1.049   3.131 -0.0241  0.5694  0.0290
14622SOL    HW145873   2.142   0.964   3.090 -1.1397  1.8763 -2.3535
14622SOL    HW245874   2.204   1.026   3.214 -0.5994 -2.3086 -0.3510
14623SOL     OW45875   2.515   0.576   8.832  0.0003  0.2151  0.6363
14623SOL    HW145876   2.537   0.611   8.918  1.8794 -0.5804  0.5146
14623SOL    HW245877   2.591   0.595   8.778 -1.4383  1.3958 -1.1065
14624SOL     OW45878   3.009   9.689  11.048 -0.5744  0.6886 -0.0229
14624SOL    HW145879   3.004   9.594  11.035  0.1279  0.7191 -0.5273
14624SOL    HW245880   3.047   9.723  10.968 -0.1477  1.3335  0.4408
14625SOL     OW45881   4.856   0.826   0.451 -0.5873 -0.0016  0.2237
14625SOL    HW145882   4.801   0.771   0.506 -0.5797  1.1743  1.4646
14625SOL    HW245883   4.934   0.773   0.434 -1.3462 -1.0339 -0.1232
14626SOL     OW45884   9.999   8.291   6.284 -0.1976 -0.1867 -0.4443
14626SOL    HW145885   9.961   8.279   6.197 -0.0450 -3.9171 -0.1599
14626SOL    HW245886   9.923   8.293   6.343 -0.2510 -3.2580 -0.2701
14627SOL     OW45887   3.637   5.720   6.652  0.0707  0.2781 -0.2334
14627SOL    HW145888   3.626   5.764   6.568 -0.2836  0.0627 -0.3031
14627SOL    HW245889   3.577   5.766   6.711  0.1857  0.3115 -0.1415
14628SOL     OW45890   7.140  10.634  10.771  0.4021  0.2295 -0.2469
14628SOL    HW145891   7.121  10.626  10.678 -0.8199 -2.2648  0.1140
14628SOL    HW245892   7.231  10.662  10.775  0.6439 -0.1422 -2.2062
14629SOL     OW45893   5.983   2.103   8.452  0.4353  0.2391  0.2486
14629SOL    HW145894   6.029   2.147   8.381 -1.9791 -0.1626 -1.7162
14629SOL    HW245895   5.968   2.014   8.420  1.5900 -0.8483  2.4346
14630SOL     OW45896   8.752   3.264   6.069 -0.3260 -0.1638  0.0611
14630SOL    HW145897   8.836   3.231   6.100  0.4997 -0.6408 -2.4504
14630SOL    HW245898   8.755   3.358   6.087  0.7352 -0.1858  0.0863
14631SOL     OW45899   4.337   5.065  10.713 -0.5691  0.3437 -0.2177
14631SOL    HW145900   4.311   4.985  10.666 -1.6878  0.8848 -0.5594
14631SOL    HW245901   4.312   5.048  10.804  0.0963 -0.0628 -0.0994
14632SOL     OW45902   4.278   8.369   8.089  0.1089 -0.0183  0.3525
14632SOL    HW145903   4.370   8.385   8.108  0.3023 -0.4972 -0.1494
14632SOL    HW245904   4.270   8.383   7.995 -0.0774 -1.0717  0.1921
14633SOL     OW45905   4.596   3.114   0.344 -0.1174  0.0787  0.1409
14633SOL    HW145906   4.595   3.105   0.249 -1.4659 -1.0752  0.2119
14633SOL    HW245907   4.686   3.097   0.370 -0.0646 -1.2818 -0.8310
14634SOL     OW45908   8.337   0.557   8.018  0.0223 -0.6591 -0.3444
14634SOL    HW145909   8.363   0.551   8.110  1.3513 -0.0037 -0.6537
14634SOL    HW245910   8.393   0.626   7.982  0.0069 -1.3807 -1.8184
14635SOL     OW45911  10.992  10.122   1.386  0.1592 -0.6498  0.9632
14635SOL    HW145912  10.975  10.080   1.302 -2.7157 -0.4208  1.3098
14635SOL    HW245913  11.048  10.060   1.433  2.8085 -0.2531 -1.4366
14636SOL     OW45914   6.159   2.044  10.336  0.1440  0.3243  0.5881
14636SOL    HW145915   6.129   2.134  10.321 -0.9252  0.1762  1.7420
14636SOL    HW245916   6.080   1.995  10.357  0.7340 -0.8762  0.1082
14637SOL     OW45917   9.776   8.678  10.091  0.1342  0.3441 -0.4424
14637SOL    HW145918   9.763   8.737  10.165  0.1387  2.4268 -2.0149
14637SOL    HW245919   9.705   8.614  10.099  0.5500  0.0661  1.7058
14638SOL     OW45920   5.471   4.878   6.208  0.5131 -0.3019 -0.1909
14638SOL    HW145921   5.425   4.920   6.281  1.1334  0.0980 -0.0249
14638SOL    HW245922   5.401   4.843   6.153 -0.0891  1.6805 -0.7838
14639SOL     OW45923   2.921   1.866   9.470  0.4292  0.0071  0.3122
14639SOL    HW145924   2.840   1.819   9.449  0.2777  0.0864  0.7078
14639SOL    HW245925   2.891   1.951   9.504  0.5972 -0.7177  2.3860
14640SOL     OW45926   2.652   7.341   3.243 -0.0737  0.2837  0.1367
14640SOL    HW145927   2.588   7.346   3.172 -2.2391  2.5353  2.0724
14640SOL    HW245928   2.672   7.247   3.251 -2.3275 -0.3796 -1.2456
14641SOL     OW45929   4.549   0.812   4.288 -0.6657  0.0578 -0.0902
14641SOL    HW145930   4.625   0.802   4.230 -1.3223 -3.2757 -0.5651
14641SOL    HW245931   4.587   0.824   4.375  0.3412  0.9733 -0.6200
14642SOL     OW45932   3.160  10.256   3.344  0.7296 -0.0261  0.0384
14642SOL    HW145933   3.142  10.204   3.266 -1.9493  1.3922 -0.4083
14642SOL    HW245934   3.194  10.193   3.408 -2.7703 -2.5697 -0.2982
14643SOL     OW45935   7.208   7.837   0.425 -0.0272 -0.0210  0.5063
14643SOL    HW145936   7.203   7.766   0.489  4.0200 -0.5818  0.4673
14643SOL    HW245937   7.293   7.879   0.442  1.2087 -0.0353 -4.2248
14644SOL     OW45938   9.932   3.565  10.781 -0.2550 -0.7583 -0.0794
14644SOL    HW145939   9.937   3.600  10.692  0.7531 -1.4333 -0.3070
14644SOL    HW245940   9.894   3.478  10.771 -2.3296  0.0282  0.4329
14645SOL     OW45941   1.784   3.040   2.807 -0.1768  0.4739 -0.6170
14645SOL    HW145942   1.824   2.954   2.819 -0.5820  0.1813 -1.2731
14645SOL    HW245943   1.707   3.022   2.752  0.9804  1.5418 -2.7337
14646SOL     OW45944   9.362   4.807   0.064 -0.0080  0.2625  0.1334
14646SOL    HW145945   9.305   4.836   0.135  2.3987  0.9055  1.8981
14646SOL    HW245946   9.440   4.773   0.107  1.7838  1.1265 -2.2102
14647SOL     OW45947   5.385   9.377   3.119 -0.7058  0.0644 -0.9687
14647SOL    HW145948   5.441   9.455   3.123 -1.2615  0.4475  1.5766
14647SOL    HW245949   5.296   9.412   3.125 -0.9404 -0.7330  1.0244
14648SOL     OW45950   4.248   9.939   2.764 -0.5219  0.0550 -0.1348
14648SOL    HW145951   4.245  10.027   2.728 -2.1106 -0.0067 -0.1951
14648SOL    HW245952   4.285   9.950   2.852 -2.0458  0.9932  0.4166
14649SOL     OW45953   2.325   6.900   9.297  0.2027 -0.5455  0.0634
14649SOL    HW145954   2.312   6.841   9.371 -0.2753  1.1160  1.3729
14649SOL    HW245955   2.250   6.959   9.300 -0.5198 -1.2199 -2.5707
14650SOL     OW45956   6.011   4.863   8.737  0.5133 -1.0353 -0.0496
14650SOL    HW145957   5.927   4.881   8.693 -1.1977 -1.4736  2.7738
14650SOL    HW245958   6.012   4.768   8.747  1.7264 -1.0974 -0.6632
14651SOL     OW45959  10.158   1.491   1.698  0.1968  1.0431  0.0267
14651SOL    HW145960  10.193   1.410   1.735 -0.7243  1.2011  1.3303
14651SOL    HW245961  10.214   1.560   1.733  0.1736  1.0779 -0.0054
14652SOL     OW45962  10.569  10.434   6.317  0.3199  0.1395  0.6072
14652SOL    HW145963  10.607  10.508   6.364  0.0022  0.2256  0.7334
14652SOL    HW245964  10.593  10.448   6.225 -0.8900  1.1462  0.4053
14653SOL     OW45965   6.477   3.263  10.467 -0.0197  0.0602  0.3573
14653SOL    HW145966   6.387   3.293  10.473 -0.1347 -0.2946  0.4168
14653SOL    HW245967   6.520   3.298  10.545  0.0116  0.6207  0.0924
14654SOL     OW45968   5.261   7.560   8.178 -0.0265 -0.5356 -0.0931
14654SOL    HW145969   5.323   7.493   8.149  1.7273  0.9238  0.1107
14654SOL    HW245970   5.195   7.562   8.109  0.9032 -1.1761 -1.0448
14655SOL     OW45971   7.012   9.714   7.846  0.8154  0.0843  0.3004
14655SOL    HW145972   7.013   9.694   7.753  1.1753 -1.2415  0.5576
14655SOL    HW245973   6.953   9.788   7.855  0.7558  0.2001 -0.9738
14656SOL     OW45974   4.784   9.235   0.416 -0.5751  0.3937 -0.7325
14656SOL    HW145975   4.707   9.240   0.474  1.4566 -0.7332  2.3137
14656SOL    HW245976   4.775   9.151   0.372 -0.6344 -0.1753  0.3418
14657SOL     OW45977   2.364   1.181   5.297 -0.6153 -0.6057  0.2710
14657SOL    HW145978   2.357   1.090   5.327  3.6863 -1.4314 -0.6273
14657SOL    HW245979   2.389   1.174   5.205 -0.5724  1.5087  0.0919
14658SOL     OW45980  10.208   0.683   3.597 -0.3922 -0.0548 -0.5185
14658SOL    HW145981  10.159   0.690   3.516 -0.8336  0.2340 -0.2314
14658SOL    HW245982  10.233   0.773   3.619  0.3602 -0.2072 -0.7149
14659SOL     OW45983   0.035   0.662   8.073  0.3369 -0.7118  0.3056
14659SOL    HW145984  -0.040   0.608   8.050  1.9067 -2.6110 -0.6916
14659SOL    HW245985   0.061   0.705   7.991  2.5304 -3.0646 -0.3750
14660SOL     OW45986   4.545  10.197   9.357 -0.2206 -0.4430  0.0268
14660SOL    HW145987   4.616  10.216   9.295  1.0592 -0.8590  1.3177
14660SOL    HW245988   4.469  10.243   9.321  0.6568 -0.0920 -1.4651
14661SOL     OW45989   3.086   1.143   9.210  0.0548  0.2335  0.3591
14661SOL    HW145990   3.111   1.233   9.191  1.3306 -0.1287  0.2467
14661SOL    HW245991   3.133   1.090   9.146  0.3016 -0.6058  1.2091
14662SOL     OW45992   6.644   4.853  10.174 -0.7794 -1.1199 -0.0654
14662SOL    HW145993   6.644   4.874  10.080 -1.2705 -0.3372  0.1040
14662SOL    HW245994   6.716   4.905  10.210 -1.4651 -0.3625  0.2172
14663SOL     OW45995   2.714   4.063   2.105  0.5475 -0.2563 -0.4431
14663SOL    HW145996   2.684   4.111   2.028  2.0778  0.7448 -0.4673
14663SOL    HW245997   2.664   4.099   2.178 -2.0527 -2.2835 -1.0857
14664SOL     OW45998   4.573   2.392   9.362 -0.5964  0.1634  0.2178
14664SOL    HW145999   4.635   2.455   9.326  0.9029  0.6073  3.2391
14664SOL    HW246000   4.589   2.311   9.314  1.8650  0.4803  0.3856
14665SOL     OW46001   8.143   3.802   8.720  0.3907  0.2343  0.3175
14665SOL    HW146002   8.170   3.717   8.685  1.0504  1.1668 -1.5557
14665SOL    HW246003   8.120   3.783   8.811 -0.6911 -2.1708 -0.3641
14666SOL     OW46004   2.031   1.241   9.534 -0.5387  0.1580  0.6987
14666SOL    HW146005   1.957   1.284   9.577 -0.3887 -0.1371  1.2577
14666SOL    HW246006   1.994   1.203   9.454 -0.6406  1.4512  0.1113
14667SOL     OW46007   8.294   0.784   8.596  0.0663 -0.5389 -0.0926
14667SOL    HW146008   8.306   0.879   8.594  2.0181 -0.3789  4.6928
14667SOL    HW246009   8.379   0.748   8.571  0.2516 -0.8465  0.9306
14668SOL     OW46010   0.164   9.629   4.335  0.3394  0.4054  0.0812
14668SOL    HW146011   0.087   9.670   4.373 -1.1120 -0.8480 -1.3389
14668SOL    HW246012   0.220   9.607   4.410  0.0128  2.6174  1.0249
14669SOL     OW46013   3.510  10.711   0.086 -0.3323 -0.5947 -0.4962
14669SOL    HW146014   3.543  10.792   0.125 -0.4726 -1.4878  1.5595
14669SOL    HW246015   3.540  10.715  -0.005  1.6333  0.6935  0.1471
14670SOL     OW46016   0.545   4.392  10.018 -0.4010 -0.5929 -0.3362
14670SOL    HW146017   0.536   4.486  10.001 -0.5001 -0.4296  0.5946
14670SOL    HW246018   0.456   4.358  10.013 -0.6178 -0.3105  1.1348
14671SOL     OW46019   9.126   5.794   1.740  0.3960  0.2838 -0.4005
14671SOL    HW146020   9.084   5.754   1.816  0.4572  0.9194 -0.0252
14671SOL    HW246021   9.123   5.888   1.758  1.1311  0.3912 -0.8107
14672SOL     OW46022   6.802   7.857   6.919 -0.1675  0.4404  0.3541
14672SOL    HW146023   6.714   7.820   6.914 -0.3862  1.0725 -1.5266
14672SOL    HW246024   6.806   7.901   7.004 -1.5417  0.1235  0.5950
14673SOL     OW46025   3.485   3.252   3.424 -0.2912 -0.0360 -0.0879
14673SOL    HW146026   3.400   3.295   3.414  1.2652  3.1490 -1.0012
14673SOL    HW246027   3.493   3.235   3.518 -0.7065  2.4892  0.4539
14674SOL     OW46028   2.600   3.907   4.308  0.4206  0.0646 -0.2129
14674SOL    HW146029   2.690   3.907   4.274 -0.2584  0.4325 -2.1356
14674SOL    HW246030   2.548   3.872   4.236 -1.2072  1.5259  0.2022
14675SOL     OW46031   5.908  10.246   6.875 -0.2461  0.2956  0.1112
14675SOL    HW146032   5.959  10.266   6.953  3.1508 -0.0749 -1.8051
14675SOL    HW246033   5.910  10.327   6.823  0.5964 -0.4582 -1.0827
14676SOL     OW46034   8.701   1.368   3.766  0.7039  0.4574 -0.5959
14676SOL    HW146035   8.740   1.394   3.850  1.2653  3.5547 -1.7033
14676SOL    HW246036   8.628   1.429   3.753  0.1848 -0.4160 -2.0749
14677SOL     OW46037   6.904   3.190  11.057  0.2797  0.1075  0.1287
14677SOL    HW146038   6.825   3.243  11.067  0.1218  0.1185 -1.0326
14677SOL    HW246039   6.974   3.254  11.042  0.2264  0.0369 -0.4534
14678SOL     OW46040   0.102  10.842   2.407  0.1679  0.2923  0.1752
14678SOL    HW146041   0.051  10.796   2.474 -0.4948  1.0002  0.1718
14678SOL    HW246042   0.044  10.847   2.331  1.6859 -2.5367 -1.3408
14679SOL     OW46043   8.471   9.161   4.654  0.0461 -0.2504 -0.4774
14679SOL    HW146044   8.381   9.142   4.629 -0.9734  2.5464  0.6514
14679SOL    HW246045   8.499   9.084   4.703 -3.1363  0.1884  2.3889
14680SOL     OW46046   5.315   2.541   7.499  0.3215  0.8193  0.2966
14680SOL    HW146047   5.370   2.485   7.445  0.9212  1.2740  0.4217
14680SOL    HW246048   5.282   2.484   7.569 -0.6307  0.1773 -0.6556
14681SOL     OW46049   2.064   7.248   3.751  0.1579  0.7578  0.1644
14681SOL    HW146050   2.036   7.263   3.661  1.0040  1.6972  0.0408
14681SOL    HW246051   2.098   7.158   3.752  0.6034  0.9164 -0.5742
14682SOL     OW46052   5.478   6.001  11.030  0.1006  0.8266  0.0342
14682SOL    HW146053   5.526   5.976  11.109 -0.9565  0.7014  0.6700
14682SOL    HW246054   5.435   6.083  11.054 -1.2524  0.1413  0.0582
14683SOL     OW46055   8.283   5.883   1.989 -0.6076  0.2189 -0.5983
14683SOL    HW146056   8.256   5.844   1.906  0.6454  0.6204 -1.2155
14683SOL    HW246057   8.234   5.965   1.994  1.7310  1.9165 -2.6500
14684SOL     OW46058   3.297  10.359   2.696 -0.3494 -0.2663 -0.3918
14684SOL    HW146059   3.231  10.373   2.628 -0.4121  2.6825  0.1325
14684SOL    HW246060   3.360  10.431   2.683  2.5999 -2.6737 -0.5799
14685SOL     OW46061   0.438   5.961   9.557 -0.0153 -0.4271  0.4218
14685SOL    HW146062   0.474   6.025   9.619  0.3072  0.5312 -0.7200
14685SOL    HW246063   0.470   5.990   9.472 -1.0385 -1.3001 -0.2842
14686SOL     OW46064   6.051   3.970   4.690  0.0239  0.2083  0.2314
14686SOL    HW146065   6.055   4.065   4.700 -0.6193  0.3977 -1.0699
14686SOL    HW246066   6.002   3.940   4.767 -0.2657  0.9937  0.3631
14687SOL     OW46067   6.836   5.897   5.084 -0.2726  0.0718  0.4884
14687SOL    HW146068   6.833   5.819   5.029  1.1380 -0.3391  0.9507
14687SOL    HW246069   6.775   5.880   5.155  0.1581 -0.7009  0.6817
14688SOL     OW46070   1.836   6.630   2.895 -0.2794 -0.8257  0.4471
14688SOL    HW146071   1.769   6.695   2.913  1.4893  0.7057  1.8588
14688SOL    HW246072   1.886   6.666   2.822  2.0439  0.6105  2.5911
14689SOL     OW46073  10.367   0.746   0.126 -0.2378  0.1261  0.3563
14689SOL    HW146074  10.281   0.765   0.089 -0.3568  1.8461  1.4426
14689SOL    HW246075  10.427   0.753   0.052 -0.8113  0.6603 -0.0615
14690SOL     OW46076   3.185   9.435   7.520 -0.3499  0.1395  0.1268
14690SOL    HW146077   3.189   9.487   7.600 -0.6090  1.1905 -0.5303
14690SOL    HW246078   3.131   9.359   7.544 -2.2548  1.5100  0.3977
14691SOL     OW46079   9.986   3.614   9.689 -0.2849 -1.0173 -0.5268
14691SOL    HW146080   9.930   3.691   9.681  2.3779  1.0980 -0.3505
14691SOL    HW246081   9.955   3.569   9.767 -2.3856 -0.6074 -1.0568
14692SOL     OW46082   6.743   1.258   6.835 -0.9016  0.4810  0.6301
14692SOL    HW146083   6.800   1.303   6.898 -0.8309  1.7390 -0.2972
14692SOL    HW246084   6.801   1.236   6.762 -1.1025 -0.4773  0.7433
14693SOL     OW46085   5.188   9.981   6.899 -0.2547  0.3598 -0.1749
14693SOL    HW146086   5.205   9.901   6.848  0.3972  1.6206 -2.0581
14693SOL    HW246087   5.099   9.970   6.932 -0.7722 -0.4797 -1.7437
14694SOL     OW46088   1.016   3.867   8.614  0.2887 -0.1005  0.6601
14694SOL    HW146089   0.997   3.914   8.533 -0.3865 -0.2595  0.7242
14694SOL    HW246090   1.111   3.857   8.614  0.3179  0.1584  0.0322
14695SOL     OW46091   1.403   9.443   2.850 -0.3148  0.2058  0.5165
14695SOL    HW146092   1.375   9.409   2.935  0.0174 -1.6858 -0.0853
14695SOL    HW246093   1.356   9.526   2.841 -2.2890 -0.7414  1.4630
14696SOL     OW46094   5.714   4.260  10.547 -0.3504 -0.3700 -0.2764
14696SOL    HW146095   5.761   4.286  10.626 -0.8918  0.3054 -0.1632
14696SOL    HW246096   5.775   4.204  10.499 -0.1299 -1.0423  0.7650
14697SOL     OW46097   6.919   4.911   0.697  0.4508  0.1133  0.4573
14697SOL    HW146098   7.011   4.905   0.671  0.1778 -1.5007 -0.2473
14697SOL    HW246099   6.914   4.865   0.781  0.1901 -0.2945  0.2200
14698SOL     OW46100   1.993   9.664   5.593  0.0205  0.7293 -0.4138
14698SOL    HW146101   2.034   9.707   5.668 -0.8611 -0.3309  0.7065
14698SOL    HW246102   1.909   9.708   5.583 -0.9170 -0.6864  0.7813
14699SOL     OW46103   2.222   2.221   1.610 -0.3378 -0.2782  0.2296
14699SOL    HW146104   2.202   2.312   1.589 -2.4855 -0.6134  0.5963
14699SOL    HW246105   2.204   2.213   1.704  1.2380 -0.7682  0.5296
14700SOL     OW46106  10.529  10.216   7.791  0.6722  0.3326  0.6239
14700SOL    HW146107  10.567  10.285   7.845  1.7660  0.3812 -0.1870
14700SOL    HW246108  10.442  10.202   7.829  0.5900  1.8373  1.0802
14701SOL     OW46109   0.337   4.058   0.433  0.0672  0.3053 -0.6165
14701SOL    HW146110   0.349   3.999   0.508  1.8409 -0.7854 -1.6689
14701SOL    HW246111   0.345   4.146   0.470 -0.2588 -0.1711  0.6357
14702SOL     OW46112   7.621   9.706   3.786 -0.1266 -0.5094  0.3101
14702SOL    HW146113   7.571   9.677   3.709 -2.2445  1.0375  1.0185
14702SOL    HW246114   7.712   9.706   3.756 -0.7728 -0.9599 -1.8642
14703SOL     OW46115   4.333   0.614   2.608 -0.0257  0.1233 -0.4317
14703SOL    HW146116   4.388   0.676   2.562 -0.6488 -0.0918 -1.5000
14703SOL    HW246117   4.358   0.623   2.700 -1.6471  3.5903 -0.1976
14704SOL     OW46118   9.785   5.332   4.277  0.5708  0.0070 -0.1386
14704SOL    HW146119   9.796   5.338   4.182  0.3577 -0.4329 -0.1943
14704SOL    HW246120   9.826   5.249   4.300 -1.6307 -1.1794 -0.2121
14705SOL     OW46121   9.982   5.242   1.348  0.1233  0.5259  0.0255
14705SOL    HW146122   9.924   5.171   1.374  0.6458 -0.0319 -0.3196
14705SOL    HW246123   9.924   5.311   1.316 -0.3424 -0.0030 -0.2651
14706SOL     OW46124   3.867   0.622   9.142  0.1417  0.2378 -0.3463
14706SOL    HW146125   3.797   0.687   9.136 -1.3173 -1.2730 -0.8089
14706SOL    HW246126   3.875   0.603   9.236  1.2855  1.7536 -0.1063
14707SOL     OW46127   0.626   2.209   8.773 -0.1874 -0.6055  0.4542
14707SOL    HW146128   0.632   2.259   8.855  0.4633 -1.0425  0.6740
14707SOL    HW246129   0.557   2.144   8.789  0.2490 -0.9829  0.8138
14708SOL     OW46130   9.275   7.078   9.856 -0.0254  0.0953 -0.0017
14708SOL    HW146131   9.200   7.091   9.914  1.5060 -0.9286  2.4176
14708SOL    HW246132   9.335   7.149   9.878  1.6313 -1.6785  1.6345
14709SOL     OW46133   6.262   5.039   2.574  0.1253  0.0587 -0.2130
14709SOL    HW146134   6.168   5.028   2.590 -0.1681  1.1663 -1.0021
14709SOL    HW246135   6.303   4.961   2.612 -1.1095 -0.4404  0.1394
14710SOL     OW46136   4.975   8.812   5.166 -0.2351 -0.7258 -0.3048
14710SOL    HW146137   4.997   8.721   5.185  1.9175 -0.4422 -1.1267
14710SOL    HW246138   5.027   8.863   5.228 -0.6432 -0.0338 -0.5138
14711SOL     OW46139   4.638   0.235   6.312  0.3406 -0.0741  0.3732
14711SOL    HW146140   4.623   0.151   6.355 -1.9449  0.9331  1.7493
14711SOL    HW246141   4.675   0.291   6.380  0.7772  0.3644 -0.2132
14712SOL     OW46142   6.844   6.267   8.495 -0.7033 -0.1274  0.5500
14712SOL    HW146143   6.895   6.220   8.561  0.3246  0.6658  0.3650
14712SOL    HW246144   6.910   6.309   8.440 -1.4849 -1.7547 -1.7647
14713SOL     OW46145   1.635  10.994   0.261 -0.7074  0.3883 -0.1829
14713SOL    HW146146   1.674  11.010   0.348 -0.1829 -0.5671 -0.2343
14713SOL    HW246147   1.581  11.071   0.245  0.5666  1.4117  0.2307
14714SOL     OW46148   2.459   0.098   3.924  0.5595 -0.2598 -0.6388
14714SOL    HW146149   2.525   0.164   3.945 -0.5555  1.6543 -2.7622
14714SOL    HW246150   2.488   0.061   3.841 -1.7933  1.9104 -2.6019
14715SOL     OW46151   0.516   3.540   8.674 -0.1353 -0.1303 -0.3769
14715SOL    HW146152   0.491   3.622   8.716 -4.4702 -0.8981 -0.9164
14715SOL    HW246153   0.516   3.560   8.580 -1.1758 -0.6784 -0.5089
14716SOL     OW46154   3.228   9.080   9.776 -0.4902  0.2052  0.3556
14716SOL    HW146155   3.321   9.102   9.773 -0.6897  1.0624 -1.8241
14716SOL    HW246156   3.223   8.994   9.733 -0.9461  1.5669 -2.5684
14717SOL     OW46157   7.665   3.872   3.116 -0.6552 -0.2517 -0.1232
14717SOL    HW146158   7.640   3.780   3.125 -1.9156 -0.1464 -1.9363
14717SOL    HW246159   7.646   3.893   3.025 -1.1183  2.0061  0.4204
14718SOL     OW46160   5.049   1.647   1.514 -0.3554  0.4076  0.0667
14718SOL    HW146161   5.074   1.595   1.591 -4.0121 -1.3033  0.3370
14718SOL    HW246162   4.983   1.594   1.470 -1.2619  3.0727 -2.0716
14719SOL     OW46163   6.851   3.472   4.186 -0.8931 -0.3273 -0.2434
14719SOL    HW146164   6.942   3.453   4.165  0.6749  3.3476  2.2950
14719SOL    HW246165   6.833   3.420   4.265 -0.3048  0.3627  0.3580
14720SOL     OW46166   9.939   6.859   0.891 -0.0824 -0.2758  0.9495
14720SOL    HW146167   9.872   6.900   0.837 -1.2804 -1.7973  1.2229
14720SOL    HW246168  10.022   6.887   0.852 -0.8970 -0.2915 -0.8727
14721SOL     OW46169   1.757   9.358   9.519 -0.1103  0.4316  0.3989
14721SOL    HW146170   1.715   9.275   9.543 -0.2110  0.3339 -0.1141
14721SOL    HW246171   1.794   9.390   9.601 -0.8357  0.3236  0.7799
14722SOL     OW46172   7.999  10.589   5.871 -0.2328  0.9160  0.6099
14722SOL    HW146173   8.031  10.678   5.890  0.9341  1.4263 -2.9817
14722SOL    HW246174   7.979  10.590   5.777 -2.0537 -2.1227  0.8301
14723SOL     OW46175  10.589   6.843   9.899 -0.3410 -0.5530 -0.1009
14723SOL    HW146176  10.601   6.899   9.975  0.8889  0.2101 -0.8207
14723SOL    HW246177  10.572   6.905   9.827 -3.4269 -1.3129 -0.1672
14724SOL     OW46178  10.262   7.241   5.061 -0.8553 -0.2564 -0.5395
14724SOL    HW146179  10.294   7.190   4.987 -2.6600 -0.1241 -1.4507
14724SOL    HW246180  10.291   7.192   5.138 -1.2540 -1.8462 -1.3673
14725SOL     OW46181   9.413   7.128   2.167 -0.5721 -0.0316  0.3909
14725SOL    HW146182   9.371   7.067   2.105 -1.6388  2.1398 -1.1351
14725SOL    HW246183   9.451   7.071   2.234 -0.8328 -2.4088 -1.3585
14726SOL     OW46184   2.753   9.803   7.608 -0.5416 -0.9417  0.6873
14726SOL    HW146185   2.847   9.790   7.617 -0.2706 -0.0467 -0.4999
14726SOL    HW246186   2.740   9.818   7.514 -1.4652  1.6614  1.1270
14727SOL     OW46187   4.583   2.275   8.246 -0.1704 -0.2522  0.2732
14727SOL    HW146188   4.537   2.348   8.288  0.8299 -1.0243  2.9089
14727SOL    HW246189   4.538   2.197   8.277  1.2360 -0.8983  0.7551
14728SOL     OW46190   5.123  10.560   9.577 -0.0039 -0.3180 -0.0513
14728SOL    HW146191   5.058  10.622   9.606  0.5231  0.7946 -1.1321
14728SOL    HW246192   5.075  10.499   9.520 -0.2071  0.1666 -0.4046
14729SOL     OW46193   1.375  10.354   0.554  0.1609  0.0051 -0.2884
14729SOL    HW146194   1.354  10.445   0.533 -0.3918 -0.0755 -0.1072
14729SOL    HW246195   1.372  10.309   0.469 -1.8444 -0.2771 -0.1303
14730SOL     OW46196   2.552   4.609  10.643 -0.7803 -0.3468  0.3182
14730SOL    HW146197   2.478   4.614  10.703 -1.3350 -0.0987 -0.3869
14730SOL    HW246198   2.629   4.622  10.699 -1.2730 -0.3817  1.0122
14731SOL     OW46199   4.295   6.093  10.676 -0.1982  0.5380  0.2011
14731SOL    HW146200   4.236   6.168  10.689 -1.9482 -1.0420  2.0290
14731SOL    HW246201   4.251   6.041  10.608 -0.0538  0.1480  0.4091
14732SOL     OW46202   0.993   4.054   0.415 -0.0107 -0.3285 -0.3555
14732SOL    HW146203   1.066   4.009   0.457  1.1475  1.4114 -0.3958
14732SOL    HW246204   0.919   3.994   0.425  1.4407 -2.2571 -0.5105
14733SOL     OW46205   3.193   8.472   8.720  0.4319  0.2961 -0.0534
14733SOL    HW146206   3.123   8.450   8.781  2.6107 -1.0089  2.1436
14733SOL    HW246207   3.198   8.396   8.662 -1.1246  1.2051 -1.4797
14734SOL     OW46208   3.568   8.094   7.868 -0.2079 -0.2566  0.0756
14734SOL    HW146209   3.627   8.066   7.798 -0.8337 -0.6368 -0.3037
14734SOL    HW246210   3.618   8.160   7.916  0.9589 -1.3443  0.4254
14735SOL     OW46211   9.862   5.674   5.246 -0.5142  0.9269 -0.6857
14735SOL    HW146212   9.780   5.674   5.197  0.7076 -1.4300 -2.9999
14735SOL    HW246213   9.852   5.605   5.311 -1.1076  2.1579  0.5844
14736SOL     OW46214   7.825  10.414   7.641  0.3919 -0.2063 -0.2466
14736SOL    HW146215   7.769  10.416   7.718  0.6396 -0.5046 -0.0541
14736SOL    HW246216   7.911  10.389   7.675  0.2193 -1.6289 -0.7801
14737SOL     OW46217  10.492  10.673   4.531  0.3392 -0.1334  0.0928
14737SOL    HW146218  10.526  10.615   4.600  0.1387 -1.7287 -1.0886
14737SOL    HW246219  10.462  10.613   4.463  0.2804  1.3998 -1.2738
14738SOL     OW46220   2.198   0.924   9.463 -0.9410 -0.3209 -0.0215
14738SOL    HW146221   2.285   0.891   9.486 -1.2862  0.5400  3.0571
14738SOL    HW246222   2.214   0.998   9.405  0.2301 -1.3409 -1.0506
14739SOL     OW46223   5.566   1.874   5.412 -0.4828  0.3536 -0.3248
14739SOL    HW146224   5.514   1.954   5.415  1.2780  1.6386 -1.8134
14739SOL    HW246225   5.656   1.904   5.399  0.2100 -1.8625 -1.2216
14740SOL     OW46226   3.284  10.384   7.951 -0.2118  0.2545  0.2088
14740SOL    HW146227   3.302  10.474   7.979  3.8811 -0.8027  1.7493
14740SOL    HW246228   3.359  10.361   7.896 -1.3884 -2.0766 -0.5310
14741SOL     OW46229   7.452   7.099   2.305 -0.0876  0.1188  0.0140
14741SOL    HW146230   7.533   7.140   2.274  1.8441 -3.0535  0.3473
14741SOL    HW246231   7.420   7.158   2.373  1.6036  1.7883 -0.5373
14742SOL     OW46232   6.466   1.601   8.360  0.2502  0.0449 -0.2352
14742SOL    HW146233   6.483   1.672   8.422  1.8875  0.0979 -0.7172
14742SOL    HW246234   6.370   1.598   8.354  0.0955  0.9827  1.1908
14743SOL     OW46235   5.108   4.959   7.121 -0.2412 -0.0665  0.5685
14743SOL    HW146236   5.179   5.021   7.104 -1.5095  0.9532 -1.3020
14743SOL    HW246237   5.112   4.943   7.216  2.1374  0.3172  0.5897
14744SOL     OW46238   3.717   9.263   9.964  0.5262  0.2504  0.4429
14744SOL    HW146239   3.668   9.273   9.882  1.5596 -0.9337 -0.3512
14744SOL    HW246240   3.807   9.251   9.936  0.9787  0.3542  1.8030
14745SOL     OW46241   3.236  10.640  10.010 -0.0968 -0.2069  0.0454
14745SOL    HW146242   3.175  10.615   9.940  1.0191 -0.4559 -0.8672
14745SOL    HW246243   3.228  10.569  10.075 -3.7951  1.7277  2.0517
14746SOL     OW46244   1.654  10.016  10.199 -0.6422 -0.0356  0.3627
14746SOL    HW146245   1.667  10.014  10.294 -0.4422 -0.5744  0.3279
14746SOL    HW246246   1.577   9.960  10.184 -1.0536  0.5529  0.2639
14747SOL     OW46247   5.604   8.462   3.325  0.3928  0.4663  0.9862
14747SOL    HW146248   5.667   8.433   3.259  0.0404 -1.8532  1.5590
14747SOL    HW246249   5.651   8.457   3.408  0.4996  2.2882  1.0755
14748SOL     OW46250   0.492   1.951   4.285 -1.7971 -0.0108 -0.0288
14748SOL    HW146251   0.492   1.856   4.301 -1.2079  0.0365  0.2581
14748SOL    HW246252   0.476   1.959   4.191  0.2389 -0.4791 -0.4616
14749SOL     OW46253   7.691  10.672   8.485 -0.4591 -0.1874  0.5261
14749SOL    HW146254   7.675  10.587   8.525 -2.3786 -0.5911 -0.9355
14749SOL    HW246255   7.682  10.735   8.557  0.1187 -1.1266  1.4478
14750SOL     OW46256   1.369   4.233   6.696 -0.8529 -0.5585 -0.1259
14750SOL    HW146257   1.415   4.154   6.668  1.3968  0.8729 -0.7124
14750SOL    HW246258   1.418   4.264   6.772 -0.2713  1.4321 -1.2375
14751SOL     OW46259   8.809   4.126   7.111 -0.4502  0.3021  0.1407
14751SOL    HW146260   8.890   4.083   7.139 -1.1307 -0.5146  0.9107
14751SOL    HW246261   8.759   4.057   7.066 -0.5279  0.9195 -0.7487
14752SOL     OW46262   4.873   7.622  10.359  0.2720  0.2336  0.7213
14752SOL    HW146263   4.845   7.609  10.450  1.3230 -0.0669  1.0131
14752SOL    HW246264   4.860   7.537  10.318 -0.5354  0.4606  0.4848
14753SOL     OW46265  10.947   7.559   0.431 -0.0309  0.2472  0.0033
14753SOL    HW146266  10.942   7.653   0.412 -0.2528  0.4419  0.9986
14753SOL    HW246267  10.958   7.554   0.525 -1.4742 -0.7669  0.1525
14754SOL     OW46268  10.282  10.781   0.381  0.6544 -0.0702  0.4716
14754SOL    HW146269  10.277  10.851   0.446  1.1305 -0.4531  0.9281
14754SOL    HW246270  10.302  10.702   0.432  0.1875 -0.5303 -0.0393
14755SOL     OW46271   5.433   9.491   1.741  0.2624  0.4183 -0.2229
14755SOL    HW146272   5.367   9.464   1.805 -0.5951 -1.9509 -1.9427
14755SOL    HW246273   5.393   9.564   1.695  0.2048  1.0661  0.8114
14756SOL     OW46274   1.285   3.718  10.203  0.5578 -0.1087  0.3120
14756SOL    HW146275   1.340   3.648  10.167 -0.4424 -0.0614 -1.4233
14756SOL    HW246276   1.230   3.745  10.130 -0.2257  1.3773  1.4001
14757SOL     OW46277   8.823   6.707   0.101  0.5069  0.1202  0.1792
14757SOL    HW146278   8.760   6.777   0.119 -2.0211 -1.9160 -0.2058
14757SOL    HW246279   8.811   6.687   0.008  1.6887 -0.3879  0.1211
14758SOL     OW46280   2.375   3.306   1.798 -0.0177 -0.4756  0.1457
14758SOL    HW146281   2.329   3.320   1.715  0.3490  0.5279  0.0943
14758SOL    HW246282   2.424   3.387   1.812 -1.5302  0.1433  2.2871
14759SOL     OW46283   4.282   0.692   9.439 -0.7349 -0.1334 -0.1141
14759SOL    HW146284   4.268   0.625   9.372 -1.1762 -0.9534  0.7803
14759SOL    HW246285   4.228   0.766   9.410 -0.3472 -0.2007 -1.0415
14760SOL     OW46286   7.167   7.137   5.356 -0.1333  0.1889  0.1681
14760SOL    HW146287   7.123   7.206   5.406 -0.8006 -0.5106  0.5717
14760SOL    HW246288   7.249   7.122   5.404  0.7179  1.6726 -0.7314
14761SOL     OW46289   1.268   7.992  10.905 -0.3512  0.1846 -0.2962
14761SOL    HW146290   1.233   7.905  10.890 -0.6872  0.2810 -0.0784
14761SOL    HW246291   1.339   8.001  10.841 -1.0185  0.1609 -1.0480
14762SOL     OW46292   3.747   2.495   2.971 -0.3135 -0.5163 -0.2424
14762SOL    HW146293   3.775   2.559   3.037  0.3363 -0.6660 -0.3721
14762SOL    HW246294   3.754   2.542   2.888  0.4086 -0.8325 -0.3637
14763SOL     OW46295   2.177   3.154   5.173  1.0544 -0.3710  0.3681
14763SOL    HW146296   2.215   3.176   5.088  0.1639 -0.7309 -0.1298
14763SOL    HW246297   2.187   3.234   5.225  0.5196  0.2586 -0.4734
14764SOL     OW46298   5.027   7.446   1.623  0.0311  0.1367  0.2072
14764SOL    HW146299   4.974   7.506   1.572  1.5490  1.5242  0.1659
14764SOL    HW246300   5.021   7.363   1.576  0.4941  1.0932 -1.6676
14765SOL     OW46301   7.659   8.642   3.589  0.3305 -0.2410  0.2593
14765SOL    HW146302   7.658   8.631   3.684  1.0250 -0.6123  0.2305
14765SOL    HW246303   7.681   8.735   3.576  0.5853 -0.2716  0.4602
14766SOL     OW46304   8.277   8.718   7.497 -0.4986 -0.9222 -0.2455
14766SOL    HW146305   8.345   8.782   7.516 -0.1483 -0.6022 -2.3393
14766SOL    HW246306   8.319   8.633   7.512  0.0461 -0.7040 -0.4982
14767SOL     OW46307   6.100   0.096   7.978  0.1377 -0.0962 -0.2290
14767SOL    HW146308   6.158   0.170   7.993  1.8958 -1.5293  0.4610
14767SOL    HW246309   6.028   0.131   7.926  1.7071  1.7357 -1.2731
14768SOL     OW46310   7.698   1.527   3.534  0.3351 -0.5210  0.1315
14768SOL    HW146311   7.706   1.553   3.442  0.8090 -2.8666 -0.5474
14768SOL    HW246312   7.777   1.562   3.575 -0.9357  2.5139  0.2465
14769SOL     OW46313  10.834  11.057   8.461  0.4368  0.0629  0.2371
14769SOL    HW146314  10.835  11.025   8.371 -2.8517  1.5835 -0.4974
14769SOL    HW246315  10.779  10.995   8.509  0.2692  0.5115  0.6397
14770SOL     OW46316   5.981   9.858   6.441 -0.4383  0.7162 -0.0436
14770SOL    HW146317   5.923   9.803   6.387  0.0263 -0.5029  0.6607
14770SOL    HW246318   6.019   9.921   6.379 -1.1684  0.4025 -0.8292
14771SOL     OW46319   9.607   7.309   0.166 -0.5789  0.1897 -0.3503
14771SOL    HW146320   9.674   7.284   0.102 -1.5667  0.7687 -1.6517
14771SOL    HW246321   9.550   7.232   0.173 -0.7695  0.3065 -0.5830
14772SOL     OW46322   4.376   2.185   7.483  0.1708  0.2744  0.3861
14772SOL    HW146323   4.410   2.137   7.408  1.4673 -1.1289  1.7937
14772SOL    HW246324   4.383   2.277   7.458  0.3062 -0.1613 -1.3033
14773SOL     OW46325  10.507   5.474   3.277 -0.1471  0.7509  0.1906
14773SOL    HW146326  10.600   5.466   3.297  0.0579  0.0480 -0.9731
14773SOL    HW246327  10.463   5.435   3.352  0.5005  0.9689  0.6902
14774SOL     OW46328   3.857  10.455   7.159  0.1351  0.3325  0.2532
14774SOL    HW146329   3.780  10.400   7.172 -0.1214  0.7641  0.6129
14774SOL    HW246330   3.929  10.393   7.145 -0.0989 -0.1040  0.9255
14775SOL     OW46331   1.196   7.718   2.171 -0.1303  0.5117  0.1511
14775SOL    HW146332   1.213   7.810   2.190 -0.7936  0.8145 -0.6852
14775SOL    HW246333   1.118   7.696   2.220  1.6800 -0.4878  2.8238
14776SOL     OW46334  10.958   5.352   1.281 -0.1188  0.1198  0.1955
14776SOL    HW146335  10.985   5.434   1.241  1.6854  0.0953  1.2721
14776SOL    HW246336  10.872   5.371   1.318  0.8792  2.0108  1.7168
14777SOL     OW46337   4.869   6.378   2.172  0.1478  0.4244 -0.0593
14777SOL    HW146338   4.887   6.426   2.253 -1.5249 -0.3748  0.8399
14777SOL    HW246339   4.777   6.352   2.179  0.4452 -1.1904 -1.4134
14778SOL     OW46340   3.556   7.490   6.588 -0.0481  0.5258 -0.1294
14778SOL    HW146341   3.611   7.567   6.576  0.5180  0.5891  2.3633
14778SOL    HW246342   3.612   7.427   6.634 -0.4347 -1.4960 -2.2640
14779SOL     OW46343   4.553   2.888   5.593 -0.2643 -0.8295  0.9005
14779SOL    HW146344   4.649   2.880   5.598 -0.0940 -0.6146 -1.0924
14779SOL    HW246345   4.534   2.975   5.627  0.3748 -0.4240  0.2319
14780SOL     OW46346   7.340   7.247  10.982 -0.3865 -0.4843  0.2217
14780SOL    HW146347   7.390   7.181  11.031  0.8956  2.3085  2.9920
14780SOL    HW246348   7.397   7.269  10.908  1.2996  0.6185  1.7645
14781SOL     OW46349   1.736   8.900   9.341 -0.4292  0.5401 -0.5563
14781SOL    HW146350   1.800   8.832   9.321 -0.4056  0.6640 -0.8993
14781SOL    HW246351   1.771   8.943   9.419 -0.2341  0.4289 -0.5817
14782SOL     OW46352   3.609   7.513   3.758 -0.3275  0.4863  0.3272
14782SOL    HW146353   3.566   7.453   3.697  0.7699 -0.1600  0.1744
14782SOL    HW246354   3.642   7.458   3.828 -0.8239  1.1286  1.0831
14783SOL     OW46355   8.371   9.015   9.342  0.5409 -0.0013  0.6274
14783SOL    HW146356   8.284   9.007   9.304  0.3987 -1.7485  1.2473
14783SOL    HW246357   8.364   9.091   9.401  0.6606  2.4846 -2.3146
14784SOL     OW46358   2.869   4.374   1.783 -0.2533 -0.2243 -0.6480
14784SOL    HW146359   2.923   4.296   1.766  1.3004  0.5311  0.5736
14784SOL    HW246360   2.854   4.412   1.696 -1.0606 -1.8686 -1.2682
14785SOL     OW46361   3.077   5.512   6.328 -0.2172  0.2905 -0.5406
14785SOL    HW146362   2.994   5.543   6.291 -0.9119 -1.1231 -0.2507
14785SOL    HW246363   3.050   5.452   6.398  1.0504 -0.7105 -0.8926
14786SOL     OW46364   0.937   8.406   3.207 -0.1399  1.1057 -0.2715
14786SOL    HW146365   0.856   8.406   3.156 -0.8023 -0.9160  0.6717
14786SOL    HW246366   1.002   8.367   3.148 -0.4268  0.6066 -0.2644
14787SOL     OW46367   3.783   3.729  10.076 -0.7999 -0.3587  0.0949
14787SOL    HW146368   3.869   3.694  10.052  0.3251  1.4267  1.3329
14787SOL    HW246369   3.724   3.653  10.071  1.1258 -1.9759  0.7173
14788SOL     OW46370   8.125   3.763   2.640 -0.2056 -0.2070 -0.4807
14788SOL    HW146371   8.170   3.685   2.671  1.5269  1.1068  0.5024
14788SOL    HW246372   8.189   3.834   2.651 -1.9558  1.4799 -0.6147
14789SOL     OW46373   0.600   6.963   2.713 -0.5687  0.0669  0.0396
14789SOL    HW146374   0.672   7.024   2.698 -0.6403  0.1750  0.1297
14789SOL    HW246375   0.551   6.962   2.631 -2.8322  3.1061  1.1606
14790SOL     OW46376   3.476   6.369   0.759  0.2207 -0.2006  0.4868
14790SOL    HW146377   3.526   6.291   0.784 -3.1021 -2.4844  0.7773
14790SOL    HW246378   3.432   6.396   0.839 -1.7318 -0.5751 -0.3842
14791SOL     OW46379   3.390  10.068   2.144  0.5614 -0.6473  0.2405
14791SOL    HW146380   3.308  10.040   2.103 -0.5509  0.2193  1.7866
14791SOL    HW246381   3.458  10.033   2.086 -0.8763 -1.3297 -1.1312
14792SOL     OW46382   6.508   9.097   0.656 -0.5045 -0.4964 -0.3247
14792SOL    HW146383   6.443   9.138   0.600  0.2580  1.1921 -0.0240
14792SOL    HW246384   6.590   9.104   0.607  0.2201  1.2327  1.0310
14793SOL     OW46385   0.158   1.122   2.648 -0.3942  0.0855 -0.5015
14793SOL    HW146386   0.107   1.201   2.666 -0.0441 -0.0322  1.1265
14793SOL    HW246387   0.249   1.148   2.664 -0.2348 -0.5220 -0.3921
14794SOL     OW46388   6.096   9.014   8.538 -0.1206 -0.2101  0.1253
14794SOL    HW146389   6.066   8.937   8.586 -1.8793  0.2876 -0.0903
14794SOL    HW246390   6.144   8.979   8.463 -0.2710 -1.0676  0.4243
14795SOL     OW46391   2.674   3.120   5.793 -0.6502  0.5678 -0.1789
14795SOL    HW146392   2.733   3.166   5.854 -1.6370  0.2849  1.0275
14795SOL    HW246393   2.667   3.179   5.718  2.2737 -0.0133 -1.0307
14796SOL     OW46394   6.760   2.350   9.844  0.4520 -0.1239 -0.1800
14796SOL    HW146395   6.690   2.389   9.895  0.7823  1.1591 -0.6552
14796SOL    HW246396   6.716   2.314   9.767  0.4373  2.7131 -1.6691
14797SOL     OW46397   3.004  10.884   2.585  0.6020  0.4127  0.0018
14797SOL    HW146398   2.932  10.914   2.640 -0.1131  1.2214 -1.3321
14797SOL    HW246399   3.073  10.950   2.597  0.6644  0.2873  0.3450
14798SOL     OW46400   4.351   0.711   5.342  0.1989  0.1088  0.5371
14798SOL    HW146401   4.373   0.756   5.424 -0.5350  2.0845 -0.2880
14798SOL    HW246402   4.257   0.725   5.331  0.0291 -1.2739 -0.0085
14799SOL     OW46403   5.354   4.069  10.245 -0.1364  0.5451 -0.4148
14799SOL    HW146404   5.424   4.005  10.232  1.3696  2.2414 -1.1681
14799SOL    HW246405   5.386   4.124  10.317 -1.7542  0.0163  0.7477
14800SOL     OW46406   0.419   0.851  10.477  0.3013 -0.2800 -0.1607
14800SOL    HW146407   0.513   0.847  10.461  0.5315 -1.7558  1.4194
14800SOL    HW246408   0.410   0.857  10.572 -1.2253 -0.9858 -0.2326
14801SOL     OW46409   6.203   4.060   3.691 -0.7785  0.3743 -0.4422
14801SOL    HW146410   6.160   3.994   3.746 -0.0295 -1.4146 -1.9069
14801SOL    HW246411   6.252   4.114   3.753 -2.2153  0.2074  0.8959
14802SOL     OW46412   9.706   7.117   7.216 -0.0738  0.0885  0.0650
14802SOL    HW146413   9.656   7.062   7.157  0.4844  2.3217 -2.6810
14802SOL    HW246414   9.641   7.175   7.256 -0.3858 -1.0936  1.3397
14803SOL     OW46415   4.926  10.133   5.436  0.5116 -0.4040  0.5276
14803SOL    HW146416   4.882  10.049   5.454  1.4110 -0.8529  0.6525
14803SOL    HW246417   5.019  10.115   5.448  0.7196  0.6109  0.5249
14804SOL     OW46418   6.386   3.435   0.418  0.2676  0.2340  0.2887
14804SOL    HW146419   6.345   3.390   0.492 -0.1147 -1.2949 -0.8180
14804SOL    HW246420   6.476   3.402   0.417  0.4311  0.6603  0.3695
14805SOL     OW46421   0.513   3.423   3.357 -0.4155  0.3412 -0.3344
14805SOL    HW146422   0.578   3.355   3.376  2.8867  3.1125 -0.6721
14805SOL    HW246423   0.468   3.437   3.440 -0.1429 -1.2223  0.1088
14806SOL     OW46424   4.892   3.252   8.141  0.2546  1.0309  0.2394
14806SOL    HW146425   4.831   3.269   8.069  0.5818  1.3797  0.0429
14806SOL    HW246426   4.966   3.207   8.099 -0.0617  0.2122  0.5504
14807SOL     OW46427  10.398   7.116   0.557 -0.4723 -0.2328 -0.3143
14807SOL    HW146428  10.401   7.021   0.567 -0.8094 -0.1056  1.1714
14807SOL    HW246429  10.323   7.143   0.611  1.5553  1.1759  1.9784
14808SOL     OW46430   5.854   2.868   7.225  0.2178  0.2786 -0.2938
14808SOL    HW146431   5.769   2.907   7.247  0.6326  1.1016 -0.0772
14808SOL    HW246432   5.878   2.817   7.302  1.3868  2.6651  1.0531
14809SOL     OW46433  10.650   8.888   2.785 -0.1484  0.5427 -0.0493
14809SOL    HW146434  10.699   8.899   2.866 -0.0154  0.4561 -0.1191
14809SOL    HW246435  10.575   8.833   2.809 -0.0784  0.4711  0.0009
14810SOL     OW46436  11.053   9.367   3.091  0.4472  0.5965  0.4855
14810SOL    HW146437  11.050   9.452   3.046 -0.0008  0.4089  0.1542
14810SOL    HW246438  11.001   9.309   3.036 -0.2998  0.4186  1.3471
14811SOL     OW46439   0.560   8.446   0.031  0.4619 -0.6191  0.5522
14811SOL    HW146440   0.509   8.379  -0.015  0.0414 -0.6675  1.0828
14811SOL    HW246441   0.618   8.398   0.089  1.2854 -0.5715 -0.1967
14812SOL     OW46442   7.023   8.251   7.262  0.2668  0.0752 -0.1088
14812SOL    HW146443   6.931   8.233   7.284 -0.6549  2.3345 -1.7117
14812SOL    HW246444   7.035   8.343   7.284  0.8830  0.9384 -3.5169
14813SOL     OW46445   3.923   9.607   2.134 -0.2702 -0.4417  0.0278
14813SOL    HW146446   3.980   9.540   2.170  2.5445  1.4353 -0.6530
14813SOL    HW246447   3.980   9.662   2.081 -2.1495  3.0652  1.2786
14814SOL     OW46448   0.117   6.709   0.231 -0.8171  0.1386  0.9034
14814SOL    HW146449   0.126   6.777   0.165 -0.4368 -4.1490 -4.0884
14814SOL    HW246450   0.029   6.673   0.216 -0.5476 -1.2892  2.4981
14815SOL     OW46451   1.503   6.090  10.971  0.3314  0.2374 -0.1181
14815SOL    HW146452   1.583   6.140  10.986  0.5122 -0.0955  0.0537
14815SOL    HW246453   1.463   6.131  10.895  1.1344 -0.1568 -0.7717
14816SOL     OW46454   9.932   0.261   2.342 -0.2457 -0.6328 -0.8822
14816SOL    HW146455   9.900   0.247   2.431  1.1972  3.1453  0.4640
14816SOL    HW246456   9.860   0.305   2.297 -0.5353 -1.4375 -1.2240
14817SOL     OW46457   7.133   8.850   5.032  0.3447 -0.5127  0.4812
14817SOL    HW146458   7.098   8.938   5.018  0.7946 -0.3221  0.5254
14817SOL    HW246459   7.085   8.795   4.971  0.3986 -0.1527  0.1075
14818SOL     OW46460   5.999   8.485  10.024  0.1216  0.6606  0.3605
14818SOL    HW146461   5.912   8.490  10.063 -0.8876  0.4974 -1.7413
14818SOL    HW246462   6.033   8.574  10.031 -0.9468  1.1474 -0.3348
14819SOL     OW46463   3.071   4.164  10.085  0.0255  0.3995  0.3001
14819SOL    HW146464   3.031   4.179  10.170  0.9475  1.9545  0.5139
14819SOL    HW246465   3.062   4.070  10.069  1.6937 -0.3394  3.0801
14820SOL     OW46466   4.770   4.412   9.782  0.3612 -0.2079 -0.0259
14820SOL    HW146467   4.790   4.319   9.790  0.7597 -0.3211 -2.0058
14820SOL    HW246468   4.831   4.454   9.843  1.4378 -1.1190 -0.4317
14821SOL     OW46469   8.050   1.565   2.183 -0.0791 -0.1855 -0.7573
14821SOL    HW146470   8.001   1.531   2.258 -0.6003 -1.4965 -1.6457
14821SOL    HW246471   8.081   1.486   2.137 -0.0219  0.5652 -2.0723
14822SOL     OW46472   1.183   7.634   9.068  0.0311  0.3261 -0.2065
14822SOL    HW146473   1.202   7.727   9.055  0.3363  0.0976 -1.5905
14822SOL    HW246474   1.217   7.592   8.989  0.8378 -1.1046  0.8783
14823SOL     OW46475   5.040   8.478   0.740  1.0163 -0.9530 -0.1704
14823SOL    HW146476   5.072   8.457   0.652 -0.7729  0.5239 -1.2564
14823SOL    HW246477   5.016   8.570   0.735 -0.9888 -1.3311  1.2811
14824SOL     OW46478  10.231  10.925   5.958 -0.3151 -0.1335 -0.2553
14824SOL    HW146479  10.261  10.995   5.900  0.5107 -1.0200 -0.9195
14824SOL    HW246480  10.237  10.962   6.045 -1.7157  1.2775 -0.7115
14825SOL     OW46481  10.712   8.993   4.861  0.4901  0.3322 -0.1549
14825SOL    HW146482  10.712   9.086   4.838 -1.6822  0.9894  2.0396
14825SOL    HW246483  10.674   8.950   4.785 -1.0707  1.6572 -0.1959
14826SOL     OW46484   8.738   4.393   2.129 -0.4643 -0.2820 -0.2579
14826SOL    HW146485   8.742   4.473   2.181 -1.4625 -0.9329  0.8748
14826SOL    HW246486   8.758   4.421   2.040  0.7937  0.9540  0.3695
14827SOL     OW46487   6.888   8.706   9.700  0.2957  0.5862  0.5014
14827SOL    HW146488   6.820   8.715   9.632  0.1984 -1.0203  0.3283
14827SOL    HW246489   6.844   8.733   9.781  0.2292  1.9466  0.0383
14828SOL     OW46490   3.837   5.748   2.359 -0.8434  0.5867  0.6068
14828SOL    HW146491   3.837   5.834   2.316  0.5819  0.3270  0.0179
14828SOL    HW246492   3.845   5.768   2.452 -0.5503  1.0983  0.4759
14829SOL     OW46493   3.255   8.548  10.262 -0.0499 -0.4315  0.2628
14829SOL    HW146494   3.283   8.493  10.336  1.6313 -0.1872 -0.1608
14829SOL    HW246495   3.226   8.629  10.303 -1.2863 -1.1086  0.7931
14830SOL     OW46496   7.423   1.485   6.808 -0.7378 -0.4137 -0.0291
14830SOL    HW146497   7.378   1.519   6.886  0.9879 -1.2046  1.3906
14830SOL    HW246498   7.405   1.391   6.810  1.7970 -0.9741  1.2720
14831SOL     OW46499   2.419   1.632   1.911 -0.4639 -0.2175 -0.0844
14831SOL    HW146500   2.379   1.549   1.936 -0.3994  0.5313  2.7991
14831SOL    HW246501   2.494   1.642   1.970  0.5704  1.1208 -1.5209
14832SOL     OW46502  10.799   9.914  10.471 -0.0044  0.1042 -0.1286
14832SOL    HW146503  10.729   9.921  10.536 -2.1616  1.1945 -2.4064
14832SOL    HW246504  10.816  10.005  10.445  1.3467 -0.2498 -0.5693
14833SOL     OW46505  10.635   0.278   5.584 -0.0844  0.0571 -0.2646
14833SOL    HW146506  10.652   0.231   5.666 -3.2360 -0.0201  0.4476
14833SOL    HW246507  10.583   0.354   5.610 -1.0577  0.1027 -2.1788
14834SOL     OW46508   7.257   3.104   6.988 -0.3846  0.1644 -0.4515
14834SOL    HW146509   7.240   3.198   6.988  1.5228  0.5937 -2.4616
14834SOL    HW246510   7.191   3.067   6.930 -0.6969  0.3524 -0.2174
14835SOL     OW46511   8.078   0.181   2.343  0.4246 -0.6038  0.0954
14835SOL    HW146512   8.173   0.186   2.332  0.3671  0.7770 -0.0132
14835SOL    HW246513   8.047   0.130   2.268  0.9504  0.3105 -0.7685
14836SOL     OW46514   8.936   1.965   2.647 -0.4661  0.1930  0.3681
14836SOL    HW146515   8.962   1.873   2.635  0.0704  0.2630  0.9229
14836SOL    HW246516   8.894   1.989   2.565  0.2811 -0.2569 -0.1557
14837SOL     OW46517   4.495  10.045   4.723 -0.0484  0.4761 -0.4311
14837SOL    HW146518   4.538  10.076   4.643 -0.0256  1.2619 -0.1244
14837SOL    HW246519   4.557   9.984   4.762  0.6422  1.3159 -0.1832
14838SOL     OW46520   3.740   1.718   2.132  0.1290 -0.2326 -0.3225
14838SOL    HW146521   3.785   1.795   2.097  1.2025 -1.8477 -2.7003
14838SOL    HW246522   3.683   1.689   2.061  0.0398 -1.8868  0.3839
14839SOL     OW46523  10.518   9.689   1.828  0.5971  0.3562  0.4885
14839SOL    HW146524  10.576   9.764   1.830  0.6056  0.4601 -1.6562
14839SOL    HW246525  10.567   9.620   1.873  2.8020  0.2018 -1.9392
14840SOL     OW46526   1.800   7.053   4.777 -0.1203 -0.1836  0.2538
14840SOL    HW146527   1.756   7.108   4.712  1.0141 -0.2723 -0.6143
14840SOL    HW246528   1.772   6.964   4.756 -1.1152 -0.0616  0.9921
14841SOL     OW46529   5.150   9.017   1.209 -0.4520  0.2567  0.5721
14841SOL    HW146530   5.142   8.962   1.132  1.7414 -1.2692  1.3281
14841SOL    HW246531   5.064   9.012   1.252 -0.4674 -2.2828  0.3805
14842SOL     OW46532   9.024   7.313   4.836 -0.5133 -0.2953  0.7410
14842SOL    HW146533   9.061   7.365   4.765 -3.1402  0.2690 -0.3336
14842SOL    HW246534   9.041   7.364   4.915 -1.9188  1.6580 -0.1392
14843SOL     OW46535   7.825   9.537   2.760 -0.0983 -0.3719 -0.7003
14843SOL    HW146536   7.787   9.483   2.830 -1.9313 -0.5864 -1.8104
14843SOL    HW246537   7.815   9.484   2.681 -2.7611  1.8455 -1.9922
14844SOL     OW46538   7.004   5.680  10.162 -0.3177  0.2223  0.3468
14844SOL    HW146539   6.941   5.750  10.146  1.8796  2.2915  0.1904
14844SOL    HW246540   6.984   5.648  10.250 -0.2712  2.3329  1.1728
14845SOL     OW46541   9.922   7.269   1.598 -0.3375  0.5143  0.1075
14845SOL    HW146542   9.868   7.242   1.673 -1.4257  1.1700 -0.4133
14845SOL    HW246543  10.003   7.218   1.607 -0.3381  0.7505  1.8572
14846SOL     OW46544   1.770   2.625   8.070 -0.1777  0.0882 -0.0164
14846SOL    HW146545   1.744   2.540   8.033  0.3496  1.1266 -3.1371
14846SOL    HW246546   1.840   2.655   8.011 -1.1775  3.1948  0.2333
14847SOL     OW46547   6.674   3.798   6.050  0.4030  0.2026 -0.1242
14847SOL    HW146548   6.755   3.750   6.065  0.1854  0.1365  0.8521
14847SOL    HW246549   6.683   3.832   5.961  0.5857 -1.5917 -0.8380
14848SOL     OW46550   3.454   6.290  10.389 -0.0651  0.0431 -0.2746
14848SOL    HW146551   3.359   6.303  10.386 -0.0655  1.3320  2.1836
14848SOL    HW246552   3.490   6.378  10.376  0.8710 -0.5737 -2.0985
14849SOL     OW46553   5.788   0.812   2.434 -0.4626  0.1451 -0.4809
14849SOL    HW146554   5.849   0.885   2.422 -2.1421  1.4290 -1.5762
14849SOL    HW246555   5.758   0.791   2.346 -0.9729 -1.0415 -0.0476
14850SOL     OW46556   2.331   2.444   3.473  0.3419  1.2196 -0.1347
14850SOL    HW146557   2.268   2.403   3.533 -0.4189  0.1236 -1.6251
14850SOL    HW246558   2.411   2.392   3.484 -0.3722 -0.2407 -1.4167
14851SOL     OW46559   1.072   7.383  10.199  0.3777 -0.2365 -0.2110
14851SOL    HW146560   1.011   7.335  10.255  1.1630  1.4313  2.2449
14851SOL    HW246561   1.041   7.366  10.110 -2.0694 -1.5424  0.7929
14852SOL     OW46562   8.236   1.182   0.100 -0.1579 -0.2165  0.0259
14852SOL    HW146563   8.218   1.088   0.087  0.5895 -0.2747 -0.6510
14852SOL    HW246564   8.233   1.219   0.011  1.8094 -0.0157 -0.0014
14853SOL     OW46565   3.411   7.649   3.839 -0.3120 -0.3553 -0.4622
14853SOL    HW146566   3.438   7.651   3.931  2.0077  1.0934 -1.0633
14853SOL    HW246567   3.483   7.604   3.794 -0.5681  0.4671 -1.7518
14854SOL     OW46568   7.274   7.903   3.100 -0.7888 -0.4850 -0.0151
14854SOL    HW146569   7.277   7.877   3.008 -2.2057 -1.0662  0.0800
14854SOL    HW246570   7.196   7.959   3.107 -0.0411  0.5095  0.6041
14855SOL     OW46571   4.590   0.049   0.672  0.5522 -0.1195 -0.1248
14855SOL    HW146572   4.626  -0.015   0.610  2.0039  1.2937 -0.8152
14855SOL    HW246573   4.560   0.121   0.617  0.5182  0.5255  0.7269
14856SOL     OW46574   7.835   6.691  10.435 -0.1569  0.0961  0.1664
14856SOL    HW146575   7.785   6.629  10.382  0.3852 -0.9990  0.9060
14856SOL    HW246576   7.926   6.676  10.409  0.1901 -0.9552  1.8752
14857SOL     OW46577   5.481   4.745   1.726  0.0163 -0.5712 -0.1995
14857SOL    HW146578   5.477   4.829   1.681  2.8298 -0.1545  0.1276
14857SOL    HW246579   5.443   4.682   1.663 -0.1881  0.6259 -1.3164
14858SOL     OW46580   0.755   4.041  10.284 -0.2905 -0.0456 -0.7243
14858SOL    HW146581   0.736   4.034  10.191 -1.6583 -2.2123 -0.3438
14858SOL    HW246582   0.736   3.954  10.320  1.0382  0.4627  1.4491
14859SOL     OW46583   1.477   7.827   6.920 -0.0826 -0.1738 -0.5488
14859SOL    HW146584   1.553   7.859   6.969 -0.7199 -0.5120  0.6999
14859SOL    HW246585   1.402   7.866   6.963 -0.7474 -1.6180 -0.3300
14860SOL     OW46586   8.905   1.968   6.718 -0.0629  0.3560 -0.1599
14860SOL    HW146587   8.839   2.034   6.735  0.2030  0.5129  0.2553
14860SOL    HW246588   8.982   2.017   6.690  0.3078  0.2628  0.6764
14861SOL     OW46589   2.614   7.582   1.240  0.5826 -1.0827  0.5102
14861SOL    HW146590   2.559   7.514   1.202 -0.2651 -0.5906  0.8068
14861SOL    HW246591   2.556   7.658   1.247  1.6123 -0.1991 -0.2057
14862SOL     OW46592   8.413   7.367   3.864 -0.0532 -0.0022  0.6893
14862SOL    HW146593   8.498   7.410   3.852  0.2702  0.4632  3.9027
14862SOL    HW246594   8.433   7.285   3.907 -1.1723 -0.4408  0.4134
14863SOL     OW46595  10.166   9.850   9.150  0.1977 -0.1183  0.5685
14863SOL    HW146596  10.144   9.901   9.072 -3.0362 -0.8056  0.8986
14863SOL    HW246597  10.110   9.884   9.219  1.5442 -0.8774  2.1186
14864SOL     OW46598   1.497   1.602   7.053  0.1764  0.7077  0.4618
14864SOL    HW146599   1.507   1.511   7.081  1.9167  0.5852 -0.4107
14864SOL    HW246600   1.542   1.606   6.969  0.5127  2.4820  0.6901
14865SOL     OW46601   7.673   1.701   2.402  0.7871  0.2953  0.1272
14865SOL    HW146602   7.626   1.705   2.485 -0.1993 -0.3627 -0.3794
14865SOL    HW246603   7.610   1.663   2.341  1.1059  1.7899 -1.2043
14866SOL     OW46604   4.936   0.160   0.775 -0.6121 -0.3941  0.4164
14866SOL    HW146605   4.911   0.107   0.851 -1.4140 -1.9187 -0.8449
14866SOL    HW246606   4.854   0.200   0.746 -0.6247 -1.0286 -0.4973
14867SOL     OW46607   2.670   6.591   7.116 -0.3017  0.5124  0.0196
14867SOL    HW146608   2.602   6.659   7.120 -0.5657  0.2234  0.5653
14867SOL    HW246609   2.632   6.517   7.164  0.4702  0.4088  0.4749
14868SOL     OW46610   5.686   5.924   0.115  0.4060  0.2450  0.1888
14868SOL    HW146611   5.679   5.854   0.179 -2.2493  0.5822  0.3979
14868SOL    HW246612   5.749   5.985   0.153 -0.3576 -0.0494  2.0373
14869SOL     OW46613   1.378   9.156   9.412 -0.8393 -0.5986 -0.8302
14869SOL    HW146614   1.395   9.251   9.410 -0.4760 -0.6850 -1.9294
14869SOL    HW246615   1.446   9.118   9.357  0.8053 -1.8042  1.8061
14870SOL     OW46616  10.426   6.785   0.023  0.3157  0.3617 -0.4205
14870SOL    HW146617  10.355   6.747   0.076  0.9744 -0.1514  0.1130
14870SOL    HW246618  10.415   6.745  -0.063 -1.1091  1.6286 -0.8739
14871SOL     OW46619   5.248   1.761   5.117 -0.0680  0.4407  0.4605
14871SOL    HW146620   5.264   1.709   5.196 -0.9400 -0.0414  0.3424
14871SOL    HW246621   5.332   1.801   5.096  1.6065 -3.4833 -1.3161
14872SOL     OW46622   6.104   3.462   5.749 -0.9783 -0.6431  0.1185
14872SOL    HW146623   6.032   3.445   5.810  0.4137 -2.6643  1.3345
14872SOL    HW246624   6.061   3.492   5.669 -3.0479 -0.2718  1.2969
14873SOL     OW46625   9.233   8.244   2.173 -0.4790  0.3909  0.1344
14873SOL    HW146626   9.163   8.268   2.113 -0.7225  0.7884  0.5689
14873SOL    HW246627   9.220   8.301   2.249  1.6813  2.0978 -0.6813
14874SOL     OW46628   5.141   0.076   4.693  0.1061  0.5120 -0.2311
14874SOL    HW146629   5.119   0.134   4.765 -0.3772  0.5932 -0.4421
14874SOL    HW246630   5.174   0.135   4.624 -1.2804  0.6590 -0.8036
14875SOL     OW46631   6.884   5.207   7.628 -0.0966  0.2892 -0.1239
14875SOL    HW146632   6.861   5.295   7.657  0.2625  0.9139 -1.6589
14875SOL    HW246633   6.964   5.187   7.677 -0.8323  0.2980  1.1339
14876SOL     OW46634   4.177   6.511   7.161  0.3400 -0.6747  0.7214
14876SOL    HW146635   4.100   6.535   7.211 -0.0635 -1.4496  0.4944
14876SOL    HW246636   4.220   6.443   7.214  1.4463  0.4855  1.3490
14877SOL     OW46637   8.166  10.855   2.699 -0.4822  0.7106  0.0505
14877SOL    HW146638   8.125  10.930   2.741  0.5076  1.3511 -0.0976
14877SOL    HW246639   8.137  10.779   2.750  1.5117  1.5388  2.5917
14878SOL     OW46640   3.116   2.230   2.313  0.1465 -0.0525 -0.3517
14878SOL    HW146641   3.202   2.205   2.279 -0.3729 -0.4165 -1.4581
14878SOL    HW246642   3.103   2.319   2.281 -0.1885 -0.2655 -0.8328
14879SOL     OW46643   5.404   0.369   3.084 -0.2727  0.1603 -0.1724
14879SOL    HW146644   5.470   0.325   3.139 -0.5111  1.1152  0.9329
14879SOL    HW246645   5.381   0.447   3.134  0.1793  1.5836 -2.0939
14880SOL     OW46646   8.577   0.164   3.106 -0.5352  0.6420  0.5553
14880SOL    HW146647   8.558   0.094   3.169  0.2815  0.4088  0.5571
14880SOL    HW246648   8.672   0.169   3.104 -0.4602 -0.4955 -1.9026
14881SOL     OW46649  10.617   2.261  10.378 -0.2587  0.1516  0.2640
14881SOL    HW146650  10.589   2.251  10.469  0.6076 -0.8541  0.4454
14881SOL    HW246651  10.536   2.265  10.328 -0.8104 -2.6093  0.7591
14882SOL     OW46652   2.007   0.722   1.897  0.2480 -0.0020 -0.5019
14882SOL    HW146653   1.976   0.655   1.958 -1.3526  1.2691  0.1711
14882SOL    HW246654   1.960   0.704   1.816 -0.4887  0.5006 -0.2016
14883SOL     OW46655   4.129  10.337   3.787  0.6965  0.3859  0.1402
14883SOL    HW146656   4.093  10.363   3.702  0.3753 -1.9987 -0.5297
14883SOL    HW246657   4.076  10.384   3.851 -2.0778 -1.1274 -0.8850
14884SOL     OW46658   8.035   3.696   5.552  0.7584  0.1150 -0.1606
14884SOL    HW146659   8.048   3.685   5.458 -0.9358 -0.9769 -0.3055
14884SOL    HW246660   8.014   3.789   5.563  1.2534  0.3093 -0.8079
14885SOL     OW46661   2.081   8.634   3.241  0.0947  0.6067  0.6381
14885SOL    HW146662   2.039   8.550   3.258  2.3189 -1.2641 -2.2782
14885SOL    HW246663   2.173   8.620   3.260  0.5013  2.4946  0.3038
14886SOL     OW46664   1.149   5.725   8.380  0.0221 -0.2056 -0.7508
14886SOL    HW146665   1.190   5.676   8.308 -0.8618 -1.7934 -0.2321
14886SOL    HW246666   1.222   5.743   8.440 -0.0218 -4.5009  1.0124
14887SOL     OW46667   0.381   7.059  10.497 -0.2093 -0.2486 -0.2061
14887SOL    HW146668   0.341   7.044  10.412 -1.7129 -0.6372  0.5373
14887SOL    HW246669   0.342   7.142  10.527  1.2395  0.5451 -0.3969
14888SOL     OW46670   3.305   7.174   5.625 -1.0063  0.1731 -0.4270
14888SOL    HW146671   3.321   7.156   5.533 -0.5570 -0.1834 -0.2822
14888SOL    HW246672   3.212   7.158   5.637 -0.6236 -2.2854 -0.2711
14889SOL     OW46673   1.618   8.465   8.351  0.4633 -0.7974 -0.5063
14889SOL    HW146674   1.615   8.435   8.442  2.3414 -1.1713 -0.5352
14889SOL    HW246675   1.606   8.560   8.357 -0.3015 -0.9221  0.0441
14890SOL     OW46676   7.578   8.589   5.558 -0.5130 -0.1507 -0.4967
14890SOL    HW146677   7.559   8.538   5.480  0.5115  0.0464 -0.8956
14890SOL    HW246678   7.498   8.639   5.574 -1.5016 -1.8120 -0.1264
14891SOL     OW46679   4.505   1.987   8.088  0.0324 -0.8570  0.3972
14891SOL    HW146680   4.438   2.045   8.122  0.4914 -1.8345  3.2528
14891SOL    HW246681   4.473   1.961   8.002 -1.9838  0.6709  0.6201
14892SOL     OW46682   7.823   3.073   2.116  0.9521 -0.5193 -0.0686
14892SOL    HW146683   7.849   2.982   2.101  0.7021 -0.6388  0.1977
14892SOL    HW246684   7.899   3.125   2.089  0.0817 -0.6127 -2.9907
14893SOL     OW46685   9.229   8.805   4.969  0.0446 -0.7341  0.7067
14893SOL    HW146686   9.164   8.870   4.997 -1.0612 -0.9997 -1.1061
14893SOL    HW246687   9.314   8.847   4.986 -0.6278  1.1823 -0.3616
14894SOL     OW46688   5.338   5.331   5.078 -0.2010 -0.3258 -0.2414
14894SOL    HW146689   5.275   5.334   5.150 -0.5754  1.8476 -0.5927
14894SOL    HW246690   5.396   5.405   5.093  0.5806 -0.6662 -1.4247
14895SOL     OW46691   6.741   1.186   8.151  0.3928  0.0131 -0.3868
14895SOL    HW146692   6.671   1.152   8.096  0.0754 -0.0405  0.0424
14895SOL    HW246693   6.701   1.259   8.198  0.4076 -0.4845  0.4126
14896SOL     OW46694   9.977   0.034   0.313  0.5460  0.2326  0.3645
14896SOL    HW146695   9.919  -0.006   0.378 -0.2193  0.9609  0.1568
14896SOL    HW246696   9.919   0.051   0.238  0.3792  3.2521  1.0331
14897SOL     OW46697   0.883   2.400   2.746  0.2303 -0.0357  0.0579
14897SOL    HW146698   0.867   2.448   2.665 -0.8080 -0.4641 -0.0031
14897SOL    HW246699   0.978   2.400   2.756  0.5504 -1.8326 -2.2901
14898SOL     OW46700   0.811   5.809   5.673  0.4574  0.0675 -0.1317
14898SOL    HW146701   0.852   5.894   5.658  0.5086 -0.1984 -1.5952
14898SOL    HW246702   0.813   5.765   5.588 -0.0190 -1.2059  0.4832
14899SOL     OW46703   6.266   9.243   2.461  0.3033 -0.0629 -0.8140
14899SOL    HW146704   6.284   9.158   2.501  2.2600  1.3055  1.5238
14899SOL    HW246705   6.171   9.249   2.460  0.1157 -2.1795 -0.9181
14900SOL     OW46706   5.784   1.613   3.125 -0.1054  0.4020  0.3126
14900SOL    HW146707   5.797   1.664   3.205  0.7436  0.3633  0.2167
14900SOL    HW246708   5.710   1.555   3.144  1.9081 -1.7838  2.2049
14901SOL     OW46709   2.592   5.094   1.133  0.0091  0.1864 -0.0713
14901SOL    HW146710   2.579   5.144   1.053 -1.8489  1.7541  1.1319
14901SOL    HW246711   2.687   5.089   1.143  0.2872  2.8421 -0.6531
14902SOL     OW46712   3.231  10.693   2.140 -0.1767 -0.3687  0.0198
14902SOL    HW146713   3.268  10.666   2.224  1.7845 -0.9925 -0.9674
14902SOL    HW246714   3.247  10.618   2.082  0.2188  0.7401 -1.3718
14903SOL     OW46715   9.355  10.078   2.186  0.0756  0.3035  0.4488
14903SOL    HW146716   9.321  10.101   2.099 -0.2603  0.3235  0.5824
14903SOL    HW246717   9.279  10.088   2.244 -0.4721 -2.3951  0.3365
14904SOL     OW46718   5.459   9.055   1.595  0.1809 -0.0531 -0.3818
14904SOL    HW146719   5.530   9.008   1.552  0.3050  0.5402 -0.8506
14904SOL    HW246720   5.473   9.147   1.570  0.3741  0.3556  1.0861
14905SOL     OW46721   7.238   7.157   9.175  0.4081 -0.0904 -0.6299
14905SOL    HW146722   7.233   7.069   9.140  0.5421 -0.4352  0.1941
14905SOL    HW246723   7.158   7.200   9.144  0.9492 -0.0884 -2.0939
14906SOL     OW46724   3.024   7.955   1.331  0.2842 -0.6410  0.0454
14906SOL    HW146725   3.073   7.943   1.412 -0.5901  0.2720  0.7302
14906SOL    HW246726   3.016   7.867   1.295  1.7253 -0.9100  0.3138
14907SOL     OW46727   5.583   4.290   5.658 -0.2356 -0.1950 -0.1521
14907SOL    HW146728   5.671   4.326   5.668  0.0804 -0.6786 -1.0478
14907SOL    HW246729   5.588   4.203   5.699  0.0441 -0.6940 -1.2098
14908SOL     OW46730   7.574   0.436   5.086 -0.2683  0.4322 -0.9881
14908SOL    HW146731   7.532   0.492   5.021 -0.1011  0.7422 -0.8315
14908SOL    HW246732   7.510   0.432   5.157 -0.7050 -0.3927 -1.4193
14909SOL     OW46733   1.836   2.120   8.916 -0.2182 -0.1099 -0.2717
14909SOL    HW146734   1.889   2.200   8.911 -0.5493  0.0982 -0.5030
14909SOL    HW246735   1.763   2.143   8.973  0.8841 -0.9516  1.5781
14910SOL     OW46736  10.699   3.593   1.943 -0.7540 -0.5750  0.1873
14910SOL    HW146737  10.661   3.628   2.024 -0.3105 -1.0582  0.6087
14910SOL    HW246738  10.654   3.510   1.931 -0.6119 -0.6370  0.0918
14911SOL     OW46739   6.280  10.035   2.181  0.1500  0.4406  0.5796
14911SOL    HW146740   6.240  10.041   2.094  3.4554  1.3684 -1.0354
14911SOL    HW246741   6.276   9.942   2.203  0.4764 -0.0585 -1.2610
14912SOL     OW46742   5.675   4.159   5.008  0.0555  0.0297  0.4630
14912SOL    HW146743   5.689   4.132   5.098  1.6618 -1.3962 -0.1522
14912SOL    HW246744   5.587   4.196   5.007  0.1744  0.4818  2.6771
14913SOL     OW46745   7.995   8.248   8.788  0.3510  0.0462  0.5953
14913SOL    HW146746   8.002   8.342   8.770  0.6780  0.2165  1.5357
14913SOL    HW246747   7.925   8.217   8.730 -0.7569  1.1609  1.2805
14914SOL     OW46748   4.615   4.503   4.166 -0.3390  0.0653  0.1075
14914SOL    HW146749   4.684   4.498   4.233 -1.9137  0.2029  1.8249
14914SOL    HW246750   4.538   4.467   4.209 -1.3487 -0.1169 -1.7784
14915SOL     OW46751  10.485   4.663   0.155 -0.6000 -0.6626 -0.5946
14915SOL    HW146752  10.421   4.619   0.210  0.5670 -1.2198  0.3641
14915SOL    HW246753  10.486   4.613   0.073 -1.1418 -0.8405 -0.4926
14916SOL     OW46754   9.180   6.173   7.775 -0.0252  0.2713  0.3088
14916SOL    HW146755   9.270   6.203   7.765 -0.3057  1.5989  1.3805
14916SOL    HW246756   9.158   6.132   7.692  1.0632  1.3362 -0.5346
14917SOL     OW46757   1.275   6.314   0.923 -0.0111  0.3382  0.1240
14917SOL    HW146758   1.224   6.240   0.956  0.6332  0.1135  0.6460
14917SOL    HW246759   1.227   6.392   0.952 -1.9144  0.1928 -2.3173
14918SOL     OW46760  10.882   0.896   6.947 -0.0724 -0.1456 -0.8864
14918SOL    HW146761  10.833   0.823   6.983 -0.8058  0.8029  0.1002
14918SOL    HW246762  10.823   0.971   6.953  0.5729  0.5048 -2.0839
14919SOL     OW46763   2.737   2.694   9.114  0.2766  0.1963 -0.6039
14919SOL    HW146764   2.751   2.676   9.021 -0.9170 -1.0933 -0.5699
14919SOL    HW246765   2.758   2.611   9.157 -2.1811 -0.2238 -0.0708
14920SOL     OW46766   6.739   3.203   9.704 -0.4430  0.0428  0.2528
14920SOL    HW146767   6.739   3.145   9.781  0.7595 -0.1829  0.1083
14920SOL    HW246768   6.668   3.265   9.721 -1.1670 -0.9148  0.8371
14921SOL     OW46769   6.839   1.006   2.405 -0.2352  0.1064  0.1149
14921SOL    HW146770   6.749   1.033   2.425 -0.0330 -0.6387  2.2995
14921SOL    HW246771   6.830   0.919   2.366 -0.4969  0.3492 -0.3729
14922SOL     OW46772   4.605   8.824   1.055 -0.1870 -0.0571 -0.0043
14922SOL    HW146773   4.646   8.767   0.990  2.0577  0.7735  0.6004
14922SOL    HW246774   4.576   8.764   1.124  1.6796 -0.5680  0.3942
14923SOL     OW46775   1.888   9.509   1.529  0.0039 -0.1666 -0.2938
14923SOL    HW146776   1.807   9.465   1.551  0.2482 -1.2949 -1.5354
14923SOL    HW246777   1.932   9.450   1.468  0.8707  1.2764 -1.1287
14924SOL     OW46778   7.711   3.393  11.012  0.5127  1.0487 -0.5891
14924SOL    HW146779   7.777   3.444  10.965  0.0036  2.2054 -0.0964
14924SOL    HW246780   7.638   3.454  11.023  0.1179  0.3935  0.5573
14925SOL     OW46781   8.934   5.458   6.931 -0.3287 -0.2136  0.2273
14925SOL    HW146782   8.973   5.487   7.013 -0.3561 -2.5775  1.1486
14925SOL    HW246783   8.851   5.416   6.957 -0.4994 -0.7037 -1.0378
14926SOL     OW46784   1.205   2.796   4.736 -0.0384 -0.1681  0.2334
14926SOL    HW146785   1.285   2.771   4.690  0.0596  0.2687  0.1632
14926SOL    HW246786   1.235   2.845   4.813 -0.2608  0.9514 -0.3711
14927SOL     OW46787   2.517   2.053   5.384  0.0821 -0.1978  0.8965
14927SOL    HW146788   2.548   1.965   5.408  0.5736  0.2540  1.9713
14927SOL    HW246789   2.488   2.092   5.467 -0.7876  0.4128  0.3286
14928SOL     OW46790   0.065   2.855   6.884 -0.0927  0.2157 -0.5062
14928SOL    HW146791   0.130   2.803   6.837  0.4333 -1.8005  2.2023
14928SOL    HW246792   0.000   2.792   6.914 -1.1423  1.6021  0.2746
14929SOL     OW46793   9.127   2.019   0.336  0.1346  0.0548 -0.1273
14929SOL    HW146794   9.060   1.964   0.376  0.0410  0.0174 -0.3348
14929SOL    HW246795   9.160   1.967   0.262  1.5684 -0.6352  0.9585
14930SOL     OW46796   7.591   7.312   0.488 -0.1819  0.6528  0.8828
14930SOL    HW146797   7.658   7.351   0.543 -0.1269  2.1052 -0.1619
14930SOL    HW246798   7.623   7.323   0.399 -1.7250  1.2483  0.3673
14931SOL     OW46799   0.445   9.853   4.746  0.2980 -0.4379 -0.0142
14931SOL    HW146800   0.368   9.897   4.780  1.3086  3.5248 -2.2660
14931SOL    HW246801   0.434   9.761   4.772 -1.1321  1.1735  6.6996
14932SOL     OW46802   0.407   9.787   9.124  0.2059 -0.3348 -0.9254
14932SOL    HW146803   0.393   9.747   9.209 -0.2123 -0.9211 -1.2610
14932SOL    HW246804   0.501   9.807   9.122  0.3912 -1.1540 -0.6832
14933SOL     OW46805  10.806   3.508   4.521 -0.0289 -0.0176 -0.6865
14933SOL    HW146806  10.846   3.421   4.523  1.4027  0.6094 -0.0979
14933SOL    HW246807  10.839   3.548   4.440 -0.5002  0.0584 -0.8435
14934SOL     OW46808   6.448   7.960   5.356  0.0133  0.0467  0.2058
14934SOL    HW146809   6.379   7.895   5.348  0.7565 -0.8972  1.1332
14934SOL    HW246810   6.508   7.924   5.422  1.0245  1.1541 -0.0594
14935SOL     OW46811   5.273   0.737   0.168  0.1971  0.1745 -0.1249
14935SOL    HW146812   5.220   0.814   0.146 -1.7852 -1.0301  0.2520
14935SOL    HW246813   5.243   0.712   0.255  0.1436 -1.5878 -0.6261
14936SOL     OW46814   9.030   0.248   6.264 -0.3601  0.4427  0.1127
14936SOL    HW146815   9.075   0.331   6.276  2.0225 -0.8608  0.7530
14936SOL    HW246816   9.010   0.218   6.353  0.8970 -0.7095  0.0399
14937SOL     OW46817   3.845   6.398   5.929  0.6413  0.3969 -0.3171
14937SOL    HW146818   3.843   6.493   5.916  1.6523  0.3666 -0.7549
14937SOL    HW246819   3.894   6.364   5.854  0.7708 -0.4215  0.1296
14938SOL     OW46820  10.472   6.813   3.551  0.1802 -0.5307 -0.6503
14938SOL    HW146821  10.511   6.831   3.636 -0.0811  1.9959 -0.9621
14938SOL    HW246822  10.546   6.798   3.492  0.3940 -1.4014 -0.1733
14939SOL     OW46823   8.006   4.109   3.124  0.1828 -0.7298 -0.1377
14939SOL    HW146824   7.911   4.114   3.131  0.1214 -1.6053 -0.3083
14939SOL    HW246825   8.037   4.113   3.215  0.1847  2.7020 -0.1646
14940SOL     OW46826   9.588   7.179   9.334  0.0908  0.2976 -0.3786
14940SOL    HW146827   9.494   7.199   9.326 -0.5864 -2.8847 -3.4894
14940SOL    HW246828   9.629   7.229   9.264 -0.3960 -2.5288 -2.9189
14941SOL     OW46829   2.740   3.251  10.468 -0.5212 -0.9325  0.1482
14941SOL    HW146830   2.752   3.345  10.464  2.1006 -1.1659  0.3840
14941SOL    HW246831   2.667   3.233  10.410 -0.4643  1.1542 -0.6384
14942SOL     OW46832   1.129   5.624   9.189  0.1311 -0.1606  0.9250
14942SOL    HW146833   1.134   5.623   9.285 -2.0807 -1.5902  1.1267
14942SOL    HW246834   1.118   5.531   9.166  1.1036  0.1134 -0.7780
14943SOL     OW46835   0.093   1.616   4.950 -0.0915 -0.8364 -0.0091
14943SOL    HW146836   0.117   1.527   4.975  1.3996 -0.7015 -0.8753
14943SOL    HW246837   0.176   1.660   4.931 -0.8928  0.2014 -1.3608
14944SOL     OW46838   6.596   2.206   0.242 -0.0897  0.5333  0.1521
14944SOL    HW146839   6.566   2.291   0.274 -0.1215  0.7195 -0.3679
14944SOL    HW246840   6.552   2.142   0.299 -0.5354  0.8433  0.1640
14945SOL     OW46841  10.884  10.641   2.310 -0.6796 -0.1303 -0.3961
14945SOL    HW146842  10.811  10.610   2.363 -1.1180 -0.8355 -1.3906
14945SOL    HW246843  10.956  10.653   2.372 -1.2312 -0.7663  0.3746
14946SOL     OW46844   3.269   6.588   4.765 -0.1876 -0.2036  0.1947
14946SOL    HW146845   3.345   6.646   4.766 -0.3660  0.1023 -1.1479
14946SOL    HW246846   3.223   6.611   4.684 -2.8115  1.0052  1.8554
14947SOL     OW46847   1.303  11.025   6.273  0.0784  0.0101  0.5706
14947SOL    HW146848   1.371  10.997   6.335  1.4024  2.1230  0.1935
14947SOL    HW246849   1.294  11.119   6.289 -1.5569  0.0857 -0.5797
14948SOL     OW46850   0.197   3.158   9.959 -0.3091  0.0551  1.1753
14948SOL    HW146851   0.268   3.218   9.935 -0.4842 -0.0454  0.3536
14948SOL    HW246852   0.118   3.199   9.923 -0.2431 -1.3760 -0.7600
14949SOL     OW46853   7.849   1.681   4.621  0.0166  0.1117 -0.7951
14949SOL    HW146854   7.848   1.696   4.715 -0.9324 -1.0348 -0.6012
14949SOL    HW246855   7.785   1.743   4.586 -2.0339 -1.5957 -0.2819
14950SOL     OW46856   8.550   2.183   0.881 -0.3071  0.2431 -0.8438
14950SOL    HW146857   8.577   2.207   0.792 -1.7724  0.9872 -1.1240
14950SOL    HW246858   8.618   2.219   0.938 -0.2469  1.3076 -1.5609
14951SOL     OW46859   4.629  10.248   7.812  0.3389 -0.9238 -0.4528
14951SOL    HW146860   4.672  10.317   7.761  0.2583 -2.2846 -2.4397
14951SOL    HW246861   4.695  10.179   7.820 -0.4191 -1.7091 -0.7931
14952SOL     OW46862   9.847   2.664   0.534  0.0417 -1.0088 -0.2979
14952SOL    HW146863   9.822   2.711   0.613  1.6878  0.8759 -0.7937
14952SOL    HW246864   9.789   2.588   0.531 -2.6348  0.8583  0.6970
14953SOL     OW46865  10.944   8.130   9.738 -0.5911 -0.1316 -0.3075
14953SOL    HW146866  10.865   8.084   9.712 -0.2623 -1.0679  0.2809
14953SOL    HW246867  10.994   8.066   9.789  0.5780  0.4127 -0.7220
14954SOL     OW46868   3.459   6.476   1.918 -0.5195 -0.3703 -0.0670
14954SOL    HW146869   3.434   6.404   1.976 -0.1486  1.9755  3.2735
14954SOL    HW246870   3.376   6.511   1.886 -0.7112 -2.0048 -1.5098
14955SOL     OW46871   7.986   2.436  10.365 -0.1009  0.3464  0.3094
14955SOL    HW146872   7.964   2.360  10.419 -0.0419 -1.7126 -2.3352
14955SOL    HW246873   8.080   2.427  10.349 -0.0633  1.0789  0.0859
14956SOL     OW46874   6.810   3.173   3.850  0.1088 -0.4274 -0.1618
14956SOL    HW146875   6.734   3.123   3.879  0.7901 -1.5394 -0.2310
14956SOL    HW246876   6.871   3.169   3.924 -0.5522  1.9686  0.6092
14957SOL     OW46877   6.359   4.959  10.896 -0.3951  0.2295  0.2508
14957SOL    HW146878   6.268   4.967  10.923 -0.6473 -0.4872 -0.3653
14957SOL    HW246879   6.356   4.936  10.803  0.4364  1.2205 -0.0465
14958SOL     OW46880   3.965   5.811   7.704 -0.2375 -0.0646  0.1369
14958SOL    HW146881   3.877   5.846   7.721 -0.0019  1.8877 -2.2144
14958SOL    HW246882   4.019   5.848   7.774 -1.0304 -0.2446  0.8606
14959SOL     OW46883   9.710   6.884   3.772 -0.5137 -0.1189 -0.0748
14959SOL    HW146884   9.626   6.859   3.734  0.1318 -1.1753 -0.8770
14959SOL    HW246885   9.718   6.829   3.851  0.4293 -1.8032 -1.2662
14960SOL     OW46886   5.960   4.201   3.512 -0.2003 -0.1198  0.3083
14960SOL    HW146887   6.026   4.197   3.581  0.3670 -0.0044 -0.2066
14960SOL    HW246888   5.982   4.128   3.454  0.6485  1.0078 -0.8648
14961SOL     OW46889   5.670   6.963  11.002 -0.6225 -0.7748 -0.6213
14961SOL    HW146890   5.765   6.970  11.017 -0.8415 -0.4251  0.6970
14961SOL    HW246891   5.658   6.995  10.913  0.5096 -0.9113 -0.8417
14962SOL     OW46892   2.783   0.856  10.277  0.0942 -0.0661  0.5328
14962SOL    HW146893   2.689   0.837  10.277  0.4391 -1.9680  0.4539
14962SOL    HW246894   2.823   0.777  10.313  1.8191 -0.1361 -1.3587
14963SOL     OW46895  10.982   2.018   4.089  0.5462  0.0678 -0.3742
14963SOL    HW146896  11.028   2.027   4.173 -1.7708 -1.4557  1.1879
14963SOL    HW246897  11.033   1.952   4.041  0.5798 -0.8562  0.8755
14964SOL     OW46898   7.997   3.778   0.539 -0.1242  0.2779 -0.3562
14964SOL    HW146899   8.011   3.701   0.484 -0.3874 -1.0821  1.3928
14964SOL    HW246900   7.910   3.811   0.513 -1.1808 -1.5919  0.6402
14965SOL     OW46901   0.152   1.220   7.796 -0.2043  0.0294  0.3123
14965SOL    HW146902   0.110   1.141   7.763  0.3211 -1.1202  2.2588
14965SOL    HW246903   0.101   1.244   7.874  0.3899  0.8807  0.4538
14966SOL     OW46904   6.526   0.829   4.747 -0.0368  0.0207  0.5599
14966SOL    HW146905   6.510   0.913   4.790 -0.6625 -0.0908  0.5569
14966SOL    HW246906   6.617   0.808   4.767 -0.2850  0.0182  1.7513
14967SOL     OW46907   4.338   0.447   2.386  0.2210 -0.7454 -0.2885
14967SOL    HW146908   4.345   0.492   2.470 -0.5902  3.2396 -2.0997
14967SOL    HW246909   4.417   0.474   2.338 -0.8328 -0.2702 -1.8416
14968SOL     OW46910   6.996   4.707   1.234  0.7147 -0.0377 -0.8917
14968SOL    HW146911   7.011   4.613   1.251 -3.1636 -1.0576 -2.0694
14968SOL    HW246912   7.019   4.750   1.317  1.5325 -2.1773  0.0690
14969SOL     OW46913   7.887   7.114   6.536  0.0842  0.8244 -0.8472
14969SOL    HW146914   7.844   7.033   6.509  0.5975  0.7942 -1.5858
14969SOL    HW246915   7.945   7.088   6.608  0.4407  0.4854 -1.2534
14970SOL     OW46916   8.861  10.393   9.925 -0.0427  0.5261  0.9822
14970SOL    HW146917   8.781  10.387   9.873  1.6715  0.9724 -1.9190
14970SOL    HW246918   8.845  10.464   9.987 -1.6647  0.9776  0.0893
14971SOL     OW46919   2.665   2.757   5.505  0.2525 -0.0380  0.1492
14971SOL    HW146920   2.660   2.743   5.599  2.4050  0.0800  0.3234
14971SOL    HW246921   2.757   2.742   5.482 -0.5215 -1.8205 -2.2493
14972SOL     OW46922   4.102   4.253   0.505  0.6133 -0.2729  0.0943
14972SOL    HW146923   4.138   4.335   0.538  1.4383 -1.0892  1.3054
14972SOL    HW246924   4.170   4.188   0.524 -0.9526 -1.6468  1.2772
14973SOL     OW46925   2.481   4.845   2.563 -0.0722 -0.0422  0.2881
14973SOL    HW146926   2.428   4.783   2.612 -1.0360  0.9289  0.5096
14973SOL    HW246927   2.463   4.825   2.471  0.3363 -0.6720  0.3355
14974SOL     OW46928   0.334   3.421   0.706  0.3122  0.8533 -0.0409
14974SOL    HW146929   0.331   3.345   0.764 -0.5906  0.7909 -0.1631
14974SOL    HW246930   0.388   3.485   0.754 -1.2617  1.1901  1.3777
14975SOL     OW46931   2.492   9.273   9.988  0.1283 -0.2831 -0.3460
14975SOL    HW146932   2.439   9.196  10.006  1.2643 -0.8531  0.7415
14975SOL    HW246933   2.464   9.337  10.053  0.6853 -0.5576  0.1782
14976SOL     OW46934  10.184   2.601   5.284  0.6486 -0.0246  0.5385
14976SOL    HW146935  10.272   2.628   5.311 -0.1045  2.9393  0.4149
14976SOL    HW246936  10.168   2.648   5.202 -1.5662  0.7979  1.3483
14977SOL     OW46937   4.871   4.503  10.572  0.2418 -0.4395 -0.2933
14977SOL    HW146938   4.864   4.598  10.570  3.3508 -0.1449 -1.9633
14977SOL    HW246939   4.802   4.472  10.513  0.5351  0.9124 -1.3755
14978SOL     OW46940   9.450   0.871   8.805  0.1052  0.0989 -0.4000
14978SOL    HW146941   9.533   0.911   8.832 -0.1682  1.1379 -1.0261
14978SOL    HW246942   9.446   0.884   8.711 -1.1887  0.9295 -0.2649
14979SOL     OW46943   7.566   4.535   1.670  0.9004 -0.2513 -0.7290
14979SOL    HW146944   7.629   4.514   1.738 -0.1973 -0.3593  0.2934
14979SOL    HW246945   7.559   4.630   1.671  0.1508 -0.3013  0.0260
14980SOL     OW46946   7.657   2.235   0.421 -0.2110 -0.1605 -0.2234
14980SOL    HW146947   7.723   2.299   0.446  0.8744 -1.2924 -0.1381
14980SOL    HW246948   7.574   2.278   0.441  0.5134  0.0346  2.9036
14981SOL     OW46949   3.615   9.575   2.762 -0.2139  0.3292 -0.4048
14981SOL    HW146950   3.684   9.614   2.707  0.4900  0.5200  0.5882
14981SOL    HW246951   3.576   9.650   2.807 -0.5909  0.1410 -0.4205
14982SOL     OW46952   3.110   1.246   9.462  0.1128 -0.6953 -0.4788
14982SOL    HW146953   3.025   1.238   9.506  0.4496 -1.7387 -0.0071
14982SOL    HW246954   3.094   1.211   9.374 -0.7092  1.9122 -1.4732
14983SOL     OW46955   7.819   0.061   2.560 -0.1928 -0.0523  0.1746
14983SOL    HW146956   7.860   0.146   2.577 -2.7083  1.2151  0.3343
14983SOL    HW246957   7.810   0.057   2.465 -0.6490  0.1552  0.2079
14984SOL     OW46958   7.205   7.700   0.805 -0.5571  0.0687  0.6697
14984SOL    HW146959   7.128   7.648   0.784  0.2850 -0.4452 -1.3992
14984SOL    HW246960   7.225   7.678   0.895 -1.0165 -2.1949  0.2715
14985SOL     OW46961   9.753   9.732   2.749 -0.0848  0.0629 -0.4433
14985SOL    HW146962   9.744   9.744   2.844  0.7929  0.5280 -0.4081
14985SOL    HW246963   9.835   9.684   2.739 -0.6663 -0.8696 -0.9292
14986SOL     OW46964   7.076   2.136   8.076  0.4982  0.1040  0.1758
14986SOL    HW146965   6.999   2.106   8.027  0.7051 -1.3785  0.7037
14986SOL    HW246966   7.058   2.110   8.166  2.1426 -1.3707  0.1121
14987SOL     OW46967   4.642   0.401   3.199 -0.6838  0.3103  0.1949
14987SOL    HW146968   4.619   0.490   3.172  1.6387  0.6170 -0.9488
14987SOL    HW246969   4.638   0.404   3.295 -0.0553  1.8378  0.2004
14988SOL     OW46970   9.777   7.254   6.550  0.0525 -0.1029  0.1505
14988SOL    HW146971   9.827   7.280   6.473 -1.0820  0.1340 -0.5203
14988SOL    HW246972   9.761   7.160   6.537  0.1207 -0.1309  0.2606
14989SOL     OW46973   3.918   1.135   6.347  0.5256  0.0940 -0.1118
14989SOL    HW146974   3.862   1.212   6.332 -0.2695 -0.1796  1.2876
14989SOL    HW246975   3.900   1.109   6.437  1.2670 -1.3614 -0.3499
14990SOL     OW46976   1.293   9.292  10.329  0.2845  0.4476  0.2252
14990SOL    HW146977   1.292   9.345  10.249  1.1492 -1.7260 -1.3025
14990SOL    HW246978   1.378   9.248  10.328 -0.5377 -1.2622  1.2244
14991SOL     OW46979   0.256   1.060   5.599  0.3049  0.2161 -0.0888
14991SOL    HW146980   0.220   1.004   5.529 -0.2972 -1.3821  1.4288
14991SOL    HW246981   0.257   1.147   5.560  1.3183 -0.7874 -2.5803
14992SOL     OW46982   3.897   3.084   7.652 -0.4730 -0.3296  0.3318
14992SOL    HW146983   3.918   3.055   7.741 -1.2952 -2.7393 -0.1853
14992SOL    HW246984   3.834   3.020   7.620 -1.2973  1.2849 -1.5166
14993SOL     OW46985   9.883  10.020   2.402 -0.1311 -0.8057 -0.4953
14993SOL    HW146986   9.866  10.094   2.460 -0.4480 -0.6281 -0.8128
14993SOL    HW246987   9.808  10.019   2.342  0.4123 -0.7096 -1.1870
14994SOL     OW46988   5.616   0.557   6.921  0.0959  0.3998 -0.5406
14994SOL    HW146989   5.630   0.627   6.986 -1.3512 -0.3746  0.6891
14994SOL    HW246990   5.691   0.563   6.862  0.1214  2.8545 -0.3668
14995SOL     OW46991   7.697   8.914   3.470  0.6248  0.8002 -0.3681
14995SOL    HW146992   7.767   8.869   3.423  1.0088  0.1286  0.8084
14995SOL    HW246993   7.669   8.984   3.411  1.4872  0.3500 -1.3334
14996SOL     OW46994   7.567   3.572  10.511 -0.1074  0.0502  0.1739
14996SOL    HW146995   7.592   3.663  10.525  0.0982  0.0572 -0.2321
14996SOL    HW246996   7.471   3.573  10.518 -0.0419  0.1249  1.1316
14997SOL     OW46997   2.770   5.274   9.793  0.0641 -0.3789 -0.3519
14997SOL    HW146998   2.676   5.255   9.800  0.4711 -2.1369  1.4450
14997SOL    HW246999   2.813   5.196   9.830  2.2530  0.2546 -1.3672
14998SOL     OW47000   8.345   9.575   0.474  0.5775 -0.2784 -0.2447
14998SOL    HW147001   8.426   9.623   0.492 -0.2967  1.6720 -1.2449
14998SOL    HW247002   8.374   9.493   0.434  2.0594  0.3635 -0.5375
14999SOL     OW47003   8.182   9.981   4.669 -0.1179 -0.1391  0.4325
14999SOL    HW147004   8.144  10.046   4.728 -1.5337 -0.1543 -0.4246
14999SOL    HW247005   8.274   9.975   4.697  0.2843  2.7767  0.0822
15000SOL     OW47006   8.055   6.261   1.113  0.5524  0.5399 -0.4033
15000SOL    HW147007   7.987   6.265   1.179  0.8582 -0.2040 -0.0338
15000SOL    HW247008   8.094   6.175   1.123  0.1545  0.1296 -2.0087
15001SOL     OW47009   1.070   9.228  10.798 -0.6757  0.2608  1.0895
15001SOL    HW147010   0.985   9.185  10.808 -1.0668  0.8381  0.3156
15001SOL    HW247011   1.126   9.163  10.755 -1.7528  1.0559 -1.6711
15002SOL     OW47012   0.550   9.995   8.516  0.0432 -0.4437  0.6896
15002SOL    HW147013   0.643   9.999   8.537 -0.1920  0.5085  1.6341
15002SOL    HW247014   0.544  10.028   8.427  0.6234 -0.7364  0.5333
15003SOL     OW47015   4.817   2.803   5.605 -0.6564 -0.4832 -0.2069
15003SOL    HW147016   4.800   2.720   5.560 -2.0552 -1.3088  1.7136
15003SOL    HW247017   4.816   2.780   5.698  1.5131  1.2556  0.3180
15004SOL     OW47018   5.812   0.422   7.680  0.1899 -0.4262  0.3382
15004SOL    HW147019   5.717   0.434   7.683  0.1431 -0.5535 -0.5141
15004SOL    HW247020   5.825   0.328   7.687  0.1448 -0.5984 -1.5239
15005SOL     OW47021   5.322   3.173   5.606 -0.1317  0.0462  0.1466
15005SOL    HW147022   5.253   3.129   5.655 -0.9524  0.5909 -0.4753
15005SOL    HW247023   5.275   3.221   5.537  1.0569 -2.6792 -2.8221
15006SOL     OW47024   0.691   4.668   3.628 -0.9663 -0.3041 -0.1110
15006SOL    HW147025   0.685   4.747   3.682 -0.1211  0.2072 -0.7494
15006SOL    HW247026   0.630   4.683   3.556  0.6258  0.6470 -1.3044
15007SOL     OW47027   4.270   5.479   0.057 -0.5555 -0.0426 -0.1343
15007SOL    HW147028   4.221   5.457  -0.021 -0.3205  0.1960 -0.3509
15007SOL    HW247029   4.343   5.416   0.058 -0.4252  0.1075 -0.2344
15008SOL     OW47030   5.745   2.942  10.870 -0.0757 -0.0330  0.5603
15008SOL    HW147031   5.705   3.025  10.897  2.7206  1.3217  0.8884
15008SOL    HW247032   5.750   2.891  10.951 -0.6831 -0.0340  0.6038
15009SOL     OW47033   6.496   2.160   1.542 -0.1071  0.1412  0.2111
15009SOL    HW147034   6.535   2.175   1.456  1.7586 -1.6550  0.6756
15009SOL    HW247035   6.558   2.198   1.604  0.0002 -1.0605  0.8831
15010SOL     OW47036   4.571   1.731   0.931  0.6916  0.5257  0.6104
15010SOL    HW147037   4.567   1.775   0.846  2.9544 -0.3943 -0.0475
15010SOL    HW247038   4.654   1.760   0.969  0.0245  0.4057  2.2491
15011SOL     OW47039   0.520  10.112   3.145 -0.7361 -0.0798 -0.3406
15011SOL    HW147040   0.568  10.083   3.067 -2.5376 -2.7213 -0.6065
15011SOL    HW247041   0.429  10.118   3.115 -1.3589 -0.4510  1.3855
15012SOL     OW47042   3.390   3.032   5.308 -0.0424 -0.7067 -0.2031
15012SOL    HW147043   3.301   2.997   5.308 -0.7420  0.9754 -0.1689
15012SOL    HW247044   3.387   3.104   5.371  1.0041  0.1655 -1.1269
15013SOL     OW47045   5.383   0.596   9.337 -0.2093  0.2581  0.5354
15013SOL    HW147046   5.294   0.577   9.307  0.7448 -0.3936 -2.1007
15013SOL    HW247047   5.418   0.657   9.273  1.0281  1.1370  1.9719
15014SOL     OW47048   3.380   6.135  10.604  0.2059  0.3194  0.2862
15014SOL    HW147049   3.351   6.212  10.652  0.0478  1.3620 -1.4112
15014SOL    HW247050   3.420   6.170  10.525 -0.3309 -1.3574 -0.7694
15015SOL     OW47051   6.542   0.230   7.359  0.0098  0.2129 -0.0509
15015SOL    HW147052   6.551   0.325   7.367 -1.8766  0.5268 -1.0927
15015SOL    HW247053   6.465   0.218   7.304 -0.3054 -1.9532  0.7708
15016SOL     OW47054   7.401   5.329   3.725 -0.1903 -0.1619  0.3956
15016SOL    HW147055   7.373   5.303   3.813  0.9618 -1.5689  0.3728
15016SOL    HW247056   7.490   5.296   3.717 -0.4677 -0.5619 -1.5302
15017SOL     OW47057   3.988  10.958   5.205 -0.4827 -0.4994 -1.1178
15017SOL    HW147058   4.065  10.936   5.154 -0.6503 -1.2288 -1.0739
15017SOL    HW247059   3.952  11.036   5.163  0.5211  0.1226 -0.8633
15018SOL     OW47060   2.740   9.683   9.909 -0.0351 -0.4428  0.0736
15018SOL    HW147061   2.833   9.657   9.908  0.1191  0.1119 -0.6458
15018SOL    HW247062   2.698   9.618   9.965  1.0114  0.0715  1.5316
15019SOL     OW47063   8.843  10.861   1.041  0.0519 -0.2506 -0.3611
15019SOL    HW147064   8.747  10.865   1.033  0.1202  2.4693 -0.6115
15019SOL    HW247065   8.871  10.812   0.964 -1.1071 -1.2428 -0.1942
15020SOL     OW47066   8.938   6.607   9.230 -0.0243  0.7481 -0.0424
15020SOL    HW147067   8.873   6.631   9.164 -0.4134  0.5845  0.2775
15020SOL    HW247068   8.898   6.533   9.277  1.0781 -0.4360 -0.9074
15021SOL     OW47069   1.445   1.045   7.795 -0.1405 -0.0774  0.2406
15021SOL    HW147070   1.491   1.113   7.844 -0.0418  0.6241 -0.7771
15021SOL    HW247071   1.459   0.965   7.845  0.8855  0.4098  0.7677
15022SOL     OW47072   6.316  11.006   1.277  0.1306  0.2133  0.3144
15022SOL    HW147073   6.317  10.983   1.184 -2.4055 -0.3097  0.3195
15022SOL    HW247074   6.250  11.075   1.283  1.9073  1.8913  1.4590
15023SOL     OW47075   0.485   9.301   4.220 -0.6603  0.0772 -0.2419
15023SOL    HW147076   0.477   9.208   4.198 -0.0510 -0.1790  0.5819
15023SOL    HW247077   0.419   9.344   4.165 -0.7387 -0.7990 -0.8553
15024SOL     OW47078   9.410   1.684   6.125  0.0355  0.0742 -0.2523
15024SOL    HW147079   9.495   1.691   6.082  0.3059 -1.5708 -0.0384
15024SOL    HW247080   9.406   1.594   6.157 -0.3255  1.0958  2.8529
15025SOL     OW47081   3.260  10.114   7.027 -0.2951 -0.7531  0.2134
15025SOL    HW147082   3.169  10.140   7.013  0.3338  1.2950 -0.3814
15025SOL    HW247083   3.300  10.190   7.069  1.3096 -1.3486 -0.1712
15026SOL     OW47084   7.224   8.441   9.157 -0.0424 -0.5201  0.6087
15026SOL    HW147085   7.300   8.402   9.200  2.0917  1.4336 -1.1019
15026SOL    HW247086   7.178   8.487   9.226  1.8192  0.3854  1.3026
15027SOL     OW47087   8.359   3.251   6.926 -0.6069 -0.1605  0.1983
15027SOL    HW147088   8.292   3.264   6.993 -2.2426  0.6680 -1.5160
15027SOL    HW247089   8.362   3.157   6.912 -1.4608 -0.1994  0.2526
15028SOL     OW47090   1.004   6.413   2.767  0.4186 -0.7483 -0.2523
15028SOL    HW147091   0.932   6.368   2.813 -0.8190  0.8345 -0.5471
15028SOL    HW247092   1.066   6.435   2.837 -0.2226 -0.6059  0.2912
15029SOL     OW47093  10.902   1.131   2.401 -0.2822 -0.2362 -0.7713
15029SOL    HW147094  10.896   1.227   2.392 -1.2363 -0.3860 -1.9298
15029SOL    HW247095  10.990   1.116   2.435 -0.0643  1.0461 -0.7060
15030SOL     OW47096   0.408   9.808  10.569 -0.3398 -0.4143  0.0038
15030SOL    HW147097   0.348   9.874  10.535 -1.2418 -1.1927  0.0503
15030SOL    HW247098   0.353   9.750  10.622  0.2144 -1.8261 -0.9064
15031SOL     OW47099   2.515  10.949   0.727  0.4255  0.0769 -0.0875
15031SOL    HW147100   2.521  10.903   0.644  0.5348 -2.3473  1.1653
15031SOL    HW247101   2.606  10.961   0.755  0.3998  1.1310 -0.4077
15032SOL     OW47102  10.008   3.228   7.089 -0.9470 -0.5332 -0.5308
15032SOL    HW147103  10.074   3.217   7.021 -0.2585 -1.7977  0.3118
15032SOL    HW247104  10.017   3.320   7.116 -0.1516 -0.4521 -1.0462
15033SOL     OW47105   3.916   6.230   8.129 -0.4288 -0.3532  0.1891
15033SOL    HW147106   3.883   6.205   8.042 -1.1667 -1.1837  0.6880
15033SOL    HW247107   3.953   6.317   8.117  0.2272 -0.7901 -1.1436
15034SOL     OW47108  10.402   1.658   6.265 -0.1994  0.1621 -0.2692
15034SOL    HW147109  10.343   1.583   6.256  0.8684 -0.7925  0.4292
15034SOL    HW247110  10.463   1.632   6.334 -1.4409  2.7403  1.9888
15035SOL     OW47111   1.138  10.956   9.935 -0.2226  0.1057 -0.3168
15035SOL    HW147112   1.050  10.942   9.971 -2.0904  1.5434 -3.8063
15035SOL    HW247113   1.165  11.040   9.971 -1.5821  1.0043 -1.2539
15036SOL     OW47114   4.339  10.960   2.924 -0.3183 -0.4583 -0.1589
15036SOL    HW147115   4.298  10.886   2.967  0.0743 -0.9018 -0.5396
15036SOL    HW247116   4.267  11.005   2.879 -0.5747 -0.5319  0.1723
15037SOL     OW47117   9.216   1.610   9.983  0.0688 -0.2387  0.0958
15037SOL    HW147118   9.232   1.656   9.900  0.1569 -0.8863 -0.2571
15037SOL    HW247119   9.121   1.610   9.993  0.1138  0.9508  0.6458
15038SOL     OW47120   1.114   1.656   2.627 -0.0700 -0.2155 -0.2240
15038SOL    HW147121   1.104   1.602   2.548 -0.5519  0.1781 -0.4348
15038SOL    HW247122   1.034   1.639   2.677  0.4029 -0.7578  0.3688
15039SOL     OW47123   8.557   8.956   4.795  0.2833 -0.0681  0.2180
15039SOL    HW147124   8.522   8.981   4.880 -0.1358 -1.1934  0.3815
15039SOL    HW247125   8.549   8.861   4.792 -0.4887  0.0286 -1.4236
15040SOL     OW47126   7.280   1.238   0.463  0.3693 -0.0770 -0.9113
15040SOL    HW147127   7.328   1.320   0.468 -0.2785  0.3466 -1.5045
15040SOL    HW247128   7.194   1.262   0.429 -0.8832 -0.5657  1.6620
15041SOL     OW47129   0.738   3.536   1.267 -0.7228 -0.1296 -0.6775
15041SOL    HW147130   0.786   3.454   1.275 -0.6014 -0.0637 -0.7125
15041SOL    HW247131   0.796   3.592   1.215 -1.4746 -0.5236 -1.9718
15042SOL     OW47132   9.115   5.811   0.259 -0.1421  0.0315 -0.0044
15042SOL    HW147133   9.125   5.730   0.209 -0.8781  0.5805 -1.0937
15042SOL    HW247134   9.032   5.848   0.228 -0.4579  0.5710  1.3990
15043SOL     OW47135   1.075   4.293   0.304  0.0346  0.7959 -0.3231
15043SOL    HW147136   1.170   4.283   0.295 -0.1924  0.1765 -2.6913
15043SOL    HW247137   1.046   4.212   0.345  0.4162  0.5034 -0.6239
15044SOL     OW47138   3.976   6.039   2.733 -0.4650 -0.2926  0.3581
15044SOL    HW147139   4.049   6.041   2.795  1.3871 -0.8018 -1.6749
15044SOL    HW247140   3.925   6.118   2.752  1.2714  0.6834  1.1152
15045SOL     OW47141   2.529  10.540   0.160 -0.0639  0.1559  0.0344
15045SOL    HW147142   2.519  10.561   0.253  0.3741 -2.4050  0.7424
15045SOL    HW247143   2.443  10.556   0.122 -0.1598  1.5567  0.7792
15046SOL     OW47144   4.275   6.823   8.414  0.3559  0.5666 -0.9611
15046SOL    HW147145   4.266   6.863   8.500 -0.2945 -1.9842  0.2440
15046SOL    HW247146   4.235   6.886   8.354  1.4689  2.7293  0.4392
15047SOL     OW47147   4.562   9.325   2.828 -0.1813  0.8196  0.1798
15047SOL    HW147148   4.622   9.262   2.787 -1.4349  0.1394 -0.6674
15047SOL    HW247149   4.535   9.383   2.757 -0.3997  1.2128  0.5821
15048SOL     OW47150  10.028   1.491  10.688 -0.6803  0.3078  0.3083
15048SOL    HW147151   9.953   1.551  10.694  1.4088  3.2733 -1.0181
15048SOL    HW247152   9.998   1.421  10.630 -3.1554  0.0491  1.7379
15049SOL     OW47153   2.073   6.929   7.912  0.0714 -0.1546 -0.2772
15049SOL    HW147154   2.158   6.970   7.897 -0.2591  0.4647 -0.4853
15049SOL    HW247155   2.090   6.835   7.909  0.5504 -0.0412 -1.4623
15050SOL     OW47156   6.147   0.227   3.791 -0.0326  0.1931 -0.3834
15050SOL    HW147157   6.178   0.233   3.882  1.4394 -1.5596 -0.7038
15050SOL    HW247158   6.224   0.244   3.738 -0.0930 -1.8918 -1.2394
15051SOL     OW47159   7.823   0.294   5.458 -0.3997  0.2602 -0.6322
15051SOL    HW147160   7.869   0.210   5.457 -0.2514  0.3293  0.1032
15051SOL    HW247161   7.820   0.321   5.366 -1.0990 -0.9034 -0.9736
15052SOL     OW47162   4.515   7.792   2.835  0.2705  0.1563 -0.7611
15052SOL    HW147163   4.481   7.703   2.832 -0.0821  0.3055 -1.5394
15052SOL    HW247164   4.593   7.787   2.891 -0.5495 -0.3533  0.3673
15053SOL     OW47165   3.893   6.927   8.143  0.7751 -0.1264 -0.7237
15053SOL    HW147166   3.985   6.925   8.169  0.5915  2.3936  0.4681
15053SOL    HW247167   3.873   7.021   8.136 -2.3141 -0.4555  1.4949
15054SOL     OW47168   4.543   8.680   2.129 -0.0757 -1.1697 -0.4408
15054SOL    HW147169   4.626   8.728   2.132 -1.6929  2.0871 -2.2132
15054SOL    HW247170   4.542   8.638   2.043 -0.9112  0.3516 -1.2327
15055SOL     OW47171  10.095   9.470   0.870 -0.3780  0.0550 -0.0614
15055SOL    HW147172  10.107   9.528   0.795  0.7141 -1.2689 -0.9419
15055SOL    HW247173  10.010   9.496   0.906  0.0569  2.1474 -0.4474
15056SOL     OW47174   3.148  10.095   6.162 -0.2895  0.9451 -0.8464
15056SOL    HW147175   3.227  10.042   6.163 -0.6989  0.3206 -1.0063
15056SOL    HW247176   3.146  10.138   6.247  0.4348  1.2887 -0.9986
15057SOL     OW47177   6.821   8.674   1.397  0.5353 -0.8203  0.2762
15057SOL    HW147178   6.915   8.680   1.377  1.0392 -2.9217  1.7398
15057SOL    HW247179   6.788   8.609   1.336  1.3056 -4.3812  3.3263
15058SOL     OW47180   6.482   4.120   9.935 -0.5503  0.4762  0.1149
15058SOL    HW147181   6.533   4.083   9.862  0.5907  1.0514  0.5891
15058SOL    HW247182   6.420   4.179   9.893 -0.3781  0.2778 -0.4356
15059SOL     OW47183   1.990   2.866   3.087 -0.3075 -0.0010 -0.2503
15059SOL    HW147184   2.059   2.922   3.124  0.7884 -2.8174  2.4448
15059SOL    HW247185   1.909   2.900   3.125  0.1185  0.7094  0.0497
15060SOL     OW47186   8.753  10.572  10.939 -0.5411 -0.1456  0.1925
15060SOL    HW147187   8.818  10.614  10.995  1.1520 -0.7799 -1.2142
15060SOL    HW247188   8.670  10.615  10.963  0.3190  0.5583  2.1650
15061SOL     OW47189   4.424   0.822   7.897 -0.0193  0.3462  0.1486
15061SOL    HW147190   4.349   0.763   7.903  0.6861 -0.4689  1.7047
15061SOL    HW247191   4.442   0.846   7.988  1.4941  0.6525 -0.2082
15062SOL     OW47192  10.942  10.811   9.944 -1.2975 -0.1240 -0.3220
15062SOL    HW147193  10.960  10.730   9.992  0.1612 -1.5167 -2.9745
15062SOL    HW247194  11.027  10.837   9.908 -2.3432  0.4736 -2.5652
15063SOL     OW47195   3.892   6.401   7.537  0.4293  0.5525 -0.6252
15063SOL    HW147196   3.812   6.379   7.490  1.4601 -2.7982 -1.1076
15063SOL    HW247197   3.940   6.318   7.542  1.6021  1.2309  4.0631
15064SOL     OW47198  10.424   5.670   6.916  0.1618 -0.0510  0.2678
15064SOL    HW147199  10.517   5.660   6.897  0.4731  2.0724  0.3454
15064SOL    HW247200  10.408   5.611   6.990  1.7492  0.3668  1.0054
15065SOL     OW47201   7.547   2.373   2.316  0.1241  0.3735  0.3295
15065SOL    HW147202   7.503   2.328   2.388  3.4752 -2.1996  1.0456
15065SOL    HW247203   7.486   2.367   2.243 -1.1680 -1.9777  1.4771
15066SOL     OW47204   1.175   7.442   7.436 -0.2155  0.6809 -0.3041
15066SOL    HW147205   1.223   7.416   7.514 -3.2253 -0.8515  1.2368
15066SOL    HW247206   1.097   7.386   7.436  0.5119 -0.8629 -5.5652
15067SOL     OW47207   7.519   0.513   2.693  0.0886  0.6824  0.2643
15067SOL    HW147208   7.511   0.424   2.728 -2.5450 -0.2139 -2.2922
15067SOL    HW247209   7.451   0.563   2.737  1.4000  1.4649  1.5088
15068SOL     OW47210   0.679   5.882   6.165 -0.2573 -1.0670  0.2022
15068SOL    HW147211   0.730   5.902   6.243  2.0255 -0.7831 -1.2554
15068SOL    HW247212   0.742   5.888   6.093 -2.6602  0.9148 -1.9680
15069SOL     OW47213   6.337   2.123   3.479  0.7719 -0.7384  0.3912
15069SOL    HW147214   6.426   2.089   3.480  1.4395  0.9523  1.5673
15069SOL    HW247215   6.340   2.203   3.531 -1.0943  0.2196 -0.8309
15070SOL     OW47216   4.521   4.014   9.497  0.2501  0.2725 -0.3366
15070SOL    HW147217   4.452   4.078   9.479 -0.0941 -0.1787 -0.6489
15070SOL    HW247218   4.583   4.024   9.425  0.2694  0.3585 -0.3071
15071SOL     OW47219  10.299   1.455   8.412  0.1199  0.3995 -0.5096
15071SOL    HW147220  10.306   1.391   8.483  2.3446  0.7124 -0.3820
15071SOL    HW247221  10.351   1.417   8.341  1.2862  1.9360 -0.5124
15072SOL     OW47222   8.741   8.579   6.960  0.4731  0.3468  0.0805
15072SOL    HW147223   8.745   8.597   7.054  0.5627  0.2659  0.0917
15072SOL    HW247224   8.656   8.536   6.948  0.2850  0.7152  0.0630
15073SOL     OW47225   6.129   0.250   4.666 -0.1351  0.4066 -0.2267
15073SOL    HW147226   6.112   0.159   4.689  0.3384  0.3985  0.1149
15073SOL    HW247227   6.199   0.246   4.601 -0.6166  0.4910 -0.7496
15074SOL     OW47228  10.812   8.475   0.781 -0.1605 -0.0485 -0.3931
15074SOL    HW147229  10.879   8.530   0.822  0.2721 -1.0196  0.2221
15074SOL    HW247230  10.816   8.499   0.688  0.5869  0.3744 -0.2666
15075SOL     OW47231   5.630   2.397   8.443 -0.1043  0.0436 -0.1028
15075SOL    HW147232   5.641   2.402   8.538 -1.3075 -0.9980  0.1185
15075SOL    HW247233   5.606   2.486   8.417 -2.8635 -0.2451  1.0635
15076SOL     OW47234   0.828   4.415   2.175  0.5181  0.0199 -0.4871
15076SOL    HW147235   0.749   4.452   2.136  0.8254  0.8568 -0.3467
15076SOL    HW247236   0.833   4.326   2.141 -2.0049 -1.0593  1.6782
15077SOL     OW47237   1.594   4.718   7.256 -0.0743  0.3368  0.1332
15077SOL    HW147238   1.555   4.788   7.203 -0.3635 -0.2829 -0.4758
15077SOL    HW247239   1.655   4.674   7.197 -0.0428 -0.0609  0.4586
15078SOL     OW47240   5.478   5.769   7.537 -0.4280 -0.5275 -0.1681
15078SOL    HW147241   5.422   5.813   7.601 -0.9945 -2.0678  0.4415
15078SOL    HW247242   5.418   5.711   7.490  0.4689 -1.4142 -0.2291
15079SOL     OW47243   3.863   4.367   3.594  0.7269 -0.3787  0.4133
15079SOL    HW147244   3.894   4.363   3.503  0.3269 -0.7145  0.2856
15079SOL    HW247245   3.805   4.443   3.596 -1.1073 -1.6713 -0.2279
15080SOL     OW47246  10.597  10.243   6.023  0.2869 -0.5186 -0.3939
15080SOL    HW147247  10.556  10.329   6.034  1.0520 -0.3510  1.8441
15080SOL    HW247248  10.537  10.194   5.969 -1.9889  0.2945  1.2320
15081SOL     OW47249  10.367   9.980   3.786 -0.2195  0.4435  0.3155
15081SOL    HW147250  10.460  10.003   3.788 -0.3288  0.8551  2.7674
15081SOL    HW247251  10.330  10.036   3.717  1.2069  0.7746 -0.2086
15082SOL     OW47252   0.037   6.706   6.012 -0.9906  0.0716 -0.4475
15082SOL    HW147253   0.044   6.704   5.917  3.3068 -0.5015 -0.3075
15082SOL    HW247254   0.009   6.795   6.032 -2.0051  0.1897 -2.2233
15083SOL     OW47255   1.575   3.937   6.252 -0.1460 -0.2195 -0.2601
15083SOL    HW147256   1.604   3.912   6.164  2.7930  1.5773  0.0495
15083SOL    HW247257   1.615   3.871   6.309  2.0924  1.2676  0.0207
15084SOL     OW47258   5.210   1.338  10.472  0.1176 -0.0076  0.0348
15084SOL    HW147259   5.210   1.242  10.474 -0.6363 -0.0260 -0.3021
15084SOL    HW247260   5.122   1.360  10.442  0.3165  0.7926  0.0391
15085SOL     OW47261   0.981   7.447   6.731  0.3440  0.2821 -0.2431
15085SOL    HW147262   0.947   7.408   6.811  0.4739  0.1480 -0.2530
15085SOL    HW247263   1.010   7.535   6.757  0.2591  0.2890 -0.1732
15086SOL     OW47264   7.872   5.138   0.584 -0.3291  0.0039  0.4684
15086SOL    HW147265   7.846   5.092   0.664 -1.0996  1.2892  0.9991
15086SOL    HW247266   7.913   5.071   0.529 -0.2726 -1.0191  1.7167
15087SOL     OW47267   9.350   3.666   1.582  0.8380  0.2549  0.6488
15087SOL    HW147268   9.276   3.698   1.635  0.2861 -1.1589  0.7837
15087SOL    HW247269   9.309   3.624   1.507  1.4098 -1.6213  1.3254
15088SOL     OW47270  10.836   6.511   9.734 -0.1163 -0.4023  0.5456
15088SOL    HW147271  10.823   6.417   9.747  0.8929 -0.7114 -0.5782
15088SOL    HW247272  10.750   6.544   9.708 -0.0679 -1.3458 -0.8575
15089SOL     OW47273   1.168   5.278  10.193  0.4373  0.7267 -0.3668
15089SOL    HW147274   1.098   5.270  10.127 -1.6097  0.7240  1.6755
15089SOL    HW247275   1.162   5.198  10.244  1.2706  1.1948  0.4929
15090SOL     OW47276   7.051   1.793   6.872  0.2178  0.3902  0.1744
15090SOL    HW147277   7.071   1.754   6.957 -1.8119  0.6257  0.7933
15090SOL    HW247278   6.956   1.803   6.871  0.0986 -0.2195 -2.3930
15091SOL     OW47279   7.614   9.348   6.963 -0.4695 -0.7128 -0.0226
15091SOL    HW147280   7.690   9.291   6.958  0.1051  0.1267 -1.1600
15091SOL    HW247281   7.548   9.305   6.907 -1.9946 -3.0218  3.2251
15092SOL     OW47282   1.757   1.585   8.832  0.3253 -0.6748 -0.1361
15092SOL    HW147283   1.800   1.661   8.871 -0.4480 -1.5746  2.7231
15092SOL    HW247284   1.664   1.607   8.834  0.2181 -1.0476 -0.8177
15093SOL     OW47285   5.337   5.217   1.861 -0.1812 -0.7181  0.1014
15093SOL    HW147286   5.352   5.134   1.816 -2.4675 -1.1224 -0.0663
15093SOL    HW247287   5.319   5.192   1.952 -2.5679 -0.6807 -0.2803
15094SOL     OW47288   4.926   7.446   6.594 -0.1526 -0.0455 -0.2108
15094SOL    HW147289   4.943   7.481   6.507  1.4077  0.3034  0.2093
15094SOL    HW247290   4.898   7.355   6.579 -1.4202  0.4832 -1.1432
15095SOL     OW47291   8.015   1.157   7.716  0.1209  0.2879 -0.3192
15095SOL    HW147292   8.090   1.206   7.750 -0.5083  3.2520 -2.8019
15095SOL    HW247293   8.036   1.139   7.625 -1.2389 -0.9532 -0.4369
15096SOL     OW47294   4.671  10.491   5.813 -0.0585 -0.1217  0.5331
15096SOL    HW147295   4.759  10.523   5.835  0.6128 -0.6054 -1.2126
15096SOL    HW247296   4.611  10.555   5.850  1.0572  0.5767  1.1896
15097SOL     OW47297   1.077   0.534   1.710 -0.6162  0.1733  0.5390
15097SOL    HW147298   0.994   0.507   1.750 -0.9246 -1.1981 -0.9200
15097SOL    HW247299   1.138   0.465   1.735 -1.0176 -1.1915 -1.9301
15098SOL     OW47300   6.177   9.199   4.632 -0.4761  0.1145 -0.6769
15098SOL    HW147301   6.175   9.106   4.612 -0.6054 -0.0654  0.1086
15098SOL    HW247302   6.255   9.232   4.589 -0.7234 -0.2404 -1.4193
15099SOL     OW47303   7.951   9.218  10.439  0.3536  0.5249  0.5806
15099SOL    HW147304   7.860   9.195  10.417  0.8032 -3.0779  1.8763
15099SOL    HW247305   7.991   9.238  10.354 -1.4049  1.3895 -0.1101
15100SOL     OW47306   6.358   0.819   0.337 -0.4111 -0.3074 -0.0753
15100SOL    HW147307   6.353   0.729   0.304 -0.4100 -0.1460 -0.5198
15100SOL    HW247308   6.281   0.862   0.300 -1.8131 -0.7556  2.1360
15101SOL     OW47309  10.857  10.701   7.489 -0.5335  0.0308  0.0768
15101SOL    HW147310  10.935  10.707   7.544 -0.2413 -0.0816 -0.3138
15101SOL    HW247311  10.832  10.793   7.473 -1.8940  0.0673  2.1321
15102SOL     OW47312   6.633   2.605   5.235  0.3125 -0.1104 -0.9448
15102SOL    HW147313   6.540   2.602   5.257  0.5169  0.9445  0.1181
15102SOL    HW247314   6.660   2.695   5.253  1.6784 -0.5487 -0.6538
15103SOL     OW47315   8.448   4.725   8.373 -0.0917 -0.1115 -0.2350
15103SOL    HW147316   8.389   4.718   8.448  0.4783 -1.0944  0.1327
15103SOL    HW247317   8.420   4.805   8.328 -2.1196 -0.8819 -0.4381
15104SOL     OW47318   1.266   6.911   2.896 -0.0789  0.7243  0.6138
15104SOL    HW147319   1.178   6.946   2.878  0.3611  1.1583 -0.8245
15104SOL    HW247320   1.321   6.989   2.903  0.6260  0.4087 -1.0439
15105SOL     OW47321   1.517   7.999   5.181  0.2467  0.5010 -0.2527
15105SOL    HW147322   1.537   8.037   5.096 -0.6308 -0.9315 -1.1368
15105SOL    HW247323   1.428   8.027   5.200 -0.3938 -0.9689 -0.8914
15106SOL     OW47324   4.559   2.112   9.614 -0.5871  0.4404  0.0767
15106SOL    HW147325   4.608   2.185   9.575 -0.6126  1.3831  1.7335
15106SOL    HW247326   4.575   2.039   9.554  0.2580  1.5364 -1.1065
15107SOL     OW47327   6.138   7.661   2.812 -0.3009  1.1682 -0.0167
15107SOL    HW147328   6.148   7.756   2.824  1.6013  0.9335  0.7210
15107SOL    HW247329   6.227   7.631   2.793 -0.9044 -0.4640 -0.3600
15108SOL     OW47330   1.977   2.206   0.735  0.1577 -0.6207 -0.6622
15108SOL    HW147331   1.899   2.252   0.766  1.0270 -0.1669  0.9502
15108SOL    HW247332   1.964   2.199   0.640 -0.9319  1.1993 -0.7011
15109SOL     OW47333   9.073   4.426   3.674 -0.4309  0.5046 -0.1523
15109SOL    HW147334   9.125   4.380   3.740 -0.5018 -0.2425 -0.5955
15109SOL    HW247335   9.118   4.406   3.591 -1.0148  0.4354 -0.4580
15110SOL     OW47336   7.200   0.674   6.854 -0.2126 -0.9784 -0.2183
15110SOL    HW147337   7.179   0.591   6.811  0.6301 -1.9078  1.0568
15110SOL    HW247338   7.116   0.715   6.870 -0.9337 -2.8917  1.5142
15111SOL     OW47339   6.768   8.385   5.446  0.2858 -0.8863  0.5951
15111SOL    HW147340   6.859   8.355   5.437  0.2455 -1.3506  1.6440
15111SOL    HW247341   6.719   8.327   5.389  0.6331 -0.6967  0.0948
15112SOL     OW47342   7.391   5.128   2.684  0.3934  0.2183 -0.0426
15112SOL    HW147343   7.365   5.039   2.659  0.0384  0.3111 -0.0152
15112SOL    HW247344   7.324   5.155   2.747  0.9142  0.2369  0.5076
15113SOL     OW47345   1.424   9.630   0.264  0.5179 -0.5474 -0.4944
15113SOL    HW147346   1.498   9.686   0.242  1.3005 -0.8048  1.3387
15113SOL    HW247347   1.395   9.594   0.180  3.4613 -1.6835 -1.1412
15114SOL     OW47348   1.986   8.303   4.624 -0.7666 -0.2712  0.3220
15114SOL    HW147349   1.968   8.324   4.533  0.8697 -1.1080 -0.2329
15114SOL    HW247350   1.928   8.230   4.644 -2.4566  1.0758  0.5555
15115SOL     OW47351   6.865   9.142   0.761  0.8883 -0.7383 -0.0842
15115SOL    HW147352   6.832   9.104   0.680  2.7350 -0.2434 -1.1227
15115SOL    HW247353   6.790   9.191   0.796  0.3890  0.1198 -2.1786
15116SOL     OW47354   5.995   3.266   6.394  0.2438  0.5001 -0.7348
15116SOL    HW147355   6.044   3.306   6.466  0.0807 -0.7971  0.1383
15116SOL    HW247356   6.061   3.216   6.345  0.1922  0.6124 -0.9179
15117SOL     OW47357   4.144   9.065   5.576  0.9475  0.7644 -0.1808
15117SOL    HW147358   4.173   9.125   5.644  0.3667  0.5624  0.2528
15117SOL    HW247359   4.109   8.990   5.624  1.4112  0.1941 -0.7083
15118SOL     OW47360   6.602   5.681   5.624  0.1073 -0.1087 -0.1147
15118SOL    HW147361   6.556   5.733   5.557  2.9582  1.3332 -1.1373
15118SOL    HW247362   6.629   5.601   5.579  1.4197  0.5541 -0.5782
15119SOL     OW47363   7.119   8.597   9.593 -0.6620  0.4897 -0.0669
15119SOL    HW147364   7.126   8.656   9.518 -0.5332  2.1346  1.1789
15119SOL    HW247365   7.049   8.634   9.647 -0.4827 -0.4155  0.8270
15120SOL     OW47366   2.059   1.820  10.158  0.4238 -0.2842  0.1092
15120SOL    HW147367   2.005   1.835  10.081 -0.6566  1.0095  1.0512
15120SOL    HW247368   2.146   1.851  10.133  0.2714 -0.5747 -0.8186
15121SOL     OW47369   2.103   0.284   5.475  0.4484  0.4313  0.6981
15121SOL    HW147370   2.178   0.278   5.416  0.4347 -1.0082  0.7857
15121SOL    HW247371   2.028   0.259   5.421  0.7017 -3.2002  1.7317
15122SOL     OW47372   1.376  10.111   8.721  0.2648  0.6130 -0.2677
15122SOL    HW147373   1.374  10.206   8.729 -1.1730  0.5980 -0.1870
15122SOL    HW247374   1.442  10.094   8.653  1.5924  1.5644  0.7443
15123SOL     OW47375  10.926  10.324   7.995  0.2134  0.5670  0.4028
15123SOL    HW147376  11.000  10.329   8.056  0.1621 -1.1202  0.6560
15123SOL    HW247377  10.961  10.276   7.920  0.2290  2.4797 -0.8729
15124SOL     OW47378   7.958   0.043   9.018 -0.1162 -0.1421  0.3144
15124SOL    HW147379   7.985   0.097   8.944 -0.4511  0.3547  0.5492
15124SOL    HW247380   7.967  -0.047   8.987  0.1401  0.0556 -0.1889
15125SOL     OW47381   0.740   8.740   1.993 -0.2302  0.2586 -0.1975
15125SOL    HW147382   0.830   8.750   2.023 -0.0523  1.3853 -1.0280
15125SOL    HW247383   0.687   8.739   2.073  0.4241  0.7235  0.2477
15126SOL     OW47384   5.481   0.390   0.542 -0.6613  0.1646  0.3266
15126SOL    HW147385   5.468   0.336   0.464  0.6912 -0.9327  0.8217
15126SOL    HW247386   5.394   0.395   0.581 -1.4747  1.1760 -1.4964
15127SOL     OW47387   4.139   4.414   0.916  0.1053 -0.4802 -0.6580
15127SOL    HW147388   4.169   4.495   0.874 -0.2782 -0.4949 -0.9788
15127SOL    HW247389   4.182   4.344   0.867 -0.2386 -0.4930 -0.9479
15128SOL     OW47390   9.959   7.229   1.922  0.3681  0.0164  0.1317
15128SOL    HW147391   9.908   7.251   2.000 -2.9113  2.2040 -2.3699
15128SOL    HW247392   9.921   7.147   1.890 -1.7281  1.5396 -1.6147
15129SOL     OW47393  10.576   9.099   9.669  0.6810  0.2244 -0.4033
15129SOL    HW147394  10.495   9.099   9.618 -0.2416  0.0340  1.0089
15129SOL    HW247395  10.584   9.188   9.702  0.2789 -0.1011  0.6061
15130SOL     OW47396   2.798   1.596   3.824  0.4596 -0.3024  0.4075
15130SOL    HW147397   2.759   1.683   3.836  1.4890  0.6181 -2.1740
15130SOL    HW247398   2.723   1.537   3.819 -0.6415  1.1263 -2.3423
15131SOL     OW47399   1.127  10.867   1.482 -0.7471  0.2416  0.6856
15131SOL    HW147400   1.099  10.941   1.535 -1.5807  1.5273 -1.4509
15131SOL    HW247401   1.046  10.829   1.449 -0.2291 -0.0016 -0.3450
15132SOL     OW47402   1.994   6.981  11.008 -0.1587  1.0636 -0.6432
15132SOL    HW147403   1.922   6.944  11.058  1.0767 -0.8272 -0.1948
15132SOL    HW247404   1.974   6.958  10.917  0.4945 -0.6053 -0.3892
15133SOL     OW47405   7.518   2.645   4.925  0.2531  0.8894 -0.1031
15133SOL    HW147406   7.461   2.708   4.879 -0.0667  0.2467 -0.6078
15133SOL    HW247407   7.606   2.682   4.916 -0.2109  2.7802  2.1425
15134SOL     OW47408   8.244  10.760   3.611  0.0985  0.0351  0.1565
15134SOL    HW147409   8.158  10.798   3.628  0.6272  0.8453  1.1758
15134SOL    HW247410   8.272  10.726   3.696  0.6164 -0.5842 -0.2528
15135SOL     OW47411   9.705   0.400   8.123 -0.1622 -0.2024 -0.3941
15135SOL    HW147412   9.738   0.482   8.160 -2.8350  1.7677 -1.9743
15135SOL    HW247413   9.738   0.400   8.033 -0.2960 -0.7988 -0.4468
15136SOL     OW47414   9.037   6.063   4.898  0.2697 -0.2200 -0.2989
15136SOL    HW147415   9.074   6.020   4.820 -3.2831 -2.4915 -0.9470
15136SOL    HW247416   8.985   6.135   4.863  1.8283  1.3485  0.4199
15137SOL     OW47417   5.276   5.151   0.586  0.0192  0.8123  0.0968
15137SOL    HW147418   5.278   5.065   0.628 -2.3514 -0.2760 -1.8042
15137SOL    HW247419   5.286   5.213   0.659  3.5857 -0.9512  1.3478
15138SOL     OW47420   6.329   8.667  10.414  0.1134 -0.0004 -0.6282
15138SOL    HW147421   6.379   8.586  10.425 -0.7707 -0.7614 -1.8288
15138SOL    HW247422   6.285   8.679  10.498 -0.4305 -1.2813 -0.6973
15139SOL     OW47423   1.206   9.730   2.154  0.0856 -0.3681 -0.8999
15139SOL    HW147424   1.118   9.749   2.187 -0.3283  1.5901 -2.9008
15139SOL    HW247425   1.265   9.774   2.216 -0.4129 -0.5532 -0.2870
15140SOL     OW47426   2.068   7.677   1.564 -0.0699 -0.2622  0.2217
15140SOL    HW147427   2.050   7.698   1.655  0.4278 -0.8341  0.4570
15140SOL    HW247428   2.145   7.729   1.542  0.1420 -0.5425  0.2961
15141SOL     OW47429   3.751   1.598   1.060 -0.0699  0.3590 -0.3200
15141SOL    HW147430   3.701   1.565   1.134 -1.4681  0.6145 -1.1196
15141SOL    HW247431   3.744   1.694   1.066  1.4970  0.4685  0.3218
15142SOL     OW47432   7.552   1.766   5.999  0.6040  0.1498  0.0858
15142SOL    HW147433   7.638   1.808   5.995  0.9591  0.2061  4.1028
15142SOL    HW247434   7.572   1.673   6.009  0.0441 -0.1758 -1.5532
15143SOL     OW47435   4.047   6.690   2.654  0.4756 -0.7554 -0.5192
15143SOL    HW147436   4.007   6.712   2.739 -1.5157 -1.7728 -1.1393
15143SOL    HW247437   4.025   6.598   2.640  1.5577 -0.8608 -1.7553
15144SOL     OW47438   3.126   8.058   1.005  0.1438  0.7135 -0.2579
15144SOL    HW147439   3.094   7.969   1.019 -0.2630  0.8187 -0.5230
15144SOL    HW247440   3.047   8.112   0.999  0.3993  1.1669  0.3721
15145SOL     OW47441   3.458   4.034   4.567  0.3606  0.0259 -0.0714
15145SOL    HW147442   3.477   3.987   4.486  0.7672 -0.5909  0.3709
15145SOL    HW247443   3.363   4.032   4.575  0.4261 -2.4111  0.8907
15146SOL     OW47444   2.832   9.814   1.274  0.3318 -0.3570  0.6935
15146SOL    HW147445   2.752   9.777   1.311 -0.3794 -0.6942 -1.0452
15146SOL    HW247446   2.817   9.811   1.179  2.0973  0.2944  0.3632
15147SOL     OW47447   7.286  10.620   9.375 -0.2347 -0.4843  0.1092
15147SOL    HW147448   7.305  10.677   9.450  1.8965  0.4347 -1.0156
15147SOL    HW247449   7.258  10.538   9.413 -0.2540  0.3086  1.8907
15148SOL     OW47450   6.153   1.299   0.368  0.5289 -0.8989  0.5876
15148SOL    HW147451   6.210   1.239   0.321  1.0682  0.7611 -0.9888
15148SOL    HW247452   6.206   1.333   0.440  1.0004 -0.5790  0.0930
15149SOL     OW47453   2.949   6.463  10.894 -0.1780  0.7426 -0.4671
15149SOL    HW147454   3.000   6.519  10.953 -0.3635  1.8841 -1.3552
15149SOL    HW247455   2.892   6.412  10.952  0.7276  0.7039  0.4257
15150SOL     OW47456  10.218   4.712   5.646 -0.7414  0.0722  0.4215
15150SOL    HW147457  10.264   4.666   5.716  1.3390  1.1873 -0.1459
15150SOL    HW247458  10.263   4.796   5.638 -2.1162  0.7402 -1.0230
15151SOL     OW47459   4.871   3.633   8.768  0.1269  0.2405 -0.1487
15151SOL    HW147460   4.828   3.709   8.807  0.3147  1.3829 -2.0565
15151SOL    HW247461   4.951   3.668   8.729  1.2920 -1.3273  0.7059
15152SOL     OW47462   8.215   2.557   7.806  0.1785  0.6441 -0.1228
15152SOL    HW147463   8.157   2.579   7.879  3.6456  1.8745  2.5414
15152SOL    HW247464   8.199   2.464   7.791 -1.3151  0.5511  1.6108
15153SOL     OW47465   6.772   9.124   0.214  0.4005 -0.5380 -0.4086
15153SOL    HW147466   6.857   9.167   0.217  0.2833 -0.2867 -0.6135
15153SOL    HW247467   6.784   9.043   0.263  0.7846 -0.5540 -0.5273
15154SOL     OW47468   3.497  10.277   1.079 -0.4655  0.5643 -0.1898
15154SOL    HW147469   3.505  10.370   1.100 -0.2304  0.0057  2.6338
15154SOL    HW247470   3.541  10.232   1.151 -0.8927 -1.7600 -1.2759
15155SOL     OW47471   6.734   1.871  10.429 -0.2615  0.1471  0.3571
15155SOL    HW147472   6.728   1.955  10.475  0.1080  0.4147 -0.0783
15155SOL    HW247473   6.657   1.867  10.374 -2.3018 -1.4507  3.0491
15156SOL     OW47474   3.360   6.971   7.746  0.2334 -0.2754 -0.7676
15156SOL    HW147475   3.361   6.884   7.706  0.2160  0.2269 -1.9104
15156SOL    HW247476   3.409   7.026   7.685  1.1258  0.3209  0.4362
15157SOL     OW47477   5.375  10.359   8.740 -0.0551  1.1086  1.0470
15157SOL    HW147478   5.356  10.348   8.647 -0.7588 -1.2424  1.4140
15157SOL    HW247479   5.453  10.305   8.756  1.8844  3.7745  1.3172
15158SOL     OW47480   8.912   5.363   9.982  0.0775 -0.2861 -0.2481
15158SOL    HW147481   8.979   5.432   9.991 -0.6926  0.3520  0.8918
15158SOL    HW247482   8.833   5.402  10.019 -0.8516 -1.1524 -1.2696
15159SOL     OW47483   1.855   4.623   4.742 -0.2739 -0.4885  0.0097
15159SOL    HW147484   1.811   4.612   4.657 -0.8664 -0.0631  0.2609
15159SOL    HW247485   1.923   4.556   4.741  1.1348  0.8702 -1.6996
15160SOL     OW47486   2.431   6.253   3.203  0.0712  0.1853 -0.2710
15160SOL    HW147487   2.490   6.259   3.278  0.9006  1.1259 -0.9741
15160SOL    HW247488   2.394   6.340   3.195 -0.0424  0.0814 -0.9272
15161SOL     OW47489  10.249   0.573   7.198  0.1190  0.5481 -0.0618
15161SOL    HW147490  10.259   0.613   7.112  1.8309 -0.3847 -0.3510
15161SOL    HW247491  10.263   0.480   7.183  2.3237  0.5455  1.4440
15162SOL     OW47492   2.967   6.042   6.870  0.2526  0.4142  0.6611
15162SOL    HW147493   2.883   6.072   6.905 -0.1867  1.9107 -1.4379
15162SOL    HW247494   2.945   6.007   6.783  1.3720 -2.4066  1.4123
15163SOL     OW47495   6.631   3.327   0.428  0.1813  0.8066 -0.1832
15163SOL    HW147496   6.646   3.233   0.423 -0.8475  0.6980 -3.1699
15163SOL    HW247497   6.711   3.366   0.391  0.2578  1.0751  0.2601
15164SOL     OW47498  10.690   8.203   8.188  0.9046 -0.0925 -0.4092
15164SOL    HW147499  10.642   8.266   8.134 -0.2501  1.1165  1.8862
15164SOL    HW247500  10.758   8.254   8.230  0.6757 -0.6016  0.6122
15165SOL     OW47501   9.188   3.615   0.188 -0.0663 -0.3374  0.4301
15165SOL    HW147502   9.273   3.575   0.208  0.4377  0.2631 -0.4211
15165SOL    HW247503   9.159   3.571   0.108 -0.4929 -0.4499  0.6474
15166SOL     OW47504   8.415   3.601   6.561 -0.0726  0.3178  0.3846
15166SOL    HW147505   8.356   3.571   6.630  1.1162 -0.3470  1.1315
15166SOL    HW247506   8.488   3.540   6.563  0.3281  0.7217 -0.9910
15167SOL     OW47507   3.002   8.076  11.072  0.4259 -0.3860 -0.1076
15167SOL    HW147508   2.995   8.119  10.986 -1.9981  1.7346  0.9991
15167SOL    HW247509   3.086   8.106  11.107  0.5700  0.2773 -0.9840
15168SOL     OW47510   7.489   3.407   9.718 -0.1687  0.3866  0.1451
15168SOL    HW147511   7.485   3.476   9.785 -0.3027  1.0677 -0.5509
15168SOL    HW247512   7.572   3.362   9.735  2.3060  3.6356 -2.1225
15169SOL     OW47513   3.641   2.603   3.320  0.0348  0.2629  1.1876
15169SOL    HW147514   3.616   2.637   3.406 -2.3647  2.7288 -0.3265
15169SOL    HW247515   3.573   2.539   3.299  0.3489  0.0123  0.9241
15170SOL     OW47516   6.777   1.557   9.887  0.0470 -0.1746  0.0159
15170SOL    HW147517   6.726   1.619   9.939 -0.0469 -0.1414 -0.1171
15170SOL    HW247518   6.730   1.474   9.894  1.0879 -0.6829  1.6281
15171SOL     OW47519   9.473   2.374   8.831  0.6077 -0.4156 -0.1135
15171SOL    HW147520   9.557   2.387   8.788  0.8436  2.0233  0.8779
15171SOL    HW247521   9.488   2.302   8.892  1.5300 -1.0062 -1.0136
15172SOL     OW47522   5.791   3.113   2.065  0.1123  0.4586  0.3915
15172SOL    HW147523   5.737   3.122   2.144 -0.4772 -2.2109  0.3930
15172SOL    HW247524   5.881   3.115   2.097 -0.1277 -0.9902  1.2268
15173SOL     OW47525  10.209   4.312  10.457 -0.3744  0.3570 -0.5103
15173SOL    HW147526  10.288   4.263  10.433 -0.3805  0.0544  0.0863
15173SOL    HW247527  10.138   4.261  10.420 -0.3320  0.3194 -0.5397
15174SOL     OW47528   1.831   3.523   5.301 -0.5666 -0.0067  0.6087
15174SOL    HW147529   1.834   3.502   5.208 -0.4015  1.2477  0.3133
15174SOL    HW247530   1.921   3.515   5.331 -0.7928 -1.5654  0.9522
15175SOL     OW47531   5.598   0.091   2.828  0.0503 -0.5458  0.3546
15175SOL    HW147532   5.660   0.163   2.823 -0.0033 -0.4262  1.1423
15175SOL    HW247533   5.632   0.034   2.898 -0.4929 -0.6942  0.5101
15176SOL     OW47534   0.801   0.238   5.024 -0.2727  0.5854 -0.3746
15176SOL    HW147535   0.875   0.233   5.085 -0.7497 -0.4622  0.1620
15176SOL    HW247536   0.727   0.200   5.073 -0.2230 -2.1771 -2.2323
15177SOL     OW47537   0.570   8.671   0.633  0.1525 -1.0926  0.0236
15177SOL    HW147538   0.595   8.636   0.548 -0.1560  0.0568 -0.5664
15177SOL    HW247539   0.524   8.753   0.613 -0.6513 -1.2099  1.2561
15178SOL     OW47540   9.160  10.937   9.263 -0.7193 -0.6946  0.1854
15178SOL    HW147541   9.146  11.006   9.199 -0.6889 -1.3166 -0.5066
15178SOL    HW247542   9.123  10.971   9.344 -2.7615 -0.7653 -0.6761
15179SOL     OW47543  10.955   8.012   5.397  0.3441  0.6867  0.2375
15179SOL    HW147544  11.039   8.034   5.355 -0.0690  3.4410  0.6947
15179SOL    HW247545  10.890   8.026   5.328  0.1138 -0.3727  0.2123
15180SOL     OW47546   3.916  10.214   1.739  0.1688  0.1120  0.0879
15180SOL    HW147547   3.924  10.122   1.713  1.9397  0.3360 -0.2553
15180SOL    HW247548   3.877  10.257   1.663 -0.1142 -0.2395  0.0291
15181SOL     OW47549   3.158   4.104  10.692 -0.4696  0.4825 -0.5321
15181SOL    HW147550   3.186   4.024  10.738 -1.2218  0.6757  0.2934
15181SOL    HW247551   3.128   4.162  10.762  0.0897  1.5108 -1.1253
15182SOL     OW47552   9.534   8.227   0.278  0.9367 -0.3491 -0.4419
15182SOL    HW147553   9.471   8.251   0.209  0.3713  0.7901  0.4359
15182SOL    HW247554   9.587   8.158   0.239 -0.0516 -0.4556 -1.6531
15183SOL     OW47555   4.249   7.473   5.841 -0.1122  0.3961 -0.5895
15183SOL    HW147556   4.222   7.382   5.852 -1.5519  0.9037  0.3586
15183SOL    HW247557   4.213   7.519   5.917  0.5062  1.7850 -1.0865
15184SOL     OW47558   2.619   2.183   3.098  0.7513 -0.0472  0.4672
15184SOL    HW147559   2.587   2.093   3.108 -0.5260  0.0986 -1.5936
15184SOL    HW247560   2.660   2.184   3.012 -2.7841  2.1629 -1.4629
15185SOL     OW47561   0.842   3.724   0.635  0.2913 -0.2065 -0.8564
15185SOL    HW147562   0.849   3.776   0.555  0.7315 -0.2243 -0.8367
15185SOL    HW247563   0.768   3.761   0.682  0.8563  0.6952 -0.6408
15186SOL     OW47564   8.426   4.976   1.599  0.4639 -0.0268  0.1351
15186SOL    HW147565   8.386   4.908   1.653 -0.9881 -0.7056 -1.6759
15186SOL    HW247566   8.499   4.933   1.554  0.0308 -0.2014 -0.4161
15187SOL     OW47567   7.898   3.604   3.658  0.2667  0.1565 -0.0850
15187SOL    HW147568   7.889   3.698   3.674  0.6156  0.0552  0.7703
15187SOL    HW247569   7.845   3.563   3.726 -0.5195 -0.2642 -0.9317
15188SOL     OW47570   3.453   1.416   5.408 -0.2261 -0.1257  0.0426
15188SOL    HW147571   3.449   1.347   5.342  0.0694 -0.8221  0.7414
15188SOL    HW247572   3.533   1.399   5.457  0.0359  0.9246  0.0141
15189SOL     OW47573   3.879  10.957   7.309  0.7072 -0.5733 -0.3194
15189SOL    HW147574   3.817  10.969   7.382 -0.3988  1.4234 -1.4681
15189SOL    HW247575   3.852  10.876   7.267 -1.2857  0.2958 -0.8423
15190SOL     OW47576   1.955   6.267   9.995  0.0797 -0.6959 -0.4360
15190SOL    HW147577   1.939   6.360  10.008  3.7027  0.0304 -0.0241
15190SOL    HW247578   2.050   6.260   9.990 -0.0480 -4.4289 -0.2773
15191SOL     OW47579   9.845   9.961   6.830  0.2559 -0.0566  0.3976
15191SOL    HW147580   9.799   9.968   6.914  0.2922  0.5515  0.3659
15191SOL    HW247581   9.857   9.867   6.818 -1.5178 -0.2892  0.1230
15192SOL     OW47582   1.098  10.252   8.720  0.7535 -0.2830 -0.5323
15192SOL    HW147583   1.101  10.315   8.648 -0.7190 -0.4400 -0.7513
15192SOL    HW247584   1.124  10.169   8.681  0.5433 -0.2466 -0.7531
15193SOL     OW47585   5.809   1.810  10.910  0.2207  0.3994 -0.2342
15193SOL    HW147586   5.748   1.822  10.837 -0.8064 -0.4146  0.4615
15193SOL    HW247587   5.803   1.891  10.960  2.1379  1.6430 -1.8689
15194SOL     OW47588   4.048   3.284   1.514  0.2438  0.7064  0.3604
15194SOL    HW147589   4.008   3.259   1.597 -0.8799  0.2345 -0.3017
15194SOL    HW247590   3.980   3.270   1.449  1.3125  0.4100 -0.7445
15195SOL     OW47591   0.796   2.423   4.638 -0.4093 -0.0183  0.4646
15195SOL    HW147592   0.835   2.456   4.719  0.3647  0.6954 -0.1752
15195SOL    HW247593   0.853   2.350   4.611 -1.5952 -1.3432  1.3938
15196SOL     OW47594   8.396   0.238   5.116 -0.0064 -0.1796 -0.1244
15196SOL    HW147595   8.440   0.252   5.032 -0.7322 -0.9216 -0.6496
15196SOL    HW247596   8.431   0.155   5.148  1.3491  0.8006  1.0418
15197SOL     OW47597   9.280  10.027   2.683 -0.2969 -0.4060  0.0377
15197SOL    HW147598   9.357  10.028   2.627 -0.4838  0.8920 -0.2214
15197SOL    HW247599   9.304   9.968   2.755  1.0423  0.1714  0.1007
15198SOL     OW47600   8.051   0.310   8.904 -0.6472  0.2792  0.0687
15198SOL    HW147601   8.112   0.326   8.832 -1.5375  1.4955 -0.4481
15198SOL    HW247602   7.993   0.386   8.904 -3.2994 -1.5913 -0.6335
15199SOL     OW47603   0.391   9.077   4.114  0.4194 -0.1081  0.7205
15199SOL    HW147604   0.477   9.040   4.093 -0.0272 -1.0693  0.5186
15199SOL    HW247605   0.329   9.019   4.070 -0.4877 -1.1434  3.1725
15200SOL     OW47606   4.371   6.013   3.490  0.3405  0.5973  0.4950
15200SOL    HW147607   4.310   5.946   3.521  1.6078 -0.3831  0.9525
15200SOL    HW247608   4.458   5.978   3.510  1.1176  1.3759 -1.3113
15201SOL     OW47609   2.833   2.537  10.618  0.4725 -0.7944 -0.3522
15201SOL    HW147610   2.752   2.490  10.598  0.0083  0.3613 -1.3099
15201SOL    HW247611   2.827   2.618  10.567  2.1089 -0.5614 -0.2258
15202SOL     OW47612   4.327   2.777   4.857 -0.0816 -0.1073 -0.5422
15202SOL    HW147613   4.232   2.771   4.868 -0.1685  0.9465 -0.6310
15202SOL    HW247614   4.360   2.691   4.883 -0.9640 -0.1363  0.5420
15203SOL     OW47615   6.541   9.202   4.905  0.7367  0.5459  0.4292
15203SOL    HW147616   6.534   9.285   4.954 -0.0141  1.3791 -1.0375
15203SOL    HW247617   6.476   9.209   4.836  0.5667 -1.3618  0.3501
15204SOL     OW47618   8.168  10.303   3.717  0.9059  0.1037  0.1277
15204SOL    HW147619   8.244  10.247   3.733  0.1376 -1.3223 -1.0140
15204SOL    HW247620   8.132  10.318   3.804  1.0216 -1.3636  0.4581
15205SOL     OW47621   7.035  10.095   8.387  0.3057  0.4531 -0.2399
15205SOL    HW147622   6.962  10.111   8.326 -0.2153 -1.2255 -0.1123
15205SOL    HW247623   7.097  10.041   8.337 -0.0481 -0.8011  0.6030
15206SOL     OW47624   7.208   7.217   7.845  0.3633 -0.5800 -0.6211
15206SOL    HW147625   7.252   7.301   7.830 -0.8351  0.2325  0.2433
15206SOL    HW247626   7.238   7.161   7.773 -0.5397  1.2803 -2.5600
15207SOL     OW47627   0.848   5.217   5.878 -0.0700  0.0354  0.2808
15207SOL    HW147628   0.847   5.212   5.974 -1.6814  1.5737  0.4177
15207SOL    HW247629   0.798   5.141   5.849 -2.4067  1.2153  0.9013
15208SOL     OW47630  10.427   0.155   8.595  0.2410 -0.0971  0.1387
15208SOL    HW147631  10.371   0.231   8.580  0.6236  0.2777  0.5576
15208SOL    HW247632  10.508   0.176   8.548  0.2381 -0.3863  0.0003
15209SOL     OW47633  10.903   8.046   5.145  0.5868  0.6818 -0.0278
15209SOL    HW147634  10.959   7.970   5.128 -0.5025 -0.1840  0.1122
15209SOL    HW247635  10.843   8.048   5.071 -2.4656 -1.5264  2.1226
15210SOL     OW47636   0.168   1.377   7.214 -0.0480 -0.1897 -0.3309
15210SOL    HW147637   0.114   1.340   7.144  3.0070 -1.6116 -2.1610
15210SOL    HW247638   0.247   1.407   7.169  1.3288  0.4535  2.3249
15211SOL     OW47639   1.919   1.850   8.861  0.1929  0.3640 -0.0198
15211SOL    HW147640   1.879   1.936   8.847 -0.9135  0.5791  3.5019
15211SOL    HW247641   2.013   1.866   8.854 -0.0317  1.5715 -0.6019
15212SOL     OW47642   3.066   6.761   6.775 -0.0303 -0.6605  0.4220
15212SOL    HW147643   3.092   6.847   6.808 -2.0344  1.0902 -2.1832
15212SOL    HW247644   3.149   6.721   6.746  0.8799  0.5786  1.1974
15213SOL     OW47645   6.052   3.083   4.475 -0.3908 -0.4034 -0.4631
15213SOL    HW147646   6.109   3.063   4.550  0.4518 -0.9031 -1.2158
15213SOL    HW247647   6.111   3.117   4.408 -0.8382 -1.6512 -1.5444
15214SOL     OW47648   3.457  10.088   0.556 -0.0709  0.4496 -0.2254
15214SOL    HW147649   3.457  10.110   0.463 -2.8213 -2.5243 -1.0708
15214SOL    HW247650   3.535  10.034   0.568 -1.0743 -1.3817 -1.5144
15215SOL     OW47651   3.672   9.811   7.486  0.7912  0.0639 -0.2368
15215SOL    HW147652   3.668   9.820   7.581 -0.3086 -1.2751 -0.1211
15215SOL    HW247653   3.717   9.890   7.456  1.3142  0.4226  1.3970
15216SOL     OW47654   6.882   8.841  10.272 -0.2896  0.6066 -0.2058
15216SOL    HW147655   6.916   8.800  10.352  1.2622  1.2187 -0.5122
15216SOL    HW247656   6.929   8.924  10.267  1.3634 -0.3690 -2.8976
15217SOL     OW47657   6.203   7.275   2.869 -0.4179  0.4285  0.0543
15217SOL    HW147658   6.247   7.195   2.898 -0.8492 -0.4520 -1.5744
15217SOL    HW247659   6.273   7.329   2.834 -0.4879 -0.8185 -2.1994
15218SOL     OW47660   4.823   8.867   8.225  0.1367 -0.1205  0.0616
15218SOL    HW147661   4.834   8.831   8.137 -0.1289  0.2702 -0.1345
15218SOL    HW247662   4.811   8.961   8.211 -0.5906 -0.1507  0.4713
15219SOL     OW47663   0.032   5.298   0.921  0.2550  0.1378  0.2746
15219SOL    HW147664   0.083   5.378   0.933 -0.3029  0.6514 -0.6560
15219SOL    HW247665   0.051   5.246   0.999  1.3339  0.7817  0.4641
15220SOL     OW47666   5.544   5.612   0.022 -0.1847 -0.2167 -0.1543
15220SOL    HW147667   5.484   5.542   0.047 -2.3040  0.9783 -1.5941
15220SOL    HW247668   5.523   5.684   0.081  0.6246 -0.1375  0.0482
15221SOL     OW47669   5.059   4.085   3.080 -0.7628 -0.4513  0.2164
15221SOL    HW147670   5.058   4.046   3.167  0.8740 -0.6122  0.1954
15221SOL    HW247671   5.015   4.021   3.024 -2.4012 -0.0581  1.0055
15222SOL     OW47672   4.233   0.501   6.583 -0.5320  0.3134  0.7741
15222SOL    HW147673   4.200   0.582   6.543  0.1030  0.7449  1.1069
15222SOL    HW247674   4.289   0.531   6.655  1.1102 -0.3930 -0.1634
15223SOL     OW47675   6.009   1.970   6.650  0.0108  0.3727  0.0781
15223SOL    HW147676   6.059   1.917   6.588  0.2954  2.0616 -1.1850
15223SOL    HW247677   5.981   1.907   6.717  0.1702 -1.4024 -1.4410
15224SOL     OW47678   3.245   1.861   3.327 -0.2968  0.5448 -0.3453
15224SOL    HW147679   3.224   1.913   3.250  0.4821  0.6574 -0.4926
15224SOL    HW247680   3.231   1.770   3.299 -0.9639  0.6358 -0.3105
15225SOL     OW47681   8.518   5.476   8.789 -0.5068  0.3549  0.3783
15225SOL    HW147682   8.435   5.480   8.837 -0.9632 -1.4581 -0.1849
15225SOL    HW247683   8.555   5.392   8.813 -0.6857 -0.5828 -2.2678
15226SOL     OW47684   9.445   3.776   8.730 -0.4676  0.1882 -0.2374
15226SOL    HW147685   9.466   3.685   8.709  1.6678  0.9555 -1.9524
15226SOL    HW247686   9.507   3.799   8.799 -1.5352  0.1611  0.7571
15227SOL     OW47687   6.908   2.775  10.485 -0.5024 -0.0906 -0.0779
15227SOL    HW147688   6.977   2.785  10.551 -0.1796 -1.6297 -0.1259
15227SOL    HW247689   6.955   2.742  10.408 -0.9137  1.4349 -1.0167
15228SOL     OW47690   5.775   0.069   6.351 -0.2560  0.4714  0.3966
15228SOL    HW147691   5.691   0.096   6.388 -0.4868  0.5806 -0.1897
15228SOL    HW247692   5.769  -0.027   6.346 -1.0018  0.5614 -1.1168
15229SOL     OW47693   8.356   8.428  10.640  0.1853  0.7657 -0.7239
15229SOL    HW147694   8.372   8.345  10.685 -0.0267  0.3532 -1.3941
15229SOL    HW247695   8.264   8.447  10.657  0.5304  1.5061  0.4563
15230SOL     OW47696  10.141   8.500   8.504 -0.5081 -0.2586  0.2818
15230SOL    HW147697  10.117   8.538   8.588 -0.3668  0.4619  0.0026
15230SOL    HW247698  10.210   8.557   8.470 -0.1427 -0.8897 -0.0484
15231SOL     OW47699   5.265   9.961   5.767  0.4431 -0.4281  0.1439
15231SOL    HW147700   5.329   9.894   5.742  0.1403 -0.3288 -0.9577
15231SOL    HW247701   5.189   9.912   5.796  1.0624 -0.5490  1.6428
15232SOL     OW47702   2.744   4.262   3.637  0.1964  0.2282 -0.0518
15232SOL    HW147703   2.839   4.250   3.630 -0.0037 -1.4271 -0.3466
15232SOL    HW247704   2.714   4.267   3.547  0.0227  1.0611  0.0452
15233SOL     OW47705  11.085   0.713   3.415 -0.0049  0.0107 -0.3337
15233SOL    HW147706  11.155   0.768   3.451 -0.7932  0.9160 -0.1241
15233SOL    HW247707  11.054   0.662   3.489 -0.2127  0.3299 -0.1965
15234SOL     OW47708  10.099  10.126   8.219  0.1385  0.0725  0.3526
15234SOL    HW147709  10.083  10.217   8.246 -1.7951 -0.3257  0.6964
15234SOL    HW247710  10.036  10.075   8.269  1.3183 -1.5048  0.2969
15235SOL     OW47711   3.657   3.446   0.735  0.3013 -0.0236  0.3064
15235SOL    HW147712   3.569   3.464   0.770  0.4357  0.9942  0.1459
15235SOL    HW247713   3.656   3.486   0.648  0.4932 -1.1689 -0.2356
15236SOL     OW47714   3.681   4.407   2.465 -0.1780  0.9874 -0.1635
15236SOL    HW147715   3.696   4.499   2.488 -0.0043  1.0270 -0.4341
15236SOL    HW247716   3.768   4.370   2.456 -0.2063  0.2270  2.1463
15237SOL     OW47717   4.519   1.474   9.955 -0.6690  0.8092 -0.9725
15237SOL    HW147718   4.430   1.446   9.980 -1.1396  1.9416 -1.3150
15237SOL    HW247719   4.550   1.525  10.029 -0.2253  0.2480 -0.7733
15238SOL     OW47720   7.547   4.989   1.976 -0.2373 -0.1241  0.5054
15238SOL    HW147721   7.543   4.894   1.987 -1.5648 -0.4569 -2.1348
15238SOL    HW247722   7.465   5.011   1.931  0.6588  2.0781 -0.1714
15239SOL     OW47723   4.228   9.378   3.637 -0.1271 -0.5954  0.7522
15239SOL    HW147724   4.288   9.444   3.602 -0.8786  0.3345  1.1998
15239SOL    HW247725   4.285   9.305   3.661  0.8868  0.3842  1.4455
15240SOL     OW47726   6.428   3.874   0.720  0.3224 -0.4001 -0.3057
15240SOL    HW147727   6.376   3.832   0.651  2.0548 -1.2091 -1.1859
15240SOL    HW247728   6.412   3.820   0.798 -0.7774 -0.1475 -0.3481
15241SOL     OW47729   7.845   1.884   7.532  0.5526 -0.6132  0.2406
15241SOL    HW147730   7.826   1.960   7.587 -3.1492 -1.7799  0.8226
15241SOL    HW247731   7.927   1.907   7.487  0.4115  3.0181  1.5258
15242SOL     OW47732  11.063   4.280   4.514  0.4642 -0.2538 -0.4593
15242SOL    HW147733  11.000   4.297   4.584  2.9473 -0.4068  1.9357
15242SOL    HW247734  11.099   4.367   4.493  0.4988 -0.3543 -0.8255
15243SOL     OW47735   3.570   2.507  10.116  0.0128 -0.1875 -0.6928
15243SOL    HW147736   3.610   2.435  10.067  0.4470 -0.9243  0.6880
15243SOL    HW247737   3.576   2.480  10.208 -0.9266  1.0698 -0.2312
15244SOL     OW47738  10.992   5.321   5.033 -0.4307 -0.2374 -0.5412
15244SOL    HW147739  11.027   5.351   5.117 -0.4103 -4.5211  1.1957
15244SOL    HW247740  11.059   5.345   4.969  0.5267  1.2505  0.9419
15245SOL     OW47741   1.688   6.736   7.722 -0.5020  0.4126 -0.1408
15245SOL    HW147742   1.763   6.787   7.691  1.1412 -0.5537  1.8951
15245SOL    HW247743   1.728   6.660   7.766 -2.7486 -0.9435 -0.2710
15246SOL     OW47744   5.021   0.053   3.121  0.7138  0.1290  0.4398
15246SOL    HW147745   4.958   0.083   3.186  0.2689  0.8873 -0.3317
15246SOL    HW247746   4.986   0.081   3.037  1.5969 -0.2815 -0.0900
15247SOL     OW47747   3.938   3.140   6.993 -0.1318 -0.0951 -0.1040
15247SOL    HW147748   3.995   3.112   6.922 -0.8414  0.8956 -1.0924
15247SOL    HW247749   3.850   3.132   6.958 -0.4288  1.9847  0.0414
15248SOL     OW47750   4.640   2.536   6.165  0.5086 -0.5354 -0.8835
15248SOL    HW147751   4.722   2.524   6.214  0.8591 -0.4380 -1.4399
15248SOL    HW247752   4.618   2.628   6.177  0.9450 -0.3566 -1.4506
15249SOL     OW47753   3.058   3.959   5.684  0.7125 -0.3489 -0.0544
15249SOL    HW147754   3.100   4.027   5.632  0.9081 -0.7501 -0.4300
15249SOL    HW247755   3.094   3.971   5.772  3.7300 -2.2801 -0.8529
15250SOL     OW47756   3.902   0.827   5.150  0.4629 -0.0192 -0.6819
15250SOL    HW147757   3.915   0.788   5.064  0.3905 -1.1642 -0.1938
15250SOL    HW247758   3.811   0.807   5.172 -0.2945  2.3483 -1.3298
15251SOL     OW47759   8.610   9.670   8.698  0.0558 -0.5802 -0.0827
15251SOL    HW147760   8.558   9.744   8.667  1.4524  0.4113 -0.1419
15251SOL    HW247761   8.590   9.599   8.637  0.7305  0.5457 -1.6723
15252SOL     OW47762   9.708  10.462   4.254 -0.6470  0.3727  0.6030
15252SOL    HW147763   9.704  10.557   4.266 -0.1232  0.4733  0.0288
15252SOL    HW247764   9.786  10.434   4.301  0.0133  0.4323 -0.4285
15253SOL     OW47765   4.454   2.588   3.282 -0.4084 -0.2013  0.0802
15253SOL    HW147766   4.384   2.550   3.228 -0.6127  0.3496 -0.0519
15253SOL    HW247767   4.521   2.520   3.285 -0.1807 -0.0640 -1.2888
15254SOL     OW47768   9.497   5.491   0.335  0.3996  0.1630 -0.0702
15254SOL    HW147769   9.523   5.461   0.248  2.1535  0.0934  0.4508
15254SOL    HW247770   9.415   5.445   0.353 -0.5689  0.9873 -2.1023
15255SOL     OW47771   0.246   9.511   2.704  0.1777 -0.5274  0.1785
15255SOL    HW147772   0.256   9.543   2.615 -1.0975  3.3714  1.2362
15255SOL    HW247773   0.165   9.460   2.703 -1.4782  1.9639 -0.4268
15256SOL     OW47774   2.308   0.095   2.564  0.2448 -0.1789 -0.3101
15256SOL    HW147775   2.350   0.109   2.479 -2.0385  1.2217 -1.3109
15256SOL    HW247776   2.362   0.144   2.626  0.8325  0.4728 -1.3000
15257SOL     OW47777   8.859  10.978   0.655  0.0433  0.4734  0.6563
15257SOL    HW147778   8.861  11.066   0.618  1.0433  0.4958  0.7377
15257SOL    HW247779   8.829  10.923   0.583  0.4501  0.7374  0.2812
15258SOL     OW47780   8.862   1.905   6.216 -0.3065  0.6475  0.1665
15258SOL    HW147781   8.815   1.934   6.138 -1.1692 -0.6003  0.1871
15258SOL    HW247782   8.825   1.957   6.288 -1.6579 -0.2681  0.1721
15259SOL     OW47783   9.122  10.786   2.722 -0.2473 -0.5508  0.1178
15259SOL    HW147784   9.208  10.808   2.756  0.0227  0.2423 -1.0074
15259SOL    HW247785   9.139  10.725   2.650 -0.3885  1.3438 -1.6071
15260SOL     OW47786   4.794   6.002   8.972  0.4737  0.0833  0.4857
15260SOL    HW147787   4.738   5.932   8.936  2.2163 -2.4703  2.3953
15260SOL    HW247788   4.875   5.996   8.922  1.4061 -0.7551  2.0178
15261SOL     OW47789   6.544   7.776   4.507  0.1144 -0.3303  0.2313
15261SOL    HW147790   6.483   7.728   4.563 -0.0724  0.3358  0.6206
15261SOL    HW247791   6.570   7.851   4.561  0.0698  0.2260 -0.5066
15262SOL     OW47792   8.912   6.934   3.986 -0.6571 -0.4464 -0.0317
15262SOL    HW147793   8.934   7.013   4.035  1.2158 -0.7230 -0.3434
15262SOL    HW247794   8.881   6.965   3.901  1.0577 -0.0275 -0.5366
15263SOL     OW47795   3.130   5.099   4.561 -0.2795  0.0015 -0.0702
15263SOL    HW147796   3.036   5.114   4.553 -0.3115  0.5277  1.0793
15263SOL    HW247797   3.170   5.186   4.551  0.0715 -0.1841 -0.3280
15264SOL     OW47798  10.707   2.192   2.226  0.1234  0.4354  0.5957
15264SOL    HW147799  10.618   2.220   2.203 -0.4372 -1.6791 -0.0874
15264SOL    HW247800  10.739   2.147   2.148  0.2027 -2.3322  2.0961
15265SOL     OW47801   9.227   8.144   6.515  0.1899 -0.0726 -0.3960
15265SOL    HW147802   9.196   8.203   6.445 -1.2206  0.3023  0.5153
15265SOL    HW247803   9.314   8.117   6.485 -1.0275 -1.3599 -3.2004
15266SOL     OW47804   7.669   2.590   1.274  0.3505 -0.0659 -0.1707
15266SOL    HW147805   7.598   2.652   1.291 -0.2436 -1.2139  1.9024
15266SOL    HW247806   7.637   2.537   1.201 -1.3505 -1.0739  1.2254
15267SOL     OW47807   3.049   3.661   1.165  0.0066  0.5793  0.3439
15267SOL    HW147808   3.082   3.712   1.239  2.7309 -0.2372 -0.1802
15267SOL    HW247809   3.014   3.581   1.206  1.2504  0.2463  0.8032
15268SOL     OW47810   8.180   3.676  10.601  0.2040 -0.0750 -0.4034
15268SOL    HW147811   8.220   3.736  10.537  4.4935 -0.6059  1.4241
15268SOL    HW247812   8.171   3.593  10.554 -0.1254  0.4566 -1.3017
15269SOL     OW47813   5.034   1.996   8.935  0.3411  0.7426 -0.2506
15269SOL    HW147814   4.940   1.985   8.920  0.6148 -3.2668 -0.0558
15269SOL    HW247815   5.076   1.966   8.855  1.4723  0.1618  0.5243
15270SOL     OW47816   7.766   7.700  10.996  0.6252 -0.6316  0.0698
15270SOL    HW147817   7.734   7.790  10.989  0.8365 -0.5914 -0.3846
15270SOL    HW247818   7.764   7.666  10.907 -0.2857 -1.3731  0.3523
15271SOL     OW47819   3.694   2.334  10.357 -0.0344 -0.8079  0.2628
15271SOL    HW147820   3.769   2.340  10.417 -0.2100 -1.0543  0.5129
15271SOL    HW247821   3.618   2.354  10.412 -0.0008  1.4289 -0.4016
15272SOL     OW47822   9.187   9.468   7.555  0.0377  0.4684 -0.2379
15272SOL    HW147823   9.243   9.392   7.541 -0.4223  0.1618 -0.4183
15272SOL    HW247824   9.123   9.465   7.483 -1.2729 -0.1478  0.9186
15273SOL     OW47825   5.048   2.418   4.520  0.2327 -0.7341  0.3892
15273SOL    HW147826   4.965   2.465   4.510  0.2247 -1.0543 -1.2987
15273SOL    HW247827   5.034   2.335   4.475  1.0877 -1.2966  1.1394
15274SOL     OW47828   9.338   1.285   0.472 -0.6370 -1.0092 -0.4186
15274SOL    HW147829   9.418   1.336   0.480 -1.4402  0.2295  0.1762
15274SOL    HW247830   9.367   1.195   0.460  0.9352 -1.3270  3.8994
15275SOL     OW47831   9.540   5.583   1.359 -0.2354  0.2555 -0.0915
15275SOL    HW147832   9.628   5.585   1.398  0.0369 -1.3378 -0.5440
15275SOL    HW247833   9.497   5.509   1.403 -0.8750  0.1870 -0.8273
15276SOL     OW47834   6.363   3.015   3.799 -0.0265  0.5332 -1.0874
15276SOL    HW147835   6.326   3.099   3.770  0.3519  0.9597 -0.3877
15276SOL    HW247836   6.448   3.010   3.756 -0.0179  0.5457 -1.0724
15277SOL     OW47837   5.557   4.498  10.515  0.7246  0.6380  0.3089
15277SOL    HW147838   5.537   4.539  10.599  3.7240  0.3649  1.2965
15277SOL    HW247839   5.624   4.433  10.536  0.1777 -0.8025 -2.0587
15278SOL     OW47840   5.386   2.863   6.320  0.5704 -0.0483  0.1476
15278SOL    HW147841   5.310   2.830   6.271  1.4570 -0.9389 -0.6887
15278SOL    HW247842   5.395   2.954   6.292 -1.8482  0.9897  2.4009
15279SOL     OW47843   3.770  11.074   0.519  0.2577  0.4422  0.0358
15279SOL    HW147844   3.851  11.119   0.542 -1.6965  4.6960 -0.4604
15279SOL    HW247845   3.747  11.024   0.597  3.5809 -1.6074 -0.0744
15280SOL     OW47846   4.574   1.011   8.325  0.0327  0.4542 -0.1124
15280SOL    HW147847   4.630   1.063   8.383 -0.0976 -0.6706  1.0733
15280SOL    HW247848   4.634   0.976   8.259  0.6364 -0.1771  0.7415
15281SOL     OW47849   5.563   9.608   9.575 -0.9101  0.3060  0.2119
15281SOL    HW147850   5.533   9.546   9.508  0.7334  0.0175 -0.2819
15281SOL    HW247851   5.568   9.692   9.529  0.4785  0.0561 -0.1301
15282SOL     OW47852   1.504  10.945   6.410  0.1133 -0.3547  0.4064
15282SOL    HW147853   1.501  10.999   6.489  2.0158 -0.4400  0.5940
15282SOL    HW247854   1.575  10.882   6.427  0.6959 -0.2505 -1.4334
15283SOL     OW47855   5.937   4.837   0.228  0.4080 -0.1268 -0.6864
15283SOL    HW147856   5.847   4.822   0.198  0.5723  0.4910 -1.5351
15283SOL    HW247857   5.932   4.920   0.276  0.4711 -0.2301 -0.5031
15284SOL     OW47858  10.997  10.727   0.455 -0.0207 -0.2154  0.4752
15284SOL    HW147859  11.032  10.758   0.538 -0.9050 -0.4453  0.9454
15284SOL    HW247860  10.926  10.668   0.479 -1.4418  1.0542 -0.4184
15285SOL     OW47861   5.219   0.616  10.157  0.2640 -0.0731 -0.2230
15285SOL    HW147862   5.287   0.661  10.107  0.8711  2.3353  2.4991
15285SOL    HW247863   5.147   0.679  10.162  0.4088 -0.0251  2.2358
15286SOL     OW47864   2.229   6.426   6.745 -0.2090 -0.6342  0.0197
15286SOL    HW147865   2.283   6.400   6.820 -0.1303  0.6931  0.4548
15286SOL    HW247866   2.254   6.517   6.728 -0.5593 -0.7709 -1.3337
15287SOL     OW47867   4.351   9.258   4.123  0.3343  0.4404  0.1472
15287SOL    HW147868   4.257   9.247   4.136  0.1209  2.2604  0.4182
15287SOL    HW247869   4.380   9.176   4.084 -1.5679  0.2610 -0.9932
15288SOL     OW47870   5.801   3.289   3.585 -0.5586  0.2463  0.2483
15288SOL    HW147871   5.712   3.287   3.551 -1.2277  3.7320  1.3977
15288SOL    HW247872   5.854   3.321   3.512 -0.7923  1.1097  0.4538
15289SOL     OW47873   0.884   0.393   1.006 -0.4837  0.4175  0.4099
15289SOL    HW147874   0.832   0.316   1.028 -1.1790  0.9667  0.7231
15289SOL    HW247875   0.886   0.394   0.910 -2.6183  1.3707  0.3040
15290SOL     OW47876   4.041   4.702   5.700  0.0284  0.1612  0.3992
15290SOL    HW147877   4.093   4.772   5.660 -0.4981 -0.2996 -1.1448
15290SOL    HW247878   4.070   4.701   5.792  1.2216  1.2997  0.0734
15291SOL     OW47879   2.602   8.294   6.019  0.3119 -0.7286 -0.1214
15291SOL    HW147880   2.670   8.362   6.020  0.7251 -1.1319 -0.4728
15291SOL    HW247881   2.649   8.213   6.040 -0.1557 -0.9280  0.1619
15292SOL     OW47882   6.182   7.359   3.133  0.4095 -0.2887  0.1106
15292SOL    HW147883   6.182   7.356   3.037 -0.1299 -1.2799  0.1188
15292SOL    HW247884   6.269   7.389   3.156  0.4625  0.2288 -0.6916
15293SOL     OW47885   1.257   4.467   0.092  0.7508  0.2374  0.0098
15293SOL    HW147886   1.257   4.390   0.035 -0.4723  0.9319 -0.9652
15293SOL    HW247887   1.168   4.471   0.127  0.0672  2.5022 -1.7842
15294SOL     OW47888   2.943   2.375   5.644 -0.4451 -0.8723  0.1775
15294SOL    HW147889   2.867   2.429   5.668 -0.4861 -1.3070  1.0369
15294SOL    HW247890   2.981   2.421   5.569 -0.4910  0.3489  0.8805
15295SOL     OW47891   2.844   9.729   4.699  0.0302  0.2407  0.2658
15295SOL    HW147892   2.816   9.821   4.701 -0.4270  0.1468 -1.0927
15295SOL    HW247893   2.789   9.688   4.632  0.7517 -0.8483  0.3173
15296SOL     OW47894   5.544   3.605   2.614 -0.1470 -0.7988 -0.4939
15296SOL    HW147895   5.591   3.677   2.655  0.4883 -0.4963 -1.7101
15296SOL    HW247896   5.462   3.599   2.663 -0.3869  0.9990 -0.5983
15297SOL     OW47897   0.704   1.614   7.521  0.1270  0.1832 -0.0580
15297SOL    HW147898   0.693   1.519   7.527 -1.8993  0.3131 -1.0351
15297SOL    HW247899   0.617   1.649   7.538  0.0617  1.6926 -2.9834
15298SOL     OW47900   5.440   6.876   7.767  0.0945  0.3037 -0.3127
15298SOL    HW147901   5.392   6.958   7.752  0.7319  1.3505  2.6175
15298SOL    HW247902   5.498   6.868   7.692  0.1177  2.6355 -0.6113
15299SOL     OW47903   8.750   7.317   1.031 -0.7621  0.2959  0.5033
15299SOL    HW147904   8.808   7.389   1.008 -1.3992  0.7589  0.3254
15299SOL    HW247905   8.790   7.277   1.109  0.8595 -0.6175 -0.7106
15300SOL     OW47906   1.152   1.921   2.505 -0.1836  0.4836  0.2931
15300SOL    HW147907   1.153   1.898   2.412 -2.5533  0.1989  0.2966
15300SOL    HW247908   1.115   1.845   2.549  0.7967  0.6675  1.4853
15301SOL     OW47909   9.904   3.117   2.717 -0.6490 -0.3737 -0.0136
15301SOL    HW147910   9.943   3.166   2.789  1.2102 -1.1883 -0.4190
15301SOL    HW247911   9.911   3.025   2.744  0.9569 -0.7627 -1.6100
15302SOL     OW47912   9.853   6.985   4.207 -0.1688 -0.4465 -0.2970
15302SOL    HW147913   9.863   7.048   4.136  1.2155 -0.2198  0.0771
15302SOL    HW247914   9.781   7.020   4.260  0.0366  0.3773 -0.5437
15303SOL     OW47915   6.269   4.432   1.760 -0.1001 -0.3778  0.3787
15303SOL    HW147916   6.338   4.382   1.717  0.2764  2.0503 -2.1294
15303SOL    HW247917   6.204   4.366   1.785  1.6373 -2.3865 -0.0753
15304SOL     OW47918   5.048   1.786   0.257  0.3002  0.4695  0.4030
15304SOL    HW147919   5.111   1.780   0.185  1.5867  0.3686  1.5021
15304SOL    HW247920   5.029   1.695   0.279  0.2283  0.5041  0.4824
15305SOL     OW47921   9.496   6.405   7.517 -0.4352  0.4320  0.2113
15305SOL    HW147922   9.429   6.391   7.584  0.8839 -0.0458  1.4875
15305SOL    HW247923   9.520   6.317   7.488  0.3312  0.5333  0.5034
15306SOL     OW47924   9.947   1.382  11.053  0.2817  0.1945  0.0124
15306SOL    HW147925  10.024   1.353  11.003  0.8973 -0.5376  1.3251
15306SOL    HW247926   9.878   1.321  11.027  0.9515 -1.0232  1.0142
15307SOL     OW47927  10.701   1.390   3.227  0.1764 -0.6637 -0.2109
15307SOL    HW147928  10.659   1.350   3.303 -2.0361  2.4026  0.3500
15307SOL    HW247929  10.755   1.460   3.263  1.8025 -1.2845 -1.3140
15308SOL     OW47930   1.115   6.658   0.866 -0.6715  0.0649 -0.7668
15308SOL    HW147931   1.124   6.634   0.774 -1.5803 -0.5614 -0.7005
15308SOL    HW247932   1.037   6.611   0.896 -0.3609  0.2272  0.3364
15309SOL     OW47933   9.995   0.002   1.472 -0.5088 -0.0896  0.1704
15309SOL    HW147934  10.018  -0.043   1.391 -0.5306 -0.3330  0.2956
15309SOL    HW247935   9.901   0.017   1.466 -0.5896 -0.4899  0.3297
15310SOL     OW47936   9.478   0.888   5.196 -0.0989 -0.1832 -1.3114
15310SOL    HW147937   9.556   0.832   5.191  0.2973  0.1639  0.2757
15310SOL    HW247938   9.431   0.855   5.273 -0.1555  1.2561 -0.6927
15311SOL     OW47939   1.488  10.723  10.294  0.0325  0.5598 -0.2230
15311SOL    HW147940   1.505  10.706  10.386 -0.5786  0.0965 -0.1883
15311SOL    HW247941   1.506  10.817  10.283  0.4490  0.5413  0.2827
15312SOL     OW47942   3.758   9.606   6.864 -0.5235  0.2840 -0.0992
15312SOL    HW147943   3.846   9.616   6.899 -1.1690  2.8168  1.0730
15312SOL    HW247944   3.769   9.605   6.769  0.6681  2.7402 -0.0534
15313SOL     OW47945   3.430   1.419  10.653 -0.1233  0.1548 -0.4126
15313SOL    HW147946   3.339   1.393  10.663  0.0365 -0.6807 -1.0025
15313SOL    HW247947   3.428   1.514  10.644 -0.7479  0.3760  1.6888
15314SOL     OW47948   9.675  10.839   7.531 -0.0853  0.1098  0.6881
15314SOL    HW147949   9.633  10.926   7.528 -2.8937 -1.1378  0.3850
15314SOL    HW247950   9.715  10.829   7.445  1.5958  1.6406  1.2280
15315SOL     OW47951   7.589  10.402  10.323  0.9522 -0.0976 -0.1098
15315SOL    HW147952   7.564  10.491  10.348 -1.8409 -1.4407  2.5503
15315SOL    HW247953   7.533  10.381  10.249  0.2920 -0.2155  0.4131
15316SOL     OW47954   0.215   6.417   2.619  0.3633  0.3194  0.2474
15316SOL    HW147955   0.177   6.353   2.679  0.2375 -0.5631 -0.7295
15316SOL    HW247956   0.264   6.364   2.556 -0.1220  1.1487 -0.8620
15317SOL     OW47957   3.418   5.679   0.190 -0.3207 -0.0244 -0.0873
15317SOL    HW147958   3.387   5.642   0.108  0.6573  0.1624 -0.5522
15317SOL    HW247959   3.494   5.626   0.213  2.8764  3.2485 -2.2070
15318SOL     OW47960   1.222   2.474   6.280  0.2193 -0.6263  0.2352
15318SOL    HW147961   1.254   2.444   6.365 -2.0480 -1.0771  1.0015
15318SOL    HW247962   1.177   2.556   6.299  0.7215 -0.0901 -0.7693
15319SOL     OW47963   8.980   6.501   2.710  0.1614 -0.3572  0.3149
15319SOL    HW147964   9.040   6.564   2.669 -1.7873  1.3695 -0.0511
15319SOL    HW247965   9.017   6.416   2.689  2.4741  0.6062  0.1071
15320SOL     OW47966  10.056   7.716   4.880  0.4926  0.0454  0.2224
15320SOL    HW147967  10.117   7.642   4.875 -0.2713 -0.5956 -0.0806
15320SOL    HW247968  10.013   7.715   4.794  0.8295  1.1706  0.0332
15321SOL     OW47969  10.792   5.258  10.298  0.1066 -0.4381 -0.1127
15321SOL    HW147970  10.754   5.323  10.239 -1.6697  0.0845  1.4873
15321SOL    HW247971  10.764   5.174  10.262 -0.2485 -0.1636 -0.4913
15322SOL     OW47972   0.949   0.766   0.576 -0.7348  0.3803  0.1892
15322SOL    HW147973   1.043   0.780   0.580 -0.2283 -2.1244 -1.3743
15322SOL    HW247974   0.916   0.836   0.521  0.5769 -0.0761 -1.2163
15323SOL     OW47975   2.818   7.844   4.108  0.0983  0.1829  0.8254
15323SOL    HW147976   2.873   7.914   4.143 -0.9882  1.3466  0.2624
15323SOL    HW247977   2.878   7.771   4.095  1.7920  1.7433 -0.7961
15324SOL     OW47978   7.174   1.177   6.627  0.1473  0.3403 -0.8937
15324SOL    HW147979   7.181   1.202   6.720 -0.1859 -3.2144  0.2259
15324SOL    HW247980   7.250   1.121   6.612 -0.7791 -0.6110 -2.2135
15325SOL     OW47981   7.255   2.711   0.654 -0.2983  0.4154 -0.1942
15325SOL    HW147982   7.215   2.625   0.658  0.6745 -0.1726 -1.9998
15325SOL    HW247983   7.258   2.732   0.561 -1.4039  2.8520  0.2307
15326SOL     OW47984   9.095   8.855   0.097  0.4614 -0.5820  0.2417
15326SOL    HW147985   9.032   8.892   0.158  2.9428  1.1470  1.9677
15326SOL    HW247986   9.107   8.922   0.030  1.6434 -0.1427  0.8617
15327SOL     OW47987   4.082   3.481   1.960 -0.2757 -0.2348  0.2792
15327SOL    HW147988   4.162   3.427   1.964 -0.1417  0.0499  2.2652
15327SOL    HW247989   4.108   3.565   1.998 -0.7154  1.0299 -2.0112
15328SOL     OW47990   1.452   1.423   4.369 -0.5458 -0.0697 -0.2294
15328SOL    HW147991   1.519   1.487   4.393 -2.1313  0.7066  2.6871
15328SOL    HW247992   1.370   1.474   4.370 -1.4477 -1.4296 -1.4742
15329SOL     OW47993  10.266   0.541   3.907 -0.5391 -0.1777 -0.5315
15329SOL    HW147994  10.208   0.465   3.903 -3.0134  1.5816 -0.1137
15329SOL    HW247995  10.304   0.537   3.995  2.9324 -3.2400 -1.9037
15330SOL     OW47996   2.791   9.634   3.235 -0.3237  0.0732 -0.6149
15330SOL    HW147997   2.813   9.680   3.316 -0.8432  0.0369 -0.4518
15330SOL    HW247998   2.711   9.585   3.255  0.6980 -1.6344 -0.5143
15331SOL     OW47999  10.093   3.611   8.114  0.2444  0.5990 -0.0204
15331SOL    HW148000  10.034   3.637   8.184 -0.7786 -1.4152 -0.0684
15331SOL    HW248001  10.035   3.581   8.044  1.3038  0.4690 -0.8736
15332SOL     OW48002   1.000  10.503   6.910 -0.3530  0.0392 -0.0661
15332SOL    HW148003   0.915  10.545   6.900 -0.4283 -0.3110 -0.9731
15332SOL    HW248004   0.982  10.409   6.903  0.2035 -0.0042 -1.1253
15333SOL     OW48005   3.176   8.226   5.353 -0.6352  0.0387  0.5282
15333SOL    HW148006   3.192   8.139   5.390 -0.5875 -0.7607 -1.2681
15333SOL    HW248007   3.263   8.260   5.334 -0.6638  0.3819  1.0093
15334SOL     OW48008   0.185   9.482   5.871 -0.3803  0.0761  0.5095
15334SOL    HW148009   0.134   9.551   5.915  1.3439  0.9100  1.3161
15334SOL    HW248010   0.259   9.467   5.930  0.4266 -0.9187 -0.7252
15335SOL     OW48011   6.695   8.786   1.621 -0.3216 -0.8088  0.4999
15335SOL    HW148012   6.620   8.835   1.586  0.5952  0.6633  0.4972
15335SOL    HW248013   6.736   8.748   1.544 -0.7576 -1.1765  0.4443
15336SOL     OW48014   5.963   5.778   7.675  0.6840  0.4427 -0.8523
15336SOL    HW148015   5.959   5.752   7.767  1.9329  1.5369 -0.4421
15336SOL    HW248016   6.043   5.737   7.642  0.5906  0.5871 -1.2625
15337SOL     OW48017   0.093   7.780   9.259  0.3864  0.1947  0.1313
15337SOL    HW148018   0.076   7.742   9.345 -0.5767 -1.7766 -0.8683
15337SOL    HW248019   0.151   7.717   9.216  4.2474  3.0319  0.6344
15338SOL     OW48020   2.024   4.196   4.756 -0.0333  0.2647  0.5147
15338SOL    HW148021   2.072   4.117   4.730 -2.2638 -1.2833  0.7891
15338SOL    HW248022   1.935   4.183   4.721 -1.4051  1.0331  3.3969
15339SOL     OW48023   2.769   5.565   2.344  0.0165  0.0213  0.0268
15339SOL    HW148024   2.838   5.516   2.300  0.4113 -0.9063  1.6175
15339SOL    HW248025   2.801   5.577   2.433 -1.7840 -0.2856  0.7591
15340SOL     OW48026   9.247   8.371   1.016 -0.3920 -0.3448  0.1880
15340SOL    HW148027   9.161   8.378   0.974 -0.2255 -1.6453 -0.4364
15340SOL    HW248028   9.228   8.371   1.110 -1.0268 -0.1750  0.0642
15341SOL     OW48029   8.598   5.850   6.568 -0.1515 -0.2352 -0.0246
15341SOL    HW148030   8.669   5.801   6.609  0.6787  0.5706 -0.4945
15341SOL    HW248031   8.616   5.846   6.474 -2.7435 -3.2059 -0.5824
15342SOL     OW48032   1.907   3.582   6.668  0.0907  0.0627  0.0836
15342SOL    HW148033   1.840   3.567   6.735 -0.1124 -1.0783 -0.3535
15342SOL    HW248034   1.866   3.554   6.586  0.7412  0.3318 -0.3421
15343SOL     OW48035   1.446   8.790  10.747  0.4893  0.1058  0.4361
15343SOL    HW148036   1.517   8.753  10.799  1.3108 -2.3517 -2.1805
15343SOL    HW248037   1.379   8.722  10.746 -0.3804  0.9504 -0.0576
15344SOL     OW48038   8.059   8.311   7.474  0.2151 -0.0998 -0.1155
15344SOL    HW148039   8.016   8.338   7.555 -0.9837 -1.7443 -0.1274
15344SOL    HW248040   8.041   8.381   7.412 -0.8874  0.1234  0.4246
15345SOL     OW48041   5.227   9.608   8.137  0.4511  0.5631  0.2740
15345SOL    HW148042   5.245   9.696   8.172  0.2857  0.8123 -0.2550
15345SOL    HW248043   5.263   9.609   8.049 -3.2473  1.5881 -1.4331
15346SOL     OW48044   3.650   7.048  11.101 -0.6672 -0.6188  0.6514
15346SOL    HW148045   3.642   7.061  11.007 -0.4828  0.9350  0.8285
15346SOL    HW248046   3.742   7.023  11.113 -0.6624 -0.7132  0.4314
15347SOL     OW48047   4.284   6.355   7.375  0.0116 -0.2921  0.0907
15347SOL    HW148048   4.250   6.370   7.463 -2.3736 -2.9326 -0.2372
15347SOL    HW248049   4.367   6.403   7.373 -0.7882  1.4873  3.0545
15348SOL     OW48050   8.621   8.284   0.742 -0.2488  0.6911 -0.3052
15348SOL    HW148051   8.708   8.271   0.780 -0.5860 -2.3699 -0.3338
15348SOL    HW248052   8.637   8.326   0.657  1.1835  0.2911 -0.2463
15349SOL     OW48053   4.975   3.967   0.480  0.4353  0.2263  0.6536
15349SOL    HW148054   4.922   3.898   0.441  0.4594  0.8804 -0.6230
15349SOL    HW248055   5.052   3.972   0.423  0.9217  0.6055  1.3363
15350SOL     OW48056   3.977   3.436   2.228  0.0561  0.2025  0.2207
15350SOL    HW148057   4.026   3.477   2.157  0.8273  2.0414  1.7394
15350SOL    HW248058   3.912   3.382   2.184 -2.0798  4.2060 -2.0568
15351SOL     OW48059   5.201   4.982   1.477  0.1084 -0.5458  0.1619
15351SOL    HW148060   5.264   5.054   1.475  0.2663 -0.6389  1.2081
15351SOL    HW248061   5.116   5.024   1.463 -0.0119  0.1202  2.5462
15352SOL     OW48062   6.510   4.649   1.499  0.5506 -0.0157  0.8926
15352SOL    HW148063   6.534   4.575   1.555  2.4416 -0.9362 -0.9857
15352SOL    HW248064   6.589   4.703   1.496  0.3632  0.2133 -0.5147
15353SOL     OW48065   9.739   3.158   4.553 -0.1491  0.0423  0.4821
15353SOL    HW148066   9.754   3.199   4.638  0.0289 -0.0647  0.5047
15353SOL    HW248067   9.698   3.226   4.500 -1.8583 -0.4067  1.1758
15354SOL     OW48068   7.818   9.817   1.840  0.7728 -0.3625 -0.4970
15354SOL    HW148069   7.807   9.880   1.912  1.6347  0.3248 -0.9393
15354SOL    HW248070   7.912   9.817   1.824  0.5978 -0.6006 -1.5385
15355SOL     OW48071   9.167   2.527   7.924  0.6327 -0.0625  0.0816
15355SOL    HW148072   9.180   2.440   7.886  0.0091  0.7776 -2.2134
15355SOL    HW248073   9.256   2.560   7.940  1.1671  0.7041 -3.6206
15356SOL     OW48074   8.161   0.493  10.549  0.2357 -0.1249  0.3551
15356SOL    HW148075   8.255   0.505  10.533 -0.1796  0.4073 -1.9416
15356SOL    HW248076   8.130   0.580  10.572 -0.1463  0.2925 -1.6125
15357SOL     OW48077   3.199  10.522   4.468  0.1050 -0.7269  0.0286
15357SOL    HW148078   3.193  10.555   4.558 -1.9738 -1.3340  0.1650
15357SOL    HW248079   3.113  10.484   4.451  0.6996 -1.2763 -1.9835
15358SOL     OW48080   5.352   7.591   9.684 -0.3142 -0.1283 -0.2693
15358SOL    HW148081   5.407   7.624   9.755 -0.6119 -0.3411  0.0652
15358SOL    HW248082   5.366   7.653   9.612 -0.3694  0.3610  0.1366
15359SOL     OW48083   4.852   0.223   8.443 -0.8134  0.1348  0.4916
15359SOL    HW148084   4.938   0.182   8.450  0.9816  2.5054 -3.6980
15359SOL    HW248085   4.840   0.269   8.526  2.0085 -0.2389  1.2177
15360SOL     OW48086   5.931   5.822   3.265 -0.0890 -0.3048 -0.0691
15360SOL    HW148087   6.012   5.796   3.308 -0.6314 -0.2491  1.0212
15360SOL    HW248088   5.955   5.899   3.213  0.6013 -0.4233  0.0667
15361SOL     OW48089   2.096   0.755   6.687  0.4879  0.1018  0.3621
15361SOL    HW148090   2.107   0.672   6.732 -1.6685  0.8705  2.5341
15361SOL    HW248091   2.089   0.820   6.757 -0.2331  1.7627 -1.1625
15362SOL     OW48092   2.243   7.551   5.418 -0.2711  0.1624  0.0643
15362SOL    HW148093   2.166   7.518   5.465  0.2241  2.0434  2.3944
15362SOL    HW248094   2.317   7.504   5.458  0.0123  0.4773 -0.0887
15363SOL     OW48095   1.899   5.662   4.226  0.5879  0.1516  0.2540
15363SOL    HW148096   1.884   5.636   4.135  2.2610  1.0442 -0.3186
15363SOL    HW248097   1.832   5.728   4.244  1.1784  1.0747 -0.8444
15364SOL     OW48098   2.907   4.982   4.974 -0.3019  0.1686  0.3850
15364SOL    HW148099   2.886   5.068   4.938 -0.9692 -0.2155 -0.1752
15364SOL    HW248100   2.842   4.968   5.043  0.1329  0.3288  0.8363
15365SOL     OW48101   9.108  10.315  10.247 -0.4734 -0.1178  0.1749
15365SOL    HW148102   9.176  10.248  10.248 -1.5226 -1.2955 -1.6757
15365SOL    HW248103   9.061  10.303  10.329  0.7468 -0.1257  0.8934
15366SOL     OW48104  10.394  10.653   8.804  0.0211  0.4345 -1.0943
15366SOL    HW148105  10.379  10.744   8.829 -0.5084  0.4621 -1.4960
15366SOL    HW248106  10.312  10.626   8.762  1.2487  0.7795 -3.9023
15367SOL     OW48107   5.740   5.458   1.939  0.2740 -0.2701 -0.5059
15367SOL    HW148108   5.712   5.375   1.977 -3.3126  0.3712 -1.3986
15367SOL    HW248109   5.758   5.514   2.015 -0.9170 -0.7738  0.1684
15368SOL     OW48110   5.930   9.731  10.729 -0.1115  0.1857  0.5964
15368SOL    HW148111   6.015   9.770  10.747 -0.1719  0.2638  0.7210
15368SOL    HW248112   5.897   9.778  10.653  0.4091 -0.5573 -0.0966
15369SOL     OW48113   0.186  11.054   0.668 -1.0569  0.1893  0.2691
15369SOL    HW148114   0.220  10.973   0.707 -1.9839 -0.8223 -0.9448
15369SOL    HW248115   0.115  11.025   0.610 -3.6914  2.1528  2.2717
15370SOL     OW48116  10.053   6.066   7.462  0.3590 -0.0094 -0.3283
15370SOL    HW148117  10.002   6.020   7.528 -0.1487  0.3387 -0.4719
15370SOL    HW248118  10.089   6.142   7.508  1.0159 -0.4134 -0.1486
15371SOL     OW48119   4.439   8.835   3.190  0.3397 -0.5345 -0.0866
15371SOL    HW148120   4.473   8.795   3.109  1.9002 -2.5221  1.4524
15371SOL    HW248121   4.353   8.796   3.202  0.1421 -0.3091 -0.7029
15372SOL     OW48122   6.688   8.010   2.867 -0.1936 -0.0445  0.2067
15372SOL    HW148123   6.613   7.951   2.878  0.6247 -0.6994  2.7447
15372SOL    HW248124   6.727   8.016   2.953  2.0372  1.2045 -0.8144
15373SOL     OW48125   6.925   7.460  10.383  0.2191  0.7715  0.4241
15373SOL    HW148126   6.994   7.516  10.348  0.5857  0.5564  0.7900
15373SOL    HW248127   6.953   7.440  10.472  0.8534 -1.2194 -0.1678
15374SOL     OW48128   2.988   2.673   5.052  0.2540  0.8704  0.2745
15374SOL    HW148129   2.897   2.654   5.026  0.8845 -2.7097  0.0947
15374SOL    HW248130   3.031   2.702   4.972 -0.2710  0.5275 -0.1359
15375SOL     OW48131   3.856   0.806   0.845  0.2242 -0.2083 -0.0001
15375SOL    HW148132   3.831   0.744   0.913 -2.1936  0.3147 -0.3393
15375SOL    HW248133   3.793   0.877   0.852  1.5805  1.1761 -1.0533
15376SOL     OW48134   4.405   3.628   4.632  0.3868 -0.3835 -0.2082
15376SOL    HW148135   4.467   3.555   4.622  1.7137  0.5803  0.6006
15376SOL    HW248136   4.448   3.702   4.588  1.0601  0.9547  2.4759
15377SOL     OW48137   2.303   3.450   2.568 -0.5269 -0.1377  0.7027
15377SOL    HW148138   2.274   3.368   2.528  0.9432 -1.0560  1.4293
15377SOL    HW248139   2.362   3.489   2.503  0.1714 -0.5528  1.0838
15378SOL     OW48140   3.862   0.442   1.128 -0.6787  0.6495 -0.8916
15378SOL    HW148141   3.792   0.377   1.130  1.0445 -1.3100 -0.8708
15378SOL    HW248142   3.891   0.443   1.037  1.0467 -0.6535 -0.4095
15379SOL     OW48143   0.261   9.876  10.158 -0.4699 -0.1967 -0.1376
15379SOL    HW148144   0.234   9.787  10.182 -2.3108  0.5252  0.6825
15379SOL    HW248145   0.325   9.864  10.088 -2.9051 -2.1305 -2.2245
15380SOL     OW48146   5.189   7.807  10.876  0.7485 -0.3604 -0.1253
15380SOL    HW148147   5.261   7.745  10.891  0.8336 -0.1785  0.2478
15380SOL    HW248148   5.192   7.826  10.782  0.4697 -1.2258 -0.3163
15381SOL     OW48149   3.553  11.012   5.959  0.0465 -0.1143  0.2117
15381SOL    HW148150   3.572  10.920   5.943  0.6299  0.1048 -0.3815
15381SOL    HW248151   3.480  11.011   6.021  0.4086 -0.9746  0.6404
15382SOL     OW48152   5.108   5.866   4.547  0.2907 -0.6121  0.2009
15382SOL    HW148153   5.173   5.936   4.542  0.2746 -0.4614  1.6307
15382SOL    HW248154   5.024   5.910   4.531  0.2033 -0.1300  1.7990
15383SOL     OW48155   7.415   6.857   5.818  0.1591  0.6245 -0.7299
15383SOL    HW148156   7.493   6.889   5.862  1.6028  0.5756 -3.0533
15383SOL    HW248157   7.344   6.869   5.881  2.0416  0.5683  1.5001
15384SOL     OW48158   3.603  10.283   7.424  0.4938  0.0130 -0.0790
15384SOL    HW148159   3.568  10.316   7.507  1.0516 -0.5554  0.3917
15384SOL    HW248160   3.687  10.328   7.414 -0.0947  0.9651 -0.9340
15385SOL     OW48161   2.596   4.917   7.584  0.6394 -0.0677 -0.0178
15385SOL    HW148162   2.550   4.998   7.561  0.6276 -0.4372 -1.3624
15385SOL    HW248163   2.689   4.937   7.574  0.6335 -0.2332 -0.4413
15386SOL     OW48164   8.292   0.428   5.925 -0.4825 -0.3925  0.5480
15386SOL    HW148165   8.300   0.363   5.855 -2.6794 -0.7800  0.5848
15386SOL    HW248166   8.364   0.407   5.985  0.9165 -0.5961 -1.1190
15387SOL     OW48167   6.607   2.409   5.012 -0.2744 -0.7141  0.0942
15387SOL    HW148168   6.645   2.418   4.925  3.3999 -0.7160  1.5102
15387SOL    HW248169   6.596   2.499   5.042  0.8998 -0.6766  0.4898
15388SOL     OW48170   0.941   4.213   0.687  0.9278  0.1142  0.0778
15388SOL    HW148171   0.889   4.293   0.689  0.1209 -0.3807  2.3193
15388SOL    HW248172   0.975   4.208   0.598 -1.3748  1.4312 -0.9596
15389SOL     OW48173   8.864  10.717   5.301 -0.4858 -0.0738 -0.2391
15389SOL    HW148174   8.889  10.806   5.276 -1.5881  0.1084 -0.7775
15389SOL    HW248175   8.894  10.707   5.391  0.4194  0.5300 -0.4633
15390SOL     OW48176   2.211   5.561   3.468 -0.2002 -0.1478 -0.5834
15390SOL    HW148177   2.136   5.507   3.443  0.4822 -1.3572 -0.0993
15390SOL    HW248178   2.223   5.621   3.394 -0.8835 -0.7626 -1.2127
15391SOL     OW48179   2.762   4.339  10.759  0.0425 -0.3410 -0.2616
15391SOL    HW148180   2.746   4.358  10.851  0.8347 -0.2240 -0.1365
15391SOL    HW248181   2.793   4.248  10.759  1.0393 -0.0205 -0.2760
15392SOL     OW48182   6.600   9.453   0.671  0.0214  0.2498  0.5900
15392SOL    HW148183   6.564   9.497   0.748  0.9805  3.0211 -0.4244
15392SOL    HW248184   6.524   9.433   0.617 -0.4706  0.2727  1.2582
15393SOL     OW48185   2.818   0.743   7.185 -0.6603 -0.0074 -0.4549
15393SOL    HW148186   2.812   0.679   7.256  0.7616  1.1164  0.7235
15393SOL    HW248187   2.866   0.698   7.116 -1.3870 -0.8485 -0.4342
15394SOL     OW48188   7.929  10.198   0.346 -0.8277 -0.4926 -0.2769
15394SOL    HW148189   7.917  10.111   0.307 -0.9353  0.9038 -3.6427
15394SOL    HW248190   7.843  10.238   0.344 -0.7153 -0.1441  0.9601
15395SOL     OW48191   1.918   3.156   3.126  0.4369 -0.3960 -0.4339
15395SOL    HW148192   1.986   3.161   3.059 -0.4063  0.7851 -1.2574
15395SOL    HW248193   1.839   3.189   3.083  0.1452  1.6986  1.4774
15396SOL     OW48194   5.333   3.535   2.802  0.2214 -0.1267 -0.1014
15396SOL    HW148195   5.363   3.467   2.863  1.4643  1.5933  1.3168
15396SOL    HW248196   5.271   3.490   2.744 -0.8382 -1.9246  2.2509
15397SOL     OW48197  10.894   3.788   9.298  0.3243  0.0355 -0.0187
15397SOL    HW148198  10.814   3.744   9.269  1.5072 -0.9247 -2.0459
15397SOL    HW248199  10.877   3.810   9.390 -2.4497  0.3616 -0.5109
15398SOL     OW48200   8.794   9.943  10.289  0.0878  0.0424  0.7379
15398SOL    HW148201   8.769   9.881  10.359 -0.4032 -0.8493 -0.1871
15398SOL    HW248202   8.889   9.946  10.292  0.0605  0.3504  1.7139
15399SOL     OW48203   6.145   0.100  10.631 -0.2897  0.2136  0.2095
15399SOL    HW148204   6.162   0.146  10.549  0.8784  0.5542  0.6323
15399SOL    HW248205   6.112   0.014  10.604 -0.1514  0.4105 -0.6111
15400SOL     OW48206   3.807   0.800   4.401  0.5155  0.2635  0.0554
15400SOL    HW148207   3.831   0.790   4.493  1.6950  0.5971 -0.2072
15400SOL    HW248208   3.883   0.840   4.359  0.3346 -0.6582 -1.2438
15401SOL     OW48209   5.122   0.576   6.090  0.1743  0.3401 -0.1762
15401SOL    HW148210   5.112   0.483   6.111  0.4600  0.2152 -0.5580
15401SOL    HW248211   5.038   0.616   6.112  0.5237  0.2728  1.3779
15402SOL     OW48212  10.902   1.698   4.194 -0.1621 -0.5994  0.6032
15402SOL    HW148213  10.914   1.628   4.130  1.0335 -0.5292  0.7134
15402SOL    HW248214  10.979   1.754   4.182 -1.7041  1.4310 -0.3617
15403SOL     OW48215   8.874   5.877   7.328 -0.1911 -0.3052  0.3601
15403SOL    HW148216   8.877   5.802   7.387 -0.0892 -0.7819 -0.2321
15403SOL    HW248217   8.782   5.885   7.305 -0.3812  0.5082  1.3547
15404SOL     OW48218   9.853   1.305   0.287 -0.5337  0.4984  0.1274
15404SOL    HW148219   9.789   1.247   0.245  0.5378 -1.0354  0.5472
15404SOL    HW248220   9.837   1.295   0.380  1.4038 -1.2866  0.3418
15405SOL     OW48221   9.905   6.877   3.054  0.0558  0.5060 -0.0465
15405SOL    HW148222   9.893   6.956   3.108 -1.1497  0.0687  0.3722
15405SOL    HW248223   9.874   6.806   3.109  1.5975 -0.3533 -0.2387
15406SOL     OW48224   1.737   3.160  10.999 -0.1941  0.2894  0.0763
15406SOL    HW148225   1.752   3.149  11.093 -1.9233 -1.6185  0.2096
15406SOL    HW248226   1.789   3.091  10.958 -0.6638  0.1007 -0.2165
15407SOL     OW48227   9.493   1.901   2.062  0.1648 -0.0764  0.4913
15407SOL    HW148228   9.551   1.845   2.011 -0.5424 -1.5892  1.2955
15407SOL    HW248229   9.540   1.984   2.069  1.9242 -1.0303  0.5290
15408SOL     OW48230   8.772   7.548   1.904  0.9243 -0.2088  0.0346
15408SOL    HW148231   8.784   7.559   1.810  1.1144 -0.8931 -0.0256
15408SOL    HW248232   8.847   7.495   1.932  0.6835 -0.3025  0.5069
15409SOL     OW48233   4.631  10.695   1.573 -0.7551 -0.3111 -0.0692
15409SOL    HW148234   4.561  10.690   1.507 -0.4572 -3.0629 -0.2859
15409SOL    HW248235   4.705  10.734   1.526 -1.3391  0.2022 -0.5888
15410SOL     OW48236   3.331   8.949  10.807  0.0110 -0.3181  0.3765
15410SOL    HW148237   3.295   8.971  10.721 -1.1297  3.3351  1.5807
15410SOL    HW248238   3.254   8.928  10.860  0.6174 -1.6392  0.7535
15411SOL     OW48239   1.880   9.647   7.968  0.4389  0.3167  0.1438
15411SOL    HW148240   1.972   9.622   7.982  0.3272 -0.6988 -0.7853
15411SOL    HW248241   1.879   9.741   7.983  2.0033  0.6604 -1.5462
15412SOL     OW48242   9.527   1.154   9.293 -0.0781  0.7895  0.3979
15412SOL    HW148243   9.457   1.204   9.251 -0.0262  1.6830  1.3385
15412SOL    HW248244   9.495   1.137   9.382  0.1330 -0.3979  0.2644
15413SOL     OW48245   8.371   8.130   9.387  0.4365 -0.4835  0.0325
15413SOL    HW148246   8.335   8.121   9.475 -1.4788 -1.0891 -0.7654
15413SOL    HW248247   8.306   8.089   9.330  2.4176 -1.6651 -1.5264
15414SOL     OW48248   8.659  10.550   4.980  0.4575 -0.6411 -0.5471
15414SOL    HW148249   8.608  10.631   4.985 -2.7785 -2.5063 -0.1985
15414SOL    HW248250   8.666  10.520   5.071 -0.7496 -2.0167 -0.8689
15415SOL     OW48251   9.987   8.623   8.712  0.2524  0.5074  0.3666
15415SOL    HW148252  10.003   8.698   8.770 -0.8690 -0.8793  2.6308
15415SOL    HW248253   9.905   8.645   8.667  0.4256  1.0514  0.3123
15416SOL     OW48254   2.278   7.910   6.225 -0.2652 -0.7165 -0.3386
15416SOL    HW148255   2.282   7.975   6.155 -1.9276 -0.7650 -0.5180
15416SOL    HW248256   2.294   7.826   6.182  1.0566 -0.5409 -0.2410
15417SOL     OW48257   8.660   1.284   5.608  1.0230 -0.5204  0.5044
15417SOL    HW148258   8.686   1.375   5.623  0.0362 -0.4187  1.8642
15417SOL    HW248259   8.631   1.282   5.517  0.5241  0.6745  0.6201
15418SOL     OW48260   4.638   9.304   8.189  0.3611  0.7232 -0.1544
15418SOL    HW148261   4.710   9.339   8.137  2.4132 -1.2054  1.1991
15418SOL    HW248262   4.591   9.246   8.128  2.7549 -1.5439  0.0117
15419SOL     OW48263   5.848  10.617   3.913  0.1120 -1.1254 -0.8362
15419SOL    HW148264   5.797  10.536   3.921 -1.4382 -0.3774 -2.4636
15419SOL    HW248265   5.787  10.680   3.874  1.3742  0.7488  0.0669
15420SOL     OW48266   6.254   3.967  10.517  0.2592 -0.2115 -0.4849
15420SOL    HW148267   6.316   3.982  10.445  0.7720 -0.0221 -0.0093
15420SOL    HW248268   6.187   3.911  10.479  1.0522 -0.9485 -0.8376
15421SOL     OW48269   9.297   7.944  10.582  0.0354  0.2558 -0.0511
15421SOL    HW148270   9.336   7.867  10.623 -1.8907 -1.2474 -0.9402
15421SOL    HW248271   9.349   7.957  10.503  0.7511  0.2932  0.4050
15422SOL     OW48272   8.526   5.118   2.385  0.3271 -0.4348 -0.4323
15422SOL    HW148273   8.525   5.042   2.328  0.2681  0.5497 -1.8116
15422SOL    HW248274   8.529   5.193   2.325 -0.0611  0.6620  0.8542
15423SOL     OW48275   9.335   6.378   0.819  0.1751 -0.9197  0.3342
15423SOL    HW148276   9.329   6.473   0.810 -1.7839 -1.0023  0.3316
15423SOL    HW248277   9.428   6.360   0.818  0.5669  0.8192 -1.6043
15424SOL     OW48278  10.803   4.782   9.470  0.3350  0.2283  0.1094
15424SOL    HW148279  10.811   4.687   9.483 -3.1480 -0.0760  0.8375
15424SOL    HW248280  10.820   4.794   9.377 -0.0893 -1.2502 -0.1923
15425SOL     OW48281   5.368   2.843   2.241 -0.3872 -0.3877  0.1125
15425SOL    HW148282   5.281   2.823   2.207 -0.5769  0.4021  0.1047
15425SOL    HW248283   5.376   2.938   2.231 -0.9712  0.1557  3.4285
15426SOL     OW48284   4.865   8.389   2.075 -0.4390  0.4447 -0.0768
15426SOL    HW148285   4.915   8.325   2.025  0.6930  2.2875 -1.3993
15426SOL    HW248286   4.826   8.447   2.009 -1.4174  1.1512  1.0707
15427SOL     OW48287   6.912   3.817   8.791  0.7396  0.5351  0.5835
15427SOL    HW148288   6.945   3.731   8.816  1.1855  0.9108  1.3615
15427SOL    HW248289   6.817   3.811   8.800  0.7121 -0.0580 -0.0086
15428SOL     OW48290   5.039   9.404   1.170 -0.5127 -0.4581  0.3665
15428SOL    HW148291   5.024   9.331   1.110  1.5838  0.2756 -1.1945
15428SOL    HW248292   5.001   9.480   1.125 -0.4649 -0.1857  0.7803
15429SOL     OW48293   5.330   4.419  10.195 -0.2309  0.3092 -0.1445
15429SOL    HW148294   5.373   4.431  10.110 -0.6426  0.2979 -0.3602
15429SOL    HW248295   5.373   4.482  10.253 -0.7231  1.1484 -0.6617
15430SOL     OW48296   0.593   4.294   6.331  0.4995  0.3045  0.0882
15430SOL    HW148297   0.604   4.331   6.418 -0.8634 -1.2963  0.9840
15430SOL    HW248298   0.505   4.258   6.330  1.5032 -2.4289 -0.8648
15431SOL     OW48299   1.301   6.931   3.196  0.1122 -0.1609 -0.0982
15431SOL    HW148300   1.309   7.000   3.262 -2.2516 -0.3297  0.4535
15431SOL    HW248301   1.372   6.947   3.135 -1.6039  4.1893 -1.2854
15432SOL     OW48302   2.070   3.365   6.971 -0.0175 -0.1979 -0.2912
15432SOL    HW148303   2.021   3.315   7.036  0.3037 -1.1642 -0.7712
15432SOL    HW248304   2.002   3.406   6.916 -0.2918  0.7480  0.7065
15433SOL     OW48305   6.828   4.279   5.898 -0.2169 -0.5270 -0.6719
15433SOL    HW148306   6.739   4.298   5.928 -0.3108 -1.8263 -0.0451
15433SOL    HW248307   6.831   4.313   5.809 -1.1341  0.0799 -0.4883
15434SOL     OW48308   6.140   0.882   0.142 -0.2751  0.2972  0.3935
15434SOL    HW148309   6.130   0.793   0.178  0.1202  0.9826  2.3433
15434SOL    HW248310   6.063   0.894   0.086 -0.2293 -1.3363 -0.0744
15435SOL     OW48311   7.487   6.626   2.956  0.4268 -0.1206 -0.1183
15435SOL    HW148312   7.486   6.609   3.050 -0.0113 -1.3971 -0.3245
15435SOL    HW248313   7.447   6.712   2.946 -2.4201 -1.2514  0.6540
15436SOL     OW48314  10.574   7.902   1.719  0.3861  0.4633  0.6145
15436SOL    HW148315  10.490   7.932   1.683 -0.0018 -0.3429  0.8180
15436SOL    HW248316  10.550   7.830   1.776  1.1320  0.9068  1.4977
15437SOL     OW48317   8.279   5.084   8.531 -0.1062 -0.4722 -0.2787
15437SOL    HW148318   8.357   5.120   8.574 -1.0102  1.0971  0.1188
15437SOL    HW248319   8.314   5.036   8.456  1.1893  2.0320 -1.4063
15438SOL     OW48320   7.343   9.605  10.290 -0.6618 -0.2425  0.0226
15438SOL    HW148321   7.267   9.628  10.237 -0.1217  1.1399 -0.1679
15438SOL    HW248322   7.379   9.688  10.318  0.9709 -0.8713 -0.1382
15439SOL     OW48323   3.753  10.224  10.013 -0.1374 -0.4441  0.1002
15439SOL    HW148324   3.823  10.172  10.051 -0.9803 -0.4581  1.6981
15439SOL    HW248325   3.796  10.306   9.987  0.9221 -1.3618 -1.2158
15440SOL     OW48326   1.766   5.878   5.600  0.0881  0.2128  0.0119
15440SOL    HW148327   1.790   5.798   5.553 -0.1065 -0.1328  0.5004
15440SOL    HW248328   1.674   5.892   5.577  0.1468  0.3523 -0.1454
15441SOL     OW48329   4.747   4.245   6.103 -1.0912  0.3345 -0.5839
15441SOL    HW148330   4.680   4.176   6.103  1.2443 -2.2055 -2.8884
15441SOL    HW248331   4.826   4.201   6.133  0.0013  2.7512  0.3095
15442SOL     OW48332   2.848   3.738   9.948 -0.2635 -1.0036  0.4083
15442SOL    HW148333   2.853   3.827   9.914  0.5419 -0.8466  0.9010
15442SOL    HW248334   2.879   3.682   9.876  4.7546 -0.4334  1.7480
15443SOL     OW48335   0.176   8.982   0.736  1.4031  0.0632  0.8880
15443SOL    HW148336   0.240   8.999   0.667  0.2454 -1.3771 -0.6263
15443SOL    HW248337   0.107   9.046   0.720  2.5306  1.8940  2.7715
15444SOL     OW48338   6.285   9.618   0.266 -0.2200 -0.2186 -0.2656
15444SOL    HW148339   6.368   9.611   0.313 -0.1738  0.2724 -0.2613
15444SOL    HW248340   6.310   9.647   0.178 -0.3309 -0.8084 -0.4935
15445SOL     OW48341   6.128   2.149   0.867 -0.4345  0.0677  0.0297
15445SOL    HW148342   6.084   2.103   0.938 -0.8539  0.9159  0.3255
15445SOL    HW248343   6.070   2.137   0.791 -0.1727 -0.5212 -0.0764
15446SOL     OW48344   5.776   6.321   4.686 -0.3621 -0.2373 -0.0315
15446SOL    HW148345   5.781   6.411   4.718 -1.4704 -0.2136  0.1185
15446SOL    HW248346   5.734   6.329   4.600  0.9961 -0.4697 -0.7466
15447SOL     OW48347   3.119   5.931   0.969  0.3386 -0.1039 -0.1011
15447SOL    HW148348   3.191   5.944   1.030  0.9039 -1.1473 -0.5077
15447SOL    HW248349   3.113   6.013   0.920  3.5051 -1.0356 -2.3669
15448SOL     OW48350   1.438   5.233  10.226 -1.1145 -0.4839 -0.1730
15448SOL    HW148351   1.436   5.230  10.322 -1.1666 -1.4714 -0.1909
15448SOL    HW248352   1.352   5.266  10.201 -0.2648  2.1891  0.1556
15449SOL     OW48353   0.212   4.692   6.983  0.4322  0.1442 -0.0727
15449SOL    HW148354   0.162   4.702   7.064 -0.3765  1.1996 -0.6825
15449SOL    HW248355   0.204   4.599   6.962 -1.3931  0.2804 -0.1931
15450SOL     OW48356   8.404  10.012   0.527  0.1831 -0.8597  0.3659
15450SOL    HW148357   8.343   9.999   0.455 -0.7977 -0.2513  1.0618
15450SOL    HW248358   8.462  10.082   0.497  1.3554 -2.2475 -0.7806
15451SOL     OW48359   3.859   9.048   9.826 -0.4717 -0.1123 -0.0563
15451SOL    HW148360   3.899   8.964   9.805 -2.8313 -0.7261 -2.8308
15451SOL    HW248361   3.843   9.045   9.920  1.0949 -1.9730  0.2025
15452SOL     OW48362   0.265   7.093   6.703 -0.3259 -0.1334 -0.5604
15452SOL    HW148363   0.237   7.176   6.743 -0.6891 -0.1241 -0.8216
15452SOL    HW248364   0.183   7.049   6.683 -0.1884  0.3284 -2.2707
15453SOL     OW48365   7.429   7.972   0.510 -0.3091  0.8053 -0.2920
15453SOL    HW148366   7.481   7.944   0.585 -0.7867 -1.1857 -0.6643
15453SOL    HW248367   7.381   8.049   0.542 -0.5037 -0.0030  1.4453
15454SOL     OW48368   4.843   7.528   9.486  0.1709 -0.2297 -0.0247
15454SOL    HW148369   4.937   7.549   9.482  0.8549 -3.0663 -1.8587
15454SOL    HW248370   4.816   7.524   9.395 -1.2637 -1.2176  0.4119
15455SOL     OW48371   4.139   9.425   1.142 -0.8209  0.0068  0.3774
15455SOL    HW148372   4.206   9.424   1.210  0.1641  2.0254 -0.4789
15455SOL    HW248373   4.096   9.510   1.153 -1.8051 -0.3726 -0.4310
15456SOL     OW48374   5.850   4.151   8.439  0.3926 -0.2781 -0.7977
15456SOL    HW148375   5.865   4.196   8.355  0.2881 -1.1375 -1.2930
15456SOL    HW248376   5.810   4.217   8.495  2.0366  0.8237 -0.8604
15457SOL     OW48377   3.259   0.992   9.672 -0.6900  0.3016 -0.0003
15457SOL    HW148378   3.193   0.959   9.612 -0.1749  0.7316 -0.8269
15457SOL    HW248379   3.342   0.981   9.625 -0.4345  2.1775 -0.0760
15458SOL     OW48380   1.399   6.183   4.145 -0.3799  0.5826  0.8420
15458SOL    HW148381   1.394   6.104   4.199 -1.8173  0.5734  0.7285
15458SOL    HW248382   1.480   6.226   4.173  0.7564 -1.1907  0.5131
15459SOL     OW48383   4.043   4.652   0.027  0.1807  0.3378  0.2119
15459SOL    HW148384   4.138   4.640   0.034 -0.0236 -0.9602  0.9773
15459SOL    HW248385   4.021   4.709   0.100  0.2831  0.1474  0.3917
15460SOL     OW48386   3.537   4.393   1.274  0.0470  0.4493 -0.4021
15460SOL    HW148387   3.507   4.476   1.238 -0.1342  0.2014 -0.8298
15460SOL    HW248388   3.611   4.368   1.218  0.4332  0.5799  0.0476
15461SOL     OW48389   6.223   7.253   9.515  0.2448 -0.2388 -0.3432
15461SOL    HW148390   6.283   7.300   9.573  0.2090  0.4799 -0.8669
15461SOL    HW248391   6.233   7.297   9.430 -1.3416  0.1992 -0.3448
15462SOL     OW48392   9.288   1.901   3.876 -0.2856  0.0528  0.6566
15462SOL    HW148393   9.228   1.863   3.812 -0.3459  0.2238  0.6110
15462SOL    HW248394   9.361   1.934   3.823 -1.0424  1.5835  0.5007
15463SOL     OW48395   9.152   1.823  10.430 -0.3186 -0.1150  0.5928
15463SOL    HW148396   9.093   1.749  10.413 -0.3157  0.3294 -1.8367
15463SOL    HW248397   9.106   1.876  10.496 -0.7667 -1.7535  1.6462
15464SOL     OW48398   3.112   9.501   0.617 -0.5679  0.5129  0.1396
15464SOL    HW148399   3.025   9.463   0.602 -0.7355  0.3354  1.4325
15464SOL    HW248400   3.102   9.551   0.699  0.6807  0.0300  0.6126
15465SOL     OW48401   0.618   7.192   6.104 -0.2232  0.3947 -0.5156
15465SOL    HW148402   0.577   7.192   6.017  3.0801  2.1120 -2.2685
15465SOL    HW248403   0.668   7.110   6.107  1.5638  1.4016 -1.3366
15466SOL     OW48404   5.751   3.143   6.451  0.1446  0.0671  0.4262
15466SOL    HW148405   5.689   3.195   6.401 -0.1722 -1.2713 -0.6214
15466SOL    HW248406   5.837   3.166   6.415 -0.1843 -2.0969 -2.0081
15467SOL     OW48407   9.982   1.972   3.223  0.6689 -0.1078 -0.1217
15467SOL    HW148408  10.026   1.953   3.139  1.0713  1.7273 -0.3530
15467SOL    HW248409  10.052   1.999   3.281  0.1523  0.3774  0.2780
15468SOL     OW48410   4.596   2.009   0.425 -0.7135  0.0775  0.3785
15468SOL    HW148411   4.622   1.959   0.347 -1.5392 -1.0082  0.7784
15468SOL    HW248412   4.538   2.078   0.390 -1.5220 -0.7366  0.0727
15469SOL     OW48413   4.762  10.696   5.080 -0.2377  0.5162 -0.2624
15469SOL    HW148414   4.844  10.649   5.063 -0.3306  0.6333 -1.0792
15469SOL    HW248415   4.727  10.716   4.993 -0.8303  1.0002  0.0754
15470SOL     OW48416   4.717   6.641   4.215 -0.3997 -0.0020 -0.0371
15470SOL    HW148417   4.705   6.588   4.137  0.4029 -0.7270  0.3171
15470SOL    HW248418   4.785   6.704   4.191  1.8572 -1.9615  0.8726
15471SOL     OW48419   2.599   8.086   5.452  0.1920 -0.2576 -1.0895
15471SOL    HW148420   2.521   8.132   5.422  1.4054  0.7049 -2.9363
15471SOL    HW248421   2.669   8.150   5.443  0.9272 -0.2432  2.8630
15472SOL     OW48422   6.371   9.088  10.640 -0.5616 -0.4686  0.3636
15472SOL    HW148423   6.342   9.000  10.665 -1.4443  0.0399  1.1801
15472SOL    HW248424   6.466   9.080  10.632 -0.6638 -1.5750  0.0837
15473SOL     OW48425   5.953  10.694  10.308 -0.1717  0.5255 -1.1914
15473SOL    HW148426   5.919  10.773  10.351  1.7324  0.3176  0.8731
15473SOL    HW248427   5.973  10.722  10.218  0.6352  2.4958 -0.4564
15474SOL     OW48428   5.131   7.660   9.295 -0.8516  0.4168 -0.3770
15474SOL    HW148429   5.065   7.724   9.270 -2.0862 -0.0390  1.4875
15474SOL    HW248430   5.127   7.658   9.391  1.7972  0.2682 -0.1792
15475SOL     OW48431   5.137   8.038   9.893 -0.0139 -1.0084 -0.1252
15475SOL    HW148432   5.072   8.060   9.826  0.0614  0.4879  0.2622
15475SOL    HW248433   5.219   8.028   9.844 -0.0240 -0.2304 -0.3228
15476SOL     OW48434   5.449   6.492  10.673  0.2380 -0.0734  0.3870
15476SOL    HW148435   5.438   6.406  10.713 -0.6946 -1.5284 -2.6349
15476SOL    HW248436   5.361   6.529  10.670  0.0173 -0.6377 -1.4455
15477SOL     OW48437  10.413   1.239   1.039  0.6342  1.1926  0.2723
15477SOL    HW148438  10.322   1.211   1.035  0.5974  1.2995  0.3690
15477SOL    HW248439  10.429   1.256   1.132  1.4329 -1.1048  0.6459
15478SOL     OW48440   5.373   6.146   6.551 -0.1327  0.0421  0.4834
15478SOL    HW148441   5.362   6.237   6.523 -0.4511  0.7626  2.7397
15478SOL    HW248442   5.362   6.148   6.646  0.7138 -2.2379  0.7107
15479SOL     OW48443   1.172   5.279   5.636  0.2211  0.0588 -0.0512
15479SOL    HW148444   1.161   5.274   5.541  0.0975 -0.7994  0.0024
15479SOL    HW248445   1.200   5.369   5.652  1.5704 -0.1615 -1.0306
15480SOL     OW48446   1.460   6.407   3.390  1.0679  0.7886 -0.4124
15480SOL    HW148447   1.401   6.437   3.459  0.9431  1.1748 -0.6845
15480SOL    HW248448   1.487   6.319   3.418  0.8392  0.8506  0.0109
15481SOL     OW48449   3.829   5.515  10.985 -0.2419  0.8196  0.2391
15481SOL    HW148450   3.753   5.519  10.927 -1.4100 -0.6309  1.5700
15481SOL    HW248451   3.813   5.584  11.050  0.6295  1.8694 -0.6417
15482SOL     OW48452   1.137  10.663   4.181  0.0980  0.1415  0.1409
15482SOL    HW148453   1.125  10.603   4.255  0.6276  0.6879  0.6789
15482SOL    HW248454   1.147  10.605   4.105 -3.2312 -0.4367 -0.0108
15483SOL     OW48455   6.069   4.217   9.796 -0.3457 -0.3730  0.5481
15483SOL    HW148456   5.998   4.247   9.853 -0.2439 -2.7506  2.0899
15483SOL    HW248457   6.040   4.131   9.765 -0.1583  0.5933 -2.6991
15484SOL     OW48458   1.419   6.074   1.100  0.3870  0.1579 -0.0316
15484SOL    HW148459   1.344   6.128   1.074 -1.2633 -0.5583  2.7329
15484SOL    HW248460   1.491   6.136   1.109 -0.8629  1.5613  0.8549
15485SOL     OW48461   7.938   7.903   7.368  0.0823 -0.2515  0.1839
15485SOL    HW148462   7.903   7.936   7.451  1.4498  1.2900  0.1974
15485SOL    HW248463   8.032   7.920   7.374  0.4945 -1.9055 -0.9013
15486SOL     OW48464   4.668   8.238   9.157 -0.1878 -0.0621 -0.1884
15486SOL    HW148465   4.647   8.149   9.184  0.4875  0.0962  0.9266
15486SOL    HW248466   4.609   8.256   9.084 -1.1593 -0.9952  0.3454
15487SOL     OW48467   5.513   8.318   2.377 -0.1781 -0.1220  0.2951
15487SOL    HW148468   5.572   8.374   2.427  0.7509 -0.4454 -0.4172
15487SOL    HW248469   5.570   8.263   2.324 -1.0631 -1.6053  0.8071
15488SOL     OW48470   4.971   3.203   1.415  0.5500  0.1396  0.5405
15488SOL    HW148471   5.029   3.278   1.402  0.1866  0.1553 -1.1343
15488SOL    HW248472   4.894   3.222   1.363  0.8234 -1.7979 -0.6737
15489SOL     OW48473  10.449   8.672   6.691 -0.6808 -0.2169  0.0936
15489SOL    HW148474  10.518   8.718   6.642 -1.2348  0.5454  0.0225
15489SOL    HW248475  10.393   8.635   6.623 -1.2982  0.6129  0.1401
15490SOL     OW48476   1.613   8.305   1.770  0.0183 -0.1239 -0.7610
15490SOL    HW148477   1.652   8.392   1.757 -1.6969  0.5509 -1.8120
15490SOL    HW248478   1.566   8.313   1.853  1.5560 -0.7605  0.2192
15491SOL     OW48479   5.729   0.079  10.484  0.6021 -0.7812 -0.1647
15491SOL    HW148480   5.735   0.175  10.488  1.0694 -0.8459  1.3553
15491SOL    HW248481   5.712   0.060  10.392  0.9567  0.7422 -0.5784
15492SOL     OW48482   5.768   1.204   9.454  0.4083 -0.5576 -0.1207
15492SOL    HW148483   5.768   1.177   9.546  1.6318  0.1842  0.1224
15492SOL    HW248484   5.830   1.276   9.451 -0.1063 -0.1539 -1.4246
15493SOL     OW48485   8.780   9.184   6.729 -0.1604  0.2461 -0.3314
15493SOL    HW148486   8.833   9.211   6.655 -0.1112  0.4793 -0.2131
15493SOL    HW248487   8.842   9.169   6.800 -0.2604  0.6811 -0.1444
15494SOL     OW48488   4.918   0.673   8.422  0.2440  0.0134  0.2843
15494SOL    HW148489   5.010   0.647   8.418  0.2755 -0.0221  1.0647
15494SOL    HW248490   4.915   0.758   8.379  0.5010 -0.3325 -0.4391
15495SOL     OW48491   4.943  10.264   0.472  0.4155 -0.3059 -0.8484
15495SOL    HW148492   4.917  10.321   0.545 -0.5576  0.4021 -1.7219
15495SOL    HW248493   5.037  10.252   0.485  0.2140 -0.4825  0.7082
15496SOL     OW48494   5.609   4.008   1.408  0.4709 -0.6013 -0.7623
15496SOL    HW148495   5.581   4.056   1.330 -2.5331 -2.3210 -0.8796
15496SOL    HW248496   5.594   4.069   1.480 -0.3435 -0.3004 -1.1759
15497SOL     OW48497   2.127   6.382   5.338  0.3316  0.0315 -0.4750
15497SOL    HW148498   2.208   6.353   5.295 -0.3412 -0.0933 -1.7093
15497SOL    HW248499   2.118   6.324   5.413  1.7033  0.4458  0.0433
15498SOL     OW48500   8.334   1.711   8.399 -0.8930 -0.3015 -0.4834
15498SOL    HW148501   8.377   1.710   8.484  0.1725  0.8024 -0.9843
15498SOL    HW248502   8.243   1.688   8.418 -0.8384  0.6310  1.0383
15499SOL     OW48503   7.198  10.940   7.819  0.0858 -0.0578 -0.1403
15499SOL    HW148504   7.220  11.009   7.757  1.2549  0.8640  1.2336
15499SOL    HW248505   7.120  10.971   7.864 -1.3035 -1.1308 -1.6848
15500SOL     OW48506   7.717   0.760   3.246  0.0322 -0.7657  0.4867
15500SOL    HW148507   7.623   0.756   3.260 -0.0159  0.3986  0.6127
15500SOL    HW248508   7.739   0.677   3.203 -1.4051 -0.1708 -1.5544
15501SOL     OW48509   2.017   0.371   4.295  0.7279  0.2610 -0.6938
15501SOL    HW148510   2.107   0.403   4.286  0.6429  0.4056 -1.0803
15501SOL    HW248511   1.985   0.411   4.375  0.9424  0.3758 -0.6649
15502SOL     OW48512   9.787   7.948  10.562  0.1009  0.1868 -0.5299
15502SOL    HW148513   9.810   7.864  10.522  0.9608  0.1719 -0.0293
15502SOL    HW248514   9.721   7.926  10.628 -0.4337  0.0538 -1.0939
15503SOL     OW48515   5.523   5.088   2.610  0.6772 -0.2870  0.4311
15503SOL    HW148516   5.608   5.057   2.642  0.8855 -0.7906 -0.5537
15503SOL    HW248517   5.525   5.068   2.516 -1.2253 -1.9006  0.6904
15504SOL     OW48518   5.478  11.032   3.556  1.1085 -0.4222  0.1790
15504SOL    HW148519   5.467  10.955   3.612  2.3439 -1.0757 -0.4465
15504SOL    HW248520   5.567  11.062   3.574  1.4336 -0.4850 -1.2421
15505SOL     OW48521   9.764   4.700   6.557 -0.0620 -0.2845  0.3989
15505SOL    HW148522   9.762   4.708   6.652  1.5312  1.9041  0.3428
15505SOL    HW248523   9.857   4.707   6.534 -0.4476 -0.2740 -1.3368
15506SOL     OW48524   2.929   4.232   4.314  0.3557  0.1995 -0.8653
15506SOL    HW148525   2.996   4.272   4.258  1.3768 -0.6144 -0.2717
15506SOL    HW248526   2.931   4.284   4.394  1.0881 -0.4888 -0.4192
15507SOL     OW48527   3.196   2.306   7.634 -0.0612  0.2365 -0.6277
15507SOL    HW148528   3.262   2.238   7.644 -0.9720 -0.6111 -0.2704
15507SOL    HW248529   3.227   2.358   7.559  2.5561  1.6867  1.2703
15508SOL     OW48530   5.989   8.511   3.961  0.8248 -0.5984 -0.2966
15508SOL    HW148531   6.008   8.573   4.031  0.3821  0.5938 -1.1953
15508SOL    HW248532   6.008   8.426   3.999  3.1268  0.1714  0.4326
15509SOL     OW48533   6.911   5.986   5.871  0.4147  0.3558 -0.0050
15509SOL    HW148534   6.850   6.041   5.921 -0.3660 -0.7083  0.2370
15509SOL    HW248535   6.921   5.907   5.924  2.5714  0.7760  0.3090
15510SOL     OW48536   5.426   3.896   2.158  0.1194 -0.6236  0.2299
15510SOL    HW148537   5.418   3.989   2.174  1.2850 -0.2807 -0.9600
15510SOL    HW248538   5.348   3.857   2.197 -0.0172  0.7515  1.3824
15511SOL     OW48539   2.766   6.967   4.418  0.3394  0.8911  0.0021
15511SOL    HW148540   2.802   6.921   4.342  1.7093  0.6990  0.7401
15511SOL    HW248541   2.681   6.925   4.432  0.7620 -0.1694 -0.4681
15512SOL     OW48542   1.281   1.365  10.688 -0.0704  0.8252  0.0642
15512SOL    HW148543   1.215   1.390  10.623 -0.4919  0.9992  0.5530
15512SOL    HW248544   1.364   1.367  10.640 -0.6526 -1.7496 -1.2119
15513SOL     OW48545   9.419   8.589   2.057 -0.0244 -0.2751  0.6815
15513SOL    HW148546   9.480   8.580   2.131 -1.3148  1.3318  2.0179
15513SOL    HW248547   9.461   8.540   1.986  2.2953 -0.1236  1.8351
15514SOL     OW48548   1.047   8.406   7.704  0.1050  0.2339 -0.1004
15514SOL    HW148549   0.964   8.361   7.715  1.3364 -2.0442  0.4661
15514SOL    HW248550   1.063   8.447   7.789 -1.7413  3.2464 -1.0546
15515SOL     OW48551   6.914   4.947   7.962 -0.0232 -0.0209 -0.1689
15515SOL    HW148552   6.977   4.947   8.034 -0.0980 -0.6894 -0.0985
15515SOL    HW248553   6.831   4.920   8.002 -0.4506  1.1680 -0.1943
15516SOL     OW48554   4.985  10.130   0.041 -0.4264  0.1380  0.4951
15516SOL    HW148555   5.028  10.204  -0.002 -0.6561  0.4008  0.7128
15516SOL    HW248556   4.926  10.170   0.105  1.1455 -0.2512  2.2593
15517SOL     OW48557   6.234   9.017   6.373 -0.1276 -0.2197  0.3514
15517SOL    HW148558   6.180   9.079   6.422  2.5059  1.8022  0.8899
15517SOL    HW248559   6.223   8.934   6.419 -2.0603  0.2923  0.9194
15518SOL     OW48560   6.096   1.479   2.368 -0.3040  1.1649  0.1358
15518SOL    HW148561   6.163   1.473   2.437  0.5176 -0.8276 -0.7376
15518SOL    HW248562   6.146   1.496   2.288 -0.2998 -3.0379 -1.0230
15519SOL     OW48563   2.281   3.321   7.590  0.8906  0.4237  0.2645
15519SOL    HW148564   2.197   3.298   7.550  0.8541 -1.5161  1.3166
15519SOL    HW248565   2.330   3.364   7.520 -0.8423  1.3558 -0.4555
15520SOL     OW48566   1.243  10.870  11.042  0.0002  0.3895 -0.8651
15520SOL    HW148567   1.335  10.877  11.064 -0.6778  0.4494  2.6180
15520SOL    HW248568   1.202  10.944  11.086 -1.9073 -0.6622 -0.7355
15521SOL     OW48569   8.208   8.280   9.220  0.3134 -0.0846  0.2448
15521SOL    HW148570   8.293   8.301   9.259  1.5831 -1.8892 -1.3541
15521SOL    HW248571   8.216   8.309   9.129 -1.1402  0.5438  0.3046
15522SOL     OW48572   4.914   2.752   9.839  0.0122 -0.7418 -0.3712
15522SOL    HW148573   4.862   2.813   9.787 -0.9655 -1.0082  0.2713
15522SOL    HW248574   5.002   2.790   9.841 -0.4825  0.4231 -0.3253
15523SOL     OW48575   0.175   5.148   5.817  0.1182 -0.1275 -0.0569
15523SOL    HW148576   0.100   5.190   5.858 -0.8396 -0.7734 -1.0960
15523SOL    HW248577   0.251   5.189   5.858 -0.7709 -0.3565  1.9498
15524SOL     OW48578   8.000   5.197   7.355 -0.6604  0.0411 -0.1156
15524SOL    HW148579   8.091   5.173   7.373  0.4272  2.1335 -2.2013
15524SOL    HW248580   7.975   5.255   7.427 -1.8145 -3.4428  2.5686
15525SOL     OW48581   1.210   3.536   3.740  0.4320  0.6750  0.1076
15525SOL    HW148582   1.303   3.558   3.748  0.5066  0.5739 -0.4576
15525SOL    HW248583   1.181   3.524   3.830  1.4185 -1.1265  0.2283
15526SOL     OW48584   3.000   7.254   4.609 -0.5587 -0.2241  0.2544
15526SOL    HW148585   3.019   7.311   4.683 -0.1769 -0.6951  0.5264
15526SOL    HW248586   2.906   7.238   4.613 -0.9325  1.5351 -0.6648
15527SOL     OW48587   4.743  10.436   9.248 -0.0757  0.2316  0.3159
15527SOL    HW148588   4.706  10.375   9.184 -1.0167  0.5675  0.5339
15527SOL    HW248589   4.822  10.470   9.205 -0.2796 -0.1163 -0.3505
15528SOL     OW48590   8.619   4.175   4.353  0.5941 -0.0776  1.2439
15528SOL    HW148591   8.543   4.200   4.299 -2.4714 -0.3920  4.9705
15528SOL    HW248592   8.692   4.174   4.292 -2.0949  1.6632 -2.4083
15529SOL     OW48593   4.262   3.151   8.873 -0.0850 -0.6323  0.0056
15529SOL    HW148594   4.243   3.186   8.960  2.4506 -1.2933  0.9306
15529SOL    HW248595   4.249   3.056   8.882  0.7758 -0.7743 -0.1270
15530SOL     OW48596   2.222   8.193   8.553  0.7688  0.3676  0.7351
15530SOL    HW148597   2.269   8.110   8.544  0.4616  0.3472 -1.1959
15530SOL    HW248598   2.285   8.253   8.591  1.2400 -0.5315  1.4282
15531SOL     OW48599   5.539   9.359   2.613 -0.2822 -0.3252 -0.2230
15531SOL    HW148600   5.533   9.368   2.518  0.2605 -3.3763 -0.6533
15531SOL    HW248601   5.451   9.333   2.641  0.1212 -1.8571 -0.2922
15532SOL     OW48602   2.014   8.903   5.923 -0.3026 -0.2097  0.4212
15532SOL    HW148603   2.058   8.975   5.968 -0.0882  0.4116 -0.7481
15532SOL    HW248604   1.921   8.920   5.936 -0.2439  0.0639  0.4888
15533SOL     OW48605   7.013   9.141   1.895  0.1842  0.1180  0.4844
15533SOL    HW148606   6.987   9.199   1.967  0.4594 -0.2543  0.8875
15533SOL    HW248607   7.109   9.141   1.898  0.2136  0.5462 -0.2433
15534SOL     OW48608   1.852   8.384   6.237 -0.2405  0.3568  0.5018
15534SOL    HW148609   1.825   8.353   6.151 -0.0582 -1.0981  0.9362
15534SOL    HW248610   1.919   8.450   6.219  0.4343 -0.5677 -0.4681
15535SOL     OW48611   3.625   0.478   9.301 -0.0611  0.3987  0.5846
15535SOL    HW148612   3.654   0.557   9.347  1.7035  0.8207 -1.1220
15535SOL    HW248613   3.697   0.416   9.313  1.1582  1.0239 -2.6919
15536SOL     OW48614   6.305   0.576   7.294 -0.1523 -0.1862 -0.1642
15536SOL    HW148615   6.349   0.524   7.361 -2.3276 -1.0633  0.6509
15536SOL    HW248616   6.217   0.540   7.288 -0.7782  1.4196 -1.8120
15537SOL     OW48617   9.725   9.007   5.922 -0.3057  0.1764  0.6254
15537SOL    HW148618   9.680   9.089   5.942  0.4966  0.3425  1.8626
15537SOL    HW248619   9.736   8.964   6.007 -0.9025 -1.3264 -0.0249
15538SOL     OW48620  10.882   8.906   9.589 -0.3957  0.1450  0.3457
15538SOL    HW148621  10.913   8.996   9.597 -1.5138  0.5879 -0.0676
15538SOL    HW248622  10.952   8.861   9.541 -0.0534  0.9164  0.0947
15539SOL     OW48623   6.441   6.762   1.563 -0.2248  0.1003  0.1738
15539SOL    HW148624   6.433   6.855   1.587  0.2714  0.2585 -0.2569
15539SOL    HW248625   6.515   6.730   1.614  1.2703  0.6049 -1.5603
15540SOL     OW48626   5.428   3.401   7.463  0.0193 -0.5074  0.1863
15540SOL    HW148627   5.494   3.349   7.509  1.4034  0.2472 -0.8742
15540SOL    HW248628   5.380   3.446   7.533 -1.1325 -3.0451  1.1162
15541SOL     OW48629   7.710   1.538   6.803 -1.0259  0.5447 -0.5446
15541SOL    HW148630   7.615   1.550   6.799 -0.9711  0.5684 -2.2014
15541SOL    HW248631   7.745   1.603   6.743 -0.2459 -2.2407 -3.3684
15542SOL     OW48632   0.110   4.017   2.358  0.7889  0.1068 -0.0669
15542SOL    HW148633   0.177   4.080   2.384 -1.3147  2.1716  0.6621
15542SOL    HW248634   0.063   3.997   2.440 -0.5268  0.0156 -0.8203
15543SOL     OW48635   9.467  10.873   0.101  0.2400  0.4863  0.4155
15543SOL    HW148636   9.552  10.900   0.134  0.0387  1.7854 -0.0825
15543SOL    HW248637   9.469  10.894   0.008 -1.3248  2.4985  0.7576
15544SOL     OW48638   2.996   9.846   9.286 -0.4320  0.4637 -0.0738
15544SOL    HW148639   2.992   9.940   9.270 -0.3233  0.2037 -1.7873
15544SOL    HW248640   3.043   9.838   9.369 -0.8448  1.9212  0.3368
15545SOL     OW48641   6.791   7.090   3.465 -0.1377  0.1773  0.4183
15545SOL    HW148642   6.829   7.025   3.523  0.8245  1.4016  1.2172
15545SOL    HW248643   6.864   7.148   3.444 -0.3014 -0.5396 -2.5182
15546SOL     OW48644   1.218   8.758  10.955  0.1152 -0.4024 -0.3946
15546SOL    HW148645   1.175   8.812  11.022 -0.3038 -0.4842 -0.5910
15546SOL    HW248646   1.146   8.708  10.916  0.3907 -0.5250 -0.7462
15547SOL     OW48647   8.041   7.957   9.909  0.1437 -0.1009  0.2280
15547SOL    HW148648   8.103   7.907   9.856  0.9678  0.4738  0.6244
15547SOL    HW248649   8.075   7.952   9.998 -0.2219  0.4500  0.4070
15548SOL     OW48650   2.610   3.481   7.380 -0.0559 -0.2426  0.0084
15548SOL    HW148651   2.551   3.417   7.341  0.1160 -1.3337  1.4398
15548SOL    HW248652   2.697   3.451   7.354 -0.0600  0.8169 -1.3084
15549SOL     OW48653   5.244   3.434   0.422  0.6029  0.2681  0.4611
15549SOL    HW148654   5.166   3.483   0.448 -0.9250 -1.5709 -0.3996
15549SOL    HW248655   5.226   3.406   0.333  3.5626  2.1994 -0.9094
15550SOL     OW48656   5.915   9.403   0.883 -0.5409  0.3744 -0.4167
15550SOL    HW148657   5.978   9.466   0.847 -0.8856  1.1359  0.2632
15550SOL    HW248658   5.942   9.392   0.974 -0.6037 -0.3135 -0.4801
15551SOL     OW48659   8.633   6.755   8.248  0.3801 -0.4785  0.2668
15551SOL    HW148660   8.574   6.816   8.204  1.4825  0.2789 -0.2197
15551SOL    HW248661   8.604   6.668   8.220  0.2386 -0.0620 -0.9362
15552SOL     OW48662   4.227   2.388   9.233  0.0491  0.1641  0.0280
15552SOL    HW148663   4.214   2.380   9.328  1.2773  3.4905  0.6081
15552SOL    HW248664   4.158   2.447   9.204  0.6165  0.3876 -0.8920
15553SOL     OW48665   6.139   5.490   9.623  0.2036 -0.3077 -0.0047
15553SOL    HW148666   6.111   5.566   9.571  1.4357 -0.0309 -0.2967
15553SOL    HW248667   6.127   5.415   9.565  4.0198  0.2536 -1.7911
15554SOL     OW48668   2.254   1.250   7.845 -0.3326 -0.0290  0.0109
15554SOL    HW148669   2.271   1.322   7.785  2.2626  0.1512  0.8055
15554SOL    HW248670   2.160   1.252   7.860 -0.7022  1.4882 -2.0509
15555SOL     OW48671   2.695   4.870   5.823 -0.1604 -0.0521  0.2017
15555SOL    HW148672   2.606   4.900   5.806 -0.2107  0.2197  0.9157
15555SOL    HW248673   2.697   4.780   5.789 -0.5413  0.1339 -0.3118
15556SOL     OW48674   6.762   4.187   2.557 -0.3835  0.0290 -0.4324
15556SOL    HW148675   6.794   4.277   2.556  0.0638  0.0187  2.5350
15556SOL    HW248676   6.670   4.195   2.580 -0.4367 -0.2598 -0.5449
15557SOL     OW48677   2.513  10.934   1.938 -0.4765 -0.0965 -0.6521
15557SOL    HW148678   2.537  10.865   2.001 -0.4012 -0.3107 -0.9166
15557SOL    HW248679   2.491  11.009   1.993 -0.0317 -0.1647 -0.3791
15558SOL     OW48680   4.856   3.076   0.419  0.1382 -0.7277  0.2791
15558SOL    HW148681   4.839   3.003   0.479  1.9941 -1.6822 -0.2680
15558SOL    HW248682   4.894   3.144   0.475 -1.0522 -0.3873  0.6921
15559SOL     OW48683   2.048   1.225   4.821  0.3808 -0.5384 -0.2735
15559SOL    HW148684   2.124   1.270   4.857  0.8768  0.3066 -2.2337
15559SOL    HW248685   1.989   1.295   4.792  0.0643 -1.1398 -1.1457
15560SOL     OW48686   1.305   9.394   6.669 -0.0599  0.5904  0.0308
15560SOL    HW148687   1.284   9.352   6.586  0.0877  0.2379  0.1672
15560SOL    HW248688   1.318   9.321   6.730 -0.6841  0.8531  0.4910
15561SOL     OW48689   8.963   9.095   7.256 -0.0929 -0.3110  0.8026
15561SOL    HW148690   8.875   9.060   7.253 -0.6688  1.1598 -0.8264
15561SOL    HW248691   9.016   9.024   7.293 -1.6446 -1.8330  0.2062
15562SOL     OW48692   4.787   0.031   0.176  0.3867 -0.0763  0.2136
15562SOL    HW148693   4.813   0.040   0.268 -0.2517  0.6100  0.3296
15562SOL    HW248694   4.798   0.118   0.138 -0.9813  0.0567  0.0747
15563SOL     OW48695  10.600   1.067   8.234 -0.0541  0.0010 -0.2421
15563SOL    HW148696  10.622   1.067   8.327 -2.4611  0.4300  0.3746
15563SOL    HW248697  10.565   0.979   8.218 -1.7682  0.6410 -0.1619
15564SOL     OW48698   7.194   9.350   4.556 -0.0809  0.0212  0.4193
15564SOL    HW148699   7.201   9.444   4.540  1.8342 -0.1518  0.0766
15564SOL    HW248700   7.099   9.333   4.556 -0.4201  1.6549 -1.1666
15565SOL     OW48701   1.572   8.239   6.034 -0.2606  0.1682  0.2820
15565SOL    HW148702   1.570   8.333   6.051  1.7786  0.1229  1.0753
15565SOL    HW248703   1.586   8.232   5.940 -2.0365  0.6082 -0.0368
15566SOL     OW48704   8.349   0.216   1.451  0.5378 -0.0048  0.0176
15566SOL    HW148705   8.323   0.189   1.539  1.1795  0.1842  0.2733
15566SOL    HW248706   8.276   0.270   1.420 -0.9651 -2.2863 -0.6628
15567SOL     OW48707   4.403   7.854   1.750 -0.0272 -0.5639  0.1230
15567SOL    HW148708   4.404   7.883   1.658 -3.1845 -2.0434 -0.5199
15567SOL    HW248709   4.474   7.790   1.755 -0.9022 -1.8271 -1.8963
15568SOL     OW48710   6.487   3.884   2.888 -0.1026  0.0747  0.7000
15568SOL    HW148711   6.396   3.876   2.916  0.3366 -2.8085  1.5996
15568SOL    HW248712   6.523   3.953   2.944 -1.9707  2.2768 -0.6167
15569SOL     OW48713   6.533   8.939   5.629  0.6296  0.8448 -0.3501
15569SOL    HW148714   6.489   8.872   5.681 -1.8549  2.6226 -0.0009
15569SOL    HW248715   6.509   8.919   5.539  0.5530  0.8305 -0.3260
15570SOL     OW48716   3.796   3.488   8.792 -0.0148 -0.6827  0.1286
15570SOL    HW148717   3.853   3.436   8.735 -0.3501 -0.1330 -0.7320
15570SOL    HW248718   3.804   3.577   8.758  0.7307 -0.1145  1.7202
15571SOL     OW48719   5.775   8.050   8.740 -0.3050 -0.0003  0.0495
15571SOL    HW148720   5.849   8.046   8.801 -2.5225 -0.9298  2.8464
15571SOL    HW248721   5.750   7.959   8.726  0.2747  0.1434 -2.6095
15572SOL     OW48722   4.326   2.128   7.119 -0.3880 -0.2578  0.8736
15572SOL    HW148723   4.389   2.077   7.169  0.9164  0.0535 -0.3750
15572SOL    HW248724   4.378   2.167   7.048 -1.7666  0.9813  0.5012
15573SOL     OW48725   0.383   1.731   4.829 -0.3680  0.2979 -0.0358
15573SOL    HW148726   0.477   1.719   4.814 -0.7918 -2.1456 -1.4422
15573SOL    HW248727   0.372   1.825   4.839  2.6686  0.5013  3.8634
15574SOL     OW48728   7.223   3.305   2.723  0.2026  0.3070 -0.0545
15574SOL    HW148729   7.295   3.340   2.777  0.0495  0.8176 -0.1761
15574SOL    HW248730   7.169   3.382   2.703 -0.8713 -0.1987  0.7707
15575SOL     OW48731   8.276   0.361   3.257 -0.2164 -0.2105  0.3921
15575SOL    HW148732   8.307   0.444   3.292 -0.3693  0.6917 -1.5181
15575SOL    HW248733   8.240   0.382   3.172 -1.9234 -1.9784  0.6100
15576SOL     OW48734   2.077  10.787   6.574 -0.3306 -0.2033  0.4836
15576SOL    HW148735   2.124  10.851   6.628  1.4942 -0.8582 -0.2402
15576SOL    HW248736   2.009  10.752   6.632  0.0071  0.8459  1.5597
15577SOL     OW48737   1.783   0.020   5.623 -0.3238  0.2766 -0.0299
15577SOL    HW148738   1.760   0.111   5.640 -0.7445  0.6834 -2.3766
15577SOL    HW248739   1.871   0.024   5.586 -1.7265  0.3247 -3.8820
15578SOL     OW48740  10.161   5.301   6.027 -0.0493 -0.6553  0.3323
15578SOL    HW148741  10.088   5.244   6.004 -1.8170  1.2488  0.8965
15578SOL    HW248742  10.151   5.378   5.971  0.5375  0.3601  1.5418
15579SOL     OW48743   7.763   9.557   6.001  0.0565 -0.2665 -0.1269
15579SOL    HW148744   7.838   9.568   6.059 -0.8994  0.5303  1.0142
15579SOL    HW248745   7.733   9.468   6.017  0.9337 -0.6956 -0.8233
15580SOL     OW48746   1.490   0.228   0.649  0.0098 -0.4368 -0.2364
15580SOL    HW148747   1.513   0.140   0.680  2.6885  0.3604  0.3073
15580SOL    HW248748   1.418   0.255   0.705  1.2355 -1.1053  1.7777
15581SOL     OW48749   6.334  10.372   9.641  0.0457  0.5093  1.0098
15581SOL    HW148750   6.243  10.350   9.662 -0.1558  1.8296  1.5953
15581SOL    HW248751   6.383  10.292   9.661 -1.1281 -0.6759 -0.5528
15582SOL     OW48752   6.249   3.452   6.476 -0.6963  0.2999  0.4805
15582SOL    HW148753   6.304   3.427   6.550 -0.0211  1.1822  0.2952
15582SOL    HW248754   6.244   3.548   6.481  1.4698  0.6623 -2.0518
15583SOL     OW48755   4.579   1.612   7.449  0.5486 -0.0091  0.2427
15583SOL    HW148756   4.670   1.582   7.445  0.1930 -1.4634  1.8152
15583SOL    HW248757   4.571   1.656   7.534 -0.5263 -1.1133  0.7474
15584SOL     OW48758   7.055   8.126   6.568 -0.6618  0.5010 -0.0113
15584SOL    HW148759   6.971   8.131   6.613 -1.0508  0.4841 -0.7114
15584SOL    HW248760   7.072   8.032   6.560  0.2812  0.4950  1.6477
15585SOL     OW48761   3.770   6.061   7.044  0.8550 -0.3711 -0.6952
15585SOL    HW148762   3.842   6.037   7.102  3.0013  2.0686 -2.1512
15585SOL    HW248763   3.748   6.151   7.067 -0.0622 -0.2441 -1.9073
15586SOL     OW48764   3.685   0.315   6.721  0.3986 -0.4344  0.0271
15586SOL    HW148765   3.730   0.331   6.804  0.3091 -0.4444  0.0789
15586SOL    HW248766   3.713   0.227   6.695  1.4820  0.0965 -0.6456
15587SOL     OW48767   4.960   6.425   2.907  0.2106 -0.2045  0.3175
15587SOL    HW148768   4.967   6.349   2.965  1.3197 -0.7258 -0.4768
15587SOL    HW248769   4.889   6.402   2.846  1.6930 -1.4108 -1.0370
15588SOL     OW48770   9.669   4.420   4.891 -0.5905  0.0547  0.1816
15588SOL    HW148771   9.623   4.336   4.888 -1.1819  0.3919 -0.5006
15588SOL    HW248772   9.599   4.485   4.899 -0.2972  0.6107 -1.4883
15589SOL     OW48773  10.436   7.865   0.180  0.1701 -0.3154  0.0735
15589SOL    HW148774  10.410   7.794   0.122  0.7058 -0.0301 -0.5256
15589SOL    HW248775  10.436   7.825   0.267  2.2133 -1.5885 -0.4198
15590SOL     OW48776   0.957   9.225   3.744 -0.1067 -0.3567  0.1037
15590SOL    HW148777   1.050   9.200   3.739  0.3198  0.8851  1.4514
15590SOL    HW248778   0.945   9.257   3.833 -1.3686  1.3028 -0.6096
15591SOL     OW48779   7.676  10.308   0.232  0.0373  0.1399 -0.2635
15591SOL    HW148780   7.742  10.267   0.176  0.4112 -1.0808  1.0105
15591SOL    HW248781   7.646  10.384   0.183  0.6897 -0.6223 -1.8966
15592SOL     OW48782   7.728   4.138  10.048 -0.1298  0.1985 -0.5878
15592SOL    HW148783   7.766   4.060  10.006 -0.5805 -0.0661 -0.5064
15592SOL    HW248784   7.636   4.116  10.062  0.0173  0.2796  0.5592
15593SOL     OW48785   1.350   4.893   6.430 -0.4017  0.3308 -0.5147
15593SOL    HW148786   1.397   4.973   6.407 -1.4061  0.4553 -2.3569
15593SOL    HW248787   1.277   4.922   6.483  0.4908  0.3511  0.7388
15594SOL     OW48788   9.719   2.244   8.305 -0.2744  0.3760  0.3462
15594SOL    HW148789   9.721   2.256   8.400 -1.6295  0.3710  0.3866
15594SOL    HW248790   9.638   2.196   8.288 -0.6486  1.3958 -0.9104
15595SOL     OW48791   5.113   2.130   0.792  0.0942 -0.4564  0.3288
15595SOL    HW148792   5.188   2.137   0.733  0.1253  0.7610  0.4805
15595SOL    HW248793   5.040   2.105   0.737  0.8625 -3.1108  0.3908
15596SOL     OW48794   9.384   3.453   0.302  0.3249  0.2813  0.3065
15596SOL    HW148795   9.447   3.474   0.371  3.1012  1.0910 -2.2736
15596SOL    HW248796   9.409   3.366   0.272  0.2634  0.6293 -0.7817
15597SOL     OW48797   0.244   3.954   7.309  0.0050  0.4305 -0.1796
15597SOL    HW148798   0.197   3.967   7.227 -0.4784  0.1292  0.0490
15597SOL    HW248799   0.264   4.043   7.339 -0.2539  0.5534 -0.3680
15598SOL     OW48800   6.591   1.397   8.244  0.9568 -0.3557  0.2297
15598SOL    HW148801   6.540   1.388   8.164  2.1131 -2.9871 -0.2970
15598SOL    HW248802   6.548   1.468   8.292 -0.6638  0.2733 -2.0127
15599SOL     OW48803   1.435   5.503   3.986 -0.0159 -0.4235  0.2306
15599SOL    HW148804   1.346   5.534   3.973  0.0566  0.6653  2.1066
15599SOL    HW248805   1.489   5.560   3.931 -0.5188 -1.9231 -1.9679
15600SOL     OW48806   1.747   2.674   4.238 -0.4399  0.4892  0.7796
15600SOL    HW148807   1.791   2.753   4.205  0.2302 -0.6723 -1.2313
15600SOL    HW248808   1.800   2.647   4.313 -0.4046  1.6563  1.2052
15601SOL     OW48809   3.031  10.848   7.527 -0.0038 -0.6062  0.0345
15601SOL    HW148810   2.955  10.832   7.582  0.3234 -0.6542  0.4780
15601SOL    HW248811   3.013  10.932   7.484  0.0055 -0.2783  0.6693
15602SOL     OW48812   4.765   5.137   1.210 -0.0067 -0.3771  0.0016
15602SOL    HW148813   4.687   5.183   1.241  0.7485  1.4459 -0.6680
15602SOL    HW248814   4.830   5.150   1.280  0.6864  0.9529 -0.8529
15603SOL     OW48815   3.049   7.281   6.399  0.1003  0.6872 -0.3519
15603SOL    HW148816   3.117   7.324   6.451 -1.7090  1.8889  1.1234
15603SOL    HW248817   3.073   7.189   6.400  1.7478  1.0817  0.0154
15604SOL     OW48818   4.207   2.194   2.733  0.2646 -0.5032 -0.3894
15604SOL    HW148819   4.245   2.272   2.772  0.4139 -1.0272  0.5489
15604SOL    HW248820   4.200   2.214   2.640  0.3387  0.6042 -0.1648
15605SOL     OW48821   1.262   9.272   6.424 -0.7773 -0.3971  0.4130
15605SOL    HW148822   1.230   9.279   6.334  1.1407 -0.9919 -0.3526
15605SOL    HW248823   1.341   9.220   6.418 -1.3646 -1.6910  2.6622
15606SOL     OW48824   1.506   1.133  10.037 -0.2201  0.2639  0.2374
15606SOL    HW148825   1.551   1.111   9.956  2.0145  2.8010  0.6651
15606SOL    HW248826   1.505   1.050  10.086  0.2521 -0.8273 -1.5022
15607SOL     OW48827   5.341   4.061   8.659  0.0693  0.0491 -0.3093
15607SOL    HW148828   5.271   3.997   8.673  0.6274 -0.2499  1.3611
15607SOL    HW248829   5.422   4.011   8.669  0.5850  0.3313 -2.5046
15608SOL     OW48830   6.962  10.027   9.689 -0.3897  0.5474 -0.6441
15608SOL    HW148831   7.027   9.998   9.625  1.5122  1.0666  0.9251
15608SOL    HW248832   6.920   9.947   9.720 -0.0989  0.1404 -1.2921
15609SOL     OW48833   9.996   6.818   7.003 -1.0548  0.3198  0.2509
15609SOL    HW148834   9.980   6.859   6.918 -0.9134 -0.4484 -0.1581
15609SOL    HW248835   9.918   6.764   7.018 -0.3134 -0.9439 -0.2465
15610SOL     OW48836   1.802   7.329   6.902 -0.1851  0.5972 -0.6934
15610SOL    HW148837   1.836   7.240   6.889  0.5221  0.5719  1.0828
15610SOL    HW248838   1.739   7.341   6.831 -0.3759 -1.3632 -0.9155
15611SOL     OW48839   5.547   8.985   3.872  0.0435  0.0272 -0.0393
15611SOL    HW148840   5.589   9.032   3.944  0.3670  1.4047 -1.0801
15611SOL    HW248841   5.497   8.915   3.914  1.4517 -0.1630  1.4015
15612SOL     OW48842   3.061   1.959   3.520 -0.0407  0.2932 -0.3198
15612SOL    HW148843   2.976   1.923   3.491  0.0107  1.4033 -1.9543
15612SOL    HW248844   3.126   1.909   3.471  0.1648  0.5997 -0.3614
15613SOL     OW48845   7.530   7.067   8.567  0.4461 -0.2336  0.1764
15613SOL    HW148846   7.495   7.156   8.557  3.7481  1.1220 -0.8051
15613SOL    HW248847   7.550   7.060   8.661 -1.6887 -0.8160  0.6441
15614SOL     OW48848   3.375   9.794   3.870 -0.2279 -0.0440 -0.3389
15614SOL    HW148849   3.435   9.746   3.927 -0.8754  0.9243  1.1990
15614SOL    HW248850   3.420   9.798   3.786  0.6985 -1.6131  0.0449
15615SOL     OW48851   4.737   5.884  10.437 -0.4435  0.9609  0.2528
15615SOL    HW148852   4.742   5.965  10.387  2.0915  1.2550  0.7927
15615SOL    HW248853   4.821   5.840  10.419 -2.0850 -2.0377 -0.7473
15616SOL     OW48854   7.031   7.258   2.996 -0.1207  0.4384 -0.2948
15616SOL    HW148855   7.114   7.280   2.953  1.1392 -0.6470  1.4589
15616SOL    HW248856   7.010   7.334   3.049  0.6490  0.1084  0.5122
15617SOL     OW48857   5.907   7.727   3.347  0.1212 -0.2386 -0.7453
15617SOL    HW148858   5.849   7.684   3.284  0.9097  1.9679 -3.1575
15617SOL    HW248859   5.994   7.695   3.325  0.2147 -1.1247  0.7683
15618SOL     OW48860   1.373   4.707   0.252 -0.5740  0.2662 -0.0509
15618SOL    HW148861   1.422   4.787   0.231  0.3870 -0.3774 -0.3120
15618SOL    HW248862   1.396   4.646   0.182 -0.0867 -0.7582  0.9836
15619SOL     OW48863   6.511   2.684   3.834  0.0727 -0.3194  0.2152
15619SOL    HW148864   6.494   2.600   3.877  1.4684  0.1632  1.7733
15619SOL    HW248865   6.603   2.680   3.809 -0.3683 -0.0635 -1.6765
15620SOL     OW48866   0.800   6.783  11.017  0.2384 -0.1822  0.5709
15620SOL    HW148867   0.764   6.775  11.105 -2.3211  1.4024 -0.2153
15620SOL    HW248868   0.817   6.876  11.007  0.7624 -0.3809 -0.5031
15621SOL     OW48869   6.656   9.176   4.582 -0.4849 -0.5633  0.2117
15621SOL    HW148870   6.598   9.119   4.531  1.2527 -0.7842 -1.6439
15621SOL    HW248871   6.726   9.119   4.612 -1.3266 -0.3772  2.7414
15622SOL     OW48872   9.996   5.777   6.258  0.6127 -0.2488  0.2133
15622SOL    HW148873  10.029   5.744   6.342 -0.7299 -0.1731  0.8103
15622SOL    HW248874   9.971   5.698   6.210 -3.1768 -0.3332  1.8842
15623SOL     OW48875   7.830  10.797   3.354 -0.5735  0.9581 -0.2193
15623SOL    HW148876   7.791  10.718   3.316 -2.0053  0.3100  2.3758
15623SOL    HW248877   7.925  10.781   3.351 -0.8305 -0.8223  0.1359
15624SOL     OW48878   9.695   1.177   7.050  0.6657 -0.0638 -0.9741
15624SOL    HW148879   9.615   1.131   7.025  0.8199 -1.6915  1.2418
15624SOL    HW248880   9.761   1.143   6.990 -0.1243  0.9430 -2.5101
15625SOL     OW48881   1.277   4.160   8.114 -0.5114 -0.4122  0.4808
15625SOL    HW148882   1.196   4.201   8.084 -0.5246 -2.2864 -2.3773
15625SOL    HW248883   1.247   4.084   8.165 -0.5400 -0.2807  0.6600
15626SOL     OW48884   3.530  10.420   2.269  0.4384  0.5403  0.1152
15626SOL    HW148885   3.486  10.505   2.259 -0.6162  0.0210  0.1641
15626SOL    HW248886   3.623  10.441   2.265  0.1931  1.5718 -1.0276
15627SOL     OW48887   8.654   1.581   8.273 -0.1187 -0.3144 -0.1572
15627SOL    HW148888   8.639   1.618   8.360  1.6230  0.3283 -0.0942
15627SOL    HW248889   8.659   1.657   8.215 -0.6489 -0.7023 -0.7262
15628SOL     OW48890   4.467   9.036   6.747  0.3700  0.5785  0.0065
15628SOL    HW148891   4.477   8.961   6.807  0.8999 -0.5709 -1.4639
15628SOL    HW248892   4.552   9.078   6.748  0.5421  0.2410 -0.3472
15629SOL     OW48893   1.911  10.926   1.433  0.4538 -0.2225  0.0291
15629SOL    HW148894   1.946  10.958   1.350  2.0316 -2.0690 -0.0773
15629SOL    HW248895   1.969  10.964   1.499  2.1629 -2.4091 -0.0814
15630SOL     OW48896   8.299   1.908   8.800 -0.5606 -0.1383 -0.4760
15630SOL    HW148897   8.393   1.916   8.785 -0.2895 -3.3426 -1.2015
15630SOL    HW248898   8.291   1.905   8.895  0.1503 -0.4089 -0.4142
15631SOL     OW48899   8.121   8.013   8.883  0.3632  0.7519  0.0642
15631SOL    HW148900   8.174   8.038   8.958 -0.7413  3.1492  0.1726
15631SOL    HW248901   8.061   8.088   8.871 -0.7632 -0.3940 -2.0187
15632SOL     OW48902   2.441   0.568   5.554 -0.4322 -0.2276 -0.9114
15632SOL    HW148903   2.360   0.523   5.578 -0.7073 -1.4311 -3.6551
15632SOL    HW248904   2.510   0.514   5.592 -0.8405  0.1066  0.3744
15633SOL     OW48905   9.549   2.413   9.368  0.0213  0.3276 -0.6242
15633SOL    HW148906   9.564   2.502   9.401 -1.8099  0.9453 -1.3770
15633SOL    HW248907   9.575   2.417   9.276  1.0198 -0.2517 -0.3844
15634SOL     OW48908   9.688   5.501   8.851 -0.1325  0.0891  0.2988
15634SOL    HW148909   9.760   5.483   8.912 -0.5426 -0.5336  0.6016
15634SOL    HW248910   9.717   5.579   8.803  0.7227 -0.1212  0.4551
15635SOL     OW48911   5.025   6.885   2.347 -0.5712  0.0323 -0.7330
15635SOL    HW148912   5.106   6.936   2.353 -0.9918  0.6996 -0.6785
15635SOL    HW248913   5.043   6.806   2.397 -0.4320  0.8149  0.4936
15636SOL     OW48914   4.267   1.529   2.943 -0.1766 -0.0657  0.1720
15636SOL    HW148915   4.247   1.558   2.854 -0.3262 -2.2225 -0.5506
15636SOL    HW248916   4.224   1.444   2.951 -0.2597  0.1335  2.3670
15637SOL     OW48917  10.698   7.494   6.120 -0.4713 -0.4675 -0.3441
15637SOL    HW148918  10.643   7.473   6.195  1.4837  1.7948  1.8626
15637SOL    HW248919  10.655   7.568   6.078 -1.1286 -1.2184 -1.0457
15638SOL     OW48920   3.201   1.515   2.627  0.5329 -0.6345 -0.9473
15638SOL    HW148921   3.276   1.572   2.640  0.9243 -1.3835  0.1814
15638SOL    HW248922   3.161   1.506   2.713 -0.8519 -0.2826 -1.5093
15639SOL     OW48923   9.237   6.289   3.353  0.0989  0.0957  0.4571
15639SOL    HW148924   9.293   6.237   3.410 -0.0500 -1.0042 -0.3476
15639SOL    HW248925   9.217   6.368   3.403  1.1356 -0.1830  1.3342
15640SOL     OW48926   2.224   8.443   6.477 -0.1180 -0.2889  0.2573
15640SOL    HW148927   2.209   8.355   6.443 -0.3249  0.2323 -1.0865
15640SOL    HW248928   2.187   8.501   6.410  1.6304  0.8585  0.2203
15641SOL     OW48929  10.280   7.248  11.009 -0.1267 -1.0479 -0.6230
15641SOL    HW148930  10.341   7.196  11.061 -0.6414 -2.5417 -1.4664
15641SOL    HW248931  10.259   7.193  10.934 -1.2492  0.0986 -1.1913
15642SOL     OW48932   3.610   4.414   9.704 -0.7705  0.7661 -0.3949
15642SOL    HW148933   3.640   4.379   9.788 -1.6980 -0.1772 -0.4341
15642SOL    HW248934   3.587   4.505   9.723 -1.7054  0.3495  0.5579
15643SOL     OW48935  10.616   4.436  10.740 -0.2073  0.7095 -0.2137
15643SOL    HW148936  10.527   4.453  10.708 -1.1873 -0.4326  1.7580
15643SOL    HW248937  10.664   4.406  10.662 -1.9028  0.0550 -1.0486
15644SOL     OW48938   6.809   7.657   6.679  0.2384  0.0712 -0.1558
15644SOL    HW148939   6.831   7.742   6.716  0.3580 -0.9435  2.3087
15644SOL    HW248940   6.714   7.659   6.668  0.2113  0.4284  0.1398
15645SOL     OW48941   2.673   1.667   1.558 -0.5100 -0.2452 -0.1881
15645SOL    HW148942   2.708   1.672   1.647  0.0735 -0.6089 -0.3911
15645SOL    HW248943   2.584   1.634   1.568 -0.3484 -0.5543  0.2371
15646SOL     OW48944   9.170   1.532   4.774 -0.7007 -0.1190 -0.5825
15646SOL    HW148945   9.256   1.518   4.815 -0.1718  1.5526 -1.0136
15646SOL    HW248946   9.126   1.448   4.781  0.5360 -0.7113  0.6882
15647SOL     OW48947   1.031   3.288   9.724 -0.4278  0.5002  0.2780
15647SOL    HW148948   0.951   3.263   9.770 -0.1057  0.3540  0.7685
15647SOL    HW248949   1.065   3.206   9.688  1.3468 -0.0738  3.0226
15648SOL     OW48950   4.584   4.391   8.318 -0.0087  0.0169  0.1511
15648SOL    HW148951   4.639   4.469   8.309 -1.7749  1.2337 -0.7493
15648SOL    HW248952   4.572   4.360   8.228 -1.6611  0.4513  0.1891
15649SOL     OW48953   7.031   4.041   6.036  0.3871 -0.3281  0.1978
15649SOL    HW148954   7.077   4.120   6.065  1.3608 -1.2257  1.2101
15649SOL    HW248955   6.944   4.047   6.076  0.7263 -0.1307  0.9207
15650SOL     OW48956   6.449   0.785   7.689  0.3459  0.0232 -0.2369
15650SOL    HW148957   6.537   0.785   7.728  0.3338 -1.7403 -0.1347
15650SOL    HW248958   6.399   0.724   7.743 -1.1360  1.4056  0.0516
15651SOL     OW48959   5.673   7.085   0.187 -0.4106 -0.4359 -0.1465
15651SOL    HW148960   5.581   7.067   0.203 -1.2344  0.2949 -3.4490
15651SOL    HW248961   5.686   7.069   0.094  2.3619  1.2645 -0.1828
15652SOL     OW48962   8.750   8.725   9.574 -0.3416 -0.4050  0.4393
15652SOL    HW148963   8.784   8.813   9.592  4.0551 -1.4991 -1.3547
15652SOL    HW248964   8.684   8.738   9.506 -0.7023  1.5538  1.0971
15653SOL     OW48965  10.217   0.934   4.482  0.0057  0.2626 -0.1264
15653SOL    HW148966  10.179   0.859   4.527 -1.0751  2.0215  2.0677
15653SOL    HW248967  10.167   0.939   4.400  1.0844 -2.1799 -1.0497
15654SOL     OW48968   1.256  10.655   2.830  0.1921 -0.2406  0.2543
15654SOL    HW148969   1.176  10.673   2.880 -1.2752  1.0698 -2.3839
15654SOL    HW248970   1.271  10.734   2.779  1.4794 -1.5724 -1.5413
15655SOL     OW48971   3.281   3.274   9.656 -0.8145 -0.3123  0.5115
15655SOL    HW148972   3.297   3.242   9.568 -1.2021  0.0328  0.3153
15655SOL    HW248973   3.227   3.352   9.645 -2.9292 -1.6031  1.1691
15656SOL     OW48974  10.900   9.402   6.202 -0.1161 -0.7030 -0.4967
15656SOL    HW148975  10.847   9.328   6.231  3.5935 -2.9213  1.2233
15656SOL    HW248976  10.941   9.373   6.121 -0.2557  0.4058 -0.9975
15657SOL     OW48977   4.195   3.693   3.964 -0.1902  0.7580 -0.1318
15657SOL    HW148978   4.248   3.622   3.928  1.9353  1.9476  0.4736
15657SOL    HW248979   4.167   3.661   4.050 -0.3179  0.1844 -0.3832
15658SOL     OW48980   3.645   4.546   3.675 -0.2599 -0.6003  0.4391
15658SOL    HW148981   3.637   4.498   3.758 -1.2772  0.7853  1.1859
15658SOL    HW248982   3.573   4.609   3.677  0.3048  0.1346 -1.0578
15659SOL     OW48983   8.082   3.971   8.152  0.0390  0.6127 -0.2427
15659SOL    HW148984   8.025   3.895   8.162 -0.7269  1.4393  2.3214
15659SOL    HW248985   8.021   4.044   8.136  0.2801  1.4947  2.4391
15660SOL     OW48986   6.710   5.108  10.778 -0.1474 -0.2533 -0.2215
15660SOL    HW148987   6.745   5.020  10.761  0.1987 -0.8019  2.8300
15660SOL    HW248988   6.755   5.137  10.857  0.7767  3.3381 -1.8821
15661SOL     OW48989   2.101  10.482   1.892 -0.0054  0.2125  0.2261
15661SOL    HW148990   2.109  10.574   1.867 -0.6443 -0.5702 -3.3368
15661SOL    HW248991   2.007  10.464   1.892  0.1504 -0.6596 -0.0722
15662SOL     OW48992   7.922   5.465   9.901 -0.0083 -0.0717  0.5594
15662SOL    HW148993   7.983   5.474   9.828  1.1652  0.9852  1.6408
15662SOL    HW248994   7.897   5.372   9.899  2.0587 -0.6731  0.4067
15663SOL     OW48995   5.738   8.365   1.884  0.5455  0.6514 -0.2112
15663SOL    HW148996   5.743   8.286   1.939 -1.5333 -0.6262 -1.7048
15663SOL    HW248997   5.757   8.334   1.796  0.6289  2.0156 -0.6900
15664SOL     OW48998   5.570   1.871   0.885 -0.3637  0.2804 -0.1728
15664SOL    HW148999   5.479   1.844   0.901 -0.9773  1.9928 -0.5255
15664SOL    HW249000   5.562   1.954   0.838  1.3906  0.6640  0.1342
15665SOL     OW49001  10.455   0.217   5.375 -0.3682  0.5559 -0.5288
15665SOL    HW149002  10.370   0.256   5.396 -0.4233 -1.0975  2.9532
15665SOL    HW249003  10.519   0.276   5.413 -0.1395  0.2886 -0.4944
15666SOL     OW49004   5.036   6.086   5.011  0.0669 -0.0683 -0.0790
15666SOL    HW149005   5.037   6.169   5.059 -2.4685 -1.5542  2.9092
15666SOL    HW249006   5.100   6.032   5.058  0.5195 -0.3333 -0.9867
15667SOL     OW49007   2.056   9.117   2.091  0.3823 -0.2300 -0.2799
15667SOL    HW149008   2.040   9.177   2.164 -0.2592 -0.2843 -0.3669
15667SOL    HW249009   2.025   9.164   2.014 -0.2621 -0.7197 -0.3299
15668SOL     OW49010   2.904   1.784   6.208  0.2400  0.0115  0.3164
15668SOL    HW149011   2.981   1.776   6.263  0.6229  1.9407  0.1500
15668SOL    HW249012   2.938   1.785   6.118 -0.0786 -0.1589  0.1893
15669SOL     OW49013   6.265  10.816   5.025  0.0478 -0.0207 -0.3452
15669SOL    HW149014   6.272  10.888   4.962  0.5404  0.3344  0.1031
15669SOL    HW249015   6.186  10.834   5.074 -0.0170  0.0256 -0.4659
15670SOL     OW49016   3.174   5.133   4.963  0.0531  0.4255  0.3416
15670SOL    HW149017   3.107   5.078   4.920 -0.1197  0.3017  0.7674
15670SOL    HW249018   3.124   5.194   5.017  0.2132  1.4314 -0.6063
15671SOL     OW49019   3.736   6.696   4.293  0.1024 -0.0947  0.4708
15671SOL    HW149020   3.830   6.688   4.306  0.2285 -0.9008 -0.7136
15671SOL    HW249021   3.698   6.623   4.341  0.3436 -1.4444 -1.2792
15672SOL     OW49022   0.586   8.248   0.944  0.1081  0.3325  0.7136
15672SOL    HW149023   0.621   8.179   0.888 -0.5307 -0.2636  1.0226
15672SOL    HW249024   0.563   8.318   0.884  2.0321  0.8598  0.5334
15673SOL     OW49025   4.816   1.563   1.707  0.1560  0.6333  0.7735
15673SOL    HW149026   4.836   1.482   1.753  0.8780 -0.1608 -0.8568
15673SOL    HW249027   4.744   1.541   1.648  1.0614  0.8371 -0.4676
15674SOL     OW49028   5.308   8.790   1.272  0.2669  0.3402 -0.3226
15674SOL    HW149029   5.268   8.877   1.268  0.1396  0.3457  0.7254
15674SOL    HW249030   5.318   8.764   1.181 -0.9637  0.8766 -0.6377
15675SOL     OW49031   8.732   6.728   6.398  0.1423  0.2019  0.3467
15675SOL    HW149032   8.652   6.746   6.349  0.0252 -0.6195  0.2202
15675SOL    HW249033   8.762   6.644   6.364  2.6353  1.7333 -1.6984
15676SOL     OW49034   2.736   5.437   6.852 -0.2420  0.7082 -0.3777
15676SOL    HW149035   2.697   5.363   6.807 -1.6661  1.0368  0.2672
15676SOL    HW249036   2.669   5.466   6.914  0.6880  1.8681  0.1309
15677SOL     OW49037   7.346   9.447   3.317  0.7187  0.1843 -0.1456
15677SOL    HW149038   7.263   9.489   3.342  1.8715  2.5038  0.0466
15677SOL    HW249039   7.349   9.367   3.369 -2.0062 -0.7094 -1.1671
15678SOL     OW49040   1.597  10.541   0.246 -0.1106 -0.5250  0.4173
15678SOL    HW149041   1.644  10.477   0.192 -0.0758  1.3097 -1.8707
15678SOL    HW249042   1.652  10.550   0.324  2.8340  0.5824 -1.5753
15679SOL     OW49043  10.545   7.369  10.702  0.3015  0.3410 -0.0314
15679SOL    HW149044  10.496   7.288  10.714  2.0768 -0.5923  1.2152
15679SOL    HW249045  10.482   7.438  10.723 -1.5893 -0.5681 -2.2223
15680SOL     OW49046   1.024   6.300  10.910 -1.1504  0.3500  0.2650
15680SOL    HW149047   0.991   6.330  10.825 -0.7319 -0.6160 -0.2629
15680SOL    HW249048   0.965   6.339  10.974 -0.9830  1.7592 -0.4094
15681SOL     OW49049   0.020   1.402   5.525  0.1221 -0.3462  0.9850
15681SOL    HW149050  -0.021   1.316   5.523  0.6085 -0.5857  1.1662
15681SOL    HW249051  -0.036   1.455   5.583  1.1866 -1.2538  2.9281
15682SOL     OW49052   2.037   0.597  10.610  0.0077 -0.3477  0.2251
15682SOL    HW149053   2.104   0.592  10.541 -0.3124  0.5181 -0.1584
15682SOL    HW249054   2.067   0.536  10.677  0.6448 -0.7436 -0.4102
15683SOL     OW49055  10.708   9.262   4.777 -0.4773  0.1474  0.7035
15683SOL    HW149056  10.764   9.312   4.718 -1.1176 -0.6832 -0.6560
15683SOL    HW249057  10.621   9.299   4.765 -0.9891 -1.3338 -0.4409
15684SOL     OW49058   9.362   7.097   1.278  0.1542 -0.3259 -0.0848
15684SOL    HW149059   9.336   7.185   1.306  0.0427 -0.4733  0.2913
15684SOL    HW249060   9.440   7.110   1.224 -1.1248  0.2017 -1.8852
15685SOL     OW49061   9.441   5.507   6.729  0.3925  0.7346  0.1281
15685SOL    HW149062   9.524   5.533   6.690 -0.9457  1.7692 -2.2344
15685SOL    HW249063   9.437   5.412   6.716  0.6731  0.8472 -0.8750
15686SOL     OW49064   8.027   3.200   2.070 -0.1857  0.5886  0.2139
15686SOL    HW149065   8.001   3.270   2.130 -0.6392  0.5335  0.0840
15686SOL    HW249066   8.109   3.231   2.031 -0.3306  0.9990  0.2364
15687SOL     OW49067   2.083  10.166   3.745  0.1441  0.2502 -0.3228
15687SOL    HW149068   2.071  10.138   3.836 -0.4076  0.0860 -0.4469
15687SOL    HW249069   2.164  10.121   3.718 -1.1397 -1.9408 -0.7698
15688SOL     OW49070  10.802   5.636   4.870  0.0435  0.8005 -0.0681
15688SOL    HW149071  10.855   5.639   4.949 -0.2424  1.2393  0.1143
15688SOL    HW249072  10.719   5.677   4.895 -0.5736 -0.3362 -0.2094
15689SOL     OW49073   9.930   3.940  10.011 -0.3684 -0.6970 -0.0045
15689SOL    HW149074   9.857   4.001  10.011 -1.0969 -1.4161 -2.6745
15689SOL    HW249075   9.918   3.887  10.089 -0.7116  1.3587  1.4210
15690SOL     OW49076   6.035   4.354   3.834 -0.7695 -0.1118 -0.3345
15690SOL    HW149077   5.962   4.381   3.778 -0.4847  3.6401  0.8367
15690SOL    HW249078   6.018   4.396   3.918  1.7097 -0.8514  0.6319
15691SOL     OW49079  10.665   9.304   1.175 -0.2967 -0.3694 -0.2776
15691SOL    HW149080  10.656   9.336   1.264  0.0468 -2.7385  0.6913
15691SOL    HW249081  10.720   9.226   1.182 -2.6876 -2.4232 -2.0448
15692SOL     OW49082   3.610   9.085   6.302 -0.4227  0.0041  0.1388
15692SOL    HW149083   3.625   9.144   6.376  0.3783 -1.2059  0.9732
15692SOL    HW249084   3.527   9.041   6.323 -2.6920  2.8946 -1.9367
15693SOL     OW49085   8.806   9.173   9.254  0.1138 -0.2035 -0.6779
15693SOL    HW149086   8.773   9.248   9.205 -0.7066  0.7358  1.2165
15693SOL    HW249087   8.863   9.211   9.320 -1.5405 -1.0588  1.3296
15694SOL     OW49088   8.732   5.078   3.485 -0.1423 -0.3837  0.1457
15694SOL    HW149089   8.647   5.038   3.504  0.6175 -1.3874  1.6213
15694SOL    HW249090   8.729   5.163   3.527 -0.5024 -0.3115 -0.0195
15695SOL     OW49091   3.683   7.192   3.645  0.5435 -0.3488  0.6122
15695SOL    HW149092   3.619   7.261   3.626  0.3317 -0.9704 -1.1330
15695SOL    HW249093   3.649   7.149   3.722 -1.5991 -1.1221 -0.6802
15696SOL     OW49094   6.624   6.535   1.291 -0.2248  0.4618 -0.2118
15696SOL    HW149095   6.590   6.571   1.372 -0.1902  0.5313 -0.2279
15696SOL    HW249096   6.694   6.476   1.318 -0.0461  0.6765 -0.2051
15697SOL     OW49097   9.507   4.535   9.857 -0.3816  0.3933  0.5851
15697SOL    HW149098   9.518   4.608   9.918 -0.1596  0.2719  0.6920
15697SOL    HW249099   9.457   4.571   9.784 -0.3520  0.6282  0.6815
15698SOL     OW49100  10.083   3.067  11.081 -0.3770  0.2135  0.6123
15698SOL    HW149101  10.028   3.142  11.057  0.1663 -0.1557 -2.1417
15698SOL    HW249102  10.170   3.089  11.047  0.1054 -1.0855  0.9489
15699SOL     OW49103   3.144   5.251   0.620 -0.0278 -0.0987  0.0420
15699SOL    HW149104   3.145   5.337   0.662 -0.6376 -0.5156  0.9446
15699SOL    HW249105   3.060   5.247   0.575 -0.0241 -0.2338  0.0454
15700SOL     OW49106   4.772  10.319   8.802 -0.3155 -0.0005  0.0977
15700SOL    HW149107   4.835  10.386   8.776 -0.6527 -0.2150 -1.3074
15700SOL    HW249108   4.753  10.270   8.722 -1.8235 -0.3156  0.6187
15701SOL     OW49109   9.016   5.316   1.037  0.5960  0.1854  0.4202
15701SOL    HW149110   9.063   5.329   1.120  0.8341  1.6178  0.0964
15701SOL    HW249111   9.081   5.336   0.970  0.6834 -1.9046 -0.1655
15702SOL     OW49112   9.665   5.822   8.044 -0.1665  0.1553  0.0600
15702SOL    HW149113   9.650   5.728   8.059 -0.2670  0.2282  0.4150
15702SOL    HW249114   9.659   5.831   7.949 -1.0231 -0.0596  0.0774
15703SOL     OW49115   4.177   9.961   4.911 -0.6643 -0.3192 -0.5984
15703SOL    HW149116   4.124   9.942   4.988  1.5760  0.0830  1.1534
15703SOL    HW249117   4.232  10.034   4.938  1.5095 -1.3759 -1.8933
15704SOL     OW49118  10.417   0.158   8.863 -0.4589 -0.2502 -0.1160
15704SOL    HW149119  10.456   0.080   8.901  2.2770  0.3835 -1.4033
15704SOL    HW249120  10.437   0.152   8.769 -1.4405  1.3123 -0.4676
15705SOL     OW49121   8.696   8.809   6.157  0.5330 -0.3312 -0.3135
15705SOL    HW149122   8.640   8.732   6.157  1.1820 -0.8057 -0.1567
15705SOL    HW249123   8.784   8.776   6.137  0.9756  0.2361  0.6037
15706SOL     OW49124   7.175   4.856   1.455  0.1284 -0.2548 -0.1385
15706SOL    HW149125   7.214   4.774   1.426  2.3830  0.5556  0.3581
15706SOL    HW249126   7.127   4.834   1.534 -0.3895 -1.3055 -0.7380
15707SOL     OW49127   1.396   2.767   2.906  0.7107 -0.2964 -0.5703
15707SOL    HW149128   1.329   2.719   2.956  1.7411 -0.5296  0.6283
15707SOL    HW249129   1.389   2.857   2.938  1.3239 -0.4306 -0.0570
15708SOL     OW49130   8.924   0.443   0.726 -0.0873 -0.1704 -0.0866
15708SOL    HW149131   9.000   0.389   0.702 -0.4308 -0.6635 -0.0835
15708SOL    HW249132   8.933   0.522   0.673  0.5146 -0.1544  0.0316
15709SOL     OW49133   7.738   4.651   2.694  0.5534 -0.6118 -0.6401
15709SOL    HW149134   7.650   4.616   2.681  1.6690 -3.8527 -0.4682
15709SOL    HW249135   7.742   4.671   2.787 -0.3677  0.8815 -0.8862
15710SOL     OW49136   6.980   9.764   7.589 -0.4633  0.3011 -0.1740
15710SOL    HW149137   6.978   9.703   7.516 -0.1220  0.3669 -0.2420
15710SOL    HW249138   6.953   9.848   7.551  0.7058  0.5713 -0.4693
15711SOL     OW49139   8.192   1.435   8.623  0.0683  0.5904  0.2925
15711SOL    HW149140   8.160   1.515   8.581 -1.6440  0.6032  1.5209
15711SOL    HW249141   8.283   1.455   8.645  0.8282  0.8455 -2.6044
15712SOL     OW49142   3.667   4.036   6.936  0.6832 -0.0131  0.4558
15712SOL    HW149143   3.726   4.002   6.869 -1.3110  0.6500 -1.7909
15712SOL    HW249144   3.585   3.990   6.921 -0.0532  0.7544  1.9498
15713SOL     OW49145  10.895   7.892   9.455 -0.1743 -1.1005 -0.1358
15713SOL    HW149146  10.941   7.818   9.495 -1.1311 -1.5460  0.1423
15713SOL    HW249147  10.804   7.866   9.452 -0.2331 -0.8122 -2.0253
15714SOL     OW49148   0.161   1.381   9.124  0.4484 -0.2569  0.4221
15714SOL    HW149149   0.217   1.425   9.187  1.5483 -0.6217 -0.2750
15714SOL    HW249150   0.088   1.442   9.109  0.6850  0.2430  1.2961
15715SOL     OW49151  10.122   9.575   2.384  0.1949  0.4757  0.6380
15715SOL    HW149152  10.040   9.620   2.362  1.0746  0.6638 -2.9746
15715SOL    HW249153  10.169   9.637   2.440 -1.0992  1.4431  0.7204
15716SOL     OW49154   9.108   9.009   5.169  0.0088  0.4037 -0.8888
15716SOL    HW149155   9.096   9.067   5.244  1.0775  1.3537 -1.4114
15716SOL    HW249156   9.098   9.065   5.093 -0.7516 -0.4848 -1.4759
15717SOL     OW49157   2.889   0.640   8.295 -0.3007 -0.2768 -0.0875
15717SOL    HW149158   2.838   0.706   8.249 -1.0058 -0.8772 -0.1825
15717SOL    HW249159   2.858   0.644   8.386 -0.9064 -1.0052 -0.2561
15718SOL     OW49160   4.806   1.376   5.162  0.2023  0.1226 -0.6536
15718SOL    HW149161   4.791   1.292   5.119 -0.6948 -0.3438  0.5123
15718SOL    HW249162   4.801   1.357   5.256 -0.9040  1.6140 -0.3656
15719SOL     OW49163   6.475   0.983   8.993  0.3795 -0.0873  0.1382
15719SOL    HW149164   6.394   0.942   8.964  0.1317 -0.1107  0.8498
15719SOL    HW249165   6.536   0.970   8.920 -0.4747  0.6014 -0.7176
15720SOL     OW49166   1.455   7.206  10.361  0.5931  0.4668  0.6220
15720SOL    HW149167   1.464   7.150  10.285  1.3108  0.9496  0.3364
15720SOL    HW249168   1.385   7.166  10.413  2.9893 -2.4171  1.9160
15721SOL     OW49169   7.545   1.847   8.767 -0.2498  0.1474  0.7428
15721SOL    HW149170   7.464   1.815   8.808 -1.6779 -0.1119 -1.9817
15721SOL    HW249171   7.536   1.820   8.675  2.1889  1.5939  0.0053
15722SOL     OW49172   2.385   9.429   4.826 -0.1349 -0.1126 -0.2703
15722SOL    HW149173   2.415   9.373   4.754  0.3120 -0.2310  0.0028
15722SOL    HW249174   2.289   9.420   4.825 -0.0980 -0.5268 -0.5178
15723SOL     OW49175   9.537   9.854   7.854 -0.0596 -0.0409  0.1435
15723SOL    HW149176   9.547   9.948   7.841 -0.9345  0.0038 -0.2536
15723SOL    HW249177   9.552   9.841   7.947 -0.9349  0.6337  0.3903
15724SOL     OW49178   8.513   5.554   6.893 -0.4709  0.3392 -0.6468
15724SOL    HW149179   8.447   5.519   6.833  0.3907 -0.5837 -1.1011
15724SOL    HW249180   8.589   5.570   6.837 -0.2170  1.1010 -0.0863
15725SOL     OW49181   2.013   2.396   9.743  0.3880 -0.2281  0.4702
15725SOL    HW149182   2.042   2.315   9.784  1.1641 -0.7511 -1.0241
15725SOL    HW249183   2.038   2.387   9.651  0.7402  1.8197  0.3013
15726SOL     OW49184   8.958   8.227   0.952  0.1374  0.7405  0.5296
15726SOL    HW149185   8.940   8.309   0.905 -2.1838 -0.2405 -0.4358
15726SOL    HW249186   8.998   8.171   0.887  0.1229  0.5336  0.6993
15727SOL     OW49187   4.095   3.608   6.564  1.0336 -0.0441 -0.4159
15727SOL    HW149188   4.057   3.525   6.594  0.0567  0.5560  0.0727
15727SOL    HW249189   4.073   3.611   6.470  0.1845  0.1074 -0.2240
15728SOL     OW49190   4.833   5.716   4.632  0.4614 -0.1693 -0.1265
15728SOL    HW149191   4.880   5.755   4.705  1.0348 -0.5991 -0.2544
15728SOL    HW249192   4.867   5.762   4.555 -1.4690  1.5721  0.0004
15729SOL     OW49193   9.320   2.850   0.304  0.5317  0.1257 -0.4864
15729SOL    HW149194   9.247   2.796   0.335  0.6562  0.1692 -0.1111
15729SOL    HW249195   9.342   2.906   0.378  1.2959 -0.2533 -0.4172
15730SOL     OW49196  10.081   8.053  10.392 -0.0308 -0.0179  0.4858
15730SOL    HW149197  10.079   7.992  10.466  2.9072 -1.6219 -0.5666
15730SOL    HW249198  10.027   8.012  10.325  0.4649 -0.5802  0.4207
15731SOL     OW49199   9.794   9.626   3.725  0.0735  0.8439  0.0001
15731SOL    HW149200   9.703   9.655   3.721 -0.2370  0.2285  1.9635
15731SOL    HW249201   9.792   9.536   3.693  0.2641  1.2969 -1.3700
15732SOL     OW49202   0.891  10.904  10.219  0.1436 -0.4864  0.2498
15732SOL    HW149203   0.811  10.865  10.255 -0.8931  0.7127 -0.6611
15732SOL    HW249204   0.882  10.997  10.238  0.3792 -0.0633 -1.5308
15733SOL     OW49205   0.666   9.022   1.192 -1.0363 -0.2050 -0.7862
15733SOL    HW149206   0.657   8.971   1.273  0.6228 -0.3767 -0.6841
15733SOL    HW249207   0.611   9.099   1.207 -0.6262 -0.1418  0.5882
15734SOL     OW49208   7.426   5.267   2.439  0.2400 -0.8198 -0.3502
15734SOL    HW149209   7.440   5.233   2.527 -0.1326  2.2942  1.0391
15734SOL    HW249210   7.512   5.298   2.412 -0.2204  1.1051  0.2896
15735SOL     OW49211   2.141   4.502  10.629  0.6287 -0.4113  0.2008
15735SOL    HW149212   2.179   4.453  10.702  0.4895  0.8984  1.1842
15735SOL    HW249213   2.165   4.593  10.646  1.3353 -0.1709 -1.8693
15736SOL     OW49214   7.321   8.924  10.787 -0.0590  0.1596  0.3698
15736SOL    HW149215   7.389   8.900  10.850  0.6786  2.2141  0.4089
15736SOL    HW249216   7.353   8.890  10.703 -0.5012 -1.5882  0.8766
15737SOL     OW49217   2.900   8.194   9.796 -0.3166 -0.1230 -0.3263
15737SOL    HW149218   2.890   8.158   9.708 -0.4947 -1.5590  0.2503
15737SOL    HW249219   2.810   8.202   9.829 -0.2846  0.9521 -0.4614
15738SOL     OW49220   0.051   3.331   0.280 -0.1326 -0.5633  0.2296
15738SOL    HW149221  -0.012   3.342   0.352  0.6991 -1.4885  1.1143
15738SOL    HW249222   0.135   3.321   0.323  0.5528  0.0127 -0.9341
15739SOL     OW49223   2.346   7.953   8.505  0.3612  0.1832  0.5892
15739SOL    HW149224   2.309   7.880   8.455  0.6176  1.3316 -1.3652
15739SOL    HW249225   2.441   7.942   8.498  0.4081 -0.0023  1.3991
15740SOL     OW49226   2.248   7.621   7.217  0.4094  0.4624 -0.1634
15740SOL    HW149227   2.254   7.527   7.197 -0.1858 -0.2455  2.5599
15740SOL    HW249228   2.180   7.654   7.159  0.4890 -0.8191 -1.0358
15741SOL     OW49229   7.622   5.439   5.797  0.3423 -0.5547 -0.0917
15741SOL    HW149230   7.681   5.480   5.734 -0.8803  0.2371 -0.7559
15741SOL    HW249231   7.566   5.510   5.827  0.7321 -0.9743  1.7244
15742SOL     OW49232   2.286   3.257   7.849 -0.0097  0.5691 -0.2483
15742SOL    HW149233   2.296   3.240   7.756  1.4991 -0.7820  0.1111
15742SOL    HW249234   2.247   3.344   7.854 -0.3084  0.5720 -2.1322
15743SOL     OW49235   3.703   5.205   8.644 -0.0625 -0.3247  0.9148
15743SOL    HW149236   3.790   5.240   8.663 -0.1663 -0.5406  1.8547
15743SOL    HW249237   3.653   5.221   8.724 -0.6455 -0.9546  0.6889
15744SOL     OW49238   1.697   3.379   7.299  0.3066  0.7745 -0.0148
15744SOL    HW149239   1.662   3.390   7.210  1.2610 -0.6018 -0.5978
15744SOL    HW249240   1.775   3.434   7.301  1.4170 -0.6938 -0.7458
15745SOL     OW49241   5.706   8.874   2.266 -0.6907 -0.5333  0.3031
15745SOL    HW149242   5.798   8.852   2.279 -0.4834  0.0413 -0.1497
15745SOL    HW249243   5.658   8.809   2.318  0.0409  0.6673  2.5946
15746SOL     OW49244   0.612  10.243   9.458  0.3695 -0.3178 -0.2171
15746SOL    HW149245   0.589  10.335   9.458  1.1596 -0.0664  2.0055
15746SOL    HW249246   0.691  10.238   9.403  1.0664  0.5628  0.6690
15747SOL     OW49247   1.275   0.211   8.743 -0.5998  0.1671  0.2264
15747SOL    HW149248   1.239   0.125   8.763 -0.2579 -0.2471 -0.8358
15747SOL    HW249249   1.217   0.246   8.676 -0.0896  0.2590 -0.1817
15748SOL     OW49250   7.048   0.270  10.490 -0.2618 -0.3165 -0.3341
15748SOL    HW149251   7.018   0.228  10.409 -2.4749 -0.2080  0.3466
15748SOL    HW249252   7.139   0.293  10.473 -0.5742 -0.5233 -2.7026
15749SOL     OW49253   2.913   7.117   0.661  0.3524  0.2043 -0.1778
15749SOL    HW149254   2.904   7.186   0.726  3.1967  0.6567 -0.1348
15749SOL    HW249255   2.913   7.036   0.712  0.8770  0.4503  0.2185
15750SOL     OW49256  11.028   3.617   3.457  0.0392  0.7014 -0.1089
15750SOL    HW149257  11.070   3.573   3.383  1.2374 -1.9898  1.9938
15750SOL    HW249258  11.084   3.693   3.474  0.7254  0.3892 -0.9044
15751SOL     OW49259   7.409   6.096  10.440 -0.2478  0.3074 -0.8259
15751SOL    HW149260   7.433   6.009  10.407  0.9477  1.3228 -2.8799
15751SOL    HW249261   7.462   6.156  10.387 -1.9094  2.3473 -0.2784
15752SOL     OW49262   5.113   3.358   7.190 -0.1720 -0.0674 -0.5576
15752SOL    HW149263   5.101   3.371   7.096 -0.1352 -1.4981 -0.7894
15752SOL    HW249264   5.088   3.267   7.204 -1.5999  0.5326  1.0900
15753SOL     OW49265   0.209   5.290   9.897 -0.2232 -0.1190  0.2575
15753SOL    HW149266   0.155   5.240   9.836  1.2283  0.3381 -1.4877
15753SOL    HW249267   0.186   5.256   9.984 -0.4327 -2.6867 -0.7295
15754SOL     OW49268   9.868   7.663   3.034  0.1894  0.2021  0.0401
15754SOL    HW149269   9.864   7.674   2.939 -0.2885 -0.0723  0.0211
15754SOL    HW249270   9.919   7.737   3.066  0.9186 -0.0590 -0.4919
15755SOL     OW49271   6.801   6.856   5.344 -0.0247 -0.2858  0.0696
15755SOL    HW149272   6.845   6.798   5.406  0.0330 -0.7012 -0.3539
15755SOL    HW249273   6.841   6.835   5.259  0.1382  0.5161 -0.0569
15756SOL     OW49274   7.410   8.258   2.056 -0.5939  0.3163  0.3082
15756SOL    HW149275   7.325   8.302   2.064  1.1953  4.1898  0.4843
15756SOL    HW249276   7.437   8.241   2.146  0.1929  2.2841  0.4978
15757SOL     OW49277   1.734   6.144   4.023 -0.1745  0.4027 -0.8906
15757SOL    HW149278   1.748   6.217   4.084 -0.8879  0.0926 -0.3396
15757SOL    HW249279   1.820   6.128   3.985  0.7918 -0.6538  1.4836
15758SOL     OW49280   9.573   6.916   7.073 -0.2350  0.1689 -0.2290
15758SOL    HW149281   9.625   6.916   6.992 -0.8945  1.0452 -0.6664
15758SOL    HW249282   9.507   6.849   7.059 -1.1085  1.1525 -0.9352
15759SOL     OW49283   6.458   5.419  10.224 -0.2540 -0.2546 -0.0040
15759SOL    HW149284   6.486   5.508  10.200 -1.6369 -0.0696 -1.1115
15759SOL    HW249285   6.539   5.368  10.224  0.2245  0.3046 -2.7633
15760SOL     OW49286   1.899   5.746   3.340 -0.3726  0.7765  0.7767
15760SOL    HW149287   1.895   5.761   3.246 -0.8268  0.3948  0.7289
15760SOL    HW249288   1.822   5.692   3.359  0.1271  0.2096  1.2500
15761SOL     OW49289   2.530   7.949   2.587 -0.3759  0.2851  0.1490
15761SOL    HW149290   2.581   8.016   2.633  2.3876 -1.2604 -0.4745
15761SOL    HW249291   2.508   7.989   2.503 -0.2251  0.9786  0.4314
15762SOL     OW49292   4.950   3.779   5.165  0.3420 -0.2759  0.0131
15762SOL    HW149293   4.915   3.726   5.236  0.3996  0.2285  0.4209
15762SOL    HW249294   4.905   3.863   5.173  2.0292  0.5994  0.9128
15763SOL     OW49295   0.562   9.283   4.490 -0.3550  0.6893 -0.1434
15763SOL    HW149296   0.618   9.360   4.490  0.0119  0.4717  1.4780
15763SOL    HW249297   0.547   9.263   4.398  1.5930  1.2286 -0.6148
15764SOL     OW49298   8.432   6.248   1.571 -0.3027 -0.6268 -0.4318
15764SOL    HW149299   8.518   6.221   1.538  0.8154  1.5178  0.5407
15764SOL    HW249300   8.429   6.215   1.661 -1.3799 -2.3612 -1.0381
15765SOL     OW49301   4.626   4.380  10.406 -0.2405 -0.1101 -0.1989
15765SOL    HW149302   4.610   4.316  10.475 -2.7692  1.2227  0.5992
15765SOL    HW249303   4.540   4.420  10.390  1.0275  2.4839 -1.2230
15766SOL     OW49304   2.485  10.627   5.987 -0.3482 -0.7597  0.1889
15766SOL    HW149305   2.491  10.587   5.900 -2.5674  2.1059 -1.4757
15766SOL    HW249306   2.550  10.697   5.987 -1.3905  0.2569  0.1400
15767SOL     OW49307  10.943   6.473   4.556  0.2489 -0.4695 -0.1645
15767SOL    HW149308  11.020   6.499   4.507 -0.6118  0.6669 -0.9761
15767SOL    HW249309  10.970   6.397   4.607  1.8559 -0.1524 -0.5157
15768SOL     OW49310   8.075   4.333   9.243 -0.2964  0.2785 -0.5772
15768SOL    HW149311   8.157   4.358   9.287 -0.3162  0.6788 -0.7656
15768SOL    HW249312   8.059   4.243   9.273  0.8445 -0.2505 -1.4711
15769SOL     OW49313   0.171   4.764   6.108  0.0524  0.3596  0.4838
15769SOL    HW149314   0.239   4.818   6.067  1.2675 -1.9162 -0.6769
15769SOL    HW249315   0.093   4.778   6.053  1.2792 -1.5527 -1.9570
15770SOL     OW49316   2.602   2.751   9.578 -0.2488  0.1439 -0.0314
15770SOL    HW149317   2.543   2.803   9.633 -0.2920 -0.4558  0.5115
15770SOL    HW249318   2.544   2.699   9.523 -0.2501 -0.5485  0.5999
15771SOL     OW49319   2.857   1.965   6.489  0.7332  0.3154 -0.0559
15771SOL    HW149320   2.803   2.026   6.540  0.4129  1.8076 -2.0832
15771SOL    HW249321   2.814   1.880   6.500 -1.3555  1.2346 -0.6432
15772SOL     OW49322   2.964   8.742   6.137  0.5729  0.1504  0.1978
15772SOL    HW149323   2.929   8.784   6.215  2.1235 -1.3981  1.8262
15772SOL    HW249324   3.021   8.808   6.097 -2.9707  2.2803 -1.8370
15773SOL     OW49325   8.424   7.513   6.940  0.2905 -0.0240  0.0085
15773SOL    HW149326   8.349   7.459   6.968 -0.2498  1.5144  1.6998
15773SOL    HW249327   8.501   7.466   6.974 -0.2472  0.8698  2.7184
15774SOL     OW49328   1.836   4.299   6.471  0.0025  0.0745 -0.4966
15774SOL    HW149329   1.746   4.279   6.443 -0.9374  1.4672  1.2992
15774SOL    HW249330   1.828   4.383   6.517  1.8995 -0.6226  1.2511
15775SOL     OW49331   7.199   7.911   4.919 -0.3053 -0.2729 -0.1920
15775SOL    HW149332   7.276   7.860   4.943 -0.4344 -0.9368 -1.1412
15775SOL    HW249333   7.128   7.847   4.914 -0.5197  0.0210 -1.1790
15776SOL     OW49334   0.316   7.438   2.184 -0.1433  0.1360  0.2190
15776SOL    HW149335   0.225   7.412   2.192 -0.1841  0.2050 -0.0231
15776SOL    HW249336   0.339   7.472   2.271 -0.0673 -0.7597  0.5525
15777SOL     OW49337   1.671   1.106  10.753 -0.8440  0.6438 -0.1338
15777SOL    HW149338   1.581   1.089  10.723 -0.6883  0.7586 -0.6695
15777SOL    HW249339   1.704   1.020  10.778 -0.8111  0.4700 -0.7603
15778SOL     OW49340   9.876   2.759   4.016  0.6490  0.4197  0.3527
15778SOL    HW149341   9.815   2.716   4.077  2.1772  0.4747  2.0071
15778SOL    HW249342   9.903   2.839   4.061  1.4805  0.7005 -0.5995
15779SOL     OW49343   6.501   3.552   8.017  0.5244  0.0416  0.1907
15779SOL    HW149344   6.523   3.605   7.940  0.2555 -0.3344 -0.1507
15779SOL    HW249345   6.419   3.590   8.048 -1.3509 -2.0350 -1.8691
15780SOL     OW49346   4.825   7.738   8.721 -0.3143 -0.2864  0.7171
15780SOL    HW149347   4.870   7.823   8.730  2.9942 -1.8175  0.2429
15780SOL    HW249348   4.847   7.691   8.801 -1.7764 -0.8867  0.7930
15781SOL     OW49349  10.812   9.780   0.343 -0.4885  0.5144  0.6594
15781SOL    HW149350  10.857   9.844   0.399  1.4390 -0.7539  0.6780
15781SOL    HW249351  10.879   9.713   0.326 -1.1229  0.5957 -2.7589
15782SOL     OW49352   1.572   1.872   8.445  0.3052  0.4105 -0.2330
15782SOL    HW149353   1.602   1.923   8.370  1.2919  1.0876  0.5945
15782SOL    HW249354   1.646   1.816   8.467  0.0827  0.3352  0.3371
15783SOL     OW49355   8.422   1.737  11.028  0.0848 -0.7574 -0.1655
15783SOL    HW149356   8.406   1.796  11.102 -0.5129 -1.6085  0.4020
15783SOL    HW249357   8.347   1.749  10.970  0.0616 -0.7998 -0.1454
15784SOL     OW49358   5.806   0.929   7.623  0.5218 -0.1609  0.7283
15784SOL    HW149359   5.813   0.839   7.656  1.2857  0.7085  3.1425
15784SOL    HW249360   5.893   0.949   7.589  0.3683 -0.2737  0.2484
15785SOL     OW49361   4.469   2.515   5.409  0.2573  0.8248 -0.1129
15785SOL    HW149362   4.419   2.590   5.441 -1.7948 -1.0168  1.2839
15785SOL    HW249363   4.518   2.485   5.486  0.7117  0.4387 -0.5437
15786SOL     OW49364   3.377   5.123   0.354 -0.0695  0.5091 -0.1498
15786SOL    HW149365   3.432   5.177   0.411 -1.3530  1.1456  0.5259
15786SOL    HW249366   3.320   5.076   0.415  0.5315 -1.0861 -0.7715
15787SOL     OW49367   7.124   9.354  10.277  0.0369  0.1090 -0.7804
15787SOL    HW149368   7.180   9.401  10.215  0.2634 -1.0589 -1.4951
15787SOL    HW249369   7.149   9.389  10.363  1.4853  0.0111 -1.1326
15788SOL     OW49370   5.009   9.199   0.929  0.3129 -0.1109  0.5836
15788SOL    HW149371   4.920   9.216   0.897  0.1045 -1.5394  0.3239
15788SOL    HW249372   5.055   9.161   0.854  0.3571 -1.7932  1.4139
15789SOL     OW49373   9.083   8.451   3.320 -0.3203 -0.0648  0.2786
15789SOL    HW149374   9.051   8.488   3.237 -0.2168 -1.2842 -0.3218
15789SOL    HW249375   9.003   8.435   3.371 -0.4064  0.3997  0.2962
15790SOL     OW49376   1.260  10.145   6.283  0.2674 -0.1321  0.0032
15790SOL    HW149377   1.179  10.116   6.242 -1.4025 -0.7291  3.4166
15790SOL    HW249378   1.237  10.162   6.374  4.3801 -2.3908  1.7495
15791SOL     OW49379   8.667   0.454   9.017  0.3310 -0.6362  0.5046
15791SOL    HW149380   8.583   0.487   9.049  0.2422  0.8061 -1.0403
15791SOL    HW249381   8.666   0.476   8.923  2.6383 -0.0998  0.5527
15792SOL     OW49382   1.230  10.783   5.486 -0.0564 -0.1476  0.1746
15792SOL    HW149383   1.174  10.860   5.495 -0.0101 -0.0903 -0.0263
15792SOL    HW249384   1.278  10.797   5.404 -0.1613 -0.4625  0.0589
15793SOL     OW49385   6.230   2.998   8.781 -0.2627 -0.2111 -0.2423
15793SOL    HW149386   6.325   2.997   8.787 -0.2906  0.7342  0.7838
15793SOL    HW249387   6.202   2.925   8.836 -0.1681  1.1543  1.7202
15794SOL     OW49388   5.250   2.802   2.481 -0.1564  0.2303  0.4303
15794SOL    HW149389   5.216   2.754   2.406 -2.3702  3.0172 -0.5055
15794SOL    HW249390   5.324   2.852   2.446 -0.7048  0.9434  0.2857
15795SOL     OW49391   2.261   7.903   2.946  0.1887 -0.0558  0.0119
15795SOL    HW149392   2.201   7.841   2.988  1.4694 -0.6782  1.0134
15795SOL    HW249393   2.263   7.978   3.006  1.7551 -0.8005  0.9549
15796SOL     OW49394   0.213   7.132   3.339 -0.3553  0.1407  0.0121
15796SOL    HW149395   0.132   7.159   3.295 -0.0835 -1.1898 -1.4293
15796SOL    HW249396   0.248   7.212   3.378 -0.3837  1.5936 -2.6699
15797SOL     OW49397   9.105   0.656  10.462  0.0392  0.4462  0.5818
15797SOL    HW149398   9.133   0.747  10.454  1.5300  0.0257  0.6975
15797SOL    HW249399   9.124   0.632  10.553  2.5550 -0.8333 -0.1817
15798SOL     OW49400   9.600   3.340   9.230 -0.4150 -0.6080 -0.0322
15798SOL    HW149401   9.590   3.334   9.135 -2.0585  0.0788  0.0731
15798SOL    HW249402   9.540   3.273   9.265 -0.7393 -0.0375  0.5338
15799SOL     OW49403   2.489   5.433   3.394  0.1456 -0.5406  0.0449
15799SOL    HW149404   2.395   5.440   3.413 -0.5363  0.3420 -3.0540
15799SOL    HW249405   2.515   5.523   3.375  0.9268 -1.1177 -1.7923
15800SOL     OW49406   4.120   1.980  10.481 -0.0347 -0.0036  0.4542
15800SOL    HW149407   4.060   1.906  10.495  2.0772 -1.6337  1.4216
15800SOL    HW249408   4.119   2.026  10.565  0.8877 -0.7267  0.8885
15801SOL     OW49409   8.305   0.848   9.848  0.3733  0.3636  0.4872
15801SOL    HW149410   8.229   0.813   9.802 -0.1372  1.0990  0.7499
15801SOL    HW249411   8.269   0.911   9.910  1.3294  2.0463 -0.6025
15802SOL     OW49412   4.004   1.522   4.018  0.0944 -0.2451 -0.4449
15802SOL    HW149413   4.056   1.560   4.089 -1.7887  0.2088  0.7766
15802SOL    HW249414   4.034   1.567   3.940  0.9086  0.6434  0.3519
15803SOL     OW49415   8.535   1.632   9.974  0.3217  0.4408 -0.0503
15803SOL    HW149416   8.613   1.582   9.951 -0.0273  1.0835 -2.9501
15803SOL    HW249417   8.471   1.611   9.906 -1.2087  1.7656  0.9015
15804SOL     OW49418   4.975   5.722   4.360  0.3136 -0.1075  0.2557
15804SOL    HW149419   5.047   5.769   4.401 -0.1296  0.3103  0.5719
15804SOL    HW249420   4.991   5.630   4.380  0.7629 -0.0164  0.3121
15805SOL     OW49421   2.250   0.190   3.615 -0.0610 -0.4568  0.1373
15805SOL    HW149422   2.243   0.246   3.693 -3.1790 -1.4365  0.6764
15805SOL    HW249423   2.262   0.102   3.649  2.2141 -0.5367 -0.6673
15806SOL     OW49424   7.905   2.160   6.958 -0.3479 -0.3366 -0.0374
15806SOL    HW149425   7.871   2.210   7.031 -1.4614 -0.7615 -0.2525
15806SOL    HW249426   7.857   2.192   6.882  0.4155 -0.2757 -0.5117
15807SOL     OW49427  10.259   8.421   4.959 -0.2775 -0.0942  0.5105
15807SOL    HW149428  10.230   8.493   5.014  0.6786  0.5941  0.1339
15807SOL    HW249429  10.321   8.460   4.898  0.6505 -1.3330  0.6261
15808SOL     OW49430   0.827   1.786   7.781 -0.2055  0.3627  0.0961
15808SOL    HW149431   0.835   1.693   7.798 -0.5113  0.2888 -0.1408
15808SOL    HW249432   0.905   1.809   7.731  0.2254  0.3860  0.7770
15809SOL     OW49433   2.799   0.950   5.974  0.0445 -0.5476  0.1616
15809SOL    HW149434   2.811   0.874   5.916  1.5783 -0.3875  0.2297
15809SOL    HW249435   2.883   0.960   6.019  0.0840  1.5164 -0.2471
15810SOL     OW49436   4.103   3.224   7.545  0.4813  0.4418  0.3634
15810SOL    HW149437   4.135   3.177   7.468 -0.2419  0.2801  0.1555
15810SOL    HW249438   4.027   3.174   7.574 -0.2108  1.3816  0.2269
15811SOL     OW49439   3.670   5.376   5.907 -0.5492 -0.7681 -0.6853
15811SOL    HW149440   3.578   5.395   5.924 -0.5669 -1.8278  0.5391
15811SOL    HW249441   3.669   5.315   5.833 -0.8532 -0.9798 -0.5087
15812SOL     OW49442   5.319   5.115   7.065 -0.1949  0.6764  0.1066
15812SOL    HW149443   5.373   5.088   7.139  1.6113  0.0992 -1.3389
15812SOL    HW249444   5.377   5.107   6.989 -1.5262  2.6120 -1.2097
15813SOL     OW49445   9.692   5.766   9.149 -0.1462  0.2382 -0.1290
15813SOL    HW149446   9.713   5.712   9.225  0.5289 -0.7246 -0.9759
15813SOL    HW249447   9.611   5.727   9.115 -0.9634  1.2337  0.5917
15814SOL     OW49448  10.894   3.855   4.891  0.0272  0.3041  0.0538
15814SOL    HW149449  10.964   3.918   4.871 -0.3145  0.4971 -0.5404
15814SOL    HW249450  10.905   3.786   4.825 -0.0782  0.1204  0.2290
15815SOL     OW49451   8.003   1.821   1.002  0.3026 -0.7297 -0.5551
15815SOL    HW149452   8.045   1.857   1.080  1.0363 -1.9408 -0.3706
15815SOL    HW249453   7.909   1.820   1.024  0.4061 -0.1700 -0.0742
15816SOL     OW49454   8.192   4.447   2.913 -0.3450 -0.2189  0.3264
15816SOL    HW149455   8.152   4.496   2.842  1.1767 -0.1049 -0.4926
15816SOL    HW249456   8.149   4.361   2.911 -0.6004 -0.0741 -0.4521
15817SOL     OW49457   4.687   5.049   9.350 -0.5272 -0.0477 -1.3371
15817SOL    HW149458   4.671   4.978   9.288  1.0933  0.0922 -1.9809
15817SOL    HW249459   4.780   5.040   9.373 -1.2178 -0.5827  1.7269
15818SOL     OW49460   9.581   4.187  10.808  0.0447 -0.0937 -0.3112
15818SOL    HW149461   9.628   4.254  10.859 -0.3557 -0.3003  0.3498
15818SOL    HW249462   9.650   4.134  10.768  0.3705  0.1314 -0.0557
15819SOL     OW49463   5.510   1.266   1.411  0.4035  0.0262 -0.2437
15819SOL    HW149464   5.519   1.307   1.325 -1.0413 -2.9842 -1.9998
15819SOL    HW249465   5.418   1.241   1.416  0.9063 -1.7130  1.2593
15820SOL     OW49466   6.808   7.188   2.417  0.6481  0.6845  0.4414
15820SOL    HW149467   6.827   7.265   2.470 -0.9365 -0.0012  2.1253
15820SOL    HW249468   6.820   7.114   2.476  0.2271 -0.2227 -0.5722
15821SOL     OW49469   8.403   7.386   1.483  0.2302  0.1245  0.7180
15821SOL    HW149470   8.466   7.394   1.411 -2.0532 -0.2482 -1.4804
15821SOL    HW249471   8.368   7.474   1.495  0.1796  0.0699  0.9788
15822SOL     OW49472   2.970   7.859   6.315 -0.1377 -0.0977 -0.8014
15822SOL    HW149473   2.919   7.857   6.396  1.6239  1.9048  0.4720
15822SOL    HW249474   2.977   7.952   6.293  2.6148 -0.2699 -1.0550
15823SOL     OW49475   9.235   5.388   9.181 -0.2592  0.4539 -0.0733
15823SOL    HW149476   9.181   5.332   9.126 -0.6607 -1.4168  2.0564
15823SOL    HW249477   9.173   5.424   9.245  0.5321  0.7159  0.5528
15824SOL     OW49478   2.660   3.231   7.862  0.4314  0.6952 -0.4185
15824SOL    HW149479   2.636   3.139   7.866  1.1072  0.4478 -1.5077
15824SOL    HW249480   2.738   3.238   7.917  0.8613  0.4363 -0.9841
15825SOL     OW49481   2.641   8.120   8.671 -0.3675 -0.0995  0.0161
15825SOL    HW149482   2.597   8.059   8.611  1.8937 -1.8074 -0.0336
15825SOL    HW249483   2.605   8.206   8.648 -3.2384 -1.2588 -0.3472
15826SOL     OW49484   4.846   3.879   5.435 -0.5341  0.5214  0.1427
15826SOL    HW149485   4.927   3.924   5.461  0.2172  1.5100 -3.2974
15826SOL    HW249486   4.776   3.939   5.458 -0.3116 -0.0829  2.6300
15827SOL     OW49487   8.057   3.642  10.885 -0.6696  0.6320 -0.3517
15827SOL    HW149488   8.068   3.649  10.791  0.9317  2.3803 -0.0730
15827SOL    HW249489   8.116   3.571  10.911  0.2324  1.3409 -0.4542
15828SOL     OW49490   9.608   8.091   0.584 -0.0964 -0.1943 -1.0758
15828SOL    HW149491   9.535   8.045   0.625  0.2032 -1.8001 -2.2510
15828SOL    HW249492   9.568   8.148   0.519 -0.3755 -0.2726 -0.9743
15829SOL     OW49493   9.091   1.677   5.744  0.3686  0.0351 -0.2783
15829SOL    HW149494   9.076   1.590   5.780 -2.5721  0.3935 -0.4310
15829SOL    HW249495   9.117   1.662   5.653  1.2659 -0.6728  0.0747
15830SOL     OW49496   1.216   2.135   5.225 -0.1536 -0.0652 -0.5837
15830SOL    HW149497   1.130   2.129   5.182 -0.4074 -1.2622  0.0519
15830SOL    HW249498   1.266   2.062   5.188  0.3749  0.2267 -0.4556
15831SOL     OW49499   8.005   2.402   6.302  0.0256 -0.2250 -0.0371
15831SOL    HW149500   7.936   2.344   6.333  0.4312 -0.5008  0.3799
15831SOL    HW249501   8.073   2.396   6.370  1.1536 -1.2145 -1.2142
15832SOL     OW49502   1.939   2.466   7.295  0.6556  0.1999  0.8219
15832SOL    HW149503   1.893   2.532   7.243  1.8229  0.3632 -0.0496
15832SOL    HW249504   1.875   2.397   7.309 -0.6066  1.5070  1.7911
15833SOL     OW49505   4.003   4.628   9.173  0.1686  0.2329  0.3844
15833SOL    HW149506   4.030   4.555   9.229  0.5415  1.0455  1.2796
15833SOL    HW249507   3.965   4.692   9.233 -2.6201 -0.2973 -0.6694
15834SOL     OW49508  10.792   3.710  10.872  0.5417  1.4457 -0.1033
15834SOL    HW149509  10.771   3.692  10.964 -0.0960  0.3065 -0.4520
15834SOL    HW249510  10.876   3.667  10.858 -0.7010 -0.9393 -0.7754
15835SOL     OW49511   8.163   3.472   2.403 -0.8079  0.5249 -0.1743
15835SOL    HW149512   8.126   3.558   2.421 -0.1913  0.3792  2.0815
15835SOL    HW249513   8.144   3.421   2.482  0.6838 -0.7396 -0.5894
15836SOL     OW49514   1.583   6.087   3.754  0.3919  0.1589 -0.1504
15836SOL    HW149515   1.597   5.994   3.737  1.4520  0.2833 -0.0392
15836SOL    HW249516   1.555   6.091   3.845  1.4656  0.0313  0.1938
15837SOL     OW49517   3.259   9.312   9.968 -0.0208  0.2292 -0.5952
15837SOL    HW149518   3.188   9.248   9.964  0.3192 -0.2497  0.5827
15837SOL    HW249519   3.271   9.328  10.061  3.1594 -1.6935 -0.5519
15838SOL     OW49520   1.551   5.889   9.061 -0.3877  0.0194  0.1865
15838SOL    HW149521   1.463   5.872   9.095 -1.4290  1.7044 -1.4467
15838SOL    HW249522   1.546   5.866   8.968  0.9152  0.1575  0.0598
15839SOL     OW49523   4.601   7.711   0.488 -0.0873  0.3066 -0.0044
15839SOL    HW149524   4.519   7.753   0.462  0.8433  0.3689 -3.3033
15839SOL    HW249525   4.653   7.782   0.526 -0.3507  1.0540 -0.9935
15840SOL     OW49526   9.150   9.010   3.605 -0.3893 -0.5610 -0.0166
15840SOL    HW149527   9.147   8.937   3.666 -1.4390 -0.7829 -0.3104
15840SOL    HW249528   9.089   9.074   3.641 -0.7447 -0.5441 -0.6307
15841SOL     OW49529   9.810   6.630   4.722 -0.0526 -0.2859 -0.0223
15841SOL    HW149530   9.842   6.712   4.760 -0.5864 -0.5715  1.0701
15841SOL    HW249531   9.839   6.633   4.631  2.1505 -0.0581  0.6325
15842SOL     OW49532   6.576   5.558   2.895  0.1065  0.1070 -0.2739
15842SOL    HW149533   6.499   5.580   2.842  1.4396  0.4161 -2.1629
15842SOL    HW249534   6.606   5.641   2.931  0.1102  0.1158 -0.2978
15843SOL     OW49535   8.298   2.682   5.750 -0.1106 -0.1807 -0.0972
15843SOL    HW149536   8.352   2.708   5.676  1.5192  0.9005  1.4066
15843SOL    HW249537   8.208   2.689   5.717  0.5492 -2.1174 -2.6967
15844SOL     OW49538   7.932   4.266   8.925  0.1511 -0.6809 -0.0570
15844SOL    HW149539   7.906   4.265   9.017  1.0049  0.5175  0.2187
15844SOL    HW249540   8.017   4.222   8.922  0.4624 -0.0850 -0.1512
15845SOL     OW49541   8.600   0.544   6.612 -0.2448 -0.2550 -0.0996
15845SOL    HW149542   8.571   0.634   6.595  0.4289 -0.3137 -1.7886
15845SOL    HW249543   8.540   0.489   6.562 -0.4775 -0.7326  0.6937
15846SOL     OW49544   2.900   3.778   7.738 -0.4939 -0.0344 -0.0388
15846SOL    HW149545   2.845   3.705   7.709 -2.8474  0.4517  2.7819
15846SOL    HW249546   2.869   3.853   7.687 -0.4081 -0.3422 -0.5483
15847SOL     OW49547   5.648   8.783  10.744 -0.1237 -0.2521 -0.4541
15847SOL    HW149548   5.648   8.696  10.704 -1.9536 -0.6571  0.3391
15847SOL    HW249549   5.579   8.780  10.810  0.1573  1.6320  0.0000
15848SOL     OW49550   6.857   2.662   4.677 -0.2973 -0.2025  0.4746
15848SOL    HW149551   6.809   2.688   4.598 -0.8074 -0.6743  0.6224
15848SOL    HW249552   6.892   2.744   4.711  0.4324 -0.0644 -0.5594
15849SOL     OW49553   0.444   9.188   5.435 -0.0975 -0.0731  0.2775
15849SOL    HW149554   0.363   9.138   5.443 -0.2865  0.4390  1.9705
15849SOL    HW249555   0.451   9.236   5.517  0.5360  2.0324 -0.9236
15850SOL     OW49556   9.679   0.094   0.713  0.6358 -0.0530 -0.0133
15850SOL    HW149557   9.755   0.075   0.768  2.2275 -0.4149 -2.1792
15850SOL    HW249558   9.699   0.179   0.674 -0.1289 -0.0843 -0.4961
15851SOL     OW49559   3.907   6.801   9.540  0.4529  0.4041 -0.0662
15851SOL    HW149560   3.936   6.792   9.449 -1.1118  2.0133 -0.8152
15851SOL    HW249561   3.840   6.733   9.551  2.5739 -1.6492  0.8560
15852SOL     OW49562   7.141   8.369   4.949 -0.0687  0.0369 -0.0954
15852SOL    HW149563   7.074   8.333   5.006 -0.5593  1.4655  0.2689
15852SOL    HW249564   7.190   8.430   5.004 -1.4409  2.5239 -1.4651
15853SOL     OW49565   8.875   3.671   4.579 -0.3141  0.1715 -0.5864
15853SOL    HW149566   8.942   3.720   4.626 -1.0255 -0.4100  1.1375
15853SOL    HW249567   8.918   3.644   4.497  2.1363 -1.4818  1.0812
15854SOL     OW49568   7.929   3.237   2.887 -0.0544  0.0363  0.6318
15854SOL    HW149569   7.960   3.255   2.976  1.2229 -2.9188  0.8986
15854SOL    HW249570   8.008   3.239   2.833 -0.6832  0.8420 -0.3039
15855SOL     OW49571   2.216   4.272   9.331  0.7036  0.5062 -0.2802
15855SOL    HW149572   2.253   4.332   9.266  2.4057  2.7189  2.4867
15855SOL    HW249573   2.124   4.298   9.337  0.5076  0.2639 -1.7116
15856SOL     OW49574   7.611   4.364   8.808  0.5478 -0.3133 -0.2928
15856SOL    HW149575   7.679   4.302   8.781  2.2950  1.0223  0.8367
15856SOL    HW249576   7.651   4.415   8.878 -1.5610  0.7031  0.2507
15857SOL     OW49577   3.331   8.841   2.448 -0.2511  1.1702  0.5130
15857SOL    HW149578   3.305   8.785   2.520  0.3894  2.1903  1.5671
15857SOL    HW249579   3.326   8.785   2.370 -2.8929  0.6011  1.0239
15858SOL     OW49580  10.059  10.463   0.348 -0.5152 -0.7528 -0.3914
15858SOL    HW149581   9.994  10.516   0.302  0.9021  2.1985  0.7065
15858SOL    HW249582  10.070  10.507   0.432  1.9464 -1.8791 -0.0397
15859SOL     OW49583   8.491   4.873   1.129 -0.3981 -0.5795  0.1024
15859SOL    HW149584   8.458   4.962   1.116  0.3873 -0.4502 -1.1064
15859SOL    HW249585   8.465   4.825   1.051 -0.0693 -1.1886  0.3558
15860SOL     OW49586   1.025   1.679   0.155 -0.2557 -0.0504 -0.5015
15860SOL    HW149587   0.970   1.603   0.136 -0.8241  0.0252  0.7581
15860SOL    HW249588   1.104   1.665   0.103  0.2642 -2.2345  0.7785
15861SOL     OW49589   2.958   1.506   9.003 -0.0331  0.1258  0.0091
15861SOL    HW149590   2.867   1.529   8.984  0.1674 -1.1341 -3.1105
15861SOL    HW249591   3.009   1.561   8.944  1.2529  0.7080  1.6196
15862SOL     OW49592   3.494  10.120   9.442  0.2291  0.4622  0.3453
15862SOL    HW149593   3.481  10.215   9.433  1.3349  0.6176  0.3280
15862SOL    HW249594   3.518  10.091   9.354 -0.8613  0.0240  0.1708
15863SOL     OW49595   7.898   0.624   7.251 -0.6853  0.5749  0.1127
15863SOL    HW149596   7.844   0.550   7.276  0.1729  0.1596  0.8135
15863SOL    HW249597   7.980   0.612   7.300  0.0788  1.1355 -0.9713
15864SOL     OW49598   0.635   1.340   6.508  0.8908  0.7634 -0.4768
15864SOL    HW149599   0.705   1.375   6.562  2.1803 -2.3780  0.1163
15864SOL    HW249600   0.654   1.373   6.420  2.9245  0.3325 -0.2531
15865SOL     OW49601   0.358   1.137   4.597 -0.3702  0.3981  0.1109
15865SOL    HW149602   0.287   1.112   4.656  0.1933 -0.2366  0.5211
15865SOL    HW249603   0.324   1.215   4.552 -2.2573 -1.1779 -1.3910
15866SOL     OW49604   2.809   4.249   1.416  0.3061  0.0186  0.0507
15866SOL    HW149605   2.889   4.300   1.403  1.0329 -1.5494 -2.3242
15866SOL    HW249606   2.751   4.276   1.345 -0.2663 -0.6780  0.2431
15867SOL     OW49607   6.996   3.473   7.285 -0.9224  0.2414  0.1300
15867SOL    HW149608   7.039   3.552   7.252 -0.3904  0.1282  0.5522
15867SOL    HW249609   6.965   3.429   7.206  0.4084 -0.0590 -0.2491
15868SOL     OW49610   2.268   3.047  10.715 -0.0032 -0.1829  0.2898
15868SOL    HW149611   2.277   2.954  10.735  0.9638 -1.1589 -3.7968
15868SOL    HW249612   2.353   3.085  10.737 -0.6398  0.0699  2.7132
15869SOL     OW49613   7.893   0.056   6.087  0.4535  0.2036 -0.1747
15869SOL    HW149614   7.957   0.059   6.158  0.0482  0.7318  0.1812
15869SOL    HW249615   7.932   0.107   6.017  0.5082  0.3578 -0.0327
15870SOL     OW49616   4.554   7.180   6.947 -0.1956 -1.2256  0.1228
15870SOL    HW149617   4.570   7.199   7.039 -0.0935 -1.7211  0.2140
15870SOL    HW249618   4.636   7.200   6.903 -0.4722 -0.2736  0.0175
15871SOL     OW49619   6.148   4.308   7.260 -0.3629 -1.0351  0.1481
15871SOL    HW149620   6.154   4.263   7.175 -1.9997 -0.3595 -0.3649
15871SOL    HW249621   6.190   4.248   7.321 -0.0452 -2.0028 -0.9688
15872SOL     OW49622   5.551   2.657   4.451  0.5147 -0.3605  0.9716
15872SOL    HW149623   5.506   2.584   4.411  0.1887 -0.2901  1.2019
15872SOL    HW249624   5.556   2.724   4.382 -1.1345  0.2355  1.3755
15873SOL     OW49625   9.362   6.952   9.642 -0.1787 -0.0912 -0.3107
15873SOL    HW149626   9.324   7.006   9.711 -0.8756  0.3445 -1.0181
15873SOL    HW249627   9.292   6.890   9.619 -0.5856  0.8874 -1.8062
15874SOL     OW49628   3.937   9.550   1.682  0.3423 -0.6942  0.3151
15874SOL    HW149629   3.893   9.465   1.687 -0.8934 -0.1193 -0.4862
15874SOL    HW249630   4.026   9.529   1.653 -0.3171 -1.6059 -1.1462
15875SOL     OW49631  10.955   2.429  10.719 -0.3298 -0.0293 -0.1435
15875SOL    HW149632  11.022   2.470  10.774  0.5102 -1.0532 -0.3658
15875SOL    HW249633  10.877   2.481  10.733  0.9324  2.3109 -1.1894
15876SOL     OW49634   8.196   9.125   5.347  0.6855 -0.3395  0.1282
15876SOL    HW149635   8.102   9.145   5.351  0.1747 -1.9466 -1.8972
15876SOL    HW249636   8.230   9.155   5.431 -1.2047  2.2661  0.1000
15877SOL     OW49637   5.227   4.145   8.919 -0.1869  0.4866 -0.0465
15877SOL    HW149638   5.153   4.103   8.875  0.4518  0.2383 -0.8990
15877SOL    HW249639   5.302   4.129   8.862  0.3366  1.6244  0.2855
15878SOL     OW49640   4.847   0.047   7.780 -0.0498  0.3321  1.1424
15878SOL    HW149641   4.891  -0.035   7.760 -1.0129  0.6702 -3.5560
15878SOL    HW249642   4.891   0.112   7.726 -3.8903  1.2931 -1.2703
15879SOL     OW49643   3.069   1.848   4.019 -0.6844 -0.3884 -0.4374
15879SOL    HW149644   2.992   1.873   3.969 -0.9722  0.1883  0.2742
15879SOL    HW249645   3.062   1.753   4.028 -1.2995 -0.3442 -0.4007
15880SOL     OW49646   0.375   6.182   1.439 -0.1606 -0.2492 -0.2997
15880SOL    HW149647   0.420   6.145   1.364 -0.6833 -0.2424 -0.6236
15880SOL    HW249648   0.443   6.226   1.490  0.3351 -1.0010 -0.3145
15881SOL     OW49649   6.280   1.373   5.884 -0.1638 -0.8128 -0.1035
15881SOL    HW149650   6.355   1.417   5.924 -2.0249  0.0337  2.7827
15881SOL    HW249651   6.299   1.279   5.895  0.4693 -0.6116  0.6470
15882SOL     OW49652   5.451   6.540   1.614 -0.0854 -0.1867 -0.5140
15882SOL    HW149653   5.471   6.549   1.707 -0.2647 -3.3212 -0.0670
15882SOL    HW249654   5.357   6.559   1.608 -0.1207 -0.1725  0.0006
15883SOL     OW49655   1.026   0.693   2.134 -0.2232 -0.1122  0.1569
15883SOL    HW149656   0.933   0.679   2.116 -0.0009 -1.8629  0.2119
15883SOL    HW249657   1.061   0.605   2.147  1.2374  0.5975  1.2133
15884SOL     OW49658  10.457   5.402   6.446 -0.2741 -0.2925  0.3882
15884SOL    HW149659  10.551   5.391   6.459 -0.1847 -2.5553 -1.5311
15884SOL    HW249660  10.448   5.433   6.356 -1.3626 -0.1869  0.5161
15885SOL     OW49661   9.522  10.111   3.747  0.0096  0.2520  0.2339
15885SOL    HW149662   9.455  10.167   3.708  1.6756  1.4741 -1.0207
15885SOL    HW249663   9.541  10.045   3.680  1.2998  1.0094 -0.1866
15886SOL     OW49664   4.097   2.981   5.526  0.5860 -0.2095  0.7201
15886SOL    HW149665   4.034   3.052   5.507  1.2909  0.8690  2.2387
15886SOL    HW249666   4.044   2.913   5.567  0.1172 -0.0307  0.4264
15887SOL     OW49667   5.093   2.533   3.326 -0.1032  0.3280 -0.1377
15887SOL    HW149668   5.134   2.514   3.242 -1.3620 -0.6039 -0.5809
15887SOL    HW249669   5.083   2.628   3.327  0.4045  0.3952 -0.8071
15888SOL     OW49670   0.092   0.535   9.220  0.1042  0.1988 -0.0005
15888SOL    HW149671   0.073   0.471   9.289  2.6113 -0.9908 -0.3168
15888SOL    HW249672   0.090   0.620   9.265 -3.6071  0.0964  0.3651
15889SOL     OW49673   1.583   1.627   7.708  0.5767  0.2012  0.3318
15889SOL    HW149674   1.621   1.712   7.686  2.5457 -0.4010  1.1804
15889SOL    HW249675   1.559   1.635   7.801 -2.4740  0.9048 -0.4237
15890SOL     OW49676   0.965   5.390   7.221 -0.7143  0.3720 -0.3465
15890SOL    HW149677   0.877   5.427   7.219 -0.8497  0.3820  2.3674
15890SOL    HW249678   1.023   5.466   7.233 -0.4451  0.2093 -0.5752
15891SOL     OW49679   5.295   1.335   3.427 -0.1544  0.1469 -0.0718
15891SOL    HW149680   5.263   1.381   3.504  2.7273  0.6229  0.9852
15891SOL    HW249681   5.315   1.404   3.364 -1.4476 -0.1628 -0.8518
15892SOL     OW49682   0.213   5.152   3.422 -0.5956 -0.6277  0.2596
15892SOL    HW149683   0.213   5.133   3.516 -0.0711 -4.6034 -0.3837
15892SOL    HW249684   0.306   5.165   3.401 -0.7677  0.9207  0.3176
15893SOL     OW49685   8.779   1.703   2.072 -0.1501 -0.3904  0.7802
15893SOL    HW149686   8.827   1.640   2.018 -1.0336 -1.2121  0.9171
15893SOL    HW249687   8.844   1.735   2.135  1.1751  1.3727 -1.3534
15894SOL     OW49688   9.957  10.358  10.460 -0.1212  0.2298  0.1074
15894SOL    HW149689   9.906  10.375  10.380  1.0163 -2.4062 -1.3023
15894SOL    HW249690   9.903  10.395  10.530 -2.2521  0.6980 -1.6455
15895SOL     OW49691   3.544   4.742   0.852  0.8435  0.9146 -0.2388
15895SOL    HW149692   3.626   4.746   0.803  0.7587 -2.2098 -0.8414
15895SOL    HW249693   3.536   4.829   0.893  2.1592  2.8349 -3.6662
15896SOL     OW49694   6.071   0.183   5.362 -0.0176  0.1491 -0.2559
15896SOL    HW149695   6.106   0.262   5.322  2.1449  0.7100  2.4756
15896SOL    HW249696   6.097   0.112   5.303  1.3050  1.1019 -0.8508
15897SOL     OW49697   7.088   0.504   6.397  0.1754 -0.1732  0.3859
15897SOL    HW149698   7.126   0.556   6.468  1.1565 -0.9467  0.4405
15897SOL    HW249699   7.146   0.518   6.323  0.6794 -1.4804  0.5110
15898SOL     OW49700   9.513   7.358   4.753 -0.3233 -0.2223 -0.0651
15898SOL    HW149701   9.452   7.368   4.681 -1.1301  1.8486  0.8522
15898SOL    HW249702   9.564   7.439   4.755 -1.3558  0.4830  2.5723
15899SOL     OW49703   5.660  10.004   8.325 -0.4332  0.1452 -0.1019
15899SOL    HW149704   5.673  10.092   8.361  4.8072 -0.8122  1.1791
15899SOL    HW249705   5.623   9.954   8.397  0.6267  0.3925  0.6262
15900SOL     OW49706   3.410   2.830   6.943  0.3628 -0.0770  0.2745
15900SOL    HW149707   3.424   2.738   6.966  1.8024  0.4811  1.8357
15900SOL    HW249708   3.488   2.875   6.974 -0.3418  1.7090 -0.3810
15901SOL     OW49709   8.324  10.593   7.636  0.5273 -0.7553 -0.3679
15901SOL    HW149710   8.403  10.539   7.636  0.3989 -0.9511 -0.7855
15901SOL    HW249711   8.313  10.618   7.544  0.0048 -0.8785 -0.3430
15902SOL     OW49712   1.715   4.632   9.610 -0.0742  0.4190  0.6204
15902SOL    HW149713   1.728   4.566   9.678  0.2330 -2.3352 -1.9084
15902SOL    HW249714   1.621   4.646   9.608 -0.0756  0.6421  1.6698
15903SOL     OW49715  10.689   5.179   8.037 -0.2248  0.4806  0.6940
15903SOL    HW149716  10.764   5.126   8.009 -1.8353 -0.8576 -1.3977
15903SOL    HW249717  10.654   5.215   7.956 -3.5846 -1.4040  1.1295
15904SOL     OW49718   1.117   9.013   6.345  0.3306  0.1111  0.1615
15904SOL    HW149719   1.044   8.969   6.388 -0.1554  1.2423  0.5286
15904SOL    HW249720   1.188   9.012   6.410  0.0712  0.5266  0.4569
15905SOL     OW49721   1.492   3.935  11.060 -0.8232 -0.7856  0.1793
15905SOL    HW149722   1.433   3.866  11.029 -1.9699  0.1513  0.1838
15905SOL    HW249723   1.480   4.006  10.997 -0.2076 -0.3253  0.5726
15906SOL     OW49724   6.927   0.575  10.032 -0.2964  0.2033 -0.8326
15906SOL    HW149725   6.843   0.547   9.995 -0.8210 -0.5484  0.8445
15906SOL    HW249726   6.949   0.509  10.097  2.2525 -0.2889 -2.0511
15907SOL     OW49727   5.906   3.415   5.933  0.1980 -0.6050 -0.2028
15907SOL    HW149728   5.863   3.451   6.011  0.0651 -0.1723 -0.4680
15907SOL    HW249729   5.841   3.357   5.894  0.3623 -1.0269  0.1548
15908SOL     OW49730  10.310  10.378   5.071 -0.4903 -0.2835  0.1632
15908SOL    HW149731  10.278  10.434   5.142 -0.9399  0.0166 -0.2653
15908SOL    HW249732  10.301  10.432   4.993  0.9042 -0.2623 -0.0028
15909SOL     OW49733   1.732   8.235   9.364  0.7899 -0.1911  0.1817
15909SOL    HW149734   1.790   8.206   9.434 -1.0318 -1.9202  1.0644
15909SOL    HW249735   1.664   8.285   9.408 -0.5360 -1.5358 -0.2557
15910SOL     OW49736   2.358   2.204   8.764 -0.4937 -0.9179 -0.0156
15910SOL    HW149737   2.296   2.158   8.707  1.4583 -2.7031 -0.8144
15910SOL    HW249738   2.376   2.286   8.718 -1.3445 -0.9012 -0.3445
15911SOL     OW49739   4.494   8.833   3.560 -0.4290  0.3345 -0.1168
15911SOL    HW149740   4.504   8.869   3.648 -0.5727 -0.6280  0.3097
15911SOL    HW249741   4.470   8.741   3.574 -0.7544  0.2433 -1.1598
15912SOL     OW49742  10.899   3.380   1.297  0.4301  0.1608  0.0901
15912SOL    HW149743  10.893   3.285   1.309  2.1380 -0.1366 -0.9542
15912SOL    HW249744  10.878   3.393   1.204 -1.8716  1.0800  0.6976
15913SOL     OW49745   8.698   3.566   2.031 -0.2515 -0.1623  0.1167
15913SOL    HW149746   8.614   3.541   1.994 -1.1468 -0.6390  2.2920
15913SOL    HW249747   8.719   3.649   1.989 -1.1319 -0.6948 -1.4365
15914SOL     OW49748   4.992   3.189   2.517 -0.3699  0.0789  0.2901
15914SOL    HW149749   4.905   3.216   2.486 -0.6948 -0.3002  0.8392
15914SOL    HW249750   5.053   3.228   2.455 -1.0312 -1.4520 -1.3976
15915SOL     OW49751   9.299  10.207   0.116 -0.7040  0.0174 -0.0031
15915SOL    HW149752   9.387  10.231   0.087 -1.2168  0.4058 -1.2755
15915SOL    HW249753   9.267  10.284   0.163 -1.3535  0.9056 -1.8297
15916SOL     OW49754   6.490   9.653   9.322 -0.2926 -0.0556 -0.5878
15916SOL    HW149755   6.563   9.594   9.301 -0.3037 -0.2789 -0.0162
15916SOL    HW249756   6.497   9.666   9.417  0.5856  2.0238 -0.8794
15917SOL     OW49757   7.254   4.010   2.269  0.4679 -0.0336  0.0100
15917SOL    HW149758   7.164   3.977   2.274 -0.0153  1.0378 -1.0853
15917SOL    HW249759   7.281   4.021   2.360  0.7843 -3.6406  0.5310
15918SOL     OW49760   5.878   3.940   2.999 -0.0922 -0.5946  0.1969
15918SOL    HW149761   5.954   3.998   3.011 -0.2410 -0.3137 -0.1983
15918SOL    HW249762   5.818   3.990   2.943 -1.3861 -0.0505  1.9818
15919SOL     OW49763   5.951   6.013   1.415 -0.4279  0.3156 -0.3132
15919SOL    HW149764   6.020   6.070   1.450  1.7487 -1.2661 -1.7887
15919SOL    HW249765   5.977   5.997   1.324 -2.4226 -0.8646 -0.7350
15920SOL     OW49766  10.173   0.808   1.617  0.1735 -0.0709  0.4012
15920SOL    HW149767  10.161   0.866   1.692  0.4052  1.6261 -0.7973
15920SOL    HW249768  10.267   0.812   1.598  0.3284 -1.4988  0.7699
15921SOL     OW49769   4.359  10.498  10.628 -0.2551  0.1416  0.0933
15921SOL    HW149770   4.356  10.564  10.558 -0.5000 -0.2732 -0.2915
15921SOL    HW249771   4.274  10.506  10.672 -0.3546 -0.0398 -0.0665
15922SOL     OW49772   6.600   4.395   8.754  0.0383 -0.3343  0.3816
15922SOL    HW149773   6.607   4.307   8.717  0.6876 -1.0739  2.1536
15922SOL    HW249774   6.688   4.431   8.749 -0.1075 -0.0005  0.1816
15923SOL     OW49775   5.581   2.672   9.720  0.4496 -0.0526 -0.3317
15923SOL    HW149776   5.634   2.665   9.799 -1.4821  1.6692  1.2285
15923SOL    HW249777   5.619   2.745   9.671  1.7107 -1.1860 -1.1256
15924SOL     OW49778   7.541   0.437  10.432 -0.5928  0.2725  0.5735
15924SOL    HW149779   7.612   0.376  10.451 -1.6079 -0.6153  1.7038
15924SOL    HW249780   7.584   0.517  10.402  0.8046 -0.7583 -0.2587
15925SOL     OW49781   0.064   2.637   7.336 -0.2931  0.6940  0.0678
15925SOL    HW149782   0.060   2.730   7.357 -0.4190  0.6589  0.2070
15925SOL    HW249783   0.131   2.602   7.395  1.0533  1.0108 -1.2225
15926SOL     OW49784   5.949  11.098   8.219  0.3204  0.6805 -0.1544
15926SOL    HW149785   5.975  11.143   8.138  0.8692  0.2280 -0.2404
15926SOL    HW249786   5.882  11.155   8.257  0.3092  1.0817 -0.7450
15927SOL     OW49787   0.424   9.127   1.941 -0.6742  0.0484  0.1596
15927SOL    HW149788   0.375   9.205   1.969 -1.8945 -0.7583  0.3496
15927SOL    HW249789   0.384   9.103   1.857 -0.1497 -0.2513 -0.0093
15928SOL     OW49790   8.275   7.754   5.135  0.3783 -0.1916  0.1024
15928SOL    HW149791   8.342   7.690   5.162 -0.0345  0.3398  2.6960
15928SOL    HW249792   8.202   7.700   5.105  0.3495 -0.9732  1.4618
15929SOL     OW49793   5.263   8.777   0.051 -0.1712  0.4294 -0.3535
15929SOL    HW149794   5.292   8.688   0.072 -3.5320 -0.8402 -0.4301
15929SOL    HW249795   5.306   8.797  -0.033 -0.8324 -1.9733 -1.3541
15930SOL     OW49796   1.674   1.206   1.627  0.2114 -0.2587 -1.0168
15930SOL    HW149797   1.601   1.159   1.666  0.8003 -1.6222 -1.5048
15930SOL    HW249798   1.641   1.235   1.542  0.1431 -0.6012 -1.1068
15931SOL     OW49799   7.644   2.396   7.419 -0.0346  0.2831 -0.0705
15931SOL    HW149800   7.702   2.360   7.486 -1.2565  1.2062  1.5452
15931SOL    HW249801   7.679   2.483   7.401  1.6408 -0.7754 -2.3911
15932SOL     OW49802  10.897  10.995   0.464  0.2952 -0.3464 -0.0928
15932SOL    HW149803  10.978  11.045   0.459  0.7265 -0.6567  2.3583
15932SOL    HW249804  10.919  10.908   0.430  0.9248 -0.3286  0.2590
15933SOL     OW49805   9.023   1.920   9.227 -0.7969 -0.2676 -0.1261
15933SOL    HW149806   8.989   1.831   9.237  1.8581 -1.5869 -1.7084
15933SOL    HW249807   9.052   1.924   9.136  3.1357  0.6424  0.9875
15934SOL     OW49808  10.250   4.532   0.781  0.4724 -0.2150  0.0628
15934SOL    HW149809  10.190   4.487   0.722  0.7804 -0.9513  0.3039
15934SOL    HW249810  10.213   4.620   0.790  1.0602  0.3079 -2.1259
15935SOL     OW49811   8.647   6.889   0.881  0.7500 -0.1197 -0.2246
15935SOL    HW149812   8.737   6.906   0.908  1.2194  2.8980 -3.0158
15935SOL    HW249813   8.595   6.958   0.924 -0.0104 -0.8873  0.1293
15936SOL     OW49814   8.838   7.178  10.668  0.2369 -0.7157  0.0618
15936SOL    HW149815   8.910   7.145  10.615  0.0456  0.2675 -0.8480
15936SOL    HW249816   8.798   7.100  10.707  1.1001 -1.3516 -0.3090
15937SOL     OW49817   2.861   6.236   1.364  0.0557 -0.6092 -0.0284
15937SOL    HW149818   2.865   6.206   1.274 -0.0256 -0.9433  0.0772
15937SOL    HW249819   2.946   6.278   1.379 -1.0766  2.3819 -1.2430
15938SOL     OW49820   5.719   0.347   8.891  0.7086  0.5536 -0.2933
15938SOL    HW149821   5.781   0.420   8.892  0.9626  0.3907  2.1044
15938SOL    HW249822   5.635   0.388   8.913  1.2260 -0.0048  3.4320
15939SOL     OW49823   5.173   6.369   8.566  0.4142 -0.0448  0.0005
15939SOL    HW149824   5.197   6.439   8.505  2.0713 -0.3850  0.2036
15939SOL    HW249825   5.253   6.317   8.575  0.3307  0.1487  2.6799
15940SOL     OW49826   5.222   2.384   2.130 -0.1441 -0.9036 -0.2941
15940SOL    HW149827   5.160   2.410   2.062 -2.1267  0.4644  1.8755
15940SOL    HW249828   5.227   2.289   2.123 -2.5790 -1.0716 -0.5300
15941SOL     OW49829   9.548   9.585  10.409  0.0732 -0.1783  0.2628
15941SOL    HW149830   9.521   9.548  10.493  2.1564 -2.3377  0.0959
15941SOL    HW249831   9.621   9.643  10.431 -0.2026  0.2577  0.0455
15942SOL     OW49832  10.598   6.713   4.476 -0.4947  0.2198 -0.0876
15942SOL    HW149833  10.604   6.628   4.434 -0.6865  0.7891 -1.3230
15942SOL    HW249834  10.510   6.714   4.515 -0.2944 -0.3380  0.3847
15943SOL     OW49835   4.879   0.023   2.173  0.1906 -0.3448  0.0458
15943SOL    HW149836   4.816   0.078   2.126 -0.0918 -0.0808  0.7224
15943SOL    HW249837   4.883  -0.057   2.122 -0.6593 -0.3415 -0.0406
15944SOL     OW49838   1.103  11.018  10.504 -1.0196 -0.4683  0.0843
15944SOL    HW149839   1.016  10.981  10.517 -0.8078 -0.6948  0.8790
15944SOL    HW249840   1.158  10.944  10.478 -1.1675 -0.2349 -0.9619
15945SOL     OW49841   0.040   2.874   1.782 -0.3264 -0.5635 -0.0057
15945SOL    HW149842   0.105   2.910   1.842  0.3941  0.8795 -1.5566
15945SOL    HW249843  -0.039   2.862   1.835  0.7175 -0.8264  1.5497
15946SOL     OW49844   0.993   3.901   6.371  0.0804  0.4722 -0.1556
15946SOL    HW149845   0.939   3.976   6.394 -0.7412 -0.5456  1.4331
15946SOL    HW249846   0.943   3.855   6.303 -1.9639 -1.2814  2.3192
15947SOL     OW49847  10.546   0.940   1.337 -0.2061 -0.3879  0.0545
15947SOL    HW149848  10.502   0.912   1.417  0.9654 -0.5268  0.6686
15947SOL    HW249849  10.554   1.035   1.346 -0.6505 -0.3226 -0.2051
15948SOL     OW49850   9.395   3.828   2.235  0.4600  0.5442  0.3596
15948SOL    HW149851   9.474   3.846   2.286  0.7726 -0.9942  0.4660
15948SOL    HW249852   9.419   3.754   2.180 -1.2145 -0.6583  1.1621
15949SOL     OW49853   9.096   4.975   1.300  0.0307  0.4135 -0.1595
15949SOL    HW149854   9.169   4.997   1.242  0.0898  0.2619 -0.1454
15949SOL    HW249855   9.042   5.053   1.302  0.8050  0.9445  0.7709
15950SOL     OW49856   2.667   7.892   7.649 -0.5901  0.1831  0.8161
15950SOL    HW149857   2.710   7.909   7.733  1.0269 -0.8815  0.2334
15950SOL    HW249858   2.630   7.977   7.624 -0.4202  0.6958  2.2244
15951SOL     OW49859   5.266   6.134   8.265  0.0042 -0.4552 -0.2553
15951SOL    HW149860   5.319   6.096   8.334 -0.4111 -2.0468 -0.7872
15951SOL    HW249861   5.242   6.061   8.208 -1.1136  0.5290 -1.1273
15952SOL     OW49862   6.866   8.672   2.389  0.0068  0.0149  0.0107
15952SOL    HW149863   6.848   8.765   2.378  0.1825 -0.0114 -0.5185
15952SOL    HW249864   6.781   8.629   2.380 -0.4342  0.2641  2.2249
15953SOL     OW49865   9.015  10.358   5.684 -0.4052  0.4342 -0.4429
15953SOL    HW149866   9.073  10.388   5.754 -3.1820  0.9606  1.8191
15953SOL    HW249867   8.968  10.284   5.723 -3.9069  2.3460 -0.6518
15954SOL     OW49868   2.326   7.894   7.339  0.3267  0.6188 -0.0456
15954SOL    HW149869   2.260   7.932   7.280  1.4969 -0.0047 -1.8447
15954SOL    HW249870   2.347   7.810   7.300 -0.4046 -0.8484  2.5084
15955SOL     OW49871   3.453   0.873   2.632 -0.8430  0.3558  0.1482
15955SOL    HW149872   3.470   0.967   2.636  0.3747  0.2972 -1.9339
15955SOL    HW249873   3.511   0.836   2.698  1.1716  0.8746 -1.2139
15956SOL     OW49874   7.446   9.646   3.996 -0.0129  0.1580 -0.3316
15956SOL    HW149875   7.357   9.632   3.966  0.8756 -2.2419 -2.2062
15956SOL    HW249876   7.500   9.636   3.918  2.1604 -2.3752  1.2875
15957SOL     OW49877   8.989   6.200   0.971  0.4006 -0.2548  0.5777
15957SOL    HW149878   8.943   6.190   1.054 -0.0365 -0.9790  0.2608
15957SOL    HW249879   8.941   6.144   0.910  1.4989 -0.7457  0.1410
15958SOL     OW49880   4.400   6.173   2.125 -0.4144 -0.4895  0.6525
15958SOL    HW149881   4.391   6.216   2.040 -0.4236 -1.0328  0.3734
15958SOL    HW249882   4.461   6.101   2.108 -0.6811 -0.8029  1.0305
15959SOL     OW49883  10.678   5.166   9.051 -0.2922  0.0574  0.2362
15959SOL    HW149884  10.692   5.135   8.962  0.9374 -0.2901  0.5322
15959SOL    HW249885  10.613   5.106   9.087 -1.3027  0.6113 -0.6287
15960SOL     OW49886   3.226   7.334   2.018 -0.0201 -0.3614 -0.2033
15960SOL    HW149887   3.315   7.345   2.052  0.3310 -2.5538 -0.2488
15960SOL    HW249888   3.180   7.283   2.085 -1.8373  2.2035  0.6317
15961SOL     OW49889   3.080   6.770   3.810 -0.0481 -0.1609  0.4793
15961SOL    HW149890   3.167   6.744   3.839  1.4214  1.7681 -1.8812
15961SOL    HW249891   3.055   6.841   3.870  0.0487 -0.6016  1.0530
15962SOL     OW49892   1.138  10.421   2.125 -0.2765  0.1529 -0.3177
15962SOL    HW149893   1.166  10.449   2.038 -0.9614 -0.3830 -0.7264
15962SOL    HW249894   1.099  10.335   2.110 -3.5036  1.4333 -0.0792
15963SOL     OW49895   7.189   8.362   6.433  0.7154  0.0604 -0.5759
15963SOL    HW149896   7.125   8.291   6.434 -1.4477  1.8480 -2.2625
15963SOL    HW249897   7.142   8.437   6.470  2.0194  1.2945 -1.3240
15964SOL     OW49898   0.544   0.701   2.964  0.7284 -0.6156  0.0533
15964SOL    HW149899   0.583   0.676   3.048 -0.0299 -1.0459  0.2906
15964SOL    HW249900   0.454   0.669   2.969  0.5201 -0.1877 -0.7227
15965SOL     OW49901   2.388   1.566   7.656 -0.8928  0.1920 -0.6392
15965SOL    HW149902   2.396   1.620   7.735  0.1987 -0.3665 -0.3404
15965SOL    HW249903   2.471   1.519   7.651 -0.3720  1.2252 -2.8918
15966SOL     OW49904   4.665   6.525   7.924  0.1585  0.1028  0.9147
15966SOL    HW149905   4.603   6.487   7.987 -0.6860  0.5725  0.3820
15966SOL    HW249906   4.615   6.591   7.877  0.9002  0.0731  0.0440
15967SOL     OW49907   9.675   2.330   2.987 -0.3339  0.1620  0.5088
15967SOL    HW149908   9.763   2.357   2.957 -0.3454  1.6523  1.6912
15967SOL    HW249909   9.679   2.336   3.082 -1.9775  1.1444  0.5524
15968SOL     OW49910   4.481   3.200   5.651 -0.3022  0.4501 -0.0098
15968SOL    HW149911   4.475   3.289   5.687  0.6351 -0.0157  1.3983
15968SOL    HW249912   4.516   3.212   5.563 -0.3717  1.4842  0.0834
15969SOL     OW49913   6.731   7.281   1.190  0.3971  0.0149  0.4313
15969SOL    HW149914   6.805   7.259   1.133  2.7161  0.8646  2.9045
15969SOL    HW249915   6.696   7.196   1.216 -0.8719 -0.3996 -2.2769
15970SOL     OW49916   8.255   2.595   6.967  0.3686 -0.0139  0.4380
15970SOL    HW149917   8.175   2.570   6.921  1.0073  0.0147 -0.7220
15970SOL    HW249918   8.326   2.570   6.908  1.2109  0.1703  1.3479
15971SOL     OW49919   9.948   6.914   3.669 -0.2977  0.2516  0.5371
15971SOL    HW149920   9.860   6.924   3.704 -0.0244  1.7264  0.8618
15971SOL    HW249921  10.006   6.925   3.745  0.2232  1.5379 -0.0099
15972SOL     OW49922   8.803   1.385   8.044  0.2685 -0.0820  0.0761
15972SOL    HW149923   8.897   1.404   8.043  0.0673  1.0848  1.0927
15972SOL    HW249924   8.774   1.404   7.955  0.8892  0.1534 -0.0818
15973SOL     OW49925   4.067   1.687   7.032  0.3598 -0.0217 -0.2259
15973SOL    HW149926   4.086   1.681   6.938  1.4204  0.3096 -0.0544
15973SOL    HW249927   3.983   1.643   7.043  1.2286 -1.9763 -1.0238
15974SOL     OW49928   4.454   5.664   9.381  0.5632  0.0573 -0.1125
15974SOL    HW149929   4.463   5.726   9.308 -1.5787  1.7329  0.9275
15974SOL    HW249930   4.512   5.591   9.358  1.8103  1.6164 -2.2797
15975SOL     OW49931   0.187   7.926   8.063  0.3431 -0.3093 -0.3678
15975SOL    HW149932   0.211   7.854   8.005  2.7363  0.8413 -0.9225
15975SOL    HW249933   0.118   7.973   8.017 -0.4391 -1.5457 -0.5126
15976SOL     OW49934   7.486   8.155   1.824 -0.7185 -0.7508  0.2692
15976SOL    HW149935   7.401   8.110   1.826 -0.7329 -0.6832  1.1548
15976SOL    HW249936   7.492   8.200   1.908 -0.2935  0.1558 -0.2349
15977SOL     OW49937   3.101   8.339   3.136  0.2391  0.0753  0.0568
15977SOL    HW149938   3.108   8.427   3.173 -1.6657  0.7366 -0.9724
15977SOL    HW249939   3.090   8.355   3.042 -0.9275 -1.2176 -0.0457
15978SOL     OW49940   2.526   2.407   1.445  0.5037 -0.1978 -0.6263
15978SOL    HW149941   2.435   2.431   1.461 -0.0682 -1.8458 -1.1546
15978SOL    HW249942   2.531   2.314   1.470  1.3143 -0.9296 -3.1618
15979SOL     OW49943   6.924   7.335  10.889 -0.4691  0.3728  0.0899
15979SOL    HW149944   6.892   7.245  10.902 -1.6284  0.7405 -0.1336
15979SOL    HW249945   6.890   7.384  10.964  1.9341  0.2333  1.4046
15980SOL     OW49946   2.116  10.899   4.072  0.5879 -0.1842 -0.3292
15980SOL    HW149947   2.179  10.902   4.144  2.3283 -0.3652 -1.7850
15980SOL    HW249948   2.067  10.817   4.087  0.6126  0.0031  0.8665
15981SOL     OW49949   7.745   1.168   7.515  0.6894 -0.1463  0.1794
15981SOL    HW149950   7.761   1.120   7.596  2.2015  0.5282  0.3174
15981SOL    HW249951   7.802   1.245   7.521  1.9398 -0.8081 -2.1463
15982SOL     OW49952  10.954   1.459   3.966  0.6964 -0.0685  0.3855
15982SOL    HW149953  10.897   1.456   3.890  0.6159  0.5300  0.4221
15982SOL    HW249954  11.042   1.439   3.932  0.4789 -0.9544  0.3251
15983SOL     OW49955   6.657   0.156   8.448 -0.5611 -0.1341  0.3745
15983SOL    HW149956   6.691   0.073   8.414 -0.9659  0.3850 -1.4028
15983SOL    HW249957   6.712   0.175   8.524 -0.4107 -1.9727  0.7819
15984SOL     OW49958   0.732   8.412   2.985 -0.1109 -0.5292  0.4681
15984SOL    HW149959   0.729   8.327   2.941  1.4499 -0.9166  1.0439
15984SOL    HW249960   0.710   8.475   2.917  2.9301 -1.0435 -1.1569
15985SOL     OW49961   1.793   7.602   4.277 -0.1475  0.0730 -0.4480
15985SOL    HW149962   1.849   7.650   4.339  0.7457 -0.8457 -0.5280
15985SOL    HW249963   1.805   7.649   4.194  1.1209 -0.5605 -0.6459
15986SOL     OW49964   5.616   3.732   9.675  0.2542 -0.2936  0.5514
15986SOL    HW149965   5.555   3.782   9.620  1.6588  0.7290 -0.1600
15986SOL    HW249966   5.566   3.712   9.754 -1.7584 -1.5826 -0.9531
15987SOL     OW49967   8.372   2.598   7.540  0.1131  0.2835  0.0746
15987SOL    HW149968   8.416   2.630   7.619 -0.4184  2.1322 -0.3334
15987SOL    HW249969   8.439   2.546   7.495  0.8308  0.3061  1.0774
15988SOL     OW49970   5.064   1.141   8.151  0.1085 -0.0097 -0.1840
15988SOL    HW149971   5.089   1.055   8.118  0.3426  0.2484 -0.6775
15988SOL    HW249972   4.968   1.138   8.153 -0.0413  0.6618 -2.8073
15989SOL     OW49973   5.492   2.616   0.815  0.6386 -0.0602  0.0504
15989SOL    HW149974   5.472   2.703   0.782 -2.3666 -1.0259 -1.0016
15989SOL    HW249975   5.454   2.614   0.903  0.7196 -0.2769  0.0822
15990SOL     OW49976   4.048   8.679   2.734 -0.5074 -0.3477 -0.5074
15990SOL    HW149977   4.096   8.607   2.774  0.0257 -0.0209 -0.5468
15990SOL    HW249978   4.077   8.757   2.782  1.1706  0.2527 -2.3322
15991SOL     OW49979   5.312   4.760   8.570  0.5031  0.1699 -0.0268
15991SOL    HW149980   5.349   4.848   8.576 -3.9483  2.2371  0.9070
15991SOL    HW249981   5.327   4.722   8.657  0.7974  0.7215  0.1703
15992SOL     OW49982   3.737  10.861   3.399 -0.2975 -0.1604  0.2696
15992SOL    HW149983   3.763  10.782   3.350  0.3892 -0.7153  1.4840
15992SOL    HW249984   3.767  10.844   3.488  1.7317  2.3416  0.1809
15993SOL     OW49985   8.699   4.517  10.218  0.1885 -0.4079 -0.4608
15993SOL    HW149986   8.774   4.489  10.270 -0.3694 -1.3915 -0.1624
15993SOL    HW249987   8.735   4.581  10.157  1.5968 -1.9917 -1.3913
15994SOL     OW49988   1.571   3.594   2.613  0.0674  0.1202 -0.1778
15994SOL    HW149989   1.505   3.529   2.590 -0.3641  1.0344 -1.7170
15994SOL    HW249990   1.583   3.585   2.707 -1.1552 -1.0739 -0.1078
15995SOL     OW49991   1.486   8.823   8.216 -0.1469 -0.0025  0.1645
15995SOL    HW149992   1.410   8.851   8.268 -0.3766 -2.4737  1.2823
15995SOL    HW249993   1.550   8.796   8.282  0.8193 -0.1591 -0.8252
15996SOL     OW49994   4.596   5.475   4.927  0.5772 -0.0426 -0.1346
15996SOL    HW149995   4.603   5.461   5.021  0.3579 -1.2587 -0.2773
15996SOL    HW249996   4.686   5.470   4.895  0.5396 -0.9971 -0.1402
15997SOL     OW49997   5.992  10.067   8.541 -0.7437  0.0953  0.1847
15997SOL    HW149998   5.920  10.007   8.522  0.8165 -1.8885  0.2489
15997SOL    HW249999   6.056  10.051   8.472  0.4211  0.4745  1.1388
15998SOL     OW50000   2.151   2.325   3.916 -0.0472  0.2946 -0.0673
15998SOL    HW150001   2.122   2.243   3.957  0.4497  0.2806  0.2732
15998SOL    HW250002   2.240   2.337   3.948  0.1548  0.5758 -0.7202
15999SOL     OW50003   8.380   1.257   8.933  0.7148  0.0252  0.0126
15999SOL    HW150004   8.433   1.336   8.943 -0.4122  0.8275 -0.1397
15999SOL    HW250005   8.442   1.185   8.945  1.8838  0.9207 -0.4546
16000SOL     OW50006   7.151   1.899   0.733  0.2317 -0.0115 -0.6825
16000SOL    HW150007   7.150   1.905   0.828 -0.6964  1.2475 -0.7380
16000SOL    HW250008   7.242   1.883   0.710  0.7637  1.3405  0.3574
16001SOL     OW50009   7.595   9.572  10.800 -0.5584 -0.4363  0.5103
16001SOL    HW150010   7.657   9.557  10.871 -1.0758 -0.2024  1.0152
16001SOL    HW250011   7.509   9.554  10.838 -0.8329 -0.4227 -0.0858
16002SOL     OW50012   5.823   2.778   1.889 -0.8028  0.4807 -0.7539
16002SOL    HW150013   5.890   2.802   1.825 -1.0780  2.4798 -0.3453
16002SOL    HW250014   5.865   2.711   1.943  0.9505  1.7686 -0.4190
16003SOL     OW50015   5.505   7.197   3.521 -0.3056  0.4277  0.4390
16003SOL    HW150016   5.424   7.184   3.572 -2.5058 -0.0444 -2.8585
16003SOL    HW250017   5.569   7.140   3.563 -2.2965 -0.8195  1.9930
16004SOL     OW50018   8.570  11.055   7.974  0.2933  0.1121  0.2928
16004SOL    HW150019   8.615  11.127   8.018  0.0692  1.1278 -1.0673
16004SOL    HW250020   8.482  11.089   7.957  0.1254 -0.5530 -0.2070
16005SOL     OW50021   0.227   9.232   3.498 -0.1616  0.0738 -0.4170
16005SOL    HW150022   0.199   9.147   3.533  0.1551 -0.6092 -1.7430
16005SOL    HW250023   0.145   9.278   3.479 -0.4903 -1.4621 -3.2182
16006SOL     OW50024   1.250   0.179   9.031  0.4429 -0.1808 -0.6458
16006SOL    HW150025   1.193   0.253   9.051  1.7200  1.3352 -2.2336
16006SOL    HW250026   1.224   0.152   8.942  0.0082 -1.6612 -0.1013
16007SOL     OW50027  10.829   7.109   6.175  0.0028  0.1619  0.2306
16007SOL    HW150028  10.885   7.158   6.115 -0.5094  1.2475  0.6078
16007SOL    HW250029  10.813   7.170   6.248  0.2138 -0.9502  1.2281
16008SOL     OW50030   9.206   3.858   5.360 -0.0155 -0.5686 -0.7524
16008SOL    HW150031   9.180   3.770   5.331  1.2531 -0.7469 -1.4189
16008SOL    HW250032   9.256   3.893   5.286 -2.8829  1.8750 -1.7225
16009SOL     OW50033  10.852   7.339   5.400 -0.1520 -0.3495 -0.7799
16009SOL    HW150034  10.890   7.364   5.315  2.6757  0.1705  0.5222
16009SOL    HW250035  10.874   7.247   5.410  0.1352 -0.2364 -0.3366
16010SOL     OW50036   9.820   2.425   3.669 -0.1334 -0.3562  0.1321
16010SOL    HW150037   9.842   2.510   3.708 -0.0459 -0.7171  0.9064
16010SOL    HW250038   9.892   2.368   3.694 -0.8199 -0.9850  0.7488
16011SOL     OW50039  11.066   0.083   2.990  0.3534  0.4139 -0.5697
16011SOL    HW150040  11.072  -0.003   3.032 -0.0357  0.3842 -0.5628
16011SOL    HW250041  11.094   0.068   2.900  1.3231  0.5054 -0.2887
16012SOL     OW50042   8.636   7.107   5.519 -0.4628  1.0087  0.3727
16012SOL    HW150043   8.564   7.171   5.520 -0.9813  0.4703 -0.7373
16012SOL    HW250044   8.641   7.078   5.428  1.6247  1.5232  0.2585
16013SOL     OW50045   4.070   4.289   8.421  0.0642  0.3815  0.0567
16013SOL    HW150046   4.051   4.320   8.510  0.1975  0.2095  0.1446
16013SOL    HW250047   4.165   4.286   8.416  0.0677  0.8002 -0.2336
16014SOL     OW50048   1.214   1.850   5.548  0.0124  0.2513 -0.6109
16014SOL    HW150049   1.256   1.777   5.593 -1.7800 -1.1761 -1.1312
16014SOL    HW250050   1.129   1.859   5.591  0.3520  2.3861 -0.2442
16015SOL     OW50051   9.820   5.723   7.184 -0.0320 -0.1707 -0.1442
16015SOL    HW150052   9.743   5.761   7.142 -1.0493 -2.3406 -0.3680
16015SOL    HW250053   9.873   5.690   7.112 -1.0882 -2.6197  0.1093
16016SOL     OW50054  10.103   4.140   5.813 -0.0256  0.3121 -0.3429
16016SOL    HW150055  10.031   4.149   5.750 -1.3661  0.2051  1.1057
16016SOL    HW250056  10.179   4.119   5.759 -0.6908  2.0233 -2.1043
16017SOL     OW50057  10.221  10.629   7.989  0.5361  0.8125  0.1225
16017SOL    HW150058  10.148  10.596   7.936 -0.2262  0.5692  1.3051
16017SOL    HW250059  10.232  10.720   7.960  1.4954  0.0992 -1.9089
16018SOL     OW50060   8.904   3.873   5.892 -0.3589  0.0423  0.4125
16018SOL    HW150061   8.920   3.779   5.886  0.0585  0.1236  0.2265
16018SOL    HW250062   8.809   3.880   5.902 -0.4672 -0.3733 -0.2263
16019SOL     OW50063   7.987   3.928   4.797  0.3418  0.8301 -0.3078
16019SOL    HW150064   7.944   3.939   4.712 -0.9617  2.8203  0.5330
16019SOL    HW250065   8.080   3.937   4.778  0.1987 -0.3548 -1.7262
16020SOL     OW50066   2.934   6.846   8.821  0.3263  0.0874 -0.4108
16020SOL    HW150067   3.000   6.872   8.757 -0.5285  4.4268  0.1676
16020SOL    HW250068   2.863   6.910   8.810 -1.1167 -0.6911  2.9421
16021SOL     OW50069   1.248   0.187   8.140  0.1527 -0.3453  0.4681
16021SOL    HW150070   1.273   0.177   8.232  0.6329 -2.4020  0.1481
16021SOL    HW250071   1.152   0.187   8.141  0.1460  0.4010  1.0123
16022SOL     OW50072  10.161   9.449   5.164 -0.3463 -0.1222 -0.2571
16022SOL    HW150073  10.066   9.445   5.154 -0.7841  2.3047  1.7389
16022SOL    HW250074  10.175   9.516   5.231  2.7697 -0.8822  0.0151
16023SOL     OW50075   7.943  10.447   1.288  0.0397 -0.2055 -0.1033
16023SOL    HW150076   8.005  10.518   1.274  0.2515 -0.6553 -1.7119
16023SOL    HW250077   7.859  10.481   1.257 -0.6032  0.4213  2.1123
16024SOL     OW50078   2.608   2.337   8.952  0.0962  0.2386  0.1455
16024SOL    HW150079   2.659   2.327   8.872  0.0877 -2.1755  0.3839
16024SOL    HW250080   2.597   2.248   8.985 -1.3788  1.0171  1.9189
16025SOL     OW50081   7.646   2.267   1.439 -0.5342  0.2936 -0.9143
16025SOL    HW150082   7.683   2.257   1.351 -0.8733  2.6228 -1.3885
16025SOL    HW250083   7.551   2.258   1.426 -0.4980 -1.0156 -0.4669
16026SOL     OW50084   6.154   3.033   2.545 -0.2067  0.1003 -0.0664
16026SOL    HW150085   6.077   3.059   2.594  0.2643 -0.8861  1.2659
16026SOL    HW250086   6.127   2.955   2.496  0.0737 -0.6325  0.8988
16027SOL     OW50087   1.144   9.755   0.091 -0.1208 -0.2860 -0.0425
16027SOL    HW150088   1.114   9.839   0.055  0.4245  0.0402  0.2466
16027SOL    HW250089   1.070   9.723   0.143 -0.3989 -0.0728 -0.3070
16028SOL     OW50090   9.466   9.663   7.662  0.2830  1.3279 -0.7265
16028SOL    HW150091   9.484   9.729   7.728 -1.9305  0.8108  0.4853
16028SOL    HW250092   9.375   9.677   7.638 -0.2003 -1.1278 -0.5774
16029SOL     OW50093   5.008   2.075   4.865  0.3084  0.0328 -0.4057
16029SOL    HW150094   5.081   2.059   4.805  0.0259  0.4136 -0.8579
16029SOL    HW250095   4.958   1.993   4.863 -0.5211  0.5295 -1.8587
16030SOL     OW50096   0.541   5.613   2.116 -0.3698 -0.1179 -0.0528
16030SOL    HW150097   0.455   5.642   2.145 -1.6644 -3.9563  0.5908
16030SOL    HW250098   0.534   5.609   2.021 -0.9677 -0.4549 -0.0004
16031SOL     OW50099   8.462   6.610   0.711  0.0771 -0.0364 -0.5563
16031SOL    HW150100   8.555   6.627   0.696  0.2686  1.8239  1.9729
16031SOL    HW250101   8.461   6.545   0.782 -0.3827  1.9443  1.3826
16032SOL     OW50102   3.206  10.872   2.802  0.3153  0.3298 -0.5669
16032SOL    HW150103   3.189  10.960   2.768  2.0284  0.0935 -2.2109
16032SOL    HW250104   3.301  10.865   2.804  0.2274 -1.1081  0.6595
16033SOL     OW50105   6.141   4.183   6.788  0.0868 -0.1515  0.3792
16033SOL    HW150106   6.104   4.137   6.712  0.9247 -0.7175  0.2969
16033SOL    HW250107   6.176   4.113   6.843 -1.2259  0.1685  1.7158
16034SOL     OW50108  11.056   5.358   7.637 -0.1633 -0.1417  0.0445
16034SOL    HW150109  11.083   5.340   7.547  1.1426  3.9109 -0.5854
16034SOL    HW250110  11.114   5.428   7.666 -0.5373 -1.2767  4.1226
16035SOL     OW50111   4.976   5.733   0.766 -0.2765  0.2726  0.7503
16035SOL    HW150112   4.927   5.655   0.743  1.7540 -0.8499 -0.0649
16035SOL    HW250113   4.922   5.806   0.735 -2.0762 -0.7836  1.2873
16036SOL     OW50114   4.743   9.491   5.505 -0.2282 -0.6229 -0.6068
16036SOL    HW150115   4.666   9.471   5.558  1.0416 -0.2725  1.4662
16036SOL    HW250116   4.775   9.574   5.540  1.1618 -0.8250 -1.3483
16037SOL     OW50117   0.047   2.349   8.448 -0.3224 -0.4538  0.4705
16037SOL    HW150118   0.038   2.273   8.391 -1.8543 -1.7431  2.3004
16037SOL    HW250119  -0.035   2.397   8.438  0.9378  1.4989 -1.2760
16038SOL     OW50120   5.192  10.696   8.381 -0.5747 -0.2128  0.3407
16038SOL    HW150121   5.175  10.619   8.436 -2.1092  0.1606  0.4594
16038SOL    HW250122   5.287  10.700   8.373 -0.3593 -0.8755  2.1229
16039SOL     OW50123  10.279   6.003  10.861  0.0409  0.2233  0.4438
16039SOL    HW150124  10.345   5.964  10.919 -0.7715 -0.7136  0.7783
16039SOL    HW250125  10.249   5.931  10.806 -0.4644  0.7075  0.0663
16040SOL     OW50126   8.796   8.073   4.855  0.5912  0.7501  0.4765
16040SOL    HW150127   8.870   8.037   4.807 -0.7752  0.8245 -1.8400
16040SOL    HW250128   8.719   8.052   4.801 -0.7327  3.3426  1.1727
16041SOL     OW50129   0.117   0.421   1.484  0.8837  0.1742 -0.0583
16041SOL    HW150130   0.029   0.427   1.448  1.0047  0.4758 -0.2982
16041SOL    HW250131   0.105   0.376   1.568  0.0589  3.0097  1.4733
16042SOL     OW50132   0.703   1.873   5.350  0.2056  0.2587  0.8145
16042SOL    HW150133   0.704   1.889   5.256  2.7109 -0.4729  0.6262
16042SOL    HW250134   0.796   1.874   5.375 -0.3351 -0.4853  3.1010
16043SOL     OW50135   0.409   9.558   7.274 -0.4189 -0.3198 -0.2743
16043SOL    HW150136   0.494   9.603   7.274 -0.0627 -0.8170  2.2864
16043SOL    HW250137   0.383   9.556   7.367 -2.9169 -0.7928 -0.9066
16044SOL     OW50138   2.425   6.851   8.735 -0.1025  0.4643 -0.1575
16044SOL    HW150139   2.410   6.757   8.733 -4.0984  0.9099 -2.6931
16044SOL    HW250140   2.493   6.867   8.670  0.2695 -0.6145 -0.0495
16045SOL     OW50141   8.969   4.037   0.427  0.4340  0.1792 -0.2156
16045SOL    HW150142   8.904   4.020   0.359  0.1929  0.9540 -0.1825
16045SOL    HW250143   8.935   3.992   0.504  0.1914  0.1587 -0.3327
16046SOL     OW50144   4.639   6.869   2.437  0.4111 -0.7280 -0.2053
16046SOL    HW150145   4.666   6.871   2.345  0.6830 -1.1394 -0.1367
16046SOL    HW250146   4.554   6.912   2.438  0.0155 -1.4660 -0.7867
16047SOL     OW50147   7.454   8.178   6.930  0.7863 -0.2010 -0.0423
16047SOL    HW150148   7.399   8.234   6.985 -0.7472 -0.2558 -1.4545
16047SOL    HW250149   7.544   8.199   6.957  0.1344 -0.0885  2.3288
16048SOL     OW50150   3.482   3.375   4.952  0.2436  0.1757  0.9701
16048SOL    HW150151   3.531   3.325   5.017 -0.3475 -0.0181  1.2701
16048SOL    HW250152   3.407   3.410   4.999 -0.1168  0.1534  0.4313
16049SOL     OW50153   5.466   0.450   7.112  0.4562  0.2189 -0.2181
16049SOL    HW150154   5.466   0.529   7.165  2.4427 -0.4075  0.8301
16049SOL    HW250155   5.520   0.474   7.036  0.6404  0.0274 -0.1473
16050SOL     OW50156   3.387   1.976   5.203  0.2619 -0.5792  0.0823
16050SOL    HW150157   3.428   2.049   5.155 -0.7743  1.1717  1.7150
16050SOL    HW250158   3.455   1.949   5.266  0.4977 -0.7375 -0.2371
16051SOL     OW50159   8.952   9.424   4.322  0.9573 -0.0197  0.3023
16051SOL    HW150160   8.983   9.507   4.286  0.5385  0.6409  1.4196
16051SOL    HW250161   8.886   9.448   4.387 -0.7969 -1.3301 -0.9068
16052SOL     OW50162   8.586   2.181   9.336 -0.2933  0.1814  0.0008
16052SOL    HW150163   8.535   2.159   9.258  0.0633 -1.1162  0.0992
16052SOL    HW250164   8.667   2.219   9.303  0.0553 -0.7890 -0.3061
16053SOL     OW50165  10.751   3.580  10.009  0.6678 -0.1841  0.2038
16053SOL    HW150166  10.795   3.546  10.087 -0.2016 -0.4954  0.5668
16053SOL    HW250167  10.733   3.672  10.031 -0.0259 -0.4061  0.5717
16054SOL     OW50168   9.841   5.569   3.397  0.0007 -0.0167 -0.4903
16054SOL    HW150169   9.856   5.660   3.371 -1.8250  0.5575  0.2841
16054SOL    HW250170   9.773   5.538   3.338  0.3828 -0.7983 -0.5367
16055SOL     OW50171   8.471   9.155  10.588 -0.4266 -0.0734  0.1104
16055SOL    HW150172   8.498   9.063  10.599 -1.5832 -0.5389 -0.7620
16055SOL    HW250173   8.503   9.179  10.501 -0.5703  0.1949  0.1318
16056SOL     OW50174   1.697   4.087   3.111 -0.1228  0.1430 -0.0797
16056SOL    HW150175   1.748   4.139   3.172 -0.8171 -0.2042  0.8113
16056SOL    HW250176   1.666   4.013   3.163 -0.2625 -0.4548 -0.9920
16057SOL     OW50177   3.915   7.445   8.643  0.2013  0.3952 -0.0818
16057SOL    HW150178   3.928   7.453   8.549  1.3017  0.8441  0.0935
16057SOL    HW250179   3.854   7.372   8.653  2.8662 -2.1266 -1.0166
16058SOL     OW50180   3.632   7.950   5.256 -0.2142  0.3711 -0.0487
16058SOL    HW150181   3.627   7.869   5.306  0.4496  1.0839  1.1971
16058SOL    HW250182   3.543   7.963   5.223  0.2878 -2.6195 -3.2392
16059SOL     OW50183  10.052   1.511   3.694 -0.3942 -0.3055  0.1364
16059SOL    HW150184  10.042   1.602   3.720 -2.8361 -0.5395  0.2411
16059SOL    HW250185  10.055   1.463   3.777  0.2220 -0.3792  0.0728
16060SOL     OW50186   8.738   3.287   2.172  0.9054  0.4052 -0.2000
16060SOL    HW150187   8.768   3.375   2.193  2.3319  0.1084 -0.8112
16060SOL    HW250188   8.781   3.231   2.236 -0.0740  0.1538  0.2485
16061SOL     OW50189  10.814   2.206   1.656  0.3040  0.1656 -0.7816
16061SOL    HW150190  10.856   2.162   1.582  2.4457 -0.0327  0.4740
16061SOL    HW250191  10.764   2.138   1.699 -0.5374  0.1662 -1.7326
16062SOL     OW50192   1.356   8.603  10.294 -0.0780  0.4243  0.1768
16062SOL    HW150193   1.356   8.609  10.199  0.0002  1.7234  0.2339
16062SOL    HW250194   1.447   8.620  10.319  0.3610 -1.9408  0.4227
16063SOL     OW50195   9.531   9.918   0.407 -0.1195 -0.5384  1.1235
16063SOL    HW150196   9.570   9.992   0.453  1.4900 -0.2662 -0.5229
16063SOL    HW250197   9.530   9.945   0.315 -3.9342 -0.7165  0.9615
16064SOL     OW50198   6.932   4.690   9.456  0.1786 -0.2702 -0.2813
16064SOL    HW150199   7.020   4.708   9.424 -0.3076 -1.1700 -2.2828
16064SOL    HW250200   6.875   4.708   9.382 -1.1297 -1.6317  0.3365
16065SOL     OW50201  10.004   6.587   5.271  0.6678 -0.1615  0.4704
16065SOL    HW150202   9.924   6.631   5.240  1.6974 -0.2845 -2.7539
16065SOL    HW250203   9.996   6.587   5.366 -2.9516  0.2254  0.3125
16066SOL     OW50204   2.157   3.068   1.576  0.0633  0.5596  0.1815
16066SOL    HW150205   2.210   3.146   1.564 -0.7400  1.1034  0.0986
16066SOL    HW250206   2.218   3.003   1.612  0.5750  1.4397  0.9498
16067SOL     OW50207   4.789   7.203   4.142 -0.1036  0.2673 -0.0497
16067SOL    HW150208   4.873   7.171   4.109  0.0515  3.7763 -3.8699
16067SOL    HW250209   4.813   7.260   4.216  0.7747  0.4179 -0.4292
16068SOL     OW50210   7.907   3.628   1.967 -0.0148  0.3357  0.0286
16068SOL    HW150211   7.839   3.686   2.001  0.2202  0.8573 -0.3793
16068SOL    HW250212   7.951   3.680   1.900 -0.3144 -0.5866 -0.9042
16069SOL     OW50213   3.565  10.750   5.275  0.0785 -0.1197  0.0802
16069SOL    HW150214   3.632  10.786   5.216  0.7396  1.8309  1.8869
16069SOL    HW250215   3.601  10.666   5.303  0.9716  0.1238 -0.2860
16070SOL     OW50216   6.961   7.731   9.964  0.1558 -0.3694  0.5611
16070SOL    HW150217   6.905   7.664  10.005 -1.6230  1.4114  1.1950
16070SOL    HW250218   6.900   7.789   9.919  1.7252  0.4030 -0.6485
16071SOL     OW50219   6.843   2.210  10.167 -0.1839 -0.3692 -0.1534
16071SOL    HW150220   6.834   2.201  10.072 -0.7835 -0.3755 -0.1026
16071SOL    HW250221   6.934   2.236  10.181  0.1413 -1.2045 -0.6715
16072SOL     OW50222   1.456   3.097   5.536 -0.3063 -0.1258 -0.4934
16072SOL    HW150223   1.527   3.160   5.549 -0.8787  0.1883  1.4295
16072SOL    HW250224   1.456   3.044   5.616 -0.3072 -2.1279 -1.7455
16073SOL     OW50225   2.747   9.546   0.705 -0.6682 -0.0031  0.5785
16073SOL    HW150226   2.652   9.550   0.710 -0.8435 -1.1033 -1.1473
16073SOL    HW250227   2.777   9.570   0.793 -2.4991  0.9704  0.9722
16074SOL     OW50228   3.173   6.904   5.036  0.5766  0.0457  0.6635
16074SOL    HW150229   3.133   6.990   5.023 -0.1427 -0.3479  0.1965
16074SOL    HW250230   3.102   6.842   5.020  0.8720 -0.6219  1.8492
16075SOL     OW50231   5.212   5.535   1.686  0.5581  0.6224 -0.9211
16075SOL    HW150232   5.207   5.449   1.728  0.8939  0.8254 -0.4576
16075SOL    HW250233   5.135   5.582   1.718  0.6634  0.6792 -0.7492
16076SOL     OW50234   5.264   8.761   1.000 -0.3756 -0.9548 -0.0906
16076SOL    HW150235   5.182   8.714   0.985 -1.3154 -0.7312  3.3245
16076SOL    HW250236   5.264   8.833   0.937 -1.7927 -2.1367 -1.4853
16077SOL     OW50237   4.538   3.468   2.424  0.3127 -0.3899 -0.6052
16077SOL    HW150238   4.619   3.520   2.432 -1.0469  1.6096  1.3742
16077SOL    HW250239   4.561   3.399   2.362  2.9935  1.1652 -1.5687
16078SOL     OW50240   2.160   2.480   4.690 -0.3131 -0.1445  0.5300
16078SOL    HW150241   2.164   2.392   4.728  1.2636  1.5057  4.7680
16078SOL    HW250242   2.066   2.500   4.686 -0.6205 -1.4307  0.9803
16079SOL     OW50243   8.706   6.553   7.932  0.8352  0.6223  0.0433
16079SOL    HW150244   8.762   6.477   7.917  1.6578  1.3422 -0.6756
16079SOL    HW250245   8.656   6.564   7.852  0.7979  0.8925  0.0995
16080SOL     OW50246   0.421   2.932   3.085  0.0663  0.1268  0.1592
16080SOL    HW150247   0.478   2.974   3.021 -0.7779  1.9644  0.5566
16080SOL    HW250248   0.451   2.841   3.088 -0.2292 -0.2242 -3.2561
16081SOL     OW50249   6.042   8.848   3.850  0.3731 -0.0014 -0.2271
16081SOL    HW150250   5.972   8.788   3.823  1.0075 -1.9263  2.0973
16081SOL    HW250251   6.107   8.842   3.781 -0.1704 -0.9762 -0.6774
16082SOL     OW50252   0.251   7.965   6.051 -0.0045  0.7931 -0.0499
16082SOL    HW150253   0.230   8.025   5.979  0.3872 -0.3030 -1.1033
16082SOL    HW250254   0.263   7.880   6.009  2.8346  0.5985  0.9594
16083SOL     OW50255   9.701   6.661   0.204  0.0108 -0.3658 -0.2227
16083SOL    HW150256   9.637   6.604   0.248 -2.6476  1.8670 -0.9152
16083SOL    HW250257   9.704   6.740   0.258 -0.8933  1.1435 -2.2485
16084SOL     OW50258   0.770  11.024   5.114  0.0072  0.1026  0.6997
16084SOL    HW150259   0.780  11.035   5.209  0.5945 -0.7629  0.7524
16084SOL    HW250260   0.854  11.052   5.078  0.4541 -1.2828  0.6047
16085SOL     OW50261   3.040   4.156   5.325 -0.0667 -0.3061  0.2954
16085SOL    HW150262   3.126   4.120   5.302  0.1483 -0.0248  0.6422
16085SOL    HW250263   3.059   4.245   5.354 -0.6446  0.2949 -1.0729
16086SOL     OW50264   8.751   8.017   0.444  0.0260 -0.1655 -0.3774
16086SOL    HW150265   8.769   7.990   0.354  0.9208 -0.6234 -0.0710
16086SOL    HW250266   8.747   7.935   0.494  0.5557  0.1395  0.1772
16087SOL     OW50267  10.635   1.521  10.367  0.6463  0.2393  0.5646
16087SOL    HW150268  10.598   1.532  10.279 -0.8442  1.6040  1.3183
16087SOL    HW250269  10.631   1.608  10.406  0.2194 -0.5473  2.3942
16088SOL     OW50270   6.315   3.769   4.308  0.2447  0.1801  0.0135
16088SOL    HW150271   6.226   3.778   4.275  0.7251  2.1326 -0.9728
16088SOL    HW250272   6.321   3.679   4.339 -1.6933 -0.3615 -1.0095
16089SOL     OW50273   1.783   3.476   6.974  0.0866  0.3558 -0.2702
16089SOL    HW150274   1.790   3.384   6.948 -2.3323 -0.5848  1.9785
16089SOL    HW250275   1.708   3.509   6.925 -1.1890  0.0819  1.4256
16090SOL     OW50276   3.364   3.317  10.948  0.2730 -0.2056  0.0837
16090SOL    HW150277   3.429   3.293  11.014  0.4793  3.2449  1.3139
16090SOL    HW250278   3.287   3.263  10.970  1.3196 -1.2768  1.2666
16091SOL     OW50279   1.775   1.129   0.480  0.1222 -0.3453  0.9222
16091SOL    HW150280   1.741   1.137   0.391 -1.2034  0.0933  1.4427
16091SOL    HW250281   1.801   1.038   0.488  0.9373 -0.2282 -0.1327
16092SOL     OW50282   4.139   8.161  10.118 -0.2861 -0.2701  0.5012
16092SOL    HW150283   4.226   8.160  10.159 -0.9878 -0.5847  2.0552
16092SOL    HW250284   4.157   8.171  10.025  1.4191 -0.2858  0.7894
16093SOL     OW50285   9.790   8.547   8.262 -0.1420 -0.0138  0.6370
16093SOL    HW150286   9.773   8.641   8.259 -0.3634 -0.0384 -2.4174
16093SOL    HW250287   9.730   8.514   8.328 -2.7931  1.5833 -0.7805
16094SOL     OW50288   3.446   2.395   1.585 -0.0129 -0.3504 -0.0884
16094SOL    HW150289   3.417   2.429   1.500 -1.3920 -1.4306 -0.0890
16094SOL    HW250290   3.473   2.305   1.567  1.0764 -0.1236  0.3705
16095SOL     OW50291   4.663   9.562   0.063  0.0209 -0.0792  0.0680
16095SOL    HW150292   4.676   9.526   0.151 -0.5458  0.1076  0.2313
16095SOL    HW250293   4.739   9.619   0.049 -0.5583  0.9595  0.9926
16096SOL     OW50294   8.968   7.541   2.153 -0.2597 -0.7635  0.4544
16096SOL    HW150295   8.992   7.521   2.063 -0.3444 -0.9148  0.4652
16096SOL    HW250296   9.009   7.626   2.170  0.5074 -1.1499  0.5734
16097SOL     OW50297   8.451  10.284   9.035 -0.3692  0.6291  0.1294
16097SOL    HW150298   8.470  10.240   9.118 -0.3188 -0.4649 -0.4455
16097SOL    HW250299   8.453  10.214   8.969  0.1387  1.5667 -0.8813
16098SOL     OW50300   1.128   6.398   9.345  0.4525  0.2883  0.0803
16098SOL    HW150301   1.121   6.307   9.376  1.5294  0.2375  0.2240
16098SOL    HW250302   1.046   6.439   9.372  0.0685 -0.5670  0.2625
16099SOL     OW50303   3.535   8.442   6.635  0.0049 -0.0928  0.3283
16099SOL    HW150304   3.521   8.479   6.722  0.8146 -2.1242  1.4011
16099SOL    HW250305   3.608   8.492   6.598  1.3993 -0.8401  1.9281
16100SOL     OW50306   1.305   9.843   7.347 -0.4078  0.5685 -0.5598
16100SOL    HW150307   1.332   9.765   7.299 -1.4437  0.6888 -1.3733
16100SOL    HW250308   1.387   9.880   7.380  0.2834  0.1702 -1.7570
16101SOL     OW50309   3.007   2.201   1.634 -0.5481  0.0617 -0.2362
16101SOL    HW150310   3.014   2.259   1.709  1.6672 -3.9362  3.0892
16101SOL    HW250311   2.914   2.179   1.628 -0.6713 -0.2544  2.1070
16102SOL     OW50312   9.047   9.668  10.082  0.6735 -0.2882  0.0133
16102SOL    HW150313   9.035   9.573  10.091  0.7676 -0.2730  0.3002
16102SOL    HW250314   9.023   9.686   9.991 -1.1525 -0.2999  0.4630
16103SOL     OW50315   5.997  10.154   9.307  0.1284  0.2371  0.6312
16103SOL    HW150316   6.070  10.112   9.354 -0.2821  1.6713  2.6971
16103SOL    HW250317   5.919  10.131   9.359 -0.7722 -0.3373 -0.9090
16104SOL     OW50318   1.631  10.292   7.385 -0.6344  0.2970  0.0642
16104SOL    HW150319   1.698  10.361   7.384  0.5721 -0.7380  2.1021
16104SOL    HW250320   1.549  10.338   7.366  0.2951  2.0749  0.0787
16105SOL     OW50321   7.274   3.619   9.174  0.3699 -0.7120 -0.7862
16105SOL    HW150322   7.347   3.679   9.156  1.7295 -1.9420  0.4018
16105SOL    HW250323   7.200   3.658   9.129  1.6555  0.8312 -1.6712
16106SOL     OW50324   3.193   3.209   5.033 -0.2016 -0.0681  0.0986
16106SOL    HW150325   3.106   3.240   5.058 -0.1707 -0.7931  1.1661
16106SOL    HW250326   3.252   3.247   5.098  0.3877  0.9957 -1.0363
16107SOL     OW50327  10.962   4.647   4.068  0.1593 -0.7978 -0.0549
16107SOL    HW150328  11.022   4.721   4.063 -1.6930  0.9282  1.3945
16107SOL    HW250329  10.909   4.654   3.988 -0.6808  0.0942  0.5659
16108SOL     OW50330   4.081   2.150   4.249  0.2017  0.5887 -0.4282
16108SOL    HW150331   3.997   2.171   4.290  0.5511  1.1970 -0.0038
16108SOL    HW250332   4.145   2.163   4.319  0.5448 -1.0456 -0.4038
16109SOL     OW50333   3.529   6.069   9.891 -0.0846 -0.1302 -0.1623
16109SOL    HW150334   3.610   6.055   9.841 -0.6296  0.0366 -1.1109
16109SOL    HW250335   3.462   6.022   9.842 -0.9267  1.3357 -0.4606
16110SOL     OW50336   2.805  10.031   0.118  0.0379  1.0547 -0.0319
16110SOL    HW150337   2.737   9.973   0.081  0.4989  0.2784  0.3108
16110SOL    HW250338   2.791  10.115   0.074  0.6628  0.1399 -2.1284
16111SOL     OW50339   9.287   2.537   1.226  0.1246 -0.2726 -0.1939
16111SOL    HW150340   9.310   2.480   1.300 -0.2501 -0.2105 -0.0244
16111SOL    HW250341   9.192   2.531   1.220  0.3264 -2.4724 -2.4640
16112SOL     OW50342   3.744   7.503   2.392  0.1223 -0.1674  0.5399
16112SOL    HW150343   3.775   7.568   2.329  1.7791 -0.7416  0.7121
16112SOL    HW250344   3.669   7.544   2.434 -1.2151  0.1336 -1.9597
16113SOL     OW50345   5.997   6.407   2.911  0.1899 -0.2525 -0.4186
16113SOL    HW150346   6.076   6.450   2.877  0.9450 -0.4426  1.0043
16113SOL    HW250347   6.006   6.413   3.006 -1.7410  0.0957 -0.2264
16114SOL     OW50348   6.425   3.653   2.233 -0.2854  0.0037  0.0466
16114SOL    HW150349   6.486   3.688   2.168 -1.0339 -0.2131 -0.7807
16114SOL    HW250350   6.472   3.663   2.317  1.8796 -2.2812 -0.7571
16115SOL     OW50351   8.476   3.851   4.490 -0.3884 -0.0814 -0.7361
16115SOL    HW150352   8.412   3.892   4.432 -0.3921  0.0161 -0.6625
16115SOL    HW250353   8.526   3.793   4.433 -2.6561 -2.7092 -0.2764
16116SOL     OW50354   4.810   5.992   3.204  0.4837  0.3943  0.0569
16116SOL    HW150355   4.871   6.040   3.260  2.1038 -0.7903 -0.6049
16116SOL    HW250356   4.811   6.039   3.121  1.0135  0.0357 -0.1505
16117SOL     OW50357   0.417   1.237   0.535 -0.3245  0.3111  0.4687
16117SOL    HW150358   0.333   1.282   0.524 -0.0152  1.1610  1.3738
16117SOL    HW250359   0.481   1.298   0.499 -0.0054  0.1270  0.7207
16118SOL     OW50360   1.533   5.265   2.467  0.2072 -0.0248  0.4557
16118SOL    HW150361   1.524   5.177   2.429  3.4356 -0.3582  0.2228
16118SOL    HW250362   1.476   5.320   2.413  0.7163 -1.3937 -1.6055
16119SOL     OW50363   1.357   3.771   5.967 -0.4772  0.1978 -0.2696
16119SOL    HW150364   1.331   3.834   6.034  0.2909  0.5047 -0.2554
16119SOL    HW250365   1.275   3.728   5.942 -0.7734  0.0141  0.9253
16120SOL     OW50366   9.313   2.621   5.930  0.1243  0.1139 -0.0043
16120SOL    HW150367   9.248   2.636   5.861 -0.1800  0.0600  0.2688
16120SOL    HW250368   9.363   2.703   5.933 -0.8649  0.7182  0.7666
16121SOL     OW50369  10.456   6.851   9.362 -0.0653 -0.3365 -0.3601
16121SOL    HW150370  10.467   6.844   9.267 -0.8291  1.5087 -0.6242
16121SOL    HW250371  10.472   6.943   9.381 -0.3765 -0.5869  1.2494
16122SOL     OW50372   4.193   3.363   0.995  0.1452 -0.0497 -0.2218
16122SOL    HW150373   4.217   3.345   1.086 -1.6748  0.0795  0.3210
16122SOL    HW250374   4.276   3.362   0.947  1.0034 -1.3791  1.2201
16123SOL     OW50375  10.634   3.301   6.542  0.1940 -0.5118  0.4909
16123SOL    HW150376  10.724   3.306   6.575  0.0079 -2.7193  1.5493
16123SOL    HW250377  10.586   3.255   6.611 -1.9259  1.1186  0.2090
16124SOL     OW50378   8.454   4.084   1.670  0.0102 -0.3678  0.3529
16124SOL    HW150379   8.422   4.170   1.646  1.5020  0.3122  0.6587
16124SOL    HW250380   8.435   4.077   1.764 -0.2266 -0.4187  0.3004
16125SOL     OW50381   7.268   6.977   5.146  0.3354 -0.0452  0.6690
16125SOL    HW150382   7.238   6.984   5.236  1.0310 -0.6917  0.9696
16125SOL    HW250383   7.333   7.047   5.136 -1.5980  1.7092 -0.1496
16126SOL     OW50384   2.549   4.290   8.423 -0.1853  0.5593  0.4665
16126SOL    HW150385   2.486   4.340   8.371  0.8555  1.1572 -0.2636
16126SOL    HW250386   2.505   4.206   8.440 -0.5917  0.3544 -1.3422
16127SOL     OW50387   4.472   8.128   2.543  0.4378  0.1872  0.0190
16127SOL    HW150388   4.397   8.104   2.598 -0.6341  0.7166 -1.1551
16127SOL    HW250389   4.528   8.180   2.600 -0.6980  0.8116  0.6001
16128SOL     OW50390   9.940   8.171   9.467 -0.3761  0.0612 -0.0798
16128SOL    HW150391   9.988   8.254   9.470  0.0424 -0.1584  3.5893
16128SOL    HW250392   9.873   8.179   9.535 -0.9001 -2.3226 -0.2208
16129SOL     OW50393   4.460   5.130   5.009 -0.2523 -0.0604  1.1740
16129SOL    HW150394   4.420   5.051   4.972  0.0263  1.5108 -2.9603
16129SOL    HW250395   4.554   5.117   4.999 -0.0642 -0.1230  2.7435
16130SOL     OW50396  10.412   7.121   9.357  0.6196  0.3555 -0.1271
16130SOL    HW150397  10.353   7.188   9.391  1.9558  0.9708  1.0915
16130SOL    HW250398  10.388   7.112   9.265 -2.3973 -0.5775  0.6604
16131SOL     OW50399   2.984  10.087   9.625  0.2550  0.3923  0.8564
16131SOL    HW150400   2.973  10.146   9.551 -1.0129 -0.1746  0.5468
16131SOL    HW250401   3.046  10.021   9.594 -2.6582 -1.7502 -1.0594
16132SOL     OW50402  10.270   0.452   9.514  0.5755 -1.1940 -0.3803
16132SOL    HW150403  10.205   0.395   9.553 -0.3921  0.2100  0.1523
16132SOL    HW250404  10.247   0.455   9.421  0.1823 -1.1112 -0.2826
16133SOL     OW50405   5.028   8.255   4.832 -0.1621 -0.0525  0.0388
16133SOL    HW150406   5.001   8.216   4.749 -1.7945  1.3581 -0.1675
16133SOL    HW250407   5.097   8.318   4.808 -0.0059 -0.2806 -0.1128
16134SOL     OW50408  10.142   0.281   3.867  0.0360 -0.6167  0.1010
16134SOL    HW150409  10.161   0.205   3.922  1.1349  0.3138  1.0707
16134SOL    HW250410  10.223   0.296   3.818  0.4161  0.8678  1.1196
16135SOL     OW50411   4.862   8.881   9.510 -0.5998 -0.6169  0.6134
16135SOL    HW150412   4.887   8.812   9.572  0.8651  0.2121  0.9752
16135SOL    HW250413   4.766   8.885   9.518 -0.7564 -2.7109  0.4336
16136SOL     OW50414   2.856   4.346   4.028  0.1530  0.5419  0.0678
16136SOL    HW150415   2.828   4.255   4.028 -2.2638  1.2350  0.2677
16136SOL    HW250416   2.804   4.389   3.960 -0.9017  2.3287  1.8792
16137SOL     OW50417   6.104   6.436   3.627 -0.0301 -0.1110 -0.5462
16137SOL    HW150418   6.066   6.507   3.678  1.6710  0.2591  0.2946
16137SOL    HW250419   6.029   6.392   3.587 -1.3174  0.4944  1.0906
16138SOL     OW50420   3.733  11.006   8.207  0.2056  0.9621  0.2019
16138SOL    HW150421   3.655  10.983   8.157  0.6828 -0.7741  0.1635
16138SOL    HW250422   3.793  11.043   8.142  0.6516 -0.8569 -0.4971
16139SOL     OW50423   7.242   3.506   1.677  0.3967 -0.1000  0.1629
16139SOL    HW150424   7.330   3.480   1.706 -0.3814 -2.1241  0.9606
16139SOL    HW250425   7.227   3.455   1.597  1.4100  3.2879 -2.4141
16140SOL     OW50426   3.639   2.821   2.482  0.5036 -0.2784  0.4296
16140SOL    HW150427   3.573   2.884   2.511 -0.1277 -1.6992  2.2696
16140SOL    HW250428   3.651   2.840   2.389 -2.6283 -0.0530 -0.0261
16141SOL     OW50429   4.657   3.917   7.038  0.2800  0.0090  0.4657
16141SOL    HW150430   4.562   3.910   7.026 -0.1615 -0.5181  3.4954
16141SOL    HW250431   4.680   4.001   6.999 -1.5311  0.3954  0.1614
16142SOL     OW50432   6.398   9.278   6.116  0.3269 -0.2511 -0.5449
16142SOL    HW150433   6.465   9.219   6.150  1.6577 -0.2532 -2.9594
16142SOL    HW250434   6.437   9.365   6.125  0.6158 -0.2355 -1.7766
16143SOL     OW50435   7.538   2.212   5.974  0.6363  0.4337 -0.4905
16143SOL    HW150436   7.489   2.138   5.939  1.4639  0.2882 -1.3606
16143SOL    HW250437   7.579   2.178   6.053  0.1170  0.2880 -0.2779
16144SOL     OW50438   4.697   3.058   6.956 -0.1262  0.4578 -0.3005
16144SOL    HW150439   4.612   3.027   6.986  0.3504 -0.7326 -0.1354
16144SOL    HW250440   4.719   3.129   7.017 -0.1298 -0.5242  0.8727
16145SOL     OW50441  10.208   1.286   3.320 -0.0198 -0.2130  0.5381
16145SOL    HW150442  10.293   1.292   3.276 -1.3201 -2.1730 -2.6016
16145SOL    HW250443  10.149   1.340   3.266 -1.2259 -0.7841  1.2452
16146SOL     OW50444   5.374   9.572   5.928  0.5823 -0.2605 -0.5835
16146SOL    HW150445   5.416   9.582   6.014  0.1395  2.7387 -0.6283
16146SOL    HW250446   5.301   9.512   5.945  0.6500  0.0641  1.0748
16147SOL     OW50447   9.568  10.453   2.887  1.0120  0.7004 -0.3001
16147SOL    HW150448   9.573  10.420   2.977 -1.3522  1.4825  0.1912
16147SOL    HW250449   9.616  10.536   2.890  0.4163  1.0338  0.4348
16148SOL     OW50450   8.790   4.269   9.011  0.3093 -0.7254  0.1100
16148SOL    HW150451   8.731   4.327   9.060  1.2146  0.2281  0.0854
16148SOL    HW250452   8.877   4.286   9.046  1.2336  1.0125 -2.7026
16149SOL     OW50453  10.392   0.736   4.896  0.1736 -0.1756  0.2640
16149SOL    HW150454  10.354   0.683   4.826 -0.6314  0.5105  0.1577
16149SOL    HW250455  10.351   0.822   4.885  3.3892  1.3178 -1.2223
16150SOL     OW50456   6.487   1.074  10.159  0.1135 -0.3784  0.5377
16150SOL    HW150457   6.542   1.146  10.127 -3.6208  4.5040  3.5627
16150SOL    HW250458   6.438   1.045  10.083  0.3770  1.7390 -0.5176
16151SOL     OW50459   6.360   9.423   4.154  0.5022  0.4637  0.8866
16151SOL    HW150460   6.446   9.419   4.195  0.4808  2.9734  1.3281
16151SOL    HW250461   6.303   9.459   4.222 -1.0019 -1.4269  0.7009
16152SOL     OW50462   8.290   3.184   4.660 -0.2903  0.7028 -0.3707
16152SOL    HW150463   8.292   3.223   4.573 -1.7335 -0.9260 -1.2009
16152SOL    HW250464   8.269   3.092   4.644 -0.7417  0.3972  1.7135
16153SOL     OW50465   1.812   2.806   1.442 -0.7399 -0.6978 -0.6732
16153SOL    HW150466   1.746   2.784   1.377 -0.8489 -1.2598 -0.3826
16153SOL    HW250467   1.818   2.901   1.439 -0.6950 -0.7237 -1.5406
16154SOL     OW50468   0.252  10.361   5.044 -0.5195  0.3303  0.0021
16154SOL    HW150469   0.160  10.380   5.026 -0.5701  0.0632 -0.0176
16154SOL    HW250470   0.273  10.415   5.120 -0.6686  0.4518 -0.0410
16155SOL     OW50471   8.061   8.590   4.429  0.4419  0.2952  0.1879
16155SOL    HW150472   8.081   8.503   4.394 -1.8989  1.3802 -4.6379
16155SOL    HW250473   7.969   8.584   4.455  0.6005  1.0639  0.9595
16156SOL     OW50474   9.013   7.542   4.678  0.1308  0.2315 -0.4169
16156SOL    HW150475   9.104   7.523   4.655  0.7964  1.8496  0.7048
16156SOL    HW250476   8.965   7.532   4.595  1.8927  2.6078 -1.8625
16157SOL     OW50477   7.293   6.228   8.445  0.2595  0.6188 -0.1024
16157SOL    HW150478   7.355   6.293   8.479  1.2215 -0.6510  0.6749
16157SOL    HW250479   7.321   6.145   8.485 -0.9743 -0.2661 -0.9967
16158SOL     OW50480   0.419   4.911   4.350 -0.8514  0.4518 -0.2115
16158SOL    HW150481   0.335   4.956   4.359 -0.5092  0.9738  0.3688
16158SOL    HW250482   0.478   4.976   4.312  0.0794  1.0534  2.1063
16159SOL     OW50483   0.358  10.713   2.341 -0.1297  0.6109 -0.2124
16159SOL    HW150484   0.273  10.757   2.351 -0.4027  0.3349 -1.2582
16159SOL    HW250485   0.359  10.649   2.413 -1.4676 -0.3925 -1.0167
16160SOL     OW50486   6.459   4.303   6.141  0.2197 -0.0441  0.5121
16160SOL    HW150487   6.385   4.353   6.106 -0.5041 -1.1489  0.4184
16160SOL    HW250488   6.448   4.215   6.104  2.0820 -0.0178 -0.2342
16161SOL     OW50489   7.490  10.380   6.218  0.3876 -0.4410 -0.4756
16161SOL    HW150490   7.519  10.297   6.256  0.5250 -0.6786 -1.0826
16161SOL    HW250491   7.444  10.354   6.139 -1.0731 -0.0342  0.2179
16162SOL     OW50492   1.530   2.410   6.752  0.0455  0.1274  0.4942
16162SOL    HW150493   1.527   2.316   6.738 -0.7950  0.1698  0.3387
16162SOL    HW250494   1.548   2.447   6.666 -4.2622  0.3385 -0.5518
16163SOL     OW50495  10.497   6.115   6.245  0.0792  0.1454  0.3497
16163SOL    HW150496  10.420   6.172   6.246  0.1899  0.4263 -1.6448
16163SOL    HW250497  10.474   6.045   6.183  0.7664 -0.7592  1.0950
16164SOL     OW50498   4.095   0.945   8.463  0.3133  0.2808 -0.1011
16164SOL    HW150499   4.167   0.894   8.499 -0.4970  0.3477  1.7233
16164SOL    HW250500   4.017   0.911   8.506 -0.4570  1.8378 -0.1685
16165SOL     OW50501   9.912   8.511   7.066  0.0815  0.3035  0.3261
16165SOL    HW150502   9.924   8.420   7.036  1.9055  0.7827 -0.5376
16165SOL    HW250503   9.880   8.503   7.156  0.6680 -1.2062  0.4277
16166SOL     OW50504   2.035   1.218   5.507  0.7738 -0.0551 -0.2971
16166SOL    HW150505   1.974   1.238   5.578  0.9628 -2.7827  0.7479
16166SOL    HW250506   2.108   1.279   5.521 -0.0355  0.7220  0.6932
16167SOL     OW50507   1.113   6.295   4.569  0.7451 -0.2856  0.9908
16167SOL    HW150508   1.191   6.330   4.610  1.4933 -1.6795  0.8439
16167SOL    HW250509   1.052   6.279   4.641  0.9238  0.0263  1.2077
16168SOL     OW50510  10.556   8.813   8.353  0.0342 -0.1217 -0.4866
16168SOL    HW150511  10.651   8.799   8.361 -0.2225 -2.3741 -0.6311
16168SOL    HW250512  10.530   8.848   8.438  0.9252 -0.0521 -0.2304
16169SOL     OW50513   9.435   9.714   3.761  0.8979 -0.0788  0.9108
16169SOL    HW150514   9.480   9.697   3.844  1.5327  0.8598  0.7657
16169SOL    HW250515   9.497   9.765   3.710  0.6481 -0.9413 -0.2938
16170SOL     OW50516   1.823   9.130   1.598  0.5776  0.1239 -0.0664
16170SOL    HW150517   1.865   9.046   1.614 -1.2775 -0.5096  1.8251
16170SOL    HW250518   1.736   9.122   1.636 -1.4335  1.3245 -3.8290
16171SOL     OW50519   1.416   5.788   1.045  0.2274  0.4454  0.2425
16171SOL    HW150520   1.389   5.871   1.085 -0.8252  0.6495 -0.8560
16171SOL    HW250521   1.381   5.721   1.103  0.1000  0.7499  0.5216
16172SOL     OW50522  10.320   1.322   2.459 -0.6302  0.4246  0.2850
16172SOL    HW150523  10.337   1.404   2.503 -0.0807 -0.3288  1.5274
16172SOL    HW250524  10.407   1.288   2.437 -0.6837 -0.9308  1.9301
16173SOL     OW50525   0.834   0.111   2.672  0.0498  0.3482  0.2268
16173SOL    HW150526   0.744   0.100   2.704 -0.3337  1.8197 -0.2467
16173SOL    HW250527   0.826   0.175   2.601  1.1186 -1.3704 -1.5662
16174SOL     OW50528   8.124   5.294   8.053 -0.2955  0.2620  0.2619
16174SOL    HW150529   8.097   5.257   8.137 -1.4295 -0.3377 -0.3391
16174SOL    HW250530   8.087   5.382   8.053 -0.7987  0.0514  0.1498
16175SOL     OW50531   8.953   6.830   5.838 -0.5930 -0.3431 -0.0326
16175SOL    HW150532   8.888   6.781   5.787 -1.7444 -0.2608  1.2665
16175SOL    HW250533   8.987   6.766   5.901 -0.4112 -0.0457  0.1750
16176SOL     OW50534   8.441   9.257   2.299  0.8569  0.0821 -0.1029
16176SOL    HW150535   8.483   9.329   2.252  0.1592 -0.2546 -1.2769
16176SOL    HW250536   8.431   9.289   2.388 -2.8439  3.0470 -1.3230
16177SOL     OW50537  10.330  10.128   4.281  0.2306 -0.2301  0.1002
16177SOL    HW150538  10.254  10.080   4.249  0.1616 -1.8923  2.4572
16177SOL    HW250539  10.404  10.071   4.262  0.1224 -1.5893  3.1384
16178SOL     OW50540   7.954   1.648   7.673  0.4534 -0.5107 -0.2418
16178SOL    HW150541   7.895   1.716   7.639  0.5247 -0.8822 -1.1491
16178SOL    HW250542   7.995   1.688   7.750  2.5808  1.5732 -2.2648
16179SOL     OW50543   4.244   6.117  10.117 -0.4034  0.4496 -0.1518
16179SOL    HW150544   4.217   6.188  10.058 -0.4142  0.4074 -0.1977
16179SOL    HW250545   4.289   6.054  10.060 -0.5789  0.3187 -0.1483
16180SOL     OW50546   2.128  10.884   6.004 -0.4001  0.0568 -0.2436
16180SOL    HW150547   2.076  10.808   5.979  2.3296 -1.9079 -0.3673
16180SOL    HW250548   2.066  10.957   6.003 -2.6977 -1.7645 -2.2234
16181SOL     OW50549   1.511   4.661   3.148 -0.0924 -0.3549 -0.5252
16181SOL    HW150550   1.545   4.656   3.058 -2.5556  2.6327 -1.7910
16181SOL    HW250551   1.511   4.570   3.178  1.0275 -1.4601 -3.4554
16182SOL     OW50552   0.303   2.803   7.115 -0.1804  0.1324  0.0469
16182SOL    HW150553   0.211   2.819   7.096 -0.0964  1.4170  0.6047
16182SOL    HW250554   0.315   2.837   7.204  1.2939  2.0295 -0.8004
16183SOL     OW50555   7.950   0.302  10.917 -0.3302  0.2627  0.3565
16183SOL    HW150556   7.967   0.246  10.992 -2.0548 -2.1414 -0.8894
16183SOL    HW250557   7.957   0.391  10.951  1.7248 -0.6578  2.6487
16184SOL     OW50558   1.173   1.124   0.212 -0.0516  0.1633 -0.3521
16184SOL    HW150559   1.093   1.173   0.232  0.2240  0.4886 -0.0367
16184SOL    HW250560   1.162   1.040   0.258  0.7312  1.0294  1.5475
16185SOL     OW50561   7.756   4.572  10.563  0.3227  0.0384  0.8196
16185SOL    HW150562   7.771   4.525  10.646  0.4539  1.2624  1.5102
16185SOL    HW250563   7.836   4.623  10.550  0.4133 -0.3482 -0.2147
16186SOL     OW50564   8.819   7.471   4.185  0.0211  0.2752 -0.1316
16186SOL    HW150565   8.823   7.560   4.151 -0.5889 -0.1811 -1.4628
16186SOL    HW250566   8.863   7.417   4.119  1.0316 -0.3250  1.0044
16187SOL     OW50567   1.668   6.405   9.961  0.1834  0.1704  0.4783
16187SOL    HW150568   1.613   6.478   9.930  0.5618  0.0322 -0.5480
16187SOL    HW250569   1.724   6.384   9.886 -0.7002 -1.9383  0.3553
16188SOL     OW50570   9.670   8.627   3.962  1.3424  0.1121 -0.5163
16188SOL    HW150571   9.578   8.646   3.980  1.1303 -0.6104 -0.8185
16188SOL    HW250572   9.692   8.686   3.889  0.7689 -0.5769 -1.2595
16189SOL     OW50573   6.306   2.400   6.762 -0.6614  0.5272  0.1138
16189SOL    HW150574   6.261   2.426   6.681  1.2422  0.4886 -1.0317
16189SOL    HW250575   6.342   2.314   6.743 -0.5578  0.3269  1.1744
16190SOL     OW50576   5.282  10.835   8.795  0.0206 -0.2181 -1.1989
16190SOL    HW150577   5.257  10.776   8.865  2.1118 -0.0851 -0.2595
16190SOL    HW250578   5.322  10.779   8.729  2.9922  0.1101  0.1599
16191SOL     OW50579   5.777   0.190   1.502 -0.5162 -0.0188 -0.1370
16191SOL    HW150580   5.804   0.099   1.512 -0.4132 -0.1911 -1.7178
16191SOL    HW250581   5.682   0.186   1.492 -0.5104  0.0562 -0.2180
16192SOL     OW50582  10.059   6.086   4.698  0.3923 -0.0855  0.0592
16192SOL    HW150583  10.010   6.046   4.770  0.8271 -2.0381 -0.6412
16192SOL    HW250584  10.081   6.174   4.728 -0.8580 -0.2703  1.6181
16193SOL     OW50585   2.272   2.120   0.509 -0.1334  0.1873 -0.9452
16193SOL    HW150586   2.208   2.050   0.526 -0.7253  0.5347 -1.6813
16193SOL    HW250587   2.339   2.108   0.576 -2.7162  1.9947  2.2575
16194SOL     OW50588   9.491   6.193   3.112  0.4034 -0.0053 -0.6588
16194SOL    HW150589   9.480   6.277   3.067  1.1484 -0.4651 -1.7351
16194SOL    HW250590   9.526   6.216   3.198  2.2410  0.7175 -1.5389
16195SOL     OW50591   4.042   0.572   1.652 -0.1813 -0.2070 -0.1211
16195SOL    HW150592   3.986   0.627   1.708  0.6302  1.2503 -0.6786
16195SOL    HW250593   4.130   0.583   1.688  0.2240  0.1100 -1.1680
16196SOL     OW50594  10.150   9.016   7.721 -0.7433  0.2494  0.1935
16196SOL    HW150595  10.207   9.088   7.694  0.8755 -1.3345 -0.8939
16196SOL    HW250596  10.144   9.024   7.816  1.8947  0.1479  0.4497
16197SOL     OW50597   3.372   4.809  10.540 -0.0943 -0.1609 -0.3416
16197SOL    HW150598   3.295   4.822  10.485 -0.9140 -1.5144  0.4327
16197SOL    HW250599   3.338   4.808  10.630  0.1815 -4.3167 -0.1194
16198SOL     OW50600   8.344   8.726   8.172 -0.0542  0.6904  0.7438
16198SOL    HW150601   8.278   8.730   8.103  0.4190 -0.1089  0.2322
16198SOL    HW250602   8.419   8.683   8.131  0.6046  1.1180  1.4644
16199SOL     OW50603   5.294   1.876   1.306  0.0725  0.5488  0.5301
16199SOL    HW150604   5.326   1.813   1.370  0.0637 -0.1539 -0.1445
16199SOL    HW250605   5.366   1.938   1.295  0.8666 -0.4769 -0.2675
16200SOL     OW50606  10.994   4.568   9.717  0.0193  0.4142  0.4205
16200SOL    HW150607  10.997   4.636   9.785  2.2206  0.6775  0.1296
16200SOL    HW250608  11.040   4.494   9.756  0.3628  0.1937 -0.3877
16201SOL     OW50609   0.784   4.776   2.684 -0.1625 -0.0303  0.3606
16201SOL    HW150610   0.722   4.738   2.745 -2.9017  0.3014 -1.9955
16201SOL    HW250611   0.802   4.863   2.720 -2.8585  0.7355  0.0700
16202SOL     OW50612   0.525  10.192   2.228 -0.0486  0.0471 -0.3576
16202SOL    HW150613   0.489  10.277   2.253 -0.3630 -0.6813  1.9708
16202SOL    HW250614   0.449  10.134   2.227  0.2402 -0.3280 -1.4205
16203SOL     OW50615   6.119   3.806   7.595 -0.4019 -0.7371  0.0828
16203SOL    HW150616   6.189   3.868   7.573 -1.4245  0.8067  1.0563
16203SOL    HW250617   6.113   3.750   7.517  0.9879 -0.0523 -0.5671
16204SOL     OW50618   4.588   3.141   2.925  0.2496  0.2070  0.7264
16204SOL    HW150619   4.546   3.056   2.935 -1.8905  0.9722 -0.8227
16204SOL    HW250620   4.596   3.175   3.014  0.3875 -1.2461  1.2950
16205SOL     OW50621   8.329   7.894   0.861 -0.1072  0.9207  0.7547
16205SOL    HW150622   8.360   7.978   0.893 -1.7011  1.5007  0.8772
16205SOL    HW250623   8.379   7.879   0.781 -0.2828  2.3391  0.3463
16206SOL     OW50624   0.928   2.668  10.313  0.1870  0.2975  0.2711
16206SOL    HW150625   0.872   2.702  10.243 -0.0421 -2.0443 -0.7636
16206SOL    HW250626   0.965   2.747  10.354  1.3375  1.7975 -3.2619
16207SOL     OW50627   1.120   4.328   3.373  0.4989 -0.2023  0.0852
16207SOL    HW150628   1.068   4.263   3.326 -1.3083  0.2144  1.3881
16207SOL    HW250629   1.124   4.295   3.463  1.7077  0.2729  0.2326
16208SOL     OW50630   7.336   3.296   3.022  0.2752 -0.1479  0.3361
16208SOL    HW150631   7.425   3.274   2.993  0.3523  0.2038  0.3030
16208SOL    HW250632   7.350   3.344   3.104  0.0512 -1.4479  1.1697
16209SOL     OW50633   7.080  10.140   7.704 -0.0080 -0.0873  0.1165
16209SOL    HW150634   7.082  10.235   7.696 -0.5550  0.0214  1.0976
16209SOL    HW250635   7.160  10.118   7.752 -1.2692  0.2057  2.5327
16210SOL     OW50636   7.035   0.252   9.473 -0.5508 -0.7290  0.7781
16210SOL    HW150637   6.977   0.177   9.462  0.4601 -1.4267 -0.0151
16210SOL    HW250638   7.031   0.273   9.567 -1.1657 -1.5011  0.9281
16211SOL     OW50639   5.877   3.034   2.369 -0.3909  0.1108 -0.3893
16211SOL    HW150640   5.873   3.053   2.462  2.0606  1.5863 -0.5110
16211SOL    HW250641   5.820   2.958   2.358  1.4709 -2.0062  2.8361
16212SOL     OW50642   0.394   3.098   7.586  0.0349 -0.3025  0.4799
16212SOL    HW150643   0.482   3.070   7.562  0.3567  0.5659  0.6403
16212SOL    HW250644   0.353   3.123   7.503  0.0786 -0.3045  0.4578
16213SOL     OW50645   3.272   8.399   5.773 -0.0852 -0.0135 -0.1072
16213SOL    HW150646   3.337   8.453   5.817  0.6547 -1.0577  0.1202
16213SOL    HW250647   3.273   8.316   5.821  0.2420 -0.9418 -1.6232
16214SOL     OW50648   5.813   7.650   9.422  0.4660 -0.5883 -0.4147
16214SOL    HW150649   5.815   7.603   9.339  1.1882 -0.3908 -0.5189
16214SOL    HW250650   5.748   7.604   9.475 -1.0178  0.1041 -1.5661
16215SOL     OW50651   8.986   8.259   2.393 -0.0088 -0.2398  0.4971
16215SOL    HW150652   8.958   8.185   2.340  0.1214 -0.7601  1.1500
16215SOL    HW250653   8.988   8.226   2.482  0.1389  0.5253  0.7844
16216SOL     OW50654   4.190   9.799   3.885 -0.3345  0.0713 -0.4432
16216SOL    HW150655   4.183   9.891   3.908 -1.1782 -0.0063 -0.3668
16216SOL    HW250656   4.105   9.777   3.847 -2.4349 -2.0560  4.5984
16217SOL     OW50657   8.473   5.791   7.847 -0.2040 -0.4074 -0.4138
16217SOL    HW150658   8.552   5.836   7.819 -1.1600  0.6598 -1.5408
16217SOL    HW250659   8.494   5.698   7.839  0.9835 -0.1469 -0.5124
16218SOL     OW50660   4.659   8.770   4.376  0.7887  0.0187 -0.1307
16218SOL    HW150661   4.655   8.865   4.387 -0.6493  0.0457 -0.6915
16218SOL    HW250662   4.718   8.757   4.301  0.5178  0.5020 -0.4361
16219SOL     OW50663   6.657   1.865   3.458 -0.9419  0.1410 -0.7285
16219SOL    HW150664   6.632   1.860   3.550 -2.2164  0.9987 -0.9926
16219SOL    HW250665   6.630   1.780   3.422  1.8032 -1.2132  0.1273
16220SOL     OW50666   8.194   0.765   3.161 -0.7253 -0.7605 -0.2174
16220SOL    HW150667   8.256   0.750   3.090 -1.7249  0.0598 -1.3174
16220SOL    HW250668   8.109   0.743   3.123 -1.3326  0.1114  0.5918
16221SOL     OW50669   9.608   2.255   3.616  0.2445  0.3461  0.3292
16221SOL    HW150670   9.573   2.240   3.528  1.1973  0.0420 -0.0055
16221SOL    HW250671   9.688   2.306   3.602  0.2920  0.4779  1.0357
16222SOL     OW50672   6.870   6.947   0.907  1.2835  0.0712 -0.0114
16222SOL    HW150673   6.864   6.884   0.979 -1.2612 -0.5241 -0.6403
16222SOL    HW250674   6.856   7.032   0.948 -4.3973 -0.4959  0.0109
16223SOL     OW50675   4.805   6.236  10.912  0.0514  0.6413  0.6294
16223SOL    HW150676   4.898   6.256  10.916  0.0927  0.3706  1.0323
16223SOL    HW250677   4.797   6.150  10.952 -0.2272  0.1693 -0.4103
16224SOL     OW50678   6.057   4.745   0.650 -0.1790 -0.2771  0.0847
16224SOL    HW150679   6.039   4.839   0.654 -1.4093 -0.4760 -0.4834
16224SOL    HW250680   6.153   4.739   0.653 -0.0954  0.9724  0.4376
16225SOL     OW50681   2.846   3.996   9.858  0.0044  0.2372 -0.2777
16225SOL    HW150682   2.922   4.054   9.852 -0.4183  0.6255 -4.3743
16225SOL    HW250683   2.784   4.044   9.914  2.1903  0.4689  2.1046
16226SOL     OW50684   9.762   8.701   1.986 -0.3175  0.4359  0.6756
16226SOL    HW150685   9.817   8.687   1.909 -1.5784  0.0301 -0.1768
16226SOL    HW250686   9.677   8.727   1.951 -0.9147  0.2549  1.9323
16227SOL     OW50687   4.326  10.991   8.217 -0.5498  0.4500  0.0319
16227SOL    HW150688   4.246  10.941   8.199  0.5236 -2.1254  1.7960
16227SOL    HW250689   4.311  11.030   8.303  0.9772 -2.3885  1.7393
16228SOL     OW50690  10.702   0.812   3.981  0.3697 -0.3229 -0.7507
16228SOL    HW150691  10.662   0.823   4.067  0.0829  3.6017 -1.1700
16228SOL    HW250692  10.640   0.757   3.933 -1.0661 -0.0106  0.6424
16229SOL     OW50693   7.974   1.452  10.640  0.2767 -0.4205  0.0644
16229SOL    HW150694   8.020   1.508  10.578 -0.8271  0.4296 -0.0317
16229SOL    HW250695   8.010   1.365  10.626 -0.9537 -0.5735 -2.8383
16230SOL     OW50696   7.802   0.756  10.791  0.2733  0.0840  0.8852
16230SOL    HW150697   7.801   0.851  10.781  0.6574 -0.0660 -0.8899
16230SOL    HW250698   7.770   0.741  10.880  1.5526  1.9145  1.7005
16231SOL     OW50699   5.100   3.462   2.629  0.3028 -0.1296 -0.1360
16231SOL    HW150700   5.049   3.537   2.597  1.4399  1.1480  0.9374
16231SOL    HW250701   5.128   3.416   2.550 -0.8785  0.2328 -0.7948
16232SOL     OW50702   4.793   2.453   0.063 -0.3163 -0.0033  0.2586
16232SOL    HW150703   4.710   2.418   0.097 -0.0619 -0.4460  0.4361
16232SOL    HW250704   4.859   2.389   0.090  0.6616  2.0855  3.3605
16233SOL     OW50705   2.250   7.613   7.491  0.3727 -0.2903  0.1802
16233SOL    HW150706   2.261   7.628   7.397 -3.1974  0.7588 -0.2227
16233SOL    HW250707   2.305   7.680   7.532  2.8368 -1.4382 -1.0074
16234SOL     OW50708   9.240   3.824   8.500 -0.1356 -0.3258  0.5053
16234SOL    HW150709   9.150   3.840   8.529  0.2524  0.4445  1.3299
16234SOL    HW250710   9.293   3.836   8.578  0.6059 -1.8001  0.2638
16235SOL     OW50711   1.171   9.319   6.079  0.4046 -0.1757 -0.0775
16235SOL    HW150712   1.092   9.350   6.124  0.6413 -1.5122  1.3503
16235SOL    HW250713   1.138   9.283   5.997 -0.6597 -1.6346  0.9344
16236SOL     OW50714   8.883   4.264   1.586  0.3934 -0.0641 -0.3998
16236SOL    HW150715   8.974   4.281   1.612  0.6490 -0.0993 -1.2366
16236SOL    HW250716   8.845   4.352   1.576 -0.4128 -0.0285  2.3851
16237SOL     OW50717  10.767   4.709   3.386 -0.3358  0.4088 -0.5250
16237SOL    HW150718  10.745   4.734   3.475  0.1342  1.2207 -0.6279
16237SOL    HW250719  10.830   4.638   3.395  0.9487  1.5723 -0.1885
16238SOL     OW50720   0.849   5.675  10.263  0.5295 -0.4548 -0.4461
16238SOL    HW150721   0.762   5.636  10.264  0.5755 -0.5997 -1.3849
16238SOL    HW250722   0.835   5.768  10.283  0.3408 -0.7590  1.0032
16239SOL     OW50723   0.868   6.743   1.383  0.9877 -0.4606 -0.4753
16239SOL    HW150724   0.839   6.791   1.461 -0.0801 -1.4931 -0.2101
16239SOL    HW250725   0.797   6.754   1.320  1.5080 -0.2776 -1.0384
16240SOL     OW50726   0.329   2.935   6.036  0.7571  0.9156 -0.4657
16240SOL    HW150727   0.335   3.023   6.072  1.7444  1.3359 -1.5988
16240SOL    HW250728   0.249   2.936   5.983  1.0383  1.2944 -0.8864
16241SOL     OW50729   2.485   8.875   0.676  0.0288  0.0310  0.4411
16241SOL    HW150730   2.452   8.796   0.719  0.2551 -0.7102 -0.7216
16241SOL    HW250731   2.435   8.881   0.594  0.5774  0.6431  0.1401
16242SOL     OW50732   8.932   0.264   9.680  0.1637 -0.4010  0.5058
16242SOL    HW150733   8.876   0.292   9.752 -0.2409  1.3773 -0.4457
16242SOL    HW250734   9.019   0.296   9.704  0.7504 -2.6470  1.6978
16243SOL     OW50735   7.257   6.604   3.510 -0.5071  0.1884 -0.7674
16243SOL    HW150736   7.232   6.512   3.503 -0.8270  0.2470 -0.4125
16243SOL    HW250737   7.198   6.650   3.450 -0.0697  0.1199 -1.2658
16244SOL     OW50738   3.383   0.306  10.658 -0.3381 -0.1940 -0.4644
16244SOL    HW150739   3.296   0.310  10.619 -0.2273 -2.2114 -1.0366
16244SOL    HW250740   3.377   0.236  10.723  0.5146  0.5427  0.4435
16245SOL     OW50741   6.874  10.474   6.790 -0.0675  0.0470  0.0449
16245SOL    HW150742   6.921  10.403   6.745 -0.5501 -0.7923  0.8290
16245SOL    HW250743   6.848  10.436   6.874  2.6255  2.1882  2.0320
16246SOL     OW50744   6.920   8.807   5.367 -0.4718 -0.5723 -0.2986
16246SOL    HW150745   7.013   8.802   5.346 -0.5569  1.8758 -1.7092
16246SOL    HW250746   6.901   8.726   5.414  1.9482 -1.9974 -1.5725
16247SOL     OW50747   6.834  10.684   0.149 -0.5264  0.2121  0.6715
16247SOL    HW150748   6.747  10.668   0.185 -1.1216 -0.4504 -0.9651
16247SOL    HW250749   6.854  10.605   0.099 -0.1128  1.3649 -1.0720
16248SOL     OW50750   5.979   2.511   1.311 -0.7261  0.2976  0.3758
16248SOL    HW150751   5.983   2.416   1.317  0.7489  0.4146  1.7191
16248SOL    HW250752   5.905   2.528   1.252 -1.3735 -1.6454  0.5657
16249SOL     OW50753   2.003   2.150   6.519  0.0558 -0.4616  0.4131
16249SOL    HW150754   2.046   2.186   6.596  0.4753  0.2842 -0.1578
16249SOL    HW250755   2.063   2.168   6.447 -0.8086 -0.1848 -0.2572
16250SOL     OW50756   7.349   8.949   1.667  0.4646 -0.0314 -0.0752
16250SOL    HW150757   7.424   8.932   1.611 -1.5930 -0.7979 -2.8064
16250SOL    HW250758   7.313   9.032   1.636 -0.8367 -0.5572 -0.0552
16251SOL     OW50759   8.055   3.364   4.218  0.5478 -0.0092 -0.9258
16251SOL    HW150760   8.081   3.293   4.159  3.3663  2.0758 -2.4486
16251SOL    HW250761   7.999   3.421   4.165 -0.3852 -0.2354 -0.2141
16252SOL     OW50762   4.351   7.122   4.425 -0.5334  0.6123 -0.3226
16252SOL    HW150763   4.396   7.042   4.452 -4.1039 -2.4434 -2.4094
16252SOL    HW250764   4.406   7.157   4.354  0.2865 -1.0402 -0.5692
16253SOL     OW50765   1.213  10.431   2.395  0.3419  0.0416 -0.4263
16253SOL    HW150766   1.168  10.511   2.422 -1.2848 -1.0447  0.2225
16253SOL    HW250767   1.182  10.415   2.306  1.8247  0.8779 -1.1536
16254SOL     OW50768   0.726   0.959  10.131 -0.1173  0.5212 -0.0270
16254SOL    HW150769   0.816   0.988  10.141  0.1929 -0.2200 -0.5892
16254SOL    HW250770   0.732   0.879  10.079 -1.1738  0.9431 -0.8313
16255SOL     OW50771   4.743   7.454   6.788 -0.3920  0.0669 -0.2892
16255SOL    HW150772   4.795   7.444   6.867 -0.0880 -1.6423 -0.6797
16255SOL    HW250773   4.807   7.470   6.719 -0.5818  0.4575 -0.3816
16256SOL     OW50774   9.511   9.202   9.312  0.3122 -0.4525 -0.7006
16256SOL    HW150775   9.460   9.244   9.243 -1.2333 -2.6457 -1.0220
16256SOL    HW250776   9.592   9.252   9.317 -0.1517  0.6572 -3.0966
16257SOL     OW50777   7.223  10.845   2.255 -0.1168  0.4767 -0.1537
16257SOL    HW150778   7.307  10.870   2.215  0.2745  2.8307  1.9104
16257SOL    HW250779   7.244  10.767   2.306  0.0807 -0.6873 -1.9014
16258SOL     OW50780  10.194   3.062   6.235 -0.3581 -1.0644 -0.2673
16258SOL    HW150781  10.250   3.027   6.165  0.2252 -2.4805  0.8622
16258SOL    HW250782  10.241   3.043   6.315 -2.1629 -1.7582  0.6966
16259SOL     OW50783   9.657   8.034   6.461  0.2849 -0.3703  0.0182
16259SOL    HW150784   9.593   7.985   6.512 -0.6180 -0.6123 -1.3122
16259SOL    HW250785   9.741   7.993   6.484  0.0033 -0.0548  1.7615
16260SOL     OW50786   6.558   5.103  10.533 -0.0462 -0.0856  0.2896
16260SOL    HW150787   6.472   5.073  10.562 -0.0337 -0.1206  0.2898
16260SOL    HW250788   6.595   5.148  10.609  0.1036 -0.4226  0.4179
16261SOL     OW50789  10.489   2.771   0.834 -0.1158 -0.0489 -0.1002
16261SOL    HW150790  10.438   2.793   0.912  0.5633 -0.1861  0.4027
16261SOL    HW250791  10.558   2.714   0.867  0.6426  0.5129 -0.6686
16262SOL     OW50792  10.127   0.134   6.789 -0.6306  0.0803 -0.8997
16262SOL    HW150793  10.116   0.039   6.794  0.2643 -0.0148 -0.5965
16262SOL    HW250794  10.039   0.167   6.768 -0.6186 -0.9375 -2.8182
16263SOL     OW50795   7.128   0.653   7.395 -0.1377 -0.4799  0.6269
16263SOL    HW150796   7.163   0.735   7.361 -0.5476 -0.3610  0.4796
16263SOL    HW250797   7.033   0.665   7.390 -0.2231 -1.5086 -0.7480
16264SOL     OW50798   4.249   2.604   4.069  0.2314  0.3266  0.1731
16264SOL    HW150799   4.193   2.672   4.106  0.1712  1.9113 -2.5744
16264SOL    HW250800   4.189   2.542   4.029  0.3036 -1.2618  2.3537
16265SOL     OW50801   8.197   1.517   5.994  0.2802  0.2142 -0.3644
16265SOL    HW150802   8.198   1.610   6.016 -0.7782 -0.1377  1.4399
16265SOL    HW250803   8.284   1.486   6.019  0.4181  0.5923 -0.3646
16266SOL     OW50804   7.357   8.558   2.361 -0.2833  0.4235  0.4405
16266SOL    HW150805   7.364   8.518   2.447  0.6964  1.4342  0.8517
16266SOL    HW250806   7.288   8.509   2.317  0.8664 -1.7428  0.8922
16267SOL     OW50807   8.144  10.340   0.212 -0.1818  0.4522 -0.2596
16267SOL    HW150808   8.112  10.340   0.302 -2.5801  0.6129 -1.0375
16267SOL    HW250809   8.071  10.374   0.160  0.1723 -1.9240 -2.5675
16268SOL     OW50810   1.205   6.389   4.334  0.4724 -0.0877  0.4706
16268SOL    HW150811   1.291   6.350   4.324  1.0617  1.3168 -0.1295
16268SOL    HW250812   1.165   6.340   4.407  0.9005 -2.1894 -0.6371
16269SOL     OW50813   4.452   9.140  10.950 -0.3947  0.3643 -0.6361
16269SOL    HW150814   4.407   9.219  10.920  0.9174  0.9668 -1.0839
16269SOL    HW250815   4.519   9.123  10.884  0.4396 -0.1394  0.2935
16270SOL     OW50816   2.169   1.535   9.783 -0.4202 -0.2378 -0.4010
16270SOL    HW150817   2.149   1.464   9.845 -1.0695  0.6186  0.3890
16270SOL    HW250818   2.084   1.576   9.766  0.0447  0.7680 -0.3384
16271SOL     OW50819   3.547   1.911   4.536 -0.0374  0.2581 -0.3383
16271SOL    HW150820   3.460   1.877   4.516 -0.6824  0.9010  1.2253
16271SOL    HW250821   3.560   1.983   4.474 -0.3499 -0.2247 -0.9755
16272SOL     OW50822   6.416   1.610   7.441 -0.1345  0.0417 -0.7228
16272SOL    HW150823   6.351   1.560   7.490 -0.4408  2.5160  1.6354
16272SOL    HW250824   6.371   1.691   7.416  0.6625 -0.2280 -3.4143
16273SOL     OW50825  10.065  10.423   5.533  0.0796  0.5779 -0.4780
16273SOL    HW150826   9.984  10.470   5.554 -0.2141 -0.4200  0.7200
16273SOL    HW250827  10.064  10.414   5.438 -1.0510  0.8606 -0.4997
16274SOL     OW50828   6.609   7.869   0.033  0.4171  0.4750  0.0202
16274SOL    HW150829   6.653   7.869  -0.052 -1.0084  5.0760 -0.9538
16274SOL    HW250830   6.659   7.932   0.085 -2.8333  3.4092 -0.0639
16275SOL     OW50831   6.934   0.971   5.728  0.6027  0.0079  0.0657
16275SOL    HW150832   6.911   0.895   5.781 -0.7104 -0.4586 -1.1135
16275SOL    HW250833   6.984   0.934   5.654 -1.6113 -0.0278 -1.5050
16276SOL     OW50834   0.685   2.278   5.470  0.2594 -0.8351  0.1296
16276SOL    HW150835   0.617   2.213   5.450  0.0960 -0.7366  0.3655
16276SOL    HW250836   0.638   2.349   5.514  0.4956 -0.7116  0.1820
16277SOL     OW50837   9.572   0.541   2.040 -0.0569  0.1260 -0.2673
16277SOL    HW150838   9.569   0.636   2.034  2.9070  0.3561  0.5115
16277SOL    HW250839   9.644   0.515   1.982  0.0544 -1.5196  0.5315
16278SOL     OW50840   6.378   2.899   4.584  0.5285  0.3224  0.5579
16278SOL    HW150841   6.338   2.973   4.628  0.2156  1.0461 -0.8749
16278SOL    HW250842   6.308   2.835   4.576  0.4171  0.4452  0.5516
16279SOL     OW50843   9.503   0.345   8.834 -0.0480  0.1699  0.0325
16279SOL    HW150844   9.498   0.337   8.929 -0.0226 -0.9521 -0.0466
16279SOL    HW250845   9.437   0.410   8.812  0.1859  0.7002  0.8417
16280SOL     OW50846   8.398   9.031   6.538 -0.1271  0.1149 -0.0028
16280SOL    HW150847   8.429   9.036   6.447 -0.2556 -1.7856 -0.1885
16280SOL    HW250848   8.438   8.951   6.572 -2.6891 -1.0186  0.5722
16281SOL     OW50849   7.481   0.465   8.700  0.0892  0.1097  0.4201
16281SOL    HW150850   7.536   0.390   8.722 -0.2163 -0.1386  0.3338
16281SOL    HW250851   7.399   0.427   8.670  0.0703  0.4696  0.0077
16282SOL     OW50852   4.077   2.757   4.943 -0.1731 -0.1572  0.4956
16282SOL    HW150853   4.002   2.721   4.895 -0.0070 -0.8686  0.7611
16282SOL    HW250854   4.094   2.694   5.013  1.7461 -0.9465 -0.5767
16283SOL     OW50855   9.013   3.322   6.207 -0.1609  0.0408  0.1757
16283SOL    HW150856   9.038   3.410   6.177 -0.9708 -0.2055 -1.2576
16283SOL    HW250857   9.076   3.303   6.277  0.4393  1.4936  0.0722
16284SOL     OW50858   0.344   8.299   4.371 -0.2995 -1.2540  0.2277
16284SOL    HW150859   0.272   8.347   4.331 -0.3146 -1.1633  0.3657
16284SOL    HW250860   0.317   8.285   4.462  0.0558 -0.8215  0.4053
16285SOL     OW50861   2.926   2.904   3.206 -0.0780  0.2577 -0.7910
16285SOL    HW150862   2.938   2.841   3.277 -0.6766  0.0508 -0.8633
16285SOL    HW250863   2.833   2.927   3.211  0.3841  2.0600  0.0007
16286SOL     OW50864   7.273  10.015   4.911 -0.5302 -0.0172  0.4646
16286SOL    HW150865   7.241  10.053   4.830  0.9040  2.6719  1.0507
16286SOL    HW250866   7.362   9.986   4.891 -0.9744 -1.4883  0.5159
16287SOL     OW50867   7.859   4.702   5.350  0.2070 -0.2671 -0.0022
16287SOL    HW150868   7.937   4.647   5.339 -0.6733 -1.4480 -0.4817
16287SOL    HW250869   7.785   4.641   5.345 -0.7318  0.7153  1.2831
16288SOL     OW50870   6.913   2.194   0.384  0.2280  0.8623  0.1225
16288SOL    HW150871   6.833   2.147   0.406 -0.1763  1.2714 -0.4455
16288SOL    HW250872   6.983   2.129   0.395 -0.3869 -0.0839 -1.3208
16289SOL     OW50873   0.147   5.443   6.654  0.0117  0.3935 -0.2858
16289SOL    HW150874   0.198   5.364   6.669  0.2336  0.3405 -1.2381
16289SOL    HW250875   0.159   5.496   6.733  2.2857  0.8032 -0.8424
16290SOL     OW50876   1.296   3.118   8.580 -0.0208 -0.4152  0.4781
16290SOL    HW150877   1.236   3.172   8.528  1.2595 -1.5661 -2.4050
16290SOL    HW250878   1.365   3.178   8.607 -0.4544  0.1117  0.4344
16291SOL     OW50879   2.773   4.168   3.350 -0.6074 -0.1829 -0.1059
16291SOL    HW150880   2.782   4.097   3.414  0.0198  1.0833  1.2602
16291SOL    HW250881   2.860   4.205   3.342 -0.7072 -0.1907 -1.6116
16292SOL     OW50882   8.458   3.616   7.819 -0.5472 -0.4144 -0.6482
16292SOL    HW150883   8.434   3.680   7.752 -0.4716 -0.9647 -1.2128
16292SOL    HW250884   8.484   3.539   7.769  1.8620 -0.0460 -0.0908
16293SOL     OW50885   7.815   7.652   1.399  0.0718  0.4914 -0.6814
16293SOL    HW150886   7.886   7.590   1.417  0.1417  0.8054  0.2043
16293SOL    HW250887   7.800   7.646   1.305  0.6470 -0.2544 -0.7295
16294SOL     OW50888   8.769   9.342   2.308 -0.1329  0.3617  0.0628
16294SOL    HW150889   8.806   9.254   2.322 -2.0173 -0.5390 -0.3068
16294SOL    HW250890   8.820   9.377   2.235 -0.2026 -0.9625 -0.6503
16295SOL     OW50891   3.927   9.556   8.285 -0.3510 -0.0814  0.0179
16295SOL    HW150892   3.908   9.579   8.194 -1.0056 -0.5452  0.0304
16295SOL    HW250893   3.907   9.462   8.291  1.4151 -0.5001  0.1906
16296SOL     OW50894   9.739  10.822   8.287 -0.3541  0.4836  0.0226
16296SOL    HW150895   9.772  10.819   8.197  1.1516  0.3342  0.5516
16296SOL    HW250896   9.698  10.736   8.300  3.2978 -1.3297  0.8179
16297SOL     OW50897   5.566   3.758  10.608  0.3085  0.1827 -0.1439
16297SOL    HW150898   5.559   3.699  10.683 -2.2803 -0.5594 -0.8435
16297SOL    HW250899   5.590   3.842  10.647  1.9354 -0.8097  1.1307
16298SOL     OW50900   9.044   1.100   3.478 -0.6936 -0.1554 -0.1701
16298SOL    HW150901   8.965   1.143   3.511  0.7570  2.0978  0.5561
16298SOL    HW250902   9.113   1.130   3.536  0.4944 -3.4520  0.3112
16299SOL     OW50903   5.411  10.061   0.251 -0.0173 -0.4623  0.6287
16299SOL    HW150904   5.379  10.071   0.161 -1.9051  0.4042  1.3406
16299SOL    HW250905   5.502  10.092   0.248  0.2579 -1.3471 -1.1478
16300SOL     OW50906   8.449   6.590   0.237 -0.3213  0.3725 -0.6692
16300SOL    HW150907   8.528   6.572   0.288  0.4405  2.1099 -1.1632
16300SOL    HW250908   8.423   6.678   0.264 -1.4668  0.2515 -1.3218
16301SOL     OW50909   8.942   1.468   8.430  0.4606  0.1414  0.2462
16301SOL    HW150910   8.906   1.522   8.501  0.1068 -1.1477  1.0739
16301SOL    HW250911   8.867   1.451   8.373  0.1649 -0.9156  0.9267
16302SOL     OW50912  10.550   0.452   6.511  0.2432  0.3251 -0.4208
16302SOL    HW150913  10.488   0.500   6.456 -1.1492  0.4834  1.1715
16302SOL    HW250914  10.531   0.360   6.495 -0.4114  0.3729  0.0316
16303SOL     OW50915   8.778   9.387   7.033 -0.7024 -0.1037  0.8790
16303SOL    HW150916   8.747   9.408   7.121  1.1372  2.2215  1.0836
16303SOL    HW250917   8.801   9.472   6.995 -0.5459 -1.1306 -1.5272
16304SOL     OW50918   5.555   4.239   9.553 -0.0891  0.0926  0.3998
16304SOL    HW150919   5.574   4.293   9.629 -1.3778  0.5449  0.4289
16304SOL    HW250920   5.505   4.165   9.587 -1.0596  0.5276 -0.0499
16305SOL     OW50921   6.489   1.329   0.033 -0.0729  0.7520 -0.1442
16305SOL    HW150922   6.443   1.384  -0.030  0.4406  0.3298 -0.9209
16305SOL    HW250923   6.553   1.281  -0.021  1.6041  1.6765  0.9521
16306SOL     OW50924   0.124   1.700   0.003  0.3395 -0.1107  0.5062
16306SOL    HW150925   0.183   1.773   0.021  1.1528 -0.2404 -1.3773
16306SOL    HW250926   0.150   1.631   0.064  1.5646  0.1533  0.3083
16307SOL     OW50927   7.425   3.514   4.292  0.8610 -0.3043  0.6416
16307SOL    HW150928   7.428   3.508   4.387  0.0738 -1.0066  0.6275
16307SOL    HW250929   7.406   3.607   4.275  1.3058 -0.1125  1.1476
16308SOL     OW50930   6.136   7.501  10.988 -0.4925  0.2319 -0.6995
16308SOL    HW150931   6.145   7.412  10.953 -0.3388 -0.1392  0.2573
16308SOL    HW250932   6.120   7.555  10.911  0.8838 -0.3997 -1.4678
16309SOL     OW50933   5.900   5.093   8.207  0.3892 -0.1724 -0.5777
16309SOL    HW150934   5.884   5.164   8.144  0.1943  1.1542  0.8848
16309SOL    HW250935   5.938   5.023   8.155 -0.1210  0.7067 -2.2384
16310SOL     OW50936   2.937   8.864   3.212  0.1347 -0.2618 -0.4679
16310SOL    HW150937   2.931   8.913   3.294 -1.3600 -3.1256  1.2966
16310SOL    HW250938   2.959   8.930   3.147 -0.3640  2.4800  1.9137
16311SOL     OW50939   0.591   1.716  10.254  0.2823  0.0144  0.1882
16311SOL    HW150940   0.497   1.708  10.241  0.5752 -1.3130 -1.3920
16311SOL    HW250941   0.623   1.626  10.260  1.6077  0.3932 -0.6103
16312SOL     OW50942   8.583   4.615   2.857  0.6423  0.5452  1.1392
16312SOL    HW150943   8.641   4.660   2.918  0.8199  0.1400  1.2705
16312SOL    HW250944   8.552   4.684   2.799  0.6886  0.8860  1.5167
16313SOL     OW50945   6.039   1.792   6.433 -0.1985 -0.6589  1.1896
16313SOL    HW150946   6.075   1.785   6.345  0.2366  1.5334  1.1420
16313SOL    HW250947   5.969   1.857   6.426 -1.1653 -1.5372  2.1936
16314SOL     OW50948   3.363   4.693   1.626  0.0744 -0.2862  0.0934
16314SOL    HW150949   3.376   4.684   1.720  1.7592 -1.9323 -0.2382
16314SOL    HW250950   3.329   4.607   1.598 -2.4678  0.8267 -0.5593
16315SOL     OW50951  10.931   0.640   1.600 -0.4944  0.4972  0.0045
16315SOL    HW150952  10.963   0.688   1.676 -0.3664  0.5428 -0.0786
16315SOL    HW250953  10.880   0.568   1.637 -1.0131  0.9206  0.1279
16316SOL     OW50954   5.996   0.025   0.525 -0.6723 -0.0045  1.0018
16316SOL    HW150955   6.043   0.064   0.452 -0.5273 -0.9585  0.5657
16316SOL    HW250956   5.904   0.028   0.499 -0.7930  1.0902  1.4866
16317SOL     OW50957   4.244   2.077   2.345  0.3792 -0.3858  0.5529
16317SOL    HW150958   4.313   2.012   2.332  0.0468 -0.7766  0.7325
16317SOL    HW250959   4.165   2.035   2.311 -0.1097 -0.6275  1.9384
16318SOL     OW50960   6.990   4.451   5.647  0.4836 -0.6180 -0.4551
16318SOL    HW150961   7.033   4.533   5.673 -2.0595  0.5416  0.4365
16318SOL    HW250962   6.989   4.454   5.551  0.6464  0.2718 -0.4398
16319SOL     OW50963   2.533   9.447   1.877  0.4133  0.4076 -0.6195
16319SOL    HW150964   2.499   9.509   1.941 -0.7937  0.0755 -0.9107
16319SOL    HW250965   2.621   9.426   1.908 -0.2778 -0.0695  1.1757
16320SOL     OW50966   9.936  10.370   2.284 -0.1895  0.0423  0.0398
16320SOL    HW150967   9.978  10.368   2.370  1.1649 -0.4726 -0.5953
16320SOL    HW250968  10.001  10.330   2.226 -1.0376  0.4810 -1.2355
16321SOL     OW50969   9.746  10.321   8.562  0.0205 -0.1214 -0.6930
16321SOL    HW150970   9.708  10.361   8.641 -0.7272  0.5662 -1.3748
16321SOL    HW250971   9.675  10.270   8.524  0.0261  0.4398 -1.4995
16322SOL     OW50972   4.987   2.299   0.164  0.2645 -0.1515 -0.2205
16322SOL    HW150973   5.012   2.361   0.233 -0.9100  0.8393 -0.6530
16322SOL    HW250974   4.994   2.214   0.206 -0.2576  0.4188  1.0849
16323SOL     OW50975   6.967   8.622   8.206  0.2776  0.2645  0.0136
16323SOL    HW150976   6.935   8.555   8.266  0.2519 -0.3440 -0.6672
16323SOL    HW250977   6.956   8.584   8.119 -0.2997  1.3959 -0.4300
16324SOL     OW50978   4.314   3.626   7.878  0.3690  0.6410  0.4033
16324SOL    HW150979   4.242   3.566   7.896 -0.0898  0.7389 -1.0069
16324SOL    HW250980   4.389   3.587   7.924  0.3305 -1.5839 -1.2305
16325SOL     OW50981   9.937   8.777   7.179  0.2660  0.4672 -0.2841
16325SOL    HW150982   9.926   8.713   7.108  2.4470 -1.0724  0.6512
16325SOL    HW250983   9.960   8.724   7.255  0.2260  2.2624  1.0338
16326SOL     OW50984  10.581   1.429   1.330  0.2298  0.5371  0.0885
16326SOL    HW150985  10.637   1.381   1.390 -0.0587 -0.8965 -0.7486
16326SOL    HW250986  10.625   1.513   1.318  1.7410 -0.2223  0.1305
16327SOL     OW50987   5.247   3.522   6.151  0.0672  0.6306 -0.4677
16327SOL    HW150988   5.237   3.605   6.198  0.8306  1.8222 -2.2707
16327SOL    HW250989   5.210   3.456   6.209 -5.0092  2.7305 -0.8097
16328SOL     OW50990   6.631  10.213   4.416 -0.4687  0.4742 -0.3798
16328SOL    HW150991   6.583  10.293   4.392 -2.2027 -0.1653  0.7952
16328SOL    HW250992   6.610  10.199   4.508 -0.9875 -1.8537 -0.7971
16329SOL     OW50993  10.845   6.929   1.477  0.2489  0.0592  0.0950
16329SOL    HW150994  10.936   6.947   1.453 -0.2201  0.0497 -1.8551
16329SOL    HW250995  10.831   6.838   1.450 -0.7948  0.5749 -1.2055
16330SOL     OW50996   5.029  10.318   4.042 -0.0817 -0.6307  0.7844
16330SOL    HW150997   5.058  10.264   4.116 -0.0723 -2.1978 -0.3168
16330SOL    HW250998   4.938  10.292   4.028 -0.0457 -0.4427  0.1688
16331SOL     OW50999   1.488   2.768   4.686  0.3676 -0.0359  0.7141
16331SOL    HW151000   1.584   2.766   4.685  0.3932  0.7529  0.2165
16331SOL    HW251001   1.462   2.719   4.608  0.4036  0.5649  0.3139
16332SOL     OW51002   9.821   4.882   5.572  0.0733  0.1958 -0.1955
16332SOL    HW151003   9.818   4.918   5.483  1.7467  0.8733 -0.0237
16332SOL    HW251004   9.823   4.959   5.628  0.3806 -0.2089  0.3547
16333SOL     OW51005   0.132   4.025   7.075 -0.1401  0.6221  0.0234
16333SOL    HW151006   0.077   3.976   7.014 -1.0536  2.8054 -1.0172
16333SOL    HW251007   0.187   4.079   7.019  2.7873 -1.0531  1.0414
16334SOL     OW51008   0.809   5.618   5.002  0.1624  0.3213  0.0821
16334SOL    HW151009   0.746   5.683   4.971 -1.1851  0.1287  2.1758
16334SOL    HW251010   0.757   5.560   5.059  2.2208  0.2250  2.0078
16335SOL     OW51011   2.613   5.159   9.275  0.1481  0.3443  0.0009
16335SOL    HW151012   2.539   5.218   9.261  1.8031  2.3477 -0.6726
16335SOL    HW251013   2.614   5.102   9.198  0.1359  1.2400 -0.6689
16336SOL     OW51014   7.696   2.202   0.069  0.2550  0.4525  0.3469
16336SOL    HW151015   7.727   2.290   0.091 -0.4400  0.6119  0.7073
16336SOL    HW251016   7.759   2.171   0.004  1.0039  0.8762  0.8460
16337SOL     OW51017   7.756   7.335   6.049 -0.5644  0.9916 -0.6225
16337SOL    HW151018   7.713   7.394   5.986 -1.9339  2.2012  1.3444
16337SOL    HW251019   7.793   7.394   6.115 -0.1781 -0.2835  0.3316
16338SOL     OW51020   0.272   9.450   3.139  0.1430  0.3866  0.2865
16338SOL    HW151021   0.231   9.410   3.216 -0.7440  1.7934  0.5653
16338SOL    HW251022   0.365   9.456   3.162  0.0579 -0.1745  0.8058
16339SOL     OW51023   0.374   2.580   4.494  0.1763 -0.5993  0.3703
16339SOL    HW151024   0.405   2.492   4.516 -0.4707 -0.6605  1.0732
16339SOL    HW251025   0.435   2.638   4.538 -0.6087 -0.7202  1.6899
16340SOL     OW51026   9.325   3.373   5.609 -0.1433  0.1886 -0.3476
16340SOL    HW151027   9.303   3.302   5.549  0.5808 -0.9013  0.6417
16340SOL    HW251028   9.288   3.451   5.568  2.1388 -0.1162 -3.3570
16341SOL     OW51029   8.661   6.237   6.516  0.1502 -0.1879 -0.4612
16341SOL    HW151030   8.629   6.315   6.561  0.3091  0.1461 -0.9261
16341SOL    HW251031   8.698   6.183   6.586  1.4093  0.8195 -0.3212
16342SOL     OW51032   6.005  10.417   2.920 -0.3210 -0.1962  0.1224
16342SOL    HW151033   6.034  10.502   2.888  1.6864 -0.1885  1.7965
16342SOL    HW251034   5.981  10.432   3.012  1.3235 -1.6497  0.8467
16343SOL     OW51035   1.664   9.737   5.353  0.2629  0.2308  0.0578
16343SOL    HW151036   1.659   9.823   5.312 -0.5821  0.1678  0.0211
16343SOL    HW251037   1.709   9.753   5.436  0.6710  0.5991 -0.2310
16344SOL     OW51038   3.518   7.258   0.652  0.3062 -0.0478 -0.3209
16344SOL    HW151039   3.580   7.325   0.680  0.1105  0.5425 -1.2624
16344SOL    HW251040   3.475   7.230   0.733  0.8915  0.4552  0.1710
16345SOL     OW51041   5.081   9.898   2.989  0.1772  0.3133 -0.6528
16345SOL    HW151042   5.058   9.808   2.967 -0.9856  0.1364  1.0641
16345SOL    HW251043   4.998   9.945   2.988  0.4278  0.8234  0.7370
16346SOL     OW51044   3.282   8.207   8.034  0.2587 -0.1293  0.6975
16346SOL    HW151045   3.213   8.173   7.978  0.0813 -0.8156  1.3185
16346SOL    HW251046   3.248   8.290   8.067 -0.6229 -0.8453  1.6398
16347SOL     OW51047   6.635   4.362   2.131 -0.4760 -0.4618  0.4406
16347SOL    HW151048   6.611   4.441   2.083 -0.1895 -0.8785 -0.4115
16347SOL    HW251049   6.570   4.296   2.105 -1.6094 -0.1376  2.2754
16348SOL     OW51050  10.711   3.850   0.568 -0.0482 -0.0040  0.1630
16348SOL    HW151051  10.787   3.847   0.509 -0.9332  2.0950 -1.2250
16348SOL    HW251052  10.725   3.929   0.620 -1.0473  0.1422  0.2189
16349SOL     OW51053   7.112   0.513   5.266 -0.2766 -0.2691 -0.0804
16349SOL    HW151054   7.154   0.496   5.181 -0.4404 -2.3003  0.1948
16349SOL    HW251055   7.098   0.608   5.267  1.0187 -0.0050 -1.7065
16350SOL     OW51056   5.864   8.985   5.659 -0.3923  0.8945  0.1365
16350SOL    HW151057   5.821   8.962   5.577  0.4830 -0.6455  0.0698
16350SOL    HW251058   5.957   8.984   5.639 -0.2178  1.7940  0.8450
16351SOL     OW51059   1.564  10.436   3.538  0.6552  0.1619  0.0144
16351SOL    HW151060   1.484  10.465   3.581  1.2721  1.9842  0.0553
16351SOL    HW251061   1.540  10.356   3.492 -0.9390  0.1809  0.7538
16352SOL     OW51062   0.127   1.184   3.575 -0.2573 -0.1620 -0.1869
16352SOL    HW151063   0.113   1.146   3.488 -1.3377  0.4371 -0.2957
16352SOL    HW251064   0.121   1.278   3.560 -2.7287 -0.0696  0.8551
16353SOL     OW51065   4.079   1.345   7.973 -0.2164 -0.7420  0.0518
16353SOL    HW151066   4.019   1.377   8.042 -0.4603 -1.0951  0.0037
16353SOL    HW251067   4.079   1.250   7.983 -1.6930 -0.9669 -1.6055
16354SOL     OW51068   8.366   0.066   6.279 -0.2124 -0.2266 -0.3474
16354SOL    HW151069   8.356   0.119   6.200 -0.3907  0.0569 -0.1378
16354SOL    HW251070   8.379   0.130   6.349  0.8614 -0.5089 -0.2741
16355SOL     OW51071   6.869   1.136   7.858 -0.2715  0.7934 -0.4262
16355SOL    HW151072   6.887   1.225   7.887 -2.1596  0.8389  0.8030
16355SOL    HW251073   6.951   1.106   7.819  0.8845  2.5080  0.5564
16356SOL     OW51074   5.226   5.069   4.664 -0.1306  0.3069 -0.0568
16356SOL    HW151075   5.149   5.066   4.721  1.6448  1.0716  2.5863
16356SOL    HW251076   5.239   4.978   4.638 -1.3024 -0.0004  0.3391
16357SOL     OW51077  10.637   2.987   6.707 -0.3010 -0.3506 -0.4631
16357SOL    HW151078  10.555   3.033   6.725 -0.8107 -1.4936  0.2953
16357SOL    HW251079  10.688   2.997   6.788  0.1420  0.0195 -0.7872
16358SOL     OW51080   5.304   1.780   2.459 -0.3758  0.1991 -0.7423
16358SOL    HW151081   5.382   1.724   2.460 -0.2739  0.3508 -0.2979
16358SOL    HW251082   5.231   1.719   2.445 -0.7376 -0.6645  3.4747
16359SOL     OW51083   7.691   7.398   1.217  0.0939 -0.1592 -0.4252
16359SOL    HW151084   7.776   7.357   1.206 -0.4763 -1.5992  0.2035
16359SOL    HW251085   7.701   7.485   1.180  1.2982 -0.9437 -2.0457
16360SOL     OW51086   6.977  10.465   2.128 -0.1267 -0.1704  0.0228
16360SOL    HW151087   6.948  10.495   2.042  1.2804 -1.3837 -0.9308
16360SOL    HW251088   6.897  10.437   2.172 -1.6823  5.1287  1.2118
16361SOL     OW51089  10.087   2.491   4.140  0.5278  0.5974  0.0108
16361SOL    HW151090   9.991   2.488   4.130  0.6305 -1.9087 -0.9181
16361SOL    HW251091  10.102   2.462   4.230  0.4550 -3.7956 -1.1882
16362SOL     OW51092   2.781   1.055   4.002  0.1186 -0.6653  0.1161
16362SOL    HW151093   2.734   1.117   4.057 -0.3722  0.6844 -1.7159
16362SOL    HW251094   2.730   0.974   4.008 -1.7007  0.3588 -0.7181
16363SOL     OW51095   8.775   6.042   5.731  0.0133 -0.7099  0.2633
16363SOL    HW151096   8.701   6.099   5.710  2.5741  3.2948  1.0218
16363SOL    HW251097   8.792   5.994   5.650 -0.4506  1.9620 -1.5415
16364SOL     OW51098   2.577   6.300   9.935  0.3543  0.0651  0.2520
16364SOL    HW151099   2.608   6.383   9.972  0.7660 -0.1383  0.3721
16364SOL    HW251100   2.500   6.278   9.986  0.6333  0.0355  0.6614
16365SOL     OW51101   8.323   6.845   2.120 -0.1949  0.3104 -0.0250
16365SOL    HW151102   8.373   6.768   2.148  0.5027  0.9755  0.6119
16365SOL    HW251103   8.243   6.809   2.083  0.8538 -0.8172 -1.3337
16366SOL     OW51104  10.074   5.251   0.388 -0.6169  0.5993  0.2586
16366SOL    HW151105   9.979   5.250   0.398 -0.9076 -1.6767 -1.8065
16366SOL    HW251106  10.107   5.204   0.464 -1.5524 -2.4444 -1.0693
16367SOL     OW51107   0.853   4.786   6.163 -0.0078  0.3269  0.3154
16367SOL    HW151108   0.885   4.696   6.162  0.2799  0.4120 -1.6813
16367SOL    HW251109   0.919   4.835   6.114 -1.0895  1.2715 -0.2276
16368SOL     OW51110   6.654   9.511   5.432 -0.7033 -0.0834 -0.1308
16368SOL    HW151111   6.651   9.455   5.354 -0.2084  1.7698 -1.5356
16368SOL    HW251112   6.566   9.504   5.470 -2.0919  1.5643 -2.7838
16369SOL     OW51113   2.652   7.273   9.597 -0.1530  0.1340 -0.2012
16369SOL    HW151114   2.744   7.290   9.613 -0.1685 -0.2152  0.2667
16369SOL    HW251115   2.652   7.204   9.529 -0.0621 -0.1830  0.1168
16370SOL     OW51116  10.163   0.137   8.916  0.2031 -0.5518  0.2487
16370SOL    HW151117  10.244   0.166   8.875 -0.0761  1.6180  1.0702
16370SOL    HW251118  10.114   0.094   8.846  1.3906 -0.4738 -0.6586
16371SOL     OW51119   6.504   5.468   4.572  0.0914 -0.0447  0.7094
16371SOL    HW151120   6.443   5.524   4.621  1.2127  0.0843  1.9884
16371SOL    HW251121   6.571   5.443   4.635  2.5365  1.4870 -1.0666
16372SOL     OW51122   0.379   5.549   6.791 -0.4570  0.4237 -0.0952
16372SOL    HW151123   0.330   5.504   6.858 -1.9832  2.0090 -0.0649
16372SOL    HW251124   0.356   5.504   6.709 -0.4547 -0.0188  0.1456
16373SOL     OW51125  10.309   6.448   2.745  0.7996  0.0863  0.1710
16373SOL    HW151126  10.268   6.408   2.821  0.5929 -0.0572 -0.0124
16373SOL    HW251127  10.247   6.432   2.673  0.2527  1.5496  0.2828
16374SOL     OW51128   8.804   7.075   7.522 -0.0393  0.2266 -0.2204
16374SOL    HW151129   8.891   7.099   7.554  0.1262 -0.2370 -0.3094
16374SOL    HW251130   8.811   7.083   7.426 -0.5760  1.7494 -0.1595
16375SOL     OW51131   7.929   1.826   5.490  0.4736 -0.2787 -0.5674
16375SOL    HW151132   7.969   1.756   5.541  1.9415 -0.6966 -2.1895
16375SOL    HW251133   7.854   1.855   5.543  0.0586 -2.7639  0.3494
16376SOL     OW51134   3.190   0.877   5.740  0.1907  0.9794 -0.5595
16376SOL    HW151135   3.185   0.844   5.830 -0.5062 -1.3001 -1.3914
16376SOL    HW251136   3.212   0.970   5.751  1.4432  0.4843  1.9146
16377SOL     OW51137   5.513   3.445   0.315 -0.2571 -0.0656  0.1176
16377SOL    HW151138   5.441   3.474   0.371  0.3093  0.7058  0.4727
16377SOL    HW251139   5.473   3.382   0.255 -0.6022 -2.3097  2.4784
16378SOL     OW51140   0.347   3.440   7.830 -0.2235  0.1453  0.2750
16378SOL    HW151141   0.403   3.518   7.835 -1.4765  1.2186 -1.2749
16378SOL    HW251142   0.297   3.441   7.911 -1.0326  1.6390 -0.2099
16379SOL     OW51143   0.276   3.876   2.954 -0.5848  0.4193 -0.3347
16379SOL    HW151144   0.192   3.921   2.949 -0.6394  0.2956 -0.5574
16379SOL    HW251145   0.265   3.813   3.025 -1.3732 -0.9840 -1.6283
16380SOL     OW51146   2.840   0.950   7.716  0.9126  0.0286 -0.3599
16380SOL    HW151147   2.807   0.866   7.686 -3.7538  1.3331  0.1825
16380SOL    HW251148   2.809   1.013   7.650 -0.0780  1.7428  1.6150
16381SOL     OW51149   4.863   1.010   7.909  0.7670 -0.3351  0.7070
16381SOL    HW151150   4.864   1.007   7.813  0.3904 -1.5670  0.7209
16381SOL    HW251151   4.954   0.995   7.934  0.9367  0.3931  0.5427
16382SOL     OW51152   9.777  10.613   3.324  0.4572 -0.6754  0.3719
16382SOL    HW151153   9.716  10.541   3.342  1.1380 -1.3745 -0.0138
16382SOL    HW251154   9.789  10.610   3.229 -0.6885  0.9568  0.1253
16383SOL     OW51155   0.597   2.807   5.817  0.2029  0.1719  0.5119
16383SOL    HW151156   0.595   2.712   5.816  2.7819  0.0219  1.8803
16383SOL    HW251157   0.522   2.832   5.871 -0.9295 -1.0018 -0.4745
16384SOL     OW51158   4.551   6.524   2.056 -0.1973 -0.2926  0.3569
16384SOL    HW151159   4.526   6.472   2.132 -0.3041 -0.1315  0.4304
16384SOL    HW251160   4.560   6.460   1.985  0.1941 -0.4818  0.5726
16385SOL     OW51161   8.037   1.031   1.336  0.1985 -0.4478  0.0726
16385SOL    HW151162   7.982   1.016   1.413 -0.9725 -0.2469 -0.6905
16385SOL    HW251163   8.114   1.077   1.370  0.1670 -1.2185  1.2544
16386SOL     OW51164   1.967   3.137   5.897  0.0341  0.8864  0.1195
16386SOL    HW151165   1.878   3.100   5.896 -0.0749  1.1125  0.7401
16386SOL    HW251166   1.961   3.211   5.957  0.8273  0.4164  0.7926
16387SOL     OW51167   2.840   9.361   8.586 -0.0633  0.2316  0.4549
16387SOL    HW151168   2.848   9.429   8.653  0.9543 -1.3488  2.0366
16387SOL    HW251169   2.892   9.288   8.620  2.1709 -0.0082 -2.9973
16388SOL     OW51170   5.890   3.909   0.552  0.2214 -0.3433  0.1047
16388SOL    HW151171   5.945   3.841   0.513  1.0399 -0.0519  0.7454
16388SOL    HW251172   5.950   3.966   0.599 -0.5069  0.5914 -0.0581
16389SOL     OW51173   0.824   2.234  10.051  0.1042 -0.0281 -0.1327
16389SOL    HW151174   0.750   2.267  10.103 -0.3677  0.4159 -1.0613
16389SOL    HW251175   0.846   2.307   9.992  0.5096 -0.5855 -0.6801
16390SOL     OW51176   8.111   8.842   5.563  0.2052  0.1589  0.1903
16390SOL    HW151177   8.069   8.789   5.496 -0.0863 -0.3870  0.7922
16390SOL    HW251178   8.204   8.819   5.558  0.0469 -0.6184  0.6192
16391SOL     OW51179   9.533   2.475   4.544  0.4429  1.2442 -0.2721
16391SOL    HW151180   9.609   2.417   4.538 -0.7295 -0.7324  2.1600
16391SOL    HW251181   9.468   2.436   4.486  0.1516  0.9155  0.2614
16392SOL     OW51182   1.274   0.318   3.089  0.9093 -0.3240  0.2096
16392SOL    HW151183   1.327   0.285   3.017 -0.0327 -1.4620 -0.0018
16392SOL    HW251184   1.327   0.305   3.167 -0.0987 -4.4088  0.4487
16393SOL     OW51185   3.433  10.618   4.315  0.3734  0.0244  0.5918
16393SOL    HW151186   3.359  10.640   4.372 -0.5850  1.8806 -1.2315
16393SOL    HW251187   3.503  10.592   4.375 -0.4608  2.1970  2.6554
16394SOL     OW51188   2.013  10.763   5.587 -0.5093 -0.0264 -0.0408
16394SOL    HW151189   1.962  10.843   5.575 -1.8552 -1.0518 -1.7255
16394SOL    HW251190   1.963  10.696   5.540  0.0428 -2.0968  2.1342
16395SOL     OW51191   0.236   9.475   6.895 -0.0462  0.3215 -0.1802
16395SOL    HW151192   0.239   9.407   6.962  3.4547  0.6576  0.2134
16395SOL    HW251193   0.244   9.557   6.943  0.1597  0.7239 -0.8821
16396SOL     OW51194   5.966   7.752   4.305 -0.1646  0.2003 -0.9392
16396SOL    HW151195   6.037   7.762   4.368 -0.0987  1.3266 -1.1666
16396SOL    HW251196   6.008   7.714   4.228 -0.1743 -0.8312 -0.4466
16397SOL     OW51197   6.953   5.449   8.768  0.3858 -0.1050  0.9467
16397SOL    HW151198   6.925   5.535   8.799  0.2677  0.7408 -1.3159
16397SOL    HW251199   6.884   5.420   8.709  1.9256 -0.2030 -0.9220
16398SOL     OW51200   2.774   3.857   8.746  0.2398  0.0012  0.5978
16398SOL    HW151201   2.765   3.856   8.841  2.0198 -1.2525  0.8041
16398SOL    HW251202   2.749   3.946   8.721 -3.5079 -0.5257  1.7885
16399SOL     OW51203   8.153   2.437   2.750  0.7433  0.1122  0.1485
16399SOL    HW151204   8.104   2.372   2.699  0.6913  0.6896 -0.5551
16399SOL    HW251205   8.220   2.468   2.690  0.4686  1.0568  0.3167
16400SOL     OW51206   9.043   2.449   9.591  0.5855 -0.2195  0.0249
16400SOL    HW151207   9.090   2.407   9.663 -0.9081  0.0588  1.2044
16400SOL    HW251208   9.068   2.541   9.597  2.2045 -0.5398 -1.2438
16401SOL     OW51209   3.339   1.647   5.385 -0.1869  0.3688  0.0891
16401SOL    HW151210   3.372   1.567   5.427  1.5695  0.8664 -0.2784
16401SOL    HW251211   3.389   1.718   5.425  0.0043  1.0562 -1.3066
16402SOL     OW51212  10.246   7.561   5.992 -0.0680 -0.0812 -0.0423
16402SOL    HW151213  10.249   7.507   6.071  1.6048  0.6667  0.4338
16402SOL    HW251214  10.222   7.648   6.024 -2.6335 -0.4084 -0.7915
16403SOL     OW51215   3.968   5.799   6.605 -0.2366  0.4263  0.3149
16403SOL    HW151216   4.058   5.826   6.623 -0.3304  0.6693  0.4352
16403SOL    HW251217   3.917   5.880   6.614 -0.5898  0.1193  1.1390
16404SOL     OW51218   8.256   9.984   1.981  0.2767  0.1194  0.2108
16404SOL    HW151219   8.188   9.936   1.933 -0.2187  1.4653 -0.5139
16404SOL    HW251220   8.208  10.056   2.023  1.1471  0.6893  0.2533
16405SOL     OW51221   3.902   5.770   1.717 -0.7168  0.4674  0.3000
16405SOL    HW151222   3.887   5.850   1.767  0.5671 -0.0500  1.5473
16405SOL    HW251223   3.822   5.760   1.664 -0.7547  2.7534 -0.1826
16406SOL     OW51224   9.734   4.104   0.991 -0.4176 -0.1005 -0.5277
16406SOL    HW151225   9.811   4.108   0.935  0.3418 -0.2165  0.4793
16406SOL    HW251226   9.769   4.093   1.080 -1.6493 -2.3129 -0.2513
16407SOL     OW51227   3.238   1.682   9.764  0.0006  0.0917 -0.8663
16407SOL    HW151228   3.303   1.746   9.793 -2.8037  2.8623 -0.1294
16407SOL    HW251229   3.230   1.698   9.670  1.8346 -1.8381 -1.4397
16408SOL     OW51230   6.947   0.470   3.169  0.2307  0.3239  0.5065
16408SOL    HW151231   6.882   0.533   3.200 -2.8296 -1.4841 -1.6624
16408SOL    HW251232   6.987   0.513   3.093 -0.8827  0.2437 -0.1544
16409SOL     OW51233   9.701   6.881   2.067  1.3734 -0.4240  0.0705
16409SOL    HW151234   9.761   6.950   2.040 -0.3997  1.9381  1.7547
16409SOL    HW251235   9.718   6.869   2.160 -1.6345  1.4759  1.0222
16410SOL     OW51236  10.930   4.819   4.394  0.3535  0.6516 -0.5263
16410SOL    HW151237  10.966   4.883   4.332 -1.3238 -0.0095 -2.2545
16410SOL    HW251238  10.888   4.753   4.339 -1.0602 -0.0499  1.3157
16411SOL     OW51239   2.526   3.345   2.088  0.1612  0.7631 -0.0018
16411SOL    HW151240   2.438   3.363   2.054  0.0264 -0.9705 -0.6886
16411SOL    HW251241   2.579   3.419   2.058 -0.7425  1.0767 -0.8920
16412SOL     OW51242   2.198   3.889  10.238 -0.6114  0.4799 -0.2323
16412SOL    HW151243   2.120   3.858  10.192  0.2271 -2.0161 -0.0848
16412SOL    HW251244   2.166   3.963  10.290 -2.6261  0.2466 -1.0195
16413SOL     OW51245   1.579   9.304   4.595  0.0885 -0.0518 -0.1018
16413SOL    HW151246   1.523   9.329   4.669 -1.3771  0.2072 -1.2605
16413SOL    HW251247   1.592   9.210   4.606 -2.5321 -0.6088 -1.0167
16414SOL     OW51248   7.288   4.198   3.088  0.0362 -0.4121  0.2180
16414SOL    HW151249   7.348   4.146   3.141  0.5042 -0.1684 -0.0574
16414SOL    HW251250   7.264   4.272   3.143  0.7613  0.0014 -0.0081
16415SOL     OW51251   7.017   6.672   9.241  0.1766  0.7187  0.2951
16415SOL    HW151252   6.990   6.595   9.291  2.4708 -0.4850 -0.2010
16415SOL    HW251253   6.944   6.733   9.250 -0.0869  0.0942  4.0640
16416SOL     OW51254   4.058  10.599  11.053  0.2134  0.1331 -0.2887
16416SOL    HW151255   3.982  10.541  11.053  0.7322 -0.5734 -0.1589
16416SOL    HW251256   4.127  10.547  11.094  0.6590  0.9069 -0.0276
16417SOL     OW51257   0.415  10.200   7.060  0.1749  0.1847 -0.1420
16417SOL    HW151258   0.472  10.124   7.073 -0.7895 -0.9539 -2.1134
16417SOL    HW251259   0.466  10.259   7.005  0.1782  0.0562 -0.2769
16418SOL     OW51260   3.023   7.486   6.197  0.3395 -0.5110  0.7066
16418SOL    HW151261   3.021   7.416   6.262 -1.7988 -2.5718 -1.3366
16418SOL    HW251262   3.099   7.539   6.220  0.6209 -2.0391  3.8415
16419SOL     OW51263   9.177   1.542   9.256  0.1900  0.2512 -0.0753
16419SOL    HW151264   9.170   1.599   9.332  2.7539 -1.7908  1.8862
16419SOL    HW251265   9.266   1.555   9.223  0.1826 -1.1864 -0.7446
16420SOL     OW51266   3.300   5.618   6.775  0.4089  0.8335  0.0681
16420SOL    HW151267   3.353   5.663   6.709  0.3704 -0.7274 -1.1075
16420SOL    HW251268   3.222   5.672   6.785 -0.4837  0.2221 -2.6342
16421SOL     OW51269  10.386   6.035  10.471  0.5794  0.0259  0.1481
16421SOL    HW151270  10.395   6.008  10.380  1.9610 -0.0864  0.2962
16421SOL    HW251271  10.439   5.973  10.520  3.4020  2.5394  0.5637
16422SOL     OW51272  11.052   3.201   7.420 -0.7613  0.2260  0.3466
16422SOL    HW151273  11.081   3.279   7.466 -0.8557  0.4525  0.0250
16422SOL    HW251274  10.961   3.219   7.397 -0.5421  0.3626 -0.4452
16423SOL     OW51275   5.534   0.022   1.717 -0.0729 -0.3859 -0.1033
16423SOL    HW151276   5.596   0.091   1.743  0.0219  0.7061 -2.8743
16423SOL    HW251277   5.559  -0.000   1.628 -2.4146 -1.3944 -0.5755
16424SOL     OW51278   4.407   7.850   5.198  0.5190 -0.6536 -0.1932
16424SOL    HW151279   4.480   7.797   5.167  2.2476  1.0821  0.6670
16424SOL    HW251280   4.421   7.936   5.159 -1.3520 -0.3802 -0.3602
16425SOL     OW51281   0.537   9.116   3.040 -0.4977  0.0048  0.1878
16425SOL    HW151282   0.441   9.108   3.044 -0.5074  0.5230  1.4006
16425SOL    HW251283   0.552   9.210   3.030 -0.0995 -0.0232  0.5343
16426SOL     OW51284   2.903   0.566   2.670 -0.5400  0.2058  0.0662
16426SOL    HW151285   2.884   0.657   2.651 -0.9677  0.0345 -0.3537
16426SOL    HW251286   2.881   0.519   2.589  0.0876 -0.2149  0.1270
16427SOL     OW51287   9.128   5.522   3.477 -0.2756  0.3612  0.0800
16427SOL    HW151288   9.083   5.470   3.411 -0.4177  1.1118 -0.4249
16427SOL    HW251289   9.221   5.501   3.465 -0.3486  0.0555  0.0357
16428SOL     OW51290   9.709   3.206   2.202  0.0072  0.5357 -0.5518
16428SOL    HW151291   9.725   3.297   2.178 -0.7864  1.1063  0.9424
16428SOL    HW251292   9.794   3.174   2.232 -0.0767  1.4196  0.7587
16429SOL     OW51293   5.243   3.854   6.525  0.3315 -0.0724 -0.3721
16429SOL    HW151294   5.280   3.938   6.498 -1.4072  0.4989 -1.1032
16429SOL    HW251295   5.155   3.853   6.487 -0.4819 -1.2990  1.4314
16430SOL     OW51296   6.014   8.879   2.583 -0.1961 -0.0198  0.1564
16430SOL    HW151297   6.091   8.923   2.619  2.0451 -1.6115 -2.3624
16430SOL    HW251298   5.959   8.951   2.550  0.5176  1.1153  1.3507
16431SOL     OW51299   6.713   6.970   0.121  0.0716 -0.4332 -0.5448
16431SOL    HW151300   6.659   6.895   0.144  0.1920 -0.6445 -0.9410
16431SOL    HW251301   6.755   6.995   0.204 -1.1359  0.1554 -0.0924
16432SOL     OW51302   9.153   4.858   0.351 -0.3840 -0.4488  0.0615
16432SOL    HW151303   9.074   4.898   0.387 -0.0388  0.7139 -0.4351
16432SOL    HW251304   9.223   4.888   0.409  0.3265  2.2394 -1.9847
16433SOL     OW51305   1.371   8.430   6.651 -0.2512  0.1676  0.6154
16433SOL    HW151306   1.386   8.349   6.603 -2.1317  0.7210 -1.0722
16433SOL    HW251307   1.404   8.499   6.593  0.2361  0.6906  1.4932
16434SOL     OW51308   5.437  10.665   7.671 -0.5301  1.1867  0.3474
16434SOL    HW151309   5.531  10.678   7.659 -0.1781 -2.0103 -1.6275
16434SOL    HW251310   5.428  10.625   7.758  0.3798 -0.9599 -0.4618
16435SOL     OW51311   7.026   1.915   2.476  0.8011  0.0953 -0.1214
16435SOL    HW151312   6.984   1.951   2.398  1.5143  2.7253  0.6183
16435SOL    HW251313   7.097   1.860   2.441 -0.5013 -0.9111 -1.2978
16436SOL     OW51314   6.230   4.643   3.815 -0.8582  0.1108 -0.3130
16436SOL    HW151315   6.308   4.636   3.760 -1.1080 -1.3389 -0.5157
16436SOL    HW251316   6.170   4.698   3.764 -0.7958 -0.5910 -1.1639
16437SOL     OW51317  10.658   1.759   1.885  0.5649 -0.7929  0.2680
16437SOL    HW151318  10.568   1.783   1.864  1.4014  0.6661 -1.9412
16437SOL    HW251319  10.649   1.697   1.958 -2.1066  0.7188  1.3707
16438SOL     OW51320   7.580   0.725   7.274 -0.3306 -0.3173 -0.2605
16438SOL    HW151321   7.601   0.640   7.234  1.1239 -0.4609  0.7260
16438SOL    HW251322   7.532   0.704   7.353 -0.2733 -0.2057 -0.1950
16439SOL     OW51323   3.575   4.646   1.156 -0.9113  0.2879  0.0340
16439SOL    HW151324   3.649   4.701   1.182 -1.3058  0.6069  0.5058
16439SOL    HW251325   3.552   4.677   1.069 -1.5654  1.3641  0.5630
16440SOL     OW51326   7.717   9.954   7.648  0.2600  0.6220  0.2018
16440SOL    HW151327   7.718   9.962   7.743  0.0873  1.2855  0.1527
16440SOL    HW251328   7.790   9.895   7.628  2.0045  2.5144  0.5749
16441SOL     OW51329   0.566   4.243   9.792 -0.5834 -0.6192  0.6049
16441SOL    HW151330   0.566   4.295   9.873 -1.4216  0.7081 -0.2030
16441SOL    HW251331   0.544   4.306   9.724  1.4758 -1.4174 -0.8803
16442SOL     OW51332   3.213   8.393   6.893 -0.2042  0.0731  0.5662
16442SOL    HW151333   3.142   8.404   6.957 -1.7189  2.1528 -1.3124
16442SOL    HW251334   3.282   8.450   6.924 -0.6384  0.5209  0.7282
16443SOL     OW51335  10.669   2.351   9.772  0.0239  0.7381 -0.2302
16443SOL    HW151336  10.755   2.309   9.770  0.0352  0.7921 -1.0717
16443SOL    HW251337  10.671   2.405   9.851  0.0863 -0.6472  0.7611
16444SOL     OW51338   2.991   3.532   4.912 -0.0080  0.0487 -0.3151
16444SOL    HW151339   2.972   3.521   4.818  0.8599 -0.0578 -0.4911
16444SOL    HW251340   2.957   3.452   4.953 -2.2443  0.9719 -0.2172
16445SOL     OW51341   5.282  10.164   5.954 -0.7508  0.5797  0.0265
16445SOL    HW151342   5.370  10.132   5.971 -0.1811  1.5002 -1.0809
16445SOL    HW251343   5.245  10.100   5.894 -1.6646 -0.9867  2.1099
16446SOL     OW51344   8.379   1.810   4.726 -0.1902 -0.7175  0.0094
16446SOL    HW151345   8.309   1.750   4.751 -0.5171  0.0097  0.8600
16446SOL    HW251346   8.346   1.897   4.748  1.3850 -0.4283  1.4866
16447SOL     OW51347   1.289   5.148  10.694  0.2284  0.1751 -0.0615
16447SOL    HW151348   1.352   5.157  10.622  0.0339  2.3022 -0.0434
16447SOL    HW251349   1.274   5.054  10.701  0.4714 -0.1297 -2.6051
16448SOL     OW51350   3.375   1.274   8.579  0.0311  0.4724  0.6564
16448SOL    HW151351   3.385   1.316   8.493 -3.7657  1.2407  0.4300
16448SOL    HW251352   3.320   1.198   8.562 -0.1470  0.1879  2.3272
16449SOL     OW51353  10.666  10.425   7.918  0.4140 -0.3990  0.2536
16449SOL    HW151354  10.667  10.480   7.840 -1.4438 -0.1610  0.3610
16449SOL    HW251355  10.757  10.427   7.950  0.0215  5.3161  2.1660
16450SOL     OW51356   5.990   8.343   1.326 -0.4438 -0.4410  0.1980
16450SOL    HW151357   5.943   8.259   1.332 -1.6775  0.2329  0.3265
16450SOL    HW251358   5.920   8.409   1.329  0.5619  0.6240  0.9994
16451SOL     OW51359   9.848   2.609   6.689  0.6560 -0.4898 -0.6568
16451SOL    HW151360   9.852   2.515   6.674  1.3700 -0.7130  0.7492
16451SOL    HW251361   9.758   2.633   6.668  0.6263 -1.3783 -1.5804
16452SOL     OW51362   0.015   2.787   8.259  0.6105 -0.0240  0.1374
16452SOL    HW151363   0.043   2.699   8.236  3.0996  0.1100  2.1565
16452SOL    HW251364   0.093   2.842   8.248 -0.3743  1.5756  0.6548
16453SOL     OW51365   9.191   6.513   3.486  0.1029  1.1371  0.1158
16453SOL    HW151366   9.147   6.551   3.562 -3.6737 -1.4295 -0.4952
16453SOL    HW251367   9.135   6.536   3.412 -0.5752 -2.5498 -0.7004
16454SOL     OW51368  10.005   5.282   7.124 -0.0822 -0.4548  0.0083
16454SOL    HW151369   9.931   5.285   7.185  0.3983  1.0081  0.5628
16454SOL    HW251370   9.972   5.321   7.043  0.0518  0.1339  0.2332
16455SOL     OW51371   6.084   0.990   3.813 -0.4011 -0.0834 -0.1551
16455SOL    HW151372   6.134   1.065   3.780  0.2149 -1.0192 -1.4080
16455SOL    HW251373   6.054   0.945   3.734 -1.4303 -0.7355  0.5859
16456SOL     OW51374   9.420   7.610   8.864 -0.0636  0.8606  0.4555
16456SOL    HW151375   9.451   7.586   8.951 -1.7948  0.8764  1.1287
16456SOL    HW251376   9.357   7.680   8.880  0.2331  1.4641 -0.9025
16457SOL     OW51377   3.410   7.396   9.635 -0.2413 -0.0725  0.5008
16457SOL    HW151378   3.414   7.491   9.644 -1.6397  0.2578 -1.5615
16457SOL    HW251379   3.488   7.373   9.585 -1.4323  0.4911 -1.7700
16458SOL     OW51380   4.601   2.548   0.899  0.0540 -0.0297 -0.0662
16458SOL    HW151381   4.524   2.511   0.855  0.9094 -2.3051  0.1794
16458SOL    HW251382   4.580   2.542   0.992 -0.6967  2.3489 -0.0149
16459SOL     OW51383   8.954   7.210   8.969  0.2910 -0.1238  0.6770
16459SOL    HW151384   8.994   7.291   8.938  1.0987 -1.3474 -1.7451
16459SOL    HW251385   8.867   7.210   8.930 -0.9980  1.0375  3.3512
16460SOL     OW51386   5.402   8.166   3.683 -0.3527 -0.2519  0.6771
16460SOL    HW151387   5.349   8.222   3.626 -1.0691  1.5881  2.9986
16460SOL    HW251388   5.483   8.215   3.697 -0.0018 -0.8796  0.8801
16461SOL     OW51389   2.131   4.793   6.769  0.1791  0.0949  0.1927
16461SOL    HW151390   2.176   4.722   6.814  0.5825  1.3621  1.8627
16461SOL    HW251391   2.042   4.791   6.804  0.2742  0.5896  0.4682
16462SOL     OW51392   7.129   0.461   4.582  0.5587 -0.6972 -0.7942
16462SOL    HW151393   7.217   0.497   4.569  1.1795 -2.5846 -2.2518
16462SOL    HW251394   7.096   0.447   4.493 -1.4831  0.4942 -0.2890
16463SOL     OW51395   0.297   5.849   0.207  1.0764 -0.5456 -0.2214
16463SOL    HW151396   0.236   5.918   0.181  1.4239  0.0073  0.4043
16463SOL    HW251397   0.242   5.775   0.232  0.7033 -1.4723 -3.3749
16464SOL     OW51398   2.461   1.210   7.583 -0.1266 -0.0147  0.0182
16464SOL    HW151399   2.433   1.124   7.613  0.1901 -0.1691 -0.1306
16464SOL    HW251400   2.410   1.225   7.503  0.0724 -0.2136 -0.1471
16465SOL     OW51401   5.792   6.293   7.269  0.1750 -0.3928 -0.2411
16465SOL    HW151402   5.855   6.355   7.233  1.2207 -0.3364  1.6042
16465SOL    HW251403   5.844   6.216   7.293 -0.7233 -1.0094 -0.2174
16466SOL     OW51404   4.291   8.606   5.761 -0.1560  0.2308  0.2425
16466SOL    HW151405   4.321   8.519   5.786 -0.8533  0.3099  1.4339
16466SOL    HW251406   4.330   8.664   5.827 -2.3475  0.4061  1.4697
16467SOL     OW51407   6.918   4.269   1.897 -0.5587 -0.2153 -0.5281
16467SOL    HW151408   6.961   4.268   1.983 -1.7444  1.4531  0.1227
16467SOL    HW251409   6.865   4.189   1.896  0.7207 -1.1068 -0.4165
16468SOL     OW51410   8.499   2.347   6.280 -0.1702 -0.3690  0.6659
16468SOL    HW151411   8.433   2.417   6.279 -0.3069 -0.5014  0.4546
16468SOL    HW251412   8.552   2.364   6.202  0.1797 -0.1366  0.9521
16469SOL     OW51413   1.035   2.130   9.756 -0.1576  0.1986  0.8227
16469SOL    HW151414   0.984   2.109   9.677 -1.5960 -0.9395  1.9752
16469SOL    HW251415   0.990   2.206   9.793 -0.1686  0.0504  1.1147
16470SOL     OW51416   3.868   3.412   7.029 -0.2200  0.0897 -0.3409
16470SOL    HW151417   3.938   3.458   7.077  0.9254 -1.8026 -0.0866
16470SOL    HW251418   3.895   3.320   7.031 -2.5558 -0.6533 -0.5867
16471SOL     OW51419   7.979   8.711   9.083  0.3959  0.7454  0.4426
16471SOL    HW151420   7.917   8.713   9.010  0.2230  1.0646  0.5929
16471SOL    HW251421   7.926   8.733   9.160  0.6738  0.9230  0.5876
16472SOL     OW51422   3.201   2.357  11.078 -0.2920 -0.2568  0.4297
16472SOL    HW151423   3.126   2.310  11.114 -0.4380  0.6155  1.3112
16472SOL    HW251424   3.173   2.387  10.992 -0.1457 -1.8824 -0.2090
16473SOL     OW51425   4.819   2.419   3.466  0.2235 -0.4157  0.5822
16473SOL    HW151426   4.869   2.347   3.504  0.9969  0.3932  1.1363
16473SOL    HW251427   4.870   2.445   3.389 -0.5290 -1.0333 -0.1509
16474SOL     OW51428   3.869   0.125   1.949  0.5795  0.0993 -0.0786
16474SOL    HW151429   3.890   0.138   1.856 -1.4975 -1.1377 -0.7967
16474SOL    HW251430   3.951   0.097   1.989  1.4454  0.3414 -1.5949
16475SOL     OW51431   8.820   8.858   1.230 -0.0225 -0.4025 -0.7049
16475SOL    HW151432   8.859   8.937   1.193  0.0706 -0.4262 -0.6596
16475SOL    HW251433   8.895   8.811   1.268 -0.2439  0.0924  0.3860
16476SOL     OW51434   9.299   5.891   9.468  0.6519  0.1211  0.2546
16476SOL    HW151435   9.363   5.926   9.530  0.1393  1.8593 -0.1507
16476SOL    HW251436   9.296   5.955   9.397  0.0297 -1.0098 -0.7871
16477SOL     OW51437   9.669   3.268  10.508 -0.3612 -0.0148  0.5823
16477SOL    HW151438   9.583   3.228  10.520  0.0113 -0.6030  1.4197
16477SOL    HW251439   9.655   3.339  10.445 -1.2417 -0.7806 -0.0934
16478SOL     OW51440   2.540   6.396   3.567 -0.7793  0.5774  0.4163
16478SOL    HW151441   2.586   6.418   3.648  1.2464 -0.7814 -0.2935
16478SOL    HW251442   2.608   6.394   3.500 -2.4126  1.7236 -1.3961
16479SOL     OW51443   5.222   5.007   8.391 -0.9198  0.2001  0.6048
16479SOL    HW151444   5.271   5.039   8.467  1.7895 -3.0604  0.4552
16479SOL    HW251445   5.173   4.931   8.424 -1.9398  0.4181 -0.3586
16480SOL     OW51446   6.807   2.195   4.149  0.0987 -0.0882  0.4854
16480SOL    HW151447   6.724   2.154   4.125 -0.7567  0.9156  1.6674
16480SOL    HW251448   6.808   2.278   4.101  1.0689 -0.6808 -0.5851
16481SOL     OW51449   2.776   3.118   8.904 -0.2451 -0.1172  0.6509
16481SOL    HW151450   2.841   3.059   8.942 -0.2987  0.0868  1.0689
16481SOL    HW251451   2.692   3.079   8.927 -0.2712 -0.3692  0.1305
16482SOL     OW51452   5.857   5.547   5.261 -0.1762  0.1355  0.0293
16482SOL    HW151453   5.909   5.589   5.192 -0.6955 -0.1706 -0.5656
16482SOL    HW251454   5.861   5.607   5.335 -0.6050  1.0651 -0.6840
16483SOL     OW51455   5.776   0.362   4.329 -0.1843 -0.0553 -0.7674
16483SOL    HW151456   5.830   0.340   4.253 -0.8130  1.7457 -1.8056
16483SOL    HW251457   5.711   0.292   4.334  0.7132 -0.9256 -1.0155
16484SOL     OW51458  10.118   6.240   2.291 -0.5012  0.3071 -0.4566
16484SOL    HW151459  10.082   6.211   2.374  1.5164  0.7888  0.6614
16484SOL    HW251460  10.067   6.318   2.268  1.0535  2.2827  2.1769
16485SOL     OW51461   8.892   2.496   5.255  0.7396 -0.5182  0.3210
16485SOL    HW151462   8.983   2.466   5.264  1.0881 -0.9550 -3.1968
16485SOL    HW251463   8.900   2.577   5.205 -0.8260 -1.3058 -1.3016
16486SOL     OW51464   6.810  10.632   7.661 -0.3190 -0.4752 -0.3030
16486SOL    HW151465   6.857  10.671   7.587  0.3917 -2.4707 -0.9607
16486SOL    HW251466   6.717  10.646   7.641 -0.1008  1.4822 -0.1253
16487SOL     OW51467   2.741   1.161  10.598  0.9049 -0.1539 -0.0007
16487SOL    HW151468   2.760   1.222  10.669 -2.3923  0.7512  0.2614
16487SOL    HW251469   2.699   1.086  10.642  0.6733 -0.4862 -0.7758
16488SOL     OW51470   5.936  10.332   3.545 -0.3292  0.1203  0.0660
16488SOL    HW151471   5.963  10.382   3.468  0.4327  0.0008  0.2467
16488SOL    HW251472   5.846  10.308   3.527 -1.0934  2.4731  0.4421
16489SOL     OW51473   1.989   2.447   5.471  0.5348 -0.1634  0.3774
16489SOL    HW151474   1.956   2.518   5.526  0.8136  0.6872 -0.5107
16489SOL    HW251475   2.050   2.490   5.411 -1.7466 -0.4923 -2.3953
16490SOL     OW51476   4.549   1.274   5.313 -0.9629  0.1538 -0.0181
16490SOL    HW151477   4.637   1.311   5.319 -0.7184  0.1648 -2.6044
16490SOL    HW251478   4.561   1.181   5.331 -0.0777 -0.1540 -1.9356
16491SOL     OW51479   2.973   8.734   2.257 -0.1386 -0.4568  0.1303
16491SOL    HW151480   2.882   8.711   2.276  0.0215 -1.0423  0.1859
16491SOL    HW251481   2.983   8.822   2.294 -0.1744 -1.0874  1.7504
16492SOL     OW51482   9.813   8.855   6.152 -0.8264  0.1743  0.0998
16492SOL    HW151483   9.841   8.810   6.231 -1.7061  0.6818  0.7209
16492SOL    HW251484   9.745   8.798   6.115 -1.1722  0.4466  0.3015
16493SOL     OW51485   1.195   1.776   2.098  0.3106  0.2528  0.1042
16493SOL    HW151486   1.289   1.766   2.112  0.5756  1.8585 -0.3318
16493SOL    HW251487   1.156   1.766   2.185  0.7752 -1.2814  0.1621
16494SOL     OW51488   9.281   0.191   8.963  0.2811 -0.3062  0.0437
16494SOL    HW151489   9.201   0.177   9.013  1.0243  1.3925  1.8462
16494SOL    HW251490   9.253   0.191   8.872 -1.6420 -0.4930  0.5970
16495SOL     OW51491   7.807   6.071   1.270  0.1329  0.0877 -0.0125
16495SOL    HW151492   7.714   6.054   1.284 -0.1085  0.4242 -1.0501
16495SOL    HW251493   7.850   5.988   1.288 -0.1489  0.3722  2.1788
16496SOL     OW51494   2.663  11.084   8.433  0.0452 -0.1772 -0.7701
16496SOL    HW151495   2.669  11.014   8.498 -0.5453  1.2973  0.9443
16496SOL    HW251496   2.725  11.150   8.463 -1.1445  1.0818 -0.9856
16497SOL     OW51497   9.157   1.548   1.229  0.0486  0.0205  0.2050
16497SOL    HW151498   9.172   1.642   1.213  0.5526  0.0994  1.1271
16497SOL    HW251499   9.190   1.533   1.317 -0.3408 -0.9643  0.1886
16498SOL     OW51500   2.433   6.325   5.793  0.0414  0.6880 -0.3118
16498SOL    HW151501   2.347   6.324   5.834 -0.6099  0.3137 -1.6562
16498SOL    HW251502   2.459   6.233   5.788  0.6326  0.8101  0.2777
16499SOL     OW51503   6.364   2.544   5.721 -0.5286 -0.1294 -0.4858
16499SOL    HW151504   6.312   2.624   5.726  0.5190  0.5166  2.6695
16499SOL    HW251505   6.454   2.573   5.736 -0.4050 -1.9433  3.9083
16500SOL     OW51506   7.304   7.749   1.633 -0.1917 -0.0122  0.0283
16500SOL    HW151507   7.330   7.790   1.551  2.8012 -0.8049  0.4353
16500SOL    HW251508   7.210   7.732   1.623 -0.3261  1.6517 -2.4081
16501SOL     OW51509   5.968   6.018   9.377 -0.0538 -0.5336  0.2298
16501SOL    HW151510   6.044   6.000   9.322 -1.2384 -0.8179 -1.3755
16501SOL    HW251511   6.002   6.072   9.448  2.0493 -2.3330  0.7188
16502SOL     OW51512   7.029   4.783   7.725  0.3801 -0.3415  0.2483
16502SOL    HW151513   6.989   4.830   7.798 -0.4977 -1.6160  0.6204
16502SOL    HW251514   6.984   4.699   7.723  1.8503 -1.1532 -0.4304
16503SOL     OW51515   8.861   8.244  10.066  0.3984 -0.1276 -0.2283
16503SOL    HW151516   8.772   8.210  10.065 -0.7626  2.4111  2.1624
16503SOL    HW251517   8.902   8.207   9.988 -2.8941 -0.9736 -1.7363
16504SOL     OW51518   4.111   0.223   6.816  0.0372 -0.6557  0.0843
16504SOL    HW151519   4.103   0.139   6.770  0.0669 -0.2891 -0.6141
16504SOL    HW251520   4.197   0.256   6.790  0.8825 -1.3174  1.9348
16505SOL     OW51521   1.748   5.500   1.884 -0.0021 -0.3386  0.2509
16505SOL    HW151522   1.690   5.527   1.813  0.2010  0.4166  0.3596
16505SOL    HW251523   1.827   5.469   1.839  0.3144  0.5875  0.1409
16506SOL     OW51524   3.939   9.640   2.935  0.4151 -0.2157  0.1278
16506SOL    HW151525   4.009   9.677   2.882  1.8609 -1.3931  1.1283
16506SOL    HW251526   3.892   9.716   2.970  2.5466  0.7001  1.1811
16507SOL     OW51527   9.394   1.994   3.128  0.3350  0.1177 -0.2946
16507SOL    HW151528   9.425   2.082   3.150  0.0204 -0.1178  1.1891
16507SOL    HW251529   9.446   1.935   3.183 -0.3772 -0.5279 -0.2966
16508SOL     OW51530   9.905   0.522   0.054 -0.2639 -0.0325  0.3851
16508SOL    HW151531   9.822   0.536   0.009 -0.5640  0.6821  1.1367
16508SOL    HW251532   9.957   0.599   0.035  0.5357 -0.8021 -0.6867
16509SOL     OW51533   3.357   2.899   8.693 -0.0909  0.4351  0.4329
16509SOL    HW151534   3.336   2.913   8.785 -1.2148 -0.5588  0.3481
16509SOL    HW251535   3.369   2.804   8.685 -0.5314  0.4468 -0.5424
16510SOL     OW51536  10.928   6.858  11.093 -0.4620  0.3379 -0.3200
16510SOL    HW151537  10.854   6.877  11.151  1.0426 -1.1238  2.2630
16510SOL    HW251538  10.936   6.763  11.094  1.7058  0.4806 -0.1716
16511SOL     OW51539   1.218   0.518   6.112 -0.2549  0.0447 -0.0617
16511SOL    HW151540   1.133   0.548   6.080  0.8628  2.2516 -1.1517
16511SOL    HW251541   1.243   0.448   6.051 -0.7861  0.1369 -0.3862
16512SOL     OW51542   5.340   9.353   4.348  0.8691  0.2598 -0.1850
16512SOL    HW151543   5.399   9.363   4.423 -1.0553  1.8398  1.2498
16512SOL    HW251544   5.274   9.290   4.377  0.9506 -0.2982 -1.1628
16513SOL     OW51545   4.244   4.803   0.488  0.8223  0.2031 -0.0883
16513SOL    HW151546   4.336   4.801   0.463  1.0641  1.7330  0.5742
16513SOL    HW251547   4.245   4.802   0.584  0.1792  0.6998 -0.0675
16514SOL     OW51548  10.545  11.009   8.290 -0.2452  0.4952  0.2587
16514SOL    HW151549  10.567  10.969   8.206 -1.1162  3.7289 -1.7224
16514SOL    HW251550  10.591  11.093   8.290 -1.2623  1.1450  2.4455
16515SOL     OW51551   3.211   5.628   4.485 -0.0898  0.0242  0.8427
16515SOL    HW151552   3.262   5.591   4.413 -3.1560 -0.8463 -1.0634
16515SOL    HW251553   3.243   5.718   4.493  2.2290 -0.6785  0.3455
16516SOL     OW51554   6.673   5.454   8.407 -0.3896  0.2799 -0.0027
16516SOL    HW151555   6.760   5.444   8.367 -0.0249  0.8452  0.6345
16516SOL    HW251556   6.614   5.411   8.346  0.2237  0.6999 -0.9115
16517SOL     OW51557  10.030   1.063  10.523  0.0664  0.4656 -0.7641
16517SOL    HW151558  10.010   1.146  10.480 -2.4644  0.4792  0.2345
16517SOL    HW251559   9.998   1.075  10.613 -0.0531 -1.4808 -0.5094
16518SOL     OW51560   1.107  10.157   5.701  0.4080  0.4701  0.0246
16518SOL    HW151561   1.096  10.072   5.745 -1.5019 -0.7235 -2.4692
16518SOL    HW251562   1.054  10.149   5.622  3.0966  2.6683 -2.2101
16519SOL     OW51563   2.721  10.767   5.993 -0.1437  0.1845 -0.4058
16519SOL    HW151564   2.810  10.784   5.959  0.3319  0.7350  1.0671
16519SOL    HW251565   2.736  10.724   6.077 -1.2862  0.4399 -0.0663
16520SOL     OW51566   1.011   3.584   4.262 -0.2960 -0.2026  0.3138
16520SOL    HW151567   1.020   3.521   4.334  1.8805 -0.6870 -0.3022
16520SOL    HW251568   1.039   3.667   4.299  1.6487 -0.6086 -0.0997
16521SOL     OW51569   4.246  10.969   0.699 -0.1232 -0.3691  0.2262
16521SOL    HW151570   4.288  10.921   0.771 -1.6161 -0.9488  0.7506
16521SOL    HW251571   4.274  11.059   0.711  1.7620 -0.8775 -0.0514
16522SOL     OW51572   6.683   4.717   9.905  0.2452 -0.6344  0.1117
16522SOL    HW151573   6.588   4.718   9.922  0.1048 -1.1443 -0.5647
16522SOL    HW251574   6.689   4.717   9.810  0.9682  1.0254  0.1223
16523SOL     OW51575   5.086   7.443   4.107 -0.0863  0.1707  0.0907
16523SOL    HW151576   5.122   7.490   4.031 -0.9834 -2.1892 -1.9079
16523SOL    HW251577   5.018   7.501   4.140 -2.1788 -0.1421 -3.2001
16524SOL     OW51578   2.821   4.354   9.223  0.1556  0.3633 -0.3000
16524SOL    HW151579   2.799   4.378   9.133 -0.5608  0.7800 -0.0166
16524SOL    HW251580   2.883   4.281   9.214  0.4172  0.6760 -1.1318
16525SOL     OW51581   5.528   0.330   8.073 -0.8726 -0.0671  0.1265
16525SOL    HW151582   5.479   0.273   8.013 -0.5409  0.3845 -0.5989
16525SOL    HW251583   5.572   0.393   8.015  2.4284 -1.8125  0.4835
16526SOL     OW51584   5.231   8.288   3.523 -0.3266 -0.3022  0.3224
16526SOL    HW151585   5.182   8.212   3.553  0.1450 -0.0555  1.8542
16526SOL    HW251586   5.172   8.362   3.537 -0.2581 -0.2288  0.2283
16527SOL     OW51587   7.157   5.444   7.954  0.5094  0.2467  0.5741
16527SOL    HW151588   7.172   5.512   7.888 -1.2500  2.0640  1.9416
16527SOL    HW251589   7.064   5.450   7.974  0.1840 -2.9345  0.4433
16528SOL     OW51590  10.181   5.772   4.569  0.3422 -0.2661 -0.6701
16528SOL    HW151591  10.122   5.753   4.496  2.3667 -2.2523 -1.9584
16528SOL    HW251592  10.144   5.849   4.611 -1.5949  0.2399 -3.0645
16529SOL     OW51593   3.486   4.895   4.445 -0.6540  0.4602 -0.4687
16529SOL    HW151594   3.425   4.822   4.454 -2.1738  1.7497  0.3383
16529SOL    HW251595   3.472   4.947   4.524 -1.2375  2.7725 -1.9956
16530SOL     OW51596   0.564   8.749   5.972 -0.6621 -0.3296  0.2739
16530SOL    HW151597   0.618   8.686   5.925  1.1393  1.1153  0.2621
16530SOL    HW251598   0.612   8.765   6.053 -0.5313  1.6931 -0.1470
16531SOL     OW51599   0.623   9.400   3.438 -1.0429 -0.3851  0.6104
16531SOL    HW151600   0.614   9.357   3.523 -0.8273 -0.5898  0.5316
16531SOL    HW251601   0.650   9.330   3.378 -2.2491 -0.4629  0.1427
16532SOL     OW51602   4.540   7.046   3.391 -0.3332  0.1529  0.1183
16532SOL    HW151603   4.606   7.033   3.324 -2.2532 -1.3394 -1.6233
16532SOL    HW251604   4.479   7.109   3.354 -0.8793  0.1060  0.9005
16533SOL     OW51605   3.098   2.074   1.961  1.1209 -0.0394 -0.2242
16533SOL    HW151606   3.104   2.059   2.056  3.3719 -1.0304 -0.4394
16533SOL    HW251607   3.017   2.122   1.949  0.6735 -0.0572  2.1938
16534SOL     OW51608   6.835  10.355   3.659  0.2239  0.3228  0.2541
16534SOL    HW151609   6.771  10.347   3.730  0.3042 -1.2990  0.1690
16534SOL    HW251610   6.920  10.363   3.703  0.2504 -0.4582  0.3571
16535SOL     OW51611   4.892   4.061   0.154  0.3973 -0.3701  0.2243
16535SOL    HW151612   4.958   4.098   0.096  1.8542 -2.2148  0.6136
16535SOL    HW251613   4.929   3.978   0.183 -1.4058 -0.7102  1.7659
16536SOL     OW51614   0.890   1.118   8.407 -0.7666 -1.2324 -0.6921
16536SOL    HW151615   0.951   1.062   8.359 -0.4218 -0.1778 -1.5019
16536SOL    HW251616   0.938   1.199   8.422 -2.7567  0.6355 -3.5911
16537SOL     OW51617   8.941   3.923   8.395  0.3509 -0.2145  0.4021
16537SOL    HW151618   9.011   3.967   8.348 -0.9799  0.5436 -0.9544
16537SOL    HW251619   8.880   3.993   8.419 -2.4364 -1.2192 -2.8574
16538SOL     OW51620   2.618   0.105   9.316 -0.4032  0.0621  0.2912
16538SOL    HW151621   2.663   0.176   9.269  0.4811 -0.1951  0.7243
16538SOL    HW251622   2.604   0.140   9.404  0.9824 -0.6424  0.8298
16539SOL     OW51623   7.023   7.920   2.861  0.1058  0.4197 -0.3546
16539SOL    HW151624   6.973   7.928   2.780  1.6019  2.4189 -1.1493
16539SOL    HW251625   7.114   7.911   2.833  0.3783 -2.0927  1.0837
16540SOL     OW51626   5.316   5.813   7.831  0.9434 -0.2332  0.9589
16540SOL    HW151627   5.297   5.899   7.867  1.1909 -0.7069  2.2787
16540SOL    HW251628   5.334   5.758   7.908 -2.2573 -2.2551  0.4547
16541SOL     OW51629   1.535   4.803  10.708 -0.0757 -0.2556 -0.3288
16541SOL    HW151630   1.628   4.826  10.701 -0.3383  0.6871 -0.7846
16541SOL    HW251631   1.501   4.862  10.775 -0.4632 -0.2407 -0.5382
16542SOL     OW51632   3.644   6.984   3.861 -0.0904 -0.1416  0.0540
16542SOL    HW151633   3.649   6.969   3.955 -1.4311  0.0379  0.1646
16542SOL    HW251634   3.718   6.935   3.825 -1.2154 -2.5934  0.9166
16543SOL     OW51635   5.038   2.045   0.480 -0.2069  0.5077  0.4463
16543SOL    HW151636   5.066   1.953   0.488 -2.3807 -0.2216  0.3360
16543SOL    HW251637   5.037   2.062   0.386 -1.6421 -0.0203  0.3370
16544SOL     OW51638   5.534   6.374   2.425  0.4015 -0.0486 -0.3882
16544SOL    HW151639   5.546   6.283   2.452 -0.1658 -0.0141 -0.0053
16544SOL    HW251640   5.542   6.425   2.505 -1.9364 -0.0046 -0.1200
16545SOL     OW51641   6.546   7.078   1.308  0.0779  0.5364  0.0664
16545SOL    HW151642   6.610   7.074   1.379  1.5646 -2.5480 -1.2559
16545SOL    HW251643   6.471   7.125   1.346  1.2835  0.1625  3.2322
16546SOL     OW51644  10.806   2.115   1.972  0.0847 -0.6324  0.4550
16546SOL    HW151645  10.889   2.152   1.942  0.6522 -2.0258  0.2181
16546SOL    HW251646  10.768   2.076   1.893 -1.0735  0.4481  0.4509
16547SOL     OW51647   9.379   3.169   2.994  0.4615  0.8102  0.5769
16547SOL    HW151648   9.453   3.228   2.979  1.0559 -0.0814 -0.1496
16547SOL    HW251649   9.381   3.153   3.089  0.4950  1.6792  0.7296
16548SOL     OW51650   9.896  10.462   6.022 -0.8967 -0.7477  0.1120
16548SOL    HW151651   9.912  10.401   5.950  0.3490  4.0427 -4.2813
16548SOL    HW251652   9.982  10.479   6.059 -1.1584 -1.1693  0.9387
16549SOL     OW51653   3.171   6.207   2.314 -0.2728 -0.1497 -0.4286
16549SOL    HW151654   3.198   6.116   2.328 -0.2141  0.1744  1.9694
16549SOL    HW251655   3.077   6.203   2.302 -0.3481 -0.4862  0.2473
16550SOL     OW51656   5.363   9.440  11.069  0.1053  0.0809 -0.0126
16550SOL    HW151657   5.448   9.457  11.109  0.8882 -1.6602 -0.8010
16550SOL    HW251658   5.358   9.503  10.997  1.1768 -0.3725 -0.5199
16551SOL     OW51659   5.429   3.647   3.033 -0.2950 -0.1519  0.3094
16551SOL    HW151660   5.390   3.622   2.950 -0.0227 -1.9231  0.6810
16551SOL    HW251661   5.439   3.742   3.027 -1.8990 -0.0217 -0.9624
16552SOL     OW51662   8.848   3.258   1.342  0.3713  0.0673  0.6609
16552SOL    HW151663   8.807   3.265   1.256  0.5455 -2.8692  0.2185
16552SOL    HW251664   8.784   3.294   1.403 -0.8958 -0.2282 -0.4558
16553SOL     OW51665   4.957   3.723   7.453 -0.0292  0.1696 -0.6443
16553SOL    HW151666   5.027   3.679   7.405  0.0763  1.1907 -1.4781
16553SOL    HW251667   4.904   3.652   7.490  0.3465 -0.6396 -1.6136
16554SOL     OW51668   1.522   2.063   0.075 -0.4025  0.3474  0.0900
16554SOL    HW151669   1.545   1.987   0.128 -0.1494 -1.2235 -2.0991
16554SOL    HW251670   1.431   2.082   0.096 -1.0423 -1.7425 -0.5628
16555SOL     OW51671   7.404   7.390   1.769  0.5187  0.8201 -0.4295
16555SOL    HW151672   7.385   7.403   1.677  1.6086  0.0258 -0.7916
16555SOL    HW251673   7.328   7.344   1.804  0.2203  0.8916 -0.9865
16556SOL     OW51674   9.942   7.541  10.698 -0.3370  0.6046 -0.8255
16556SOL    HW151675   9.946   7.449  10.724  0.2275  1.1707  1.2865
16556SOL    HW251676  10.015   7.551  10.637  2.4100  0.4944  2.1543
16557SOL     OW51677   0.834   1.017   6.403  0.1914 -0.2194  0.4778
16557SOL    HW151678   0.886   1.029   6.324 -0.5407 -0.2106 -0.0139
16557SOL    HW251679   0.744   1.013   6.371 -0.0619 -0.8035  1.2525
16558SOL     OW51680   3.016   0.283   9.510  0.1395 -0.0061  0.2491
16558SOL    HW151681   3.025   0.210   9.449  0.2485 -0.2045  0.5001
16558SOL    HW251682   2.963   0.347   9.464  0.1032 -0.2157  0.0009
16559SOL     OW51683   0.850   7.142   3.120 -0.3518  0.1343 -0.1293
16559SOL    HW151684   0.854   7.217   3.059 -0.1760  1.1778  1.1209
16559SOL    HW251685   0.799   7.076   3.073  0.4373  0.5969 -1.7199
16560SOL     OW51686   5.715   0.272   7.379 -0.6451 -0.9026 -0.3989
16560SOL    HW151687   5.656   0.225   7.439 -1.8260 -0.4905 -1.1876
16560SOL    HW251688   5.772   0.322   7.437 -1.9970 -0.2274  0.4172
16561SOL     OW51689   3.360   9.305   8.501 -0.4701  0.4890 -0.5320
16561SOL    HW151690   3.333   9.214   8.505 -0.6643  0.5850  1.5137
16561SOL    HW251691   3.429   9.307   8.435  0.4008 -1.3918  0.2566
16562SOL     OW51692   6.229   8.480   5.793 -0.0305  0.4008 -0.1837
16562SOL    HW151693   6.249   8.463   5.885  0.2498  1.0712 -0.1107
16562SOL    HW251694   6.195   8.397   5.759 -0.0058  0.1133  0.4874
16563SOL     OW51695   9.805  10.581   1.000  0.3744 -0.0018 -0.0515
16563SOL    HW151696   9.845  10.632   1.070 -3.4548 -0.9508  3.2520
16563SOL    HW251697   9.735  10.637   0.966  0.2690 -0.6828 -1.0188
16564SOL     OW51698   4.669   2.334   0.288  0.5395  0.2785 -0.0716
16564SOL    HW151699   4.596   2.272   0.289  0.5392  0.2000  2.7723
16564SOL    HW251700   4.726   2.306   0.360  2.0229  1.9026 -0.5393
16565SOL     OW51701   2.272   5.652   8.606 -0.3548 -0.5238 -0.8233
16565SOL    HW151702   2.340   5.719   8.613 -1.0987  0.0759  2.3957
16565SOL    HW251703   2.237   5.661   8.518  0.4560  2.4658 -0.9247
16566SOL     OW51704   0.266   7.187   2.016  0.4837 -0.5197  0.1318
16566SOL    HW151705   0.283   7.271   1.974 -1.3257  1.6470  3.2890
16566SOL    HW251706   0.341   7.173   2.073 -0.1454  0.1325  1.1677
16567SOL     OW51707   5.406   7.626  10.929  0.1739  0.0555  0.4897
16567SOL    HW151708   5.476   7.667  10.878 -0.9023 -1.5870 -2.5611
16567SOL    HW251709   5.442   7.542  10.957 -0.3015 -0.4811 -0.4701
16568SOL     OW51710   2.734   3.636   6.656  0.2090 -0.4837 -0.4984
16568SOL    HW151711   2.746   3.621   6.562  1.6580 -2.4737 -0.0488
16568SOL    HW251712   2.723   3.549   6.694 -0.6535  0.2891  1.1792
16569SOL     OW51713   7.982   3.023   4.616 -0.1954 -0.3423 -0.2952
16569SOL    HW151714   8.014   2.993   4.531  4.1558 -0.8343  1.2418
16569SOL    HW251715   7.937   3.106   4.597  1.3945  0.0232 -3.0106
16570SOL     OW51716   1.543   0.363   5.764  0.3328  0.0150  0.7093
16570SOL    HW151717   1.538   0.388   5.856  0.8252 -0.2059  0.7996
16570SOL    HW251718   1.627   0.318   5.756  1.8184  2.7557 -0.4761
16571SOL     OW51719   9.843   0.834   8.094  0.2972  0.6142 -0.4600
16571SOL    HW151720   9.760   0.794   8.068  0.9153 -1.9369  1.1050
16571SOL    HW251721   9.819   0.897   8.163 -0.2965 -1.0755  0.9521
16572SOL     OW51722   6.524   6.448   6.055  0.2748 -0.3895  0.2635
16572SOL    HW151723   6.597   6.472   5.998  0.9889 -0.2381  1.2107
16572SOL    HW251724   6.518   6.353   6.047  0.5100 -0.3919  0.1074
16573SOL     OW51725   5.151   9.456   3.259 -0.1862 -0.0771  0.1756
16573SOL    HW151726   5.090   9.491   3.195  0.7272 -2.6436 -2.2968
16573SOL    HW251727   5.181   9.533   3.308 -1.3030  1.9665 -2.1434
16574SOL     OW51728  10.405   0.798   7.700 -0.1614  0.0362  0.1494
16574SOL    HW151729  10.324   0.809   7.651 -0.5129  1.7458  1.0307
16574SOL    HW251730  10.392   0.719   7.752 -0.6397 -0.5431 -0.8103
16575SOL     OW51731   9.170   1.424   7.559  0.9002  0.4792 -0.6104
16575SOL    HW151732   9.120   1.502   7.582 -0.3069 -0.6518  0.8117
16575SOL    HW251733   9.260   1.455   7.550  0.6261  1.8662  1.0233
16576SOL     OW51734   9.072   3.236   1.023 -0.5829 -0.1631  0.2744
16576SOL    HW151735   9.067   3.151   1.068 -1.4217 -0.3521 -0.1493
16576SOL    HW251736   9.165   3.256   1.019 -0.4264 -0.6723  1.1094
16577SOL     OW51737   3.950   9.901   8.299 -0.4715 -0.2410  0.1375
16577SOL    HW151738   3.970   9.995   8.294 -0.5334 -0.2483 -0.2618
16577SOL    HW251739   3.963   9.879   8.392  1.3485 -0.2357 -0.0846
16578SOL     OW51740   1.771   9.316   8.885  0.0089  0.1960 -0.1452
16578SOL    HW151741   1.799   9.284   8.800 -0.2665 -0.7224  0.0942
16578SOL    HW251742   1.723   9.242   8.924  0.1107  0.6036  0.7910
16579SOL     OW51743   6.016   0.034   0.839 -0.2528  0.2685 -0.1623
16579SOL    HW151744   6.002   0.128   0.823  1.6873  0.4178 -1.2475
16579SOL    HW251745   5.952  -0.010   0.783  0.3293  0.9327 -1.3787
16580SOL     OW51746   8.360   2.319   7.872  0.3416 -0.0524 -0.1958
16580SOL    HW151747   8.377   2.373   7.949  0.4252  0.1542 -0.3579
16580SOL    HW251748   8.402   2.235   7.892  0.2030 -0.0600  0.0601
16581SOL     OW51749   8.026  10.194   1.376 -0.2174 -0.2890 -0.0428
16581SOL    HW151750   7.987  10.277   1.350 -1.9907 -0.6314  1.3072
16581SOL    HW251751   8.101  10.218   1.431  0.1788  0.3947 -0.8707
16582SOL     OW51752   7.508   4.515   2.746  0.0948  0.4813  0.0391
16582SOL    HW151753   7.483   4.553   2.830  0.5612 -1.6179  1.1757
16582SOL    HW251754   7.425   4.487   2.707  0.1076 -1.4317  1.2893
16583SOL     OW51755   1.972   5.328   8.826 -0.2048 -0.6078  0.0499
16583SOL    HW151756   2.064   5.304   8.818 -0.8601 -3.7088  0.3340
16583SOL    HW251757   1.961   5.403   8.768  2.6157  0.3831  0.6439
16584SOL     OW51758   7.694   6.334   0.575 -0.1812  0.1107  0.0092
16584SOL    HW151759   7.747   6.276   0.521  1.4098  2.1969 -0.7924
16584SOL    HW251760   7.737   6.334   0.660  0.5565  0.9945 -0.3425
16585SOL     OW51761   3.611  10.567   5.650  0.3355 -0.4384 -1.1461
16585SOL    HW151762   3.703  10.587   5.630  1.1716 -2.3405  0.4740
16585SOL    HW251763   3.615  10.510   5.727 -2.1693 -1.3647 -1.6099
16586SOL     OW51764   1.681   2.011   5.299  0.0441  0.0799  0.2423
16586SOL    HW151765   1.600   2.058   5.319 -0.5723 -1.1389  0.6594
16586SOL    HW251766   1.712   1.979   5.383  1.3334  1.0793  0.1812
16587SOL     OW51767   2.893   0.879   8.132 -0.2278 -0.2859 -0.0559
16587SOL    HW151768   2.841   0.953   8.164 -2.9910 -1.3490 -1.8226
16587SOL    HW251769   2.937   0.913   8.054 -0.1697 -0.0854  0.0607
16588SOL     OW51770  11.050   3.579   8.332 -0.0517 -0.3252 -0.3183
16588SOL    HW151771  11.022   3.523   8.259 -0.1529 -0.1725 -0.3959
16588SOL    HW251772  10.981   3.570   8.397  0.2285 -0.7671 -0.0796
16589SOL     OW51773   1.805   6.971   8.006 -0.7055 -0.3926  0.0671
16589SOL    HW151774   1.875   6.941   7.949  0.2775 -0.9023  1.5071
16589SOL    HW251775   1.809   7.067   8.001 -0.8702 -0.4324 -0.9747
16590SOL     OW51776   1.491   7.434   0.318  0.0007  0.6267  0.6054
16590SOL    HW151777   1.516   7.505   0.259 -2.4904  0.1734 -1.2235
16590SOL    HW251778   1.397   7.446   0.331  0.2479 -0.0193  3.6171
16591SOL     OW51779   7.015   7.571   1.559  0.3215  0.1572  0.5724
16591SOL    HW151780   6.932   7.522   1.555  1.0724 -1.0934 -0.4449
16591SOL    HW251781   7.059   7.550   1.477  1.4181  1.2503  0.8554
16592SOL     OW51782   0.532   4.332   9.269  0.4759 -0.0109 -0.3314
16592SOL    HW151783   0.507   4.423   9.285 -1.5938 -0.6999  0.7259
16592SOL    HW251784   0.532   4.324   9.174 -1.3833  0.6103 -0.4205
16593SOL     OW51785   9.907   0.775   9.189  0.1866  0.3788  0.0087
16593SOL    HW151786   9.968   0.795   9.118  1.0275  0.3301  0.6953
16593SOL    HW251787   9.925   0.683   9.211 -1.2304 -0.1274 -0.8090
16594SOL     OW51788   4.591   0.991   1.544  0.4139  0.3845 -0.6185
16594SOL    HW151789   4.553   1.040   1.617  3.8272  0.1527  1.5485
16594SOL    HW251790   4.525   0.996   1.475 -2.7549  1.2320  2.1751
16595SOL     OW51791   7.108   9.837   5.338 -0.8054 -0.3884  0.7639
16595SOL    HW151792   7.121   9.744   5.358 -0.0643 -0.3634  0.4061
16595SOL    HW251793   7.160   9.853   5.259  0.1852  0.6452  1.5846
16596SOL     OW51794   4.961   6.512   0.254 -0.3688  0.0267 -0.4040
16596SOL    HW151795   5.024   6.580   0.232 -3.3616  2.4886 -2.2140
16596SOL    HW251796   4.978   6.492   0.346  3.4485 -0.0987 -0.9848
16597SOL     OW51797   0.289   0.840  10.766 -0.4490 -0.6807  0.3965
16597SOL    HW151798   0.222   0.899  10.731 -0.6695  0.2167  2.1826
16597SOL    HW251799   0.249   0.753  10.764 -1.7788 -0.1474  1.5415
16598SOL     OW51800   2.751   5.942   0.717 -0.3461 -0.5250  0.3387
16598SOL    HW151801   2.821   5.985   0.669  0.3438 -1.6381  0.3029
16598SOL    HW251802   2.670   5.972   0.675  0.1850 -0.4527 -0.6479
16599SOL     OW51803   7.959   0.457   0.914 -0.6387 -0.1298 -0.2506
16599SOL    HW151804   7.977   0.551   0.918  0.0161 -0.2850  0.8539
16599SOL    HW251805   7.977   0.432   0.824  1.0913  0.4536 -0.0909
16600SOL     OW51806   9.516   5.501   0.080 -0.5492 -0.1681  0.1589
16600SOL    HW151807   9.486   5.496  -0.011  1.5291  0.4437 -0.6200
16600SOL    HW251808   9.612   5.506   0.074 -0.3641  0.2367  2.3739
16601SOL     OW51809   8.267   3.287   1.974  0.0525  0.1334 -0.0504
16601SOL    HW151810   8.303   3.294   2.062  0.4088 -0.9242 -0.1006
16601SOL    HW251811   8.343   3.269   1.919 -0.2028  0.5446 -0.5445
16602SOL     OW51812  10.619   4.296   7.420 -0.2817 -0.0638  0.1046
16602SOL    HW151813  10.629   4.201   7.429  0.1644 -0.1369 -1.0200
16602SOL    HW251814  10.708   4.330   7.425 -0.3627  0.2157 -0.3561
16603SOL     OW51815   8.569   1.050   1.422  0.1342  0.0775 -0.1580
16603SOL    HW151816   8.513   1.105   1.368 -0.7980  0.6559  1.3392
16603SOL    HW251817   8.657   1.064   1.388 -0.2697  1.3695 -0.7139
16604SOL     OW51818   3.506   3.919   2.741 -0.7307 -0.0945  0.5028
16604SOL    HW151819   3.588   3.871   2.756  0.0456  1.4109  1.3619
16604SOL    HW251820   3.474   3.887   2.657 -1.0523 -3.1669  1.6450
16605SOL     OW51821   0.245   4.658   7.688 -0.4864 -0.1502  0.2340
16605SOL    HW151822   0.263   4.564   7.692 -1.7832 -0.4943 -1.1803
16605SOL    HW251823   0.289   4.694   7.765  2.7804 -1.4020 -0.9124
16606SOL     OW51824   8.244   3.845   3.257 -0.1933 -0.6098  0.4274
16606SOL    HW151825   8.315   3.877   3.202 -0.3776  1.4324  1.2564
16606SOL    HW251826   8.165   3.861   3.206 -0.1603 -1.7058  0.0151
16607SOL     OW51827   0.583   5.741   4.220 -0.4110 -0.0089 -0.0662
16607SOL    HW151828   0.599   5.803   4.149 -1.8130 -1.5615 -1.8453
16607SOL    HW251829   0.572   5.795   4.298  1.1190  1.7586 -1.0040
16608SOL     OW51830   2.285   7.763   4.898 -0.2755  0.0937 -0.5612
16608SOL    HW151831   2.327   7.838   4.939 -2.0342  0.5503  0.5044
16608SOL    HW251832   2.318   7.687   4.947 -0.9160  0.4763  0.5022
16609SOL     OW51833   5.008   8.716   6.148 -0.2386  0.1779 -0.3393
16609SOL    HW151834   5.096   8.752   6.133 -0.0516  0.0890  0.4861
16609SOL    HW251835   4.968   8.714   6.061  0.9274 -0.6860 -0.9003
16610SOL     OW51836   9.227   7.057   8.998 -0.1088 -0.0327 -0.1651
16610SOL    HW151837   9.154   7.046   8.937 -0.5784 -0.9538  0.5510
16610SOL    HW251838   9.199   7.014   9.078  1.0523 -0.0262  0.2662
16611SOL     OW51839   4.755   7.998   9.636  0.1193  0.7244 -0.5324
16611SOL    HW151840   4.754   8.076   9.692  1.8925  1.6007 -1.6496
16611SOL    HW251841   4.782   8.030   9.550  0.2629 -1.0382 -1.1847
16612SOL     OW51842   1.552   7.721   2.866 -0.0440  0.1208 -0.2316
16612SOL    HW151843   1.531   7.657   2.798 -1.1361  0.5593 -0.3370
16612SOL    HW251844   1.647   7.719   2.872 -0.0171 -1.0230 -0.6990
16613SOL     OW51845   7.789   3.242   7.979  0.3287 -0.1602  0.2090
16613SOL    HW151846   7.815   3.168   7.924 -1.5662  0.4659 -1.6801
16613SOL    HW251847   7.694   3.234   7.986 -0.5882  3.9165 -3.1982
16614SOL     OW51848   1.310   3.118   9.394  0.3901  0.2430 -0.1145
16614SOL    HW151849   1.289   3.094   9.304 -2.1708 -1.8495  0.8968
16614SOL    HW251850   1.358   3.043   9.429  0.0787  0.3949  0.6599
16615SOL     OW51851   0.633   6.995   9.769  0.4171  0.3393  0.2716
16615SOL    HW151852   0.715   7.038   9.791  1.0420 -1.1457  0.9972
16615SOL    HW251853   0.649   6.902   9.787 -0.9267 -0.1925 -1.0306
16616SOL     OW51854   3.459   7.296   5.835 -0.0289 -0.4889 -0.2931
16616SOL    HW151855   3.542   7.276   5.792  0.7550  1.9911 -0.1237
16616SOL    HW251856   3.398   7.230   5.802  1.3731 -0.7973 -2.4730
16617SOL     OW51857   2.596   2.008   9.886  0.4452 -0.3300  0.1373
16617SOL    HW151858   2.624   1.985   9.797 -0.4191  0.3656 -0.3378
16617SOL    HW251859   2.500   2.012   9.880  0.2018 -2.3309  1.6173
16618SOL     OW51860   7.501   6.578  10.995 -0.1929 -0.0185  0.2720
16618SOL    HW151861   7.493   6.514  11.066  3.3504 -0.5808  0.3388
16618SOL    HW251862   7.556   6.647  11.030 -0.1567  0.7759 -1.2615
16619SOL     OW51863   2.302  10.768   7.282 -0.0200  0.9841  0.4561
16619SOL    HW151864   2.334  10.696   7.337  0.6694  0.9488  0.0297
16619SOL    HW251865   2.303  10.732   7.193  0.9225  1.6939  0.1540
16620SOL     OW51866   0.667   1.644   5.997 -0.3328  0.2078  0.2422
16620SOL    HW151867   0.650   1.554   6.024  3.1157 -0.6559 -0.0936
16620SOL    HW251868   0.701   1.636   5.908  2.3126  1.5212  1.0448
16621SOL     OW51869   3.166   1.315   8.761  0.7775  0.9171 -0.3724
16621SOL    HW151870   3.117   1.331   8.680  0.4844  1.9699 -0.0188
16621SOL    HW251871   3.258   1.314   8.734  0.5831 -1.9033 -1.1731
16622SOL     OW51872   5.429   4.190   9.147 -0.0902 -0.2644  0.2267
16622SOL    HW151873   5.391   4.225   9.227  0.7983  0.4252  0.3647
16622SOL    HW251874   5.359   4.194   9.082 -0.0417  1.8162  0.2343
16623SOL     OW51875   6.964   4.229   1.159 -0.0194 -0.6840 -0.9728
16623SOL    HW151876   6.930   4.313   1.128 -0.8418  0.2630  2.1326
16623SOL    HW251877   7.020   4.198   1.088 -0.5578  1.9401 -2.6850
16624SOL     OW51878   6.560   8.358   7.931 -0.3247  0.3318 -0.4375
16624SOL    HW151879   6.509   8.308   7.995  0.6362 -1.0732 -0.7426
16624SOL    HW251880   6.511   8.440   7.921 -1.8625 -0.4688  0.1798
16625SOL     OW51881   7.849   9.455   4.677 -0.1476  0.5261  0.1726
16625SOL    HW151882   7.931   9.497   4.705 -0.0571  0.1144  0.5356
16625SOL    HW251883   7.790   9.528   4.659 -0.1538  0.8131  1.2874
16626SOL     OW51884   7.938   1.182   7.988  0.6493  0.2007  0.3100
16626SOL    HW151885   8.020   1.160   8.032  1.2945 -0.0915 -1.0025
16626SOL    HW251886   7.962   1.192   7.896 -0.7215  0.4992 -0.0334
16627SOL     OW51887   3.774   5.184   0.415 -0.1479  0.2863  0.4663
16627SOL    HW151888   3.837   5.166   0.485 -1.4427 -1.0003  1.3436
16627SOL    HW251889   3.698   5.220   0.460 -0.6724  0.2493 -0.3770
16628SOL     OW51890   5.878   3.648   3.626 -0.1807  0.4272  0.4150
16628SOL    HW151891   5.854   3.568   3.579 -0.2797  0.4715  0.3882
16628SOL    HW251892   5.795   3.679   3.663 -0.2713  0.8793 -0.1393
16629SOL     OW51893   4.672  10.708   9.279  0.0543 -0.3256  0.1081
16629SOL    HW151894   4.691  10.615   9.289  2.4877  0.0355 -0.5044
16629SOL    HW251895   4.746  10.752   9.322 -1.0536  1.3382  0.3870
16630SOL     OW51896   3.857   4.409   2.983  0.0182  0.3923  0.0654
16630SOL    HW151897   3.946   4.379   2.963  0.0731 -0.8221  1.8910
16630SOL    HW251898   3.807   4.329   2.996 -2.1061  0.9207 -3.4727
16631SOL     OW51899   1.910  10.985   9.428  0.0095 -0.2267 -0.0426
16631SOL    HW151900   1.872  10.965   9.343 -0.6921 -1.4224  0.5226
16631SOL    HW251901   1.838  10.977   9.490  0.5658  0.3559  0.7084
16632SOL     OW51902   2.583  10.004   0.374  0.0233 -0.5798 -1.2814
16632SOL    HW151903   2.672  10.017   0.342 -0.2217  0.4139 -1.5843
16632SOL    HW251904   2.572   9.909   0.377  0.6707 -0.7004 -2.3962
16633SOL     OW51905   7.214   4.697   7.914 -0.0863  0.4243 -0.3956
16633SOL    HW151906   7.138   4.703   7.971  0.0880  4.0583 -0.3026
16633SOL    HW251907   7.185   4.736   7.832  1.3993  0.9697 -0.6858
16634SOL     OW51908   1.680   1.246   6.199  0.1460  0.1396  0.0111
16634SOL    HW151909   1.653   1.182   6.134 -1.1758  0.8408 -0.1685
16634SOL    HW251910   1.775   1.241   6.199  0.0896 -1.4633 -0.3389
16635SOL     OW51911   6.068  10.066   6.238 -0.3751 -0.1648  0.7787
16635SOL    HW151912   6.011  10.020   6.177 -1.1770  0.0650  1.3372
16635SOL    HW251913   6.096  10.145   6.191 -1.2442  0.1700  0.8111
16636SOL     OW51914   2.621   4.340   0.702 -0.3893 -0.1147  0.2501
16636SOL    HW151915   2.541   4.388   0.722  0.0288  0.2304  1.1206
16636SOL    HW251916   2.686   4.408   0.686 -0.4002 -0.3897 -1.0701
16637SOL     OW51917   6.244   1.584   2.147  0.6555  0.2002  0.4449
16637SOL    HW151918   6.196   1.529   2.085  0.4998  0.7994  0.0226
16637SOL    HW251919   6.298   1.641   2.092  1.4071 -0.0657  0.8985
16638SOL     OW51920   4.320   6.326   1.332 -0.0836  0.4920  0.2932
16638SOL    HW151921   4.296   6.298   1.244  1.6884 -1.3941  0.3430
16638SOL    HW251922   4.246   6.298   1.387 -0.7545  0.8207 -0.4245
16639SOL     OW51923   5.154   7.141   0.400  0.2792 -0.4709 -0.8197
16639SOL    HW151924   5.238   7.112   0.364 -0.2062 -2.9556 -0.1863
16639SOL    HW251925   5.151   7.101   0.487 -1.3231  0.0377 -0.6152
16640SOL     OW51926   3.428   3.399   2.141  0.1867  0.1501 -0.2235
16640SOL    HW151927   3.422   3.304   2.154 -2.2454  0.2899  0.0484
16640SOL    HW251928   3.383   3.436   2.217 -1.6788  1.4082 -1.8470
16641SOL     OW51929   2.454   4.447  10.433 -0.0354  0.0797 -0.6126
16641SOL    HW151930   2.475   4.530  10.474  1.1705 -0.6884  0.4051
16641SOL    HW251931   2.472   4.382  10.501 -2.0300 -0.9441 -1.0018
16642SOL     OW51932   8.578   7.489   1.703  0.0589 -0.2970 -0.1507
16642SOL    HW151933   8.543   7.472   1.615 -0.0088 -1.1491  0.0283
16642SOL    HW251934   8.509   7.459   1.762 -1.2383  3.0935  0.2532
16643SOL     OW51935  10.052   6.608   4.227 -1.4446 -0.2286 -0.3268
16643SOL    HW151936  10.062   6.703   4.222 -0.7125 -0.2343  0.8419
16643SOL    HW251937  10.094   6.576   4.147  1.8611  0.2258  1.0756
16644SOL     OW51938   2.080   3.456   8.372  0.1880  0.3872  0.2658
16644SOL    HW151939   2.048   3.374   8.410  0.3723  0.4748  0.6152
16644SOL    HW251940   2.014   3.479   8.307 -0.8172  0.8928  1.4069
16645SOL     OW51941   7.813   0.836   3.983 -0.0612 -0.4176 -0.0049
16645SOL    HW151942   7.729   0.883   3.980 -0.9437 -1.9803 -1.2863
16645SOL    HW251943   7.835   0.822   3.891  3.4885  3.0281  0.0532
16646SOL     OW51944   6.529   0.568   8.356  0.4394 -0.1728  0.3214
16646SOL    HW151945   6.612   0.584   8.402  0.5315 -1.7594  0.7631
16646SOL    HW251946   6.541   0.483   8.315 -1.0437 -0.5016  0.5362
16647SOL     OW51947   6.368   9.332   1.805  0.3777  0.9820 -0.9046
16647SOL    HW151948   6.410   9.383   1.736 -0.9905  1.9703 -1.0544
16647SOL    HW251949   6.342   9.396   1.870 -0.6662  0.4012 -0.7181
16648SOL     OW51950   9.097   8.329   5.170 -0.3610  0.7708  0.1469
16648SOL    HW151951   9.002   8.330   5.159 -0.2481 -0.4933 -1.1783
16648SOL    HW251952   9.110   8.303   5.261 -1.2984 -1.4188 -0.2887
16649SOL     OW51953   4.316   0.072   6.201  0.7624  0.0363 -0.2610
16649SOL    HW151954   4.221   0.082   6.207  0.7657  0.4412 -0.8262
16649SOL    HW251955   4.343   0.137   6.136  1.2067 -1.3308 -1.5049
16650SOL     OW51956   8.013   0.073   2.053  0.4096  0.0844 -0.5093
16650SOL    HW151957   8.024  -0.010   2.099 -0.8714 -0.9333 -1.9264
16650SOL    HW251958   7.971   0.049   1.970  1.1807  2.0168 -1.5183
16651SOL     OW51959   2.416   5.687   3.620 -0.0801 -0.3723 -0.0518
16651SOL    HW151960   2.360   5.630   3.569 -1.3347  1.0786 -0.3735
16651SOL    HW251961   2.474   5.729   3.556  0.4902 -0.8774  0.1206
16652SOL     OW51962   2.248   9.887   4.933  0.5202 -0.3469 -0.0364
16652SOL    HW151963   2.254   9.825   5.006  1.4503  0.0641  0.2415
16652SOL    HW251964   2.159   9.922   4.939  1.0252  0.7686  1.7974
16653SOL     OW51965   2.404   3.048   1.707 -0.5901 -0.0302  0.5012
16653SOL    HW151966   2.383   3.140   1.723 -2.6463 -0.3487 -0.0690
16653SOL    HW251967   2.492   3.037   1.741  0.8750  2.8382 -1.8695
16654SOL     OW51968   4.230   5.738   7.027  0.4184  0.4649  0.8539
16654SOL    HW151969   4.199   5.741   6.937 -1.4649  0.0191  1.4418
16654SOL    HW251970   4.219   5.828   7.059 -0.7446  0.2248  1.1818
16655SOL     OW51971  10.874   3.568   0.477 -0.3585 -0.0659 -0.1658
16655SOL    HW151972  10.823   3.554   0.397  0.5735  1.2665 -1.0342
16655SOL    HW251973  10.931   3.642   0.457  2.2761 -1.7535  0.5763
16656SOL     OW51974   2.020   7.587   9.131 -0.0467  0.1794  0.0554
16656SOL    HW151975   1.990   7.526   9.063  1.7362  0.2398 -0.8421
16656SOL    HW251976   2.089   7.638   9.089 -0.5055  1.8734  1.2253
16657SOL     OW51977   3.051   9.920   1.381  0.0702 -0.4727  0.0634
16657SOL    HW151978   2.997   9.867   1.323  0.6509  0.1800 -1.1294
16657SOL    HW251979   3.080   9.859   1.450 -0.5069 -1.3123 -0.4180
16658SOL     OW51980   0.317  10.902   8.566  0.2604  0.6276  0.4496
16658SOL    HW151981   0.222  10.899   8.579  0.2283  2.0151  0.6566
16658SOL    HW251982   0.352  10.843   8.633 -0.5136 -1.1630 -0.6492
16659SOL     OW51983   1.706   1.058   7.255 -0.3985  0.2966 -0.2681
16659SOL    HW151984   1.731   1.050   7.347 -1.7644  3.1647  0.4744
16659SOL    HW251985   1.636   0.994   7.243  0.3505 -0.6743  0.4374
16660SOL     OW51986   5.834   4.748   4.552  0.0162 -0.1305 -0.0428
16660SOL    HW151987   5.887   4.679   4.592  0.3768  1.3058  2.1799
16660SOL    HW251988   5.877   4.767   4.469  1.0330 -1.2298  0.2067
16661SOL     OW51989   8.895   4.322   0.625 -0.2160  0.4165 -0.0754
16661SOL    HW151990   8.832   4.299   0.557  0.2423  1.2573 -0.8024
16661SOL    HW251991   8.854   4.294   0.707 -0.4519 -1.3286 -0.7419
16662SOL     OW51992   6.516   7.950   6.645 -0.3688 -0.6489  0.9208
16662SOL    HW151993   6.531   7.875   6.587 -1.2790 -2.2412  2.6319
16662SOL    HW251994   6.510   7.911   6.733  0.2137  1.5712  2.0224
16663SOL     OW51995   7.662   8.359   0.692 -0.2361  0.4395  0.4901
16663SOL    HW151996   7.689   8.447   0.664 -3.6450  0.7490 -2.5829
16663SOL    HW251997   7.626   8.372   0.780 -0.9395  2.2277 -0.0147
16664SOL     OW51998   1.018   8.989   1.628 -0.5811  0.2794  0.3387
16664SOL    HW151999   0.940   8.989   1.684  0.8132  2.0026  2.4247
16664SOL    HW252000   1.045   8.897   1.625 -2.1567 -0.2143  0.3149
16665SOL     OW52001   7.867   4.024   5.380 -0.4109  0.0303  0.5284
16665SOL    HW152002   7.946   3.992   5.423 -1.6667 -2.5421  1.0565
16665SOL    HW252003   7.828   4.083   5.444  0.8870  1.1331  0.3657
16666SOL     OW52004   4.304   7.574   7.049  0.4723 -0.2390  0.4492
16666SOL    HW152005   4.367   7.642   7.071 -2.3481  1.9076  2.6997
16666SOL    HW252006   4.335   7.497   7.096  1.9492  0.4245  0.6281
16667SOL     OW52007   6.934  10.967   3.523 -0.5846  0.2673  0.0259
16667SOL    HW152008   6.903  10.877   3.520  0.8637 -0.2326 -1.2065
16667SOL    HW252009   6.929  10.997   3.432  0.2904  0.9347  0.1806
16668SOL     OW52010   1.881   1.038   2.718 -0.0990 -0.9596 -0.2947
16668SOL    HW152011   1.918   0.979   2.784  0.7045  0.1810  0.3057
16668SOL    HW252012   1.846   1.111   2.769 -0.7553 -0.7293 -1.0543
16669SOL     OW52013   0.754   1.153   2.032  0.2395 -0.4105  0.7575
16669SOL    HW152014   0.701   1.106   2.096 -1.3735 -0.1867 -0.3711
16669SOL    HW252015   0.796   1.084   1.980 -1.6801 -0.6662 -0.5350
16670SOL     OW52016   2.581   4.374   0.159  0.3117  0.0929  0.1277
16670SOL    HW152017   2.636   4.298   0.143 -1.6860 -1.4719  0.2824
16670SOL    HW252018   2.602   4.401   0.248  1.8385  0.4743 -0.3175
16671SOL     OW52019   6.763   3.077   6.925  0.4525 -0.1805  0.3433
16671SOL    HW152020   6.803   3.059   6.840  0.6352 -0.9034  0.5727
16671SOL    HW252021   6.735   2.991   6.957  1.9087 -0.1824  1.7654
16672SOL     OW52022   9.606   0.881   9.361  0.4328 -0.1168 -0.0404
16672SOL    HW152023   9.561   0.822   9.301 -0.5254  2.6043 -2.2484
16672SOL    HW252024   9.569   0.967   9.342  1.6936  1.2525  2.9995
16673SOL     OW52025   6.970   4.316   5.340 -0.1819 -0.2534  1.1348
16673SOL    HW152026   7.033   4.363   5.285 -1.7050 -0.6079 -1.0790
16673SOL    HW252027   6.894   4.374   5.345 -0.8606 -1.1131  1.0885
16674SOL     OW52028   5.239   0.033   6.607 -0.1620  0.8303 -0.2777
16674SOL    HW152029   5.195   0.102   6.557  1.1936  0.8603 -1.5131
16674SOL    HW252030   5.234  -0.044   6.551 -2.6073 -0.4521  1.5475
16675SOL     OW52031  10.280   4.285   1.024  0.4379  0.3687 -0.6124
16675SOL    HW152032  10.282   4.369   0.977  1.0059 -0.7801 -2.7966
16675SOL    HW252033  10.191   4.252   1.010  0.6320 -0.0116 -0.9922
16676SOL     OW52034   2.727   6.117   9.779  0.6418 -0.1770  0.0401
16676SOL    HW152035   2.686   6.175   9.843  0.8854  2.0702 -1.7146
16676SOL    HW252036   2.806   6.085   9.823  0.4844  0.8083  1.0929
16677SOL     OW52037   7.946   5.225   9.140 -0.5295  0.4686 -0.3858
16677SOL    HW152038   7.992   5.162   9.195 -1.4873 -1.6907 -1.9049
16677SOL    HW252039   8.010   5.250   9.073 -0.8022 -0.6959 -1.1069
16678SOL     OW52040   6.744   5.973   0.658 -0.1500 -0.0414 -0.9316
16678SOL    HW152041   6.748   5.999   0.566 -0.0473  0.3629 -0.8127
16678SOL    HW252042   6.800   5.895   0.663 -0.0751 -0.0061 -1.1911
16679SOL     OW52043   9.419   2.863   3.010  0.3268 -0.3902  0.0412
16679SOL    HW152044   9.400   2.915   3.088  1.5242  2.6422 -1.5039
16679SOL    HW252045   9.490   2.805   3.036  1.8846  1.7465  0.8906
16680SOL     OW52046   2.562   5.921  10.751  0.3284  0.6160  0.6608
16680SOL    HW152047   2.482   5.886  10.711 -0.2624 -0.9011  2.9276
16680SOL    HW252048   2.549   6.015  10.754  0.3999  0.8502 -2.4775
16681SOL     OW52049   9.384   2.224  10.810 -0.3514 -0.5748 -0.8287
16681SOL    HW152050   9.334   2.295  10.850 -1.2613 -1.5589 -0.1718
16681SOL    HW252051   9.346   2.144  10.846  2.1830 -1.3940  0.2807
16682SOL     OW52052   4.836   1.412   8.861 -0.2884 -0.3738 -1.4251
16682SOL    HW152053   4.885   1.331   8.874  2.5816  1.0715 -2.4939
16682SOL    HW252054   4.805   1.436   8.949  3.6127  0.1710 -0.0194
16683SOL     OW52055   6.487   1.645  10.687  0.1312  0.1361  0.3394
16683SOL    HW152056   6.556   1.587  10.720  0.4460  1.0914  1.4346
16683SOL    HW252057   6.530   1.698  10.621  0.2710  0.2630  0.5320
16684SOL     OW52058   9.533   7.501   1.468  0.0893 -0.3378 -0.0178
16684SOL    HW152059   9.552   7.564   1.399 -0.4167  0.4603  0.5642
16684SOL    HW252060   9.489   7.551   1.536 -0.2727 -1.3043  0.4857
16685SOL     OW52061   5.278   3.662   3.250  0.4983 -0.8524  0.2293
16685SOL    HW152062   5.363   3.673   3.208 -0.8124  2.2713 -2.0126
16685SOL    HW252063   5.227   3.608   3.190 -0.3987  1.0284 -0.8073
16686SOL     OW52064   5.323   8.479   2.121 -0.1838 -0.1504  0.5332
16686SOL    HW152065   5.350   8.390   2.096 -1.7904 -0.1973 -1.2976
16686SOL    HW252066   5.389   8.536   2.081 -1.7303 -0.3377 -2.6302
16687SOL     OW52067   2.080   7.190   9.064  0.4095  0.1124 -0.4529
16687SOL    HW152068   2.138   7.162   8.993  0.9384 -0.2190  0.1005
16687SOL    HW252069   2.012   7.122   9.067  1.1728 -0.6462  0.2749
16688SOL     OW52070   1.522   4.896   9.162 -0.2639 -0.0735 -0.4515
16688SOL    HW152071   1.566   4.976   9.135  0.9624  0.1111  1.8507
16688SOL    HW252072   1.590   4.829   9.161 -0.7146 -0.5553 -0.0509
16689SOL     OW52073   4.029   1.033   4.889 -0.1329  0.0244 -0.1258
16689SOL    HW152074   4.085   1.063   4.817 -2.0566 -1.6020 -2.4802
16689SOL    HW252075   3.958   0.986   4.845 -1.6310 -0.7284  2.8773
16690SOL     OW52076   7.056   5.798   4.842  0.1203 -0.2202  0.2189
16690SOL    HW152077   7.002   5.724   4.816  0.7276 -0.7773  0.5135
16690SOL    HW252078   7.131   5.796   4.783 -0.7145  1.2485 -0.9624
16691SOL     OW52079   0.319   8.774   5.359 -0.3297 -0.2496 -0.7723
16691SOL    HW152080   0.241   8.762   5.413  0.1681  2.4586  0.7494
16691SOL    HW252081   0.364   8.850   5.397  2.1088 -0.5654 -2.7000
16692SOL     OW52082  10.409   9.977   1.608 -0.5849 -0.0698  0.5933
16692SOL    HW152083  10.504   9.979   1.615 -0.6700 -0.8514  2.7248
16692SOL    HW252084  10.388  10.048   1.547  1.3558 -0.0528 -0.1149
16693SOL     OW52085  10.430   4.273   8.304  0.2935 -0.5329  0.1063
16693SOL    HW152086  10.359   4.274   8.368 -1.9658 -2.8722 -2.1013
16693SOL    HW252087  10.391   4.309   8.225  2.4129  0.4941 -0.5445
16694SOL     OW52088   5.156  10.409   0.282  0.0786 -0.1718 -0.7105
16694SOL    HW152089   5.150  10.385   0.374 -0.8245  0.7598 -0.4994
16694SOL    HW252090   5.065  10.417   0.254  0.3435  0.7923 -1.3395
16695SOL     OW52091   3.048   5.951   4.553 -0.2503  0.0746  0.2006
16695SOL    HW152092   2.985   6.004   4.504 -0.7050 -0.0615  0.6358
16695SOL    HW252093   3.111   5.922   4.487 -0.4306  0.5177 -0.1748
16696SOL     OW52094   8.549  10.772  11.016 -0.3860  0.0193 -0.1386
16696SOL    HW152095   8.508  10.839  11.071  0.4642  1.7904 -1.5419
16696SOL    HW252096   8.477  10.735  10.965 -0.8274  0.0908  0.4308
16697SOL     OW52097   6.522   2.142   2.486 -0.2580  0.5168  0.1772
16697SOL    HW152098   6.565   2.225   2.465 -0.6262  0.1053 -2.5442
16697SOL    HW252099   6.591   2.076   2.476 -0.4378  0.3027  0.3412
16698SOL     OW52100   7.580  10.659   7.785 -0.1837 -0.1686  0.8971
16698SOL    HW152101   7.659  10.633   7.833  0.5473 -1.7076 -1.0486
16698SOL    HW252102   7.515  10.592   7.807 -0.2828 -0.1064  0.7906
16699SOL     OW52103   2.998   4.811   1.506  0.2183 -0.7123  0.9027
16699SOL    HW152104   2.997   4.893   1.456 -0.2954 -1.6162 -0.6481
16699SOL    HW252105   2.997   4.839   1.598 -0.4182  1.0036  0.4174
16700SOL     OW52106   7.677   6.313   9.210 -0.0398 -0.2301  0.6186
16700SOL    HW152107   7.674   6.232   9.261  2.0672 -0.3496  0.6719
16700SOL    HW252108   7.728   6.373   9.265 -0.6902  0.8024  0.1291
16701SOL     OW52109   9.627   2.781   2.395  0.3008 -0.2272  0.4048
16701SOL    HW152110   9.705   2.833   2.378  1.1537 -1.0372  1.7000
16701SOL    HW252111   9.557   2.846   2.408  0.8262  0.5101 -0.3956
16702SOL     OW52112   0.233   4.779  10.237 -0.2177  0.2769  0.7056
16702SOL    HW152113   0.208   4.688  10.225  2.6335 -0.4527 -0.5223
16702SOL    HW252114   0.278   4.780  10.322  0.0638  0.4717  0.5539
16703SOL     OW52115   0.164   2.370  10.290 -0.3941 -0.1082 -0.8114
16703SOL    HW152116   0.099   2.357  10.221 -1.1285  1.7548 -0.5246
16703SOL    HW252117   0.121   2.339  10.370 -0.1229 -0.8302 -0.9393
16704SOL     OW52118   4.685   5.649   2.173  0.2673 -1.0428  0.1503
16704SOL    HW152119   4.651   5.596   2.101  0.2665 -1.2536  0.3037
16704SOL    HW252120   4.778   5.627   2.176  0.6317  0.2472 -0.8848
16705SOL     OW52121   4.533   1.495   9.455  0.0840 -0.6529 -0.0402
16705SOL    HW152122   4.541   1.421   9.515  0.8621  0.1153  0.8410
16705SOL    HW252123   4.623   1.521   9.436 -0.1703 -0.0956 -0.5364
16706SOL     OW52124   3.041   1.603   0.385  0.6477 -0.5397  0.0886
16706SOL    HW152125   2.967   1.617   0.326  0.2754 -0.9770  0.4393
16706SOL    HW252126   3.024   1.661   0.459  1.2246  0.1689 -0.3180
16707SOL     OW52127   6.807   2.167  10.955  0.3284  0.1031 -0.1340
16707SOL    HW152128   6.715   2.155  10.935  0.2754 -0.0986  0.2214
16707SOL    HW252129   6.811   2.172  11.051  0.7262 -0.2545 -0.1269
16708SOL     OW52130   1.756   5.595   2.260 -0.4490  0.6763  0.3176
16708SOL    HW152131   1.828   5.551   2.216 -0.8767  0.1547  0.1314
16708SOL    HW252132   1.786   5.608   2.350 -0.2053  0.2703  0.2956
16709SOL     OW52133  11.010   0.382   6.107  0.6276 -0.2464 -0.1634
16709SOL    HW152134  11.068   0.381   6.184  0.4446 -0.1226 -0.0246
16709SOL    HW252135  11.022   0.469   6.069  0.8553 -0.3700 -0.3820
16710SOL     OW52136   7.197   3.335   5.150  0.4672  0.4972 -0.2958
16710SOL    HW152137   7.221   3.317   5.059  0.7395 -0.3128 -0.0652
16710SOL    HW252138   7.235   3.421   5.168  0.8847  0.4165 -0.7761
16711SOL     OW52139   6.706   0.457   5.962  0.1612  0.0299  0.4756
16711SOL    HW152140   6.706   0.363   5.941  0.0800 -0.0489  0.8206
16711SOL    HW252141   6.697   0.460   6.057  0.3410  0.3872  0.4808
16712SOL     OW52142   9.087   0.485   0.253  0.2032 -0.1510  0.1987
16712SOL    HW152143   9.111   0.574   0.277  1.6022 -0.2310 -0.8105
16712SOL    HW252144   9.166   0.434   0.268  0.6602 -0.5060 -2.9000
16713SOL     OW52145   5.750   7.391   9.285 -0.6363 -0.4487  0.4828
16713SOL    HW152146   5.803   7.338   9.225 -1.1780 -2.0747  1.3773
16713SOL    HW252147   5.774   7.360   9.372 -0.4472  1.3155  1.0925
16714SOL     OW52148   4.275   1.235   3.168  0.0159  0.3423  0.5902
16714SOL    HW152149   4.319   1.254   3.085 -0.3398 -1.1781  0.0111
16714SOL    HW252150   4.219   1.311   3.184  0.8480  1.1102 -0.0340
16715SOL     OW52151   3.426   4.051   5.756 -0.5473  0.2933  0.1136
16715SOL    HW152152   3.472   4.030   5.838  1.0779 -0.6308 -0.9762
16715SOL    HW252153   3.426   4.146   5.752  3.4576  0.4534 -0.8835
16716SOL     OW52154   5.777   9.469   4.955  0.2567  0.0715 -0.1467
16716SOL    HW152155   5.750   9.417   5.030 -0.8925 -0.4623 -0.9070
16716SOL    HW252156   5.724   9.549   4.960 -1.8217 -1.1107 -1.8102
16717SOL     OW52157   2.437   2.658   8.821  0.0120 -0.7894 -0.2151
16717SOL    HW152158   2.517   2.622   8.782  0.7206  1.5018 -1.0862
16717SOL    HW252159   2.459   2.670   8.914  1.0877  0.7372 -0.6353
16718SOL     OW52160   8.217   0.696   8.863 -0.6369  0.4968 -0.1412
16718SOL    HW152161   8.277   0.670   8.793 -1.1818  1.5139 -0.9987
16718SOL    HW252162   8.267   0.681   8.943 -0.5403 -2.1497 -0.6060
16719SOL     OW52163   5.908   0.989   3.218 -0.1001  0.1266  0.3953
16719SOL    HW152164   5.974   0.983   3.149 -0.9148  0.8214 -0.4705
16719SOL    HW252165   5.826   0.962   3.176 -0.4784 -0.1529  1.2881
16720SOL     OW52166   7.954   4.898   5.506 -0.2192  0.2081 -0.4113
16720SOL    HW152167   7.874   4.933   5.543  0.3771  0.8251  0.3102
16720SOL    HW252168   7.924   4.829   5.446 -1.2345 -0.4264  0.7650
16721SOL     OW52169   7.793   0.436   3.171 -0.6357  0.6488 -0.5299
16721SOL    HW152170   7.723   0.372   3.182 -0.7779  0.5148 -2.0498
16721SOL    HW252171   7.796   0.453   3.077 -0.6410  2.9066 -0.1936
16722SOL     OW52172   1.358   0.718   3.714 -0.0531  0.3991  0.8151
16722SOL    HW152173   1.447   0.751   3.703  1.0447 -2.1158  1.4987
16722SOL    HW252174   1.340   0.672   3.632 -0.4175  0.1966  1.0095
16723SOL     OW52175   7.756   6.319   7.358 -0.0045 -0.7323  0.3109
16723SOL    HW152176   7.744   6.414   7.359  0.9980 -0.5667  2.0395
16723SOL    HW252177   7.682   6.286   7.408  0.6572 -0.6639  1.3731
16724SOL     OW52178   1.971   4.462   5.454 -0.1282  0.6506  0.1034
16724SOL    HW152179   2.004   4.551   5.461 -3.5271  2.0692  0.3806
16724SOL    HW252180   2.011   4.415   5.527  0.2647  2.5264  1.1579
16725SOL     OW52181   0.778   6.079  10.603 -0.0185 -0.0775 -0.5708
16725SOL    HW152182   0.818   6.155  10.562  0.7873 -0.1427  0.0669
16725SOL    HW252183   0.851   6.019  10.620 -0.5752 -0.8009 -0.6581
16726SOL     OW52184   8.997   1.087   9.687 -1.0723 -0.2813 -0.1496
16726SOL    HW152185   9.039   1.023   9.630  1.7937  0.7000  0.6547
16726SOL    HW252186   8.991   1.044   9.772 -0.5945 -0.0392  0.0115
16727SOL     OW52187   1.192   7.067  10.671 -0.6705  0.0007  0.1369
16727SOL    HW152188   1.206   6.974  10.651 -1.8802 -0.4592  1.2690
16727SOL    HW252189   1.098   7.080  10.661 -0.3166  1.5595 -1.6951
16728SOL     OW52190   6.680   0.970   5.360  0.0538  0.7147 -0.0353
16728SOL    HW152191   6.675   0.973   5.265 -0.5369  0.7085 -0.0055
16728SOL    HW252192   6.652   0.881   5.383 -0.3308  0.8891  0.1744
16729SOL     OW52193   0.791   2.590   6.449  0.3671 -0.1374 -0.6053
16729SOL    HW152194   0.788   2.530   6.524  3.4129  0.6374  0.2829
16729SOL    HW252195   0.776   2.677   6.487  2.9490  0.3843 -0.6077
16730SOL     OW52196   1.688   1.369   7.604  0.6862 -0.0947  0.0933
16730SOL    HW152197   1.627   1.439   7.628 -1.7525 -2.0217 -0.1100
16730SOL    HW252198   1.714   1.389   7.514 -3.3972 -1.5117 -1.6154
16731SOL     OW52199   6.699   5.665  10.856  0.0864 -0.0512  0.0309
16731SOL    HW152200   6.617   5.674  10.808  0.7556  0.8840 -0.9782
16731SOL    HW252201   6.715   5.570  10.859  1.0550 -0.1124 -3.4487
16732SOL     OW52202   4.071   9.435   7.140  0.8257 -0.1605  0.3139
16732SOL    HW152203   4.046   9.370   7.074  1.7010 -0.0277 -0.1590
16732SOL    HW252204   4.027   9.406   7.220 -0.2702 -0.3071 -0.3241
16733SOL     OW52205   2.487   3.730   8.799 -0.6661  0.4681 -0.3973
16733SOL    HW152206   2.520   3.666   8.736 -0.0362  0.9541 -0.5695
16733SOL    HW252207   2.556   3.736   8.866 -0.5331  1.2524 -0.5928
16734SOL     OW52208   7.248   3.010   8.606  0.0556  0.4422  0.1546
16734SOL    HW152209   7.172   3.059   8.576  1.6148  1.5079 -2.4340
16734SOL    HW252210   7.319   3.038   8.548  1.8596 -2.3334  0.8127
16735SOL     OW52211   9.312   2.107   6.847 -0.2080 -0.7321 -0.4873
16735SOL    HW152212   9.289   2.020   6.813  2.9046 -1.9480  0.2307
16735SOL    HW252213   9.380   2.139   6.788  0.2769  0.2136  0.5427
16736SOL     OW52214   9.426   1.079   1.266  0.0143 -0.0401 -0.2478
16736SOL    HW152215   9.489   1.113   1.330  1.5676 -1.4195 -0.9619
16736SOL    HW252216   9.480   1.036   1.200 -1.6747 -0.8922 -1.1465
16737SOL     OW52217   0.939   6.172   5.317 -0.2772  1.2664  0.0119
16737SOL    HW152218   0.946   6.143   5.226  0.1157  1.6782 -0.0936
16737SOL    HW252219   0.875   6.243   5.315 -1.7264  0.0164  0.3722
16738SOL     OW52220   8.932   8.168   1.426 -0.6627 -0.3969  0.2575
16738SOL    HW152221   9.020   8.196   1.454 -0.2318  0.0129 -1.4087
16738SOL    HW252222   8.891   8.136   1.506  1.3836 -1.6053  0.9057
16739SOL     OW52223   5.146   0.927   7.973 -0.1823  0.1680  0.0899
16739SOL    HW152224   5.194   0.881   8.041 -0.8755  0.2757  0.6779
16739SOL    HW252225   5.179   0.892   7.891  1.2709  0.6337  0.4566
16740SOL     OW52226   0.970   2.268   2.449 -0.2134 -0.3100  0.0645
16740SOL    HW152227   1.046   2.249   2.504  0.3203 -0.9709 -0.8756
16740SOL    HW252228   0.895   2.240   2.500  0.1860  0.1603  0.9240
16741SOL     OW52229   5.490   5.484   9.263  0.3715  0.1758  0.3449
16741SOL    HW152230   5.468   5.422   9.332 -0.0932 -2.4607 -2.0242
16741SOL    HW252231   5.560   5.442   9.213 -1.4828  0.4006 -2.6949
16742SOL     OW52232   4.648   2.235   6.151  0.4481  0.0748  0.0513
16742SOL    HW152233   4.680   2.323   6.170  1.1832 -0.7670  3.4393
16742SOL    HW252234   4.721   2.177   6.173 -0.6109 -1.4690 -0.3204
16743SOL     OW52235   9.888   4.127   9.171 -0.3876 -0.2304 -0.6324
16743SOL    HW152236   9.850   4.160   9.090  0.5695  0.2439 -0.9051
16743SOL    HW252237   9.823   4.066   9.206 -0.4885 -1.0348 -2.1514
16744SOL     OW52238   5.426   3.860   1.105 -0.0371  0.0687 -0.1633
16744SOL    HW152239   5.395   3.881   1.193 -0.5284 -0.5683 -0.1825
16744SOL    HW252240   5.354   3.812   1.065 -0.9474  2.6594 -1.8842
16745SOL     OW52241   7.601   0.891   4.893 -0.6144  0.0074  0.0106
16745SOL    HW152242   7.565   0.849   4.972  1.8350 -0.6956  0.8522
16745SOL    HW252243   7.696   0.894   4.909 -0.0685  0.1566 -2.7700
16746SOL     OW52244   3.730   9.064   2.164 -0.0457  0.3820 -0.5479
16746SOL    HW152245   3.689   9.012   2.233 -1.9997  1.3261 -0.9047
16746SOL    HW252246   3.718   9.012   2.084 -1.1641  0.9248 -0.7526
16747SOL     OW52247   1.413   9.386   0.722 -0.2741 -0.1282 -0.1404
16747SOL    HW152248   1.435   9.470   0.761 -0.3366  0.9373 -2.2921
16747SOL    HW252249   1.354   9.408   0.649 -1.5008 -2.1649  0.1538
16748SOL     OW52250   7.963   0.342  10.450  0.2290  0.4504 -0.3110
16748SOL    HW152251   7.948   0.352  10.356  1.7922 -0.2155 -0.6530
16748SOL    HW252252   8.053   0.374  10.464  0.0196  0.5527  0.9656
16749SOL     OW52253   0.899   7.096   6.072  0.1104  0.7327 -0.6172
16749SOL    HW152254   0.855   7.017   6.102  0.2061  0.3666 -1.4090
16749SOL    HW252255   0.986   7.093   6.112  0.1324  0.4120 -0.6893
16750SOL     OW52256  10.719   7.793   8.711 -0.2110  0.4237 -0.4425
16750SOL    HW152257  10.681   7.876   8.742 -0.6500 -0.0356  0.2621
16750SOL    HW252258  10.646   7.732   8.710  0.4667 -0.4266  0.7644
16751SOL     OW52259  10.653   6.438   2.256 -0.0944 -0.0524  0.2000
16751SOL    HW152260  10.712   6.375   2.214 -0.1488  0.1897 -0.2506
16751SOL    HW252261  10.707   6.517   2.267  0.2472 -0.4558  1.5951
16752SOL     OW52262  10.813   9.910   5.428 -0.0224 -0.2751  0.0131
16752SOL    HW152263  10.852   9.849   5.366 -0.1810 -0.8035  0.4200
16752SOL    HW252264  10.860   9.894   5.510 -2.6511 -2.7321  1.2193
16753SOL     OW52265   0.611   6.174   8.760  0.6987  0.2349  0.0121
16753SOL    HW152266   0.686   6.133   8.717  1.1929 -1.3819  2.2091
16753SOL    HW252267   0.537   6.154   8.703  1.3409 -1.6634 -0.2321
16754SOL     OW52268   7.856   7.819   7.812  0.3639 -0.2652  0.3839
16754SOL    HW152269   7.914   7.890   7.784 -2.5013  1.9025 -0.5750
16754SOL    HW252270   7.777   7.863   7.843 -2.5784 -2.9432 -2.5260
16755SOL     OW52271   0.332   0.618   7.473  0.4938  0.0322  0.2745
16755SOL    HW152272   0.320   0.712   7.458  1.4801  0.0895 -0.2672
16755SOL    HW252273   0.382   0.588   7.397  1.0990 -0.7185  0.9458
16756SOL     OW52274   6.194   1.194   6.817 -0.6003  0.5251 -0.0792
16756SOL    HW152275   6.124   1.191   6.752 -1.2166  1.3087  0.5260
16756SOL    HW252276   6.246   1.115   6.800 -0.9220  0.5538 -1.3087
16757SOL     OW52277   5.180   6.117   0.317 -0.7714  0.1349 -0.1332
16757SOL    HW152278   5.138   6.050   0.371  1.3755 -1.5642 -0.4147
16757SOL    HW252279   5.109   6.159   0.271 -2.2291 -2.1663 -0.1594
16758SOL     OW52280  10.843   0.834   8.329 -0.1777  0.3922  0.2930
16758SOL    HW152281  10.837   0.920   8.288  0.7642  1.0794  1.5229
16758SOL    HW252282  10.936   0.825   8.352 -0.1443 -1.2299 -0.3688
16759SOL     OW52283   0.478   2.066  11.016 -0.1618 -0.3539  0.1811
16759SOL    HW152284   0.537   2.114  11.074 -0.4430 -0.3556  0.4657
16759SOL    HW252285   0.397   2.055  11.066 -0.2129 -0.8436  0.0022
16760SOL     OW52286   9.207   9.642   9.400  0.4143 -0.1437 -0.3892
16760SOL    HW152287   9.220   9.566   9.456  0.1572  0.7106  0.8796
16760SOL    HW252288   9.127   9.683   9.433  0.8893  1.0206 -0.6143
16761SOL     OW52289   4.657   3.484  10.861 -0.1217 -0.5625  0.3456
16761SOL    HW152290   4.594   3.550  10.833  2.8400  1.5549 -2.1788
16761SOL    HW252291   4.702   3.523  10.935  1.0403 -0.0529 -0.5912
16762SOL     OW52292   3.388   6.022   2.865 -0.1085  0.1435  0.2434
16762SOL    HW152293   3.344   5.944   2.831  1.6469 -0.1563 -1.5063
16762SOL    HW252294   3.324   6.092   2.852 -0.2721 -0.3325 -1.9591
16763SOL     OW52295   3.365   3.720  10.122 -0.2691 -0.6324  0.2031
16763SOL    HW152296   3.348   3.638  10.074 -0.9298 -1.7310  2.2152
16763SOL    HW252297   3.414   3.693  10.200  1.3318  1.1848 -0.0799
16764SOL     OW52298   1.796   0.895   4.544 -0.2345  0.3716  0.2398
16764SOL    HW152299   1.821   0.824   4.603 -0.1279  0.4588  0.2991
16764SOL    HW252300   1.830   0.974   4.586  1.4703  0.2717 -0.8595
16765SOL     OW52301   5.380  10.111   7.058 -0.2528 -0.6301 -0.0277
16765SOL    HW152302   5.385  10.060   7.139  0.3701  0.0017  0.3397
16765SOL    HW252303   5.327  10.057   7.000  0.2439 -1.6267  0.4112
16766SOL     OW52304   6.586   5.753   3.678 -0.1205  0.0910 -0.4507
16766SOL    HW152305   6.500   5.759   3.638  0.3203 -1.2453 -1.6635
16766SOL    HW252306   6.570   5.768   3.772 -1.4777  1.0117 -0.8030
16767SOL     OW52307   9.654   1.665   0.929  0.1646  0.9918  0.1992
16767SOL    HW152308   9.661   1.678   1.023  3.2149  0.6611  0.1429
16767SOL    HW252309   9.716   1.594   0.910  0.7246  2.0049 -2.1905
16768SOL     OW52310   0.077  10.420   5.459 -0.3177 -0.1115 -0.2597
16768SOL    HW152311   0.106  10.462   5.540 -1.3044 -1.3142  0.7638
16768SOL    HW252312   0.012  10.480   5.423  1.7456  1.5466 -1.4258
16769SOL     OW52313   2.503   1.347   2.264 -0.3178  0.7989 -0.2828
16769SOL    HW152314   2.535   1.415   2.323  1.6819 -0.2836  0.0009
16769SOL    HW252315   2.408   1.350   2.272 -0.1584  1.1003  2.5572
16770SOL     OW52316   6.748   9.486   9.974  0.3651 -0.1645  0.1835
16770SOL    HW152317   6.718   9.456  10.060  0.5386 -1.5965 -0.2215
16770SOL    HW252318   6.812   9.554   9.993 -2.6926  2.7714  1.1070
16771SOL     OW52319   5.431   4.703  11.026  0.6809  0.3786  0.1282
16771SOL    HW152320   5.441   4.623  11.076 -0.1613 -0.7477 -1.3950
16771SOL    HW252321   5.337   4.708  11.008  0.9627  0.6058 -1.4656
16772SOL     OW52322   6.080   0.610   0.256 -0.0187 -0.2877  0.1357
16772SOL    HW152323   6.122   0.525   0.264 -0.3252 -0.5537 -0.9652
16772SOL    HW252324   5.988   0.593   0.280  0.0201 -0.1681  0.3720
16773SOL     OW52325   9.552   9.971  10.441 -0.6034  0.3809  0.0782
16773SOL    HW152326   9.624   9.929  10.394  0.6854  0.7057  1.6630
16773SOL    HW252327   9.582   9.973  10.532 -1.3123  3.2166  0.3418
16774SOL     OW52328   4.021   9.483   0.230 -0.3103  0.4417 -0.7485
16774SOL    HW152329   4.069   9.440   0.301 -1.1614  2.0818  0.8812
16774SOL    HW252330   4.085   9.490   0.159  1.4434  1.2906  0.8421
16775SOL     OW52331   5.072   0.432   8.719  0.3377 -0.2455 -0.0996
16775SOL    HW152332   5.101   0.451   8.629  3.2947  0.5020  0.8672
16775SOL    HW252333   5.056   0.519   8.757 -2.0947 -0.5983 -0.1706
16776SOL     OW52334   0.788  10.129   1.209 -0.9130 -0.0164 -0.1341
16776SOL    HW152335   0.763  10.048   1.164  1.0621  0.1068 -1.5688
16776SOL    HW252336   0.861  10.104   1.265  0.1326  0.8518 -1.0651
16777SOL     OW52337   8.438  10.947   7.070  0.7885  0.3796 -0.1958
16777SOL    HW152338   8.488  10.867   7.087 -0.1872  0.2061  2.3212
16777SOL    HW252339   8.463  11.006   7.140 -0.1215  1.4884 -0.7755
16778SOL     OW52340   0.053   0.023   3.351 -0.4848 -0.7527 -0.7943
16778SOL    HW152341   0.059   0.117   3.335 -0.4026 -0.4341  0.9248
16778SOL    HW252342   0.139  -0.001   3.386 -0.7456 -1.3245 -0.5287
16779SOL     OW52343   3.387   9.703   0.296 -0.6456  0.1414  0.3292
16779SOL    HW152344   3.329   9.721   0.370  0.4867  2.9724  0.6352
16779SOL    HW252345   3.467   9.668   0.336 -0.1606  1.3506  0.4429
16780SOL     OW52346   1.415   9.309   0.101  0.9016  0.5377  0.3762
16780SOL    HW152347   1.477   9.373   0.069  2.2579 -1.2634 -0.8190
16780SOL    HW252348   1.355   9.294   0.027  1.5732 -0.6751  0.0412
16781SOL     OW52349  10.189   9.139   1.755 -0.0830 -0.4129 -0.9275
16781SOL    HW152350  10.181   9.190   1.674  1.9897 -1.1776 -1.6733
16781SOL    HW252351  10.243   9.064   1.731 -1.1269 -1.7388  0.7142
16782SOL     OW52352   7.977   1.561   3.837  0.2171 -0.5979  0.0572
16782SOL    HW152353   8.025   1.626   3.887  0.0358 -0.2975 -0.1481
16782SOL    HW252354   7.986   1.589   3.746  1.9700 -2.0783 -0.2701
16783SOL     OW52355   2.810   3.416   2.615 -0.2139  0.0854  0.1342
16783SOL    HW152356   2.842   3.358   2.546  0.6325  1.9175 -1.0875
16783SOL    HW252357   2.884   3.426   2.674 -0.2145  0.2665  0.1047
16784SOL     OW52358   2.927  10.409   3.387 -0.0897  0.0683  0.6593
16784SOL    HW152359   3.015  10.378   3.368  0.1639  1.7016 -1.1715
16784SOL    HW252360   2.937  10.468   3.462  0.2784 -0.1752  0.8029
16785SOL     OW52361   3.633   6.438  10.088  0.3324  0.5657 -0.0163
16785SOL    HW152362   3.622   6.498  10.013  3.2172  1.4453  0.1532
16785SOL    HW252363   3.692   6.485  10.147 -0.8650 -0.6550  2.2517
16786SOL     OW52364   1.850   1.893   1.253  0.3177  0.1967  0.5352
16786SOL    HW152365   1.798   1.964   1.290  1.0322  1.2352 -0.3914
16786SOL    HW252366   1.940   1.925   1.256  0.9437 -1.5037  1.9960
16787SOL     OW52367   8.136   7.397   5.879  0.0686  0.3267  0.1520
16787SOL    HW152368   8.112   7.307   5.898 -0.2421  0.6054  1.1391
16787SOL    HW252369   8.118   7.407   5.785 -0.5108 -0.4452  0.1684
16788SOL     OW52370   9.609   7.433   6.081 -0.4390 -0.3484  0.1446
16788SOL    HW152371   9.540   7.420   6.147 -0.4548 -3.6229 -0.3566
16788SOL    HW252372   9.562   7.438   5.998 -0.2832  1.8702  0.1311
16789SOL     OW52373   7.724   2.046   8.842 -0.3701  0.0711  0.1171
16789SOL    HW152374   7.687   1.969   8.799  2.1215 -0.7089 -0.8240
16789SOL    HW252375   7.723   2.114   8.774  0.3753 -0.1330 -0.1160
16790SOL     OW52376  10.082   3.648  10.434  0.1462 -0.0396  0.3471
16790SOL    HW152377  10.028   3.711  10.481  1.4169  0.0885  1.6915
16790SOL    HW252378  10.023   3.610  10.369 -0.4852  3.0562 -1.0735
16791SOL     OW52379   2.573  10.951   6.498 -0.4778  0.0047  0.2584
16791SOL    HW152380   2.533  10.864   6.486  2.0391 -1.0609 -1.4114
16791SOL    HW252381   2.516  10.996   6.560 -2.9811 -2.1212 -0.3311
16792SOL     OW52382   5.137   4.912   2.204 -0.2356 -0.1314 -0.1282
16792SOL    HW152383   5.093   4.835   2.170 -1.0050  0.2734 -0.0620
16792SOL    HW252384   5.072   4.955   2.259  0.4929  0.0601  0.6022
16793SOL     OW52385   7.578   3.668   1.015 -0.4811 -0.2198 -0.3218
16793SOL    HW152386   7.615   3.706   0.936 -3.2046 -0.3720 -1.7924
16793SOL    HW252387   7.523   3.596   0.984 -2.2872  0.2281  1.5952
16794SOL     OW52388   0.722   2.411   7.975 -0.0142 -0.4528  0.3946
16794SOL    HW152389   0.674   2.479   8.022  0.0299 -0.8619  1.0517
16794SOL    HW252390   0.748   2.452   7.892 -3.0645 -0.7709 -0.8239
16795SOL     OW52391   0.635   2.982   8.609 -0.9758 -0.0549 -0.0580
16795SOL    HW152392   0.652   3.034   8.687 -2.9660 -1.1434  1.1914
16795SOL    HW252393   0.694   2.907   8.617  0.4012  0.8832 -0.8066
16796SOL     OW52394   1.214   5.536   6.584  0.2554  0.2995  0.2057
16796SOL    HW152395   1.285   5.553   6.646  1.7114 -1.0363 -0.9925
16796SOL    HW252396   1.164   5.617   6.580 -0.7898  0.0287  4.1492
16797SOL     OW52397   2.315   5.187   6.846  0.2488  0.6335 -0.8898
16797SOL    HW152398   2.285   5.188   6.937  0.8121  2.7941 -0.6808
16797SOL    HW252399   2.254   5.128   6.802 -0.1492 -0.3075  0.8379
16798SOL     OW52400   9.643   3.952   6.242  0.4157  0.5414 -0.2933
16798SOL    HW152401   9.600   3.898   6.176  0.0197  1.4410 -0.7954
16798SOL    HW252402   9.571   3.990   6.293  0.7420 -0.8580  1.2695
16799SOL     OW52403   9.744   8.492   5.067  0.0103 -0.8774 -0.3556
16799SOL    HW152404   9.832   8.527   5.054 -0.4724  1.2273  1.4499
16799SOL    HW252405   9.704   8.495   4.980  0.4415  1.9826 -0.5408
16800SOL     OW52406   9.277  10.044   1.856  0.6073 -0.1369 -0.0200
16800SOL    HW152407   9.253  10.128   1.817  1.2530  0.0996  0.0944
16800SOL    HW252408   9.194  10.008   1.887  0.2586  0.2385 -0.4908
16801SOL     OW52409  10.898  10.736   6.888  0.5660 -0.4620 -0.5185
16801SOL    HW152410  10.909  10.719   6.981  0.1413 -1.1602 -0.5852
16801SOL    HW252411  10.959  10.806   6.868 -1.2086  1.6008  0.8322
16802SOL     OW52412   6.637  10.496   0.613  0.5437 -0.1366  0.0284
16802SOL    HW152413   6.547  10.494   0.646  1.4460  0.7416  2.9070
16802SOL    HW252414   6.650  10.409   0.574 -1.5541 -0.2247 -0.6179
16803SOL     OW52415   4.803   7.082   4.730 -0.3808  0.2785  0.3725
16803SOL    HW152416   4.830   6.997   4.695 -1.2601 -0.2878  1.0244
16803SOL    HW252417   4.862   7.145   4.688  1.5425 -0.8185  1.3175
16804SOL     OW52418   1.138   5.212   2.183  0.3329  0.1939 -0.2386
16804SOL    HW152419   1.156   5.163   2.103 -0.6106  0.3622 -0.5659
16804SOL    HW252420   1.048   5.189   2.206  0.8057 -0.3718  1.1601
16805SOL     OW52421   8.157   4.398   6.869 -0.0200  0.0404 -0.4129
16805SOL    HW152422   8.251   4.415   6.872 -0.1311  0.6007  0.2152
16805SOL    HW252423   8.138   4.383   6.777  0.6269  0.2579 -0.5892
16806SOL     OW52424   3.906   4.299   1.944 -0.5023  0.5849  0.3352
16806SOL    HW152425   3.887   4.342   2.028 -0.8164 -0.1500  0.6498
16806SOL    HW252426   3.837   4.233   1.935  0.8280 -0.9080  0.6213
16807SOL     OW52427   4.547  10.451   5.350 -0.2627  0.3245  0.1583
16807SOL    HW152428   4.612  10.406   5.403 -3.7497 -0.9104  3.9465
16807SOL    HW252429   4.539  10.538   5.390 -1.6001  0.0647  0.5210
16808SOL     OW52430   5.821   2.047   5.428  0.2399  0.1049 -0.0300
16808SOL    HW152431   5.907   2.004   5.426  0.6181  0.7550  1.3641
16808SOL    HW252432   5.811   2.084   5.340  1.9298  1.0334  0.1352
16809SOL     OW52433   1.770   4.785   0.316  0.3416 -0.3359 -0.7546
16809SOL    HW152434   1.857   4.775   0.355 -0.3662 -1.1368  0.6962
16809SOL    HW252435   1.776   4.735   0.234  0.8469 -1.5795  0.0080
16810SOL     OW52436  10.654   9.785   3.287  0.8409  0.9412 -0.0273
16810SOL    HW152437  10.741   9.804   3.323  0.7482 -0.1535  0.8095
16810SOL    HW252438  10.593   9.822   3.350  0.6860 -0.3422  0.6060
16811SOL     OW52439   5.366   5.680   9.379 -0.3120  0.4247  0.2009
16811SOL    HW152440   5.419   5.615   9.333  3.4095  0.7204  3.4821
16811SOL    HW252441   5.332   5.633   9.455 -1.4123  1.2483  0.2348
16812SOL     OW52442   0.751   9.392   5.720  0.0843  0.0523  0.5033
16812SOL    HW152443   0.765   9.456   5.790 -1.8773 -0.3617  1.3444
16812SOL    HW252444   0.656   9.391   5.707  0.2523 -1.2173 -0.9225
16813SOL     OW52445   0.105   7.744   6.123  0.3610  0.0600 -0.3382
16813SOL    HW152446   0.040   7.678   6.147  0.5672  0.3538  1.1720
16813SOL    HW252447   0.057   7.827   6.127  0.5869  0.1851 -0.1855
16814SOL     OW52448   8.002   1.700   9.600  0.2608  0.3851 -0.5041
16814SOL    HW152449   8.097   1.711   9.590  0.2523  0.4899 -0.4751
16814SOL    HW252450   7.966   1.720   9.514  0.0944  2.3610 -0.0272
16815SOL     OW52451   4.821   1.019   3.473  0.3365  0.0591  0.0146
16815SOL    HW152452   4.731   1.049   3.461  0.1933 -0.4238 -0.1466
16815SOL    HW252453   4.812   0.938   3.523  0.7058  0.2122  0.3265
16816SOL     OW52454   5.123   8.686  10.812 -0.8168 -0.5119 -0.5932
16816SOL    HW152455   5.106   8.594  10.791  1.2958 -1.4659  1.5237
16816SOL    HW252456   5.179   8.717  10.741  1.0140 -1.8233  0.2134
16817SOL     OW52457   5.351   2.729   8.306  1.2046 -0.5342 -0.2821
16817SOL    HW152458   5.444   2.718   8.326  1.1504 -2.6734 -1.0112
16817SOL    HW252459   5.339   2.684   8.222 -0.2202  0.9412 -0.9266
16818SOL     OW52460  10.983   9.663   7.047  0.1113 -0.3993 -0.1573
16818SOL    HW152461  11.031   9.740   7.016 -0.6652 -0.5510 -1.8937
16818SOL    HW252462  11.000   9.596   6.981 -0.1906 -1.3509  0.7030
16819SOL     OW52463   2.835   5.611   3.383 -0.5723  0.0458  0.0611
16819SOL    HW152464   2.807   5.700   3.362 -2.0800 -0.5511 -0.6313
16819SOL    HW252465   2.773   5.555   3.336  0.8163 -1.3839 -0.1460
16820SOL     OW52466   1.588   8.279   7.947  0.1827 -0.1327 -0.6241
16820SOL    HW152467   1.612   8.238   8.030 -1.0063 -1.5561 -0.9348
16820SOL    HW252468   1.543   8.360   7.973 -1.0230 -1.0227  0.1905
16821SOL     OW52469   6.155   8.364   5.281  0.0262 -0.8317  0.5420
16821SOL    HW152470   6.090   8.381   5.213  0.4706  1.1572  0.5395
16821SOL    HW252471   6.105   8.364   5.363 -0.0010  1.0389  0.5743
16822SOL     OW52472   5.531   6.668   5.785  0.0192 -0.5756  1.2801
16822SOL    HW152473   5.480   6.587   5.791  0.0960 -1.1676 -2.9770
16822SOL    HW252474   5.622   6.641   5.792  0.0260 -0.8690  0.2493
16823SOL     OW52475   6.685   3.332   8.341  0.4304  0.6982 -0.4088
16823SOL    HW152476   6.677   3.245   8.381  0.2824  1.2153  0.7087
16823SOL    HW252477   6.603   3.376   8.362  0.5263  1.1274 -0.9221
16824SOL     OW52478   1.392   9.451   6.063 -0.5033  0.3039  0.5409
16824SOL    HW152479   1.309   9.407   6.082  0.8189 -1.5491  2.4199
16824SOL    HW252480   1.366   9.537   6.029 -3.1815 -1.1940 -1.6520
16825SOL     OW52481  10.713   7.438   2.114  1.0094  0.2685 -0.0088
16825SOL    HW152482  10.711   7.473   2.025 -1.5079  0.3927  0.0248
16825SOL    HW252483  10.750   7.509   2.167 -0.3803  1.4354 -0.5402
16826SOL     OW52484   2.467   5.339   7.783  0.5404 -0.0903  0.5197
16826SOL    HW152485   2.378   5.327   7.753  1.0072 -0.4890 -0.7610
16826SOL    HW252486   2.492   5.253   7.818  1.7363 -1.3030 -2.8548
16827SOL     OW52487   4.199   2.707   5.194 -0.0012 -0.1798 -0.4698
16827SOL    HW152488   4.264   2.777   5.206 -0.4283 -0.0824  1.5297
16827SOL    HW252489   4.155   2.699   5.279 -3.2807  0.3664 -1.9639
16828SOL     OW52490   8.842   3.202   4.634  0.6061  0.1116 -0.6341
16828SOL    HW152491   8.920   3.151   4.654  0.6518  0.5033  0.2209
16828SOL    HW252492   8.769   3.140   4.643  0.4399  0.5972  2.4932
16829SOL     OW52493   5.524   4.528   3.126  0.4685 -0.2753  0.1766
16829SOL    HW152494   5.435   4.499   3.146  0.1895  0.4359 -0.0191
16829SOL    HW252495   5.515   4.621   3.104  0.9841 -0.6105 -1.5828
16830SOL     OW52496   4.914   7.851   5.197  0.0413 -0.5802  0.0241
16830SOL    HW152497   4.849   7.921   5.200 -2.7320 -2.9255 -0.5705
16830SOL    HW252498   4.932   7.839   5.104  2.5423  0.9629  0.2301
16831SOL     OW52499   6.461   1.782   4.283 -0.3182 -0.3573  0.2091
16831SOL    HW152500   6.537   1.731   4.312 -1.9332 -1.6598  2.4975
16831SOL    HW252501   6.470   1.786   4.188  2.8523  0.0157  0.4112
16832SOL     OW52502   9.011   5.622  10.919  0.1462 -0.5469  0.1606
16832SOL    HW152503   9.058   5.539  10.912  2.4060  0.5587  1.1767
16832SOL    HW252504   9.044   5.661  11.000 -3.1116  0.0520  1.3686
16833SOL     OW52505  10.568   0.641   8.908  0.2293 -0.7964  0.0396
16833SOL    HW152506  10.532   0.625   8.996 -1.8175 -1.7754 -0.8911
16833SOL    HW252507  10.566   0.555   8.866 -1.6423  0.0872 -1.8831
16834SOL     OW52508   9.551   4.661   7.069  0.1164 -0.7815  0.2746
16834SOL    HW152509   9.630   4.695   7.110  0.1487 -1.2741  0.6287
16834SOL    HW252510   9.543   4.710   6.987  0.0476  0.2132  0.8634
16835SOL     OW52511   1.760   7.358   9.087 -0.0985  0.0656  0.4201
16835SOL    HW152512   1.812   7.384   9.011 -1.2830 -1.5389 -1.0295
16835SOL    HW252513   1.676   7.402   9.076 -0.7068 -1.1328  0.0988
16836SOL     OW52514   7.951   0.879   7.774  0.4182 -0.5608 -0.1035
16836SOL    HW152515   7.919   0.968   7.756 -1.9308 -1.3358 -0.0398
16836SOL    HW252516   8.045   0.891   7.791  0.5478  1.6589 -1.8331
16837SOL     OW52517   0.975   9.608   0.230 -0.3697  0.0641  0.4698
16837SOL    HW152518   0.902   9.546   0.234  0.2506 -0.6261  1.2128
16837SOL    HW252519   0.951   9.677   0.292 -0.5237  0.0024  0.4810
16838SOL     OW52520   2.142   4.513   8.547 -0.2303 -0.6166 -0.7851
16838SOL    HW152521   2.208   4.581   8.535 -0.5099 -0.2957 -0.5155
16838SOL    HW252522   2.103   4.502   8.461 -0.7052  0.1062 -0.6674
16839SOL     OW52523   2.084   4.472   4.723 -0.0522 -0.4439  0.2891
16839SOL    HW152524   2.074   4.468   4.627  3.0392  0.9683 -0.2033
16839SOL    HW252525   2.090   4.380   4.749  1.3889 -0.8554 -1.2625
16840SOL     OW52526   1.595   7.324   6.731  0.1711 -0.0056  0.6805
16840SOL    HW152527   1.549   7.405   6.711 -1.3967 -0.4381  2.3007
16840SOL    HW252528   1.526   7.259   6.745  1.3731 -2.2629 -2.6283
16841SOL     OW52529   3.049   9.373   5.359 -0.3440  0.6070  0.2226
16841SOL    HW152530   3.000   9.346   5.281  0.7993 -0.7546 -0.0699
16841SOL    HW252531   3.000   9.334   5.432 -1.7119  2.3215  0.2771
16842SOL     OW52532   0.940   0.079   8.275  0.5172 -0.3100 -0.3477
16842SOL    HW152533   0.913  -0.012   8.261 -0.8222 -0.2208  1.3088
16842SOL    HW252534   0.891   0.129   8.210 -0.3854 -0.5625  0.1297
16843SOL     OW52535   9.081   4.298   8.455 -0.1578 -0.2624 -0.4653
16843SOL    HW152536   9.159   4.332   8.499 -0.6075  0.0593  0.0918
16843SOL    HW252537   9.010   4.355   8.484 -0.4984 -0.1407 -1.4860
16844SOL     OW52538   1.235   9.272  11.020  0.0199 -0.4095  0.2016
16844SOL    HW152539   1.194   9.251  10.936 -1.7079 -0.4757  1.0077
16844SOL    HW252540   1.226   9.191  11.072  1.1741 -0.4106  0.4289
16845SOL     OW52541   9.369   4.413   0.677  0.3586 -0.6908 -0.1577
16845SOL    HW152542   9.302   4.383   0.615  2.4936 -1.3686 -2.2810
16845SOL    HW252543   9.448   4.367   0.651  1.5175 -0.5692  2.8136
16846SOL     OW52544   7.238   4.473   0.313 -0.3465 -0.3628 -0.4542
16846SOL    HW152545   7.182   4.514   0.247 -0.8695 -1.0814 -0.4791
16846SOL    HW252546   7.231   4.379   0.294 -0.2135 -0.5518  0.3963
16847SOL     OW52547  10.806   2.859   8.433  0.9937 -0.2852  0.0925
16847SOL    HW152548  10.885   2.821   8.472  1.7234  1.8843  0.9300
16847SOL    HW252549  10.838   2.906   8.356  0.1480 -1.2599 -0.8691
16848SOL     OW52550   1.837   3.755   9.657 -0.1600  0.2078  0.5315
16848SOL    HW152551   1.808   3.703   9.732 -0.2642 -0.0699  0.2999
16848SOL    HW252552   1.882   3.692   9.601 -0.1024  0.4126  0.3492
16849SOL     OW52553   6.117  10.687   2.186  0.0577  0.3068 -0.5837
16849SOL    HW152554   6.085  10.767   2.227 -0.3184  0.1240 -0.5192
16849SOL    HW252555   6.104  10.702   2.092  0.8685  0.7032 -0.6412
16850SOL     OW52556   7.465   6.639   3.235  0.1364  0.3980  0.4164
16850SOL    HW152557   7.539   6.698   3.251 -0.5105  0.9098  1.6658
16850SOL    HW252558   7.388   6.689   3.262 -0.5191 -0.6900  0.6328
16851SOL     OW52559   6.750   0.128   3.013 -0.0756  0.5756 -0.4386
16851SOL    HW152560   6.709   0.073   3.079  0.1723  1.5445  0.5575
16851SOL    HW252561   6.686   0.197   2.996  0.5564  1.3325  0.1345
16852SOL     OW52562   8.337   0.184   6.523 -0.1139 -0.3324 -0.4473
16852SOL    HW152563   8.247   0.190   6.556  1.1516 -1.9776  3.9622
16852SOL    HW252564   8.388   0.239   6.583  2.1592 -1.5016 -1.2053
16853SOL     OW52565   6.616   8.269   0.125 -0.3533 -0.4166 -0.2374
16853SOL    HW152566   6.665   8.307   0.197 -1.0519  0.3440 -0.1475
16853SOL    HW252567   6.529   8.251   0.162 -0.5478 -0.5314 -0.7369
16854SOL     OW52568   8.339   4.204   7.987 -0.1589  0.1291 -0.5349
16854SOL    HW152569   8.320   4.291   7.950 -1.3416  0.0341 -0.1999
16854SOL    HW252570   8.272   4.147   7.950  0.2620 -0.5231 -0.3041
16855SOL     OW52571   5.158   4.795   9.377  0.8467 -0.5573  0.4166
16855SOL    HW152572   5.153   4.716   9.430 -0.0804 -1.2960 -0.7223
16855SOL    HW252573   5.169   4.866   9.440 -0.8395 -1.3446  1.6699
16856SOL     OW52574   4.049   9.567  10.526 -0.7832 -0.5436 -0.2965
16856SOL    HW152575   3.993   9.489  10.535 -0.2247 -0.8931  0.2299
16856SOL    HW252576   4.083   9.582  10.614  1.6230 -1.5876 -0.9829
16857SOL     OW52577   8.493   5.262   8.581  0.2662 -0.4134 -0.3810
16857SOL    HW152578   8.413   5.314   8.594  0.6574 -0.0923  0.8542
16857SOL    HW252579   8.531   5.297   8.501  2.0043  3.2548  1.8126
16858SOL     OW52580   3.914   5.551   4.936 -0.0629  0.1923 -0.6348
16858SOL    HW152581   3.842   5.551   5.000  1.1910  0.7442  0.8438
16858SOL    HW252582   3.912   5.464   4.898  0.7402 -1.1503  2.0968
16859SOL     OW52583   7.727   0.404   7.338  0.7400 -0.4136 -0.4395
16859SOL    HW152584   7.716   0.336   7.405 -0.5616 -0.6668 -0.9000
16859SOL    HW252585   7.650   0.396   7.282 -0.4689  2.6924  0.5896
16860SOL     OW52586   6.916   9.339   4.582  0.0419 -0.1049 -0.3211
16860SOL    HW152587   6.838   9.284   4.587 -0.1915  0.0301 -1.9440
16860SOL    HW252588   6.944   9.349   4.673 -2.6692  1.0693  0.4797
16861SOL     OW52589   5.454  10.269   4.376  0.2566  0.7128 -1.0943
16861SOL    HW152590   5.423  10.358   4.389  1.0075  0.5697  3.1056
16861SOL    HW252591   5.548  10.274   4.389  0.3719 -0.6522 -1.2487
16862SOL     OW52592   2.008   1.620   4.021 -0.4497 -0.7076 -0.3128
16862SOL    HW152593   2.007   1.685   3.951  1.4541 -0.0644  0.1893
16862SOL    HW252594   1.936   1.646   4.079 -0.2319  0.5043 -0.5480
16863SOL     OW52595  10.983   6.163  11.030  0.7406 -0.7495  0.3629
16863SOL    HW152596  10.930   6.193  11.104 -0.4445 -1.8334 -0.0115
16863SOL    HW252597  11.000   6.070  11.048 -0.2253 -1.2355 -1.0769
16864SOL     OW52598   7.281   2.279   9.192  0.2598  0.4828 -0.6313
16864SOL    HW152599   7.237   2.228   9.124 -1.5615  1.6621 -0.4181
16864SOL    HW252600   7.355   2.225   9.219 -0.6753 -1.3083 -1.4990
16865SOL     OW52601   1.373   8.285   2.681 -0.0043 -0.5347  0.4056
16865SOL    HW152602   1.378   8.373   2.644  0.4647 -1.1826 -1.1848
16865SOL    HW252603   1.441   8.236   2.634 -0.9821 -2.0146  0.4766
16866SOL     OW52604   4.347  11.063   8.473 -0.6646  0.0654  0.3667
16866SOL    HW152605   4.346  10.999   8.544 -0.4510  1.1123  1.3450
16866SOL    HW252606   4.428  11.113   8.487  0.0413 -0.5183 -1.3799
16867SOL     OW52607   9.088   0.274   4.573 -0.6218  0.1916 -0.0918
16867SOL    HW152608   9.127   0.348   4.527 -0.2475  0.8393  1.1902
16867SOL    HW252609   9.000   0.266   4.537 -0.0285  0.0467 -1.5666
16868SOL     OW52610   3.273   1.772   0.412 -0.1135  0.0277 -0.2918
16868SOL    HW152611   3.214   1.813   0.474  1.5755  2.5031 -0.1752
16868SOL    HW252612   3.217   1.718   0.356 -2.0077 -0.1403  1.6809
16869SOL     OW52613   8.331   1.256   3.471  0.0263 -0.4054  0.1081
16869SOL    HW152614   8.281   1.249   3.389 -0.2514 -1.1435  0.3278
16869SOL    HW252615   8.330   1.349   3.491 -0.6361 -0.3152 -0.2856
16870SOL     OW52616   5.710   3.120   8.577 -0.0292 -0.2677  0.2902
16870SOL    HW152617   5.774   3.100   8.509 -0.2708 -0.9081  0.2411
16870SOL    HW252618   5.762   3.136   8.655  0.2145 -0.3132  0.1393
16871SOL     OW52619   9.970   6.037   3.179 -0.1624  0.0490  0.2649
16871SOL    HW152620   9.946   6.009   3.267  0.0825  0.3780  0.4383
16871SOL    HW252621   9.954   5.960   3.124  0.5423 -0.4456  0.7387
16872SOL     OW52622   9.256   5.315   4.188  0.0412  0.6111  0.3416
16872SOL    HW152623   9.163   5.334   4.174 -0.3102  0.4948  2.2166
16872SOL    HW252624   9.264   5.306   4.283  2.1642  1.5677  0.3094
16873SOL     OW52625   2.289  10.612   8.013 -0.2445 -0.0111 -0.3504
16873SOL    HW152626   2.358  10.677   8.029  0.1495  0.0003 -1.9576
16873SOL    HW252627   2.245  10.643   7.934 -0.5084 -1.3218 -0.7342
16874SOL     OW52628   3.310   6.313   7.332 -0.1966  0.0385  0.4974
16874SOL    HW152629   3.228   6.269   7.312  0.1672 -0.5514  0.2737
16874SOL    HW252630   3.367   6.244   7.366  0.6509  0.1593 -0.6282
16875SOL     OW52631   4.017   0.475   9.918  0.9229  0.0707  0.4994
16875SOL    HW152632   3.951   0.473   9.988  0.9103  0.6991  0.5123
16875SOL    HW252633   4.028   0.568   9.898  0.0085 -0.1368 -1.2037
16876SOL     OW52634   8.973   0.453   5.854  0.0019 -0.1021 -0.2560
16876SOL    HW152635   9.052   0.420   5.811  0.3771 -2.0523  1.7357
16876SOL    HW252636   8.934   0.376   5.895 -2.8588  0.8393 -0.9630
16877SOL     OW52637   5.438  11.081   2.585 -0.8656 -0.1850 -0.3466
16877SOL    HW152638   5.353  11.098   2.543 -0.7888  0.4245 -0.2631
16877SOL    HW252639   5.466  10.996   2.549 -2.6426 -1.6282  1.4351
16878SOL     OW52640   4.603   9.857   4.541 -0.1948  0.1550  0.5000
16878SOL    HW152641   4.581   9.771   4.507 -0.8670  0.1717  0.8683
16878SOL    HW252642   4.658   9.839   4.617  0.2651  0.0771  0.1503
16879SOL     OW52643   2.212   6.389   9.017 -0.6809 -0.2053 -0.3133
16879SOL    HW152644   2.262   6.330   9.074  0.0529  0.7088  0.0313
16879SOL    HW252645   2.215   6.348   8.931 -0.7133 -0.9725  0.0457
16880SOL     OW52646   5.257   7.383   0.896  0.0728 -0.0281 -0.9264
16880SOL    HW152647   5.324   7.378   0.828  0.1163  0.9300 -0.9681
16880SOL    HW252648   5.297   7.340   0.972  1.6696  2.5045 -0.2329
16881SOL     OW52649   6.445   9.511   1.161 -0.2559 -0.5007 -0.2217
16881SOL    HW152650   6.517   9.471   1.210 -1.1080  0.3007  1.7703
16881SOL    HW252651   6.448   9.468   1.075  0.8982 -2.4135  0.7096
16882SOL     OW52652   6.214   2.220   6.411  0.5696 -0.3118  0.7717
16882SOL    HW152653   6.269   2.298   6.415 -0.3068  0.4576 -0.9565
16882SOL    HW252654   6.160   2.224   6.489 -0.6383  1.7741 -0.0859
16883SOL     OW52655   7.250   7.541   3.430 -0.1211 -0.1443 -0.6158
16883SOL    HW152656   7.157   7.519   3.420 -0.6037  1.6552 -0.4250
16883SOL    HW252657   7.278   7.569   3.343  0.0744 -0.0733 -0.5308
16884SOL     OW52658   4.203   3.980  10.271  0.6373 -0.5514  0.2038
16884SOL    HW152659   4.233   3.944  10.354  0.5500  1.0468  0.9491
16884SOL    HW252660   4.257   3.936  10.205  2.3893 -0.0851  1.2801
16885SOL     OW52661   5.142   4.029   4.599 -0.5467 -0.8039 -0.0916
16885SOL    HW152662   5.225   4.035   4.551  0.8834 -1.0353  2.1820
16885SOL    HW252663   5.082   4.087   4.552  0.9136 -0.6208 -1.7999
16886SOL     OW52664   5.220   5.881   4.834 -0.1896 -0.0431 -0.1586
16886SOL    HW152665   5.270   5.925   4.765  1.1220  0.5455  1.1039
16886SOL    HW252666   5.231   5.788   4.816  0.2785  0.1037 -0.6667
16887SOL     OW52667   3.022   0.002   1.997 -0.4927 -0.5572 -0.2948
16887SOL    HW152668   2.932   0.016   1.968 -0.3889 -0.6721 -0.6814
16887SOL    HW252669   3.014  -0.025   2.089 -0.8612 -0.7149 -0.3705
16888SOL     OW52670   3.804  10.043  10.664  0.7948  0.0453  0.3008
16888SOL    HW152671   3.890  10.039  10.623  0.1129 -2.6062 -1.0372
16888SOL    HW252672   3.780   9.952  10.680 -2.6335  0.5005 -1.2948
16889SOL     OW52673   5.476   4.311   4.816 -0.0458  0.4026 -0.8000
16889SOL    HW152674   5.507   4.224   4.793 -0.9840 -0.0835 -0.3133
16889SOL    HW252675   5.418   4.336   4.744  0.1686  0.6001 -0.9060
16890SOL     OW52676   9.079   1.031   3.760  0.1927 -0.3746 -0.8445
16890SOL    HW152677   9.009   1.067   3.706  0.9108 -0.7953 -2.1059
16890SOL    HW252678   9.036   1.005   3.841 -0.6345  1.7482 -0.5334
16891SOL     OW52679   1.684   9.027   1.159  0.2110 -0.2160  0.1553
16891SOL    HW152680   1.667   8.978   1.079 -2.6687  0.6770  0.1044
16891SOL    HW252681   1.697   9.117   1.130  2.4671 -0.3572  0.5084
16892SOL     OW52682   4.011   4.206   0.204  0.4737 -0.3718 -0.2816
16892SOL    HW152683   4.045   4.139   0.262 -1.6968 -0.8370  0.5373
16892SOL    HW252684   3.936   4.165   0.161 -0.8084  1.4482  0.1166
16893SOL     OW52685   0.316   5.099   3.668  0.3828 -0.2866  0.4863
16893SOL    HW152686   0.304   5.178   3.721 -1.5664 -1.2577  1.6247
16893SOL    HW252687   0.365   5.039   3.724 -0.2339 -0.7265  0.5660
16894SOL     OW52688   0.964   6.275   2.484  0.5963  0.2312 -0.0166
16894SOL    HW152689   0.973   6.369   2.463  0.7408  0.1083 -0.5423
16894SOL    HW252690   0.884   6.269   2.536 -0.0373  0.5069 -0.9326
16895SOL     OW52691   4.536   9.075   3.436  0.0946  0.7434 -0.4686
16895SOL    HW152692   4.505   9.137   3.502 -2.0485 -0.4438 -0.2584
16895SOL    HW252693   4.519   8.989   3.474  0.8822  0.0148 -1.6848
16896SOL     OW52694   4.629   4.312   2.738 -0.3661  0.5686  0.7222
16896SOL    HW152695   4.646   4.324   2.645 -1.0491 -2.5655  0.0837
16896SOL    HW252696   4.620   4.401   2.773 -0.5927  1.8193 -2.2653
16897SOL     OW52697   8.893   1.064   2.570 -0.1658  0.3667  0.1066
16897SOL    HW152698   8.934   0.988   2.612  1.3491  0.2053 -1.5634
16897SOL    HW252699   8.819   1.027   2.522  1.6269 -0.4634 -2.2246
16898SOL     OW52700   7.958   1.311   9.310  0.1865 -0.0956 -0.0535
16898SOL    HW152701   8.005   1.347   9.385  1.4895  1.2147 -1.4353
16898SOL    HW252702   8.014   1.330   9.235 -1.1175 -1.2765 -1.3985
16899SOL     OW52703   9.738   5.712   3.775  0.1530  0.1893  0.0837
16899SOL    HW152704   9.671   5.723   3.843  0.4844  1.5855  0.2142
16899SOL    HW252705   9.755   5.801   3.743  0.4235 -0.3675 -1.4386
16900SOL     OW52706  10.889   8.379   1.623  0.4388 -0.6483  0.0318
16900SOL    HW152707  10.976   8.340   1.611  0.9080 -0.6481  2.8539
16900SOL    HW252708  10.834   8.307   1.652  0.0466 -0.2334  0.3303
16901SOL     OW52709   5.967   9.570   4.247 -0.4303  0.0375 -0.5147
16901SOL    HW152710   5.954   9.654   4.291  2.6261  0.4426 -0.1619
16901SOL    HW252711   5.905   9.511   4.289  0.9165  0.8815  3.0710
16902SOL     OW52712   8.551   0.735   8.436  0.1738  0.2927  0.2216
16902SOL    HW152713   8.532   0.643   8.418  1.4240 -0.2106  1.3286
16902SOL    HW252714   8.605   0.763   8.361  1.3948 -0.4427  0.7961
16903SOL     OW52715   1.141   8.982   8.072 -0.4448 -0.4983  0.4004
16903SOL    HW152716   1.060   9.030   8.057  1.0509  2.4840  1.0914
16903SOL    HW252717   1.147   8.973   8.167 -0.1647 -1.0736  0.3326
16904SOL     OW52718   3.469   1.790   6.385  0.4500  0.0655  0.1587
16904SOL    HW152719   3.472   1.877   6.344  1.7345 -1.0606 -2.3640
16904SOL    HW252720   3.454   1.730   6.312  2.5984 -2.0840  1.3525
16905SOL     OW52721   3.114   2.616   9.699 -0.0664  0.2494  0.1328
16905SOL    HW152722   3.027   2.634   9.661 -0.1057 -0.3942 -0.0954
16905SOL    HW252723   3.137   2.530   9.665 -0.2545 -0.5220  1.8457
16906SOL     OW52724   0.780   8.764   4.398 -0.1064 -0.1831  0.3943
16906SOL    HW152725   0.846   8.743   4.464  0.6800  0.7926 -0.0471
16906SOL    HW252726   0.830   8.775   4.317 -0.9721 -0.6661 -0.2193
16907SOL     OW52727   5.183   6.565   1.787 -0.0350  0.2915 -0.3220
16907SOL    HW152728   5.178   6.495   1.721  0.6080  0.4591 -0.5638
16907SOL    HW252729   5.167   6.520   1.870 -2.9665  0.4114 -0.7117
16908SOL     OW52730   7.084   7.310   6.712 -0.1368 -0.1517 -0.1780
16908SOL    HW152731   7.099   7.399   6.679  0.9966  0.3099  1.4563
16908SOL    HW252732   7.151   7.298   6.778 -1.8961 -1.2425  1.4984
16909SOL     OW52733   4.022   2.377   9.059 -0.2267  0.3534 -0.4954
16909SOL    HW152734   4.024   2.282   9.050 -0.3745  0.4875 -2.3227
16909SOL    HW252735   3.931   2.397   9.080 -0.2368  0.1118 -0.3037
16910SOL     OW52736   9.741   5.593   0.837  0.7410 -0.4573 -0.6128
16910SOL    HW152737   9.715   5.671   0.886 -0.8128 -0.2259 -1.7412
16910SOL    HW252738   9.750   5.624   0.747 -1.7431 -1.8830 -1.4426
16911SOL     OW52739   9.876   0.881   0.834 -0.3789  0.4614 -0.4503
16911SOL    HW152740   9.842   0.916   0.752 -1.7910  2.1358  0.7662
16911SOL    HW252741   9.951   0.827   0.808 -0.1185  1.7886 -2.7412
16912SOL     OW52742   5.392   2.372   0.481 -0.3503  0.0714  0.4442
16912SOL    HW152743   5.330   2.354   0.411  1.0233 -0.1560 -0.7510
16912SOL    HW252744   5.459   2.427   0.441 -0.1347  0.9164  1.8940
16913SOL     OW52745   2.477   7.806   9.499 -0.3137 -0.2670  0.2485
16913SOL    HW152746   2.397   7.814   9.552 -0.5078 -1.1150  0.0968
16913SOL    HW252747   2.547   7.793   9.563 -0.3642  0.0063  0.3595
16914SOL     OW52748   9.898   9.467   0.241 -0.3019 -0.3333 -1.2888
16914SOL    HW152749   9.809   9.492   0.215 -0.6488 -1.7542 -1.6020
16914SOL    HW252750   9.893   9.455   0.336 -1.0143 -2.3659 -1.5380
16915SOL     OW52751   3.516   8.326   3.314  0.6148  0.2795  0.7251
16915SOL    HW152752   3.462   8.392   3.357  0.3604 -1.3032  2.9571
16915SOL    HW252753   3.456   8.253   3.297  1.2556 -0.0497 -0.2056
16916SOL     OW52754  10.706   0.494   1.393 -0.2029  0.7970  0.3934
16916SOL    HW152755  10.732   0.575   1.348 -0.9099  0.1697 -1.2188
16916SOL    HW252756  10.666   0.441   1.325 -1.4397 -0.1704  1.8256
16917SOL     OW52757   3.424   4.898   9.278 -0.1594  0.3942 -0.2928
16917SOL    HW152758   3.498   4.855   9.233 -0.5716 -1.1586  0.4325
16917SOL    HW252759   3.348   4.846   9.254 -0.7423  0.9187  0.3788
16918SOL     OW52760   8.355   2.511   0.087 -0.0524 -0.2462  0.1240
16918SOL    HW152761   8.360   2.583   0.024 -0.1118 -0.4044 -0.0582
16918SOL    HW252762   8.343   2.555   0.172  1.5615  0.0555  0.2415
16919SOL     OW52763   2.543   1.714   7.401 -0.2568 -0.6975  0.7714
16919SOL    HW152764   2.484   1.639   7.409 -0.5501 -0.6143 -0.3540
16919SOL    HW252765   2.485   1.790   7.405 -0.4648 -0.6438 -1.7216
16920SOL     OW52766   7.823   5.269   5.837  0.7987  0.0938  0.5705
16920SOL    HW152767   7.854   5.291   5.925  1.0839 -2.5053  1.1754
16920SOL    HW252768   7.761   5.339   5.816  1.8095  1.5751  2.1926
16921SOL     OW52769   4.888   2.421   7.963  0.5706 -0.5386  0.4145
16921SOL    HW152770   4.918   2.330   7.960  1.4265 -0.3731  2.4937
16921SOL    HW252771   4.924   2.461   7.884 -0.8031 -2.2486 -1.1725
16922SOL     OW52772   8.656   3.877   7.064  0.1063  0.9000  0.3006
16922SOL    HW152773   8.697   3.814   7.005  1.0063  0.5482  1.2720
16922SOL    HW252774   8.598   3.823   7.119  0.0495  1.0737  0.4104
16923SOL     OW52775   6.174   0.717   7.574 -0.6647  0.4865  0.8407
16923SOL    HW152776   6.241   0.771   7.617  1.1222 -0.5490 -0.4820
16923SOL    HW252777   6.123   0.779   7.521  1.4886  0.9514 -0.8380
16924SOL     OW52778   3.538   2.149   4.379  0.1302 -0.2711  0.0519
16924SOL    HW152779   3.522   2.242   4.390  0.7137 -0.3054  1.3657
16924SOL    HW252780   3.511   2.130   4.289 -0.9160  0.9559  0.0907
16925SOL     OW52781   9.916   0.170   7.279  0.9934  0.2149  0.4853
16925SOL    HW152782   9.940   0.136   7.365  2.2261  2.1720  0.9646
16925SOL    HW252783   9.891   0.092   7.229  0.6576 -1.0142  2.4582
16926SOL     OW52784   4.895   6.549   2.367  0.0096 -0.3450  0.6111
16926SOL    HW152785   4.852   6.610   2.427 -1.7295  2.1829 -2.8219
16926SOL    HW252786   4.980   6.590   2.349 -1.1625  1.2839 -1.7024
16927SOL     OW52787  10.081   7.168   8.619 -0.8475  0.2187 -0.0983
16927SOL    HW152788  10.027   7.226   8.565 -0.4103  0.8435  0.1216
16927SOL    HW252789  10.076   7.083   8.575 -0.0897  0.8286 -1.4328
16928SOL     OW52790   1.257   9.230   4.376  0.6469 -0.1779 -0.5394
16928SOL    HW152791   1.250   9.139   4.403 -0.3751 -0.0023 -0.1538
16928SOL    HW252792   1.298   9.274   4.451 -0.0471 -0.1057 -0.1895
16929SOL     OW52793   7.494   9.596   6.187  0.3073  0.3227 -0.9376
16929SOL    HW152794   7.566   9.658   6.183  0.2486  0.3753 -1.1873
16929SOL    HW252795   7.449   9.616   6.269  0.7407  0.1068 -0.6463
16930SOL     OW52796  10.692   2.063   5.407  0.0717  0.1959 -0.3659
16930SOL    HW152797  10.650   2.036   5.489  1.0057 -1.4117 -0.3819
16930SOL    HW252798  10.754   2.132   5.432  0.8316 -0.7460  0.3992
16931SOL     OW52799   4.662   5.116   8.275  0.5577  0.0820  0.4349
16931SOL    HW152800   4.718   5.045   8.306  0.1111 -0.9872 -1.1353
16931SOL    HW252801   4.574   5.078   8.274  0.5306  0.0904 -1.9830
16932SOL     OW52802   0.399   9.867   1.679  0.4850 -0.2549  0.2238
16932SOL    HW152803   0.329   9.816   1.638 -0.8953  0.8574  1.1250
16932SOL    HW252804   0.415   9.939   1.618  0.8384 -0.5020  0.0245
16933SOL     OW52805   6.595   2.161  10.260 -0.8107  0.1934  0.2110
16933SOL    HW152806   6.686   2.134  10.251 -0.1039  1.5205  2.6172
16933SOL    HW252807   6.600   2.255  10.280 -2.7789  0.5432 -0.7105
16934SOL     OW52808  10.481   1.242   2.702  0.0185  0.1037  0.8077
16934SOL    HW152809  10.458   1.331   2.726 -0.7488 -0.3569  1.8839
16934SOL    HW252810  10.410   1.188   2.739 -0.4376 -0.8189 -1.2321
16935SOL     OW52811   9.356   0.317  11.078  0.0696  0.3295  0.5420
16935SOL    HW152812   9.373   0.254  11.008 -1.2492  0.6473 -0.0975
16935SOL    HW252813   9.271   0.291  11.114  0.6698  0.2527  1.9602
16936SOL     OW52814   6.463   1.797  10.913  0.2042  0.0496 -0.5134
16936SOL    HW152815   6.501   1.734  10.975 -2.0761 -2.4290 -1.4413
16936SOL    HW252816   6.459   1.749  10.830 -0.3432  1.9599 -1.6395
16937SOL     OW52817   7.072   3.088   2.621  0.5834  0.1467  0.5173
16937SOL    HW152818   7.003   3.114   2.682  0.2743 -0.5898  0.5047
16937SOL    HW252819   7.153   3.123   2.659  0.0430  2.3882 -0.2815
16938SOL     OW52820  10.991   3.558  10.439 -0.0768  0.2811 -0.1756
16938SOL    HW152821  11.020   3.565  10.348  0.7645 -2.3855 -0.1751
16938SOL    HW252822  11.064   3.595  10.490  0.3036 -0.0110 -0.5002
16939SOL     OW52823   4.219   9.669   7.549  0.2486  0.1767  0.3127
16939SOL    HW152824   4.234   9.690   7.457  0.0876 -0.7526  0.0695
16939SOL    HW252825   4.139   9.616   7.550  0.2552  0.1657  0.9845
16940SOL     OW52826   7.921   1.985   4.837  0.0713  0.5242 -0.6054
16940SOL    HW152827   7.960   2.032   4.911 -0.1373  0.6341 -0.5628
16940SOL    HW252828   7.867   1.917   4.878  1.6547 -0.8274 -0.6789
16941SOL     OW52829   6.262   0.373   4.305  0.5540  0.2157 -0.0284
16941SOL    HW152830   6.321   0.353   4.378 -1.4414  1.7573  2.1494
16941SOL    HW252831   6.196   0.431   4.342 -0.4805  1.2741 -3.1535
16942SOL     OW52832   1.744  10.820   7.566 -0.2922  0.4970  0.6226
16942SOL    HW152833   1.746  10.735   7.524  0.5175 -0.3077  2.1850
16942SOL    HW252834   1.811  10.871   7.521 -0.8707  0.3677 -0.4049
16943SOL     OW52835   7.903   6.663   9.216  0.1429  0.3006 -0.1947
16943SOL    HW152836   7.879   6.683   9.125  0.6133  0.1378 -0.3596
16943SOL    HW252837   7.845   6.718   9.269 -2.2773 -1.7315 -0.5019
16944SOL     OW52838   3.469   8.863   6.055 -0.1598 -0.3311  0.4198
16944SOL    HW152839   3.439   8.803   6.124  1.0356 -2.0328 -0.4767
16944SOL    HW252840   3.515   8.807   5.993 -3.1516  0.6658 -3.0738
16945SOL     OW52841   4.527   5.861   3.828 -0.5667  0.1193  0.5994
16945SOL    HW152842   4.575   5.858   3.910  0.2666  2.9593  0.3170
16945SOL    HW252843   4.450   5.916   3.847 -0.6521  0.3531 -0.3615
16946SOL     OW52844   5.438   1.096   4.277  0.2164 -0.0888  0.1217
16946SOL    HW152845   5.495   1.130   4.207  1.0956  0.8998  1.2685
16946SOL    HW252846   5.491   1.031   4.322  0.1185  0.1723  0.6258
16947SOL     OW52847   4.385   0.223   6.705  1.0980 -0.0466 -0.4183
16947SOL    HW152848   4.460   0.183   6.749  0.3132 -1.0268  0.0627
16947SOL    HW252849   4.365   0.164   6.632  0.6244  0.0423 -0.3681
16948SOL     OW52850   6.267   1.219   2.819  0.9058 -0.6298 -0.2877
16948SOL    HW152851   6.294   1.148   2.760  1.8647  0.6057 -1.3887
16948SOL    HW252852   6.181   1.245   2.788  1.5761  0.2932 -1.4731
16949SOL     OW52853   6.841   4.480   8.767  0.1464  0.2881  0.0657
16949SOL    HW152854   6.897   4.509   8.695  0.1102 -1.3432 -0.6406
16949SOL    HW252855   6.861   4.387   8.778 -1.3266  0.0297  0.8140
16950SOL     OW52856   2.504   9.247   7.119  0.3822  0.2258 -0.4692
16950SOL    HW152857   2.416   9.237   7.085  0.0536  0.6802  0.2161
16950SOL    HW252858   2.547   9.307   7.057 -0.4583  1.6900  0.3041
16951SOL     OW52859   8.340   3.988   4.301 -0.4042 -0.1134 -0.6712
16951SOL    HW152860   8.248   4.006   4.320 -0.3499 -1.0571  0.6622
16951SOL    HW252861   8.356   4.028   4.216 -2.0827 -0.0680 -0.9872
16952SOL     OW52862   1.173   7.039   6.854  0.0977 -0.4908  0.0684
16952SOL    HW152863   1.253   7.053   6.904 -0.3152 -1.1644  0.9753
16952SOL    HW252864   1.150   6.947   6.872 -0.2767 -0.6366 -1.0696
16953SOL     OW52865   7.458   9.682   0.252  0.1273 -0.3365  0.4561
16953SOL    HW152866   7.534   9.637   0.289  0.5885  1.0714  1.3002
16953SOL    HW252867   7.413   9.718   0.328  0.2740  1.3628 -0.2286
16954SOL     OW52868  10.290   9.892   7.651 -0.5046  0.4290  0.1704
16954SOL    HW152869  10.296   9.800   7.626  2.2212  0.1340  1.6080
16954SOL    HW252870  10.353   9.936   7.594 -1.4322  1.3727 -0.1643
16955SOL     OW52871   6.453   8.966  10.946 -0.9030 -0.0907  0.4095
16955SOL    HW152872   6.522   8.899  10.942  0.0325  0.4607  3.9643
16955SOL    HW252873   6.376   8.922  10.910 -0.2687 -3.1170  2.3527
16956SOL     OW52874   0.356   0.501   3.086 -0.1817 -0.6575 -0.5948
16956SOL    HW152875   0.337   0.417   3.128 -1.4227 -0.8042 -1.4184
16956SOL    HW252876   0.371   0.561   3.160 -4.1012 -0.4782  0.2483
16957SOL     OW52877  11.025   3.576   5.558 -0.5248  0.5314 -0.5271
16957SOL    HW152878  11.007   3.497   5.508 -2.1713 -0.7337  1.8631
16957SOL    HW252879  10.991   3.557   5.646  1.0256  3.0790  0.7444
16958SOL     OW52880   4.650   2.443   3.803  0.5076 -0.4146  0.8387
16958SOL    HW152881   4.694   2.361   3.781  0.1948 -0.1251 -1.0912
16958SOL    HW252882   4.720   2.502   3.829  0.7643 -1.1879  1.9940
16959SOL     OW52883   0.272   7.042   4.583  0.0489 -0.7151  0.9798
16959SOL    HW152884   0.317   7.103   4.524 -1.9125 -1.1338 -1.1217
16959SOL    HW252885   0.338   6.977   4.606  0.8318 -0.7426 -1.1327
16960SOL     OW52886   3.689   0.699   1.070 -0.5810  0.5497 -0.2637
16960SOL    HW152887   3.707   0.615   1.112  1.3466 -0.0223 -2.0391
16960SOL    HW252888   3.600   0.690   1.035 -1.5083  0.3791  1.9968
16961SOL     OW52889   7.822   8.154   1.997  0.4382 -0.2773 -0.5821
16961SOL    HW152890   7.854   8.122   1.913 -0.0578  0.2743 -0.9908
16961SOL    HW252891   7.795   8.076   2.045  1.4484 -0.6618 -0.6210
16962SOL     OW52892   2.377   2.103   4.169  0.2306  0.2830 -0.2434
16962SOL    HW152893   2.372   2.012   4.138 -0.4426  0.3814 -0.4459
16962SOL    HW252894   2.366   2.156   4.091  1.6986  0.5590 -0.2883
16963SOL     OW52895   1.515   9.923   4.250  0.5728  0.7410 -0.5980
16963SOL    HW152896   1.494   9.906   4.342 -0.0942  1.0485 -0.6856
16963SOL    HW252897   1.607   9.900   4.242 -0.2690 -3.4013 -0.8177
16964SOL     OW52898   6.871   3.982   5.827  0.1298  0.0062 -0.0554
16964SOL    HW152899   6.826   4.056   5.787 -0.5881 -0.1906  0.3835
16964SOL    HW252900   6.944   4.021   5.875  0.3551  0.3363 -0.6575
16965SOL     OW52901   8.700   5.379   7.066  0.2546  0.5072  0.2718
16965SOL    HW152902   8.691   5.293   7.107  0.2428  0.8211  0.9362
16965SOL    HW252903   8.670   5.441   7.132 -1.2987  0.9260 -0.7593
16966SOL     OW52904   8.473   6.932   8.092 -0.1526  0.6738 -0.3030
16966SOL    HW152905   8.450   6.843   8.068  0.5845  0.6854 -1.1121
16966SOL    HW252906   8.490   6.976   8.009  2.5812  0.6994  0.1680
16967SOL     OW52907   0.048   2.946   4.897  0.2164  0.1298  0.0523
16967SOL    HW152908   0.143   2.941   4.901  0.1858 -0.7642 -0.0468
16967SOL    HW252909   0.023   2.876   4.836 -0.3877  1.5930 -1.4618
16968SOL     OW52910   3.597   6.171   8.195  0.6525 -0.0003 -0.0782
16968SOL    HW152911   3.524   6.109   8.195  1.5221 -1.1349 -2.0097
16968SOL    HW252912   3.658   6.136   8.260  0.0655  0.2513  0.6284
16969SOL     OW52913   8.942   7.356  10.178  0.0155 -0.4844 -0.3814
16969SOL    HW152914   8.919   7.296  10.107 -0.9085 -0.3091 -0.2455
16969SOL    HW252915   8.928   7.443  10.142  0.0607 -0.3789 -0.1487
16970SOL     OW52916   8.520   9.226   7.760 -0.1491  0.1587  0.5994
16970SOL    HW152917   8.598   9.272   7.729  0.8855 -2.6062 -1.3033
16970SOL    HW252918   8.546   9.133   7.762 -3.3648 -0.8819 -0.1497
16971SOL     OW52919   2.059   9.173   7.210 -0.2422  0.0873 -0.2268
16971SOL    HW152920   2.121   9.162   7.282 -1.2266  1.5379  0.9050
16971SOL    HW252921   1.995   9.236   7.243 -2.2790 -1.2606 -1.3823
16972SOL     OW52922   6.792   1.264   7.530  0.1864 -0.1858  0.2139
16972SOL    HW152923   6.843   1.183   7.522 -1.1160 -1.0582  0.5264
16972SOL    HW252924   6.767   1.285   7.440  2.5328  1.2657 -0.2045
16973SOL     OW52925   1.059   1.633  10.794  0.0739  0.1502  0.6155
16973SOL    HW152926   1.153   1.645  10.783  0.0954  1.6403  1.9823
16973SOL    HW252927   1.051   1.554  10.847  0.4079 -1.1787 -1.2211
16974SOL     OW52928  10.532   7.642   4.940  0.7389  0.9403 -0.7785
16974SOL    HW152929  10.522   7.660   5.034  0.1427  0.3750 -0.7228
16974SOL    HW252930  10.569   7.722   4.904 -0.4721  1.7256 -0.3139
16975SOL     OW52931   4.186  10.172  10.018 -0.1023  0.1273 -0.3120
16975SOL    HW152932   4.129  10.158   9.942 -0.7676  0.1277  0.1766
16975SOL    HW252933   4.274  10.153   9.986 -0.2758  0.9273 -1.3012
16976SOL     OW52934   1.033   4.250   5.674 -0.8117  0.3734  0.0531
16976SOL    HW152935   0.969   4.182   5.657 -1.0441  0.5438  0.2428
16976SOL    HW252936   1.082   4.220   5.751 -0.9982  0.4794  0.2136
16977SOL     OW52937   8.614   4.253   6.572 -0.5832 -0.6547  0.7212
16977SOL    HW152938   8.540   4.269   6.512 -0.5379 -0.0782  0.8165
16977SOL    HW252939   8.689   4.295   6.529 -0.7379  0.6005  1.6127
16978SOL     OW52940   7.870   1.290   1.408 -0.0962  0.5144 -0.0488
16978SOL    HW152941   7.904   1.201   1.421  0.7673  0.6901 -0.9202
16978SOL    HW252942   7.948   1.345   1.408 -0.6019  1.2378  0.1778
16979SOL     OW52943   8.206   5.460   7.409  0.4074  0.4217  0.0468
16979SOL    HW152944   8.125   5.477   7.360  0.4917  1.6745  0.2902
16979SOL    HW252945   8.177   5.413   7.487  0.2886 -1.7724 -1.2353
16980SOL     OW52946   6.451   1.853   8.169  0.3351 -1.1299 -0.0240
16980SOL    HW152947   6.380   1.790   8.177  0.1285 -1.1381 -1.6325
16980SOL    HW252948   6.498   1.827   8.089 -0.3065  1.2623 -1.2795
16981SOL     OW52949   4.282   0.097   6.481 -0.5700  0.0451  0.1659
16981SOL    HW152950   4.267   0.002   6.488 -1.1645 -0.0149 -1.4779
16981SOL    HW252951   4.338   0.107   6.404 -1.1466  1.0794 -0.1405
16982SOL     OW52952   1.973   8.081  10.597  0.6401  0.9305  0.5830
16982SOL    HW152953   1.953   7.993  10.566  1.9446  0.1331  1.8429
16982SOL    HW252954   2.024   8.121  10.526  0.3664  0.5339  0.1591
16983SOL     OW52955   3.460   1.258   7.458 -0.1375  0.5121 -0.0393
16983SOL    HW152956   3.419   1.178   7.426  0.5287 -0.2531  0.9277
16983SOL    HW252957   3.388   1.309   7.495 -0.7884  1.0476 -1.9348
16984SOL     OW52958   3.289   9.569   9.872  0.4774  0.2300 -0.6373
16984SOL    HW152959   3.298   9.619   9.953 -0.6345  0.8834 -0.8933
16984SOL    HW252960   3.291   9.477   9.900  1.2762  0.4194 -0.0181
16985SOL     OW52961  10.393   9.704   3.798  0.7292 -0.3438  0.4216
16985SOL    HW152962  10.487   9.703   3.780  0.7139  0.3039  0.2835
16985SOL    HW252963  10.375   9.793   3.828  0.0885 -0.3455  0.0595
16986SOL     OW52964   0.362   3.728   7.409  0.1016 -0.1892  0.1347
16986SOL    HW152965   0.316   3.801   7.367 -1.4838 -1.3694 -0.2863
16986SOL    HW252966   0.356   3.657   7.346  1.5284 -0.7289  0.5857
16987SOL     OW52967  10.982   4.422   4.183  0.0759 -0.5820 -0.1865
16987SOL    HW152968  11.005   4.511   4.156  0.6064 -0.8264 -0.5695
16987SOL    HW252969  10.913   4.433   4.248 -1.0881  0.0582 -1.4652
16988SOL     OW52970   6.167   4.165  11.082  0.0498  0.5709 -0.4689
16988SOL    HW152971   6.206   4.154  11.168 -2.9478 -1.7053  0.7695
16988SOL    HW252972   6.113   4.244  11.090 -1.5990 -0.5926  0.4036
16989SOL     OW52973   7.762   8.636   8.852  0.5398 -0.6026 -0.1590
16989SOL    HW152974   7.742   8.692   8.777 -0.5741  1.2766  1.4410
16989SOL    HW252975   7.676   8.616   8.890  1.1162 -0.7458  1.1262
16990SOL     OW52976   4.576   9.933   9.443 -1.0812 -0.2530  0.0876
16990SOL    HW152977   4.626   9.951   9.523 -0.8568 -0.9229  0.1041
16990SOL    HW252978   4.545  10.019   9.415 -2.8841 -0.2061  1.9938
16991SOL     OW52979   6.471   0.341  10.138 -0.0213 -0.1177  0.5405
16991SOL    HW152980   6.381   0.371  10.146 -0.6065 -1.6872  0.1096
16991SOL    HW252981   6.518   0.416  10.100 -1.5696  0.0665 -1.1537
16992SOL     OW52982   7.656   6.843   1.762 -0.1717 -0.3939 -0.2743
16992SOL    HW152983   7.585   6.849   1.826 -0.7980  0.1269 -1.0010
16992SOL    HW252984   7.644   6.920   1.706  0.6148 -0.6207 -0.7692
16993SOL     OW52985   4.466   4.868   9.906  0.1433  0.2939 -0.0078
16993SOL    HW152986   4.428   4.853   9.820 -1.3807  0.1509  0.6682
16993SOL    HW252987   4.559   4.847   9.895  0.1965  1.3210 -1.8711
16994SOL     OW52988   4.465  10.870   0.517 -0.2791  0.1548  0.2338
16994SOL    HW152989   4.426  10.796   0.563 -1.8115  0.3070 -0.7410
16994SOL    HW252990   4.393  10.906   0.464  0.2212  2.7584  1.1583
16995SOL     OW52991   7.781   5.675   8.442  0.1651 -0.2255 -0.5108
16995SOL    HW152992   7.727   5.731   8.387 -1.6998 -1.8004 -0.3648
16995SOL    HW252993   7.719   5.629   8.498  1.6129 -2.3298 -0.5338
16996SOL     OW52994  10.338   6.738   9.117  0.2586 -0.5554 -0.3354
16996SOL    HW152995  10.403   6.765   9.053  0.3264  0.9519  0.3235
16996SOL    HW252996  10.269   6.804   9.111  0.7443  0.2475  1.8017
16997SOL     OW52997   4.515   1.213   5.973  0.1544  0.4409  0.2289
16997SOL    HW152998   4.573   1.287   5.955 -0.7985  0.7702 -1.6816
16997SOL    HW252999   4.573   1.145   6.007  1.7241  0.6773 -1.7974
16998SOL     OW53000   0.238   8.633   7.476 -0.4144 -0.5950  0.2564
16998SOL    HW153001   0.320   8.617   7.524 -0.8491  0.3328  1.3471
16998SOL    HW253002   0.173   8.581   7.522 -0.9047  0.5759  0.9278
16999SOL     OW53003   4.950   2.996   9.364 -0.3335  0.0541 -0.8218
16999SOL    HW153004   4.982   3.078   9.402 -0.0488 -0.8389  0.9508
16999SOL    HW253005   4.945   2.936   9.438  0.0629 -1.7295 -2.1878
17000SOL     OW53006  10.525   1.052   7.804 -0.0717 -0.2756 -0.7211
17000SOL    HW153007  10.458   1.013   7.749  1.5216  0.4973 -3.4212
17000SOL    HW253008  10.605   1.003   7.784  1.0682  1.5762 -0.9906
17001SOL     OW53009   8.374   4.648   2.640  0.5980 -0.0411  0.3119
17001SOL    HW153010   8.307   4.663   2.573  0.7799 -1.1940 -0.1651
17001SOL    HW253011   8.372   4.726   2.695 -1.7587 -0.3967  0.8359
17002SOL     OW53012   3.272   7.550   8.189  0.1812 -0.3178 -0.1116
17002SOL    HW153013   3.282   7.456   8.206  1.0519 -0.5240 -1.5713
17002SOL    HW253014   3.179   7.561   8.169 -0.2667 -0.5582  1.6399
17003SOL     OW53015   0.387   1.580   5.062 -0.2975 -0.1950 -0.4216
17003SOL    HW153016   0.435   1.627   4.994  2.1365 -0.8960  0.7155
17003SOL    HW253017   0.385   1.490   5.031  2.6171 -0.9474  1.1953
17004SOL     OW53018  10.562   7.034   4.449 -0.7421  0.3871 -0.2408
17004SOL    HW153019  10.619   7.020   4.525 -1.7641  0.2155  0.5297
17004SOL    HW253020  10.548   6.946   4.414 -2.1225  0.1387  0.8082
17005SOL     OW53021   0.273   0.854  10.043  0.1746 -0.0703  0.4143
17005SOL    HW153022   0.194   0.801  10.044 -0.0445  0.2730  1.0635
17005SOL    HW253023   0.292   0.866   9.949 -1.2151  0.8630  0.2300
17006SOL     OW53024   5.841   3.615  10.424 -0.7483 -0.4700  0.1670
17006SOL    HW153025   5.890   3.547  10.378 -1.0528  0.6564 -1.9236
17006SOL    HW253026   5.749   3.596  10.404 -0.8805  0.1172  0.1976
17007SOL     OW53027   8.372   6.270   7.714 -0.3085  0.7881 -0.4903
17007SOL    HW153028   8.393   6.246   7.804  1.9868  2.7388 -0.3928
17007SOL    HW253029   8.352   6.187   7.671 -1.0188 -0.2375  1.6788
17008SOL     OW53030  11.060   7.830   3.211 -0.8289  0.3277 -0.2958
17008SOL    HW153031  11.142   7.874   3.188 -0.8464  0.2244 -0.5562
17008SOL    HW253032  11.066   7.744   3.169 -0.4732 -0.2097  0.8237
17009SOL     OW53033   3.543   9.113   6.003  0.3095  0.4843  0.9682
17009SOL    HW153034   3.523   9.020   5.989 -0.0243  0.9616 -2.6780
17009SOL    HW253035   3.513   9.130   6.092 -0.7170 -2.6080  1.3669
17010SOL     OW53036  10.011   8.773   6.548  0.3751  0.6361  0.6469
17010SOL    HW153037   9.990   8.836   6.479  3.6279  1.3354  0.1226
17010SOL    HW253038   9.937   8.712   6.549 -0.6300  1.6629 -2.1782
17011SOL     OW53039   6.199   3.274  10.516  0.4837 -0.0648  0.5251
17011SOL    HW153040   6.238   3.190  10.540  0.8742  0.7799  3.1153
17011SOL    HW253041   6.128   3.251  10.456  0.1252 -2.3376  1.7163
17012SOL     OW53042   0.580   9.851   3.675 -0.1445  0.7345  0.1564
17012SOL    HW153043   0.552   9.760   3.675 -0.6866  0.9012  0.3274
17012SOL    HW253044   0.633   9.860   3.754 -0.0951  0.5705  0.1425
17013SOL     OW53045   0.103   3.557   1.021  0.1176 -0.2553 -0.0331
17013SOL    HW153046   0.030   3.508   1.057  1.1548 -0.9243  1.2633
17013SOL    HW253047   0.075   3.583   0.933 -1.6182 -0.5599  0.4078
17014SOL     OW53048   5.917   7.503   8.921 -0.0256 -0.4445  0.4137
17014SOL    HW153049   5.983   7.491   8.853 -1.5144 -0.1831 -1.1380
17014SOL    HW253050   5.834   7.507   8.874 -1.1837 -0.8487  2.3060
17015SOL     OW53051   6.857   8.843   0.023 -0.7363 -0.4941  0.6288
17015SOL    HW153052   6.786   8.803  -0.027  0.3729 -2.4478  0.5327
17015SOL    HW253053   6.904   8.898  -0.039 -1.1967 -0.4749  0.2983
17016SOL     OW53054   5.242  10.351  10.691  0.3091 -0.4537  0.5195
17016SOL    HW153055   5.216  10.261  10.671 -0.0996 -0.1170 -0.5438
17016SOL    HW253056   5.330  10.360  10.653 -0.2596  0.0323 -0.7363
17017SOL     OW53057   6.416   9.225  10.924 -0.3815  0.0100  0.0330
17017SOL    HW153058   6.410   9.129  10.916 -1.5326  0.0186  0.6200
17017SOL    HW253059   6.328   9.256  10.903  0.1051  0.9910 -0.6182
17018SOL     OW53060   9.025   6.612   3.285 -0.5219 -0.2731  0.5895
17018SOL    HW153061   9.008   6.571   3.201  3.2853 -0.1057 -0.4742
17018SOL    HW253062   9.025   6.706   3.267  1.1748 -0.2550  0.4418
17019SOL     OW53063   3.515   8.953   5.178 -0.2896 -0.4400 -0.4177
17019SOL    HW153064   3.461   9.009   5.122  0.8096  1.5190  0.3946
17019SOL    HW253065   3.602   8.956   5.138  0.0136 -0.7558  0.2053
17020SOL     OW53066   3.644   4.101   2.116  1.0044  0.2825 -0.7566
17020SOL    HW153067   3.616   4.191   2.125  0.7789  0.2364 -0.9945
17020SOL    HW253068   3.613   4.058   2.195  1.8476  0.6005 -0.2464
17021SOL     OW53069   9.107  10.435   8.263 -0.3785 -0.5165 -0.3557
17021SOL    HW153070   9.181  10.435   8.203 -1.8811 -0.7512 -2.3230
17021SOL    HW253071   9.146  10.437   8.350  1.9163 -0.9231 -1.3131
17022SOL     OW53072   3.644   4.304   5.063  0.2632  0.1200  0.4075
17022SOL    HW153073   3.651   4.211   5.082  3.3738  0.2061  0.1098
17022SOL    HW253074   3.661   4.311   4.969 -1.2210  0.9314  0.1591
17023SOL     OW53075   7.347   9.243   3.539  0.3828  0.1675  0.6587
17023SOL    HW153076   7.261   9.262   3.576  0.3202 -0.0147  0.6048
17023SOL    HW253077   7.358   9.149   3.549  1.0272  0.3351  1.6314
17024SOL     OW53078   7.428   1.195  10.867  0.0514 -0.1831  0.6226
17024SOL    HW153079   7.447   1.289  10.862  1.9007 -0.4925  0.8163
17024SOL    HW253080   7.339   1.186  10.835  0.4788  1.4399 -1.1828
17025SOL     OW53081   3.915   7.461  10.991 -0.4739  0.2545  0.3644
17025SOL    HW153082   3.950   7.417  11.069 -1.6480 -0.5565  0.4623
17025SOL    HW253083   3.878   7.390  10.938  0.9716  0.6879 -1.3386
17026SOL     OW53084   0.949   6.303   0.718 -1.0013  0.2690  0.0996
17026SOL    HW153085   0.879   6.241   0.697 -2.8013  1.8649  1.1728
17026SOL    HW253086   0.910   6.389   0.707  1.2005  1.2664 -0.5094
17027SOL     OW53087   1.688   8.495   3.937 -0.0142  0.6949  0.1086
17027SOL    HW153088   1.626   8.422   3.942 -0.2395  0.9470  1.6382
17027SOL    HW253089   1.633   8.573   3.942  0.2485  0.9746 -1.2173
17028SOL     OW53090   0.181  10.567   0.638  0.1873 -0.2435  1.1836
17028SOL    HW153091   0.268  10.531   0.656  0.5313 -0.0522 -0.0384
17028SOL    HW253092   0.126  10.490   0.627  0.8266 -0.4506 -0.9650
17029SOL     OW53093   6.510  10.920  10.964  0.0764 -0.1617  0.6339
17029SOL    HW153094   6.558  10.838  10.967  2.3318  0.9799 -1.0510
17029SOL    HW253095   6.564  10.982  11.013  0.1483  1.0370 -0.8544
17030SOL     OW53096   4.323   3.786   9.436  0.4320 -0.0843  0.2933
17030SOL    HW153097   4.328   3.786   9.531  0.1331  2.3769  0.3727
17030SOL    HW253098   4.414   3.788   9.407  0.7358 -4.2539  0.3120
17031SOL     OW53099  10.829   0.054   9.020 -0.1193  0.3138 -0.3319
17031SOL    HW153100  10.900   0.097   8.973  0.5850 -0.1728  0.2612
17031SOL    HW253101  10.827  -0.035   8.985 -0.9480  0.5398 -0.8845
17032SOL     OW53102   8.468   7.541   5.273  0.2651 -0.2002  0.8097
17032SOL    HW153103   8.530   7.565   5.341  1.3613 -2.2873  0.6221
17032SOL    HW253104   8.481   7.447   5.260 -0.4509 -0.0422 -1.7152
17033SOL     OW53105   0.573   3.888   1.270  0.0422  0.1768 -0.8699
17033SOL    HW153106   0.502   3.909   1.209  0.2727  1.2464 -0.7961
17033SOL    HW253107   0.529   3.861   1.350 -0.4081  3.0783 -0.0131
17034SOL     OW53108   9.834   8.831   1.605  0.0361  0.1626 -0.0491
17034SOL    HW153109   9.776   8.785   1.545  0.6260  1.5490 -1.7757
17034SOL    HW253110   9.916   8.783   1.602 -0.3002 -0.4774  0.6361
17035SOL     OW53111   1.805   6.748   4.888 -0.2547 -0.2249  0.3976
17035SOL    HW153112   1.892   6.746   4.848 -0.0767  0.5070  0.7208
17035SOL    HW253113   1.756   6.679   4.844 -0.0684  0.5413 -1.0659
17036SOL     OW53114   8.393   3.118   9.839 -0.1392 -0.6331  0.8686
17036SOL    HW153115   8.399   3.213   9.838  1.9566 -0.7316  0.4854
17036SOL    HW253116   8.368   3.094   9.749  1.0157 -0.5093  0.5058
17037SOL     OW53117   9.070  10.756   0.563 -0.5520  0.0205  0.3572
17037SOL    HW153118   9.065  10.747   0.658 -0.3381 -2.5164  0.2134
17037SOL    HW253119   9.068  10.665   0.531  0.7960  0.7402 -1.9853
17038SOL     OW53120   8.311   8.199   7.642 -0.5290  0.0547 -0.2261
17038SOL    HW153121   8.258   8.279   7.648 -0.8344 -0.2376  1.4405
17038SOL    HW253122   8.353   8.192   7.727 -0.7636 -1.7369 -0.2175
17039SOL     OW53123   2.605  10.475   6.829  0.0457  0.5354 -0.2213
17039SOL    HW153124   2.616  10.556   6.878 -0.2806  0.2007  0.4114
17039SOL    HW253125   2.565  10.414   6.891 -0.8084  0.2409 -1.0372
17040SOL     OW53126   1.545   3.645   9.839  0.0383 -0.2381 -0.1407
17040SOL    HW153127   1.494   3.600   9.771 -0.1282 -0.3780  0.0744
17040SOL    HW253128   1.510   3.734   9.839 -0.3390 -0.3832  0.1331
17041SOL     OW53129   1.063   3.856   3.103  0.0084  0.3342  0.1328
17041SOL    HW153130   1.156   3.841   3.122 -0.1975 -1.3169  0.0303
17041SOL    HW253131   1.052   3.824   3.013 -1.0885 -1.7628  0.9276
17042SOL     OW53132   3.948  10.865   0.495 -0.1328 -0.6381 -0.4837
17042SOL    HW153133   3.881  10.930   0.474 -0.1071 -0.6844 -0.7112
17042SOL    HW253134   4.013  10.874   0.426  0.5510  0.0261  0.2293
17043SOL     OW53135   0.586   9.890   6.186  0.3634 -0.3469  0.5932
17043SOL    HW153136   0.568   9.799   6.166 -0.8424 -0.2296  1.0439
17043SOL    HW253137   0.612   9.929   6.103 -1.8721 -0.4760 -0.2298
17044SOL     OW53138  10.805   5.554   5.814 -0.1610  0.4691 -0.2009
17044SOL    HW153139  10.752   5.587   5.887 -0.3868 -1.8354  0.7758
17044SOL    HW253140  10.770   5.599   5.737 -0.8896  1.9028  0.9157
17045SOL     OW53141   0.459   3.186   7.846  0.0823  0.4310 -0.4457
17045SOL    HW153142   0.502   3.138   7.775  0.5619  1.1514 -0.6583
17045SOL    HW253143   0.416   3.260   7.803  1.4727  1.6197  0.1385
17046SOL     OW53144   3.926  10.297  10.602  0.4168  1.2764  0.4102
17046SOL    HW153145   3.844  10.291  10.651 -0.2567 -0.3628 -0.8186
17046SOL    HW253146   3.929  10.216  10.551  1.8922  2.1655 -0.9912
17047SOL     OW53147  10.404   8.063   5.433  0.3492  0.4123  0.5506
17047SOL    HW153148  10.495   8.039   5.452  0.1561  1.0320  2.4567
17047SOL    HW253149  10.410   8.127   5.362  1.3851  0.1491  0.3949
17048SOL     OW53150   2.169   2.904   2.184 -0.0801  0.5201 -0.7558
17048SOL    HW153151   2.224   2.834   2.147  0.2016  1.0528 -1.3704
17048SOL    HW253152   2.184   2.979   2.126  2.7969  2.4085  2.1032
17049SOL     OW53153   9.148   4.258   5.988  0.6441  0.1631 -0.3888
17049SOL    HW153154   9.235   4.231   6.019  0.6608  2.1040  1.4247
17049SOL    HW253155   9.161   4.275   5.895  2.2247  0.4463 -0.1551
17050SOL     OW53156   6.031   3.974   4.084  0.8163 -1.0399 -0.3380
17050SOL    HW153157   6.119   3.969   4.047  1.2527 -0.7644  0.6318
17050SOL    HW253158   5.990   3.891   4.058  2.2477 -2.3771  1.3832
17051SOL     OW53159   0.183   4.434   6.950  0.2458 -0.2005  0.4096
17051SOL    HW153160   0.229   4.370   6.894 -0.5760  0.2160 -0.7754
17051SOL    HW253161   0.189   4.397   7.038  0.0958 -1.7377 -0.1981
17052SOL     OW53162  10.645   9.277   5.998 -0.0614  0.1296 -0.6016
17052SOL    HW153163  10.568   9.224   5.980 -0.2964  0.2538  0.0188
17052SOL    HW253164  10.649   9.282   6.094 -0.2618  1.5372 -0.6448
17053SOL     OW53165   4.334   2.515   2.816  0.0180 -0.3557 -0.1446
17053SOL    HW153166   4.306   2.592   2.765  0.6286 -0.0156  0.0256
17053SOL    HW253167   4.424   2.534   2.841  0.2893 -1.2898 -0.3887
17054SOL     OW53168   3.590   9.451   8.041 -0.4147 -0.3778 -0.3036
17054SOL    HW153169   3.585   9.392   8.116  0.6852 -0.9204 -0.6253
17054SOL    HW253170   3.499   9.465   8.015 -0.7117 -2.3880 -0.5497
17055SOL     OW53171   6.545   6.955   2.448  0.1668  0.2474 -0.7161
17055SOL    HW153172   6.471   6.922   2.498  0.9142 -0.2846  0.0656
17055SOL    HW253173   6.586   6.876   2.411  0.8585  0.4476 -0.3943
17056SOL     OW53174   9.310   5.838   6.096  0.1657 -0.0133  0.2704
17056SOL    HW153175   9.236   5.816   6.152 -0.7271  2.8271  0.3433
17056SOL    HW253176   9.321   5.932   6.106  3.0874 -0.1541 -0.6527
17057SOL     OW53177   9.798   5.112   9.376  0.0847  0.0594 -0.4119
17057SOL    HW153178   9.800   5.160   9.459  1.8291  0.5918 -0.7243
17057SOL    HW253179   9.766   5.025   9.401  0.9480  0.0848  0.9104
17058SOL     OW53180   4.489   0.231   9.917  0.0325  0.3467  0.1976
17058SOL    HW153181   4.425   0.292   9.954  1.4765  1.1858  1.4177
17058SOL    HW253182   4.476   0.150   9.967 -1.0539  0.0019 -0.5933
17059SOL     OW53183   7.977   5.813   8.590  0.0991 -0.7516  0.2763
17059SOL    HW153184   7.901   5.762   8.563  0.2173 -1.2333  0.8446
17059SOL    HW253185   8.031   5.819   8.511 -2.1237  2.6325 -1.2654
17060SOL     OW53186   6.600   7.219   5.220 -0.5899 -0.3335  0.0522
17060SOL    HW153187   6.518   7.211   5.171 -0.9599  2.7162  0.0244
17060SOL    HW253188   6.635   7.305   5.197  1.3254 -0.4742  2.0199
17061SOL     OW53189   9.868   6.208   2.722  0.3597  0.1743 -0.4068
17061SOL    HW153190   9.849   6.274   2.655 -2.0255  0.6211  0.5864
17061SOL    HW253191   9.911   6.257   2.792 -0.6792  0.5382 -0.0076
17062SOL     OW53192   6.084   4.590   8.761  0.1259  0.1647 -1.0983
17062SOL    HW153193   6.176   4.608   8.780  0.2464 -0.1225 -1.4032
17062SOL    HW253194   6.082   4.565   8.669 -0.6016  2.6173 -1.8203
17063SOL     OW53195   2.057   0.807   3.057  0.1759 -0.4531 -0.1403
17063SOL    HW153196   1.982   0.796   2.998  0.9359 -0.0607 -1.2214
17063SOL    HW253197   2.116   0.735   3.033  0.6130 -0.1255 -0.0401
17064SOL     OW53198   5.807   9.668   6.347  0.3813  0.5896 -0.2992
17064SOL    HW153199   5.719   9.651   6.313  0.3045  1.2110 -0.4126
17064SOL    HW253200   5.817   9.605   6.419 -0.3352  0.8211  0.0158
17065SOL     OW53201  10.615   7.277   4.058 -0.1755  0.0436 -0.2529
17065SOL    HW153202  10.544   7.341   4.062 -0.6753 -0.2441 -2.8540
17065SOL    HW253203  10.572   7.194   4.034  0.7141 -0.8448  1.0434
17066SOL     OW53204   9.086   5.854   0.832 -0.3118  0.0991  0.2468
17066SOL    HW153205   8.993   5.852   0.854 -0.4579 -1.2006 -0.4402
17066SOL    HW253206   9.091   5.821   0.742  0.5029  3.1528 -0.9752
17067SOL     OW53207  10.026   7.154   7.815  0.7128  0.4186 -0.5879
17067SOL    HW153208  10.005   7.247   7.807  0.3820  0.7091  2.2861
17067SOL    HW253209   9.953   7.117   7.864  1.9060 -0.8248  0.3538
17068SOL     OW53210   6.329   4.022   1.066  0.0387  0.2703  0.3346
17068SOL    HW153211   6.362   3.935   1.040 -1.8797 -0.8005  1.2978
17068SOL    HW253212   6.284   4.054   0.988  0.1492  0.1076  0.2021
17069SOL     OW53213   2.922   9.815   8.161 -0.2831  0.3373  0.1769
17069SOL    HW153214   2.892   9.891   8.211 -0.3366 -0.2107  0.9825
17069SOL    HW253215   2.863   9.744   8.185 -2.0511  0.6569 -2.7068
17070SOL     OW53216   0.043   5.903   7.745  0.0593 -0.2281  0.2884
17070SOL    HW153217   0.130   5.886   7.709  0.5269  0.3425  1.1222
17070SOL    HW253218   0.013   5.819   7.778 -0.1396 -0.6439 -0.8839
17071SOL     OW53219   9.475   5.043   9.278 -0.1537  0.2004  0.0292
17071SOL    HW153220   9.424   5.042   9.359  0.5531 -2.8885  0.5430
17071SOL    HW253221   9.513   4.956   9.272  3.2586  1.6263 -1.5185
17072SOL     OW53222   8.324   2.054   3.471 -0.3537 -0.4309 -0.3709
17072SOL    HW153223   8.254   2.119   3.469  0.4184  0.4346 -0.1523
17072SOL    HW253224   8.379   2.081   3.544  0.2404 -1.0635 -0.5740
17073SOL     OW53225   6.551   4.072   4.472 -0.1617  0.3810  0.4710
17073SOL    HW153226   6.633   4.029   4.495 -0.4500 -0.9902 -0.9000
17073SOL    HW253227   6.488   4.041   4.536 -0.3298 -1.2126 -0.4047
17074SOL     OW53228   5.532   0.048   1.418 -0.4195  0.3571  0.1751
17074SOL    HW153229   5.597  -0.009   1.377 -0.1738  0.4215  0.4654
17074SOL    HW253230   5.512   0.114   1.352 -2.2806 -1.2542 -0.9746
17075SOL     OW53231   7.652   1.836   7.061 -0.1807 -0.1945  0.3041
17075SOL    HW153232   7.642   1.747   7.094  0.6053  0.1746  1.6390
17075SOL    HW253233   7.677   1.887   7.139  1.0875  0.8595 -0.7567
17076SOL     OW53234   4.207   0.707   5.813  0.5371  0.4285 -0.4733
17076SOL    HW153235   4.140   0.679   5.875  0.9270 -1.4545 -0.8441
17076SOL    HW253236   4.162   0.768   5.754 -0.5902 -0.0650 -0.1390
17077SOL     OW53237   1.834   2.472   0.540  0.4639  0.6053 -0.1407
17077SOL    HW153238   1.926   2.473   0.512  0.5707 -0.2841  0.1455
17077SOL    HW253239   1.786   2.448   0.461  0.5577  0.2658 -0.0960
17078SOL     OW53240   9.103   1.990   8.976 -0.7257  0.0516 -0.3004
17078SOL    HW153241   9.146   1.966   8.893  1.9854  0.2485  0.9210
17078SOL    HW253242   9.085   2.083   8.967  0.3935  0.2828 -0.3810
17079SOL     OW53243   1.307   8.677   3.650  0.1216  0.0264 -0.1479
17079SOL    HW153244   1.393   8.646   3.676  0.2607  0.5802  0.0613
17079SOL    HW253245   1.324   8.744   3.584 -0.1973 -0.7332 -1.0263
17080SOL     OW53246   1.589   8.729   3.582 -0.7666 -0.2165 -0.6403
17080SOL    HW153247   1.531   8.804   3.571  0.5806  1.0985  0.6969
17080SOL    HW253248   1.660   8.744   3.519  1.1841  1.4470  1.7798
17081SOL     OW53249   3.095   4.054   9.683 -0.1986 -0.5953  0.4675
17081SOL    HW153250   3.178   4.083   9.720  0.4865  1.6621 -2.4243
17081SOL    HW253251   3.083   4.109   9.606 -2.8071 -3.0336 -1.0723
17082SOL     OW53252   0.567   2.974   9.254 -0.0678  0.2166 -0.3823
17082SOL    HW153253   0.569   2.929   9.169 -2.3144  0.4685 -0.6093
17082SOL    HW253254   0.567   2.904   9.318  0.8694  0.0099 -0.5930
17083SOL     OW53255   6.823   2.629   7.810  0.4768  0.0661  0.4275
17083SOL    HW153256   6.876   2.706   7.790 -0.1850  0.3065 -0.4463
17083SOL    HW253257   6.842   2.610   7.902  1.8594  0.3113  0.2167
17084SOL     OW53258   5.605   4.198   6.205  0.5705  0.1208  0.1776
17084SOL    HW153259   5.615   4.217   6.299 -1.1585  0.8491  0.2603
17084SOL    HW253260   5.693   4.172   6.176  1.7506  2.3348  1.4528
17085SOL     OW53261   6.086   4.598   1.878  0.0633  0.2698 -0.6339
17085SOL    HW153262   6.159   4.582   1.819  1.4073  0.4673  0.9087
17085SOL    HW253263   6.023   4.647   1.825 -0.4150 -2.5261 -2.9416
17086SOL     OW53264   6.530   7.416   3.946  0.0039 -0.3621  0.3447
17086SOL    HW153265   6.484   7.460   4.017  0.8100  4.0712 -1.5532
17086SOL    HW253266   6.621   7.410   3.975 -0.5059 -3.7326  1.7195
17087SOL     OW53267   1.502   9.908   3.422 -0.0311  0.1719 -0.6480
17087SOL    HW153268   1.477   9.863   3.342 -2.3833 -1.3044  0.8061
17087SOL    HW253269   1.434   9.973   3.437  0.6214  0.7497 -0.0680
17088SOL     OW53270   9.113   9.368   2.424  0.0005  0.5546 -0.0126
17088SOL    HW153271   9.149   9.344   2.509  0.1714 -2.7993 -0.8891
17088SOL    HW253272   9.050   9.438   2.443  0.6252  0.4628  2.7288
17089SOL     OW53273   1.304   1.441   4.622  0.2461  0.3383  0.3139
17089SOL    HW153274   1.380   1.383   4.617  0.2860  0.2440  1.5801
17089SOL    HW253275   1.300   1.466   4.715 -0.0942  1.9207 -0.1014
17090SOL     OW53276   1.923   5.571   7.231  0.1440  0.7377  0.2935
17090SOL    HW153277   1.937   5.580   7.137  1.4234 -0.0354  0.3822
17090SOL    HW253278   2.011   5.559   7.267 -0.3214  1.0211  1.5932
17091SOL     OW53279   3.103   7.939   9.698  0.0454 -0.0189 -0.3433
17091SOL    HW153280   3.100   7.859   9.646  0.3457 -0.0972 -0.2400
17091SOL    HW253281   3.069   8.007   9.640 -0.3525 -0.2477 -0.3794
17092SOL     OW53282   7.075   1.169   9.047 -0.4271 -0.2601  0.1248
17092SOL    HW153283   7.028   1.246   9.080  0.4388 -0.5005  2.0686
17092SOL    HW253284   7.009   1.100   9.044 -0.3326 -0.5741  2.7601
17093SOL     OW53285   5.666   0.236   1.834 -0.1962 -0.4023 -0.3788
17093SOL    HW153286   5.662   0.313   1.778 -1.4335 -1.2864 -1.5903
17093SOL    HW253287   5.694   0.269   1.919 -1.6746  1.5517 -0.5880
17094SOL     OW53288   1.515   2.146   1.614  0.2091  0.1354  0.0636
17094SOL    HW153289   1.547   2.233   1.638  1.8783 -0.8290  1.6403
17094SOL    HW253290   1.424   2.145   1.642  0.7982  0.6875  2.1724
17095SOL     OW53291   4.736   0.341   4.322  0.3543 -0.0937  0.6112
17095SOL    HW153292   4.830   0.320   4.325  0.2229 -0.5927  2.2035
17095SOL    HW253293   4.725   0.409   4.389 -0.6111 -0.9043  1.3061
17096SOL     OW53294   2.255   7.708   8.844 -0.2422 -0.2967 -0.2903
17096SOL    HW153295   2.266   7.638   8.779 -2.4911 -1.6227  0.6501
17096SOL    HW253296   2.300   7.675   8.921  1.3643  0.7343 -0.7442
17097SOL     OW53297  10.519   6.736   4.859 -0.3200 -0.3107  0.9375
17097SOL    HW153298  10.536   6.682   4.936  1.0425  1.3247  1.8429
17097SOL    HW253299  10.538   6.678   4.785  2.3818 -0.7632  1.8731
17098SOL     OW53300   6.885  11.090   7.535  0.2975 -0.4930  0.4438
17098SOL    HW153301   6.793  11.113   7.523  0.6018  0.1743 -0.8120
17098SOL    HW253302   6.891  11.060   7.626 -0.8117  1.1410  1.0944
17099SOL     OW53303   5.543   4.751   0.817 -0.2269  0.0079  0.1979
17099SOL    HW153304   5.560   4.778   0.908  0.8991 -3.6789  1.2573
17099SOL    HW253305   5.616   4.788   0.767 -0.3345  1.2875  0.9360
17100SOL     OW53306   8.303   3.576   0.754  0.4016 -0.4831  0.1263
17100SOL    HW153307   8.257   3.645   0.801  2.0171  0.5779  0.2264
17100SOL    HW253308   8.245   3.553   0.682 -0.1583  1.0069  0.0733
17101SOL     OW53309  10.515   7.048  10.071 -0.1185 -0.3992  0.2301
17101SOL    HW153310  10.443   7.062  10.133 -2.4352  0.7366 -2.4556
17101SOL    HW253311  10.477   7.071   9.986  1.9180 -4.4664 -2.0734
17102SOL     OW53312   5.362   5.399   1.029  0.1261 -0.3139 -0.5353
17102SOL    HW153313   5.425   5.449   1.081 -1.0733  0.4816  0.2360
17102SOL    HW253314   5.315   5.346   1.094  0.2075 -1.1284 -1.1334
17103SOL     OW53315   1.368   6.826   2.349 -0.4071 -0.3645 -0.1312
17103SOL    HW153316   1.346   6.919   2.359  0.6586 -0.2184  1.3273
17103SOL    HW253317   1.416   6.821   2.266 -0.8393  0.3099 -0.4270
17104SOL     OW53318   5.993  10.892   5.846 -0.4108 -0.0619 -0.7012
17104SOL    HW153319   5.941  10.971   5.857 -0.2742  0.0905 -1.1226
17104SOL    HW253320   6.075  10.912   5.892  1.0049  1.3880 -3.6042
17105SOL     OW53321   3.455   1.909   9.315  0.1236  0.6924 -0.0531
17105SOL    HW153322   3.540   1.953   9.306  0.5082  0.3659  1.6389
17105SOL    HW253323   3.398   1.977   9.351  0.1581  0.4029  0.5503
17106SOL     OW53324   4.523   5.077   0.868 -0.0826  0.0863  0.5738
17106SOL    HW153325   4.503   5.167   0.896  0.5026  1.1403 -2.1050
17106SOL    HW253326   4.465   5.061   0.794  0.8936 -1.1568  0.0292
17107SOL     OW53327   0.622   8.201   2.582  0.1367  0.4207 -0.1237
17107SOL    HW153328   0.562   8.189   2.656  0.1600 -2.3243 -0.4220
17107SOL    HW253329   0.707   8.217   2.622 -0.3414  2.0103  0.3373
17108SOL     OW53330   7.569   7.580  10.835 -0.3594  0.0843  0.0207
17108SOL    HW153331   7.586   7.593  10.742  2.6914 -2.4584  0.0335
17108SOL    HW253332   7.543   7.488  10.842  0.0988  0.0469  1.7041
17109SOL     OW53333   8.542   8.412   6.854 -0.1660 -0.3448 -0.2103
17109SOL    HW153334   8.550   8.325   6.893 -0.0720 -0.1837  0.1313
17109SOL    HW253335   8.585   8.404   6.769 -1.3884 -1.0111 -0.7871
17110SOL     OW53336   6.747   1.623   6.865 -0.0009  0.0062 -0.2413
17110SOL    HW153337   6.749   1.582   6.779  0.4469 -0.1121 -0.1782
17110SOL    HW253338   6.715   1.712   6.849  1.2143  0.3740 -0.6897
17111SOL     OW53339   9.374  10.563   1.840 -0.0857  0.5124  0.3139
17111SOL    HW153340   9.438  10.619   1.795  0.3827 -0.8673 -0.8223
17111SOL    HW253341   9.338  10.618   1.909  0.5249  2.1334 -0.6008
17112SOL     OW53342   0.087   1.371   4.269 -0.1303  0.6359  0.0361
17112SOL    HW153343   0.144   1.325   4.208 -0.9132  0.3901 -0.5164
17112SOL    HW253344   0.007   1.320   4.271 -1.1520  2.1362 -0.8508
17113SOL     OW53345   6.844   3.888   5.176 -0.1881 -0.4347  0.3743
17113SOL    HW153346   6.805   3.961   5.128  0.5715 -0.0854  0.2633
17113SOL    HW253347   6.832   3.812   5.119 -0.9019 -0.3824  0.4497
17114SOL     OW53348   2.903   7.660   0.245 -0.4996  0.2683 -0.2525
17114SOL    HW153349   2.921   7.754   0.233  1.6617  0.0341  0.5907
17114SOL    HW253350   2.842   7.657   0.318  1.1100  1.0104  1.2022
17115SOL     OW53351   2.803   4.700   6.091  0.0544  0.1239 -0.0305
17115SOL    HW153352   2.829   4.632   6.154  0.6931 -0.3691 -0.8074
17115SOL    HW253353   2.858   4.775   6.113  0.7270 -0.2577 -0.3980
17116SOL     OW53354   3.796   3.781   7.143 -0.3873 -0.1714  0.2017
17116SOL    HW153355   3.832   3.746   7.061 -2.5371  1.5572 -1.6450
17116SOL    HW253356   3.707   3.746   7.147 -0.3271 -0.1904  1.7927
17117SOL     OW53357   9.022  10.502   5.145 -0.7319 -0.0173 -0.1938
17117SOL    HW153358   8.978  10.574   5.190 -2.1921 -1.2895  0.4986
17117SOL    HW253359   9.096  10.480   5.202 -0.5993  0.5850 -0.1349
17118SOL     OW53360   3.364   9.032   4.317  0.6929  0.9356  0.7121
17118SOL    HW153361   3.428   9.099   4.340  0.1578  1.1077  1.7351
17118SOL    HW253362   3.396   8.953   4.358  1.4073  0.4883 -0.6250
17119SOL     OW53363   3.668   1.269  10.160  0.2268  0.2193 -0.0306
17119SOL    HW153364   3.635   1.179  10.161  0.4932  0.0711 -1.9226
17119SOL    HW253365   3.632   1.308  10.240 -1.2487 -1.0753 -0.0173
17120SOL     OW53366  10.299   4.890   6.018 -1.0949 -0.2218 -0.4909
17120SOL    HW153367  10.321   4.979   5.989  0.1299 -0.6593 -0.9831
17120SOL    HW253368  10.362   4.872   6.089 -1.7161 -0.4924  0.0041
17121SOL     OW53369   6.085   1.845   2.351  0.2711  0.3915 -1.4320
17121SOL    HW153370   6.092   1.922   2.294 -0.8777  1.9062  0.3796
17121SOL    HW253371   6.007   1.799   2.318 -1.7362  2.4366  0.1105
17122SOL     OW53372   9.406   5.199   4.666  0.1446  0.7137  1.0460
17122SOL    HW153373   9.485   5.246   4.639 -0.3076  1.0258  0.2213
17122SOL    HW253374   9.393   5.225   4.758  1.0624  0.5557  1.2258
17123SOL     OW53375   7.924   7.386   2.737 -0.0652  0.1206 -0.5568
17123SOL    HW153376   7.889   7.473   2.756 -2.2451 -1.0102  0.9259
17123SOL    HW253377   8.015   7.391   2.766 -1.0032  1.0031  2.6691
17124SOL     OW53378   0.892   9.013   9.362 -0.0285  0.6067 -0.0362
17124SOL    HW153379   0.947   9.067   9.305 -0.8097  0.0058 -1.4195
17124SOL    HW253380   0.903   9.051   9.449  2.8094  0.2991 -0.1706
17125SOL     OW53381   5.963   9.757   7.406 -0.6533  0.1764 -0.2514
17125SOL    HW153382   5.928   9.796   7.325  2.0530  0.5219 -1.3615
17125SOL    HW253383   6.031   9.696   7.375  1.4469  1.3463  1.7557
17126SOL     OW53384   2.762   5.526   3.067  0.9161 -0.2204  0.2755
17126SOL    HW153385   2.668   5.527   3.082  1.1573  0.1104  1.8913
17126SOL    HW253386   2.771   5.504   2.974 -0.7426 -0.1933  0.0821
17127SOL     OW53387  10.379   7.126   7.017 -0.3100 -0.0666  0.5257
17127SOL    HW153388  10.380   7.112   7.111  2.9228 -0.0080  0.6268
17127SOL    HW253389  10.392   7.039   6.979  0.1112  0.1102  0.2477
17128SOL     OW53390   4.261   7.780   6.272  0.6129 -0.5196  0.7296
17128SOL    HW153391   4.300   7.700   6.308 -1.1717 -1.8482 -0.0968
17128SOL    HW253392   4.246   7.759   6.180  0.0845  0.7730  0.5071
17129SOL     OW53393   9.961   3.139   3.488  0.0356  0.1122  0.1202
17129SOL    HW153394  10.052   3.114   3.472 -0.3691 -1.4407  0.1001
17129SOL    HW253395   9.933   3.082   3.559 -1.4683 -0.7336 -1.1018
17130SOL     OW53396   7.492   3.960  10.800 -0.1919  0.4814 -0.0992
17130SOL    HW153397   7.480   3.987  10.708  0.3609  1.4979  0.1110
17130SOL    HW253398   7.537   3.876  10.795  1.6068  1.4427 -0.7527
17131SOL     OW53399   0.431   2.733   8.648 -0.2579 -0.2302 -0.4098
17131SOL    HW153400   0.465   2.697   8.566  2.2376 -0.7272  0.7406
17131SOL    HW253401   0.505   2.728   8.709 -2.3695 -1.1302  2.2781
17132SOL     OW53402   0.827   9.641   8.084 -0.0172 -0.4217 -0.1631
17132SOL    HW153403   0.858   9.675   8.000 -0.4093  2.3601  0.7091
17132SOL    HW253404   0.805   9.720   8.135  0.6263 -1.9833  2.7216
17133SOL     OW53405   1.677   3.763   5.268  0.0700 -0.5716  0.5073
17133SOL    HW153406   1.664   3.828   5.199 -1.1557  0.0503  1.3048
17133SOL    HW253407   1.762   3.786   5.306  0.4142 -0.4745 -0.2879
17134SOL     OW53408   6.057   7.469   8.682 -0.4745  0.2686  0.4942
17134SOL    HW153409   6.090   7.389   8.640  0.1362  1.1864 -0.8235
17134SOL    HW253410   6.093   7.540   8.630 -0.1275  1.4606  2.2600
17135SOL     OW53411   7.840   5.559   3.389 -0.5769  0.7014 -0.4826
17135SOL    HW153412   7.760   5.607   3.366 -1.7319 -0.7017  0.4293
17135SOL    HW253413   7.841   5.558   3.485  0.4423  0.5212 -0.4812
17136SOL     OW53414   3.291   5.678   9.234 -0.6701 -0.3428 -0.1063
17136SOL    HW153415   3.250   5.663   9.319 -0.4686 -0.4007 -0.0182
17136SOL    HW253416   3.286   5.594   9.190  2.9935 -1.5898  1.4699
17137SOL     OW53417   8.991   0.682   9.434 -0.9715  0.4784  0.3463
17137SOL    HW153418   9.041   0.620   9.488 -0.8338  2.0994  2.2178
17137SOL    HW253419   9.049   0.758   9.426 -2.2141  1.4692  0.5306
17138SOL     OW53420   3.815   9.631   7.157  0.5231  0.2471 -0.4204
17138SOL    HW153421   3.793   9.556   7.101  1.5913  0.2597 -0.8920
17138SOL    HW253422   3.752   9.699   7.131 -0.8364 -0.6433  0.4248
17139SOL     OW53423  10.794   3.192   2.943  0.9317 -0.1955  0.9408
17139SOL    HW153424  10.753   3.227   3.023  0.6851 -1.4408  1.3807
17139SOL    HW253425  10.879   3.236   2.939 -0.4230  2.5657 -0.0704
17140SOL     OW53426   7.748   7.309   5.074 -0.1688  0.4131 -0.0062
17140SOL    HW153427   7.672   7.365   5.059 -0.7441  0.1368  1.6941
17140SOL    HW253428   7.724   7.226   5.031  0.3647  1.1516 -1.8466
17141SOL     OW53429   5.287  10.776   9.143 -0.6475  0.4373 -0.2258
17141SOL    HW153430   5.215  10.735   9.094  0.0218  0.6193 -1.3991
17141SOL    HW253431   5.297  10.862   9.103 -0.4309  0.8118  0.6089
17142SOL     OW53432  10.943   8.321   6.610  0.0629 -0.1599 -0.3400
17142SOL    HW153433  10.888   8.350   6.683 -1.1421  0.3760 -1.4207
17142SOL    HW253434  11.020   8.378   6.613  0.2863 -0.5066  0.8234
17143SOL     OW53435   7.516   9.494   4.995  0.1222  0.1356 -0.3721
17143SOL    HW153436   7.540   9.586   4.986  2.3511 -0.2051  1.2621
17143SOL    HW253437   7.451   9.493   5.066  1.4725  0.3360  0.9267
17144SOL     OW53438   9.870   0.729   5.702  0.6618 -0.4090 -0.3592
17144SOL    HW153439   9.834   0.805   5.655  1.3298 -0.6207 -1.2334
17144SOL    HW253440   9.848   0.654   5.648 -1.1002 -1.0274  1.1266
17145SOL     OW53441   0.758   4.464   9.410 -0.1042  0.7154 -0.3611
17145SOL    HW153442   0.783   4.379   9.374 -0.2337  0.7541 -0.5486
17145SOL    HW253443   0.690   4.496   9.350  0.4681  1.2824 -0.7161
17146SOL     OW53444   7.942   7.955  10.558  0.4850 -0.0246 -0.2362
17146SOL    HW153445   7.989   7.871  10.560  0.2747 -0.1576 -0.7478
17146SOL    HW253446   7.964   7.997  10.641 -0.5053 -1.1827  0.6457
17147SOL     OW53447   3.524   1.731   3.260  0.3473 -0.3173  0.7123
17147SOL    HW153448   3.486   1.761   3.342 -1.1435  1.3856 -0.5374
17147SOL    HW253449   3.547   1.639   3.276  0.1912  0.0069  3.0321
17148SOL     OW53450   4.116   3.968   8.463  0.3527 -0.7377 -0.1818
17148SOL    HW153451   4.142   3.882   8.496 -1.5061 -2.4827 -2.8349
17148SOL    HW253452   4.184   3.991   8.400 -0.0674 -1.1476 -0.7904
17149SOL     OW53453   1.155   8.984  10.710 -0.1095 -0.4179 -1.0047
17149SOL    HW153454   1.209   8.945  10.641 -0.4290 -1.3349 -0.7467
17149SOL    HW253455   1.171   8.930  10.787  0.6617  0.9280 -0.1935
17150SOL     OW53456   6.672   4.733   0.283 -0.1221  0.2567 -0.5149
17150SOL    HW153457   6.757   4.714   0.322  0.0416 -0.5459 -1.2378
17150SOL    HW253458   6.611   4.673   0.326  0.1737 -1.0945 -1.9120
17151SOL     OW53459   6.461   0.505   2.738 -0.5150  0.1297  0.0457
17151SOL    HW153460   6.481   0.457   2.657  0.8964 -0.9233  0.9728
17151SOL    HW253461   6.395   0.451   2.782 -1.0470  0.5375 -0.2450
17152SOL     OW53462   2.250   8.453   5.483  0.5542 -0.0983 -0.0898
17152SOL    HW153463   2.310   8.425   5.414  0.8326  1.4919 -0.5333
17152SOL    HW253464   2.181   8.387   5.482  1.7230 -1.3633 -0.3051
17153SOL     OW53465   1.744   5.745   7.705  0.4078 -0.0779 -0.0622
17153SOL    HW153466   1.761   5.805   7.632 -0.9536  0.8236  0.3247
17153SOL    HW253467   1.685   5.679   7.670 -1.2614  1.0620  0.4996
17154SOL     OW53468   0.049   1.533   6.435 -0.4602  0.6339 -0.1122
17154SOL    HW153469   0.104   1.458   6.412 -1.1380 -0.6447  2.1493
17154SOL    HW253470  -0.036   1.513   6.397 -0.6404  0.2170  0.4884
17155SOL     OW53471  10.178   1.452   8.737 -0.0824  0.0362  0.1614
17155SOL    HW153472  10.263   1.410   8.746  1.2224  2.2008 -1.1338
17155SOL    HW253473  10.137   1.408   8.663  0.1840 -0.5741  0.3686
17156SOL     OW53474   4.376   3.610   7.209  0.3625  0.0205  0.3074
17156SOL    HW153475   4.390   3.527   7.254  1.4871  0.8347  1.5467
17156SOL    HW253476   4.388   3.676   7.277  0.3122  1.2326 -0.8259
17157SOL     OW53477   4.726   8.624   7.357  0.7635  0.1637  0.1518
17157SOL    HW153478   4.690   8.554   7.304 -0.7049  0.6371  0.4897
17157SOL    HW253479   4.676   8.622   7.438  0.6899  1.5849  0.1765
17158SOL     OW53480  10.453   6.329   9.686  0.0338 -0.3379  0.1288
17158SOL    HW153481  10.500   6.396   9.735 -0.3068  1.1502 -1.4753
17158SOL    HW253482  10.483   6.247   9.724 -0.9375  0.6817  3.4587
17159SOL     OW53483   8.652   2.179   9.797 -0.2518  0.2471 -0.1253
17159SOL    HW153484   8.738   2.221   9.796 -0.5684  0.9579 -1.8996
17159SOL    HW253485   8.602   2.225   9.730 -1.4539 -1.2978 -0.3618
17160SOL     OW53486   8.131   4.916   9.820  0.0762 -0.2801  0.5120
17160SOL    HW153487   8.051   4.890   9.867 -0.8320 -0.8592 -1.2545
17160SOL    HW253488   8.158   4.836   9.775  1.8553 -0.1637  1.3069
17161SOL     OW53489   2.904   3.722   7.096 -0.5464 -0.0606 -0.3838
17161SOL    HW153490   2.969   3.655   7.074 -0.8829 -0.0408 -1.5045
17161SOL    HW253491   2.824   3.693   7.052 -0.7307  1.0110 -0.7941
17162SOL     OW53492   7.837   6.150   1.983  0.4198  0.2206 -0.4139
17162SOL    HW153493   7.756   6.187   2.018  0.9849  0.1778  1.0025
17162SOL    HW253494   7.808   6.092   1.913 -0.7752  0.2409  0.0300
17163SOL     OW53495   2.554   8.990   0.914  0.4014 -0.0320  0.1661
17163SOL    HW153496   2.549   8.934   0.837 -2.7397  1.3823 -0.8049
17163SOL    HW253497   2.561   9.079   0.879 -1.8031  0.7000  1.3957
17164SOL     OW53498  10.477   2.215   2.410 -0.9241  0.5706  0.3142
17164SOL    HW153499  10.420   2.228   2.486 -0.1334 -0.5850  1.1350
17164SOL    HW253500  10.456   2.288   2.352 -3.2228  0.2153  0.5820
17165SOL     OW53501   8.275   1.737   9.617  0.1437 -0.0011  0.8453
17165SOL    HW153502   8.326   1.656   9.616  1.6412  0.8677 -0.8711
17165SOL    HW253503   8.333   1.801   9.659  0.3125  0.8930 -0.6765
17166SOL     OW53504  10.184   5.871   0.612 -0.2677  0.4709  0.1397
17166SOL    HW153505  10.109   5.814   0.592  0.6852 -0.6467 -0.4093
17166SOL    HW253506  10.149   5.960   0.605 -1.4554 -0.0150 -0.4504
17167SOL     OW53507   8.655   0.176   1.620  0.5689  0.7170 -0.4162
17167SOL    HW153508   8.596   0.189   1.546 -1.5290  0.6588  1.1621
17167SOL    HW253509   8.601   0.194   1.697  2.2100 -0.8375  1.1826
17168SOL     OW53510   1.582   3.974   4.818 -0.4238 -0.5306  0.3151
17168SOL    HW153511   1.601   4.068   4.813 -0.2537 -0.6043 -0.8505
17168SOL    HW253512   1.668   3.932   4.824 -0.3717 -0.6766 -1.0291
17169SOL     OW53513   5.201   8.299   8.181  0.4419 -0.5177  0.2586
17169SOL    HW153514   5.237   8.234   8.242  0.7842 -0.3226  0.2641
17169SOL    HW253515   5.259   8.374   8.189 -0.3489  0.0500  0.7645
17170SOL     OW53516   3.052   7.012   6.408  0.2537 -0.2019 -0.7076
17170SOL    HW153517   3.124   6.950   6.393  0.8866 -0.1250  1.5722
17170SOL    HW253518   2.985   6.960   6.453 -0.3598  0.1491 -1.2057
17171SOL     OW53519  10.116   7.683   9.769 -0.2864 -0.0094  1.3282
17171SOL    HW153520  10.091   7.765   9.812 -1.8391  0.4333 -0.2936
17171SOL    HW253521  10.036   7.653   9.725  1.7876  1.5489 -4.4009
17172SOL     OW53522   9.156   7.174   0.745 -0.3219 -0.4242 -0.0811
17172SOL    HW153523   9.111   7.169   0.829  1.1814  2.0886  0.9811
17172SOL    HW253524   9.207   7.093   0.740 -0.6070 -0.7140  1.3140
17173SOL     OW53525   3.083   0.968  10.989 -1.0763 -0.1845 -0.6478
17173SOL    HW153526   3.177   0.961  10.969 -1.1907  0.4997 -1.4797
17173SOL    HW253527   3.059   0.881  11.021 -0.3789 -0.6639 -1.3929
17174SOL     OW53528   0.642   5.475   4.226  0.1945  0.0625 -0.4395
17174SOL    HW153529   0.642   5.570   4.234  1.7500  0.2170 -1.7056
17174SOL    HW253530   0.597   5.444   4.305  0.4981  1.8005  0.4678
17175SOL     OW53531   4.283   4.775   2.976 -0.3386  0.1632 -0.2770
17175SOL    HW153532   4.282   4.687   3.015 -1.3021 -0.1009 -0.8836
17175SOL    HW253533   4.192   4.803   2.978 -0.0123  1.2515  0.0980
17176SOL     OW53534   6.830   8.300   9.508  0.4309  0.1226  0.2763
17176SOL    HW153535   6.813   8.219   9.458  1.0533  1.7519 -2.8292
17176SOL    HW253536   6.922   8.292   9.533  0.5533 -0.0617 -0.2036
17177SOL     OW53537   4.092   7.918   1.991 -0.1894 -0.3593 -0.0274
17177SOL    HW153538   4.135   7.951   1.912  0.4713  0.0414  0.4883
17177SOL    HW253539   4.025   7.858   1.959 -1.0050  0.9913 -0.9720
17178SOL     OW53540   6.458   3.797   0.998 -0.0818  0.5267  0.1964
17178SOL    HW153541   6.525   3.838   1.053  0.2798 -0.2471  0.3531
17178SOL    HW253542   6.506   3.735   0.943 -0.5760  0.5203 -0.2401
17179SOL     OW53543   2.760   3.235   0.095  0.2728  0.4240  0.8064
17179SOL    HW153544   2.802   3.237   0.182  0.4520  1.1513  0.7118
17179SOL    HW253545   2.684   3.293   0.104 -0.6063 -0.7207  0.9134
17180SOL     OW53546  10.529   1.576   2.205 -0.4136 -0.1796  0.3740
17180SOL    HW153547  10.476   1.651   2.180 -3.4792 -1.9178  1.1726
17180SOL    HW253548  10.522   1.571   2.300  2.2370  0.1411  0.6764
17181SOL     OW53549   8.417   0.986   2.349  0.9275  0.3597  0.5428
17181SOL    HW153550   8.460   1.019   2.428  0.7068  1.5279  0.1845
17181SOL    HW253551   8.338   0.942   2.382  0.9371  0.6678  0.9875
17182SOL     OW53552   7.451   5.994   8.105  0.0737 -0.6376 -0.3243
17182SOL    HW153553   7.395   6.053   8.155 -0.4209 -0.3362 -1.2116
17182SOL    HW253554   7.455   5.914   8.157 -0.9724 -0.5706 -0.1298
17183SOL     OW53555   2.998  10.978   9.886 -0.4083 -0.1612 -0.6571
17183SOL    HW153556   2.967  10.897   9.926 -1.0254  0.9671  1.2850
17183SOL    HW253557   3.094  10.969   9.885 -0.4420 -0.6804  0.0741
17184SOL     OW53558   0.684   0.918  10.421 -0.4092 -0.2322 -0.2538
17184SOL    HW153559   0.684   0.951  10.331  0.2026 -1.5982 -0.7768
17184SOL    HW253560   0.691   0.997  10.474  0.0581  0.5597 -1.4331
17185SOL     OW53561   0.942   0.342   5.837  0.4792 -0.3545 -0.7379
17185SOL    HW153562   0.872   0.277   5.827 -1.2551  1.4067 -0.8076
17185SOL    HW253563   1.013   0.311   5.781 -1.2304 -0.9369 -2.7055
17186SOL     OW53564   9.433   0.395   6.206  0.6660  0.4915  0.2774
17186SOL    HW153565   9.373   0.424   6.137 -0.2316 -1.8837 -0.0492
17186SOL    HW253566   9.520   0.417   6.174  0.2349 -0.2116 -1.4544
17187SOL     OW53567   8.451   0.689   5.242 -0.7020 -0.8564  0.0532
17187SOL    HW153568   8.402   0.681   5.324  0.2712 -0.8192  0.6589
17187SOL    HW253569   8.462   0.783   5.229  0.4389 -0.8833  0.6962
17188SOL     OW53570   1.547   1.692   9.450  0.2328  0.7890 -0.1237
17188SOL    HW153571   1.576   1.653   9.367 -1.1600 -0.5889 -0.0072
17188SOL    HW253572   1.560   1.787   9.437  0.2373  0.5931 -1.8442
17189SOL     OW53573   1.922   7.350   6.188  0.3872  0.0886 -0.5029
17189SOL    HW153574   1.856   7.366   6.255  0.9624 -0.8399  0.2919
17189SOL    HW253575   1.878   7.294   6.123  0.4593 -0.7109  0.1342
17190SOL     OW53576   1.766  10.790   6.430  0.0328 -0.0059  0.1286
17190SOL    HW153577   1.773  10.819   6.521 -1.3197  1.6446 -0.2353
17190SOL    HW253578   1.827  10.847   6.382 -1.6240  1.4120 -0.4017
17191SOL     OW53579   6.768   7.922   8.328 -0.6337  0.5043  0.0653
17191SOL    HW153580   6.729   7.892   8.410  0.6306 -0.7137  0.2617
17191SOL    HW253581   6.805   8.007   8.348 -0.1883  0.1406  0.8127
17192SOL     OW53582   7.756   3.438   3.849  0.2590 -0.1496  0.4502
17192SOL    HW153583   7.677   3.492   3.855 -0.6183 -0.9793 -2.2496
17192SOL    HW253584   7.745   3.372   3.918 -1.2218  0.0169  0.4063
17193SOL     OW53585   5.757  10.271   4.036  0.1763 -0.4644 -0.0352
17193SOL    HW153586   5.810  10.303   3.963  1.7803 -1.8443  0.4684
17193SOL    HW253587   5.691  10.216   3.995  0.8994 -1.0170 -0.4728
17194SOL     OW53588   1.830   9.595   8.808  0.2501  0.0467  0.7961
17194SOL    HW153589   1.845   9.540   8.732 -4.4020 -0.8777  0.2410
17194SOL    HW253590   1.823   9.534   8.882 -1.7830  0.1298  0.7259
17195SOL     OW53591   7.584   1.580   4.652 -1.0675  0.8009 -0.4957
17195SOL    HW153592   7.640   1.649   4.688  1.1455  0.0820 -2.3016
17195SOL    HW253593   7.578   1.601   4.559 -2.6909  0.0392 -0.5981
17196SOL     OW53594  10.829   3.412   3.127  0.2308  0.0701  0.3463
17196SOL    HW153595  10.913   3.457   3.143 -0.5322  1.1318  1.5798
17196SOL    HW253596  10.763   3.479   3.144 -0.8846 -0.6827 -0.8806
17197SOL     OW53597   5.188   6.161   0.762  0.4908  0.1701  0.3817
17197SOL    HW153598   5.135   6.115   0.698  1.4102  0.1004 -0.3566
17197SOL    HW253599   5.229   6.092   0.814 -0.2316  0.2258  1.0330
17198SOL     OW53600   9.795   0.001   5.117  0.5263 -0.1396 -0.4499
17198SOL    HW153601   9.748  -0.016   5.199  0.2933 -0.3493 -0.6263
17198SOL    HW253602   9.773  -0.074   5.061  2.8011 -1.4140  0.2108
17199SOL     OW53603   3.323   7.150   0.819  0.5053  0.3223  0.0493
17199SOL    HW153604   3.306   7.087   0.888  0.3887  2.2907  1.9303
17199SOL    HW253605   3.280   7.114   0.742  1.2864 -2.3258  0.7563
17200SOL     OW53606   7.472   4.290  10.824 -0.2938 -0.0977  0.2543
17200SOL    HW153607   7.512   4.375  10.845 -1.1534 -0.1892  2.6448
17200SOL    HW253608   7.501   4.233  10.895 -0.6130 -1.5095 -0.7286
17201SOL     OW53609   9.262   3.473   3.231 -0.5117 -0.0738 -0.0902
17201SOL    HW153610   9.223   3.529   3.164 -2.0206 -1.9598 -0.8975
17201SOL    HW253611   9.255   3.524   3.312 -1.6394  0.9813 -0.8236
17202SOL     OW53612   9.342   4.986   8.138 -0.2844  0.4499 -0.2051
17202SOL    HW153613   9.405   5.057   8.153 -1.4246  1.4360  0.0679
17202SOL    HW253614   9.293   4.980   8.219  0.5843 -1.5260  0.2281
17203SOL     OW53615   9.639   5.622   6.265 -0.2348 -0.6112  0.4539
17203SOL    HW153616   9.640   5.630   6.170 -1.5794 -0.2365  0.4494
17203SOL    HW253617   9.659   5.530   6.282 -0.6757 -0.8425 -0.2344
17204SOL     OW53618  10.599   7.515   1.606 -0.5977 -0.0365 -0.1546
17204SOL    HW153619  10.613   7.559   1.522 -0.5035 -2.2951 -1.3934
17204SOL    HW253620  10.515   7.549   1.637 -0.0042  1.8149 -0.4631
17205SOL     OW53621   6.567   8.451  10.832  0.5966  0.2543 -0.0859
17205SOL    HW153622   6.579   8.358  10.850 -0.1169 -0.2072 -1.7491
17205SOL    HW253623   6.473   8.460  10.817  0.8684  0.8669 -1.6525
17206SOL     OW53624   9.529   5.915   5.170  0.0913 -0.3546 -0.3881
17206SOL    HW153625   9.442   5.953   5.161 -0.4743 -1.0309  1.7412
17206SOL    HW253626   9.551   5.924   5.263  1.8289 -1.1939 -0.6589
17207SOL     OW53627  10.498   9.031   6.503  0.0276 -0.2778  0.0759
17207SOL    HW153628  10.419   9.070   6.466  0.3844 -0.0926 -0.4974
17207SOL    HW253629  10.522   8.961   6.443 -0.7755 -1.6234  1.2536
17208SOL     OW53630   0.263   8.604   6.690  1.0271  0.3034  0.8388
17208SOL    HW153631   0.293   8.614   6.600 -0.8914  0.1914  0.1442
17208SOL    HW253632   0.280   8.512   6.711 -1.0041 -0.4455 -0.4470
17209SOL     OW53633   6.331   6.228   7.637 -0.1786 -0.5748  0.5003
17209SOL    HW153634   6.364   6.156   7.583 -2.0789 -2.3294  1.5800
17209SOL    HW253635   6.392   6.300   7.618  1.8128 -2.4078 -0.6273
17210SOL     OW53636   9.979   1.780   3.418  0.3075 -0.6052 -0.1446
17210SOL    HW153637  10.057   1.728   3.398 -0.3560 -2.4105  1.6865
17210SOL    HW253638   9.970   1.838   3.342  2.6432 -1.2630 -1.0230
17211SOL     OW53639   3.134   3.983   5.952 -0.0350 -0.1186  0.4287
17211SOL    HW153640   3.049   3.960   5.988 -1.3360 -0.5064 -2.5564
17211SOL    HW253641   3.145   4.076   5.973 -1.2904 -0.0146  0.6974
17212SOL     OW53642  10.310  10.962   0.172  0.1865  0.0868 -0.1361
17212SOL    HW153643  10.339  10.876   0.203 -0.1208 -1.0415 -2.6947
17212SOL    HW253644  10.383  11.020   0.192  0.4777 -0.7762  1.5034
17213SOL     OW53645   1.922   4.629   0.531  0.6431  0.2244 -0.2924
17213SOL    HW153646   1.994   4.692   0.545  0.6482 -0.0642  1.1406
17213SOL    HW253647   1.943   4.556   0.589 -0.9926  0.3040  0.4701
17214SOL     OW53648   5.006  10.913   6.649  0.4734  0.6289  0.0064
17214SOL    HW153649   5.054  10.976   6.703  0.3570 -0.2131  1.1203
17214SOL    HW253650   4.938  10.879   6.707 -1.1637  1.4006 -1.3740
17215SOL     OW53651   0.058   7.290   6.167 -0.2790 -0.0303 -0.2780
17215SOL    HW153652   0.144   7.249   6.170  0.2486  0.9352 -1.5272
17215SOL    HW253653   0.051   7.327   6.079 -1.7465  0.3863 -0.0217
17216SOL     OW53654   6.776  10.979   0.204  0.2221 -0.2887 -0.3008
17216SOL    HW153655   6.848  11.025   0.247 -1.0722 -0.3303  2.0198
17216SOL    HW253656   6.803  10.887   0.203  1.9322  0.1009 -3.1835
17217SOL     OW53657   2.332   9.760   8.326  0.1845  0.4175  0.2470
17217SOL    HW153658   2.342   9.668   8.301  0.0076  0.7471 -1.0909
17217SOL    HW253659   2.413   9.782   8.371  0.2399 -0.3813  0.5543
17218SOL     OW53660   9.705   0.096   9.340 -0.5526  0.0351 -0.7280
17218SOL    HW153661   9.618   0.130   9.365 -1.6158 -2.0777 -1.3292
17218SOL    HW253662   9.763   0.129   9.408 -1.8162  1.4727 -0.2673
17219SOL     OW53663   8.775   2.683   5.481 -0.2688 -0.1772  1.0501
17219SOL    HW153664   8.762   2.605   5.426  0.2659  1.6295 -1.8058
17219SOL    HW253665   8.868   2.682   5.502 -0.3250 -0.4546  1.3020
17220SOL     OW53666   8.126   3.022   5.532 -0.1367  0.3666 -0.1057
17220SOL    HW153667   8.109   3.097   5.588  0.2560  2.0887 -2.1636
17220SOL    HW253668   8.132   3.058   5.443  0.8304 -1.9805 -1.1031
17221SOL     OW53669   9.514   6.775   5.148 -0.1077  0.6201  0.1139
17221SOL    HW153670   9.510   6.863   5.184 -1.0043  0.9234 -0.6897
17221SOL    HW253671   9.493   6.786   5.055  0.2824 -0.3758 -0.1041
17222SOL     OW53672   9.877   9.518   1.512  0.2353 -0.1160 -0.0574
17222SOL    HW153673   9.808   9.559   1.564 -0.1655  0.3691 -0.9321
17222SOL    HW253674   9.830   9.461   1.451  0.6546 -0.2684 -0.2403
17223SOL     OW53675   3.889   4.585   1.368 -0.5860 -0.6762 -0.6140
17223SOL    HW153676   3.870   4.516   1.432 -0.0871 -0.9645 -0.7680
17223SOL    HW253677   3.811   4.640   1.368 -0.5632 -0.6377  0.2912
17224SOL     OW53678   5.144   2.889   9.926  0.9139 -0.0758  0.5521
17224SOL    HW153679   5.207   2.930   9.866  0.3139  0.3572  0.2094
17224SOL    HW253680   5.127   2.956   9.992 -1.6047  1.0830 -1.1051
17225SOL     OW53681   8.833   8.737   7.684  0.6287 -0.1061 -0.0514
17225SOL    HW153682   8.881   8.715   7.604 -1.2655  0.6595 -1.4716
17225SOL    HW253683   8.886   8.701   7.755  3.9068  1.7283 -1.3819
17226SOL     OW53684   6.709   0.392   2.431  0.4327  0.7446 -0.4617
17226SOL    HW153685   6.698   0.328   2.502 -1.3154  0.2115 -1.1479
17226SOL    HW253686   6.765   0.460   2.468 -0.6038  0.5919  1.5165
17227SOL     OW53687   1.422   3.287   6.139 -0.3728 -0.5051 -0.0136
17227SOL    HW153688   1.413   3.373   6.098 -0.5676 -0.0408  0.9723
17227SOL    HW253689   1.361   3.289   6.213  0.3522 -1.1209  0.6247
17228SOL     OW53690   3.845   3.294   4.599 -0.1543 -0.1891 -0.4342
17228SOL    HW153691   3.920   3.235   4.611 -1.7651 -2.1103  0.9126
17228SOL    HW253692   3.782   3.243   4.549 -1.1072  0.8762 -0.3618
17229SOL     OW53693   9.410   7.802   6.253 -0.5075 -0.6541 -0.1005
17229SOL    HW153694   9.401   7.786   6.159 -1.3287  0.1720 -0.1846
17229SOL    HW253695   9.420   7.897   6.259 -0.0888 -0.7426  0.6270
17230SOL     OW53696   6.365  10.968   7.419  0.1096 -0.4865  0.0123
17230SOL    HW153697   6.272  10.989   7.408  0.3186  0.9141  0.6954
17230SOL    HW253698   6.396  10.951   7.330 -0.8471 -1.2311 -0.1934
17231SOL     OW53699   6.260   1.766   8.747 -0.2248  0.0838  0.1967
17231SOL    HW153700   6.277   1.674   8.768 -0.8820 -0.3087 -0.9471
17231SOL    HW253701   6.289   1.814   8.825 -0.6904 -1.1536  1.1563
17232SOL     OW53702   1.051   1.689   8.546 -0.1925  0.5493  0.5080
17232SOL    HW153703   1.141   1.708   8.520 -0.8889  1.1430 -1.6665
17232SOL    HW253704   0.997   1.747   8.492 -1.9322 -0.5224  0.9981
17233SOL     OW53705   6.956   3.177   6.415  0.4294  0.1735  0.1716
17233SOL    HW153706   7.005   3.095   6.428  0.3549  0.0693 -0.1885
17233SOL    HW253707   6.924   3.171   6.325 -0.6913 -0.0008  0.5623
17234SOL     OW53708   0.743   7.921  10.007  0.1526 -0.1865  0.3456
17234SOL    HW153709   0.833   7.949   9.991 -0.2826 -0.0506 -2.3771
17234SOL    HW253710   0.693   7.956   9.933 -2.0499 -0.7730  1.4440
17235SOL     OW53711   7.578   1.777  10.720  0.6806  0.1625 -0.0868
17235SOL    HW153712   7.533   1.719  10.657 -0.6719  2.1187 -1.0302
17235SOL    HW253713   7.618   1.717  10.783 -0.1712 -1.8127 -1.3137
17236SOL     OW53714  11.082   6.730   6.995  0.2100  0.2414  0.4219
17236SOL    HW153715  11.146   6.773   7.053  2.3176  0.9398 -2.1931
17236SOL    HW253716  11.127   6.726   6.910 -1.9953 -2.3700 -0.7437
17237SOL     OW53717   7.882   4.542   8.812  0.4623  0.0906  0.0666
17237SOL    HW153718   7.958   4.486   8.794  3.0426  2.3190  2.8215
17237SOL    HW253719   7.849   4.511   8.896  1.0599  1.6468  0.9403
17238SOL     OW53720   6.349   9.747   8.050 -0.1921 -0.4812 -0.3043
17238SOL    HW153721   6.330   9.738   7.957  0.8168 -4.4019 -0.3134
17238SOL    HW253722   6.263   9.753   8.092 -0.7312 -0.6179 -1.3556
17239SOL     OW53723  10.369   7.215   8.540  0.7440 -0.5660 -0.2454
17239SOL    HW153724  10.383   7.301   8.502  0.0300 -1.1062 -1.8408
17239SOL    HW253725  10.281   7.219   8.578  0.3093 -0.8353 -1.1686
17240SOL     OW53726   0.077   3.867   8.632  0.2579  0.2544 -0.1921
17240SOL    HW153727   0.123   3.825   8.559 -0.5104  2.8448 -2.3125
17240SOL    HW253728   0.129   3.945   8.651  0.7514 -0.6136  2.5285
17241SOL     OW53729   4.514   8.689   7.565 -0.4194 -0.0046 -0.1948
17241SOL    HW153730   4.423   8.717   7.578 -1.4910 -3.1896  0.1505
17241SOL    HW253731   4.566   8.755   7.610 -2.4036  2.6102 -1.4451
17242SOL     OW53732  10.489   8.549   7.806  0.2698  0.7360  0.3409
17242SOL    HW153733  10.399   8.568   7.832  0.9072  2.3586  1.5497
17242SOL    HW253734  10.541   8.569   7.884  1.6677 -0.3820 -0.2590
17243SOL     OW53735   4.047   5.570   3.227 -0.1236 -0.5654 -0.0738
17243SOL    HW153736   4.118   5.562   3.163  0.4805 -0.8390  0.6113
17243SOL    HW253737   4.004   5.484   3.225 -1.8630  0.2807 -2.0796
17244SOL     OW53738   7.458   6.472   1.924  0.4599 -0.4409  0.1614
17244SOL    HW153739   7.370   6.457   1.888  0.7525 -2.0510  0.0302
17244SOL    HW253740   7.455   6.433   2.011  1.3122 -1.3688 -0.2138
17245SOL     OW53741   8.915   7.712   4.879  0.1454  0.9898 -0.3106
17245SOL    HW153742   8.915   7.801   4.843 -0.6260  0.0864 -2.7355
17245SOL    HW253743   8.939   7.656   4.805  2.8179 -0.7042  1.6649
17246SOL     OW53744   8.385   2.988   6.061 -0.8693 -0.2869  0.4222
17246SOL    HW153745   8.475   2.965   6.039 -1.7601 -2.7572 -1.0107
17246SOL    HW253746   8.350   3.026   5.980 -1.6456 -1.1277  0.3569
17247SOL     OW53747   1.269   1.962   8.826  0.5652 -0.1641  0.2760
17247SOL    HW153748   1.291   2.011   8.747  1.2158 -2.4065 -1.0158
17247SOL    HW253749   1.176   1.942   8.816  0.0893  1.3647  1.1947
17248SOL     OW53750   9.498  11.088   2.769  0.7916  1.0608 -0.0948
17248SOL    HW153751   9.476  11.169   2.815 -0.4236  1.2247 -0.9279
17248SOL    HW253752   9.417  11.060   2.728  0.9742 -1.0478  0.8378
17249SOL     OW53753   8.391   8.922   5.849  0.0737 -0.2470  0.5328
17249SOL    HW153754   8.385   8.938   5.755 -0.4171 -1.8675  0.2563
17249SOL    HW253755   8.452   8.849   5.857  1.3882  0.9111  1.6269
17250SOL     OW53756   7.574   3.687   9.156  0.0835 -0.5856  0.0484
17250SOL    HW153757   7.566   3.646   9.070 -2.3305 -1.7120  0.7535
17250SOL    HW253758   7.533   3.773   9.146  0.2689 -0.5029 -0.0246
17251SOL     OW53759   9.164   3.604   5.235 -0.6563  0.0106 -0.2963
17251SOL    HW153760   9.259   3.604   5.223 -0.5764  0.0918  0.2973
17251SOL    HW253761   9.129   3.568   5.153 -0.1745  1.0810 -1.0045
17252SOL     OW53762   8.629   9.452   1.260 -0.0245 -0.2849 -0.0716
17252SOL    HW153763   8.600   9.486   1.345 -1.8069  0.1640 -0.8080
17252SOL    HW253764   8.664   9.529   1.214  1.2821 -0.5970  0.3639
17253SOL     OW53765   1.410   9.331   7.101  0.6854 -0.0232  0.7173
17253SOL    HW153766   1.415   9.354   7.194  1.4235 -1.9143  1.1760
17253SOL    HW253767   1.465   9.396   7.057 -1.9062  2.7096  1.1642
17254SOL     OW53768   3.420  10.801   1.866 -0.3625 -0.0609  0.0123
17254SOL    HW153769   3.501  10.750   1.857 -1.3445 -1.2511 -3.9584
17254SOL    HW253770   3.450  10.887   1.894  2.0020 -1.0614  0.9041
17255SOL     OW53771   8.190   4.761   2.422 -0.0620 -0.0676  0.4687
17255SOL    HW153772   8.140   4.818   2.480 -0.8605  0.9536 -1.1704
17255SOL    HW253773   8.133   4.747   2.347  1.4127 -0.3173 -0.6436
17256SOL     OW53774   5.090   0.213   4.922  0.0892 -0.5495  0.4553
17256SOL    HW153775   5.133   0.158   4.988 -0.8748 -1.3020  0.4858
17256SOL    HW253776   5.009   0.242   4.964 -0.0294 -0.1664 -0.0255
17257SOL     OW53777  10.887   5.801  10.427 -0.5162 -0.2019 -0.5291
17257SOL    HW153778  10.970   5.843  10.452 -1.0382  1.6431 -1.6696
17257SOL    HW253779  10.894   5.788  10.333 -1.5192  0.0128 -0.6454
17258SOL     OW53780   0.598   0.750   1.783  0.0879  0.5843  0.4464
17258SOL    HW153781   0.636   0.714   1.864  1.1735  3.1281  1.1774
17258SOL    HW253782   0.663   0.814   1.753 -0.9342  0.6880 -1.7009
17259SOL     OW53783   4.387   6.587   0.447  0.0629  0.1655 -0.2892
17259SOL    HW153784   4.389   6.674   0.408  0.0165  0.3066  0.0188
17259SOL    HW253785   4.437   6.596   0.528  0.8624 -0.3213 -0.7123
17260SOL     OW53786   8.994   2.508   1.566 -0.1408  0.2583 -0.3927
17260SOL    HW153787   8.903   2.511   1.597 -0.7393 -2.0562 -1.6983
17260SOL    HW253788   9.029   2.427   1.602  1.7522  1.5359  0.7892
17261SOL     OW53789   1.098   4.843   0.583 -0.0817  0.2045  0.4876
17261SOL    HW153790   1.027   4.784   0.608  0.7261 -0.5523  1.0787
17261SOL    HW253791   1.176   4.787   0.578  0.6995  1.1854  0.9947
17262SOL     OW53792   2.563   5.349  10.548 -0.1970 -0.1891 -0.1603
17262SOL    HW153793   2.594   5.283  10.611  0.3407  0.1762 -0.0348
17262SOL    HW253794   2.623   5.341  10.474 -0.2444  0.0392 -0.2235
17263SOL     OW53795   6.791   6.740   4.272 -0.0860 -0.5673 -0.3843
17263SOL    HW153796   6.819   6.829   4.251  0.0366 -0.2176  1.1447
17263SOL    HW253797   6.873   6.693   4.290 -0.2464 -0.4174  0.8457
17264SOL     OW53798   5.738   1.199  10.418  0.2102  0.3811  0.1190
17264SOL    HW153799   5.658   1.242  10.449 -0.5462 -0.3161 -0.8002
17264SOL    HW253800   5.771   1.257  10.349 -1.3332 -0.8786 -1.7914
17265SOL     OW53801   6.981   4.152  10.920 -0.5569  0.6889 -0.2760
17265SOL    HW153802   7.059   4.188  10.962 -0.8543  0.1592  0.7758
17265SOL    HW253803   6.927   4.228  10.900 -0.8686  0.9095  1.2749
17266SOL     OW53804   9.640   3.362   4.807 -0.0159 -0.6731  0.2054
17266SOL    HW153805   9.623   3.437   4.865  0.5559 -0.7926  0.5313
17266SOL    HW253806   9.660   3.290   4.867 -0.3797 -1.0469 -0.1161
17267SOL     OW53807   1.265   3.446   9.289  0.5996  0.2096  0.0204
17267SOL    HW153808   1.224   3.360   9.291 -0.7027  0.7860 -1.0741
17267SOL    HW253809   1.206   3.502   9.339  1.1955  0.5767  0.3228
17268SOL     OW53810   9.156   5.103   3.648  0.0305  0.6852  0.9094
17268SOL    HW153811   9.137   5.018   3.687 -3.2965  0.7063 -0.3936
17268SOL    HW253812   9.134   5.166   3.716 -1.0346  0.5732  0.6852
17269SOL     OW53813   0.521   4.663   9.666 -0.8731 -0.1535  0.1248
17269SOL    HW153814   0.443   4.705   9.628 -2.2425 -1.0340  1.8133
17269SOL    HW253815   0.543   4.718   9.741  0.6395  0.5060 -0.7597
17270SOL     OW53816   3.622  10.174   5.773 -0.2928  0.0510 -0.6378
17270SOL    HW153817   3.717  10.172   5.764 -0.4097 -2.1745 -1.8503
17270SOL    HW253818   3.606  10.152   5.865  0.3410 -0.5974 -0.6762
17271SOL     OW53819   7.156   2.684   2.523  0.3646  0.2369 -0.3123
17271SOL    HW153820   7.176   2.611   2.581 -1.5845  0.5569  0.8862
17271SOL    HW253821   7.133   2.644   2.440 -1.2435 -0.6130  0.4965
17272SOL     OW53822   9.250   5.160   1.795  0.4341  0.3053  0.1900
17272SOL    HW153823   9.216   5.096   1.858  0.4785 -0.0718 -0.1608
17272SOL    HW253824   9.342   5.136   1.785  0.2544 -0.1059 -0.5697
17273SOL     OW53825   0.237   5.357   0.264  0.1217 -0.3925  0.8458
17273SOL    HW153826   0.201   5.274   0.296  1.0703 -1.2253 -0.1888
17273SOL    HW253827   0.332   5.347   0.271  0.2548  0.6397  0.7599
17274SOL     OW53828   4.283  11.086   1.685  0.5547 -0.2653  1.0584
17274SOL    HW153829   4.304  11.097   1.778  0.3507  0.6376  1.0036
17274SOL    HW253830   4.302  10.994   1.667  2.9858  0.1197  1.3871
17275SOL     OW53831   4.089   6.149   1.996 -0.7394 -0.1046  0.9641
17275SOL    HW153832   4.124   6.194   2.073  1.0097 -0.7919  0.6190
17275SOL    HW253833   4.066   6.062   2.028  0.5540 -0.5952  0.6230
17276SOL     OW53834   9.971   6.227   1.623  0.0399 -0.5158  0.2193
17276SOL    HW153835   9.923   6.216   1.542  1.6491 -2.0195 -0.5940
17276SOL    HW253836  10.026   6.149   1.630  3.1905  1.5057  0.4639
17277SOL     OW53837   0.484  10.765  10.887 -0.6606 -0.9843 -0.0380
17277SOL    HW153838   0.549  10.815  10.936 -0.2238 -3.0359  1.6038
17277SOL    HW253839   0.421  10.736  10.953 -0.8884 -2.5797 -0.9073
17278SOL     OW53840   3.903   0.850   3.186  0.3259  0.2279  0.0942
17278SOL    HW153841   3.965   0.920   3.164  2.3351 -1.6761 -0.6603
17278SOL    HW253842   3.955   0.787   3.236 -0.6829 -1.9298 -1.4274
17279SOL     OW53843   2.785   4.103   6.225 -0.2124 -0.1534 -0.0068
17279SOL    HW153844   2.760   4.192   6.198 -0.0376 -0.7377 -2.2818
17279SOL    HW253845   2.725   4.046   6.178  1.3523 -1.3362 -0.6663
17280SOL     OW53846   8.276   9.309   3.013  0.4648 -0.1284  0.1587
17280SOL    HW153847   8.237   9.388   3.052  0.3131 -0.5149  0.7929
17280SOL    HW253848   8.340   9.343   2.950  0.2011  0.5024  0.2204
17281SOL     OW53849   6.570   8.727   7.025  0.2877  0.0170  0.3862
17281SOL    HW153850   6.491   8.703   7.073 -0.0795  2.2811  1.0423
17281SOL    HW253851   6.552   8.815   6.991  0.9387 -1.0347 -3.0573
17282SOL     OW53852   5.097   1.446   9.422 -0.4121  0.2509 -0.2495
17282SOL    HW153853   5.035   1.408   9.361 -1.0475  0.0757  0.4908
17282SOL    HW253854   5.110   1.536   9.391  1.5046 -0.6422 -2.3217
17283SOL     OW53855   8.508   3.754   7.548 -0.5512 -0.4178 -0.2972
17283SOL    HW153856   8.473   3.834   7.510  0.7801  1.0822  1.4547
17283SOL    HW253857   8.548   3.708   7.475 -0.0803  1.2319 -1.1146
17284SOL     OW53858   3.481   0.826   5.989  0.0968 -0.0995  0.3142
17284SOL    HW153859   3.517   0.851   5.904  2.5055 -1.3378  0.8622
17284SOL    HW253860   3.403   0.774   5.968 -0.0774  0.6638 -1.0677
17285SOL     OW53861   7.068   9.718   0.585 -0.1676 -0.3737  0.3780
17285SOL    HW153862   7.031   9.630   0.588  0.5981 -0.7298 -0.3845
17285SOL    HW253863   6.992   9.776   0.591 -0.9093 -1.0785 -1.5529
17286SOL     OW53864   3.845   7.632   7.050  0.6256  0.0827  0.6302
17286SOL    HW153865   3.933   7.662   7.030  1.2862 -2.2490 -0.2154
17286SOL    HW253866   3.857   7.548   7.094 -1.1605 -0.1638  0.7415
17287SOL     OW53867   9.218   0.320   4.906  0.4021 -0.1459 -0.9438
17287SOL    HW153868   9.136   0.274   4.921  0.4589 -0.0629 -0.3122
17287SOL    HW253869   9.230   0.373   4.985  1.5737 -0.9303 -0.5600
17288SOL     OW53870   6.922   0.933   1.972  0.6263  0.5377  0.0754
17288SOL    HW153871   6.876   0.940   1.889  3.7429 -0.2429 -1.9156
17288SOL    HW253872   6.885   0.856   2.015  0.3668 -0.3216 -1.6247
17289SOL     OW53873  10.719   2.697   7.500  0.4791  0.8266 -0.0617
17289SOL    HW153874  10.781   2.644   7.449 -1.6386  0.5875 -2.6069
17289SOL    HW253875  10.681   2.635   7.563 -0.0177 -0.0599 -1.1943
17290SOL     OW53876   3.971  11.065   9.082 -0.0241 -0.1602 -0.2709
17290SOL    HW153877   3.954  10.982   9.038  0.5852 -2.1799  2.9110
17290SOL    HW253878   3.913  11.064   9.158 -0.4036  2.6707 -0.4153
17291SOL     OW53879   9.827   4.847   8.620  0.2475  0.0689  0.1103
17291SOL    HW153880   9.742   4.835   8.577  0.3847  0.9204 -0.4130
17291SOL    HW253881   9.850   4.938   8.602  0.0668  0.6286  2.4684
17292SOL     OW53882  10.363   7.587   1.227  0.2632  0.5091 -0.0544
17292SOL    HW153883  10.444   7.597   1.177 -0.5259  0.2289 -1.4331
17292SOL    HW253884  10.293   7.604   1.164 -0.7705  0.3357  1.0028
17293SOL     OW53885   2.805   0.544  10.286 -0.1978  0.0184  0.5888
17293SOL    HW153886   2.865   0.598  10.337 -0.4169  0.0443  0.8209
17293SOL    HW253887   2.787   0.469  10.342  0.9655 -0.8487 -0.1738
17294SOL     OW53888   9.848   3.685   7.788 -0.1285 -0.1546 -0.0884
17294SOL    HW153889   9.895   3.640   7.717 -1.4786 -0.6222 -0.7298
17294SOL    HW253890   9.848   3.777   7.762  2.7877  0.3504  1.3075
17295SOL     OW53891   9.048   3.156   0.372  0.0453 -0.3905 -0.6630
17295SOL    HW153892   9.036   3.248   0.398  0.7869 -0.8463  1.4161
17295SOL    HW253893   9.043   3.158   0.276 -1.2913  1.6149 -0.6231
17296SOL     OW53894   5.946   1.436   3.912 -0.0517 -0.3149 -0.5287
17296SOL    HW153895   5.956   1.353   3.958  1.0793  0.0428 -0.1076
17296SOL    HW253896   5.892   1.490   3.970  2.6204  0.6919  1.2240
17297SOL     OW53897   0.204   2.090   1.526  0.3212  0.1740 -0.4654
17297SOL    HW153898   0.289   2.073   1.565  0.5328 -0.4438 -1.1713
17297SOL    HW253899   0.220   2.094   1.432 -0.6184 -1.3747 -0.7402
17298SOL     OW53900   2.277   2.254   5.423  0.2241  0.1852 -0.5664
17298SOL    HW153901   2.264   2.326   5.484  1.6378  0.6406 -0.7538
17298SOL    HW253902   2.345   2.285   5.363  0.8999 -1.2944 -0.6298
17299SOL     OW53903   3.071   6.298   1.754 -0.0833 -0.2307  0.2622
17299SOL    HW153904   3.102   6.291   1.664  1.4595 -0.9157  0.8149
17299SOL    HW253905   2.976   6.289   1.747  0.1238 -2.0827 -1.1622
17300SOL     OW53906   2.182   2.687   7.888  0.8801 -0.1242 -0.0272
17300SOL    HW153907   2.095   2.668   7.851  0.7747 -1.0059  0.6653
17300SOL    HW253908   2.169   2.768   7.938  0.5039 -0.1665 -0.0533
17301SOL     OW53909   8.833   9.263  10.244  0.5042 -0.1147 -0.6582
17301SOL    HW153910   8.896   9.284  10.313  0.3123 -0.1866 -0.4589
17301SOL    HW253911   8.882   9.209  10.182  0.4061 -0.9276 -0.0506
17302SOL     OW53912   7.160   0.859  10.312  0.1360 -0.4714 -0.3492
17302SOL    HW153913   7.144   0.898  10.226  1.3039  1.2739  0.1848
17302SOL    HW253914   7.074   0.855  10.353 -0.1521  0.6698 -0.8079
17303SOL     OW53915   6.038   4.012   6.562  0.4462  0.0279 -0.1344
17303SOL    HW153916   6.083   4.036   6.481  1.4173 -2.7728 -0.5121
17303SOL    HW253917   5.951   3.986   6.535  0.3243  0.3623 -0.0762
17304SOL     OW53918   7.370   4.176   6.584 -0.1466 -0.2861  0.5886
17304SOL    HW153919   7.366   4.111   6.655  1.1890  0.4425  1.3846
17304SOL    HW253920   7.281   4.179   6.549 -1.1251  0.0326  2.9076
17305SOL     OW53921   2.930   3.690   7.380 -0.0561  0.4646  0.4717
17305SOL    HW153922   2.928   3.784   7.398  0.9003  0.5307  0.3278
17305SOL    HW253923   2.890   3.681   7.293  0.9455  0.9046 -0.0585
17306SOL     OW53924   7.284   3.997   4.142 -0.0714  0.5430  0.2349
17306SOL    HW153925   7.338   3.992   4.063 -0.8157  1.3165 -0.3340
17306SOL    HW253926   7.302   4.084   4.178  1.4871 -0.3652  1.8458
17307SOL     OW53927  10.247   4.556   2.691  0.3722 -0.0442  0.1715
17307SOL    HW153928  10.153   4.558   2.706 -0.0005 -0.0148 -1.9851
17307SOL    HW253929  10.273   4.647   2.684  0.6740 -0.0327  1.1688
17308SOL     OW53930   9.874   1.231   2.794 -0.0207 -0.3586 -0.5099
17308SOL    HW153931   9.893   1.141   2.768 -4.0840 -1.3471 -0.7140
17308SOL    HW253932   9.819   1.222   2.872 -0.0144  1.9775 -0.1702
17309SOL     OW53933  10.747   0.304   6.699  0.0403  0.8748  0.2882
17309SOL    HW153934  10.828   0.345   6.727  0.1656  1.9736 -1.4984
17309SOL    HW253935  10.698   0.374   6.655 -1.8489  0.2220  1.2338
17310SOL     OW53936   2.830   9.328   5.579  0.2233  0.1111  0.3438
17310SOL    HW153937   2.762   9.346   5.515  0.1267  0.2332  0.4801
17310SOL    HW253938   2.800   9.371   5.659  0.2288 -0.2416  0.5373
17311SOL     OW53939   6.520   5.632   7.757  0.0465  0.4820  0.7510
17311SOL    HW153940   6.505   5.604   7.667  0.3774 -0.9856  1.1329
17311SOL    HW253941   6.608   5.670   7.756 -0.1586  0.9590  0.3571
17312SOL     OW53942   7.409   2.093   2.796  0.0890  0.0437 -0.5238
17312SOL    HW153943   7.426   2.181   2.830  1.7293 -0.5301  0.2060
17312SOL    HW253944   7.323   2.070   2.830 -0.2899  1.2967 -0.5935
17313SOL     OW53945   6.602   9.440   4.333 -0.4660  0.1494 -0.3945
17313SOL    HW153946   6.605   9.534   4.354 -1.6338  0.0956  0.0749
17313SOL    HW253947   6.615   9.396   4.416  2.5085 -0.1861 -0.9296
17314SOL     OW53948   6.516   9.031   8.924 -0.5071 -0.1462  0.0140
17314SOL    HW153949   6.540   9.115   8.885 -1.0360  0.7193  1.5045
17314SOL    HW253950   6.588   8.972   8.899 -0.0795  0.7590 -0.9656
17315SOL     OW53951   1.974   6.616   5.084 -0.7183  0.2473  0.2194
17315SOL    HW153952   2.023   6.599   5.165 -0.3291 -2.6864 -0.5210
17315SOL    HW253953   2.023   6.687   5.042  1.5505 -0.9304  0.6788
17316SOL     OW53954   3.883   5.370   4.066  0.0543  0.0016 -0.2575
17316SOL    HW153955   3.886   5.274   4.064 -1.9779 -0.0880 -0.8915
17316SOL    HW253956   3.889   5.396   3.974  0.9882  0.5239 -0.0624
17317SOL     OW53957   7.955   2.762   3.312  0.1484 -0.1952  0.1758
17317SOL    HW153958   8.027   2.765   3.249  0.8988 -0.1198  1.0282
17317SOL    HW253959   7.880   2.799   3.264  0.8028  0.2352 -0.5351
17318SOL     OW53960   4.343   6.196   6.799  0.4723 -0.0149  0.0410
17318SOL    HW153961   4.372   6.265   6.859  1.0317 -0.6824  0.5443
17318SOL    HW253962   4.374   6.225   6.713  0.0512  0.7278  0.1240
17319SOL     OW53963   0.910   9.719   7.532  0.6893  0.5155  0.6241
17319SOL    HW153964   0.972   9.660   7.488 -0.2868  1.3754 -2.0613
17319SOL    HW253965   0.842   9.661   7.565  2.0650 -0.2761  2.2746
17320SOL     OW53966   7.954   3.223   1.802  0.0035 -0.3363  0.3873
17320SOL    HW153967   8.007   3.175   1.739 -0.0476 -0.3317  0.3403
17320SOL    HW253968   7.994   3.205   1.887 -0.4000 -0.9850  0.4483
17321SOL     OW53969   2.752  10.625   6.236  0.3307 -0.3611  0.2222
17321SOL    HW153970   2.835  10.580   6.251  0.1049 -0.2698  1.8929
17321SOL    HW253971   2.689  10.579   6.291 -0.0702  1.4424  1.3807
17322SOL     OW53972   6.814   1.847   5.421 -0.0495 -0.7593  0.6438
17322SOL    HW153973   6.778   1.933   5.444  1.0453  1.4425 -4.3273
17322SOL    HW253974   6.903   1.849   5.453  0.3548  0.6270 -0.4448
17323SOL     OW53975   7.957   5.558   8.782  0.2054  0.1166 -0.6979
17323SOL    HW153976   7.928   5.649   8.776  0.9313  0.5160  1.1033
17323SOL    HW253977   8.050   5.564   8.807  0.4675 -1.1168 -1.3211
17324SOL     OW53978   2.070   2.190   7.823  0.6329 -0.8814  0.4685
17324SOL    HW153979   2.059   2.193   7.918 -0.5471  0.8637  0.3318
17324SOL    HW253980   2.147   2.245   7.806  0.4965 -0.7192  0.3757
17325SOL     OW53981   3.664  10.011   2.349 -0.6670 -0.4260  0.4383
17325SOL    HW153982   3.670   9.921   2.319 -0.6659 -0.3365  0.1615
17325SOL    HW253983   3.579  10.041   2.317  0.0184  0.1716 -0.8892
17326SOL     OW53984   7.385   6.129   3.581 -0.0323 -0.2175 -0.6157
17326SOL    HW153985   7.301   6.169   3.604 -0.8897 -0.8885 -2.4626
17326SOL    HW253986   7.449   6.199   3.597 -0.8929  0.2578  0.9389
17327SOL     OW53987   1.044   7.734   4.797 -0.1670  0.4183  0.3611
17327SOL    HW153988   1.010   7.647   4.814 -2.3692  0.7330 -1.8402
17327SOL    HW253989   1.000   7.790   4.862 -1.0175  0.2677 -0.0672
17328SOL     OW53990   8.326   8.917   4.235  0.2347  0.3354  0.5955
17328SOL    HW153991   8.274   8.878   4.306 -0.9793 -0.3608 -0.6279
17328SOL    HW253992   8.374   8.843   4.198 -0.9794  0.2071 -0.8166
17329SOL     OW53993   0.535  10.122   3.433 -0.7785 -0.2345  0.0708
17329SOL    HW153994   0.526  10.110   3.339  1.7822  1.1273 -0.4568
17329SOL    HW253995   0.531  10.217   3.446 -0.0356 -0.3262  1.1520
17330SOL     OW53996   2.950  11.067   7.414  0.0298  0.4155 -0.9449
17330SOL    HW153997   2.858  11.061   7.440  0.6187  0.1802  1.2650
17330SOL    HW253998   2.958  11.154   7.375 -0.8009  1.1497  0.4162
17331SOL     OW53999   1.751   1.624   1.954  0.2887 -0.5576 -0.5278
17331SOL    HW154000   1.765   1.587   1.867  0.2363 -0.4512 -0.5818
17331SOL    HW254001   1.685   1.692   1.941 -0.0078 -0.8056 -0.3397
17332SOL     OW54002   1.267  10.463   1.477  0.4735 -0.0458  0.3526
17332SOL    HW154003   1.333  10.398   1.452 -0.6769 -1.0992 -0.0824
17332SOL    HW254004   1.317  10.535   1.515  2.3438  1.2870 -3.9793
17333SOL     OW54005   1.948   0.757   9.479  0.4362 -0.3737  0.0689
17333SOL    HW154006   2.019   0.819   9.462  0.4195 -0.8111 -1.7985
17333SOL    HW254007   1.886   0.806   9.532  1.1294  0.7225 -0.1001
17334SOL     OW54008   1.693  10.890   2.556 -0.1889  0.1628 -0.5877
17334SOL    HW154009   1.665  10.979   2.576  1.0513  0.4287  0.0297
17334SOL    HW254010   1.789  10.893   2.557 -0.0704 -1.6650  1.7973
17335SOL     OW54011  11.061   6.297   3.981  0.0768  0.2023  0.7535
17335SOL    HW154012  10.981   6.264   4.020  0.0530 -0.0110  0.5253
17335SOL    HW254013  11.034   6.372   3.927 -0.0581 -0.2636  0.1647
17336SOL     OW54014   3.107   3.835   4.736  0.5046 -0.5050  0.4210
17336SOL    HW154015   3.086   3.763   4.677 -2.2357  0.0037  0.6573
17336SOL    HW254016   3.114   3.912   4.679  0.3299 -0.4422  0.4818
17337SOL     OW54017   8.325   2.554   9.705 -0.2751  0.4913  0.0133
17337SOL    HW154018   8.297   2.491   9.638 -1.6446  1.4151 -0.3095
17337SOL    HW254019   8.310   2.508   9.788 -0.5641  0.1192 -0.2380
17338SOL     OW54020   4.398   6.535   9.435  0.3467 -0.3974 -0.8299
17338SOL    HW154021   4.358   6.449   9.422 -1.0659  0.2663 -1.1400
17338SOL    HW254022   4.399   6.574   9.348  0.6171  0.0477 -0.6317
17339SOL     OW54023   7.784   3.976   0.350 -0.3299 -0.2020  0.5357
17339SOL    HW154024   7.844   4.039   0.311  1.9035 -3.4139 -1.7882
17339SOL    HW254025   7.799   3.984   0.444  2.5315  0.3407  0.1289
17340SOL     OW54026   3.200   7.898   8.091 -0.6750 -0.0546  0.0646
17340SOL    HW154027   3.191   7.879   7.998  0.8427 -0.1200 -0.0867
17340SOL    HW254028   3.111   7.887   8.126 -1.0708 -1.0601 -1.1781
17341SOL     OW54029   3.555   7.158   7.964  0.0309  0.6511 -0.1484
17341SOL    HW154030   3.583   7.246   7.938  1.1706  0.1024 -0.8634
17341SOL    HW254031   3.474   7.143   7.914  0.4411  0.8697 -0.8943
17342SOL     OW54032  10.091  10.998   7.344  0.1747  0.1116 -0.0283
17342SOL    HW154033  10.025  10.941   7.303  1.5615 -0.7796 -1.1028
17342SOL    HW254034  10.092  10.971   7.436  0.7331 -1.5763 -0.4990
17343SOL     OW54035   8.072  10.139   4.854 -0.6549 -0.2176  0.3316
17343SOL    HW154036   8.035  10.108   4.937  1.5603  1.9457  2.2972
17343SOL    HW254037   8.034  10.226   4.843  1.9368  1.1134  1.2288
17344SOL     OW54038   3.382   3.450   5.734  0.2132 -0.7139  0.0697
17344SOL    HW154039   3.317   3.456   5.804  0.8387  0.5517  0.5778
17344SOL    HW254040   3.459   3.495   5.769  0.7618 -0.6249 -1.1984
17345SOL     OW54041   7.819   3.752   9.933 -0.1537  0.1171  0.1634
17345SOL    HW154042   7.912   3.759   9.908 -0.0941 -0.1788  0.2952
17345SOL    HW254043   7.772   3.793   9.861  0.0311 -0.4763 -0.3064
17346SOL     OW54044   6.944   5.769  10.951  1.3125  0.2898  0.0926
17346SOL    HW154045   6.930   5.725  11.034  0.6764  1.8990  0.8887
17346SOL    HW254046   6.912   5.707  10.885  2.5292 -1.3184  0.9567
17347SOL     OW54047   4.958   5.094   8.621  0.4954  0.1622 -0.1954
17347SOL    HW154048   5.034   5.110   8.677 -0.3062  0.0463  0.9526
17347SOL    HW254049   4.954   4.999   8.612  0.0539  0.1171  0.3875
17348SOL     OW54050   0.841   9.298   1.622 -0.0977  0.4038  0.4353
17348SOL    HW154051   0.798   9.225   1.666  0.1348  0.0471  0.0783
17348SOL    HW254052   0.906   9.330   1.684 -0.9136  0.9889  1.0052
17349SOL     OW54053   4.762   3.989   5.155 -0.5040 -0.2331 -0.1904
17349SOL    HW154054   4.668   4.007   5.157  0.0793  3.4429  1.6084
17349SOL    HW254055   4.779   3.939   5.234 -0.6490  1.3199  0.8542
17350SOL     OW54056   4.944   7.191   0.096 -0.1493 -0.3508  0.5671
17350SOL    HW154057   4.934   7.158   0.185  0.3335  1.2477  1.2494
17350SOL    HW254058   5.003   7.129   0.054  1.0522 -0.1794  1.9179
17351SOL     OW54059   6.525   0.849   4.491 -0.2960 -0.3570 -0.1073
17351SOL    HW154060   6.521   0.765   4.446  1.4660 -1.1763  1.1471
17351SOL    HW254061   6.507   0.827   4.583  0.7381  0.5089  0.3267
17352SOL     OW54062   1.453   0.964  10.269  0.4125 -0.0588 -0.1100
17352SOL    HW154063   1.534   0.918  10.290 -0.8799 -1.7803  1.4425
17352SOL    HW254064   1.385   0.915  10.315 -1.3949  1.9388 -0.4892
17353SOL     OW54065   0.781   8.892   1.749  0.7899 -0.1617 -0.1523
17353SOL    HW154066   0.792   8.834   1.824  3.2491 -1.4130 -1.3603
17353SOL    HW254067   0.690   8.920   1.753  0.6812 -0.6298  2.9296
17354SOL     OW54068   9.387   5.039   2.153  0.0131  0.0767  0.8940
17354SOL    HW154069   9.432   4.980   2.092  0.2759  2.2225 -1.1137
17354SOL    HW254070   9.295   5.010   2.150  0.1854 -0.4301  0.2116
17355SOL     OW54071   2.139   2.492   5.878 -0.2740 -0.0742  0.0314
17355SOL    HW154072   2.166   2.419   5.933 -0.6927 -0.2374  0.0182
17355SOL    HW254073   2.117   2.562   5.940  1.9633  0.7143  0.0251
17356SOL     OW54074   3.794   8.543   9.926  0.6361 -0.1827 -0.5246
17356SOL    HW154075   3.705   8.530   9.896  0.6008 -1.0371 -0.0793
17356SOL    HW254076   3.805   8.479   9.996  1.4925  0.1336 -0.3598
17357SOL     OW54077   6.803  10.843   1.533  0.1114  0.3224  0.4803
17357SOL    HW154078   6.807  10.885   1.618  0.6767  0.6956  0.2704
17357SOL    HW254079   6.725  10.879   1.492  0.4670  0.9977  0.3916
17358SOL     OW54080   2.551   8.709   2.661  0.4502 -0.0687  0.0378
17358SOL    HW154081   2.494   8.632   2.652  2.0456 -1.2221 -0.5184
17358SOL    HW254082   2.624   8.679   2.715  1.3069  0.9316 -0.5309
17359SOL     OW54083   0.364   8.624   2.267  0.0264 -0.5350 -0.0631
17359SOL    HW154084   0.414   8.553   2.308  1.9927  1.2202  0.7375
17359SOL    HW254085   0.300   8.650   2.334 -2.1821 -2.7924 -1.0959
17360SOL     OW54086   5.339   9.670   5.457  0.7457  0.5913 -0.2531
17360SOL    HW154087   5.393   9.747   5.471 -0.0857  1.4436 -1.5322
17360SOL    HW254088   5.298   9.654   5.542  0.6828  1.7520 -0.0508
17361SOL     OW54089   1.218   9.598   9.418 -0.4719  0.4216 -0.0580
17361SOL    HW154090   1.133   9.594   9.463 -0.9390  0.3741 -0.9232
17361SOL    HW254091   1.253   9.509   9.426 -2.0880 -0.5682 -2.6249
17362SOL     OW54092   5.955   3.911   3.595  0.4588 -0.6704 -0.0862
17362SOL    HW154093   5.933   3.823   3.625  1.4501 -1.4732 -1.5803
17362SOL    HW254094   5.874   3.961   3.609  0.8445 -0.8214  3.9769
17363SOL     OW54095   6.782   6.773   0.693  0.3661 -0.5976  0.3288
17363SOL    HW154096   6.818   6.829   0.761  0.2381 -1.1050  0.8215
17363SOL    HW254097   6.794   6.822   0.612  0.7934 -0.1215  0.6798
17364SOL     OW54098  10.455   7.100   6.010 -0.0860 -1.0064  0.3496
17364SOL    HW154099  10.473   7.136   5.923 -1.8909 -0.1520  0.3034
17364SOL    HW254100  10.443   7.177   6.066  0.8869 -1.5488  1.3511
17365SOL     OW54101  10.442   0.739   1.525 -0.1151  0.5814  1.2488
17365SOL    HW154102  10.528   0.777   1.544 -0.0411  0.5012  1.0833
17365SOL    HW254103  10.448   0.649   1.558  0.2604  0.2133  0.2431
17366SOL     OW54104   4.937   0.612   6.824  0.5945  0.2859  0.7139
17366SOL    HW154105   4.976   0.591   6.739  1.4649 -2.8675  1.7796
17366SOL    HW254106   4.844   0.593   6.813  0.8974 -1.3538  0.7589
17367SOL     OW54107   1.537   1.912   7.483  0.0017 -0.1281  0.3263
17367SOL    HW154108   1.547   2.004   7.507  2.6121 -0.2272 -0.0702
17367SOL    HW254109   1.626   1.876   7.486 -0.1370 -1.4717 -4.0985
17368SOL     OW54110   0.043   1.685   3.111 -0.0820 -0.3479  0.3978
17368SOL    HW154111   0.000   1.767   3.087 -0.1372 -1.0114 -2.0265
17368SOL    HW254112  -0.010   1.649   3.183  0.0341  1.7472  1.5985
17369SOL     OW54113   2.751   9.501   3.556 -0.0630  0.6721  0.2069
17369SOL    HW154114   2.693   9.494   3.480 -1.0931  1.2589  0.9088
17369SOL    HW254115   2.830   9.454   3.530 -0.1270  1.4137 -1.4633
17370SOL     OW54116   2.308   9.241   3.139 -0.6016 -0.6481 -0.0467
17370SOL    HW154117   2.322   9.321   3.089 -0.3126 -0.3733  0.4644
17370SOL    HW254118   2.341   9.171   3.082 -2.3566 -0.6105 -1.2010
17371SOL     OW54119   0.527   1.377   4.557  0.3181  0.3376  0.7597
17371SOL    HW154120   0.469   1.342   4.625  2.5906 -2.6830  1.3806
17371SOL    HW254121   0.475   1.372   4.477 -1.1208  0.2483  1.6608
17372SOL     OW54122   2.573   5.644   8.224  0.1504  0.1164  0.0444
17372SOL    HW154123   2.526   5.560   8.218 -0.2055  0.3800 -1.5225
17372SOL    HW254124   2.663   5.619   8.244 -0.1602 -0.5717  0.6381
17373SOL     OW54125   4.957   5.935   3.997  0.0063 -0.3878 -0.2925
17373SOL    HW154126   4.914   5.874   4.056 -1.9641 -0.4079 -1.6561
17373SOL    HW254127   5.024   5.882   3.952 -0.1674 -0.9701  0.1268
17374SOL     OW54128   5.715   7.266   8.516  0.1243 -0.1147 -0.5156
17374SOL    HW154129   5.778   7.198   8.540 -0.7075 -0.5362  0.5609
17374SOL    HW254130   5.643   7.255   8.578  0.0769  1.9165 -0.1564
17375SOL     OW54131   5.948   8.473   9.664 -0.2779 -0.0276 -0.2913
17375SOL    HW154132   6.018   8.538   9.668  1.1112 -1.5472  2.6236
17375SOL    HW254133   5.990   8.390   9.689 -3.3569 -0.6835  3.6413
17376SOL     OW54134   7.004   8.358   3.279  0.1716  0.2441 -0.0739
17376SOL    HW154135   7.046   8.335   3.197 -0.1163  0.9115 -0.4116
17376SOL    HW254136   6.954   8.438   3.260  1.2631  1.2542  1.0962
17377SOL     OW54137   4.308   2.013   6.387 -0.7066  0.4921  0.5387
17377SOL    HW154138   4.237   2.038   6.448  0.5700  1.4590  1.6960
17377SOL    HW254139   4.361   2.092   6.379 -0.2682  0.0685 -1.0808
17378SOL     OW54140   8.182   2.583   1.104  0.1006 -0.1523  0.2668
17378SOL    HW154141   8.125   2.521   1.150  0.0614 -0.3395 -0.0299
17378SOL    HW254142   8.150   2.582   1.013 -0.3802  0.8558  0.4089
17379SOL     OW54143   7.367   5.894   5.056  0.2581  0.6226 -0.4535
17379SOL    HW154144   7.415   5.824   5.101  1.3324  1.8960  0.4444
17379SOL    HW254145   7.420   5.915   4.980 -0.9827 -0.7313 -1.7706
17380SOL     OW54146   1.520  10.312  10.574  0.0003  0.0616  0.5083
17380SOL    HW154147   1.437  10.337  10.613 -0.4867 -0.2327 -0.3133
17380SOL    HW254148   1.574  10.391  10.578 -0.7085  0.5772  0.0418
17381SOL     OW54149   7.753   6.766   1.467 -0.6356  0.1581  0.0864
17381SOL    HW154150   7.745   6.752   1.561 -1.6690  0.9224  0.1354
17381SOL    HW254151   7.672   6.731   1.431  0.0239 -0.6872 -0.5954
17382SOL     OW54152   2.685   6.303   8.232 -0.3119  0.6947 -0.3905
17382SOL    HW154153   2.716   6.392   8.213  2.9617 -0.3838 -0.6262
17382SOL    HW254154   2.722   6.249   8.162 -1.9582 -0.9555 -0.0638
17383SOL     OW54155   5.175   5.204  10.902  0.2300  0.2073 -0.4616
17383SOL    HW154156   5.100   5.160  10.863 -0.4494  0.4743  0.5047
17383SOL    HW254157   5.153   5.297  10.897 -0.8161  0.1885  2.3061
17384SOL     OW54158   6.722   4.800   1.512 -0.2243 -0.0901  0.5949
17384SOL    HW154159   6.811   4.768   1.529 -0.0627  0.8155  1.4968
17384SOL    HW254160   6.728   4.895   1.523 -0.9989  0.1410 -0.7341
17385SOL     OW54161   8.663   5.986   9.395 -0.3480 -0.4812  0.1008
17385SOL    HW154162   8.652   5.989   9.300 -2.7597  2.0470  0.3375
17385SOL    HW254163   8.609   6.057   9.428  2.9692  0.9078  3.2220
17386SOL     OW54164   5.776   9.476   3.070 -0.6411  0.2246  0.1356
17386SOL    HW154165   5.696   9.498   3.116 -0.5859 -1.4774  1.1245
17386SOL    HW254166   5.768   9.383   3.050 -0.4794  0.7707 -3.0003
17387SOL     OW54167   0.777   0.816   6.603 -0.3699 -0.3589 -0.3035
17387SOL    HW154168   0.839   0.803   6.675  1.0801 -1.1980 -1.6399
17387SOL    HW254169   0.810   0.893   6.556 -0.7188 -0.4108 -0.6376
17388SOL     OW54170   8.528   9.871  10.264 -0.1808 -0.0282  0.4278
17388SOL    HW154171   8.512   9.796  10.207 -0.2647 -0.5095  1.0778
17388SOL    HW254172   8.623   9.868  10.281  0.0651  0.8462 -0.6832
17389SOL     OW54173   5.342   1.023  10.195  0.1144 -0.4651 -0.4948
17389SOL    HW154174   5.380   0.946  10.153 -0.7465 -0.6328 -1.0147
17389SOL    HW254175   5.381   1.098  10.149  0.7949 -0.5880 -0.1289
17390SOL     OW54176   2.636   0.365   6.297 -0.1645  0.1191  0.3521
17390SOL    HW154177   2.584   0.340   6.221 -1.6497 -0.1563  1.4102
17390SOL    HW254178   2.581   0.344   6.372  2.0653 -1.6451  1.6472
17391SOL     OW54179   3.627   0.817   5.159  0.1834  0.0365  0.3472
17391SOL    HW154180   3.628   0.838   5.253  0.2332 -1.2316  0.6469
17391SOL    HW254181   3.547   0.766   5.146  1.4094 -1.9685  0.2321
17392SOL     OW54182   6.228   5.980   7.946 -0.0625  0.7411 -0.2775
17392SOL    HW154183   6.281   5.918   7.996  0.1398  1.6281  0.6427
17392SOL    HW254184   6.291   6.043   7.910 -0.5362  3.0007  2.5004
17393SOL     OW54185   8.987  10.053   7.836 -0.0463 -0.5139  0.5566
17393SOL    HW154186   8.955  10.046   7.926  2.9502 -0.9101  1.7061
17393SOL    HW254187   8.942  10.129   7.801 -1.9004 -0.8204  2.0924
17394SOL     OW54188   2.900   5.878   4.282  0.3486 -0.3901  0.0798
17394SOL    HW154189   2.885   5.956   4.229  0.4262  0.8610  1.8405
17394SOL    HW254190   2.826   5.873   4.341  1.3313 -0.4708  1.3568
17395SOL     OW54191   7.066  10.159   5.724 -0.2606  0.3259  0.3424
17395SOL    HW154192   6.985  10.203   5.750 -1.1122  0.5409 -2.4144
17395SOL    HW254193   7.079  10.184   5.633  0.2082 -3.6733 -0.8705
17396SOL     OW54194   1.698   9.677   4.732 -0.6209 -0.2249  0.2906
17396SOL    HW154195   1.726   9.597   4.687  0.6847  0.0746  0.5279
17396SOL    HW254196   1.650   9.646   4.808  0.5689 -0.8197  0.8207
17397SOL     OW54197   3.611   4.417   1.560  0.1092  0.4652 -0.6236
17397SOL    HW154198   3.582   4.380   1.476  1.9894 -1.4762 -0.4943
17397SOL    HW254199   3.704   4.394   1.565  0.1920  1.1355  1.7065
17398SOL     OW54200   5.990   6.771   3.925  0.0314 -0.3201  0.4240
17398SOL    HW154201   5.993   6.845   3.986 -1.5415 -0.6137  0.8911
17398SOL    HW254202   6.025   6.806   3.843  0.5899  0.5455  1.0120
17399SOL     OW54203   2.360   8.762  11.046  0.0820  0.1903  0.2494
17399SOL    HW154204   2.442   8.773  11.094  0.6359 -0.0970 -0.6051
17399SOL    HW254205   2.313   8.694  11.095  1.3712 -1.3122 -0.5124
17400SOL     OW54206   4.475   1.554   1.117  0.2287 -0.5352  0.0447
17400SOL    HW154207   4.507   1.610   1.047 -0.6707 -0.1466 -0.0577
17400SOL    HW254208   4.522   1.585   1.195 -0.4115  0.5077  0.0303
17401SOL     OW54209   1.566   7.927   2.431 -0.4110 -0.3509 -0.0733
17401SOL    HW154210   1.580   7.832   2.429  0.9026 -0.1717 -0.7695
17401SOL    HW254211   1.536   7.945   2.520 -3.1189 -1.6954 -0.6193
17402SOL     OW54212   2.201   3.755   3.953 -0.3195 -0.3641 -0.7041
17402SOL    HW154213   2.225   3.689   3.886  0.0246 -0.7556 -0.2047
17402SOL    HW254214   2.198   3.837   3.904 -0.6364 -0.7275 -1.3192
17403SOL     OW54215   4.093   6.007   7.871 -0.0403  0.7713  0.0833
17403SOL    HW154216   4.039   6.086   7.858 -1.9219 -0.3373  0.7259
17403SOL    HW254217   4.053   5.963   7.946  1.5890 -0.3084  0.3634
17404SOL     OW54218  11.032   3.179  10.194 -0.1506  0.5284 -0.6491
17404SOL    HW154219  10.942   3.158  10.169 -0.9003 -1.5006  3.0152
17404SOL    HW254220  11.073   3.094  10.207  1.5084  1.4132  0.2284
17405SOL     OW54221   6.766   7.626   0.922  0.1245 -0.5495  0.0792
17405SOL    HW154222   6.743   7.669   0.840  2.9475 -0.5099 -0.7961
17405SOL    HW254223   6.699   7.655   0.985 -0.7638  1.2583 -1.6237
17406SOL     OW54224   1.586   1.746  10.638 -0.4147  0.1201  0.3433
17406SOL    HW154225   1.581   1.835  10.673  0.2671 -0.3309  1.6539
17406SOL    HW254226   1.662   1.747  10.581  1.3995 -0.3147  2.6185
17407SOL     OW54227   1.397   8.182   8.852  0.1447  0.8419 -0.0718
17407SOL    HW154228   1.436   8.098   8.826 -1.0923  0.4744 -0.8473
17407SOL    HW254229   1.458   8.218   8.916  0.8407 -0.5235  0.0756
17408SOL     OW54230  10.756  10.539   3.757 -0.8781  0.2452 -0.1256
17408SOL    HW154231  10.845  10.565   3.734 -1.9036  1.4762 -3.2770
17408SOL    HW254232  10.757  10.531   3.853  2.6410 -0.1348 -0.0653
17409SOL     OW54233  10.806   1.732   2.183  0.1310  0.3531  0.0575
17409SOL    HW154234  10.736   1.682   2.226 -1.0099  0.7046 -1.2999
17409SOL    HW254235  10.795   1.822   2.214  0.2951  0.3159  0.2230
17410SOL     OW54236  10.674   7.939   5.935  0.2131  0.3050  0.0234
17410SOL    HW154237  10.592   7.982   5.959 -0.1688  0.4712 -1.5110
17410SOL    HW254238  10.742   7.997   5.972 -0.3304  0.2147  1.2169
17411SOL     OW54239   6.620   3.990   1.210  0.5611  0.1098 -0.8632
17411SOL    HW154240   6.530   3.988   1.245  0.9404  1.7341  0.3737
17411SOL    HW254241   6.647   4.081   1.222  1.5592  0.2119 -3.4341
17412SOL     OW54242  10.075   9.795   0.947 -0.1872  0.7112  0.1680
17412SOL    HW154243  10.050   9.732   1.015 -1.5959  4.2519  3.2485
17412SOL    HW254244  10.010   9.782   0.878 -1.1567 -0.4026  1.2408
17413SOL     OW54245   0.626   8.444   9.315  0.6854  0.2581 -0.0811
17413SOL    HW154246   0.658   8.410   9.231  1.6237 -1.1080  0.7857
17413SOL    HW254247   0.534   8.419   9.317  0.4461  0.9967 -1.0239
17414SOL     OW54248   0.418   1.588   6.448 -0.2107  0.2726 -0.1677
17414SOL    HW154249   0.490   1.532   6.476 -1.8710 -1.3533  1.0117
17414SOL    HW254250   0.360   1.594   6.524 -1.3040  1.6154 -1.0507
17415SOL     OW54251   3.033   2.458   2.171 -0.7080 -0.0040 -0.1585
17415SOL    HW154252   3.106   2.480   2.113 -1.1100  1.9974 -0.0070
17415SOL    HW254253   2.959   2.445   2.112 -0.8030  0.6347 -0.1903
17416SOL     OW54254  10.673   3.454   7.936 -0.1547 -0.8127 -0.2744
17416SOL    HW154255  10.699   3.490   8.021  0.5647  4.5900 -2.3602
17416SOL    HW254256  10.579   3.471   7.930  0.3637  2.2866 -1.6831
17417SOL     OW54257   4.081   7.286  10.052  0.1493 -0.3560 -0.4228
17417SOL    HW154258   4.126   7.349  10.108 -2.7260  1.6062 -0.1141
17417SOL    HW254259   4.089   7.202  10.099 -0.9454  0.9477  2.2882
17418SOL     OW54260   5.866   5.971   2.709  0.5141  0.0132 -0.4424
17418SOL    HW154261   5.770   5.962   2.703  0.0683  1.5548  2.4531
17418SOL    HW254262   5.890   6.021   2.631 -1.3496  1.2142 -0.3154
17419SOL     OW54263   4.274   8.157   8.916  0.4369 -0.1354  0.4096
17419SOL    HW154264   4.304   8.113   8.837  2.0535  1.6863 -0.0862
17419SOL    HW254265   4.183   8.181   8.898  0.1605 -1.4940 -0.0680
17420SOL     OW54266   1.805   3.477   1.379 -0.0553 -0.3552  0.3408
17420SOL    HW154267   1.765   3.434   1.455 -0.9477 -0.5935 -0.2486
17420SOL    HW254268   1.777   3.424   1.304  1.5946 -0.6814 -0.0845
17421SOL     OW54269   1.030  10.874   6.256 -0.0877  0.3880  0.3444
17421SOL    HW154270   1.029  10.873   6.161 -0.5665  0.3613  0.3440
17421SOL    HW254271   1.109  10.922   6.280  0.9625 -1.0769 -0.0444
17422SOL     OW54272   6.641   8.308  10.615 -0.5282 -0.7631  0.2670
17422SOL    HW154273   6.728   8.268  10.626  0.2805 -0.4056 -3.4471
17422SOL    HW254274   6.634   8.369  10.688  2.0946 -1.2280  1.0248
17423SOL     OW54275  10.093   7.891   5.884  0.4853 -0.1589  1.0291
17423SOL    HW154276  10.174   7.932   5.854 -0.0207  0.9602  1.1470
17423SOL    HW254277  10.045   7.872   5.804  0.9356 -0.9840  0.9509
17424SOL     OW54278   3.760   8.941   7.176 -0.6676 -0.4081 -0.0290
17424SOL    HW154279   3.832   8.995   7.210 -1.3087  1.6088 -1.6500
17424SOL    HW254280   3.756   8.866   7.236  1.2053  0.6206  1.5110
17425SOL     OW54281   5.471   7.519   3.052 -0.0213 -0.1939  0.6394
17425SOL    HW154282   5.497   7.494   2.964  1.6176 -1.4539  1.4185
17425SOL    HW254283   5.409   7.591   3.040 -0.9854 -1.3183 -1.5503
17426SOL     OW54284  10.973   8.488   4.511 -0.0685  0.9079  0.0682
17426SOL    HW154285  11.038   8.527   4.570 -0.7143  1.4831  0.4108
17426SOL    HW254286  10.893   8.537   4.528 -0.3093  0.9579 -1.1654
17427SOL     OW54287   9.470   7.890   0.243  0.8197 -0.1576 -0.6965
17427SOL    HW154288   9.540   7.891   0.309 -0.3364  1.2925  0.5693
17427SOL    HW254289   9.450   7.798   0.230  2.5168 -0.5741 -0.6306
17428SOL     OW54290   8.789   1.681   4.499 -0.4052  0.2697 -0.2020
17428SOL    HW154291   8.763   1.720   4.582 -1.8999 -0.5801 -0.2343
17428SOL    HW254292   8.855   1.741   4.463 -0.0075  0.8289  1.4053
17429SOL     OW54293   8.196  10.973   6.105 -0.2961 -1.2718 -0.2189
17429SOL    HW154294   8.131  10.903   6.111 -1.4541 -0.3197 -0.9788
17429SOL    HW254295   8.190  11.019   6.188  0.5490 -2.1177  0.3272
17430SOL     OW54296   9.674   6.266   4.910 -0.2877  0.0004 -0.5023
17430SOL    HW154297   9.716   6.292   4.828 -0.5806  0.8437 -0.3959
17430SOL    HW254298   9.701   6.176   4.923  0.2549  0.0499 -1.2184
17431SOL     OW54299   2.727   8.170   3.971 -0.4590 -0.5836 -0.0129
17431SOL    HW154300   2.756   8.128   3.891  0.6933 -0.4670  0.3255
17431SOL    HW254301   2.636   8.141   3.982 -0.6073 -0.6665 -1.2972
17432SOL     OW54302   5.568   2.347   5.871  0.3727  0.9500  0.0507
17432SOL    HW154303   5.662   2.360   5.888  0.6113  1.1284 -1.3236
17432SOL    HW254304   5.559   2.252   5.859  0.3076  0.8951  0.4955
17433SOL     OW54305   7.493   9.038   7.641 -0.1102  0.7458  0.2944
17433SOL    HW154306   7.544   8.958   7.634  0.6750  1.3470 -1.2884
17433SOL    HW254307   7.426   9.018   7.706  0.3349 -1.0411  0.2471
17434SOL     OW54308   5.366  10.176   9.461  0.0555  0.4753  0.3015
17434SOL    HW154309   5.455  10.210   9.469 -0.7938  2.6298  1.2571
17434SOL    HW254310   5.327  10.229   9.392 -0.5622 -0.2984  0.0527
17435SOL     OW54311   7.035   3.620   8.422  0.2773 -0.0405  0.0631
17435SOL    HW154312   6.959   3.679   8.423  1.4308  1.4985  0.8775
17435SOL    HW254313   7.072   3.626   8.510  2.4354  0.7464 -0.8362
17436SOL     OW54314   0.263   6.542   3.033 -0.5690 -0.0531  0.2918
17436SOL    HW154315   0.235   6.494   2.955 -2.2129  1.0622  0.1513
17436SOL    HW254316   0.356   6.558   3.019 -0.1516 -2.3856 -0.0527
17437SOL     OW54317   1.437   2.494   1.919 -0.5322  0.0478 -0.3859
17437SOL    HW154318   1.452   2.571   1.974  1.8606 -1.0691  0.6538
17437SOL    HW254319   1.387   2.434   1.974  0.5926 -0.4904  0.0595
17438SOL     OW54320   8.360   4.403   5.632  0.0731 -0.0047  0.6296
17438SOL    HW154321   8.411   4.335   5.589 -0.9674 -0.7434  0.5172
17438SOL    HW254322   8.272   4.365   5.642 -0.2182  0.8716  1.6542
17439SOL     OW54323   4.923   7.075   2.208  0.8679  0.0599 -0.3467
17439SOL    HW154324   4.981   7.143   2.244 -0.1377 -1.1570  4.0824
17439SOL    HW254325   4.955   6.993   2.245 -3.5763 -0.6698  2.7664
17440SOL     OW54326   9.296  10.640   5.828  0.6826 -0.1278  0.7585
17440SOL    HW154327   9.231  10.684   5.883 -0.2646 -0.6148  0.0531
17440SOL    HW254328   9.289  10.548   5.853  0.2647 -0.3497 -0.1315
17441SOL     OW54329   0.732   2.376   5.106  0.1815  0.1238  0.9316
17441SOL    HW154330   0.639   2.375   5.084  0.0735 -1.4075  1.3377
17441SOL    HW254331   0.771   2.439   5.045 -1.0733  0.5872  0.5918
17442SOL     OW54332   0.675   0.944   8.476  0.0176  0.0284 -0.2887
17442SOL    HW154333   0.628   0.999   8.539  1.9614  2.5692 -0.9356
17442SOL    HW254334   0.716   1.005   8.416  1.4302 -2.2074 -1.7316
17443SOL     OW54335   4.135   4.298   6.713  0.2829 -0.1189 -0.3368
17443SOL    HW154336   4.060   4.345   6.675 -0.7696 -1.4688 -0.0235
17443SOL    HW254337   4.116   4.294   6.807  1.3028  0.4587 -0.0909
17444SOL     OW54338   4.727   8.145   2.236  0.2888  0.1381 -0.3345
17444SOL    HW154339   4.644   8.160   2.282  0.0215  2.0070 -1.3180
17444SOL    HW254340   4.780   8.222   2.257  1.1549 -0.2602 -1.0120
17445SOL     OW54341   1.198   9.934   8.577 -0.9272  0.3178  0.5414
17445SOL    HW154342   1.262   9.928   8.506 -1.6359  3.1244 -0.4817
17445SOL    HW254343   1.250   9.947   8.656 -0.1631 -1.6752  0.4162
17446SOL     OW54344   4.378   6.443   4.744  0.2377  0.2963  0.0183
17446SOL    HW154345   4.440   6.374   4.721  1.2508  1.2882 -0.4004
17446SOL    HW254346   4.366   6.435   4.838 -0.2297 -0.8896 -0.1364
17447SOL     OW54347   4.847   3.085   2.834  0.3849 -0.0546  0.5585
17447SOL    HW154348   4.759   3.079   2.869  0.0879 -0.5328 -0.2477
17447SOL    HW254349   4.847   3.028   2.757  0.5369  2.1811 -1.2042
17448SOL     OW54350   9.916  10.210   2.590 -0.6421  0.4487 -0.9638
17448SOL    HW154351   9.893  10.217   2.682  0.0603 -1.1852 -0.6191
17448SOL    HW254352   9.978  10.281   2.575  0.5073 -0.2328  0.2833
17449SOL     OW54353   0.080   3.524  10.899  0.0816  0.1000 -0.2690
17449SOL    HW154354   0.101   3.595  10.838 -1.2219  0.9229  0.1816
17449SOL    HW254355  -0.015   3.515  10.892 -0.0297 -0.1437  1.2401
17450SOL     OW54356   5.295   0.501   7.951  0.0113 -0.2416  0.2191
17450SOL    HW154357   5.235   0.427   7.951 -0.0898 -0.1787  1.3175
17450SOL    HW254358   5.382   0.461   7.940  0.1546 -0.7538  2.6236
17451SOL     OW54359   4.767   6.124   2.356  0.0025  0.6273 -0.0834
17451SOL    HW154360   4.856   6.146   2.383  0.0943 -0.6909  0.7948
17451SOL    HW254361   4.777   6.096   2.264  0.1028  2.6174 -0.7335
17452SOL     OW54362   2.091   3.107   4.065  0.3121  0.0787 -0.3242
17452SOL    HW154363   2.160   3.074   4.123 -0.1940 -0.8139 -0.1948
17452SOL    HW254364   2.067   3.192   4.102 -0.5745 -0.8268  1.3148
17453SOL     OW54365   5.178   6.336   5.918  0.3104  0.2441 -0.5958
17453SOL    HW154366   5.214   6.249   5.901  0.7236  0.2670  0.1412
17453SOL    HW254367   5.166   6.340   6.012 -2.1045  0.0682 -0.8220
17454SOL     OW54368   6.696   7.527   9.334  0.1130 -0.2130 -0.2604
17454SOL    HW154369   6.628   7.566   9.389  0.4923 -1.6222  1.2934
17454SOL    HW254370   6.775   7.526   9.389  0.4343 -1.9379 -0.6709
17455SOL     OW54371   2.992  10.972   4.419 -0.0912 -0.5094 -0.1719
17455SOL    HW154372   3.048  10.897   4.440  0.9443  0.1453 -0.5368
17455SOL    HW254373   2.972  11.011   4.504 -2.0461 -2.1334  0.1986
17456SOL     OW54374   5.344   0.208   9.799 -0.1736  0.0396 -0.1587
17456SOL    HW154375   5.309   0.293   9.825 -1.2312 -0.1268 -0.9724
17456SOL    HW254376   5.429   0.228   9.759 -0.4353  0.7190 -0.3816
17457SOL     OW54377   7.811   4.187   1.751  1.0324  0.1941 -0.0159
17457SOL    HW154378   7.726   4.185   1.708  1.0633  0.2335 -0.0804
17457SOL    HW254379   7.848   4.272   1.726  1.5541 -0.2714 -0.8993
17458SOL     OW54380   1.226   5.206   8.864  0.0057 -0.3124 -0.1930
17458SOL    HW154381   1.167   5.133   8.844 -0.9276  0.0513  1.1071
17458SOL    HW254382   1.294   5.200   8.797 -0.9269 -1.3907 -1.1001
17459SOL     OW54383   9.807   3.919   2.595 -0.2352 -0.1278 -0.2717
17459SOL    HW154384   9.825   4.007   2.628 -1.8665 -0.6372  2.3173
17459SOL    HW254385   9.718   3.901   2.625 -0.5416 -2.0705 -2.1544
17460SOL     OW54386  10.363   7.396   7.934  0.4725  0.6462 -0.1047
17460SOL    HW154387  10.279   7.373   7.976  0.5086  0.3331 -0.2018
17460SOL    HW254388  10.346   7.480   7.892  0.8029  1.6387  1.6455
17461SOL     OW54389   7.635   5.083   2.223  0.0523  0.1467 -0.4466
17461SOL    HW154390   7.587   5.049   2.147  1.1731 -0.6396 -0.8381
17461SOL    HW254391   7.702   5.140   2.185 -0.4823  1.1449  0.0850
17462SOL     OW54392   1.044   7.727   3.298  0.4283 -0.0153  0.0219
17462SOL    HW154393   1.036   7.803   3.241  1.0262 -0.4214 -0.6101
17462SOL    HW254394   0.998   7.753   3.378  1.9011  1.5909  0.4110
17463SOL     OW54395  10.546   2.641   8.624  0.2458 -0.2458 -0.0939
17463SOL    HW154396  10.628   2.652   8.671  0.3623  0.7274 -0.5046
17463SOL    HW254397  10.478   2.645   8.692  0.4465  0.6042  0.0714
17464SOL     OW54398   8.617   2.047   6.590 -0.6138  0.5469 -0.3853
17464SOL    HW154399   8.576   2.003   6.666 -1.8064  0.8037 -0.8568
17464SOL    HW254400   8.675   2.112   6.629 -1.0399  0.5249  0.3216
17465SOL     OW54401   9.454   4.302   9.541 -0.2356  0.5390  0.3927
17465SOL    HW154402   9.509   4.228   9.566 -0.3473  1.0074  2.1628
17465SOL    HW254403   9.374   4.262   9.507  0.0528 -0.1462  0.5122
17466SOL     OW54404   8.022   9.220   8.066 -0.0990  0.1763 -0.1370
17466SOL    HW154405   7.976   9.255   8.143  0.2485 -0.5203  0.3958
17466SOL    HW254406   7.966   9.148   8.036 -1.7814  2.2630 -2.3476
17467SOL     OW54407   3.149   8.584   9.788  0.4316  0.6325 -0.4868
17467SOL    HW154408   3.141   8.664   9.737  1.4150 -0.2328 -2.0600
17467SOL    HW254409   3.201   8.525   9.733  3.6393  0.4386  2.4324
17468SOL     OW54410   8.771   6.385   0.693 -0.9109 -0.4048  0.3038
17468SOL    HW154411   8.721   6.312   0.656 -1.9070  0.5655 -0.3583
17468SOL    HW254412   8.861   6.371   0.663 -0.8912 -1.8244  0.9420
17469SOL     OW54413   4.495   2.806   4.211 -0.3829  0.2946 -0.4618
17469SOL    HW154414   4.444   2.871   4.259  0.1562 -0.0686  0.6255
17469SOL    HW254415   4.571   2.787   4.267 -0.6700 -1.4908 -0.6006
17470SOL     OW54416   0.039   3.266   1.436 -0.1096  0.0113  0.0069
17470SOL    HW154417   0.037   3.174   1.460  1.4781  0.1716  0.8416
17470SOL    HW254418   0.030   3.266   1.340  0.7574 -1.0678 -0.0903
17471SOL     OW54419   5.495   0.512   3.935  0.1489 -0.1445 -0.3631
17471SOL    HW154420   5.508   0.520   3.840 -0.3811 -1.2094 -0.5412
17471SOL    HW254421   5.414   0.461   3.944  1.3744 -2.0161  0.6227
17472SOL     OW54422   0.626   1.465   3.702 -0.1465  0.1052  1.0461
17472SOL    HW154423   0.703   1.470   3.645  0.1203  0.5152  1.4323
17472SOL    HW254424   0.654   1.411   3.776  0.1156  1.0865  1.6917
17473SOL     OW54425   0.758   7.558   5.435 -0.1308  0.4223 -0.6245
17473SOL    HW154426   0.668   7.556   5.401  0.2057  0.0022 -1.4997
17473SOL    HW254427   0.791   7.644   5.408  0.6229 -0.4651 -2.6819
17474SOL     OW54428   9.852   7.778  10.822  0.0255 -0.6458  0.2586
17474SOL    HW154429   9.926   7.838  10.816  0.3633 -1.2052 -1.9827
17474SOL    HW254430   9.887   7.694  10.793 -1.0179 -1.4044  1.1154
17475SOL     OW54431   8.743   9.368   3.027 -0.3475  0.6860 -0.1213
17475SOL    HW154432   8.810   9.369   3.094 -0.3599  0.3711 -0.1005
17475SOL    HW254433   8.768   9.438   2.966  0.6902 -0.2319 -0.7870
17476SOL     OW54434   1.608   6.192   3.481 -0.6551  0.5095  0.4076
17476SOL    HW154435   1.614   6.170   3.574  1.0085 -2.8454 -0.3107
17476SOL    HW254436   1.629   6.110   3.437 -1.6173  1.9352 -2.9592
17477SOL     OW54437   0.955   1.024   9.507  0.0038 -0.1316  0.6937
17477SOL    HW154438   1.029   1.084   9.514  0.1336 -0.3679  1.4683
17477SOL    HW254439   0.995   0.937   9.499 -0.1836 -0.2778  1.2980
17478SOL     OW54440  11.000   8.573   3.520 -0.6259 -0.1118 -0.1870
17478SOL    HW154441  10.981   8.561   3.427 -0.0690 -1.7281 -0.1242
17478SOL    HW254442  10.958   8.499   3.563  0.2242 -0.1091  0.6868
17479SOL     OW54443   6.715   8.254   7.348 -0.1274 -0.4315 -0.3658
17479SOL    HW154444   6.648   8.215   7.292 -1.4611 -0.5510  1.2276
17479SOL    HW254445   6.685   8.237   7.437  2.3686 -1.0650  0.4509
17480SOL     OW54446   3.603   4.489   0.416  0.1070  0.1410  0.6373
17480SOL    HW154447   3.694   4.462   0.406 -0.1316 -0.1363 -0.9756
17480SOL    HW254448   3.561   4.415   0.460  0.3260 -0.4214 -0.0857
17481SOL     OW54449   6.087   1.466   4.871 -0.1822  0.4469 -0.5168
17481SOL    HW154450   6.058   1.548   4.831  1.0559  1.7318  1.0649
17481SOL    HW254451   6.145   1.428   4.805  0.1741  1.4577 -0.8177
17482SOL     OW54452   3.193   6.733   8.322  0.0425 -0.1404 -0.6556
17482SOL    HW154453   3.159   6.658   8.372 -0.0767 -0.6788 -1.5049
17482SOL    HW254454   3.220   6.796   8.388  1.9460 -1.6999  0.1616
17483SOL     OW54455   1.239   9.983   9.372  0.3330 -0.3122 -0.5646
17483SOL    HW154456   1.293  10.032   9.310 -0.9438 -0.7198 -2.0759
17483SOL    HW254457   1.297   9.965   9.446  1.9306  0.1444 -1.6527
17484SOL     OW54458   2.998   1.572   4.854  0.3107  0.8287  0.0021
17484SOL    HW154459   2.980   1.663   4.877 -0.9336  0.7617 -0.6512
17484SOL    HW254460   2.922   1.524   4.886 -0.1384  0.3480 -1.7003
17485SOL     OW54461   3.729   3.441   5.345  0.3213 -0.2260 -0.1000
17485SOL    HW154462   3.681   3.379   5.290 -1.2883 -0.8980  1.9209
17485SOL    HW254463   3.661   3.498   5.382  1.0468 -0.8654  2.4337
17486SOL     OW54464   0.327   3.088   9.290  0.3454  0.4027 -0.1548
17486SOL    HW154465   0.409   3.049   9.261 -1.2058 -1.6488 -2.0645
17486SOL    HW254466   0.261   3.056   9.229 -1.9113  2.0413  1.2389
17487SOL     OW54467   1.867  10.956   6.130  0.0668  0.1956  0.3578
17487SOL    HW154468   1.830  10.924   6.048  1.4189  1.9930 -1.0297
17487SOL    HW254469   1.842  11.048   6.133  0.6629  0.3295  1.6135
17488SOL     OW54470   3.925   3.029   9.007  0.9006  0.7278  0.0381
17488SOL    HW154471   3.888   2.943   8.984  1.9491 -0.0597  1.1312
17488SOL    HW254472   3.852   3.077   9.046  0.2430  0.4224 -0.8097
17489SOL     OW54473   4.739   8.011   0.296 -0.8152 -0.1593 -0.2818
17489SOL    HW154474   4.728   7.992   0.389  0.3066 -0.8572 -0.2703
17489SOL    HW254475   4.715   8.103   0.287 -0.6878 -0.0156  0.7483
17490SOL     OW54476   9.547   3.847   6.852  0.4221  0.0587  0.8134
17490SOL    HW154477   9.467   3.799   6.871  0.6873 -0.6029  0.2921
17490SOL    HW254478   9.537   3.876   6.761  0.5989  0.3282  0.8768
17491SOL     OW54479   2.760   4.831  10.742 -0.3745  0.3344 -0.4277
17491SOL    HW154480   2.816   4.756  10.760  0.3335  0.6740 -1.1512
17491SOL    HW254481   2.821   4.903  10.726 -0.8648  0.1865 -3.6261
17492SOL     OW54482   3.612   1.821  10.326  0.0861  0.1367  0.0788
17492SOL    HW154483   3.587   1.891  10.266  0.8437  0.8577  0.5857
17492SOL    HW254484   3.570   1.845  10.409 -1.1261 -0.9604 -0.1754
17493SOL     OW54485   7.118   7.656   9.077 -0.4220  0.6317 -0.7653
17493SOL    HW154486   7.171   7.711   9.136  0.5313 -1.5574  0.5722
17493SOL    HW254487   7.033   7.650   9.120 -0.1100  0.0240 -0.2161
17494SOL     OW54488   9.259   2.566   0.121 -0.3079  0.1392 -0.5126
17494SOL    HW154489   9.238   2.645   0.071 -0.8217  1.5345  1.7365
17494SOL    HW254490   9.207   2.574   0.201  1.9613 -0.9066  1.1797
17495SOL     OW54491   1.939   4.375  10.293 -0.1604  0.2901 -0.3130
17495SOL    HW154492   1.959   4.352  10.384  0.3581  0.3764 -0.3967
17495SOL    HW254493   2.020   4.415  10.261 -0.6322  1.0806 -0.5413
17496SOL     OW54494   7.268   5.496   3.329 -0.7164  0.2536  0.1781
17496SOL    HW154495   7.322   5.421   3.357  1.4324  2.4190  2.3500
17496SOL    HW254496   7.197   5.499   3.394  0.5395  1.3860  1.5772
17497SOL     OW54497   0.859   0.830   0.827  0.2574 -0.2674  0.0081
17497SOL    HW154498   0.791   0.897   0.833 -0.7830 -1.2791 -0.0355
17497SOL    HW254499   0.876   0.822   0.733 -0.8869 -1.2512 -0.1445
17498SOL     OW54500   1.062  10.454   2.693  0.1799 -0.1794  0.5520
17498SOL    HW154501   1.097  10.543   2.683 -1.9506  0.4698 -2.0971
17498SOL    HW254502   1.091  10.427   2.781  1.0215  3.0460  1.3968
17499SOL     OW54503   2.440   8.038   1.458 -0.5216 -0.2455  0.5993
17499SOL    HW154504   2.471   8.127   1.447 -0.9832 -0.1840 -0.3236
17499SOL    HW254505   2.509   7.994   1.507  1.3522 -0.2789 -1.8733
17500SOL     OW54506   6.556   1.448   4.391 -0.2615 -0.2196 -0.0682
17500SOL    HW154507   6.534   1.357   4.409  0.2964 -0.8864 -2.3686
17500SOL    HW254508   6.539   1.458   4.297 -1.0870  2.2917  0.2698
17501SOL     OW54509   9.129  10.223  10.775  0.4026 -0.6676 -0.1091
17501SOL    HW154510   9.190  10.179  10.715  1.6548 -0.4055  0.9446
17501SOL    HW254511   9.155  10.315  10.773 -1.8576  0.0210 -1.8763
17502SOL     OW54512   5.921   0.319   2.342 -0.3597  0.2391 -0.3580
17502SOL    HW154513   6.013   0.331   2.318  0.6707 -2.5560  1.6553
17502SOL    HW254514   5.906   0.383   2.412  0.0079  0.7322 -0.7215
17503SOL     OW54515   3.169   7.490   3.776 -0.2496 -0.1443 -0.1422
17503SOL    HW154516   3.252   7.517   3.816  0.3344 -1.9858 -0.0508
17503SOL    HW254517   3.128   7.572   3.748  0.3964  1.0372  2.1314
17504SOL     OW54518   3.908   2.194   0.805 -0.1833 -0.0407  0.4269
17504SOL    HW154519   3.876   2.153   0.885 -1.3060  2.1059  1.1458
17504SOL    HW254520   3.829   2.220   0.757  0.4565  1.2900  0.0364
17505SOL     OW54521   9.071  10.463   0.484 -0.8186  0.5133  0.0458
17505SOL    HW154522   9.113  10.447   0.399 -0.6726 -0.5814  0.3124
17505SOL    HW254523   9.119  10.408   0.545 -0.4699  1.8124  0.9933
17506SOL     OW54524   7.358   8.119   8.407 -0.0203 -0.7065  0.4799
17506SOL    HW154525   7.281   8.129   8.464  0.1577  1.5488  0.4303
17506SOL    HW254526   7.389   8.031   8.424 -2.0562 -1.3469  1.2217
17507SOL     OW54527   2.332   3.689   1.710 -0.0999  0.8412  0.0296
17507SOL    HW154528   2.247   3.671   1.751 -0.5117 -1.6027 -1.6827
17507SOL    HW254529   2.397   3.657   1.772 -0.4540  1.6076  0.8176
17508SOL     OW54530   9.937   2.387   2.849 -0.3137  0.5756 -0.1265
17508SOL    HW154531  10.016   2.391   2.902 -0.3979  3.2668 -0.0729
17508SOL    HW254532   9.956   2.441   2.772 -1.6084  0.0952 -0.8260
17509SOL     OW54533  10.247   0.694   9.698  0.2641 -0.1312 -0.9174
17509SOL    HW154534  10.273   0.632   9.630 -0.6567 -0.1307 -1.2771
17509SOL    HW254535  10.152   0.700   9.691 -0.1203 -1.5971  1.6289
17510SOL     OW54536   4.997   9.903  10.693  0.4700 -0.1132 -0.0799
17510SOL    HW154537   4.953   9.850  10.626  0.1819 -0.5894  0.4813
17510SOL    HW254538   5.084   9.865  10.701 -0.1652 -1.3921  1.2755
17511SOL     OW54539   0.756   0.413   8.579  0.1769  0.1603 -0.1346
17511SOL    HW154540   0.722   0.338   8.530 -0.7087  1.0556 -0.9337
17511SOL    HW254541   0.723   0.490   8.531 -3.3163  1.2053  3.4394
17512SOL     OW54542   6.528   9.067   8.559  0.4173 -0.0246  0.3180
17512SOL    HW154543   6.531   9.150   8.606 -4.3107  0.0177  1.0664
17512SOL    HW254544   6.434   9.048   8.550  1.1793 -3.5251 -3.0320
17513SOL     OW54545   6.245   8.468   6.818 -0.0665  0.2900  0.2450
17513SOL    HW154546   6.304   8.470   6.894  1.0070  0.5179 -0.5818
17513SOL    HW254547   6.222   8.375   6.808  0.7178  0.1071  0.1377
17514SOL     OW54548   1.099   4.823   1.769 -0.0127 -0.4069  0.0145
17514SOL    HW154549   1.188   4.800   1.744  0.3626  1.4076 -0.4066
17514SOL    HW254550   1.101   4.830   1.864  0.0749 -1.1682  0.0766
17515SOL     OW54551   9.518   9.350   7.615  0.0589  0.3416 -1.0980
17515SOL    HW154552   9.482   9.417   7.673 -0.4833 -0.2083 -0.7984
17515SOL    HW254553   9.609   9.342   7.642 -0.8119 -1.8666  1.5778
17516SOL     OW54554   3.245   3.725   4.507  0.2550  0.0782  0.0387
17516SOL    HW154555   3.329   3.752   4.543  0.0847  0.0430  0.4652
17516SOL    HW254556   3.262   3.641   4.464  0.1115 -0.7328  1.5018
17517SOL     OW54557   9.716   0.675   4.887  0.1787 -0.0469 -0.0438
17517SOL    HW154558   9.640   0.643   4.935 -0.5739 -1.1989 -1.8905
17517SOL    HW254559   9.680   0.737   4.823  0.8650 -0.1011 -0.4969
17518SOL     OW54560   2.578   9.045   7.994  0.0277 -0.8979  0.1460
17518SOL    HW154561   2.568   9.139   8.011 -0.0373 -0.2999 -2.7960
17518SOL    HW254562   2.673   9.032   7.989  0.0187 -0.7009 -0.7056
17519SOL     OW54563   5.248   4.480   7.286 -0.2688 -0.1144  0.0197
17519SOL    HW154564   5.316   4.424   7.247 -1.1504 -2.1557  1.2468
17519SOL    HW254565   5.172   4.423   7.294 -1.1243  1.1794  1.6483
17520SOL     OW54566   5.408   0.680   0.920  0.0075 -0.2243 -0.0634
17520SOL    HW154567   5.496   0.655   0.891  0.2540  0.4582  0.0562
17520SOL    HW254568   5.380   0.745   0.855  0.5619  1.3179  1.1827
17521SOL     OW54569  10.711  10.246   0.430 -0.2883 -0.3286  0.1804
17521SOL    HW154570  10.636  10.236   0.489 -0.8793  0.3799 -0.4123
17521SOL    HW254571  10.675  10.226   0.343  0.3274 -0.4151 -0.0586
17522SOL     OW54572   6.033   1.950   7.655 -0.2319  0.1912  0.4050
17522SOL    HW154573   5.990   1.992   7.581 -0.7032  2.1555  1.7105
17522SOL    HW254574   6.108   2.005   7.673  1.6335 -1.9208 -0.3899
17523SOL     OW54575   0.708  10.199   4.145 -0.6520  0.0925 -0.5717
17523SOL    HW154576   0.765  10.152   4.083 -0.0236 -1.0909  0.8483
17523SOL    HW254577   0.669  10.130   4.199 -0.9267  1.1090  0.5686
17524SOL     OW54578   7.032   6.817   7.884  0.2255 -0.3741 -0.1281
17524SOL    HW154579   6.958   6.871   7.911  1.9011  2.0857 -0.0490
17524SOL    HW254580   6.996   6.756   7.820 -1.5252  2.0131 -1.5621
17525SOL     OW54581  10.236  10.809   9.928 -0.6375  0.1362  0.5177
17525SOL    HW154582  10.237  10.870   9.854  0.2849 -1.1833 -0.6253
17525SOL    HW254583  10.316  10.830   9.977  0.0895 -0.5979 -0.3047
17526SOL     OW54584   1.518   8.600  11.094  0.2474  0.0205 -0.6097
17526SOL    HW154585   1.503   8.638  11.181  1.2516 -0.6666 -0.1077
17526SOL    HW254586   1.438   8.554  11.073  0.2382 -0.3726  0.2619
17527SOL     OW54587   9.681   7.313   9.075  0.1091 -0.4854  0.0027
17527SOL    HW154588   9.722   7.301   8.989  0.6730 -1.5696  0.3986
17527SOL    HW254589   9.587   7.305   9.058  0.2599 -1.9617 -0.3578
17528SOL     OW54590   1.844   0.769   0.277 -0.1217  0.1783 -0.1585
17528SOL    HW154591   1.826   0.854   0.236  0.0261  0.7068  0.8574
17528SOL    HW254592   1.885   0.718   0.207  1.3039  1.4964 -0.3503
17529SOL     OW54593   8.118  10.637   0.711  0.7942  0.4421  0.1140
17529SOL    HW154594   8.139  10.647   0.804 -0.4339  0.0067  0.4580
17529SOL    HW254595   8.054  10.707   0.694  0.2368 -0.1264 -0.1417
17530SOL     OW54596   5.208   2.982   2.770  0.1554 -0.0504  0.1483
17530SOL    HW154597   5.229   2.891   2.748  1.2918  0.3581 -0.5554
17530SOL    HW254598   5.230   2.990   2.863  1.9857  0.0013 -0.2486
17531SOL     OW54599   9.107   3.840   1.642 -0.1279 -0.7587  0.2485
17531SOL    HW154600   9.064   3.903   1.584 -0.8032 -0.4072  1.1019
17531SOL    HW254601   9.069   3.857   1.728  1.2373 -0.8961  0.9099
17532SOL     OW54602   7.063   7.312   3.838 -0.2290  0.4831  0.5332
17532SOL    HW154603   6.989   7.325   3.779 -0.0204  2.6239  0.6376
17532SOL    HW254604   7.126   7.379   3.810  1.2116 -0.5673  1.1547
17533SOL     OW54605   1.403   9.356   2.511  0.3083  0.1125 -0.3789
17533SOL    HW154606   1.446   9.402   2.584  0.4054  0.4247 -0.6316
17533SOL    HW254607   1.379   9.271   2.548 -0.9382  0.7896  0.4440
17534SOL     OW54608   7.225   3.030   2.049  0.0810 -0.7187  0.0704
17534SOL    HW154609   7.243   2.938   2.068  1.4801 -0.2344  1.3197
17534SOL    HW254610   7.312   3.068   2.032 -0.4790  0.3626 -0.4852
17535SOL     OW54611  10.703   4.906   8.356 -0.1298 -0.4568 -0.0222
17535SOL    HW154612  10.646   4.951   8.293  0.4673 -0.5376 -0.6207
17535SOL    HW254613  10.724   4.823   8.314  0.8085 -0.2327 -0.0070
17536SOL     OW54614  11.075   4.399  11.080  0.1228  0.3384  0.2564
17536SOL    HW154615  11.108   4.378  10.993 -0.6757 -0.5566  0.1513
17536SOL    HW254616  11.138   4.360  11.140  0.5943  0.8255  0.0861
17537SOL     OW54617   2.409   2.875  10.005  0.2533  0.4079 -0.4259
17537SOL    HW154618   2.471   2.947   9.989 -0.4764  0.8026 -1.5730
17537SOL    HW254619   2.357   2.905  10.080  1.1868  0.2185  0.3342
17538SOL     OW54620   3.498   4.414   7.416 -0.5316 -0.1609 -0.1429
17538SOL    HW154621   3.544   4.374   7.489  0.2203  0.6040 -0.1807
17538SOL    HW254622   3.548   4.389   7.338 -1.9169 -1.8460 -0.5491
17539SOL     OW54623  10.997   7.856   8.681 -0.0916  0.0746 -0.4973
17539SOL    HW154624  10.931   7.788   8.667  0.9059 -0.8919 -0.6952
17539SOL    HW254625  10.947   7.935   8.702 -1.2655 -0.8540  0.3302
17540SOL     OW54626   7.708   5.552   9.005  0.3863 -0.0213  0.1979
17540SOL    HW154627   7.778   5.500   8.966  0.6911  0.7473 -0.3215
17540SOL    HW254628   7.728   5.642   8.979  0.6386  0.5414  2.2161
17541SOL     OW54629   0.167   2.334   9.289 -0.2857 -0.4903 -0.0013
17541SOL    HW154630   0.250   2.378   9.272 -0.8705  0.2781 -0.9644
17541SOL    HW254631   0.177   2.247   9.252  1.0623 -1.4473  2.3578
17542SOL     OW54632   8.566   7.197   3.105  0.3033  0.3979  0.7862
17542SOL    HW154633   8.512   7.276   3.101 -1.1212 -0.5106  1.2571
17542SOL    HW254634   8.530   7.141   3.036  4.6283  2.0436 -3.3287
17543SOL     OW54635   3.109   0.176   8.319 -0.2133  0.1802 -0.5533
17543SOL    HW154636   3.120   0.267   8.344  0.3544  0.1935 -0.8400
17543SOL    HW254637   3.071   0.134   8.396 -3.3869  1.2412 -1.3826
17544SOL     OW54638   7.275   1.725   7.654 -0.0668 -0.1975 -0.3970
17544SOL    HW154639   7.350   1.778   7.625  1.0895 -2.3060 -1.4776
17544SOL    HW254640   7.227   1.706   7.574 -0.2705 -1.0337 -0.0863
17545SOL     OW54641   2.235   3.236   1.060 -0.3696  0.3381 -1.0017
17545SOL    HW154642   2.303   3.235   1.127 -0.5414 -0.7180 -0.8173
17545SOL    HW254643   2.230   3.145   1.029 -0.8265  0.6477 -1.9040
17546SOL     OW54644   3.426   5.230   4.368 -0.6109  0.6757  0.2371
17546SOL    HW154645   3.360   5.236   4.438  1.0125  0.9039  1.8202
17546SOL    HW254646   3.377   5.198   4.292 -1.6621 -4.3791  2.6158
17547SOL     OW54647   0.331   7.311   3.743  0.1271 -0.2841 -0.3269
17547SOL    HW154648   0.303   7.232   3.789  1.0875 -0.6136 -0.2839
17547SOL    HW254649   0.255   7.369   3.747  0.1987 -0.2605  1.7290
17548SOL     OW54650   8.291   7.895   2.440 -0.5228 -0.0655  0.0766
17548SOL    HW154651   8.323   7.967   2.386  0.1728  0.4457  1.1468
17548SOL    HW254652   8.227   7.851   2.384 -0.9527  1.3544 -0.6052
17549SOL     OW54653   7.295   8.978  10.386  0.8030 -0.7709 -0.4097
17549SOL    HW154654   7.347   9.055  10.364  2.0859 -1.7134 -0.7634
17549SOL    HW254655   7.301   8.923  10.308  0.0323 -1.3209 -0.0927
17550SOL     OW54656   7.624   8.474   7.869  0.1832  0.2153 -0.0612
17550SOL    HW154657   7.530   8.461   7.860 -0.1526  3.0638 -2.1887
17550SOL    HW254658   7.643   8.453   7.960 -2.5368 -0.1862  0.5030
17551SOL     OW54659   7.738   8.854   0.812  0.2997  0.3098  0.2429
17551SOL    HW154660   7.733   8.783   0.747 -0.0778  0.0305  0.5631
17551SOL    HW254661   7.828   8.885   0.807  1.1926 -1.7991  1.7527
17552SOL     OW54662   2.386   4.235   7.752 -0.4461  0.0143 -0.5249
17552SOL    HW154663   2.454   4.215   7.818 -0.2793 -0.8723 -0.9469
17552SOL    HW254664   2.309   4.256   7.804  0.0485  0.6759 -0.0355
17553SOL     OW54665   4.226   0.488   0.016  0.3215 -0.0033 -0.1774
17553SOL    HW154666   4.168   0.457   0.086  1.5153 -2.7615 -0.2679
17553SOL    HW254667   4.283   0.552   0.059 -0.9713  0.6749  0.5739
17554SOL     OW54668   9.378   7.045   6.072  0.0884  0.4079  0.7110
17554SOL    HW154669   9.336   7.130   6.065 -0.1745  0.4453  2.3636
17554SOL    HW254670   9.320   6.993   6.127 -0.5276 -1.3826 -1.4493
17555SOL     OW54671   1.090   4.454   4.905 -0.2010 -0.7906  0.0646
17555SOL    HW154672   1.153   4.508   4.857  1.2689 -0.7107  1.9823
17555SOL    HW254673   1.105   4.365   4.872  0.7557 -0.7295  0.3018
17556SOL     OW54674   4.761   2.414   1.358  0.4446  0.2227  0.1967
17556SOL    HW154675   4.712   2.336   1.382  1.8241 -0.2687  1.5991
17556SOL    HW254676   4.842   2.381   1.319 -0.1032  1.0110 -1.7257
17557SOL     OW54677   0.550   4.756   5.599  0.2978  0.6137  0.5125
17557SOL    HW154678   0.523   4.665   5.611  2.6512  0.0677  2.2894
17557SOL    HW254679   0.468   4.803   5.584 -0.8758 -1.9424 -1.9015
17558SOL     OW54680   2.819   5.135   6.250 -0.0153 -0.3583 -0.0949
17558SOL    HW154681   2.764   5.076   6.198 -0.0808 -0.0053 -0.4347
17558SOL    HW254682   2.852   5.080   6.321 -1.4557 -0.3932  0.5933
17559SOL     OW54683   4.549   5.093   2.791  0.0308 -0.2369  0.5655
17559SOL    HW154684   4.558   5.059   2.880  0.6790  1.5853  1.2397
17559SOL    HW254685   4.632   5.072   2.749 -0.9915 -2.9126 -0.3468
17560SOL     OW54686   9.898   7.032   5.668  0.9840 -0.6786 -0.3513
17560SOL    HW154687   9.859   6.996   5.588 -0.2601  0.2264 -0.1758
17560SOL    HW254688   9.866   6.975   5.738 -0.4555  0.3295 -0.1521
17561SOL     OW54689   9.229   9.375   8.739 -0.5326  0.3226  0.2708
17561SOL    HW154690   9.171   9.316   8.692 -0.2384 -1.3559  1.9165
17561SOL    HW254691   9.181   9.458   8.743 -0.8223  0.3587 -2.3509
17562SOL     OW54692  10.595   0.463   9.255  0.4547 -0.1054  0.8045
17562SOL    HW154693  10.650   0.410   9.198 -1.7047 -0.1489 -1.3719
17562SOL    HW254694  10.657   0.521   9.300  2.5494 -2.2766  0.9100
17563SOL     OW54695   3.064   1.168   1.223  0.1292 -0.0364  0.4751
17563SOL    HW154696   3.127   1.228   1.261  1.2683 -0.5372 -0.5441
17563SOL    HW254697   3.055   1.098   1.288  1.7282 -0.6766  0.0576
17564SOL     OW54698   1.479   3.362   6.541  0.0527 -0.3796  0.1095
17564SOL    HW154699   1.413   3.348   6.473  0.5693  1.5620 -0.8611
17564SOL    HW254700   1.443   3.432   6.595  0.4315 -0.7153  0.8117
17565SOL     OW54701   3.500   5.943   7.002 -0.1382 -0.1815 -0.2362
17565SOL    HW154702   3.584   5.983   7.024  0.5209 -2.6423  2.3149
17565SOL    HW254703   3.495   5.865   7.057 -3.4685 -0.9568 -1.3758
17566SOL     OW54704   8.641   1.051   6.805  0.1371  0.3070 -0.1603
17566SOL    HW154705   8.646   1.051   6.900 -0.4937  0.7426 -0.1171
17566SOL    HW254706   8.613   1.140   6.782 -1.9317 -0.3949 -0.6005
17567SOL     OW54707   8.274   7.346   0.252 -0.3992 -0.2104 -0.1183
17567SOL    HW154708   8.343   7.412   0.260 -0.9528  0.4218 -0.5393
17567SOL    HW254709   8.235   7.362   0.167 -0.8862 -0.7482 -0.0011
17568SOL     OW54710   2.477   7.814  10.407 -0.3843  0.1145 -0.5106
17568SOL    HW154711   2.393   7.777  10.436 -0.1938  0.0621 -0.0149
17568SOL    HW254712   2.474   7.904  10.438 -0.4028  0.2130 -0.7984
17569SOL     OW54713   4.437   8.523   3.535 -0.1669  0.6939 -0.2527
17569SOL    HW154714   4.419   8.517   3.628  0.6628  0.1536 -0.1243
17569SOL    HW254715   4.424   8.434   3.502  3.1122 -0.0147  0.0224
17570SOL     OW54716   6.320   2.216   6.111 -0.1286 -0.7059 -0.4022
17570SOL    HW154717   6.244   2.273   6.116 -0.2288 -0.9110  0.6562
17570SOL    HW254718   6.285   2.130   6.087 -0.7596 -1.6536  3.3001
17571SOL     OW54719   9.848   3.576   0.414  0.2200 -0.1222 -0.6576
17571SOL    HW154720   9.802   3.649   0.373  2.1149  0.2794 -2.1796
17571SOL    HW254721   9.828   3.501   0.359  0.0252 -0.3042 -0.3407
17572SOL     OW54722  10.912   0.577   4.629 -0.1077 -0.0614 -0.3112
17572SOL    HW154723  10.886   0.554   4.718 -1.6850  0.5027 -0.5874
17572SOL    HW254724  10.854   0.649   4.606  1.3902  0.9075 -1.2183
17573SOL     OW54725   2.784   2.988   3.433 -0.1171 -0.1335 -0.1530
17573SOL    HW154726   2.710   3.032   3.390  1.0479 -0.0351 -2.1735
17573SOL    HW254727   2.853   3.054   3.433  0.8587 -1.1246 -0.9417
17574SOL     OW54728   6.331  10.160   0.532 -0.1146  0.2473  0.6586
17574SOL    HW154729   6.289  10.246   0.537 -1.2521 -0.2382 -0.0421
17574SOL    HW254730   6.300  10.113   0.609 -0.5185  0.0401  0.3740
17575SOL     OW54731   8.649   9.204   7.423  0.2146  0.6219 -0.5440
17575SOL    HW154732   8.723   9.243   7.376  0.9439  0.2583  0.2655
17575SOL    HW254733   8.634   9.263   7.497  0.9735 -0.3168  0.3839
17576SOL     OW54734   7.914   0.349   7.806  0.3808 -0.3247 -0.0922
17576SOL    HW154735   7.906   0.384   7.895  0.7456 -0.1174 -0.1394
17576SOL    HW254736   7.867   0.266   7.809 -1.8081  0.8238 -0.3618
17577SOL     OW54737   5.031  10.512  10.736  0.2451 -0.0180  0.0566
17577SOL    HW154738   4.966  10.452  10.771 -0.5733  1.5193  1.3186
17577SOL    HW254739   5.109  10.459  10.723 -1.0000 -1.7429 -0.7400
17578SOL     OW54740   0.363   8.353   1.395 -0.6036 -0.5117  0.1796
17578SOL    HW154741   0.279   8.310   1.377 -0.8041  0.5914 -1.6412
17578SOL    HW254742   0.416   8.284   1.436 -1.1740 -2.3121 -1.9307
17579SOL     OW54743   3.596   8.427   8.643  0.8834  0.1497  0.7787
17579SOL    HW154744   3.596   8.405   8.736  4.7832 -1.3991  0.6084
17579SOL    HW254745   3.570   8.346   8.599  0.3996  0.4689  0.4626
17580SOL     OW54746  10.753   7.451   5.605 -0.2679 -0.3306  0.2335
17580SOL    HW154747  10.794   7.439   5.690  0.7969 -1.1435 -0.3561
17580SOL    HW254748  10.801   7.391   5.547 -2.0315 -1.0025 -0.5996
17581SOL     OW54749   8.863   8.830   5.000 -0.3100 -0.6073 -0.0892
17581SOL    HW154750   8.879   8.788   5.085 -0.2289 -1.5822 -0.5700
17581SOL    HW254751   8.858   8.757   4.938 -2.8765 -0.1229 -0.5516
17582SOL     OW54752   2.463   0.170  10.093 -0.0801 -0.6051 -0.1619
17582SOL    HW154753   2.537   0.140  10.146  1.3109 -0.8153 -2.1055
17582SOL    HW254754   2.397   0.101  10.103 -0.5789  0.1621  2.5548
17583SOL     OW54755   0.833   3.031   5.587 -0.5186 -0.1209  0.5129
17583SOL    HW154756   0.813   3.113   5.541  0.0177 -0.9259 -1.2294
17583SOL    HW254757   0.881   2.979   5.524 -0.1542 -1.4917  1.8625
17584SOL     OW54758   0.338   9.674   2.437  0.7209 -1.1112 -0.1853
17584SOL    HW154759   0.425   9.694   2.471  0.3916  0.7017 -0.3127
17584SOL    HW254760   0.290   9.757   2.442 -0.0077 -1.2442 -3.0522
17585SOL     OW54761   2.976  10.113   7.044  0.2155  0.3085 -0.2540
17585SOL    HW154762   2.940  10.162   6.969 -2.0176  0.4231  0.8159
17585SOL    HW254763   2.957  10.169   7.120  1.0068 -0.5294  0.5751
17586SOL     OW54764   0.773   9.457   0.616  0.4546 -0.1705 -0.2204
17586SOL    HW154765   0.758   9.415   0.700 -0.6264 -1.7397 -1.1448
17586SOL    HW254766   0.865   9.438   0.596  0.1662 -1.6248 -0.3134
17587SOL     OW54767   8.894   8.478   0.839 -0.6724 -0.1084 -0.1727
17587SOL    HW154768   8.931   8.497   0.753 -2.4796  0.3351 -0.9117
17587SOL    HW254769   8.826   8.545   0.851 -0.1552  0.1225  1.8165
17588SOL     OW54770   6.186   9.479   9.477 -0.5086  0.1787 -0.7224
17588SOL    HW154771   6.262   9.525   9.512  0.2087 -0.5599 -1.2765
17588SOL    HW254772   6.222   9.417   9.414 -1.5710 -0.2049 -0.9772
17589SOL     OW54773  10.934   2.550   3.239  0.0587  0.0486  0.2250
17589SOL    HW154774  10.919   2.459   3.266 -0.7008 -0.1631 -0.8553
17589SOL    HW254775  11.011   2.546   3.182  2.0328  0.5797  2.6882
17590SOL     OW54776  10.767   8.805   7.509  0.2740  0.7160 -0.0345
17590SOL    HW154777  10.739   8.737   7.448 -0.3959  0.4929  0.5147
17590SOL    HW254778  10.805   8.758   7.582  1.7719  1.0083 -0.5941
17591SOL     OW54779   6.154   5.796  10.373 -0.6044 -0.0155 -0.3582
17591SOL    HW154780   6.142   5.766  10.282  0.7330 -0.5007 -0.3912
17591SOL    HW254781   6.209   5.873  10.365  2.7188 -2.1321  0.2004
17592SOL     OW54782   8.216   9.058   0.462 -0.3034  0.4108 -0.2171
17592SOL    HW154783   8.177   9.105   0.536 -1.0416  0.1501 -0.4388
17592SOL    HW254784   8.180   9.100   0.384 -0.7498 -0.3248 -0.4188
17593SOL     OW54785   8.049   2.992   9.312 -0.3950 -0.5583  0.4932
17593SOL    HW154786   8.016   2.905   9.292 -3.3843  0.3718  0.8948
17593SOL    HW254787   7.975   3.051   9.296  1.5797  1.9755 -0.0149
17594SOL     OW54788   6.559   8.858   5.316 -0.7791  0.0309  0.1936
17594SOL    HW154789   6.582   8.766   5.327  0.2178  0.0747 -1.1513
17594SOL    HW254790   6.574   8.875   5.223 -2.6853  1.1016  0.0185
17595SOL     OW54791   8.606   6.200   7.552  0.1972 -0.2566 -0.5410
17595SOL    HW154792   8.581   6.208   7.644  1.8048  0.0014 -0.1005
17595SOL    HW254793   8.549   6.263   7.507  0.0212  0.2733  0.3926
17596SOL     OW54794   8.518   5.150   1.806  0.4492  0.3922 -1.1912
17596SOL    HW154795   8.491   5.107   1.725  0.7018 -0.4482 -0.8363
17596SOL    HW254796   8.437   5.162   1.855  0.5562 -1.3932 -0.4829
17597SOL     OW54797   3.012   3.861   0.247 -0.0970 -0.0146 -0.0591
17597SOL    HW154798   3.058   3.795   0.195  2.7829  1.2380  0.6687
17597SOL    HW254799   3.017   3.828   0.337  2.7187  1.6990  0.5422
17598SOL     OW54800   3.208   5.694   5.507  0.1800  0.0709  0.3890
17598SOL    HW154801   3.148   5.696   5.433  0.9911 -1.3180 -0.3562
17598SOL    HW254802   3.151   5.697   5.584 -0.8555 -1.0943 -0.2925
17599SOL     OW54803   7.411   1.136   7.622  0.4751  0.3580  0.4280
17599SOL    HW154804   7.460   1.194   7.681  1.9406  1.5933 -1.8289
17599SOL    HW254805   7.467   1.128   7.544 -1.8141 -0.2400 -1.2801
17600SOL     OW54806   9.079   5.140   5.028 -0.5283  0.1397  0.1579
17600SOL    HW154807   9.007   5.084   5.057 -0.7666  0.1792 -0.3328
17600SOL    HW254808   9.045   5.182   4.949  0.3597 -0.5517 -0.6135
17601SOL     OW54809   5.689   9.257   7.843 -0.3986  0.5617  0.0327
17601SOL    HW154810   5.621   9.261   7.776 -0.6472  2.2087  0.3341
17601SOL    HW254811   5.770   9.240   7.795 -0.5337  1.9468 -0.7358
17602SOL     OW54812   4.248   3.592   6.052  0.0265  0.1182 -0.1754
17602SOL    HW154813   4.244   3.498   6.034 -0.7462 -0.1637  1.3093
17602SOL    HW254814   4.309   3.626   5.987  0.2875 -1.4016 -0.7741
17603SOL     OW54815  10.270   9.055   3.273  0.0410 -0.4728  0.0549
17603SOL    HW154816  10.199   9.007   3.316  0.8347 -1.2855  0.5048
17603SOL    HW254817  10.348   9.002   3.291  0.3358 -1.2040 -2.8723
17604SOL     OW54818  10.235   0.923   3.147  0.2402  0.0645  0.8631
17604SOL    HW154819  10.185   1.004   3.138  0.6114  0.1100 -1.2120
17604SOL    HW254820  10.267   0.924   3.237 -1.2469  1.3344  1.4173
17605SOL     OW54821   6.059   9.493   5.296  0.1410  0.0307  0.3744
17605SOL    HW154822   6.145   9.480   5.337 -0.3091 -0.9031  1.0498
17605SOL    HW254823   5.997   9.459   5.360 -0.5473 -2.1583 -1.3107
17606SOL     OW54824   7.214   4.810   3.202 -0.0514 -0.0407  0.1512
17606SOL    HW154825   7.122   4.803   3.224  0.2870 -2.9372  1.1167
17606SOL    HW254826   7.246   4.884   3.254 -1.6069  0.3707  0.5753
17607SOL     OW54827   8.883   5.520   0.791  0.7662 -1.0635 -0.7709
17607SOL    HW154828   8.969   5.553   0.764  0.6236 -0.0293 -0.0144
17607SOL    HW254829   8.891   5.508   0.885 -1.3560  3.9788  0.3619
17608SOL     OW54830   9.401   4.876   7.241  0.0717  0.6819 -0.4216
17608SOL    HW154831   9.452   4.808   7.198 -1.6255 -0.9589 -0.0076
17608SOL    HW254832   9.317   4.876   7.195 -1.4332 -0.4013  2.0566
17609SOL     OW54833   8.228   5.654   6.906 -0.0054 -0.3016  0.4950
17609SOL    HW154834   8.196   5.622   6.821 -1.5704 -0.1193  0.9929
17609SOL    HW254835   8.214   5.581   6.966 -0.7839  0.2623  1.0088
17610SOL     OW54836   6.376   1.529   0.945  0.4909  0.4334 -0.3040
17610SOL    HW154837   6.365   1.439   0.976 -0.0616  0.2607 -0.9773
17610SOL    HW254838   6.430   1.570   1.012  2.3985 -0.9197 -0.9283
17611SOL     OW54839   2.032  10.320   6.826 -0.2351 -0.1792 -0.4592
17611SOL    HW154840   2.101  10.372   6.866 -0.1700 -0.9957  0.5157
17611SOL    HW254841   2.027  10.352   6.735  0.6746  0.6183 -0.2380
17612SOL     OW54842   0.485   0.523   5.206  0.1485  0.3777  0.5372
17612SOL    HW154843   0.456   0.613   5.221 -0.4279  0.3394 -0.2763
17612SOL    HW254844   0.557   0.531   5.142  0.2711  0.2782  0.6618
17613SOL     OW54845   9.225   3.199   8.001  0.6673 -0.2417  0.1051
17613SOL    HW154846   9.138   3.190   8.039  0.9087  1.0951  1.0568
17613SOL    HW254847   9.266   3.113   8.012  0.4487 -0.1158  2.1955
17614SOL     OW54848   4.033   1.421   4.948 -0.3332  0.5202  0.6188
17614SOL    HW154849   4.072   1.378   5.024  0.2231  1.4194  0.8696
17614SOL    HW254850   4.099   1.411   4.879 -1.6969 -2.1262 -0.4350
17615SOL     OW54851   4.891   0.416   5.764  0.1662  0.2808 -0.1725
17615SOL    HW154852   4.923   0.458   5.684  1.5039  0.6107  0.5008
17615SOL    HW254853   4.900   0.484   5.831  0.0638 -0.3288  0.4652
17616SOL     OW54854   0.399   5.003   9.211 -0.0379  0.0468 -0.8992
17616SOL    HW154855   0.443   5.067   9.155  0.5277  0.8824  0.4300
17616SOL    HW254856   0.308   5.033   9.216  0.0298  0.2680 -0.9791
17617SOL     OW54857   9.325  11.001   6.008  0.0904 -0.7592 -0.3773
17617SOL    HW154858   9.417  11.024   6.021  0.6085 -2.6641 -0.4257
17617SOL    HW254859   9.327  10.928   5.946 -1.6131  0.5884 -2.1509
17618SOL     OW54860   4.572   4.610   0.862 -0.0762 -0.0571  0.1256
17618SOL    HW154861   4.484   4.643   0.846 -0.6305 -1.6725 -0.4561
17618SOL    HW254862   4.558   4.523   0.900  1.2759  0.0059  0.8156
17619SOL     OW54863   3.525   3.271   7.843  0.1540  0.0303 -0.0702
17619SOL    HW154864   3.471   3.345   7.871  1.0492  1.0863 -1.0271
17619SOL    HW254865   3.543   3.288   7.751  0.3186 -1.4401 -0.3407
17620SOL     OW54866   4.027   1.999   1.396 -0.5443 -0.9470  0.2832
17620SOL    HW154867   4.077   2.011   1.314  0.4483  0.0437  1.0005
17620SOL    HW254868   4.095   1.987   1.463 -1.2433  0.7257  1.3410
17621SOL     OW54869   3.184   5.173   9.291 -0.3348 -0.3588  0.3184
17621SOL    HW154870   3.130   5.097   9.269 -0.5670 -0.0048 -0.3453
17621SOL    HW254871   3.274   5.141   9.285 -0.4300 -0.5678  0.0072
17622SOL     OW54872  11.018   5.913  11.095  0.5553  0.1340 -0.1594
17622SOL    HW154873  10.987   5.856  11.025  0.1966 -1.1400  1.0026
17622SOL    HW254874  11.108   5.934  11.070  0.2546  0.1692 -1.2728
17623SOL     OW54875   4.013   8.853   8.514 -0.1624  0.5876  0.5192
17623SOL    HW154876   3.991   8.808   8.596  0.1513  0.3120  0.4521
17623SOL    HW254877   4.097   8.895   8.532 -0.1306  0.5912  0.3632
17624SOL     OW54878   3.129  10.682   7.911 -0.7296  0.2391  0.1576
17624SOL    HW154879   3.048  10.712   7.871 -1.3706  0.3039  1.4568
17624SOL    HW254880   3.155  10.754   7.968 -0.5493 -0.3772  0.8652
17625SOL     OW54881   6.404   2.046   3.110  0.5335 -0.3139 -0.2670
17625SOL    HW154882   6.373   1.960   3.138  0.1684 -0.5853 -1.4728
17625SOL    HW254883   6.499   2.041   3.117  0.4684 -0.3732  0.8764
17626SOL     OW54884   5.499   6.470   4.264  0.3819  0.3225 -0.5665
17626SOL    HW154885   5.410   6.450   4.291  1.7068 -1.1321  3.4544
17626SOL    HW254886   5.517   6.409   4.193 -1.7784  0.7832 -1.5991
17627SOL     OW54887  10.327   5.730   3.952  0.2077  0.0227 -0.0136
17627SOL    HW154888  10.401   5.767   3.999 -0.5182  1.3948  0.1102
17627SOL    HW254889  10.252   5.784   3.979 -0.8095 -1.2069 -0.2664
17628SOL     OW54890  10.323  10.020   0.137 -0.0177  0.7339  0.0516
17628SOL    HW154891  10.352  10.087   0.075  1.3429 -0.5994 -0.8078
17628SOL    HW254892  10.284   9.952   0.083  1.4971 -0.6123  0.5625
17629SOL     OW54893   2.510   0.872   4.186  0.3931 -0.4981  0.4029
17629SOL    HW154894   2.514   0.776   4.190  0.0532 -0.6313 -1.5602
17629SOL    HW254895   2.432   0.891   4.134  0.6154  0.8444  0.5285
17630SOL     OW54896   6.364   5.455   1.070  0.0297 -0.2355  0.2133
17630SOL    HW154897   6.281   5.420   1.038 -0.1416  1.8892 -2.0086
17630SOL    HW254898   6.343   5.493   1.155 -0.9882 -0.7205  0.1948
17631SOL     OW54899   6.038   2.002   3.598  0.0536 -0.3702 -0.1026
17631SOL    HW154900   6.116   2.017   3.652 -0.3414  1.5888 -0.0024
17631SOL    HW254901   6.071   1.961   3.518  1.2066  0.4888 -0.0858
17632SOL     OW54902   7.862   1.148   7.015 -0.1561  0.1467 -0.0482
17632SOL    HW154903   7.836   1.131   6.925  0.8780  1.0924 -0.5631
17632SOL    HW254904   7.830   1.074   7.065  2.0230 -2.0918 -1.7202
17633SOL     OW54905   4.803   8.229   3.967  0.0352  0.5563 -0.0262
17633SOL    HW154906   4.862   8.240   3.892  0.1961 -3.3220 -0.6420
17633SOL    HW254907   4.850   8.269   4.040  0.1368  3.9029 -1.7208
17634SOL     OW54908   4.032   8.262   1.602  0.6125 -0.5174  0.3473
17634SOL    HW154909   4.115   8.302   1.627  1.2722 -2.1442  0.8626
17634SOL    HW254910   4.052   8.214   1.522 -0.3016  0.5696 -0.5751
17635SOL     OW54911  10.499   9.882   9.279  0.1678  0.3421  0.1561
17635SOL    HW154912  10.500   9.946   9.208  1.2658 -0.8746 -0.9851
17635SOL    HW254913  10.410   9.848   9.280  0.0413  0.6589 -0.3715
17636SOL     OW54914   7.943   8.683   8.582  0.0747 -0.0420  0.5915
17636SOL    HW154915   7.858   8.668   8.541  0.1050  1.6728 -0.1774
17636SOL    HW254916   8.006   8.661   8.513  0.2608 -0.9367  1.0339
17637SOL     OW54917   0.930   2.268   6.652 -0.0201  0.1935  0.1182
17637SOL    HW154918   0.922   2.209   6.577  0.7041 -0.2461  0.3779
17637SOL    HW254919   0.860   2.333   6.639 -1.5810 -1.3549  0.4323
17638SOL     OW54920   7.058  11.064   6.878 -0.4833  0.0746  0.2337
17638SOL    HW154921   6.993  11.118   6.831 -1.5046 -1.0187  0.3426
17638SOL    HW254922   7.039  11.079   6.970  0.1973  0.6541  0.2838
17639SOL     OW54923   3.973   9.096   5.264  0.5664 -0.5048 -0.3880
17639SOL    HW154924   4.050   9.052   5.300  0.4069  0.5744  1.3893
17639SOL    HW254925   4.001   9.187   5.253 -1.2951  0.7532  3.5171
17640SOL     OW54926   2.885   0.920   1.110 -0.6188  0.4408 -0.7540
17640SOL    HW154927   2.800   0.964   1.111 -1.0129 -0.2953  1.0714
17640SOL    HW254928   2.949   0.991   1.114 -1.1082  1.0001 -2.1273
17641SOL     OW54929   3.747   0.333   8.790 -0.3299 -0.2085  0.2752
17641SOL    HW154930   3.839   0.344   8.766 -0.0319 -0.2381  1.3681
17641SOL    HW254931   3.722   0.250   8.750  0.2134 -0.3604  0.2421
17642SOL     OW54932   6.561   3.374   9.329 -0.6462 -0.1214  0.3862
17642SOL    HW154933   6.541   3.311   9.399 -1.4269 -1.2894 -0.8523
17642SOL    HW254934   6.541   3.459   9.369 -0.4895 -0.7023  1.7835
17643SOL     OW54935   2.762   9.966   5.306 -0.5308  0.1209 -0.3040
17643SOL    HW154936   2.792   9.970   5.215 -0.6289 -1.8434 -0.4558
17643SOL    HW254937   2.785  10.052   5.342  0.2997  0.6259 -1.9193
17644SOL     OW54938   9.688   3.791   0.872 -0.3263  0.1058 -1.3809
17644SOL    HW154939   9.603   3.772   0.833 -1.0094 -0.9706  0.4655
17644SOL    HW254940   9.734   3.708   0.870 -0.3029  0.0684 -0.1638
17645SOL     OW54941   6.070   8.914   9.579  0.1758 -0.4262  0.1044
17645SOL    HW154942   5.978   8.939   9.586  1.0297  2.7257  2.0203
17645SOL    HW254943   6.109   8.979   9.521  1.5862 -0.4222  1.0081
17646SOL     OW54944   2.094   1.172   2.900  0.4341 -0.1385  0.0527
17646SOL    HW154945   2.005   1.201   2.919  0.3772  0.0819 -0.5351
17646SOL    HW254946   2.124   1.131   2.982  0.0349  0.3673  0.4610
17647SOL     OW54947   8.728   0.622   9.295 -0.5009 -0.1810  0.5575
17647SOL    HW154948   8.804   0.637   9.351  0.2604  1.3105 -0.7531
17647SOL    HW254949   8.708   0.709   9.259 -0.7218 -1.1055 -1.7011
17648SOL     OW54950  10.851   0.634   0.814  0.1686 -1.0469 -0.0383
17648SOL    HW154951  10.884   0.668   0.897  2.9385  0.2526 -1.5429
17648SOL    HW254952  10.806   0.709   0.773 -2.6757 -2.1160  0.8690
17649SOL     OW54953  10.649   8.149   3.286 -0.1752 -0.3813  0.1553
17649SOL    HW154954  10.708   8.163   3.212  0.4279  0.0819  0.7068
17649SOL    HW254955  10.562   8.172   3.253  0.0116 -0.6660 -0.5451
17650SOL     OW54956   8.402   2.429   8.124 -0.6486  0.1006  0.0583
17650SOL    HW154957   8.319   2.478   8.129 -0.8660 -0.4057  2.9815
17650SOL    HW254958   8.466   2.487   8.164  0.5530  0.5255 -2.2764
17651SOL     OW54959   8.765   3.960   6.219  0.2441  0.6214  0.1730
17651SOL    HW154960   8.781   3.875   6.260 -0.7470  0.6703  0.7033
17651SOL    HW254961   8.829   4.018   6.258  0.0675  0.4039  0.8115
17652SOL     OW54962  10.558   4.958   4.736 -0.7274 -0.2218  0.4036
17652SOL    HW154963  10.648   4.942   4.708 -0.4730 -2.0405  2.0295
17652SOL    HW254964  10.558   5.049   4.765  0.4974 -0.1092  0.1143
17653SOL     OW54965   6.643   9.703   4.363  0.2071  0.9469  0.1666
17653SOL    HW154966   6.737   9.687   4.371  0.5583  2.6157 -0.3108
17653SOL    HW254967   6.636   9.791   4.327 -1.5525  1.1000  0.7652
17654SOL     OW54968  10.215   2.169   1.337  0.1396  0.0851  0.0303
17654SOL    HW154969  10.235   2.078   1.357  2.3940  1.0213  2.6695
17654SOL    HW254970  10.297   2.205   1.305 -0.8429  1.1388 -1.4374
17655SOL     OW54971   1.599   7.485  10.031 -0.3648  0.3749  0.5756
17655SOL    HW154972   1.562   7.572  10.015 -1.3292  0.0293  0.8912
17655SOL    HW254973   1.602   7.477  10.126 -2.4913 -0.8251  0.6014
17656SOL     OW54974   2.267   7.888   0.642 -0.2910 -0.0288 -0.5888
17656SOL    HW154975   2.290   7.805   0.684  1.0790 -0.7846 -2.6882
17656SOL    HW254976   2.330   7.950   0.678  0.7600 -0.6299 -1.3293
17657SOL     OW54977   3.594   8.202   7.215  0.5491 -0.1059  0.0806
17657SOL    HW154978   3.499   8.215   7.208  0.6816  2.8004  1.9147
17657SOL    HW254979   3.631   8.287   7.192  2.5138 -0.3465  2.0179
17658SOL     OW54980   4.994   9.424   2.370 -0.1513 -0.2833  0.3491
17658SOL    HW154981   4.916   9.418   2.425 -2.2803 -0.4436 -2.4732
17658SOL    HW254982   5.064   9.387   2.424 -1.5279  1.5324  3.7071
17659SOL     OW54983   5.792   7.925   0.369 -0.0894 -0.2535  0.3018
17659SOL    HW154984   5.885   7.901   0.370  0.2051  0.8314  0.9644
17659SOL    HW254985   5.787   8.000   0.310 -0.1224  1.1249  1.9615
17660SOL     OW54986  10.744   4.766   0.281 -0.3868 -0.2391 -0.2284
17660SOL    HW154987  10.720   4.765   0.373 -1.3148  0.2544 -0.4536
17660SOL    HW254988  10.719   4.680   0.248  0.8093 -0.7616  0.1766
17661SOL     OW54989   4.053   1.997   8.025  0.6011 -1.1040  0.5806
17661SOL    HW154990   4.133   2.024   7.982  0.0180 -1.2700 -0.6516
17661SOL    HW254991   4.015   1.932   7.966 -0.3721 -1.1102  1.1936
17662SOL     OW54992   6.180   6.397   4.691 -0.0918 -0.1531  0.0995
17662SOL    HW154993   6.258   6.439   4.727 -1.1333 -0.5535  3.1415
17662SOL    HW254994   6.186   6.306   4.721 -0.3272 -0.9436 -2.1254
17663SOL     OW54995   3.292   8.302   6.350  0.5062  0.7746 -0.2567
17663SOL    HW154996   3.302   8.396   6.362  2.0463  0.4686  1.1353
17663SOL    HW254997   3.346   8.263   6.418 -0.2684 -1.1331 -0.6691
17664SOL     OW54998   0.230   5.954  10.607  0.7505 -0.9889  0.1839
17664SOL    HW154999   0.255   5.875  10.656 -0.7185 -1.2645  0.5385
17664SOL    HW255000   0.297   6.018  10.630  1.0771 -1.6508  1.1614
17665SOL     OW55001   3.733   2.822   0.085  0.3086 -0.7121 -1.0072
17665SOL    HW155002   3.820   2.856   0.065  0.4704 -1.3558 -1.4330
17665SOL    HW255003   3.729   2.819   0.180  0.6708 -0.4867 -0.9843
17666SOL     OW55004   1.807  10.386   9.670 -0.5864  0.1208 -0.3011
17666SOL    HW155005   1.729  10.396   9.724  0.5304  3.0418  0.9858
17666SOL    HW255006   1.784  10.428   9.587  0.2769  3.3975  0.9673
17667SOL     OW55007   4.053   8.603   8.386 -0.6373  0.0256  0.1452
17667SOL    HW155008   3.977   8.563   8.428 -0.3599  1.1997  1.8968
17667SOL    HW255009   4.070   8.682   8.438  1.2872  0.2224 -0.6979
17668SOL     OW55010   8.313  10.769   8.940 -0.2576 -0.0442  0.4218
17668SOL    HW155011   8.280  10.810   9.020 -0.5935  0.7340 -0.0991
17668SOL    HW255012   8.403  10.743   8.962  0.3438  1.8997  0.5031
17669SOL     OW55013   8.572   9.318   4.186 -0.1534 -0.5770 -0.1136
17669SOL    HW155014   8.522   9.377   4.242 -0.7980 -0.5219 -0.7440
17669SOL    HW255015   8.638   9.373   4.145  0.7739 -0.7420  1.1073
17670SOL     OW55016   4.902   3.923   4.278 -0.3934  0.8786  0.4752
17670SOL    HW155017   4.942   3.869   4.210  0.1313  1.1500  0.5631
17670SOL    HW255018   4.818   3.949   4.242 -0.7174 -0.1288  0.4959
17671SOL     OW55019   8.551   7.406   1.266  0.0716 -0.2078 -0.3268
17671SOL    HW155020   8.580   7.477   1.209  2.4073 -2.6152 -2.4386
17671SOL    HW255021   8.470   7.375   1.226 -0.9378  1.1635  0.5860
17672SOL     OW55022   6.612   9.744   5.705  0.1960  0.0535 -0.8523
17672SOL    HW155023   6.557   9.747   5.627  0.9404 -1.6338 -1.4797
17672SOL    HW255024   6.699   9.768   5.674  0.9445 -2.5617 -1.0333
17673SOL     OW55025   4.270   1.566   6.404  0.2103 -0.4579  0.1742
17673SOL    HW155026   4.195   1.590   6.350  1.7927  2.7509 -0.8270
17673SOL    HW255027   4.236   1.500   6.464 -2.8416 -0.6483 -1.5748
17674SOL     OW55028   6.192   8.639   3.750  0.1374 -0.2769 -0.1984
17674SOL    HW155029   6.148   8.589   3.819 -1.6825 -0.8842 -1.7359
17674SOL    HW255030   6.150   8.612   3.669  1.8946  0.7661 -1.5504
17675SOL     OW55031  10.281   5.673   4.333  0.1451  0.7329 -0.1387
17675SOL    HW155032  10.323   5.735   4.273  1.4825 -0.2677 -0.2913
17675SOL    HW255033  10.286   5.715   4.419  0.0308  1.3036 -0.4048
17676SOL     OW55034   6.227   1.396   1.186  0.1497  0.5633  0.1947
17676SOL    HW155035   6.201   1.470   1.239 -1.7201 -0.2730  0.5121
17676SOL    HW255036   6.185   1.410   1.101  1.2372  0.7304 -0.3416
17677SOL     OW55037   0.639   1.160   4.901  0.4015 -0.5976  0.5428
17677SOL    HW155038   0.652   1.149   4.995 -2.2592 -0.2156  1.0509
17677SOL    HW255039   0.600   1.078   4.872  0.1955 -0.3226  0.0078
17678SOL     OW55040   6.136   9.359   8.766 -0.0584 -0.1146  0.4256
17678SOL    HW155041   6.156   9.453   8.773  1.6411 -0.5504  2.1209
17678SOL    HW255042   6.126   9.330   8.856  0.4730 -1.7701 -0.0272
17679SOL     OW55043   3.283   4.133   4.326 -0.2027  0.1227  0.3295
17679SOL    HW155044   3.309   4.224   4.314 -0.1068  0.0801  0.2091
17679SOL    HW255045   3.344   4.083   4.271 -0.5119  0.0160  0.0831
17680SOL     OW55046   9.518   9.984   5.907  0.4117 -0.0748  0.0892
17680SOL    HW155047   9.523   9.897   5.947  0.2065 -0.1454 -0.0309
17680SOL    HW255048   9.504  10.044   5.980  0.7864 -0.1173  0.1946
17681SOL     OW55049   4.812   2.547   4.609 -0.0937  0.2730  0.2915
17681SOL    HW155050   4.721   2.534   4.585  0.5358 -3.1264 -0.7623
17681SOL    HW255051   4.815   2.535   4.704 -0.8448  1.4538  0.4801
17682SOL     OW55052   9.706   4.847   4.423  0.0308 -0.1288  0.0573
17682SOL    HW155053   9.640   4.908   4.389 -0.1372  1.0240  2.3068
17682SOL    HW255054   9.655   4.772   4.453 -0.0358 -0.1687 -0.1510
17683SOL     OW55055   1.658   1.151   4.604 -0.1695 -0.0067  0.6920
17683SOL    HW155056   1.595   1.085   4.572 -1.0941  0.5658  1.2783
17683SOL    HW255057   1.617   1.186   4.683  1.1864 -0.0346  1.4199
17684SOL     OW55058   6.219   0.660   5.850  0.6257 -0.4081  0.1346
17684SOL    HW155059   6.161   0.621   5.784 -1.1897 -1.8602  2.4037
17684SOL    HW255060   6.268   0.727   5.803 -1.7564 -0.1986 -2.3051
17685SOL     OW55061   5.381   6.223   8.564 -0.6793  0.5618  0.1909
17685SOL    HW155062   5.472   6.203   8.587 -0.8855 -0.8010 -0.1448
17685SOL    HW255063   5.343   6.139   8.539 -1.3906  1.4584 -1.9694
17686SOL     OW55064   8.755   8.471   7.929  0.3610  0.9674 -0.8081
17686SOL    HW155065   8.781   8.379   7.918 -1.3446  0.6411 -2.8448
17686SOL    HW255066   8.837   8.517   7.948  1.3400 -0.8795 -0.3283
17687SOL     OW55067   2.987   6.909   4.601  0.4544 -0.2337  0.2054
17687SOL    HW155068   2.938   6.958   4.536  1.7526  0.1723 -0.4981
17687SOL    HW255069   2.954   6.819   4.593  1.9780 -0.6607 -2.5101
17688SOL     OW55070   2.307   5.509  10.876 -0.1338 -0.3328 -0.3599
17688SOL    HW155071   2.289   5.598  10.906  0.4684  0.0280 -1.0464
17688SOL    HW255072   2.290   5.510  10.782 -4.1020 -2.0101  0.1644
17689SOL     OW55073   8.277   4.960   9.497  0.1048  0.7795  0.4426
17689SOL    HW155074   8.293   4.880   9.446 -0.1512  1.3225 -0.5143
17689SOL    HW255075   8.209   5.006   9.448  0.3822  1.6714  0.8857
17690SOL     OW55076   9.141   7.914   1.381  0.5068  0.3961  0.6057
17690SOL    HW155077   9.218   7.900   1.327 -0.2679 -1.1288 -0.1824
17690SOL    HW255078   9.068   7.885   1.326 -0.4329  0.0346  1.9826
17691SOL     OW55079   0.679   6.378   4.597  0.1958 -0.2087 -0.4092
17691SOL    HW155080   0.699   6.331   4.678  0.6055 -0.8267 -0.8569
17691SOL    HW255081   0.732   6.457   4.601  0.7590 -0.5876 -0.4049
17692SOL     OW55082   2.172  11.086   9.187 -0.1851 -0.1192 -0.3530
17692SOL    HW155083   2.181  11.128   9.272 -0.5975  2.2929 -1.4106
17692SOL    HW255084   2.079  11.062   9.182 -0.6200  1.5137 -0.8227
17693SOL     OW55085   8.032   1.742   1.587 -0.0443 -0.3030 -0.0589
17693SOL    HW155086   7.998   1.800   1.656  0.9767 -1.4530  1.4864
17693SOL    HW255087   7.955   1.694   1.557 -0.4048 -0.3297  0.8576
17694SOL     OW55088  10.116   6.942   7.255  0.4507 -0.2602 -0.3887
17694SOL    HW155089  10.073   6.886   7.190 -1.6132  0.0597  0.6213
17694SOL    HW255090  10.107   7.031   7.220 -2.6392  0.1894  1.2045
17695SOL     OW55091   8.975   2.542   8.822  0.2076 -0.0407  0.1279
17695SOL    HW155092   9.032   2.485   8.769 -1.5278 -1.9951  0.2330
17695SOL    HW255093   9.024   2.623   8.831  1.7820 -0.6478 -2.1017
17696SOL     OW55094   0.609   3.611   7.496 -0.1488 -0.1117  0.6198
17696SOL    HW155095   0.525   3.629   7.453  0.0236  1.0055  0.7150
17696SOL    HW255096   0.593   3.631   7.588  0.0809 -0.3924  0.7199
17697SOL     OW55097   7.171   9.225   8.938  0.3156  0.6655 -0.1173
17697SOL    HW155098   7.236   9.244   9.006 -1.0927  1.6145  1.0243
17697SOL    HW255099   7.094   9.194   8.987 -0.2646  0.0257 -1.3952
17698SOL     OW55100   5.464   1.368   6.832 -0.5447  0.1720 -0.2045
17698SOL    HW155101   5.397   1.301   6.818 -0.8252  0.4078 -0.0039
17698SOL    HW255102   5.507   1.377   6.747  0.6761 -1.5135  0.1857
17699SOL     OW55103   5.283   4.600   6.710 -0.3406  0.5132 -0.3277
17699SOL    HW155104   5.377   4.612   6.724 -0.3329  0.5821 -0.4431
17699SOL    HW255105   5.276   4.515   6.667 -0.4239 -0.1022  0.8591
17700SOL     OW55106  10.824   3.015   6.497  0.1295  0.5261 -0.5032
17700SOL    HW155107  10.756   3.009   6.564 -0.1232 -2.0762 -0.8626
17700SOL    HW255108  10.889   2.951   6.523  0.1914 -0.3203 -2.5123
17701SOL     OW55109   0.450   6.442   1.339  0.2972 -0.5516  0.6559
17701SOL    HW155110   0.390   6.388   1.390  0.5899 -0.9196  0.6084
17701SOL    HW255111   0.407   6.451   1.254 -1.4454  2.1365  1.6556
17702SOL     OW55112   8.829   8.134  10.646  0.2108  0.6926  0.4227
17702SOL    HW155113   8.761   8.099  10.703 -0.3616 -0.4664 -0.9066
17702SOL    HW255114   8.803   8.225  10.631 -0.2328  0.6812  1.1072
17703SOL     OW55115   9.472   5.776   8.918  0.3192  0.3533 -0.2124
17703SOL    HW155116   9.443   5.804   8.831  1.7504 -2.0041 -1.5541
17703SOL    HW255117   9.519   5.694   8.902  1.2584  0.2213  2.7223
17704SOL     OW55118   3.805   3.777   4.942 -0.7546  0.3092  0.0204
17704SOL    HW155119   3.776   3.751   5.030 -0.8197 -2.6345 -0.7830
17704SOL    HW255120   3.731   3.757   4.885  0.8102 -2.2954 -1.2928
17705SOL     OW55121   0.148   8.592   9.110 -0.7618  0.1800  0.4802
17705SOL    HW155122   0.122   8.517   9.165  2.6103 -0.3019  1.6263
17705SOL    HW255123   0.154   8.665   9.171 -0.2390  0.4396  0.1184
17706SOL     OW55124   5.072   8.070   5.049 -0.3626 -0.2945  0.4539
17706SOL    HW155125   5.030   8.110   4.974  0.7055 -0.0048 -0.0060
17706SOL    HW255126   5.010   8.081   5.121 -0.4816  1.3560  0.1168
17707SOL     OW55127   9.317   8.165   8.831 -0.1335  0.4958 -0.5445
17707SOL    HW155128   9.248   8.167   8.765 -1.0241  0.7016  0.3693
17707SOL    HW255129   9.308   8.247   8.878  0.2100  0.1613  0.1227
17708SOL     OW55130   4.390   7.384   9.228  0.0718 -0.1870  0.7546
17708SOL    HW155131   4.457   7.335   9.180 -0.4033  0.0813 -0.1979
17708SOL    HW255132   4.321   7.399   9.164 -0.2350  0.8483  1.3189
17709SOL     OW55133   1.519  10.654  10.564  0.0051 -0.7501  0.1071
17709SOL    HW155134   1.531  10.726  10.625 -1.3669 -0.0649 -0.4002
17709SOL    HW255135   1.604  10.609  10.563  0.9751  1.0066  0.2091
17710SOL     OW55136   4.876   4.154   4.473  0.1304 -0.3604 -0.2377
17710SOL    HW155137   4.783   4.178   4.473  0.2613  0.1599  0.2012
17710SOL    HW255138   4.882   4.082   4.410 -0.4621  0.0057 -0.7211
17711SOL     OW55139   4.718   6.691   5.668  0.3541 -0.7060 -0.0678
17711SOL    HW155140   4.679   6.715   5.752 -0.5256  1.1160 -0.9180
17711SOL    HW255141   4.792   6.635   5.690 -0.3404 -0.9376  1.8534
17712SOL     OW55142   1.513   2.582   7.889 -0.3869  0.3095 -0.5650
17712SOL    HW155143   1.455   2.540   7.825  0.5091 -1.6447 -0.1710
17712SOL    HW255144   1.601   2.557   7.862 -0.0134 -1.8330  2.1389
17713SOL     OW55145   5.017   4.592   2.526 -0.2023  0.0029  0.4709
17713SOL    HW155146   5.061   4.677   2.528  0.8041 -0.5105  1.5036
17713SOL    HW255147   5.065   4.543   2.459  0.6130 -0.4386  1.3515
17714SOL     OW55148   5.343   3.019   4.795 -0.3289 -0.2274  0.0580
17714SOL    HW155149   5.357   3.088   4.860 -1.8795  0.5243 -0.3702
17714SOL    HW255150   5.413   3.031   4.731  2.6351 -2.3500  2.6059
17715SOL     OW55151   5.844   2.885   8.978 -0.2642 -0.1171  0.1002
17715SOL    HW155152   5.857   2.929   9.062  1.7346 -0.8076  0.2071
17715SOL    HW255153   5.856   2.792   8.998 -0.1052 -0.3145 -0.8767
17716SOL     OW55154   1.092   3.849   5.386  0.4532 -1.2374 -0.2603
17716SOL    HW155155   1.147   3.801   5.324  1.3785 -0.1876 -0.2722
17716SOL    HW255156   1.116   3.940   5.375  1.3793 -1.0862  2.3058
17717SOL     OW55157   6.079   5.115   1.808  0.8412  0.2563 -0.6148
17717SOL    HW155158   6.082   5.128   1.714  0.8930 -1.4550 -0.8690
17717SOL    HW255159   6.022   5.040   1.821  1.5104 -0.0702  0.6535
17718SOL     OW55160   6.042   4.518   4.364 -0.2809 -0.3573  0.2209
17718SOL    HW155161   5.999   4.549   4.284  0.3509 -0.3772 -0.1293
17718SOL    HW255162   6.125   4.566   4.368 -0.5618  0.0705  1.1781
17719SOL     OW55163   2.977   3.349   8.293 -0.1892  0.2989 -0.5947
17719SOL    HW155164   2.912   3.419   8.292  0.4518  0.9826  1.3636
17719SOL    HW255165   3.017   3.352   8.206 -0.5014  2.0600 -0.7044
17720SOL     OW55166   3.172   1.906   0.090 -0.2928 -0.1855 -0.7354
17720SOL    HW155167   3.215   1.926   0.172 -0.1128 -0.6147 -0.7261
17720SOL    HW255168   3.206   1.971   0.028 -0.6541  0.3250 -0.4026
17721SOL     OW55169   7.284   1.255   6.867 -0.2330  0.1830  0.5507
17721SOL    HW155170   7.223   1.297   6.927  0.7094  0.7933  1.1116
17721SOL    HW255171   7.328   1.188   6.920  0.8519  0.9584  0.6690
17722SOL     OW55172   9.863   2.806   5.488  0.4446  0.0165  0.3675
17722SOL    HW155173   9.804   2.836   5.419  0.1420  0.5246  0.8422
17722SOL    HW255174   9.850   2.711   5.491  0.1956  0.0364 -0.0247
17723SOL     OW55175   0.670   7.808   2.111  1.0337 -0.0361 -0.1996
17723SOL    HW155176   0.586   7.854   2.113 -0.4657 -2.3941 -2.7809
17723SOL    HW255177   0.736   7.878   2.116 -1.0262  1.9652  0.6750
17724SOL     OW55178  10.514   5.830   7.348  0.1943 -0.1388  0.4071
17724SOL    HW155179  10.508   5.846   7.442 -0.5278  0.9809  0.1858
17724SOL    HW255180  10.449   5.889   7.309 -0.9895 -2.0743 -0.6550
17725SOL     OW55181   5.490   4.188   7.440  0.1939  0.4494  0.1096
17725SOL    HW155182   5.456   4.229   7.360 -1.4292 -1.6080 -0.3526
17725SOL    HW255183   5.577   4.156   7.414 -1.2327 -2.3744 -1.7802
17726SOL     OW55184   6.706   7.586   8.200  0.7486  0.6367  1.1616
17726SOL    HW155185   6.697   7.663   8.145 -0.2421  0.5744  1.2180
17726SOL    HW255186   6.670   7.613   8.285  2.7696  0.9149  1.9772
17727SOL     OW55187   8.035   3.892   8.491  0.6114  0.5578 -0.4455
17727SOL    HW155188   8.043   3.866   8.582 -3.4136  0.6733  0.1150
17727SOL    HW255189   8.122   3.876   8.454  3.8172  4.3893  4.1795
17728SOL     OW55190   4.831   4.263   8.380 -0.1787 -0.1557  1.0783
17728SOL    HW155191   4.777   4.338   8.356  0.3102 -0.2616 -0.4811
17728SOL    HW255192   4.782   4.187   8.350 -0.9969 -0.5623  3.2713
17729SOL     OW55193   6.913   4.436   0.495 -0.2173  0.2043 -0.3753
17729SOL    HW155194   6.878   4.437   0.584  3.0215  0.3312  1.0292
17729SOL    HW255195   6.904   4.527   0.465  0.1163  0.5274  0.4791
17730SOL     OW55196   5.629   2.745   6.328  0.5807  0.2784  0.0992
17730SOL    HW155197   5.677   2.816   6.286 -0.1911  0.6730 -0.1271
17730SOL    HW255198   5.538   2.775   6.330 -0.0649 -1.4207 -1.5859
17731SOL     OW55199   2.733   5.124  10.413  0.6698 -0.1423 -0.4332
17731SOL    HW155200   2.822   5.093  10.394  0.2642  0.4760 -4.0102
17731SOL    HW255201   2.725   5.205  10.362 -1.9363 -0.1265 -0.1009
17732SOL     OW55202   6.462   1.392   3.055  0.4898 -0.5420  0.5597
17732SOL    HW155203   6.502   1.345   2.983 -0.3335  0.2715 -0.4592
17732SOL    HW255204   6.528   1.457   3.081  0.2221  0.1619 -0.4771
17733SOL     OW55205   9.892   2.009   2.187  0.3190 -0.2831  0.5441
17733SOL    HW155206   9.962   2.036   2.127 -0.9653 -0.7842 -1.2809
17733SOL    HW255207   9.903   1.915   2.196  0.4020 -0.2339  0.9487
17734SOL     OW55208   4.982   6.553   9.663  0.1681  0.0742  0.4126
17734SOL    HW155209   4.937   6.621   9.612  0.2482 -0.9307 -1.0518
17734SOL    HW255210   5.047   6.601   9.714 -0.1976  1.1684 -0.1207
17735SOL     OW55211   7.554   0.475   0.330  0.0701 -0.5122 -0.1501
17735SOL    HW155212   7.479   0.473   0.390  0.2531  2.2590  0.2893
17735SOL    HW255213   7.630   0.468   0.387  0.2089 -1.4725 -0.4338
17736SOL     OW55214   9.032   3.394   4.752 -0.1588 -0.4094 -0.2263
17736SOL    HW155215   9.102   3.347   4.707  0.7806  0.6419  0.0962
17736SOL    HW255216   8.953   3.347   4.728  0.5371 -1.0202 -1.4171
17737SOL     OW55217   4.695   6.534   6.099  0.2092 -1.0516 -0.5851
17737SOL    HW155218   4.630   6.465   6.111 -1.9270  0.7234 -1.2336
17737SOL    HW255219   4.761   6.516   6.165 -1.2298 -2.6284  0.5207
17738SOL     OW55220   0.811   3.878   2.141 -0.2898  0.0006 -0.0789
17738SOL    HW155221   0.735   3.876   2.199  1.5146  1.6485  2.5435
17738SOL    HW255222   0.810   3.793   2.097 -2.8623 -0.5411  0.8597
17739SOL     OW55223   2.303   0.121   5.739  0.5308  0.3317 -0.7280
17739SOL    HW155224   2.322   0.054   5.804 -0.8279 -0.4686 -1.1258
17739SOL    HW255225   2.346   0.090   5.659 -0.8110 -0.5307 -1.1385
17740SOL     OW55226   9.413   6.597   7.330 -0.2688 -0.5037 -0.9411
17740SOL    HW155227   9.433   6.542   7.405  0.8163  1.3916  0.2461
17740SOL    HW255228   9.464   6.677   7.345 -2.7710  1.3961 -1.8710
17741SOL     OW55229   0.962  10.421   4.598 -0.3222  0.4714 -0.3216
17741SOL    HW155230   0.893  10.481   4.624 -0.2955  0.1882  0.4300
17741SOL    HW255231   0.918  10.353   4.547 -0.8157 -0.3401  1.1182
17742SOL     OW55232   5.695   7.930   3.372 -0.3001  0.2116  0.0720
17742SOL    HW155233   5.662   7.948   3.284 -0.7400  0.3297  0.2592
17742SOL    HW255234   5.791   7.932   3.363 -0.3356  1.5579 -0.1324
17743SOL     OW55235   4.714   7.391   8.029 -0.6128  0.0075 -0.8897
17743SOL    HW155236   4.678   7.478   8.013 -0.2403 -0.0093 -1.9348
17743SOL    HW255237   4.809   7.405   8.032 -0.6171 -0.1642  0.3142
17744SOL     OW55238   4.259   7.610   4.045  1.1173  0.0457  0.1533
17744SOL    HW155239   4.270   7.672   3.973 -0.0002  0.8028  0.6070
17744SOL    HW255240   4.165   7.605   4.059  1.2963 -0.2671  1.4043
17745SOL     OW55241  10.108   2.680   7.754  0.2249 -0.3826  0.6131
17745SOL    HW155242  10.082   2.711   7.667 -0.0354  0.3360  0.9335
17745SOL    HW255243  10.117   2.760   7.806  0.2698 -0.8074  1.2749
17746SOL     OW55244   9.114   0.086   5.747  0.2659  0.0745 -0.1234
17746SOL    HW155245   9.057   0.010   5.736  1.6033 -1.1575  1.0237
17746SOL    HW255246   9.080   0.131   5.825 -0.3650  0.5331 -0.6494
17747SOL     OW55247   3.543   9.203   1.218  0.2233 -0.5584  0.0184
17747SOL    HW155248   3.453   9.209   1.187 -0.2264  1.6355  1.5162
17747SOL    HW255249   3.570   9.114   1.196 -3.0230 -2.0585  1.3989
17748SOL     OW55250   6.352   1.884   6.671  0.2951  0.3630  0.4282
17748SOL    HW155251   6.382   1.900   6.581 -1.2592  1.4289  0.0628
17748SOL    HW255252   6.377   1.793   6.688 -0.2843 -0.2071 -1.4583
17749SOL     OW55253   1.927   1.046  10.217 -0.4616  0.2786  0.4380
17749SOL    HW155254   1.997   1.034  10.153  0.0469 -1.0562  1.1898
17749SOL    HW255255   1.973   1.066  10.299 -0.9564 -0.2714  0.8647
17750SOL     OW55256   4.905   7.016  10.137  0.0209  0.4850 -0.1611
17750SOL    HW155257   4.921   7.068  10.216  1.2088  0.5693 -0.4406
17750SOL    HW255258   4.848   7.071  10.084 -0.6792  0.4849  0.5704
17751SOL     OW55259   6.252   7.374   5.392  0.3400  0.7667  0.0961
17751SOL    HW155260   6.217   7.361   5.480 -0.0772 -0.8523 -0.2805
17751SOL    HW255261   6.178   7.355   5.334  1.0179  0.3328 -0.6354
17752SOL     OW55262   1.352   4.212   7.015  0.5161  0.3572 -0.1027
17752SOL    HW155263   1.428   4.160   6.991  0.0808 -0.3624  0.0308
17752SOL    HW255264   1.387   4.297   7.040  1.3363 -0.1576  0.5431
17753SOL     OW55265   2.985   9.726   2.639 -0.0336 -0.9183  0.0894
17753SOL    HW155266   3.065   9.699   2.595  0.6259  0.8328  0.1339
17753SOL    HW255267   2.971   9.659   2.706  0.6989 -1.8985 -0.6971
17754SOL     OW55268   6.820   8.072   0.104 -0.1716 -0.3851  0.3256
17754SOL    HW155269   6.886   8.088   0.172  1.0773 -0.6012 -0.8107
17754SOL    HW255270   6.771   8.154   0.099 -0.2728 -0.3592  1.4724
17755SOL     OW55271  10.919  10.477   4.810  0.5745 -0.8056  0.2949
17755SOL    HW155272  10.949  10.543   4.873 -1.5276 -0.9394  1.5238
17755SOL    HW255273  10.948  10.394   4.848 -0.3459 -0.8555  0.9282
17756SOL     OW55274  10.326   4.533   2.990  0.3406 -0.4284  0.6450
17756SOL    HW155275  10.363   4.562   2.907 -1.6316 -1.8921 -0.8503
17756SOL    HW255276  10.296   4.443   2.973 -0.6597 -0.5728  2.7613
17757SOL     OW55277   1.690   3.674   1.221  0.1413 -0.7808  0.2241
17757SOL    HW155278   1.675   3.767   1.232  0.3162 -0.5887 -1.0630
17757SOL    HW255279   1.726   3.646   1.306  1.6214  0.6437  0.1299
17758SOL     OW55280   0.397   8.991   9.756 -0.0976  0.5172  0.1284
17758SOL    HW155281   0.422   8.993   9.663  0.2028  0.9394  0.2114
17758SOL    HW255282   0.302   8.994   9.755 -0.1217 -0.1615 -0.1779
17759SOL     OW55283   3.225   4.353   6.212  0.5137 -0.3231 -0.1737
17759SOL    HW155284   3.288   4.309   6.156  2.3999 -0.6526  2.0629
17759SOL    HW255285   3.178   4.283   6.257  1.4993 -0.1444  1.2222
17760SOL     OW55286   3.076   8.732  10.353  0.1311 -0.0863 -0.3402
17760SOL    HW155287   3.125   8.814  10.355  2.1027 -1.2053  0.1830
17760SOL    HW255288   3.015   8.738  10.426  2.7877 -0.4646  2.0818
17761SOL     OW55289   4.453  10.401   4.782  0.2166 -0.3213 -0.1208
17761SOL    HW155290   4.409  10.484   4.764  0.3195 -0.2895 -0.2244
17761SOL    HW255291   4.540  10.412   4.745  0.3630 -0.3291  0.2229
17762SOL     OW55292   1.509   3.851   4.388 -0.0471  0.1650 -0.2539
17762SOL    HW155293   1.594   3.888   4.364  0.8852  0.1584  2.6755
17762SOL    HW255294   1.524   3.758   4.397 -0.7185 -0.0268 -0.9436
17763SOL     OW55295   3.746   8.603  10.621 -0.1823 -0.1400  0.2653
17763SOL    HW155296   3.729   8.679  10.566  0.8967 -0.3769 -0.4223
17763SOL    HW255297   3.769   8.533  10.560  3.5119  0.2397  1.0080
17764SOL     OW55298   6.126   8.350   3.115 -0.1149 -0.1194  0.2234
17764SOL    HW155299   6.158   8.436   3.088 -1.4406  0.0132 -1.0451
17764SOL    HW255300   6.196   8.289   3.090  0.6686  0.5268  0.7837
17765SOL     OW55301   7.136   5.267  10.228 -0.0020  0.2524 -0.4911
17765SOL    HW155302   7.097   5.241  10.144  1.1089 -0.6492 -0.7560
17765SOL    HW255303   7.209   5.324  10.205 -0.1919  0.6721 -0.0798
17766SOL     OW55304   8.194   0.230   8.048 -0.5720  0.4382 -0.2914
17766SOL    HW155305   8.110   0.191   8.070 -0.8372  1.1978  0.0636
17766SOL    HW255306   8.220   0.187   7.966 -0.3378 -1.2427  0.6298
17767SOL     OW55307  10.571   7.352   7.419 -0.1440  0.5139  0.0837
17767SOL    HW155308  10.583   7.304   7.501 -0.0335  2.1427  1.0809
17767SOL    HW255309  10.482   7.387   7.426  0.4159  1.9614  0.2631
17768SOL     OW55310  11.067   5.089   6.667  0.2188 -0.0877  0.2327
17768SOL    HW155311  10.998   5.134   6.618  0.7872 -1.4819 -2.0069
17768SOL    HW255312  11.103   5.025   6.605  2.2981 -0.6720  1.9091
17769SOL     OW55313   4.656  10.546   6.216  0.2693  0.4966 -0.3525
17769SOL    HW155314   4.605  10.627   6.217 -0.6427 -0.0615  0.9788
17769SOL    HW255315   4.747  10.575   6.209 -0.1317  1.5478 -1.8271
17770SOL     OW55316   2.289   6.261   4.709  1.0586  0.5075 -0.4587
17770SOL    HW155317   2.221   6.211   4.664 -1.5050 -0.9792  4.3761
17770SOL    HW255318   2.246   6.342   4.737  2.0440  0.6975  0.6067
17771SOL     OW55319   9.697   2.506   2.137  0.4902  0.1817  0.8563
17771SOL    HW155320   9.625   2.445   2.126 -0.7627  1.0159  3.5355
17771SOL    HW255321   9.659   2.592   2.119  0.9898  0.5550  1.5200
17772SOL     OW55322   6.893   3.856   4.629  0.8206 -0.3243  0.0815
17772SOL    HW155323   6.958   3.916   4.594 -0.0856  0.0667 -1.0235
17772SOL    HW255324   6.823   3.913   4.662 -0.5566 -0.6980 -1.9827
17773SOL     OW55325   1.822   1.464   6.017  0.0295  0.4333 -0.0969
17773SOL    HW155326   1.819   1.467   6.113  1.1502 -0.5407 -0.0114
17773SOL    HW255327   1.880   1.391   5.997 -2.3699 -1.2096 -1.5623
17774SOL     OW55328   3.566   4.374   8.620  0.5007 -0.0376  0.2225
17774SOL    HW155329   3.660   4.355   8.625  0.4113 -0.0776  2.8019
17774SOL    HW255330   3.560   4.469   8.621  0.4902  0.0174  3.4248
17775SOL     OW55331   2.991   7.837   7.640 -0.6315  0.8065 -0.2481
17775SOL    HW155332   3.017   7.876   7.557  0.4507 -0.8973 -0.7436
17775SOL    HW255333   2.943   7.758   7.616  1.3426 -0.7656  0.6988
17776SOL     OW55334   4.019   7.829   5.282 -0.4728  0.0030  0.5729
17776SOL    HW155335   4.040   7.922   5.278 -1.2655  0.1615 -2.4118
17776SOL    HW255336   4.101   7.787   5.309  0.3327  1.4616  0.4906
17777SOL     OW55337   8.295   6.509   7.598 -0.4305  0.0281 -0.2707
17777SOL    HW155338   8.258   6.477   7.516  0.8913 -1.3108 -0.3898
17777SOL    HW255339   8.311   6.430   7.650 -0.3223  0.7749  0.8767
17778SOL     OW55340   6.193   7.701   1.156 -0.1345 -0.4594 -0.5533
17778SOL    HW155341   6.198   7.796   1.145 -1.4137 -0.5099 -1.7613
17778SOL    HW255342   6.264   7.681   1.218  0.2000  1.2571 -0.3236
17779SOL     OW55343   6.134   6.213   1.069 -0.2974 -0.0761  0.2897
17779SOL    HW155344   6.222   6.192   1.040  0.3804  0.7496  1.6544
17779SOL    HW255345   6.140   6.303   1.102 -1.6499 -0.0038  0.3874
17780SOL     OW55346   9.911   5.557   8.993  0.1422 -0.1386 -0.0123
17780SOL    HW155347   9.984   5.600   8.949  1.0058  0.0181  1.4980
17780SOL    HW255348   9.889   5.616   9.065 -2.5586  0.6109 -1.3276
17781SOL     OW55349   6.363   0.231   2.794 -0.0054  0.0926 -0.7953
17781SOL    HW155350   6.304   0.262   2.726  1.0907  0.8113 -1.4632
17781SOL    HW255351   6.313   0.166   2.843 -1.7339  1.5055 -0.6034
17782SOL     OW55352   5.513   1.684   6.502 -0.3326  0.0750 -0.2110
17782SOL    HW155353   5.481   1.664   6.590  1.4304 -0.6393  0.3179
17782SOL    HW255354   5.565   1.607   6.477 -2.4054 -0.6648 -2.7479
17783SOL     OW55355   3.652   2.407   8.613 -0.2218 -0.0861  0.0473
17783SOL    HW155356   3.599   2.466   8.666 -0.1472 -0.2128  0.2625
17783SOL    HW255357   3.725   2.383   8.669 -1.9326 -3.0290  1.2455
17784SOL     OW55358   5.032   5.335   9.900 -0.0539  0.0290  0.2462
17784SOL    HW155359   5.127   5.326   9.899 -0.1265 -1.6361  2.0824
17784SOL    HW255360   5.013   5.374   9.985 -0.9238  2.8176 -1.1053
17785SOL     OW55361   4.740   6.153   1.414  0.3929 -0.3736 -0.1101
17785SOL    HW155362   4.645   6.158   1.423  0.3786 -1.1732  0.3049
17785SOL    HW255363   4.754   6.116   1.327  0.2254 -2.5700  0.7127
17786SOL     OW55364   7.372   5.627   5.449 -0.0852 -0.4766 -0.4503
17786SOL    HW155365   7.319   5.697   5.411 -0.5513 -1.0538 -0.8982
17786SOL    HW255366   7.450   5.671   5.483 -1.0469  0.4637  0.6180
17787SOL     OW55367   7.510   2.021   3.675 -0.0675 -0.3721  0.3264
17787SOL    HW155368   7.601   2.030   3.648  0.2055  0.0533  1.3387
17787SOL    HW255369   7.462   2.003   3.594  0.8132  0.0987 -0.3125
17788SOL     OW55370   7.903  10.649   6.952 -0.5693 -0.8463  0.2005
17788SOL    HW155371   7.863  10.563   6.934 -0.0473 -0.9055 -0.7360
17788SOL    HW255372   7.865  10.676   7.035  0.7584 -2.9025  1.5538
17789SOL     OW55373   7.584   2.041   4.244 -0.3868  0.2772 -1.0809
17789SOL    HW155374   7.517   1.979   4.271 -0.3104  0.6744  0.0418
17789SOL    HW255375   7.587   2.033   4.148 -3.7468  1.9755 -1.4920
17790SOL     OW55376   4.639   0.712   6.132 -0.0127  0.0175  0.3144
17790SOL    HW155377   4.581   0.662   6.074 -0.5067 -0.5923  1.3173
17790SOL    HW255378   4.595   0.797   6.143 -0.6708 -0.3973  0.9692
17791SOL     OW55379   2.331   9.805  11.072  0.0432 -0.5726 -0.2732
17791SOL    HW155380   2.286   9.731  11.112 -1.4916  0.3559 -0.2038
17791SOL    HW255381   2.364   9.771  10.989 -2.6333 -0.8009 -1.3317
17792SOL     OW55382   7.177   3.924   0.823 -0.1042 -0.0624 -0.1583
17792SOL    HW155383   7.162   4.014   0.850  2.1990 -0.0249  1.2673
17792SOL    HW255384   7.089   3.886   0.815 -1.0808  2.0297  0.1097
17793SOL     OW55385   5.887   7.220   3.860 -0.3953 -0.5506 -0.7691
17793SOL    HW155386   5.952   7.289   3.852  1.5752 -2.2689 -0.5473
17793SOL    HW255387   5.836   7.244   3.937 -0.0716  0.8598 -0.9619
17794SOL     OW55388   9.028   6.656   4.266 -0.3133  0.6489 -0.7951
17794SOL    HW155389   9.065   6.705   4.193 -0.4551 -0.3321 -1.5429
17794SOL    HW255390   8.955   6.608   4.228 -1.2689  1.1832  0.2962
17795SOL     OW55391  10.906   5.158   4.682  0.1732 -0.1568  0.0294
17795SOL    HW155392  10.823   5.201   4.660  0.3929  0.3073  0.0973
17795SOL    HW255393  10.903   5.146   4.777  0.0444 -0.4276 -0.0103
17796SOL     OW55394   1.049   8.561   7.134 -0.6880  0.3277 -0.2046
17796SOL    HW155395   1.106   8.621   7.182 -1.1498 -0.0755  0.8720
17796SOL    HW255396   1.091   8.553   7.048  1.3146 -0.5549  0.7950
17797SOL     OW55397  10.416   5.259   2.767 -0.0841  0.0622 -0.8167
17797SOL    HW155398  10.475   5.247   2.842 -0.7213  0.0236 -0.3189
17797SOL    HW255399  10.333   5.220   2.794 -0.2714 -0.1215 -1.6174
17798SOL     OW55400   4.724   0.479   8.005  0.1095  0.0016 -0.4304
17798SOL    HW155401   4.732   0.383   7.998 -0.1759 -0.0320 -0.3018
17798SOL    HW255402   4.630   0.496   7.994  0.4080  0.4625 -2.7219
17799SOL     OW55403   3.776   6.657   8.166 -0.4775  0.6828 -0.3879
17799SOL    HW155404   3.744   6.618   8.085  3.1265 -1.9068 -0.7946
17799SOL    HW255405   3.801   6.746   8.142  3.3960 -0.9042 -3.1979
17800SOL     OW55406   3.797  10.146   9.452  0.1977 -0.3652 -0.3439
17800SOL    HW155407   3.715  10.144   9.402 -0.1260  0.0044  0.1727
17800SOL    HW255408   3.770  10.161   9.542  0.7285 -1.7297  0.0684
17801SOL     OW55409   3.814   6.113   8.389 -0.0709 -0.2435  0.6578
17801SOL    HW155410   3.850   6.180   8.331  1.4540 -1.6449 -0.0996
17801SOL    HW255411   3.834   6.145   8.477  2.6387 -0.6756  0.2839
17802SOL     OW55412   5.563   0.237   5.881 -0.4559 -0.0808  0.0366
17802SOL    HW155413   5.567   0.314   5.938 -1.0009 -0.6629  0.8740
17802SOL    HW255414   5.616   0.171   5.925  1.1153  0.1921 -1.3319
17803SOL     OW55415   7.801   3.802   3.819 -0.2835  0.1972 -0.8884
17803SOL    HW155416   7.729   3.856   3.788  0.4365  0.4170 -2.2825
17803SOL    HW255417   7.868   3.864   3.848 -0.0272  0.0288 -1.1103
17804SOL     OW55418   5.176   6.572   8.901  0.6729  0.5144  0.2810
17804SOL    HW155419   5.156   6.665   8.886  5.0019  1.3912 -1.5888
17804SOL    HW255420   5.136   6.527   8.827  1.3927  1.4549 -0.7214
17805SOL     OW55421   9.218   2.175   6.391  0.0111  0.0078 -0.6724
17805SOL    HW155422   9.281   2.242   6.364  1.5862 -1.3726 -0.5892
17805SOL    HW255423   9.232   2.102   6.330  1.4562 -1.9469  1.8125
17806SOL     OW55424   9.390   0.223   1.861  0.1022  0.3970 -0.2171
17806SOL    HW155425   9.319   0.183   1.812 -0.8812  0.1453  1.3294
17806SOL    HW255426   9.347   0.280   1.925  1.3169  0.8081  0.2862
17807SOL     OW55427   6.807   9.345   6.381 -0.3971  0.5718 -0.3511
17807SOL    HW155428   6.869   9.331   6.309  0.8641  2.2191  0.3258
17807SOL    HW255429   6.734   9.287   6.361  0.6059 -0.2013 -2.1054
17808SOL     OW55430   6.082   1.597   6.609  0.2069  0.0024  0.9399
17808SOL    HW155431   6.176   1.601   6.588 -0.2059 -1.4746 -1.5476
17808SOL    HW255432   6.042   1.664   6.553 -0.0874  2.1178  3.5131
17809SOL     OW55433   0.248   5.335   3.765 -0.3386  0.0083  0.0434
17809SOL    HW155434   0.183   5.339   3.835 -1.6921 -0.3078 -1.1409
17809SOL    HW255435   0.287   5.422   3.763 -1.9988  0.7888 -0.3497
17810SOL     OW55436   0.959   1.263   7.429  0.1425  0.0390 -0.6412
17810SOL    HW155437   0.998   1.204   7.493  1.0038 -0.8325 -1.9166
17810SOL    HW255438   0.880   1.218   7.400 -0.2717  0.4535 -0.1569
17811SOL     OW55439   6.990   0.363   3.599 -0.3774  0.2172  0.1925
17811SOL    HW155440   7.037   0.407   3.670 -1.2542 -0.5454  1.2862
17811SOL    HW255441   7.029   0.276   3.596  0.1808  0.4836 -0.8108
17812SOL     OW55442   0.313   2.463   8.114 -0.1393 -0.9455 -0.2548
17812SOL    HW155443   0.347   2.544   8.151  0.1385 -1.4045  0.5244
17812SOL    HW255444   0.229   2.488   8.075 -1.0407 -0.6452  1.7616
17813SOL     OW55445   6.082   7.890   6.177 -0.1173  0.1779  0.0786
17813SOL    HW155446   6.083   7.812   6.231  0.0030  0.3448  0.3181
17813SOL    HW255447   6.136   7.953   6.225  3.4604 -0.9157 -2.0932
17814SOL     OW55448   1.944   5.716   5.746 -0.0478 -0.5827 -0.0562
17814SOL    HW155449   1.974   5.726   5.836 -0.3364 -2.0922  0.2333
17814SOL    HW255450   1.911   5.803   5.722 -0.9480 -0.4026  1.6645
17815SOL     OW55451   3.071   5.019   8.989  0.3928  0.1481  0.6340
17815SOL    HW155452   3.163   4.994   8.979 -0.2487 -2.3301  0.4290
17815SOL    HW255453   3.036   5.022   8.900 -0.2095 -0.9806  0.8195
17816SOL     OW55454   1.386   0.013   5.466 -0.1832 -0.4441  0.1140
17816SOL    HW155455   1.296  -0.006   5.440 -0.3467 -1.1374  1.1471
17816SOL    HW255456   1.383   0.104   5.497 -0.9303 -1.0154  1.8161
17817SOL     OW55457   6.580   4.045   9.319  0.6285  1.0826 -0.6809
17817SOL    HW155458   6.506   4.028   9.261  1.4270 -0.2158 -1.3895
17817SOL    HW255459   6.570   4.136   9.346 -1.6750  0.7059 -0.0741
17818SOL     OW55460   3.357   5.683   2.460  0.5444 -0.6691 -0.8551
17818SOL    HW155461   3.274   5.652   2.497  0.7661 -1.0162 -0.6465
17818SOL    HW255462   3.351   5.778   2.464  1.1578 -0.6602  1.4795
17819SOL     OW55463  10.240   4.804   5.169 -0.4986 -0.4786 -0.8609
17819SOL    HW155464  10.227   4.893   5.203 -0.8486 -0.4402 -1.0895
17819SOL    HW255465  10.334   4.788   5.177 -0.7625 -1.2183  2.0285
17820SOL     OW55466   3.135   6.883  10.188 -0.4981  0.4693 -0.1538
17820SOL    HW155467   3.177   6.916  10.108  0.4588 -3.5194 -1.5092
17820SOL    HW255468   3.193   6.911  10.259  1.3523 -0.0093 -1.4060
17821SOL     OW55469   8.394   2.115   8.219 -0.1913  0.6219  0.1456
17821SOL    HW155470   8.484   2.085   8.209  0.0952  1.9462 -1.8564
17821SOL    HW255471   8.401   2.210   8.227 -1.4143  0.7377  0.0526
17822SOL     OW55472  10.906   9.623   6.397  0.1960  0.6728  0.7749
17822SOL    HW155473  10.915   9.696   6.335 -1.2247  1.9128  1.9681
17822SOL    HW255474  10.942   9.547   6.350  0.1141  1.7731 -1.1572
17823SOL     OW55475   8.041   4.503   0.655  0.3772 -0.5096 -0.1425
17823SOL    HW155476   8.097   4.566   0.700 -0.4174 -1.4714  2.4075
17823SOL    HW255477   8.062   4.513   0.562  4.4693 -0.5348  0.5923
17824SOL     OW55478   9.064   6.799   3.582  0.0097  0.3648  0.1403
17824SOL    HW155479   9.045   6.756   3.499 -0.9244 -2.4458  1.6651
17824SOL    HW255480   9.078   6.891   3.559  3.3554 -0.7957 -3.5463
17825SOL     OW55481   9.928   1.813  10.906 -0.4472 -0.5011  0.6366
17825SOL    HW155482  10.016   1.807  10.945  0.2624 -0.7105 -0.9367
17825SOL    HW255483   9.915   1.907  10.892 -0.5020 -0.4657  0.9177
17826SOL     OW55484   8.171   6.135   6.956  0.0023  0.2191 -0.0261
17826SOL    HW155485   8.114   6.127   6.880 -0.5509 -0.5056  0.4515
17826SOL    HW255486   8.121   6.187   7.018  0.1096  0.0940  0.1659
17827SOL     OW55487   0.125   7.304   9.811 -0.3719 -0.1958  0.6311
17827SOL    HW155488   0.131   7.253   9.730 -0.8286 -0.3996  0.7182
17827SOL    HW255489   0.039   7.347   9.805 -0.4939 -0.3676  1.0891
17828SOL     OW55490   4.245   3.617   7.553 -0.4628  0.5736  0.2798
17828SOL    HW155491   4.207   3.565   7.624 -0.2476  0.2506  0.1604
17828SOL    HW255492   4.340   3.605   7.563 -0.4610 -0.2214 -0.6176
17829SOL     OW55493   1.562   0.444   4.346 -0.1601  0.6515 -0.5950
17829SOL    HW155494   1.541   0.490   4.265  0.8611 -0.3318 -1.4519
17829SOL    HW255495   1.627   0.378   4.320 -1.3881 -1.1170  0.6201
17830SOL     OW55496   3.391   1.507   6.454 -0.0042  0.6330 -0.4920
17830SOL    HW155497   3.449   1.433   6.439 -0.5708  0.4339 -1.7864
17830SOL    HW255498   3.418   1.541   6.540  0.7876 -0.5668 -0.2380
17831SOL     OW55499   7.849   3.976   9.064  0.1031 -0.3598 -0.2026
17831SOL    HW155500   7.903   3.919   9.009  1.4771  0.4406  0.2825
17831SOL    HW255501   7.784   4.013   9.004  0.9387 -0.3010 -1.0909
17832SOL     OW55502   8.367   3.979   8.770 -0.7933  0.2301  0.0551
17832SOL    HW155503   8.283   3.933   8.767 -0.1686 -0.9285 -2.6098
17832SOL    HW255504   8.348   4.065   8.731 -0.5616 -0.4768 -1.7036
17833SOL     OW55505   1.346   9.608  10.090  0.4641  0.3237  0.2503
17833SOL    HW155506   1.275   9.671  10.104 -1.6846 -1.4664 -1.6785
17833SOL    HW255507   1.313   9.551  10.020  4.0406 -0.3716 -1.0396
17834SOL     OW55508   6.731   0.996   3.407  0.0744  0.2986  0.0229
17834SOL    HW155509   6.691   1.079   3.431  0.1944  0.0719  1.0351
17834SOL    HW255510   6.667   0.955   3.349 -0.0526  1.0219 -0.3647
17835SOL     OW55511   3.268   9.160   4.791  0.0747 -0.1408 -0.1624
17835SOL    HW155512   3.243   9.071   4.815 -1.3917  0.7337  1.9481
17835SOL    HW255513   3.213   9.181   4.715  0.8447 -1.1750 -1.0369
17836SOL     OW55514   9.532   8.259  10.228 -0.3405  0.5738  0.1882
17836SOL    HW155515   9.552   8.256  10.134 -1.2675 -0.8823 -0.0077
17836SOL    HW255516   9.610   8.225  10.270  0.3838  1.9664  0.0313
17837SOL     OW55517   0.776  10.288   4.851  0.2680  0.2582 -0.1078
17837SOL    HW155518   0.793  10.380   4.871  1.4700  0.2830 -1.1188
17837SOL    HW255519   0.695  10.268   4.898  0.6787  1.4591  1.2078
17838SOL     OW55520   8.843   3.719   6.383  0.2423 -0.1037 -0.1251
17838SOL    HW155521   8.765   3.749   6.430 -0.0353  1.5620 -1.5328
17838SOL    HW255522   8.893   3.670   6.448 -1.3060 -0.0245  1.1876
17839SOL     OW55523   1.708   6.685   8.756 -0.5613  0.0350  0.1408
17839SOL    HW155524   1.779   6.624   8.735  0.0913  0.7376  0.2454
17839SOL    HW255525   1.752   6.770   8.768 -1.6903  1.1367 -2.6411
17840SOL     OW55526   9.819   6.395   1.720 -0.1870  0.1762 -0.3002
17840SOL    HW155527   9.863   6.443   1.790  2.1311 -1.6009 -0.4294
17840SOL    HW255528   9.888   6.344   1.678 -2.2169 -2.0665 -1.1478
17841SOL     OW55529   1.684   8.420   6.978 -0.0234  0.1280 -0.7811
17841SOL    HW155530   1.659   8.499   7.025 -0.9382 -0.4384 -0.3021
17841SOL    HW255531   1.742   8.373   7.038 -1.7170 -0.9227  0.1228
17842SOL     OW55532   7.851   7.604  10.011 -0.3833 -0.2014  0.2560
17842SOL    HW155533   7.849   7.649   9.926  0.8714 -2.5029 -1.0766
17842SOL    HW255534   7.907   7.528   9.997 -2.0738 -2.0101  2.4669
17843SOL     OW55535   1.985   3.080   0.304  0.2528 -0.5272 -0.2504
17843SOL    HW155536   2.001   3.158   0.252 -2.5756  0.4581  0.2056
17843SOL    HW255537   1.967   3.113   0.392  0.1450 -1.7791  0.2185
17844SOL     OW55538  10.726   1.090   2.785  0.4423  0.2146 -0.2115
17844SOL    HW155539  10.670   1.075   2.709  0.1667  2.0157 -0.4034
17844SOL    HW255540  10.815   1.079   2.752  0.2906 -0.1741 -0.5042
17845SOL     OW55541   0.579   0.954   1.064  0.0336  0.5636 -0.2267
17845SOL    HW155542   0.532   0.893   1.007  1.1310 -1.1207  0.6016
17845SOL    HW255543   0.643   0.995   1.005  2.0756 -2.1345 -0.1021
17846SOL     OW55544   1.211   1.233   5.910 -0.1820  0.3659 -0.4085
17846SOL    HW155545   1.118   1.212   5.906 -0.1974  0.5001 -0.8594
17846SOL    HW255546   1.249   1.187   5.835  0.5554 -1.8198  1.2259
17847SOL     OW55547  10.680   6.757   5.726  0.0103  0.7051 -0.7398
17847SOL    HW155548  10.722   6.674   5.706 -0.7507  0.4501 -1.3004
17847SOL    HW255549  10.678   6.761   5.822  0.8355  0.4869 -0.7122
17848SOL     OW55550   6.911   4.670   2.585 -0.5638 -0.1946  0.3480
17848SOL    HW155551   6.920   4.726   2.662 -1.0984 -1.2854  1.2388
17848SOL    HW255552   6.875   4.727   2.517  0.5936  0.9562  0.6720
17849SOL     OW55553  10.142   3.632   9.323  0.6568 -0.1775 -0.3331
17849SOL    HW155554  10.156   3.689   9.248  2.8961 -0.6382 -0.3376
17849SOL    HW255555  10.110   3.690   9.392 -3.4033 -0.0507 -2.0593
17850SOL     OW55556   4.602  10.195   3.557 -0.3800  0.2695  0.4904
17850SOL    HW155557   4.538  10.203   3.486 -0.9719  1.1721  1.1059
17850SOL    HW255558   4.551  10.163   3.632  0.1839 -0.4188  0.5909
17851SOL     OW55559   3.360   8.481   8.339  0.3092 -0.4060  0.7770
17851SOL    HW155560   3.286   8.452   8.286  1.4818 -1.3322 -0.4219
17851SOL    HW255561   3.334   8.462   8.429 -1.3921  0.4337  0.5029
17852SOL     OW55562   7.731   6.591   2.779  0.1900  0.3586  0.1281
17852SOL    HW155563   7.692   6.619   2.697 -1.2005  0.1008  0.6734
17852SOL    HW255564   7.663   6.607   2.845  1.1280  0.2007  1.1701
17853SOL     OW55565   4.333  10.532   3.894 -0.3702 -0.0174 -0.4016
17853SOL    HW155566   4.396  10.596   3.927 -1.1203  1.7477 -2.1687
17853SOL    HW255567   4.255  10.584   3.874 -2.2001 -2.0238  1.0891
17854SOL     OW55568   2.241  10.232   0.744  0.5482 -0.2389  0.7073
17854SOL    HW155569   2.230  10.153   0.690 -0.2923 -0.3781  1.0588
17854SOL    HW255570   2.282  10.296   0.686  0.6722 -0.7427  0.2339
17855SOL     OW55571   6.462   2.597   0.092  0.3930 -0.1713  0.5032
17855SOL    HW155572   6.369   2.575   0.096 -0.6153  3.3666 -0.3302
17855SOL    HW255573   6.467   2.688   0.119  3.2514  0.5849 -1.9974
17856SOL     OW55574   5.800   4.691   8.481 -0.3331 -1.0594  0.2775
17856SOL    HW155575   5.724   4.710   8.426 -0.2057  0.3004  0.5196
17856SOL    HW255576   5.875   4.703   8.423 -0.2866 -2.1287  0.1096
17857SOL     OW55577   3.777   5.583   5.319 -0.2790 -0.0113  0.3669
17857SOL    HW155578   3.696   5.603   5.271  0.5230 -0.4300 -1.2626
17857SOL    HW255579   3.779   5.487   5.321 -0.3370 -0.0028  1.3720
17858SOL     OW55580  10.710   2.477   4.302  0.8768 -0.2345 -0.2751
17858SOL    HW155581  10.753   2.405   4.256 -0.6582 -0.3173 -1.7038
17858SOL    HW255582  10.625   2.441   4.328  1.1956  0.2248  1.5465
17859SOL     OW55583   9.986   6.954   6.730  0.5809  0.7166 -0.0940
17859SOL    HW155584  10.045   6.971   6.657 -1.3020  3.2394 -1.1859
17859SOL    HW255585   9.948   7.040   6.751 -1.5392 -0.5090  1.5542
17860SOL     OW55586   6.632   5.947  10.875  0.1862  0.3330  0.5119
17860SOL    HW155587   6.696   6.018  10.885  0.7189 -0.2530  1.3723
17860SOL    HW255588   6.685   5.867  10.875 -0.5722 -0.1964  1.8005
17861SOL     OW55589   8.882   9.466   1.832  0.1002 -0.4366  0.2250
17861SOL    HW155590   8.966   9.511   1.839 -0.1089 -0.1634  1.0851
17861SOL    HW255591   8.826   9.526   1.783 -0.1161  0.1700  1.1872
17862SOL     OW55592   7.791   3.779   1.746  0.0346  0.1708  0.9028
17862SOL    HW155593   7.728   3.830   1.798  0.3407  0.0141  1.4342
17862SOL    HW255594   7.765   3.688   1.758 -0.2242  0.1649  0.3340
17863SOL     OW55595   6.843   2.985   9.109 -0.1568 -0.2518  0.1707
17863SOL    HW155596   6.876   2.970   9.197 -0.0536 -1.6151 -0.0767
17863SOL    HW255597   6.899   3.054   9.073 -0.7233  0.8907  1.4414
17864SOL     OW55598   9.647   1.706  10.479  0.4988  0.3041 -0.0459
17864SOL    HW155599   9.681   1.788  10.443 -0.5287  1.3281  1.1630
17864SOL    HW255600   9.552   1.715  10.471  0.3871 -1.0577 -0.4474
17865SOL     OW55601  10.321   0.364   2.481 -0.8554 -0.1658 -0.0107
17865SOL    HW155602  10.361   0.298   2.424  0.3273  0.6370 -0.1462
17865SOL    HW255603  10.377   0.367   2.558  1.6514  3.5229 -1.7148
17866SOL     OW55604   6.891   9.270   8.818 -0.5161  0.4956 -0.7074
17866SOL    HW155605   6.896   9.210   8.893 -0.9869  2.4900  1.0043
17866SOL    HW255606   6.981   9.273   8.784 -0.0769  0.2667  0.3908
17867SOL     OW55607   6.405   3.520  10.084  0.2316 -0.1598 -0.0745
17867SOL    HW155608   6.369   3.440  10.047  1.2090  0.8999 -3.7724
17867SOL    HW255609   6.485   3.493  10.129 -1.0642 -1.5540  1.4965
17868SOL     OW55610   5.181   5.104   3.974 -0.1396 -0.4347  0.7564
17868SOL    HW155611   5.235   5.164   3.923 -0.4151 -2.0067 -1.5048
17868SOL    HW255612   5.242   5.062   4.034  1.1174 -1.6665 -1.2692
17869SOL     OW55613   8.745   2.122   3.173 -0.1364  0.3719 -0.1057
17869SOL    HW155614   8.820   2.149   3.227  0.3222 -1.0457 -0.0013
17869SOL    HW255615   8.758   2.167   3.090 -0.0952  1.4773  0.4766
17870SOL     OW55616   1.608  10.516  10.036  0.2646  0.1225 -0.4003
17870SOL    HW155617   1.592  10.424  10.015  2.6595  0.2437 -3.4559
17870SOL    HW255618   1.678  10.516  10.101  0.2426 -0.1967 -0.3797
17871SOL     OW55619   4.755   7.810   3.066 -0.6342 -0.1048 -0.2183
17871SOL    HW155620   4.790   7.739   3.011  2.6660  0.5188  0.8300
17871SOL    HW255621   4.796   7.889   3.031 -1.3047  0.7826  0.9494
17872SOL     OW55622   2.480  10.637   5.471 -0.0176 -0.2163  0.0033
17872SOL    HW155623   2.510  10.546   5.463 -1.5987 -0.7390 -0.3692
17872SOL    HW255624   2.555  10.690   5.444  0.5248 -1.4519 -1.0219
17873SOL     OW55625   2.251   5.324   6.601 -0.9552 -0.5011 -0.3788
17873SOL    HW155626   2.160   5.295   6.609 -1.0396  0.3227  2.9788
17873SOL    HW255627   2.298   5.274   6.668  0.3200  1.6675  0.4525
17874SOL     OW55628   0.712   3.199   8.317 -0.2678  0.4480  0.4640
17874SOL    HW155629   0.703   3.164   8.229  3.7239  0.6096 -0.1626
17874SOL    HW255630   0.621   3.215   8.345 -1.8299 -2.0947 -2.4979
17875SOL     OW55631   3.049   4.617   0.105  0.2550  0.7513  1.0256
17875SOL    HW155632   3.005   4.591   0.187  0.2982 -2.2146  0.2379
17875SOL    HW255633   2.985   4.599   0.037  1.1158  0.7113  0.2101
17876SOL     OW55634   7.478   7.977   0.225  0.2149  0.3685  0.2567
17876SOL    HW155635   7.499   7.937   0.309  0.4508  0.8903  0.4487
17876SOL    HW255636   7.408   7.922   0.189  2.1919 -1.7283 -0.6231
17877SOL     OW55637   1.605   3.877   3.278  0.1972 -0.7900 -0.2031
17877SOL    HW155638   1.591   3.822   3.201  0.6509 -2.1060  0.6211
17877SOL    HW255639   1.516   3.895   3.311 -0.0538  0.5203 -1.4896
17878SOL     OW55640   8.570  10.716  10.330  0.4410 -0.6390 -0.1748
17878SOL    HW155641   8.612  10.696  10.414 -2.2544 -0.9839  1.1849
17878SOL    HW255642   8.582  10.636  10.278 -0.9015 -1.8176  1.2390
17879SOL     OW55643   7.955   3.549   4.560 -0.3157  0.0004  0.3183
17879SOL    HW155644   7.996   3.607   4.496  0.2954  0.8952  1.4766
17879SOL    HW255645   7.904   3.487   4.507  0.1882  0.6795 -1.0187
17880SOL     OW55646   2.482   8.228   6.321  1.0951  0.1352 -0.1920
17880SOL    HW155647   2.543   8.179   6.265  1.0868  1.1018 -1.0863
17880SOL    HW255648   2.464   8.309   6.272 -2.4805 -0.9383 -1.0052
17881SOL     OW55649  10.046   4.428   6.740 -0.3996  0.5134 -0.3408
17881SOL    HW155650  10.141   4.413   6.735 -0.5035 -0.1495 -0.3956
17881SOL    HW255651  10.038   4.517   6.775  0.2431  0.6587 -0.5476
17882SOL     OW55652   8.209   5.698   2.745 -0.4286  0.5241 -0.5025
17882SOL    HW155653   8.244   5.719   2.658  1.1205 -0.7172 -0.2364
17882SOL    HW255654   8.234   5.773   2.800  0.0057  0.5785 -0.7728
17883SOL     OW55655   6.682   6.006   8.886  0.3880  0.1237 -0.1108
17883SOL    HW155656   6.707   5.977   8.974  3.7190 -1.3804 -1.3537
17883SOL    HW255657   6.751   6.068   8.861 -0.1856  0.1144 -1.8536
17884SOL     OW55658   8.641   0.511   5.566 -0.0851  0.1254 -0.1831
17884SOL    HW155659   8.703   0.559   5.512  3.6725 -1.3872  2.2905
17884SOL    HW255660   8.651   0.549   5.654 -1.6676 -1.1255  0.6087
17885SOL     OW55661   0.223   6.255   6.928 -0.1514  0.0532  0.2445
17885SOL    HW155662   0.191   6.233   7.015  1.4220 -2.5533  0.2774
17885SOL    HW255663   0.175   6.334   6.904 -3.0694 -0.9739  2.1124
17886SOL     OW55664   7.414   7.840   7.815 -0.0740  0.3765  0.2201
17886SOL    HW155665   7.474   7.802   7.879 -1.2059 -1.3836  0.3031
17886SOL    HW255666   7.329   7.803   7.837 -0.7268  0.7693 -1.4808
17887SOL     OW55667   8.475   5.038   8.312 -0.6091  0.3270 -0.4251
17887SOL    HW155668   8.531   5.091   8.368 -0.1155 -1.1162  0.5048
17887SOL    HW255669   8.518   5.037   8.227 -0.9316  1.8559 -0.6336
17888SOL     OW55670   0.624   1.138   8.251 -0.3384  0.1001 -0.0963
17888SOL    HW155671   0.538   1.156   8.287 -1.5654 -0.3841 -2.5299
17888SOL    HW255672   0.619   1.047   8.222 -0.0060  0.8042 -2.6391
17889SOL     OW55673   7.429   1.195   6.073  0.6739  0.3513  0.1417
17889SOL    HW155674   7.503   1.226   6.125  2.1604 -2.4723 -0.1445
17889SOL    HW255675   7.411   1.108   6.106 -1.9520  0.5848 -0.4715
17890SOL     OW55676   4.972   0.902   2.138 -0.5865  0.3972  0.2425
17890SOL    HW155677   5.009   0.815   2.147 -0.8586  0.2622  0.0599
17890SOL    HW255678   5.018   0.955   2.204  0.8689  0.5478 -0.8416
17891SOL     OW55679   1.537   4.349   9.997 -0.0993 -0.2440  0.2720
17891SOL    HW155680   1.587   4.268  10.008  0.7001 -0.0165 -1.3567
17891SOL    HW255681   1.454   4.321   9.958  0.5450 -0.2245 -1.1686
17892SOL     OW55682   8.158   3.964   5.490  0.1783  0.0964  0.4194
17892SOL    HW155683   8.206   3.923   5.418  1.0112 -0.7822  1.4474
17892SOL    HW255684   8.226   3.997   5.548 -0.4869  1.6945  0.3432
17893SOL     OW55685  10.337   0.892   3.751  0.0713  0.2729 -0.6076
17893SOL    HW155686  10.294   0.886   3.836  1.1531 -1.0336 -0.1138
17893SOL    HW255687  10.414   0.835   3.758  0.8882  1.1120 -2.0454
17894SOL     OW55688   1.991   9.042   0.554  0.1142  0.3030 -0.1625
17894SOL    HW155689   2.041   8.993   0.488 -2.0807  0.3273 -1.9806
17894SOL    HW255690   1.995   9.133   0.524 -0.0412  0.4731  0.3298
17895SOL     OW55691   4.611   3.073   4.828  0.6588  0.0492  0.2862
17895SOL    HW155692   4.658   2.993   4.807  1.4354  0.7332 -0.6846
17895SOL    HW255693   4.668   3.120   4.889  1.4298  1.0158 -1.1186
17896SOL     OW55694   2.148  10.531  10.081 -0.1354 -0.0306 -0.1725
17896SOL    HW155695   2.142  10.471  10.155  0.2472 -1.1720 -1.0250
17896SOL    HW255696   2.163  10.473  10.006 -1.2177  1.0155 -1.2451
17897SOL     OW55697   7.021   8.122   9.890 -0.4465  0.0668 -0.1069
17897SOL    HW155698   7.002   8.090   9.802  1.3436  0.4632 -0.6824
17897SOL    HW255699   7.000   8.215   9.888 -1.2053 -0.0947  0.1496
17898SOL     OW55700   9.156   2.945   2.888  0.5238 -0.4149 -0.0791
17898SOL    HW155701   9.088   2.918   2.951  0.4568  1.6217  0.7971
17898SOL    HW255702   9.238   2.935   2.936  0.4320  1.6817  0.6076
17899SOL     OW55703   2.259   9.106   7.743  0.4218 -0.1551  0.3744
17899SOL    HW155704   2.204   9.125   7.819 -1.2337  1.3158 -1.0797
17899SOL    HW255705   2.329   9.171   7.746  0.2545  0.0184  0.5502
17900SOL     OW55706   5.772  10.601   7.242  0.2112  0.2376  0.0576
17900SOL    HW155707   5.698  10.658   7.222  0.7514  1.0171  0.2087
17900SOL    HW255708   5.841  10.629   7.181  0.5849 -0.0476  0.3434
17901SOL     OW55709   7.149   7.393   0.435  0.1401 -0.1089 -0.0400
17901SOL    HW155710   7.184   7.466   0.384  0.1872 -0.4935 -0.5612
17901SOL    HW255711   7.207   7.388   0.511 -0.3676  0.9314  0.4389
17902SOL     OW55712   2.206   4.834   5.567 -0.1133 -0.5757  0.6361
17902SOL    HW155713   2.127   4.785   5.543  0.1924 -1.7278  1.8741
17902SOL    HW255714   2.186   4.873   5.652  0.2870 -0.0031  0.4730
17903SOL     OW55715   7.168   9.288   4.834  0.5076  0.3256 -0.4823
17903SOL    HW155716   7.124   9.367   4.865 -1.8735 -0.7944 -0.8476
17903SOL    HW255717   7.204   9.313   4.749 -0.9616  0.7982 -0.9918
17904SOL     OW55718   0.462   2.217   9.615  0.2383 -0.1036 -0.4857
17904SOL    HW155719   0.452   2.284   9.547 -1.1360  0.6134  0.3871
17904SOL    HW255720   0.538   2.247   9.666 -0.3936  0.8596 -0.0674
17905SOL     OW55721   3.547   9.598   2.460 -0.2774  0.2361 -0.3993
17905SOL    HW155722   3.518   9.679   2.418  0.1861  0.5278 -0.1618
17905SOL    HW255723   3.553   9.620   2.553 -3.3443 -0.9673  0.1999
17906SOL     OW55724  10.241  10.371   0.165 -0.2218  0.3143 -0.1203
17906SOL    HW155725  10.179  10.411   0.225 -2.2941 -1.8389 -0.6662
17906SOL    HW255726  10.305  10.328   0.221 -0.3394  0.8913  0.4738
17907SOL     OW55727   3.353   3.503   0.172  0.3997  0.2725 -0.3873
17907SOL    HW155728   3.277   3.445   0.170 -1.3634  2.4334  0.1610
17907SOL    HW255729   3.336   3.567   0.102  2.1221  0.3684 -0.7688
17908SOL     OW55730   6.766   8.396   1.225 -0.1694 -0.6567 -0.0427
17908SOL    HW155731   6.790   8.381   1.134 -0.3711  0.3410 -0.2721
17908SOL    HW255732   6.821   8.335   1.275  1.4183  0.2057 -0.6889
17909SOL     OW55733   6.182   8.587   4.508 -0.3355 -0.2861 -0.5130
17909SOL    HW155734   6.240   8.597   4.432 -0.9801  0.6135 -0.9082
17909SOL    HW255735   6.184   8.673   4.550  0.9092 -1.0702  1.1834
17910SOL     OW55736   1.052   8.795   3.589 -0.3761 -0.9188  0.0632
17910SOL    HW155737   1.020   8.729   3.528 -1.9633  0.6254 -0.8668
17910SOL    HW255738   1.006   8.775   3.671 -1.7978 -0.3178 -0.5405
17911SOL     OW55739   0.384   4.645   4.253  0.3125  0.2145  0.3510
17911SOL    HW155740   0.375   4.738   4.274 -4.6169  0.1904 -0.3118
17911SOL    HW255741   0.403   4.643   4.159  1.6986  0.4827  0.6104
17912SOL     OW55742   7.436   4.902  10.799 -0.3818  0.0238  0.1085
17912SOL    HW155743   7.471   4.933  10.882 -1.3160  0.6547  0.2857
17912SOL    HW255744   7.347   4.874  10.819 -0.1580 -1.1521 -0.4118
17913SOL     OW55745   0.759   6.677   8.027 -0.5052  0.0551  0.5879
17913SOL    HW155746   0.765   6.581   8.024 -0.0165  0.0481  1.4778
17913SOL    HW255747   0.710   6.695   8.107 -2.8827  0.4969 -0.8626
17914SOL     OW55748   3.058  10.748   9.487  0.6594 -0.1374 -0.1316
17914SOL    HW155749   3.111  10.820   9.519 -0.2840  0.1553  0.8300
17914SOL    HW255750   2.975  10.788   9.460  1.4284 -0.3286 -3.2137
17915SOL     OW55751   4.837   6.520   3.628 -0.5597 -0.9705  0.1673
17915SOL    HW155752   4.760   6.501   3.681 -0.7021  0.1712  0.3917
17915SOL    HW255753   4.908   6.473   3.671 -1.3435 -3.2683 -0.8728
17916SOL     OW55754   1.243   1.269   0.563  0.2389  0.0309 -0.1925
17916SOL    HW155755   1.318   1.286   0.619  1.0207 -0.9623 -0.8981
17916SOL    HW255756   1.261   1.184   0.524 -1.3265 -0.2863 -0.2836
17917SOL     OW55757   6.896   4.158   6.560 -0.2509 -0.3491  0.1387
17917SOL    HW155758   6.883   4.224   6.628  0.9732 -1.9976  2.1097
17917SOL    HW255759   6.808   4.127   6.540 -1.0853  2.9494 -2.1587
17918SOL     OW55760   7.794   0.292   6.447  0.2260  0.0902  0.2999
17918SOL    HW155761   7.851   0.368   6.458  2.5056 -1.0906 -2.2579
17918SOL    HW255762   7.845   0.218   6.480 -0.3811 -0.8177 -0.7446
17919SOL     OW55763   8.855   5.520   1.070  0.9688  0.1684 -0.5155
17919SOL    HW155764   8.933   5.476   1.104  1.4206  2.2980  1.4998
17919SOL    HW255765   8.787   5.453   1.069  2.0399 -0.9776  0.7618
17920SOL     OW55766   6.046   2.285   4.959  0.5799  0.3751  0.2157
17920SOL    HW155767   5.963   2.270   4.914 -0.2482 -0.0806  1.8272
17920SOL    HW255768   6.104   2.216   4.927 -0.3405 -0.6412  0.6714
17921SOL     OW55769   0.240  10.995   9.630 -0.1973 -0.2285  0.4578
17921SOL    HW155770   0.204  11.084   9.635 -1.1543 -0.5530 -0.2992
17921SOL    HW255771   0.307  10.993   9.698  0.3711  1.3070 -0.0018
17922SOL     OW55772   1.641   1.166   8.955  0.0769 -0.6553 -0.0680
17922SOL    HW155773   1.594   1.188   9.035  0.7918 -1.4657  0.5906
17922SOL    HW255774   1.615   1.076   8.936 -1.9280  0.2502 -2.0902
17923SOL     OW55775   9.603   0.587   3.423  0.3518 -0.1047  0.1400
17923SOL    HW155776   9.522   0.538   3.435 -1.0771  2.1706  0.5228
17923SOL    HW255777   9.611   0.596   3.328 -0.2962  0.2815  0.1090
17924SOL     OW55778   4.211   0.227   5.119  0.0317  0.0466 -0.3343
17924SOL    HW155779   4.208   0.132   5.130 -0.0442  0.0947  0.1071
17924SOL    HW255780   4.168   0.243   5.035  0.6708 -0.3582 -0.7491
17925SOL     OW55781   4.186   1.015   6.167  0.4353  0.5358 -0.4682
17925SOL    HW155782   4.170   1.030   6.074 -0.8715 -0.7883 -0.4915
17925SOL    HW255783   4.134   0.937   6.188 -1.2057  2.1403  1.9021
17926SOL     OW55784   6.999   9.452   9.339 -0.1890 -0.4767  0.3567
17926SOL    HW155785   7.076   9.451   9.282  0.7503  1.6572  1.4852
17926SOL    HW255786   7.027   9.406   9.418  0.4103  1.3323  1.2559
17927SOL     OW55787  10.512   0.229  10.489  0.0483 -0.3141  0.3753
17927SOL    HW155788  10.439   0.278  10.452 -0.2060 -1.5207 -0.8326
17927SOL    HW255789  10.523   0.155  10.429  0.1292 -1.9603  2.3142
17928SOL     OW55790   4.110  10.211   1.483  0.3438 -0.1416 -0.0001
17928SOL    HW155791   4.100  10.280   1.549  2.4644  0.3252 -0.1128
17928SOL    HW255792   4.125  10.132   1.534 -0.5847 -0.2702  0.0967
17929SOL     OW55793   4.316   0.543   2.056  0.1057  0.4652 -0.0663
17929SOL    HW155794   4.227   0.523   2.086 -0.0608  2.1986  0.7208
17929SOL    HW255795   4.354   0.458   2.036 -1.5702 -0.3572  0.0329
17930SOL     OW55796   6.607   0.182   0.850  0.3477  0.0777 -0.4574
17930SOL    HW155797   6.545   0.153   0.917  0.9916 -0.1410  0.0559
17930SOL    HW255798   6.599   0.116   0.780  0.9098 -0.6663  0.1624
17931SOL     OW55799   9.376   1.755  11.004  0.0003 -0.4537  0.1404
17931SOL    HW155800   9.457   1.741  10.956 -0.4984 -1.1843 -0.5083
17931SOL    HW255801   9.393   1.720  11.092  1.3458  2.0250  0.9703
17932SOL     OW55802   4.180   5.183   0.011  0.4868 -0.0934 -0.1070
17932SOL    HW155803   4.234   5.166   0.088  0.3505  0.8922  0.2143
17932SOL    HW255804   4.150   5.096  -0.016  2.4878 -0.7055 -0.5219
17933SOL     OW55805  10.627   2.567   1.555 -0.1676  0.2436  0.2581
17933SOL    HW155806  10.545   2.614   1.563 -0.6513 -0.6878  0.8563
17933SOL    HW255807  10.646   2.535   1.643 -0.0434 -0.9754 -0.1887
17934SOL     OW55808   2.102   9.368   8.268  0.0664  0.3279  0.8348
17934SOL    HW155809   2.051   9.396   8.344 -0.2668 -1.2596  1.2304
17934SOL    HW255810   2.057   9.290   8.236  0.5674  0.6066 -0.6184
17935SOL     OW55811   2.036   0.921   4.807 -0.4341 -0.5393  0.1215
17935SOL    HW155812   2.028   1.016   4.805 -0.8508 -0.5328 -2.5244
17935SOL    HW255813   2.024   0.897   4.898 -0.9260  1.8951  0.7605
17936SOL     OW55814   1.178   3.217   5.207  0.3118  0.6109  1.1495
17936SOL    HW155815   1.258   3.195   5.159 -0.3422 -0.7065  0.6130
17936SOL    HW255816   1.206   3.220   5.298  0.5612 -2.2595  1.2528
17937SOL     OW55817   2.324   9.207   6.917 -0.3100  0.5151 -0.0501
17937SOL    HW155818   2.265   9.188   6.990 -0.8159  1.4540 -0.2106
17937SOL    HW255819   2.319   9.129   6.862 -1.7032  0.7245 -0.2607
17938SOL     OW55820   2.761   4.773   0.971  0.4594  0.0386  0.2181
17938SOL    HW155821   2.678   4.792   0.927  1.1312  1.8782 -0.3633
17938SOL    HW255822   2.784   4.856   1.014  1.6943 -0.6205  0.8750
17939SOL     OW55823   5.156   3.249   2.130  0.1951  0.3441  0.3729
17939SOL    HW155824   5.092   3.183   2.157  0.6641  0.2879  1.3958
17939SOL    HW255825   5.151   3.250   2.035  0.0835 -1.0849  0.3409
17940SOL     OW55826   4.318   3.815   7.375  0.0102  0.5024  0.0918
17940SOL    HW155827   4.273   3.772   7.447  0.5561  1.8626  1.2958
17940SOL    HW255828   4.372   3.882   7.417  1.9435 -0.0196 -1.4186
17941SOL     OW55829   7.410   9.702   8.232  0.2273 -0.0188 -0.3784
17941SOL    HW155830   7.361   9.743   8.161  0.3308  1.3431  0.3003
17941SOL    HW255831   7.380   9.747   8.311  1.9736  0.2962  0.1516
17942SOL     OW55832   8.010   3.320  10.134  0.2243 -0.1462 -0.0205
17942SOL    HW155833   8.047   3.399  10.172 -1.9996  0.7440  0.4171
17942SOL    HW255834   8.084   3.260  10.127  1.8050  1.6737  0.3737
17943SOL     OW55835   8.367   8.039   6.524 -0.3385  0.0460  0.2601
17943SOL    HW155836   8.317   8.011   6.601 -0.2702  0.3407  0.4117
17943SOL    HW255837   8.322   7.997   6.450  0.0899 -0.9128  0.5346
17944SOL     OW55838   0.687  10.001   7.762  0.3005  0.2137 -0.5108
17944SOL    HW155839   0.781   9.982   7.753  0.2293 -0.7376  0.5560
17944SOL    HW255840   0.677  10.089   7.727  1.2916 -0.3151 -2.2591
17945SOL     OW55841   2.502   6.762   5.779  0.0170 -1.0099  0.5386
17945SOL    HW155842   2.422   6.768   5.727 -0.1094 -0.4889  0.7883
17945SOL    HW255843   2.528   6.853   5.795  0.5003 -1.1715  0.7039
17946SOL     OW55844   5.845   9.058   9.368 -0.3801 -0.4366 -0.4780
17946SOL    HW155845   5.839   9.132   9.309  1.9754 -1.1857 -1.7816
17946SOL    HW255846   5.842   8.981   9.311  1.5299 -1.1924  0.3538
17947SOL     OW55847   5.376   5.223  10.163  0.3818 -0.5641  0.4758
17947SOL    HW155848   5.353   5.140  10.121  2.4812 -1.3566  0.7410
17947SOL    HW255849   5.336   5.290  10.108  0.7939 -1.6721 -1.2627
17948SOL     OW55850   0.807   9.785   3.523 -0.5653  0.7980 -0.3193
17948SOL    HW155851   0.866   9.849   3.563 -1.7395  0.9549  1.2696
17948SOL    HW255852   0.719   9.817   3.544 -1.1991 -1.1740  0.2828
17949SOL     OW55853   3.238   7.982   8.502 -0.8777 -0.5419  0.0837
17949SOL    HW155854   3.283   8.016   8.425 -1.1736  0.4820  0.3575
17949SOL    HW255855   3.304   7.928   8.546 -0.7532 -1.2775 -0.9528
17950SOL     OW55856   5.156  10.777   7.445  0.2783 -0.2665 -0.2616
17950SOL    HW155857   5.194  10.783   7.533  3.0566  1.9081 -1.4298
17950SOL    HW255858   5.144  10.684   7.430  4.3434 -1.1641  0.7759
17951SOL     OW55859   1.964  11.069   3.916  0.1685 -0.0626 -0.2070
17951SOL    HW155860   2.023  11.144   3.907  0.9956 -0.8240 -1.2827
17951SOL    HW255861   2.017  11.002   3.958 -0.7787  0.1519  1.4379
17952SOL     OW55862   5.792   6.389   8.262  0.0384 -0.0090  0.4337
17952SOL    HW155863   5.715   6.417   8.310  0.2920  0.7341  0.4225
17952SOL    HW255864   5.823   6.469   8.218  0.8893 -0.2615  0.5595
17953SOL     OW55865  10.604   4.480   5.163  0.1406 -0.2458  0.2690
17953SOL    HW155866  10.549   4.402   5.155 -1.5874  1.0351 -0.9507
17953SOL    HW255867  10.655   4.482   5.081  2.2762 -1.5245  1.4610
17954SOL     OW55868   7.113   5.587   9.426  0.4911 -1.0317  0.1382
17954SOL    HW155869   7.192   5.551   9.466  0.4270 -1.0192  0.2772
17954SOL    HW255870   7.082   5.518   9.368  0.1595 -1.3503  0.6888
17955SOL     OW55871   0.187   9.013   9.470 -0.4255  0.4024  0.0878
17955SOL    HW155872   0.155   9.020   9.560 -2.1934  3.2917 -0.6200
17955SOL    HW255873   0.225   9.100   9.452  0.4636 -0.3193 -1.7643
17956SOL     OW55874   5.724   5.322   0.070 -0.4888  0.1532  0.1464
17956SOL    HW155875   5.684   5.369  -0.003  0.7835  1.7932  0.4488
17956SOL    HW255876   5.806   5.288   0.034  0.5277  1.6389  0.9612
17957SOL     OW55877   5.107   3.447   5.129 -0.0224 -0.0909  0.0506
17957SOL    HW155878   5.187   3.396   5.139  0.1167  0.3618  1.3918
17957SOL    HW255879   5.136   3.529   5.088 -0.0479 -0.5226 -0.8606
17958SOL     OW55880   5.155  10.664   8.096  0.1148  0.1099  0.0008
17958SOL    HW155881   5.148  10.693   8.187  2.0617  1.1151 -0.1050
17958SOL    HW255882   5.103  10.727   8.046  2.1225  1.9517  0.0703
17959SOL     OW55883   3.395   2.086   6.475 -0.5974 -0.2560 -0.0260
17959SOL    HW155884   3.308   2.069   6.439 -0.5523  1.9575 -1.3824
17959SOL    HW255885   3.404   2.024   6.547 -2.3159 -2.1547 -1.3587
17960SOL     OW55886  10.644   7.443   1.287  0.0010  0.8018  0.0239
17960SOL    HW155887  10.576   7.382   1.316 -0.9240  2.2657  1.0708
17960SOL    HW255888  10.726   7.393   1.295 -0.8268 -0.6435 -0.2362
17961SOL     OW55889   9.025   2.773   7.881  0.2414  0.2390  0.4405
17961SOL    HW155890   9.023   2.694   7.934 -2.0146  1.4851  2.4120
17961SOL    HW255891   9.109   2.770   7.836  2.0036 -1.2904  3.5418
17962SOL     OW55892   8.691   7.512   5.647  0.9608  0.7835 -0.4622
17962SOL    HW155893   8.642   7.580   5.601  2.1716  0.6700 -1.9899
17962SOL    HW255894   8.781   7.545   5.650  1.2779 -0.0997  0.1057
17963SOL     OW55895   0.267   8.108   9.203 -0.8693 -0.6477 -0.2692
17963SOL    HW155896   0.311   8.165   9.140  0.8506 -0.9306  0.6067
17963SOL    HW255897   0.196   8.162   9.238 -0.4049  0.3198 -0.7714
17964SOL     OW55898   8.656   7.848   4.609 -0.0048 -0.3358 -0.5012
17964SOL    HW155899   8.673   7.932   4.568  0.8772  0.1618  0.8257
17964SOL    HW255900   8.561   7.844   4.618 -0.0615  0.4709 -0.6760
17965SOL     OW55901   9.447   0.998   8.318  0.0981 -0.0214  0.3368
17965SOL    HW155902   9.353   1.018   8.323 -0.3347 -1.6542 -0.6990
17965SOL    HW255903   9.464   0.944   8.396  0.1066 -0.0176  0.3371
17966SOL     OW55904   0.198   8.368   6.315  0.0486 -0.0859  0.0511
17966SOL    HW155905   0.206   8.323   6.231 -1.8167 -2.5375  1.0746
17966SOL    HW255906   0.105   8.364   6.336  0.1439  2.4456  1.2489
17967SOL     OW55907   1.128   8.541   2.722 -0.7495  0.2337 -0.0363
17967SOL    HW155908   1.119   8.489   2.802 -0.3352 -2.3758 -1.5483
17967SOL    HW255909   1.222   8.557   2.715 -0.9545  2.0566  0.8684
17968SOL     OW55910   0.742   6.749   2.788 -0.5272  0.8917  0.1096
17968SOL    HW155911   0.666   6.787   2.743  1.2419  0.7321 -3.3958
17968SOL    HW255912   0.792   6.707   2.718  0.7114 -2.7078  2.8516
17969SOL     OW55913   6.211   5.965   0.584  0.1818 -0.0458 -0.2703
17969SOL    HW155914   6.130   5.984   0.631 -0.1663 -0.8045 -0.5343
17969SOL    HW255915   6.265   6.043   0.595 -0.7335  0.6180 -0.4129
17970SOL     OW55916   0.113   2.535   4.243 -0.0113  0.8628  0.4383
17970SOL    HW155917   0.100   2.614   4.190 -0.2210  0.5133 -0.0416
17970SOL    HW255918   0.199   2.503   4.217 -0.4054  0.3065 -0.2136
17971SOL     OW55919   0.006   1.689   0.636  0.0432  0.1951 -0.4388
17971SOL    HW155920   0.082   1.687   0.578  1.4248  0.3190  1.2920
17971SOL    HW255921  -0.041   1.769   0.611 -0.8220 -1.0169 -3.0275
17972SOL     OW55922   3.173  10.865   3.898 -0.3837  0.3667 -0.5416
17972SOL    HW155923   3.145  10.913   3.976 -1.7622  0.9183 -1.3381
17972SOL    HW255924   3.118  10.786   3.897  0.3836 -0.1774 -0.3861
17973SOL     OW55925   8.518   3.478   0.010  0.2289 -0.1502 -0.5091
17973SOL    HW155926   8.447   3.452   0.069 -0.6211 -0.8063 -1.7931
17973SOL    HW255927   8.586   3.511   0.069 -0.8057 -0.2589  0.8064
17974SOL     OW55928   5.704   1.688   4.464  0.9758  0.6305 -0.2236
17974SOL    HW155929   5.663   1.774   4.473  0.6431  0.5193 -0.6382
17974SOL    HW255930   5.739   1.687   4.375  1.1733  0.4207 -0.1445
17975SOL     OW55931   9.087   0.920   0.522  0.2746  0.0952 -0.4343
17975SOL    HW155932   9.120   0.920   0.432  1.2990 -1.2944 -0.1066
17975SOL    HW255933   9.026   0.846   0.525  1.2372 -0.6858  0.3272
17976SOL     OW55934   4.645   8.591   8.022 -0.5212 -0.0104  0.0514
17976SOL    HW155935   4.690   8.672   7.996  1.5191 -1.0650  0.1018
17976SOL    HW255936   4.628   8.545   7.939  1.4280 -1.0574  0.1823
17977SOL     OW55937   9.164   1.846   0.122  0.1881  0.1430 -0.4500
17977SOL    HW155938   9.082   1.825   0.077 -0.4712  2.1786 -0.3356
17977SOL    HW255939   9.232   1.801   0.071 -0.9556 -1.2863 -0.7648
17978SOL     OW55940   6.797   0.772   4.790 -0.4191 -0.0226 -0.1763
17978SOL    HW155941   6.856   0.773   4.866 -0.1970  0.1403 -0.3519
17978SOL    HW255942   6.855   0.769   4.714 -0.6378  0.0794 -0.3483
17979SOL     OW55943   4.287   8.664   4.406  0.0783 -0.2311 -0.1691
17979SOL    HW155944   4.299   8.716   4.486  0.8456 -2.4978  1.2884
17979SOL    HW255945   4.321   8.577   4.429 -1.1807 -1.4076 -2.4651
17980SOL     OW55946   6.253   5.108   0.824  0.6071 -0.1627 -0.3610
17980SOL    HW155947   6.175   5.138   0.779  1.7578  1.4315 -1.4243
17980SOL    HW255948   6.232   5.020   0.855 -2.0659  0.7535  0.6326
17981SOL     OW55949   0.872   2.645   1.803  0.4513 -0.2347 -0.5772
17981SOL    HW155950   0.922   2.727   1.801  1.1999 -0.6470  0.5814
17981SOL    HW255951   0.870   2.616   1.712  1.7874  0.1211 -0.7370
17982SOL     OW55952   9.154  10.566   1.383  0.0929 -0.0560  0.3541
17982SOL    HW155953   9.105  10.614   1.315  0.5477  0.9727  0.7432
17982SOL    HW255954   9.195  10.493   1.335  0.3031  0.5768 -0.4578
17983SOL     OW55955   8.424  10.192   3.127  0.5149 -0.4495  0.0334
17983SOL    HW155956   8.398  10.132   3.196  0.7778 -1.1434 -0.4633
17983SOL    HW255957   8.356  10.184   3.061  1.2713 -1.2604 -0.6621
17984SOL     OW55958   7.574   7.786   9.380  0.2486  0.1050 -0.0681
17984SOL    HW155959   7.647   7.774   9.320 -0.3397  0.7409 -0.9273
17984SOL    HW255960   7.502   7.737   9.341 -0.1166  0.4582  0.1573
17985SOL     OW55961   9.982   0.933   9.669 -0.3175  0.1895  1.1498
17985SOL    HW155962  10.054   0.996   9.662 -1.2242  1.1595  0.1866
17985SOL    HW255963   9.946   0.927   9.580 -1.4499 -0.2466  1.6131
17986SOL     OW55964   9.089   1.565   8.968 -1.0664 -0.1920 -0.1494
17986SOL    HW155965   9.136   1.515   8.901 -0.6602  0.4389 -0.3472
17986SOL    HW255966   9.049   1.499   9.024 -0.8158 -0.7328 -0.6014
17987SOL     OW55967   6.064   1.740   4.418  0.1981 -0.5502  0.3849
17987SOL    HW155968   6.086   1.687   4.495 -1.3403 -0.9053  0.6134
17987SOL    HW255969   6.003   1.685   4.368 -0.2162  0.4013 -0.1659
17988SOL     OW55970   2.492   0.454   0.263 -0.0843 -0.5145 -0.4605
17988SOL    HW155971   2.456   0.505   0.190 -0.0458 -1.9001 -1.4786
17988SOL    HW255972   2.563   0.403   0.225  1.2759  0.2041  0.9815
17989SOL     OW55973   2.761   3.330   4.118 -1.2344  0.0973  0.1742
17989SOL    HW155974   2.801   3.263   4.174 -1.7700  0.2817  0.7903
17989SOL    HW255975   2.709   3.280   4.055 -1.6737 -0.0674  0.6642
17990SOL     OW55976   9.247   7.439   4.597  0.1052  0.6046  0.4384
17990SOL    HW155977   9.239   7.344   4.604 -2.1794  0.6885 -0.3351
17990SOL    HW255978   9.280   7.454   4.508  2.0731  0.5453  1.0939
17991SOL     OW55979   4.449   7.582   2.025  0.2354 -0.2442 -0.6081
17991SOL    HW155980   4.493   7.556   2.106 -0.4663  0.7484  0.1152
17991SOL    HW255981   4.409   7.666   2.045 -0.0096 -0.0078 -1.9807
17992SOL     OW55982   7.272   0.584   5.024 -0.1418 -0.1003 -0.6683
17992SOL    HW155983   7.305   0.553   4.940 -0.0482  1.0907 -1.0977
17992SOL    HW255984   7.319   0.666   5.040 -0.5844 -0.0067  0.2563
17993SOL     OW55985   8.806   3.098   4.012 -0.1548 -0.3373  0.1339
17993SOL    HW155986   8.793   3.086   3.918 -1.2695 -1.0365  0.3530
17993SOL    HW255987   8.809   3.009   4.047 -1.4925 -0.0754  0.9668
17994SOL     OW55988   2.888   4.785   6.856 -0.1197  0.3011  0.5245
17994SOL    HW155989   2.860   4.738   6.934  0.7107  1.9351  1.8682
17994SOL    HW255990   2.975   4.819   6.878 -0.4375  1.9615 -0.5784
17995SOL     OW55991   4.340   5.309  10.610 -0.4806  0.0785  0.2958
17995SOL    HW155992   4.339   5.219  10.642 -1.9204 -0.5682 -1.4082
17995SOL    HW255993   4.295   5.359  10.679 -0.2616 -0.6015  0.9515
17996SOL     OW55994   5.563   3.854   8.140  0.1767 -0.0197 -0.4474
17996SOL    HW155995   5.641   3.804   8.165  0.9826  1.1860 -0.4447
17996SOL    HW255996   5.530   3.809   8.062 -0.4039 -1.8157  0.7992
17997SOL     OW55997   6.235   7.346   2.269 -0.5610  0.1156 -0.6232
17997SOL    HW155998   6.273   7.433   2.278 -1.3161  0.5411 -1.3532
17997SOL    HW255999   6.302   7.296   2.223 -1.0182  0.9901 -2.3271
17998SOL     OW56000   0.512   2.448  10.490 -0.2745 -0.3285 -0.4301
17998SOL    HW156001   0.577   2.496  10.542  1.5530 -0.9105 -2.0227
17998SOL    HW256002   0.463   2.517  10.444  0.0256  0.0961 -0.1271
17999SOL     OW56003  10.509   5.147   7.240  0.8225  0.4804  0.0330
17999SOL    HW156004  10.437   5.202   7.273 -0.3204  0.4971 -2.2829
17999SOL    HW256005  10.465   5.072   7.199  2.2484 -0.6829  0.5525
18000SOL     OW56006   5.659   2.280   4.508 -0.0974  0.3102  0.2280
18000SOL    HW156007   5.732   2.295   4.568  0.3575 -1.5911  0.2193
18000SOL    HW256008   5.583   2.267   4.565  0.2442 -1.0117  0.4340
18001SOL     OW56009   8.954   0.668   0.474 -0.2113 -0.0363  0.0635
18001SOL    HW156010   8.865   0.662   0.440  0.6085 -2.4688 -2.0592
18001SOL    HW256011   9.010   0.649   0.398  2.0442 -0.2616  1.6607
18002SOL     OW56012   4.536   9.966   1.742  0.2709  0.4822  0.1601
18002SOL    HW156013   4.491   9.882   1.732  0.5035  0.3794 -0.0204
18002SOL    HW256014   4.537  10.004   1.654  0.9976  0.2465  0.0638
18003SOL     OW56015   0.466  10.151   9.950  0.4487 -0.2560  0.3246
18003SOL    HW156016   0.554  10.135   9.983  1.3734  1.9007 -0.9054
18003SOL    HW256017   0.473  10.134   9.856 -0.5133 -0.2473  0.2414
18004SOL     OW56018  10.919   3.234   9.033  0.5166 -0.3066  0.3931
18004SOL    HW156019  10.829   3.201   9.031  0.5732 -0.4230 -0.3352
18004SOL    HW256020  10.963   3.181   9.099 -0.2250  0.4913  1.5863
18005SOL     OW56021   8.733   7.831   5.717  0.4715 -0.7308  0.5158
18005SOL    HW156022   8.819   7.788   5.714  0.8656  0.1084 -1.4752
18005SOL    HW256023   8.696   7.818   5.630 -1.3102 -0.8014  1.2479
18006SOL     OW56024   6.823   9.871   4.010  0.2417 -0.5717 -0.1163
18006SOL    HW156025   6.786   9.924   3.939 -1.4865  1.5005  2.1798
18006SOL    HW256026   6.892   9.926   4.047 -0.5301 -0.5089  1.3163
18007SOL     OW56027   3.322   7.630   0.907 -0.0165  0.3397  0.0859
18007SOL    HW156028   3.301   7.575   0.831  0.8637  0.1078  0.0028
18007SOL    HW256029   3.302   7.719   0.878 -0.7890  0.1427 -0.0164
18008SOL     OW56030   1.256   3.162   4.105  0.5807 -0.1032 -0.2856
18008SOL    HW156031   1.272   3.237   4.048  1.3611  1.0197  1.3195
18008SOL    HW256032   1.341   3.119   4.112  0.6208  0.0779  0.4204
18009SOL     OW56033   1.853   3.744   7.840  0.1502  0.4669 -0.5463
18009SOL    HW156034   1.911   3.742   7.764  0.3839  1.3352 -0.3938
18009SOL    HW256035   1.812   3.830   7.838 -0.2724  0.2883 -0.0040
18010SOL     OW56036   1.818   3.729   8.121 -0.5538  0.2681 -0.6248
18010SOL    HW156037   1.911   3.715   8.141 -0.7058 -1.8737 -1.2150
18010SOL    HW256038   1.817   3.747   8.027 -0.7682  0.0619 -0.6606
18011SOL     OW56039   0.862   3.331   0.060  0.3276  0.2136 -0.0520
18011SOL    HW156040   0.941   3.343   0.112 -1.5496  1.4491  2.7003
18011SOL    HW256041   0.875   3.387  -0.017  1.2943  2.0346  1.3657
18012SOL     OW56042   4.261   5.356   7.366  0.3249 -0.0286 -0.0659
18012SOL    HW156043   4.274   5.277   7.314 -1.6891 -0.1876 -0.3891
18012SOL    HW256044   4.300   5.426   7.314  3.0641 -0.8688  0.6801
18013SOL     OW56045  10.006   2.470   8.134 -0.2214 -0.0177 -0.1121
18013SOL    HW156046  10.022   2.446   8.226 -0.4168 -0.4268 -0.1809
18013SOL    HW256047   9.945   2.403   8.103  1.8419 -1.4855 -1.3043
18014SOL     OW56048   9.220   7.655   1.902  0.3861  0.2408  0.5898
18014SOL    HW156049   9.274   7.718   1.854  0.1602 -0.6488 -0.9093
18014SOL    HW256050   9.178   7.603   1.833 -0.0664 -1.0067  1.7726
18015SOL     OW56051   2.573   1.537   4.722  0.3913  0.7283 -0.1326
18015SOL    HW156052   2.529   1.459   4.688 -1.0895  1.0742  0.8426
18015SOL    HW256053   2.647   1.551   4.664 -0.0953 -0.6261 -1.1302
18016SOL     OW56054   5.917   0.187   4.938  0.9567 -0.3566 -0.1934
18016SOL    HW156055   5.939   0.149   4.853  0.7965 -0.4520 -0.1929
18016SOL    HW256056   5.941   0.279   4.930  1.2583 -0.4375 -0.2270
18017SOL     OW56057   6.194   6.574   4.046 -0.1578 -0.2011  0.0206
18017SOL    HW156058   6.161   6.641   3.987 -0.5102  1.0204  1.5205
18017SOL    HW256059   6.240   6.511   3.990 -2.5384 -0.4248 -1.7971
18018SOL     OW56060   8.008   8.448  10.168  0.9928  0.6058  0.1537
18018SOL    HW156061   8.062   8.520  10.133  0.4803  0.3435 -1.2697
18018SOL    HW256062   8.036   8.371  10.118  0.1651  0.2204  0.2764
18019SOL     OW56063   2.997   4.568   2.106 -0.9540 -0.3606  0.2313
18019SOL    HW156064   2.985   4.613   2.023 -3.7931 -0.2071  0.6324
18019SOL    HW256065   2.952   4.484   2.095  1.4669 -1.7950  0.5810
18020SOL     OW56066   5.043   1.574   8.961 -0.7584  0.3610  0.3856
18020SOL    HW156067   4.973   1.635   8.936 -1.7333 -0.7626  0.2497
18020SOL    HW256068   5.021   1.493   8.915  0.4546 -0.1303  0.6302
18021SOL     OW56069   3.092   2.625   3.565  0.1083 -0.1787  0.3030
18021SOL    HW156070   3.017   2.651   3.512 -1.5717 -1.2560  2.0086
18021SOL    HW256071   3.093   2.530   3.559  1.0955 -0.1926  0.6117
18022SOL     OW56072   1.200   3.484   7.749  0.4306 -0.7247 -0.3721
18022SOL    HW156073   1.251   3.536   7.687 -1.1424  0.6168 -0.6312
18022SOL    HW256074   1.225   3.517   7.835  0.2974 -0.3478 -0.4765
18023SOL     OW56075   7.120   1.484   3.620 -0.5170  0.6990 -0.4206
18023SOL    HW156076   7.077   1.570   3.618 -0.1531  0.8746 -2.2719
18023SOL    HW256077   7.055   1.424   3.583 -0.3769  0.3596 -0.1200
18024SOL     OW56078   3.507   3.728   5.792 -0.9077 -0.1478  0.3314
18024SOL    HW156079   3.464   3.767   5.868 -1.0617 -2.1654  1.3565
18024SOL    HW256080   3.484   3.785   5.719 -0.3269  2.1674  1.8495
18025SOL     OW56081   7.842   0.612   9.150 -0.6621  0.0726  0.2859
18025SOL    HW156082   7.849   0.600   9.055  1.1814 -1.0531  0.4996
18025SOL    HW256083   7.911   0.675   9.171  0.3901 -1.2902  1.0849
18026SOL     OW56084   0.828   0.350   6.651  0.0572 -0.2553 -0.7582
18026SOL    HW156085   0.738   0.343   6.619  0.2894  2.6335 -2.3634
18026SOL    HW256086   0.825   0.421   6.715  1.4180  1.1221 -2.1304
18027SOL     OW56087   0.928   8.885   6.495  0.6453  0.2240 -0.0897
18027SOL    HW156088   0.964   8.867   6.581  0.5310  1.9784  0.3679
18027SOL    HW256089   0.921   8.799   6.453 -1.2636 -0.9714  2.3891
18028SOL     OW56090   5.578  10.320   1.236  0.7429  0.0475  0.2024
18028SOL    HW156091   5.576  10.416   1.244 -1.1572  0.5582 -3.6819
18028SOL    HW256092   5.668  10.296   1.257  0.7301  2.2665  3.6908
18029SOL     OW56093  10.874   7.136   3.487 -0.6365  0.1438 -1.1469
18029SOL    HW156094  10.892   7.044   3.507 -0.0790  0.2435 -1.1841
18029SOL    HW256095  10.824   7.167   3.563 -1.0724 -0.2570 -1.2599
18030SOL     OW56096   0.119   1.611   7.691 -0.0714  0.0610  0.2460
18030SOL    HW156097   0.136   1.647   7.778  0.1264  1.0145 -0.1760
18030SOL    HW256098   0.026   1.627   7.675 -0.6859 -2.1585  1.1828
18031SOL     OW56099  10.882   9.229   7.625  0.0695 -0.4683  0.2028
18031SOL    HW156100  10.935   9.307   7.641  0.1102 -0.7632  1.6066
18031SOL    HW256101  10.863   9.232   7.531  1.0500  0.5988  0.0164
18032SOL     OW56102   7.975   3.614   4.038 -0.2235  0.2481 -0.7974
18032SOL    HW156103   7.897   3.607   3.983 -1.9467  1.9158  1.2982
18032SOL    HW256104   8.011   3.700   4.018 -0.0916  0.3115 -0.2973
18033SOL     OW56105   6.746   7.191  10.273  0.4706 -0.5152 -0.1693
18033SOL    HW156106   6.791   7.111  10.299 -0.7441 -0.8151  1.0850
18033SOL    HW256107   6.784   7.259  10.329  1.4243 -0.1979 -1.1578
18034SOL     OW56108   2.124   5.398   0.872 -0.4184 -0.4034 -0.3961
18034SOL    HW156109   2.118   5.334   0.943 -1.0298  0.6872  0.5828
18034SOL    HW256110   2.041   5.389   0.824 -1.0773  0.4956  0.5244
18035SOL     OW56111   0.557   6.352   3.830  0.0552 -0.2706 -0.1520
18035SOL    HW156112   0.582   6.261   3.843  0.6976 -0.1129 -0.2284
18035SOL    HW256113   0.635   6.402   3.857 -0.6987  0.3096  1.0426
18036SOL     OW56114   3.174   7.799   9.226 -0.0844  0.0108 -0.3045
18036SOL    HW156115   3.231   7.805   9.150 -1.1877 -0.7634 -1.2205
18036SOL    HW256116   3.114   7.727   9.206 -1.2832  0.6938  0.6772
18037SOL     OW56117   0.280   1.738   2.547 -0.3804 -0.2902  0.3588
18037SOL    HW156118   0.288   1.642   2.554 -0.5877 -0.2754  0.8343
18037SOL    HW256119   0.365   1.767   2.516 -1.3551 -0.9903 -3.6813
18038SOL     OW56120   6.369   5.669   3.956  0.0535 -0.1414  0.2667
18038SOL    HW156121   6.288   5.706   3.923  0.0560 -1.8719 -1.9136
18038SOL    HW256122   6.423   5.745   3.979 -1.1415  1.1103 -0.9055
18039SOL     OW56123   8.188  10.101   7.836 -0.6991 -0.1988 -0.4128
18039SOL    HW156124   8.264  10.144   7.796  1.1102  0.7119  3.5491
18039SOL    HW256125   8.168  10.029   7.776  1.7125  0.9627 -2.8635
18040SOL     OW56126  11.049   4.813   4.815  1.1243  0.1217 -0.3125
18040SOL    HW156127  10.958   4.844   4.814  1.8666  2.5051 -0.8874
18040SOL    HW256128  11.084   4.845   4.898  1.6907  0.0884 -0.5339
18041SOL     OW56129   1.395  10.812   5.219  0.2101  0.1579 -0.6806
18041SOL    HW156130   1.430  10.855   5.141  0.1114  1.1673 -0.1789
18041SOL    HW256131   1.310  10.778   5.191  1.1754 -1.6388 -1.6897
18042SOL     OW56132   4.811   4.116   4.026  0.1742 -0.5591  0.3885
18042SOL    HW156133   4.769   4.067   4.097 -0.5596 -1.6090 -0.7121
18042SOL    HW256134   4.748   4.185   4.004 -0.4410 -1.3382 -0.3983
18043SOL     OW56135   8.709   0.830  11.068 -0.1080  0.4443  0.1025
18043SOL    HW156136   8.742   0.894  11.005  0.3839  0.2787  0.1920
18043SOL    HW256137   8.736   0.863  11.153 -2.1454  1.5288  0.4057
18044SOL     OW56138   5.799   6.921   7.714 -0.0020  0.6735  0.6136
18044SOL    HW156139   5.729   6.889   7.657  1.2813 -2.2315  0.5245
18044SOL    HW256140   5.756   6.986   7.770 -3.7218 -3.1923  2.8074
18045SOL     OW56141   2.397   4.881  10.453  0.0459  0.1183  0.2817
18045SOL    HW156142   2.442   4.939  10.391  0.6243 -0.8614 -0.2471
18045SOL    HW256143   2.351   4.940  10.512  0.8451  1.1264 -0.0669
18046SOL     OW56144   3.966   3.926   9.268  0.3801 -0.0727 -0.0994
18046SOL    HW156145   3.929   3.941   9.355  2.2107 -0.7813  0.8637
18046SOL    HW256146   3.906   3.865   9.226  0.7749 -1.8221  1.6966
18047SOL     OW56147   2.619   0.953  11.026 -0.1583  0.2937 -0.1484
18047SOL    HW156148   2.710   0.979  11.014 -0.6331  1.8771 -0.4363
18047SOL    HW256149   2.612   0.869  10.980  0.5368  1.3852 -2.3408
18048SOL     OW56150   5.370   8.106  10.102 -0.1840  0.2815  0.2945
18048SOL    HW156151   5.304   8.170  10.076 -1.5664 -1.2956 -0.2674
18048SOL    HW256152   5.443   8.120  10.041 -0.8527  0.7119 -0.4229
18049SOL     OW56153   3.634   6.500   7.890  0.3406  0.2690  0.2483
18049SOL    HW156154   3.596   6.447   7.820  0.8275 -1.0817  0.9772
18049SOL    HW256155   3.727   6.506   7.868  0.8383 -1.6170  1.6202
18050SOL     OW56156   0.666  10.544   0.956  0.1579 -0.0719 -0.4097
18050SOL    HW156157   0.579  10.528   0.919  0.1023 -0.0040 -0.3102
18050SOL    HW256158   0.689  10.462   0.999  0.6497 -0.4899 -1.4402
18051SOL     OW56159   7.745   2.228   3.957  0.5429  0.1758  0.0866
18051SOL    HW156160   7.676   2.256   3.897 -0.7128 -0.1722  1.3323
18051SOL    HW256161   7.816   2.199   3.899  0.3357  2.1117 -1.2247
18052SOL     OW56162   4.065   2.941   2.938  0.0392 -0.0344  0.0932
18052SOL    HW156163   4.052   3.028   2.900 -0.7746  0.6885  1.9278
18052SOL    HW256164   4.091   2.886   2.863  1.0002  1.8483 -1.0262
18053SOL     OW56165   8.966   2.199   5.736 -0.0394 -0.0350  0.2977
18053SOL    HW156166   8.924   2.283   5.716 -1.3818 -0.5480  0.8172
18053SOL    HW256167   8.931   2.176   5.823  2.6813  0.3204  1.5885
18054SOL     OW56168   1.586   1.752   4.308 -0.1489  0.4114 -0.9593
18054SOL    HW156169   1.530   1.713   4.242 -0.4103 -1.6364  0.3831
18054SOL    HW256170   1.553   1.842   4.317 -0.3777  0.6058 -3.2242
18055SOL     OW56171   7.703   0.628   6.886  0.1252  0.3143  0.9553
18055SOL    HW156172   7.638   0.558   6.889 -1.1348  1.2382 -1.5734
18055SOL    HW256173   7.757   0.614   6.963  0.2590 -3.7443  0.3394
18056SOL     OW56174   3.798   6.560  10.282  0.1099  0.0813  0.4331
18056SOL    HW156175   3.831   6.646  10.306 -0.5513  0.5366 -0.2253
18056SOL    HW256176   3.801   6.509  10.363  1.9471  0.2355  0.4847
18057SOL     OW56177   2.089   3.412   8.731  0.1723  0.6298  0.3089
18057SOL    HW156178   1.994   3.426   8.739  0.5137  1.9597  4.0283
18057SOL    HW256179   2.126   3.500   8.730  1.5034  0.3671  5.0161
18058SOL     OW56180   1.149   3.306   8.462 -0.3000 -0.4247 -0.4292
18058SOL    HW156181   1.214   3.374   8.446  1.4785 -1.9156  0.0648
18058SOL    HW256182   1.066   3.347   8.441  0.6610  1.9607  0.0432
18059SOL     OW56183   9.587   8.613   7.446  0.0283  0.3075  0.4871
18059SOL    HW156184   9.583   8.662   7.528 -0.4221 -1.8706  1.8628
18059SOL    HW256185   9.509   8.641   7.397  0.5335  1.9509  0.5572
18060SOL     OW56186   8.115  11.039   1.242  0.5271  0.3796 -0.0284
18060SOL    HW156187   8.117  10.966   1.304  0.8739  0.2984 -0.1324
18060SOL    HW256188   8.203  11.075   1.244  0.9234 -0.4163 -1.3873
18061SOL     OW56189   9.346   9.659   8.257 -0.1364 -0.2925  1.3059
18061SOL    HW156190   9.352   9.580   8.311  0.5700 -1.2206 -0.0717
18061SOL    HW256191   9.252   9.671   8.243 -0.2351 -1.2590  1.0350
18062SOL     OW56192   8.952   2.233   0.060  0.0603 -1.0399 -0.2418
18062SOL    HW156193   8.878   2.176   0.037  0.1681 -1.7159  1.0311
18062SOL    HW256194   8.916   2.322   0.055 -0.5484 -1.3025 -0.6597
18063SOL     OW56195   1.407   7.918   6.061  0.1302  0.6338  0.0423
18063SOL    HW156196   1.332   7.859   6.074  1.0127 -0.1245  1.9235
18063SOL    HW256197   1.456   7.914   6.143  1.9074  1.6107 -0.9140
18064SOL     OW56198   9.980   2.575   1.635  0.1525  0.3201 -0.2862
18064SOL    HW156199   9.900   2.610   1.673 -1.2167 -0.2833 -2.4538
18064SOL    HW256200  10.013   2.514   1.701 -1.9060 -0.4410  0.1023
18065SOL     OW56201   6.784   5.610   5.078 -0.5856  0.6929 -0.6034
18065SOL    HW156202   6.834   5.543   5.125 -1.5775  1.0479  1.0415
18065SOL    HW256203   6.795   5.588   4.986 -0.2343 -1.2523 -0.1339
18066SOL     OW56204   8.256   7.661  10.723  0.2023  0.4637  0.3464
18066SOL    HW156205   8.185   7.658  10.787  0.6420  0.7634  0.8583
18066SOL    HW256206   8.295   7.748  10.735  0.8773  0.1714  0.3186
18067SOL     OW56207   5.144   8.014   0.526  0.1163  1.3585 -0.2232
18067SOL    HW156208   5.173   7.988   0.439 -0.7825  0.5869 -0.3070
18067SOL    HW256209   5.078   8.081   0.510  0.0998  1.3663 -0.1251
18068SOL     OW56210   1.932   2.192   6.122 -0.3723 -0.2966  0.0279
18068SOL    HW156211   1.885   2.109   6.108  2.3809 -2.3008  1.5994
18068SOL    HW256212   1.902   2.222   6.208  1.1952 -1.7142  1.1519
18069SOL     OW56213   8.175   5.665  10.954 -0.3077  0.5172 -0.2246
18069SOL    HW156214   8.252   5.693  11.003 -0.4553 -0.4185  0.5902
18069SOL    HW256215   8.208   5.643  10.867 -0.0418  2.2133 -0.5813
18070SOL     OW56216   3.636   0.573   0.601 -0.3806  0.4807 -0.5619
18070SOL    HW156217   3.605   0.530   0.681  0.9279  0.4219 -0.0634
18070SOL    HW256218   3.715   0.525   0.577 -1.6492 -0.5960 -2.8908
18071SOL     OW56219   1.836   3.416   2.430  0.0263  0.1518  0.6399
18071SOL    HW156220   1.907   3.475   2.453  0.2735 -0.3346  1.1345
18071SOL    HW256221   1.836   3.415   2.334  0.8603 -0.0553  0.6394
18072SOL     OW56222   4.390   4.062   8.132  0.4007 -0.4630  0.6470
18072SOL    HW156223   4.372   3.977   8.092 -0.0603  0.4009 -1.0594
18072SOL    HW256224   4.483   4.059   8.154  0.5533 -1.1512 -0.0466
18073SOL     OW56225   0.079  10.602   7.227 -0.6458 -0.0830 -0.6644
18073SOL    HW156226   0.082  10.535   7.295  0.6162 -0.0610 -0.6822
18073SOL    HW256227   0.144  10.667   7.254 -2.8604  1.9415  0.1441
18074SOL     OW56228   4.663   6.269   9.734  0.0811  0.0685 -0.2789
18074SOL    HW156229   4.607   6.340   9.765 -1.7671 -1.4018 -0.0369
18074SOL    HW256230   4.731   6.312   9.682 -2.6777  1.8162 -2.7359
18075SOL     OW56231   6.882   8.610   6.995 -0.5184  0.3942  0.0245
18075SOL    HW156232   6.972   8.613   6.962 -0.1520 -0.7488  0.8326
18075SOL    HW256233   6.892   8.603   7.090 -1.4435 -0.2686  0.0901
18076SOL     OW56234   4.622   7.135   0.650 -0.1178 -0.3560 -0.1888
18076SOL    HW156235   4.545   7.078   0.648  0.0224 -0.6362  1.2202
18076SOL    HW256236   4.610   7.188   0.729  0.7509  0.1542 -0.3842
18077SOL     OW56237   3.859  10.276   6.094 -1.0361  0.3654 -0.3290
18077SOL    HW156238   3.861  10.246   6.003  0.6129  0.9638 -0.5136
18077SOL    HW256239   3.944  10.317   6.108 -1.5799  1.0255  1.2445
18078SOL     OW56240   1.753   8.079   8.678  0.4842 -0.0952  0.6195
18078SOL    HW156241   1.824   8.094   8.741  1.1113 -0.3728  0.0004
18078SOL    HW256242   1.697   8.156   8.685  0.3240 -0.3047  1.7975
18079SOL     OW56243   7.282   6.174   9.501  0.1381  0.0204 -0.4076
18079SOL    HW156244   7.356   6.116   9.519  0.0442  0.1789  0.5279
18079SOL    HW256245   7.207   6.130   9.541 -0.5373 -0.7581 -2.3994
18080SOL     OW56246   9.452   2.278   4.952  0.0476 -0.3752 -0.2027
18080SOL    HW156247   9.487   2.352   4.902 -1.3890  0.3012 -0.2696
18080SOL    HW256248   9.373   2.252   4.904  0.1593 -1.5104  0.2055
18081SOL     OW56249  10.785   2.676   9.540  0.0362 -0.0242  0.2817
18081SOL    HW156250  10.777   2.671   9.636  0.0706 -0.6007  0.2592
18081SOL    HW256251  10.728   2.606   9.508 -3.0352  2.4802 -0.2937
18082SOL     OW56252   8.007   4.713   2.223  0.2052  0.4941 -0.6257
18082SOL    HW156253   8.017   4.617   2.228 -0.4684  0.3690 -1.4215
18082SOL    HW256254   7.930   4.732   2.276  0.6927  0.6691  0.0232
18083SOL     OW56255   0.520   5.545   8.135  0.3795  1.2567 -0.6389
18083SOL    HW156256   0.519   5.514   8.226 -1.6743 -0.6803 -1.2165
18083SOL    HW256257   0.478   5.631   8.137  0.4903  1.2927  0.2555
18084SOL     OW56258   3.185   0.601  10.825 -0.4884 -0.1365 -0.4018
18084SOL    HW156259   3.206   0.538  10.894 -0.5180  1.9210  1.6163
18084SOL    HW256260   3.258   0.663  10.826 -1.1478  0.6933 -1.2751
18085SOL     OW56261   9.186   8.372   9.565 -0.0154  0.0945 -0.3304
18085SOL    HW156262   9.225   8.307   9.624 -0.8952 -0.6338 -0.5125
18085SOL    HW256263   9.119   8.322   9.517  1.1338  0.5139 -2.4433
18086SOL     OW56264   3.477   4.585   8.080  0.3581 -0.1739 -0.1984
18086SOL    HW156265   3.520   4.656   8.032 -0.7447 -1.2520 -3.0023
18086SOL    HW256266   3.417   4.630   8.140  1.7016  1.2330  0.1678
18087SOL     OW56267   4.418   1.956   6.665 -0.2155 -0.4118  0.4848
18087SOL    HW156268   4.373   1.908   6.596  1.0992 -0.1713 -0.5670
18087SOL    HW256269   4.497   1.990   6.624 -0.1182  0.9867  1.7164
18088SOL     OW56270   5.524   4.561   7.983 -0.2206  0.2009  0.2422
18088SOL    HW156271   5.601   4.505   7.995  0.3122  0.9574  0.4078
18088SOL    HW256272   5.480   4.558   8.068 -2.3717 -3.0641 -0.7856
18089SOL     OW56273   7.241   4.273   7.531  0.1485 -0.5660 -0.9330
18089SOL    HW156274   7.186   4.303   7.459  0.2816  0.3050 -0.6743
18089SOL    HW256275   7.327   4.311   7.514  0.1261 -0.1698 -0.2040
18090SOL     OW56276   5.727   0.723   9.804  0.4582  0.1016 -0.2424
18090SOL    HW156277   5.796   0.719   9.870  1.5858  1.6365 -1.2570
18090SOL    HW256278   5.768   0.765   9.729 -0.4738 -2.5134 -2.3652
18091SOL     OW56279   3.391   7.315   4.853  0.1834  0.7501 -0.0945
18091SOL    HW156280   3.371   7.305   4.946 -0.8647  1.7831 -0.1831
18091SOL    HW256281   3.337   7.389   4.824 -1.3379 -0.9658 -2.0396
18092SOL     OW56282   1.646   2.474   3.892 -0.2544  0.2890  0.8805
18092SOL    HW156283   1.640   2.379   3.905 -1.6723 -0.1231 -1.9177
18092SOL    HW256284   1.738   2.488   3.870 -0.4437 -0.8858 -0.9328
18093SOL     OW56285   0.311   1.246   2.109  0.0852  0.4121  0.2978
18093SOL    HW156286   0.267   1.185   2.051  0.1252  0.0268  0.6717
18093SOL    HW256287   0.382   1.283   2.056 -1.4115  1.9574 -0.7042
18094SOL     OW56288   1.815   6.906   7.183  0.3890 -0.3041 -0.6855
18094SOL    HW156289   1.740   6.846   7.185 -0.4784  0.7675  0.8100
18094SOL    HW256290   1.776   6.992   7.169  1.0262  0.6236  2.5212
18095SOL     OW56291   6.233   7.453   5.724  0.8542 -0.4849 -0.1398
18095SOL    HW156292   6.321   7.467   5.691  1.5734 -2.3605  0.8179
18095SOL    HW256293   6.244   7.392   5.798 -1.0597  0.6698  1.1854
18096SOL     OW56294   3.962   6.084  10.515 -0.2648  0.4340 -0.6544
18096SOL    HW156295   3.940   6.108  10.605  1.5002  0.3225 -0.1524
18096SOL    HW256296   3.973   6.168  10.470  2.5866  0.6444  0.2478
18097SOL     OW56297   4.604   9.585  10.222 -0.0113  0.0616 -0.0479
18097SOL    HW156298   4.577   9.624  10.305 -1.2717 -1.1826  0.1640
18097SOL    HW256299   4.700   9.579  10.228 -0.0538  0.3640  1.1391
18098SOL     OW56300   1.651  10.865   8.373 -0.7195  0.2653 -0.5405
18098SOL    HW156301   1.718  10.932   8.355 -0.1387 -0.8401 -2.8678
18098SOL    HW256302   1.693  10.782   8.351 -1.4843 -0.9543  2.1239
18099SOL     OW56303   4.532   1.535   1.616 -0.1947 -0.5321  0.6435
18099SOL    HW156304   4.491   1.564   1.697  0.5959 -1.7760  1.5250
18099SOL    HW256305   4.551   1.442   1.630  2.4449 -0.1704  0.1361
18100SOL     OW56306  10.103  10.574   1.147  0.2133 -0.6365 -0.0760
18100SOL    HW156307  10.048  10.636   1.195 -1.7165 -3.2454  1.3396
18100SOL    HW256308  10.137  10.624   1.073 -3.1857  1.4700 -0.4219
18101SOL     OW56309   8.361   2.176  10.034  0.2099 -0.2313 -0.3232
18101SOL    HW156310   8.327   2.119   9.965 -0.1596  2.5687 -2.6376
18101SOL    HW256311   8.450   2.145  10.049 -0.1082 -1.6537 -1.1576
18102SOL     OW56312   1.577  11.011  10.961  0.4324 -0.2337  0.1126
18102SOL    HW156313   1.645  11.049  11.017  0.7214 -1.8942  0.9589
18102SOL    HW256314   1.496  11.053  10.989  0.5789 -0.9668  1.7790
18103SOL     OW56315   3.989   7.746   0.618 -0.4828  0.0036 -0.2218
18103SOL    HW156316   3.896   7.743   0.643 -0.6740  0.1889 -0.9096
18103SOL    HW256317   4.002   7.834   0.584 -0.0405 -0.0087 -0.0880
18104SOL     OW56318   3.420   1.059   2.237  0.1816 -0.3675 -0.1388
18104SOL    HW156319   3.373   1.121   2.293 -0.6223 -1.7148  0.7472
18104SOL    HW256320   3.365   1.053   2.159 -0.5527 -1.0759  0.4129
18105SOL     OW56321   9.600   4.439   2.606 -0.1967  0.5686  0.7512
18105SOL    HW156322   9.514   4.444   2.565  1.0282 -0.2646 -2.1228
18105SOL    HW256323   9.650   4.511   2.569  1.1935 -0.6562  0.1398
18106SOL     OW56324   7.451   0.910  10.248  0.1224 -0.2843  0.0090
18106SOL    HW156325   7.359   0.896  10.274 -0.1693  0.0456 -0.8136
18106SOL    HW256326   7.447   0.925  10.154  0.8928  0.9538  0.1581
18107SOL     OW56327   9.441   8.684   4.302 -0.8273  0.1880  0.3262
18107SOL    HW156328   9.472   8.774   4.302 -1.0812  0.2802  0.5807
18107SOL    HW256329   9.398   8.674   4.387  1.0016 -0.8056  1.1936
18108SOL     OW56330  10.445  10.857   9.694  0.4028  0.2960  0.1273
18108SOL    HW156331  10.372  10.918   9.697 -0.1917 -0.3971  0.1151
18108SOL    HW256332  10.520  10.910   9.666  0.4358  1.4961  2.2817
18109SOL     OW56333   9.122   5.364   2.138  0.1900  0.4213  0.1291
18109SOL    HW156334   9.175   5.398   2.066  0.2244 -0.8421 -0.4775
18109SOL    HW256335   9.055   5.311   2.095 -0.4883  0.5682  0.9808
18110SOL     OW56336   2.916   2.422   9.031  0.2365 -0.0222  0.7497
18110SOL    HW156337   2.851   2.363   8.993  0.2736 -0.9884  2.1068
18110SOL    HW256338   2.990   2.365   9.052  0.2941  0.5075  2.0522
18111SOL     OW56339   2.628   6.269   1.543 -0.2038 -0.3871 -0.1140
18111SOL    HW156340   2.686   6.256   1.468  0.2771  2.2178 -0.2997
18111SOL    HW256341   2.685   6.303   1.612 -1.3202  1.6134 -0.0929
18112SOL     OW56342   4.055   0.084   2.160 -0.0149 -0.1412 -0.2465
18112SOL    HW156343   4.083  -0.007   2.162 -0.2119 -0.1911  0.8528
18112SOL    HW256344   4.104   0.126   2.231 -1.4575  0.1235  0.6463
18113SOL     OW56345  10.002   1.429   1.983  0.0556 -0.4991  0.0779
18113SOL    HW156346   9.967   1.512   1.951 -0.7794  0.2769  2.7755
18113SOL    HW256347  10.078   1.453   2.035 -0.0459 -1.4684  0.7025
18114SOL     OW56348  10.226   8.448   1.353 -0.1882  0.7212 -0.0560
18114SOL    HW156349  10.176   8.494   1.420  0.0422  1.2190 -0.2174
18114SOL    HW256350  10.178   8.465   1.272 -1.3558 -1.1839  0.1727
18115SOL     OW56351   6.580   0.821   9.483 -0.1503  0.7423 -0.2801
18115SOL    HW156352   6.549   0.752   9.543 -1.5927  1.0454 -0.6265
18115SOL    HW256353   6.499   0.863   9.452  0.6582  1.8362 -0.9656
18116SOL     OW56354   7.663   6.131   8.010  0.1541  0.0666  0.2778
18116SOL    HW156355   7.659   6.225   7.991  2.5579  0.1914  0.1315
18116SOL    HW256356   7.574   6.099   7.990 -0.1376  1.9123 -1.7701
18117SOL     OW56357   5.692   5.586   2.766  0.0897  0.9085 -0.3249
18117SOL    HW156358   5.621   5.619   2.821 -0.2548  0.9780 -0.8110
18117SOL    HW256359   5.735   5.521   2.821  0.6171  1.9643  0.5422
18118SOL     OW56360   7.544   0.840   0.345 -0.4381  0.4253  0.4390
18118SOL    HW156361   7.606   0.822   0.416  1.5665  1.4840 -0.9585
18118SOL    HW256362   7.531   0.935   0.348  2.0507  0.9813 -2.3627
18119SOL     OW56363   4.670   1.160   8.560  0.0732 -0.4019  0.2891
18119SOL    HW156364   4.732   1.231   8.546  0.2951 -1.0241 -2.3875
18119SOL    HW256365   4.717   1.098   8.616  0.4673  0.7500  1.2988
18120SOL     OW56366   6.017  10.197   1.982  0.0847  0.1240 -0.5187
18120SOL    HW156367   6.093  10.139   1.975  0.3025  0.4264 -0.6966
18120SOL    HW256368   5.980  10.200   1.894 -1.0845 -1.2814 -0.1010
18121SOL     OW56369   6.440   5.716   6.101 -0.2662  0.3888 -0.5654
18121SOL    HW156370   6.491   5.789   6.064 -1.3276  0.2700 -2.3871
18121SOL    HW256371   6.359   5.757   6.132  0.2810  0.3593  0.9865
18122SOL     OW56372   9.337   3.926   6.364  0.1448  0.1476 -0.5226
18122SOL    HW156373   9.247   3.928   6.333 -0.2666  0.2303  0.6491
18122SOL    HW256374   9.334   3.967   6.450  1.3893  0.5842 -0.6636
18123SOL     OW56375   1.341   4.427   0.835 -0.2509  0.0766 -0.0334
18123SOL    HW156376   1.372   4.459   0.750 -2.2441  4.1073  0.4984
18123SOL    HW256377   1.415   4.440   0.894  0.6078 -1.1549 -0.8222
18124SOL     OW56378   0.027   5.392   6.175 -0.0951  0.1181 -0.2441
18124SOL    HW156379   0.111   5.380   6.221 -0.4800  2.1478  1.1208
18124SOL    HW256380  -0.035   5.339   6.225 -0.0860  0.5993  0.2920
18125SOL     OW56381   4.973   7.602   8.479  0.4475 -0.3548  0.3235
18125SOL    HW156382   5.064   7.581   8.458 -0.1797 -1.6408 -1.3677
18125SOL    HW256383   4.963   7.575   8.571  1.5510 -0.9762  0.2820
18126SOL     OW56384   2.376   9.483   8.300 -0.0649 -0.0809  0.0780
18126SOL    HW156385   2.282   9.469   8.288 -0.7963  0.3362  3.9768
18126SOL    HW256386   2.405   9.407   8.350  2.1623 -1.0014 -2.3550
18127SOL     OW56387   0.287   8.876  10.354 -0.1109  0.2162 -0.6009
18127SOL    HW156388   0.343   8.945  10.317  2.2920 -1.1908  0.2188
18127SOL    HW256389   0.303   8.880  10.448  0.6552 -1.8664 -0.5936
18128SOL     OW56390   4.245   5.366   1.232 -0.0072  0.5354  0.5238
18128SOL    HW156391   4.303   5.325   1.296  0.7174  1.4710  0.4952
18128SOL    HW256392   4.304   5.413   1.173 -0.7970  1.7986  0.6973
18129SOL     OW56393   8.004   2.441   4.483  0.5000 -0.0659  0.7493
18129SOL    HW156394   8.054   2.507   4.435  1.2670  0.7415  2.5797
18129SOL    HW256395   8.039   2.358   4.453  0.6501  0.3969 -0.4025
18130SOL     OW56396   2.068   1.748   9.124  0.4909 -0.0834  0.5456
18130SOL    HW156397   2.123   1.810   9.076 -0.4771 -1.1400 -2.1259
18130SOL    HW256398   1.995   1.800   9.157 -0.2483  0.3413 -1.5588
18131SOL     OW56399   2.430   5.393   5.316 -0.4109 -0.2341  0.3825
18131SOL    HW156400   2.406   5.485   5.316 -0.4128 -0.1880 -1.3283
18131SOL    HW256401   2.363   5.350   5.369 -1.0758  0.6093  0.2373
18132SOL     OW56402   1.601   1.705   0.898 -0.0897 -0.3551 -0.5046
18132SOL    HW156403   1.682   1.744   0.931 -0.0479 -0.2827 -0.6951
18132SOL    HW256404   1.559   1.669   0.976 -0.3187  0.4112 -0.2695
18133SOL     OW56405  10.354  11.043   7.208 -0.8301 -0.1350  0.3522
18133SOL    HW156406  10.273  11.009   7.245 -2.1401  0.5796 -1.7023
18133SOL    HW256407  10.348  11.025   7.114  0.9530  0.8108  0.0038
18134SOL     OW56408   3.839   5.043   7.573  0.9981 -0.2102 -0.0850
18134SOL    HW156409   3.772   5.001   7.628 -1.2105  1.4948 -1.2783
18134SOL    HW256410   3.874   4.972   7.520  0.0770 -1.1803  0.5645
18135SOL     OW56411  11.023   6.861   7.482 -0.1560 -0.2546  0.4257
18135SOL    HW156412  10.959   6.792   7.466  0.0119  0.0059 -1.6025
18135SOL    HW256413  11.059   6.882   7.396  1.4946  0.7425  1.2884
18136SOL     OW56414   1.651   6.916   8.974  0.1236  0.0594 -0.6067
18136SOL    HW156415   1.570   6.887   9.015  0.3389  0.0769 -0.1593
18136SOL    HW256416   1.623   6.972   8.902 -0.3144  4.0574  2.3543
18137SOL     OW56417   5.552   7.263   1.858 -0.1320 -0.6082 -0.4997
18137SOL    HW156418   5.486   7.309   1.807 -0.1245 -2.4016 -2.2348
18137SOL    HW256419   5.634   7.280   1.812  0.4421  0.4123  0.8256
18138SOL     OW56420   1.377   7.282   2.333 -0.3809 -0.0600 -0.1731
18138SOL    HW156421   1.451   7.275   2.273  0.2969  0.5685  0.5649
18138SOL    HW256422   1.327   7.201   2.320  0.4921 -0.5359 -0.6068
18139SOL     OW56423   9.494   4.706  10.124  0.3049  0.7021  0.4248
18139SOL    HW156424   9.519   4.759  10.200  0.8165  0.4567  0.4310
18139SOL    HW256425   9.490   4.616  10.157 -3.8451  0.9876  1.2712
18140SOL     OW56426   1.545   0.115   1.136 -0.4193 -0.1131 -0.5932
18140SOL    HW156427   1.632   0.146   1.112 -0.7138  0.6688 -0.6751
18140SOL    HW256428   1.546   0.115   1.232 -0.0180 -1.0210 -0.5879
18141SOL     OW56429   4.453   2.306   4.668 -0.0836 -0.5189 -0.4728
18141SOL    HW156430   4.520   2.316   4.600  0.4747 -2.3431 -0.2559
18141SOL    HW256431   4.424   2.215   4.659 -0.1111 -0.7638  1.6052
18142SOL     OW56432   0.294  11.067   8.917 -0.7158 -0.0314  0.6091
18142SOL    HW156433   0.219  11.012   8.896 -0.2728 -0.1849 -0.6092
18142SOL    HW256434   0.363  11.005   8.942  0.3481 -0.2240 -2.4746
18143SOL     OW56435   2.287   4.897   8.395 -0.4118  0.3318 -0.0794
18143SOL    HW156436   2.350   4.969   8.407 -0.6689  0.8846 -1.7312
18143SOL    HW256437   2.210   4.939   8.358 -0.2232 -0.8849 -2.0158
18144SOL     OW56438   5.556   0.212   1.080 -0.1673  0.4105 -0.2598
18144SOL    HW156439   5.490   0.142   1.083  0.4210 -0.1559 -0.3169
18144SOL    HW256440   5.518   0.278   1.022 -0.8536  0.2711  0.0133
18145SOL     OW56441   9.783  10.668   6.531 -0.3730  0.1349  1.1617
18145SOL    HW156442   9.799  10.588   6.581 -0.7438  0.8905  2.5385
18145SOL    HW256443   9.812  10.647   6.442  0.8141 -1.0810  1.8010
18146SOL     OW56444   2.663   0.451   6.780  0.3145 -0.1103  0.4986
18146SOL    HW156445   2.594   0.500   6.734 -0.0321 -1.7156 -0.7789
18146SOL    HW256446   2.720   0.419   6.710  2.9283  1.8940  1.5670
18147SOL     OW56447  10.358   9.465   1.140 -0.7433 -0.0289 -0.1502
18147SOL    HW156448  10.377   9.552   1.177  2.4028  0.0809 -1.6881
18147SOL    HW256449  10.297   9.482   1.068  0.2391  1.0138 -0.7625
18148SOL     OW56450   3.161   5.232   3.278  0.3017  0.5042  0.1325
18148SOL    HW156451   3.113   5.171   3.334  0.0171  0.9963  0.4385
18148SOL    HW256452   3.196   5.298   3.339  3.5843 -1.1881  0.2932
18149SOL     OW56453   8.318   4.525  10.470 -0.1745  0.0903 -0.3315
18149SOL    HW156454   8.338   4.472  10.548  1.1545 -0.5327 -1.0433
18149SOL    HW256455   8.398   4.577  10.456  0.0798 -0.6565 -1.9057
18150SOL     OW56456   6.584   3.796   2.001  0.5398  0.1743  0.1467
18150SOL    HW156457   6.670   3.756   1.987  0.7343  1.0731 -1.4488
18150SOL    HW256458   6.530   3.762   1.930 -1.3362 -2.6118  2.6628
18151SOL     OW56459   1.935   1.881   4.083  0.5366 -0.7065  0.3499
18151SOL    HW156460   1.976   1.804   4.123  1.9262  0.6895  1.7263
18151SOL    HW256461   1.890   1.924   4.156 -0.3792 -0.2776 -0.4444
18152SOL     OW56462   0.629   7.348   8.098  0.1470  0.3155 -0.2272
18152SOL    HW156463   0.610   7.254   8.102 -0.7913  0.4521 -1.1562
18152SOL    HW256464   0.705   7.359   8.155 -0.5737 -0.7820  1.0044
18153SOL     OW56465   8.525   1.666   6.243  0.0209  0.3917 -0.2147
18153SOL    HW156466   8.583   1.701   6.310 -1.8449  0.1718  1.6167
18153SOL    HW256467   8.491   1.743   6.198 -2.4494  1.0082  2.4140
18154SOL     OW56468   0.716   0.181   3.936 -0.4858 -0.0425 -0.0770
18154SOL    HW156469   0.667   0.135   4.004  0.1523 -0.1292  0.3298
18154SOL    HW256470   0.784   0.120   3.908  0.4018  0.6472  0.5060
18155SOL     OW56471   8.769   3.692  10.650 -0.4638  0.3499 -0.3467
18155SOL    HW156472   8.704   3.691  10.580 -1.0442  0.1551  0.1853
18155SOL    HW256473   8.740   3.624  10.711  1.4303 -1.2866 -1.1535
18156SOL     OW56474   2.646   7.207   7.068  0.3210  0.2923  0.5262
18156SOL    HW156475   2.584   7.200   7.141  0.4211 -0.3494  0.5533
18156SOL    HW256476   2.591   7.220   6.991  0.2417  1.7263  0.7944
18157SOL     OW56477   1.980   3.263   1.704  0.1533  0.3754 -0.1845
18157SOL    HW156478   1.942   3.293   1.622  0.1617  0.9505  0.0154
18157SOL    HW256479   2.023   3.181   1.683  1.4685  1.2652 -1.0874
18158SOL     OW56480   5.801   1.450   5.874  0.3531  0.0181 -0.2459
18158SOL    HW156481   5.794   1.388   5.801 -0.3582 -1.1353  0.7601
18158SOL    HW256482   5.873   1.508   5.850  0.2458 -0.4373 -1.7792
18159SOL     OW56483   9.926   6.453   9.669 -0.0294  0.5116 -0.1882
18159SOL    HW156484   9.858   6.435   9.604  1.2530 -0.6064 -1.2835
18159SOL    HW256485   9.987   6.380   9.660 -0.3529 -0.2958  3.0825
18160SOL     OW56486   7.430  10.582   3.800 -0.0058  0.1575  0.6123
18160SOL    HW156487   7.431  10.487   3.787 -0.0159  0.1098  0.9333
18160SOL    HW256488   7.380  10.616   3.726  1.7184  0.1036 -0.6244
18161SOL     OW56489   2.002  10.151   1.462 -0.2342  0.2371  0.1622
18161SOL    HW156490   2.034  10.064   1.437 -2.1474 -0.0675 -1.4723
18161SOL    HW256491   2.027  10.208   1.390 -1.5476  0.3913 -0.1981
18162SOL     OW56492   8.576   9.044   4.183  0.0044 -0.0328 -0.3475
18162SOL    HW156493   8.483   9.034   4.206  0.0424  1.2093  0.4471
18162SOL    HW256494   8.598   9.132   4.211  1.2641 -0.0617 -1.1639
18163SOL     OW56495  10.435   1.105   4.241 -0.5238  0.5002  0.0410
18163SOL    HW156496  10.392   1.136   4.321  3.0482 -0.5272  2.5862
18163SOL    HW256497  10.423   1.177   4.179 -5.0972  0.5679  0.6285
18164SOL     OW56498   6.306   3.740   0.446  0.1091  0.8413 -0.0729
18164SOL    HW156499   6.326   3.652   0.413 -1.0056  0.9654 -1.1265
18164SOL    HW256500   6.341   3.799   0.380 -2.6384  1.0823 -1.4362
18165SOL     OW56501   7.153   5.183   2.490  0.2266 -0.4553 -0.3498
18165SOL    HW156502   7.178   5.275   2.480 -1.0958 -0.0631 -0.2408
18165SOL    HW256503   7.169   5.164   2.582 -1.3680  0.2927  0.1267
18166SOL     OW56504   3.477   7.057   1.231 -0.4571 -0.9027  0.4382
18166SOL    HW156505   3.438   7.109   1.302 -0.6274 -0.1680 -0.1862
18166SOL    HW256506   3.562   7.097   1.216  0.8854 -2.8584  2.1976
18167SOL     OW56507   6.248   0.186  10.881  0.4937 -0.2446  0.1746
18167SOL    HW156508   6.325   0.132  10.866  0.8622  0.2243  0.3422
18167SOL    HW256509   6.206   0.192  10.795 -0.1143 -1.6085  0.3464
18168SOL     OW56510   0.330   3.041   3.497 -0.7401 -0.3477  0.6050
18168SOL    HW156511   0.400   2.996   3.450 -1.4788 -1.0920  0.1841
18168SOL    HW256512   0.252   2.990   3.477 -1.2685  0.0016  1.7117
18169SOL     OW56513   6.779  10.839   7.310  0.0865  0.0284  0.1373
18169SOL    HW156514   6.848  10.812   7.370  1.7433 -0.1079 -1.7220
18169SOL    HW256515   6.797  10.932   7.293  0.4561 -0.2578 -1.1339
18170SOL     OW56516   3.824   0.350   7.270 -0.0250 -0.1191 -0.1426
18170SOL    HW156517   3.823   0.255   7.263 -1.7056 -0.2875  1.5521
18170SOL    HW256518   3.910   0.375   7.238  0.4248 -2.1855 -0.7234
18171SOL     OW56519   1.737   6.545   4.149 -0.7481 -0.4414  0.5034
18171SOL    HW156520   1.695   6.631   4.150  0.0306 -0.0347 -0.4159
18171SOL    HW256521   1.782   6.541   4.065 -3.4406 -3.0786 -0.9993
18172SOL     OW56522   9.944   7.241   2.378  0.2999 -0.1360  0.0289
18172SOL    HW156523   9.892   7.224   2.457  0.0065  0.7819  0.0468
18172SOL    HW256524  10.001   7.165   2.370  1.1034  0.2261  1.7417
18173SOL     OW56525   6.595  10.559   2.954  0.0525 -0.8679 -0.4544
18173SOL    HW156526   6.691  10.560   2.957  0.0472  0.8847 -0.0687
18173SOL    HW256527   6.574  10.576   2.863  0.1214  0.4152 -0.2430
18174SOL     OW56528   6.397   8.412  10.485 -0.3927 -0.3532 -0.8476
18174SOL    HW156529   6.486   8.391  10.515 -0.2806  2.5672  1.3790
18174SOL    HW256530   6.340   8.355  10.536  0.1283 -1.0013 -0.9831
18175SOL     OW56531   8.240   1.400   6.599 -0.0105  0.5602  0.2813
18175SOL    HW156532   8.197   1.486   6.600 -0.8592  0.1488  1.1003
18175SOL    HW256533   8.298   1.403   6.523 -0.3482  1.6991  0.0429
18176SOL     OW56534   7.028   0.863   8.425  0.1079 -0.3708 -0.0392
18176SOL    HW156535   7.113   0.834   8.458  1.1208  2.5443  0.2162
18176SOL    HW256536   7.048   0.942   8.374 -2.3690 -0.0378 -0.5984
18177SOL     OW56537   5.845   6.850   5.000  0.1421  0.5039 -0.2997
18177SOL    HW156538   5.833   6.788   5.073 -2.0835  0.2811 -0.7650
18177SOL    HW256539   5.870   6.796   4.926  0.7687  0.5114 -0.0950
18178SOL     OW56540   7.450   5.942   3.815  0.0606  0.0545  0.5888
18178SOL    HW156541   7.436   5.998   3.739  1.3599 -0.8760 -0.3640
18178SOL    HW256542   7.403   5.862   3.794  0.7857 -0.3679  0.5733
18179SOL     OW56543   1.414   1.709   4.758  0.1969  0.0137 -0.2466
18179SOL    HW156544   1.353   1.641   4.786 -0.1095 -0.0199 -0.9886
18179SOL    HW256545   1.360   1.769   4.705  0.4707  0.8040  0.3489
18180SOL     OW56546   7.806   3.233   8.753  0.9203 -0.0963 -0.0427
18180SOL    HW156547   7.848   3.301   8.700  0.1960  0.3807 -0.0160
18180SOL    HW256548   7.713   3.238   8.729  0.1409  1.6078  2.7813
18181SOL     OW56549   7.983   0.862   6.779  1.0071  0.2393  0.2519
18181SOL    HW156550   7.947   0.943   6.743 -2.0817 -1.0163  0.1385
18181SOL    HW256551   7.946   0.857   6.867  2.5445 -0.2482  0.8937
18182SOL     OW56552   7.476   7.464   7.002  0.4372 -0.1548  0.0997
18182SOL    HW156553   7.397   7.502   6.964  1.2914  0.5385 -1.0753
18182SOL    HW256554   7.545   7.482   6.937  1.5903 -0.6021  1.1463
18183SOL     OW56555   7.465   9.397   7.667  0.8469  0.6981  0.0795
18183SOL    HW156556   7.493   9.305   7.663  0.3860  0.5993 -1.7918
18183SOL    HW256557   7.520   9.442   7.603 -0.8220  1.1617 -1.1094
18184SOL     OW56558   8.627   3.878   1.278 -0.2738 -0.5199 -0.2610
18184SOL    HW156559   8.657   3.872   1.369  3.0721 -0.7856 -1.2459
18184SOL    HW256560   8.655   3.796   1.238  1.0742  0.8091 -2.2117
18185SOL     OW56561  10.424   4.130   1.608 -0.2339 -0.1352 -0.1387
18185SOL    HW156562  10.478   4.172   1.675 -1.3979 -1.8067  1.9871
18185SOL    HW256563  10.346   4.185   1.602 -0.3072 -0.1979  0.2011
18186SOL     OW56564   8.092   9.150   0.684 -0.6267  0.3573  0.4117
18186SOL    HW156565   8.020   9.105   0.640 -0.1862  1.5725 -1.6828
18186SOL    HW256566   8.062   9.241   0.692  0.6290  0.8843 -0.4901
18187SOL     OW56567   0.370   8.357   1.082 -0.4596 -0.7853 -0.1416
18187SOL    HW156568   0.451   8.311   1.062  1.1757  2.2546 -1.1042
18187SOL    HW256569   0.361   8.349   1.177  1.0333 -1.0593 -0.0013
18188SOL     OW56570   1.365   4.787   1.681  0.0120  0.7015  0.0698
18188SOL    HW156571   1.352   4.707   1.631 -0.3190 -0.0400  1.2920
18188SOL    HW256572   1.413   4.845   1.622  2.1861 -1.1736 -0.1429
18189SOL     OW56573   6.507   2.753   6.637 -0.1955 -0.3893  0.0852
18189SOL    HW156574   6.601   2.768   6.626 -0.4645  2.6609  0.8843
18189SOL    HW256575   6.468   2.780   6.554 -0.4776  0.2252  0.4071
18190SOL     OW56576   6.214  10.482   6.141  0.1385 -0.0767 -0.0284
18190SOL    HW156577   6.186  10.468   6.231  2.8708  2.3491  1.3464
18190SOL    HW256578   6.135  10.465   6.089 -1.8094 -0.6182  2.8474
18191SOL     OW56579   4.606   0.737   7.696 -0.7083 -0.1282  0.3072
18191SOL    HW156580   4.553   0.776   7.766 -0.3122 -0.5401  0.8382
18191SOL    HW256581   4.686   0.708   7.739  0.3014  1.1628 -0.6124
18192SOL     OW56582   7.532  10.286   9.352  0.2621 -0.2345 -0.3902
18192SOL    HW156583   7.493  10.276   9.265 -0.5790 -2.6467  0.1912
18192SOL    HW256584   7.524  10.199   9.392  1.6963  0.5102  1.6696
18193SOL     OW56585   4.264   4.492   3.080  0.5431  0.1023 -0.3876
18193SOL    HW156586   4.174   4.461   3.085  0.7324 -0.2910  1.1592
18193SOL    HW256587   4.308   4.428   3.024 -0.3012  0.8036 -1.9292
18194SOL     OW56588   5.541  10.360   5.847 -0.3278 -0.1334  0.4453
18194SOL    HW156589   5.477  10.331   5.912 -1.1880 -1.3820 -0.9038
18194SOL    HW256590   5.619  10.308   5.865  0.2981  1.2346  1.9550
18195SOL     OW56591   7.524   4.521   0.356 -0.4341  0.3449 -0.7908
18195SOL    HW156592   7.476   4.489   0.280 -0.9348  3.9349 -2.2080
18195SOL    HW256593   7.595   4.573   0.320  1.0405 -0.1299  1.2643
18196SOL     OW56594   0.763   0.204   4.690  0.2173  0.0616  0.1179
18196SOL    HW156595   0.681   0.241   4.721  1.1674  2.5047 -0.0140
18196SOL    HW256596   0.817   0.195   4.768  0.5770  0.5731 -0.0681
18197SOL     OW56597   3.922   3.214   5.137 -0.2765 -0.4785  0.7314
18197SOL    HW156598   3.963   3.177   5.059 -1.0610  0.6251 -0.2397
18197SOL    HW256599   3.906   3.306   5.114 -1.0487 -0.2794  1.9833
18198SOL     OW56600   9.494   4.116   1.238 -0.0860  0.7478 -0.0871
18198SOL    HW156601   9.544   4.089   1.315 -0.8854  1.1308  0.5822
18198SOL    HW256602   9.491   4.038   1.182  1.6121  0.8239 -0.3617
18199SOL     OW56603   4.376   8.292   0.158  0.4269 -0.1582 -0.1725
18199SOL    HW156604   4.341   8.226   0.217 -0.3925 -0.8837 -1.4108
18199SOL    HW256605   4.356   8.376   0.200  1.1886 -0.6643  1.2586
18200SOL     OW56606   2.774   7.864   3.126 -0.4557 -0.8683 -0.6087
18200SOL    HW156607   2.696   7.899   3.083 -0.2608 -1.4189 -1.4326
18200SOL    HW256608   2.768   7.895   3.217 -1.2973 -0.3769 -0.8268
18201SOL     OW56609   3.143   8.351   1.178  0.1968 -0.0332 -0.7553
18201SOL    HW156610   3.093   8.354   1.260  0.5594 -0.1686 -0.5259
18201SOL    HW256611   3.080   8.318   1.113 -0.0524 -0.0662 -0.5005
18202SOL     OW56612   9.457   7.290   5.872  0.0266  0.5199 -0.5795
18202SOL    HW156613   9.527   7.228   5.892  0.0512  0.8833  0.5452
18202SOL    HW256614   9.377   7.239   5.880 -0.0534  0.8633  1.6899
18203SOL     OW56615   8.107   1.935   9.073 -0.1064  0.2571 -0.0582
18203SOL    HW156616   8.046   1.929   9.146  0.8045  1.7044  0.8752
18203SOL    HW256617   8.082   2.016   9.027 -0.5734 -0.5520 -1.2926
18204SOL     OW56618   3.789   1.913   0.437 -0.0827 -0.4338  0.1003
18204SOL    HW156619   3.816   1.898   0.347 -0.7512  0.7747 -0.3254
18204SOL    HW256620   3.699   1.880   0.441  0.1700 -1.1020  0.5222
18205SOL     OW56621   8.524  10.275   1.207  0.1428 -0.5857  0.2940
18205SOL    HW156622   8.545  10.321   1.126  3.3277 -0.9809  0.7877
18205SOL    HW256623   8.483  10.342   1.262 -0.7440  0.0532 -1.0748
18206SOL     OW56624   5.983   9.881   9.822 -0.0647  0.5104 -0.0833
18206SOL    HW156625   5.957   9.973   9.826 -0.7275  0.3274  0.0374
18206SOL    HW256626   5.917   9.840   9.766 -0.0652  0.0148  0.2747
18207SOL     OW56627  10.799   8.308   5.182  0.5412  0.7320 -0.2205
18207SOL    HW156628  10.786   8.225   5.136  2.6137 -0.1436  0.6184
18207SOL    HW256629  10.789   8.375   5.114  1.0609 -0.3603 -1.4267
18208SOL     OW56630   2.143   4.681   3.669 -0.3287  0.0440  0.2695
18208SOL    HW156631   2.206   4.644   3.608 -0.4583  0.7742 -0.3195
18208SOL    HW256632   2.082   4.610   3.687 -0.3958 -0.1202 -0.5942
18209SOL     OW56633   4.319   5.187   4.245  0.3746  0.2410 -0.6447
18209SOL    HW156634   4.376   5.116   4.275  0.3177  0.4825  0.0545
18209SOL    HW256635   4.306   5.242   4.323 -0.5125  0.3913 -0.8886
18210SOL     OW56636   1.124   6.985  10.952  0.2546  0.8585  0.0233
18210SOL    HW156637   1.115   7.067  10.903 -0.3457  0.7866 -0.0015
18210SOL    HW256638   1.042   6.979  11.002 -0.2537 -0.3445 -0.9222
18211SOL     OW56639   3.764   2.446   6.632 -0.1036 -0.0067 -0.5102
18211SOL    HW156640   3.741   2.527   6.678  0.0056  0.5874 -1.4881
18211SOL    HW256641   3.742   2.377   6.694 -1.3221  0.7052 -0.1126
18212SOL     OW56642   2.124   8.176  10.395  0.5677 -0.2539 -0.4031
18212SOL    HW156643   2.184   8.248  10.374 -0.4614  0.4623 -0.9391
18212SOL    HW256644   2.117   8.126  10.313 -1.1890  0.8831 -1.0014
18213SOL     OW56645   0.339   5.301  10.969 -0.2685  0.6342  0.1848
18213SOL    HW156646   0.298   5.239  10.907  0.4758  1.1920 -0.8971
18213SOL    HW256647   0.268   5.326  11.027 -0.5835 -1.2768  0.7041
18214SOL     OW56648   1.868   9.210   9.282 -0.5980 -0.1480 -0.4721
18214SOL    HW156649   1.825   9.220   9.367  0.5179  0.4910  0.0515
18214SOL    HW256650   1.881   9.300   9.252 -3.1715 -0.3498 -2.5201
18215SOL     OW56651   9.585   0.719   8.056 -0.2625  0.5114  0.2016
18215SOL    HW156652   9.547   0.636   8.025 -1.4233  0.7766  0.8464
18215SOL    HW256653   9.510   0.776   8.069  0.4336  1.3032  0.8441
18216SOL     OW56654   6.649   3.140   2.939  0.0463 -0.0688 -0.2759
18216SOL    HW156655   6.737   3.171   2.917 -1.1117  2.4942 -1.8922
18216SOL    HW256656   6.605   3.133   2.854 -1.1468 -1.9327  0.4487
18217SOL     OW56657   7.649   7.086   9.009  0.3115  0.6246 -0.0626
18217SOL    HW156658   7.608   7.061   9.092  0.9355  0.2734  0.1477
18217SOL    HW256659   7.638   7.010   8.953  1.5073  0.1471  0.3145
18218SOL     OW56660   2.466   0.688   0.783  0.3110 -0.2873 -0.5710
18218SOL    HW156661   2.494   0.778   0.771  0.9383 -0.4082 -0.0463
18218SOL    HW256662   2.461   0.652   0.694  1.0617 -0.0323 -0.7191
18219SOL     OW56663   5.673   2.220   5.584 -0.2148  0.0247  0.3464
18219SOL    HW156664   5.736   2.177   5.527 -3.6652 -1.1350 -2.9527
18219SOL    HW256665   5.658   2.158   5.656  1.8670  0.1154  0.9227
18220SOL     OW56666   2.215  10.638   5.383 -0.1319 -0.3345 -0.1798
18220SOL    HW156667   2.161  10.693   5.440  0.1649 -0.6016  0.3724
18220SOL    HW256668   2.304  10.649   5.417  0.2819  0.6493 -1.5093
18221SOL     OW56669   2.432   1.015   2.378  0.3242 -0.4129  0.4902
18221SOL    HW156670   2.425   1.105   2.345  1.5046  0.0176  1.3379
18221SOL    HW256671   2.407   0.960   2.304  0.5686  0.5935 -0.3638
18222SOL     OW56672   4.401   8.575   6.888 -0.5739 -0.5775 -0.6070
18222SOL    HW156673   4.357   8.490   6.895  0.1392 -1.0039 -1.1743
18222SOL    HW256674   4.478   8.558   6.835  1.0151 -0.1470  1.4108
18223SOL     OW56675   4.571   6.617  10.216  0.1599 -0.3817  0.4139
18223SOL    HW156676   4.643   6.554  10.212  0.4613 -0.0591  0.7062
18223SOL    HW256677   4.541   6.624  10.125  0.3568 -0.6767  0.3247
18224SOL     OW56678   1.031  11.009   5.967 -0.0844 -0.3517  0.0654
18224SOL    HW156679   1.015  11.013   5.873 -0.7848 -1.9456  0.0748
18224SOL    HW256680   1.120  10.975   5.974  0.4945  1.0948  0.0027
18225SOL     OW56681   8.228   9.189   8.559 -0.0308  0.5583  0.0782
18225SOL    HW156682   8.182   9.105   8.566  0.9587  0.0039  0.1110
18225SOL    HW256683   8.264   9.190   8.471 -1.8617  1.9396 -0.7008
18226SOL     OW56684   0.755  10.211   0.561  0.2821 -0.1982  0.5202
18226SOL    HW156685   0.721  10.223   0.650 -0.6686  2.0519 -0.0632
18226SOL    HW256686   0.706  10.274   0.508  1.8213 -0.4634 -1.3440
18227SOL     OW56687   8.509   7.342   9.049 -0.4257  0.5955 -0.2653
18227SOL    HW156688   8.489   7.397   8.974  1.9583 -0.0355 -1.4396
18227SOL    HW256689   8.519   7.404   9.122  1.3793  1.6688 -1.3791
18228SOL     OW56690   9.834  10.390   7.629 -0.0105  0.1837 -0.0368
18228SOL    HW156691   9.923  10.364   7.652 -0.3952 -0.5332  0.6745
18228SOL    HW256692   9.843  10.437   7.546  1.3070  2.0185  1.0717
18229SOL     OW56693   5.995   6.776   4.645 -0.2507 -0.3228 -0.1809
18229SOL    HW156694   5.927   6.817   4.590 -0.6825  2.1107  1.9781
18229SOL    HW256695   6.077   6.816   4.616 -0.1576 -0.8398 -0.6369
18230SOL     OW56696  10.282   6.887   1.559  0.6153  0.6455 -0.0165
18230SOL    HW156697  10.346   6.856   1.623  1.3879 -0.7334 -1.3836
18230SOL    HW256698  10.331   6.897   1.478 -1.0307 -1.4996 -1.3906
18231SOL     OW56699   3.003   5.434   7.886 -0.5204  0.6402  0.3203
18231SOL    HW156700   3.008   5.410   7.794 -2.0104 -1.1511  0.6514
18231SOL    HW256701   3.090   5.414   7.921 -0.2978  0.2130 -0.4584
18232SOL     OW56702   1.092   8.083   7.327  0.1177 -0.1615  0.0433
18232SOL    HW156703   1.118   8.120   7.411 -1.0802  1.9852 -0.4413
18232SOL    HW256704   1.042   8.154   7.285  0.5315 -1.2277 -2.3864
18233SOL     OW56705   0.620   5.124  11.017  0.0942  0.0824  0.3876
18233SOL    HW156706   0.587   5.214  11.021  1.5534  0.6042  1.8139
18233SOL    HW256707   0.709   5.129  11.052 -0.0274 -2.0338  1.1763
18234SOL     OW56708   4.267  10.678   0.932  0.5803 -0.2761 -0.7313
18234SOL    HW156709   4.175  10.651   0.930 -0.4319  2.7610 -1.7845
18234SOL    HW256710   4.289  10.696   0.841  1.4711  1.1170 -0.2804
18235SOL     OW56711   3.703   1.560   2.773 -0.5428 -0.4917  0.2132
18235SOL    HW156712   3.709   1.524   2.862 -0.1399  0.3667  0.5418
18235SOL    HW256713   3.764   1.634   2.773 -0.7508 -0.3142 -0.6959
18236SOL     OW56714   1.798   5.709   8.494 -0.5190  1.3504 -0.2897
18236SOL    HW156715   1.809   5.677   8.584  1.1274 -0.2265 -0.9991
18236SOL    HW256716   1.766   5.633   8.445  3.4594  0.5270 -2.0241
18237SOL     OW56717   2.887   5.022   1.086  0.1086  0.4919 -0.0282
18237SOL    HW156718   2.919   5.051   1.001 -1.1378  0.2627 -0.6044
18237SOL    HW256719   2.951   4.957   1.115  0.0120 -0.1881 -1.2781
18238SOL     OW56720   8.181   0.576   0.770 -0.4313  0.0485  0.0434
18238SOL    HW156721   8.199   0.566   0.676 -1.7117 -1.6118 -0.0656
18238SOL    HW256722   8.248   0.638   0.800  0.0059  0.6296 -1.9500
18239SOL     OW56723   7.273   7.026  10.788  0.3214 -0.1001  0.1957
18239SOL    HW156724   7.286   7.096  10.853 -1.0379  0.7564 -0.4089
18239SOL    HW256725   7.307   6.948  10.830  2.0602  0.9355  0.8397
18240SOL     OW56726   7.656   6.943   0.432 -0.2864  0.4510 -0.9914
18240SOL    HW156727   7.695   6.869   0.387  2.3613  0.6146  0.8299
18240SOL    HW256728   7.720   7.014   0.422 -1.3538  1.5881 -0.1215
18241SOL     OW56729  10.458  10.807   1.026 -0.0668  0.4215  0.6957
18241SOL    HW156730  10.516  10.732   1.034 -1.0165 -0.4681 -0.2946
18241SOL    HW256731  10.516  10.881   1.009  0.8583 -0.1632  1.2298
18242SOL     OW56732   4.149   2.319   1.314  0.2843 -0.4852  0.7691
18242SOL    HW156733   4.071   2.360   1.278  0.8748 -0.8720 -1.0620
18242SOL    HW256734   4.222   2.361   1.269  0.9906 -1.9955  0.4263
18243SOL     OW56735  10.930   1.894   7.849  0.1653 -0.2673 -0.5561
18243SOL    HW156736  10.840   1.879   7.876 -0.0310  0.3889 -0.8329
18243SOL    HW256737  10.942   1.836   7.774  0.0920 -0.6163 -0.3054
18244SOL     OW56738   3.151   8.195   2.478 -0.2277  0.3537  0.0457
18244SOL    HW156739   3.187   8.134   2.541 -1.5403  0.1516  0.6339
18244SOL    HW256740   3.080   8.147   2.435  0.6178  0.4981 -1.5772
18245SOL     OW56741   1.820  10.734   5.904 -0.0283 -0.0884  0.4135
18245SOL    HW156742   1.840  10.778   5.822 -0.4174  0.4248  0.5859
18245SOL    HW256743   1.763  10.661   5.879  0.7829 -0.6317  0.1027
18246SOL     OW56744   2.055   5.205   5.756 -0.0632 -0.4640 -0.3527
18246SOL    HW156745   1.985   5.166   5.704  1.1629 -0.8934 -1.7436
18246SOL    HW256746   2.035   5.299   5.757 -1.0523 -0.6703 -0.0805
18247SOL     OW56747   3.142   1.798  10.193  0.0424 -0.4062  0.5552
18247SOL    HW156748   3.177   1.737  10.258  1.7180 -0.5905 -0.4593
18247SOL    HW256749   3.069   1.841  10.237  0.0816 -1.7178  1.9715
18248SOL     OW56750   6.834   3.703   1.971  0.3962 -0.3423  0.1117
18248SOL    HW156751   6.873   3.742   2.050 -0.7605  3.1338 -0.8546
18248SOL    HW256752   6.909   3.673   1.920  1.5273  1.6134  0.5255
18249SOL     OW56753   3.553   1.124   3.252 -1.0167 -0.8731  0.0346
18249SOL    HW156754   3.640   1.144   3.288 -1.6523 -0.5967  1.4771
18249SOL    HW256755   3.565   1.040   3.207 -0.1710 -1.2314  0.8924
18250SOL     OW56756   9.949   1.521   6.534 -0.0434  0.1686 -0.2056
18250SOL    HW156757   9.979   1.597   6.583 -2.1975  0.4717  0.7754
18250SOL    HW256758   9.854   1.521   6.545 -0.0754 -4.9388  3.3592
18251SOL     OW56759   4.580   0.115   8.484  0.3486 -0.1592 -0.3592
18251SOL    HW156760   4.651   0.157   8.532 -0.8860  1.5298  0.1008
18251SOL    HW256761   4.623   0.072   8.410  1.7711  1.4080 -0.4986
18252SOL     OW56762   1.244   3.781   2.118 -0.1138 -0.6871  0.6624
18252SOL    HW156763   1.339   3.786   2.125  0.0981 -0.9501 -1.3481
18252SOL    HW256764   1.222   3.845   2.050 -1.7510  1.5738  3.1158
18253SOL     OW56765   3.930   5.699   3.428 -0.2272 -0.6059 -0.1878
18253SOL    HW156766   3.984   5.754   3.484 -0.4875 -1.1564  0.6221
18253SOL    HW256767   3.990   5.663   3.363 -0.1480  1.0667 -1.0938
18254SOL     OW56768   9.964  10.370   0.886 -0.6654  0.1180  0.1108
18254SOL    HW156769  10.016  10.322   0.950 -0.7028 -0.2438 -0.1299
18254SOL    HW256770   9.925  10.442   0.936 -0.2563  0.1563  0.3767
18255SOL     OW56771   0.081   2.853   8.773 -0.1840 -0.0991  0.7106
18255SOL    HW156772   0.124   2.861   8.688 -1.6665  0.1992 -0.0432
18255SOL    HW256773   0.120   2.923   8.827  0.6465 -0.1884  0.2327
18256SOL     OW56774   2.839   8.569   9.985 -0.4819 -0.4089  0.1648
18256SOL    HW156775   2.917   8.618  10.012 -1.7034  1.4957  0.4421
18256SOL    HW256776   2.860   8.536   9.898  0.7366 -0.1896  0.3600
18257SOL     OW56777   5.989   8.433  10.454 -0.5195  0.7363  0.3129
18257SOL    HW156778   5.952   8.522  10.454  0.7709  1.3013  0.3263
18257SOL    HW256779   5.965   8.397  10.539 -2.9230  0.2201 -0.5114
18258SOL     OW56780   1.306   2.181   9.881 -0.3525 -0.2900  0.2597
18258SOL    HW156781   1.224   2.132   9.876 -1.8244  1.8176  1.9749
18258SOL    HW256782   1.303   2.224   9.967  1.8648  1.0356 -0.2536
18259SOL     OW56783   0.739   8.786   5.127 -0.0554 -0.2579  0.1876
18259SOL    HW156784   0.682   8.744   5.062 -1.4988  1.4211  0.2977
18259SOL    HW256785   0.681   8.846   5.175  1.4755  0.2966  1.4316
18260SOL     OW56786   7.545   4.903   0.261 -0.3226  0.5724 -0.3528
18260SOL    HW156787   7.463   4.857   0.283  0.4582 -1.0991 -0.8105
18260SOL    HW256788   7.547   4.977   0.322 -1.6070 -0.0189  0.4646
18261SOL     OW56789   0.546  10.849   0.765  0.0058  0.6471 -0.7082
18261SOL    HW156790   0.609  10.824   0.833 -1.2520 -0.5200  0.0955
18261SOL    HW256791   0.519  10.937   0.788  0.4973  0.7239 -0.4090
18262SOL     OW56792   7.760   1.305  11.037 -0.2393  0.2134 -0.1140
18262SOL    HW156793   7.712   1.239  11.087  2.2459 -0.9776  0.8925
18262SOL    HW256794   7.729   1.295  10.947 -1.9216 -0.3885  0.5044
18263SOL     OW56795   0.193   1.967   4.553  0.0393  0.3659 -0.6203
18263SOL    HW156796   0.098   1.954   4.545  0.3068 -2.7453  0.1091
18263SOL    HW256797   0.206   1.998   4.642 -0.2940  1.7038 -1.0024
18264SOL     OW56798   2.763   1.109   3.716 -0.2512 -0.3817 -0.0873
18264SOL    HW156799   2.806   1.194   3.708 -0.2543 -0.4247 -0.5512
18264SOL    HW256800   2.793   1.075   3.801  0.3049 -0.2319 -0.2231
18265SOL     OW56801   6.887   1.805   8.362 -0.2570 -0.1418 -0.7189
18265SOL    HW156802   6.819   1.839   8.304 -1.2027 -1.0653 -0.1873
18265SOL    HW256803   6.963   1.791   8.305 -0.3436  1.3353 -1.2353
18266SOL     OW56804   3.858   1.105   0.498  0.5096  0.0668 -0.1558
18266SOL    HW156805   3.898   1.120   0.412  1.0992  0.1804  0.1371
18266SOL    HW256806   3.772   1.068   0.478 -0.5515  2.7122 -0.8894
18267SOL     OW56807   4.751   6.811   9.932 -0.4884 -0.2796 -0.3335
18267SOL    HW156808   4.695   6.839  10.005 -0.7120  1.4686 -1.1309
18267SOL    HW256809   4.785   6.726   9.960  0.6604  0.9591  2.5580
18268SOL     OW56810  10.690   7.801   0.886  0.0870  0.4406  0.2790
18268SOL    HW156811  10.761   7.764   0.833  0.2475  1.2834 -0.1169
18268SOL    HW256812  10.669   7.732   0.949  1.9862  0.5283  1.1008
18269SOL     OW56813   0.254  10.601   5.995 -0.4176  0.1583  0.0125
18269SOL    HW156814   0.163  10.583   6.016 -0.5159 -0.5452 -0.9335
18269SOL    HW256815   0.304  10.543   6.052 -0.5596  0.5597  0.5470
18270SOL     OW56816   5.881  10.235   2.420  0.2407  0.2775 -0.3667
18270SOL    HW156817   5.975  10.239   2.441  0.7645  2.5755 -2.5582
18270SOL    HW256818   5.877  10.179   2.342 -0.5542 -1.4711  0.8644
18271SOL     OW56819  10.771   9.567   0.544  0.6421  0.9611  0.8151
18271SOL    HW156820  10.684   9.599   0.522  0.6985  1.0646  0.7382
18271SOL    HW256821  10.815   9.558   0.459 -0.0628 -1.3833  0.6356
18272SOL     OW56822  10.148   2.060   6.308 -0.4533  0.1018  0.0622
18272SOL    HW156823  10.165   2.026   6.396  1.4956  0.4780 -0.1173
18272SOL    HW256824  10.146   2.155   6.318 -1.0492  0.1147 -0.1692
18273SOL     OW56825   6.348  10.790  10.548  0.4169  0.5481  0.1420
18273SOL    HW156826   6.333  10.884  10.554 -0.2488  0.4065  0.7920
18273SOL    HW256827   6.329  10.769  10.457 -0.9298  0.7956  0.3499
18274SOL     OW56828   7.559   8.873   1.276 -0.4051  0.0465  0.3224
18274SOL    HW156829   7.552   8.840   1.186 -0.0757  1.6939 -0.3571
18274SOL    HW256830   7.628   8.820   1.315  0.1727 -0.0232 -0.7400
18275SOL     OW56831   1.484   9.814  10.156 -0.7397  0.0593 -0.3140
18275SOL    HW156832   1.430   9.739  10.130  0.0155 -1.2757  1.6835
18275SOL    HW256833   1.511   9.793  10.246  0.2475  2.3264 -0.0238
18276SOL     OW56834   4.639   4.541   7.691 -0.4509 -0.8809 -0.5524
18276SOL    HW156835   4.639   4.602   7.618 -0.8213  0.8416  0.8319
18276SOL    HW256836   4.730   4.540   7.721 -0.6996  0.1435  0.3063
18277SOL     OW56837   9.947   9.803  10.192 -0.4917  0.3289  0.1518
18277SOL    HW156838   9.925   9.829  10.103 -1.5441  0.8947  0.5513
18277SOL    HW256839   9.942   9.707  10.191  2.3884  0.0958 -1.0785
18278SOL     OW56840   7.208   5.859   3.661 -0.1549 -0.1460 -0.0957
18278SOL    HW156841   7.191   5.942   3.706 -1.8874 -0.5204  0.0214
18278SOL    HW256842   7.135   5.802   3.687  0.2364 -1.2513 -1.2776
18279SOL     OW56843   9.028   1.770   2.287 -0.8399  0.2299  0.2004
18279SOL    HW156844   9.101   1.815   2.329 -0.8424 -0.3482  0.8364
18279SOL    HW256845   9.063   1.687   2.258 -0.9399  0.4636 -0.6058
18280SOL     OW56846  10.785   6.342   0.803 -0.3389  0.4612 -0.1558
18280SOL    HW156847  10.842   6.403   0.756 -0.1514 -1.3243 -2.4191
18280SOL    HW256848  10.702   6.345   0.756 -0.6132 -0.3402  0.2610
18281SOL     OW56849   2.134   2.980   1.891 -0.1917 -0.1706  0.3507
18281SOL    HW156850   2.217   2.992   1.846 -0.8024 -1.3534 -1.2145
18281SOL    HW256851   2.140   2.893   1.930 -0.1980  0.2947  1.4382
18282SOL     OW56852   0.964   7.409   3.571 -0.3041  0.7558  0.4874
18282SOL    HW156853   1.026   7.481   3.583 -0.6564  1.5101 -1.7617
18282SOL    HW256854   0.878   7.449   3.585 -0.4141  0.2279  1.4105
18283SOL     OW56855   4.446   2.186   2.911  0.0038  0.1078 -0.8306
18283SOL    HW156856   4.458   2.278   2.932  0.2971 -0.3185  1.1341
18283SOL    HW256857   4.352   2.170   2.926  0.3444 -0.3656  1.1615
18284SOL     OW56858   7.423   2.393   2.068  0.8958  0.2031  0.0228
18284SOL    HW156859   7.334   2.417   2.045  0.7709  1.0161  1.2555
18284SOL    HW256860   7.477   2.430   1.998  0.1894 -1.5319 -1.4973
18285SOL     OW56861  10.860   0.509   8.195  0.6358 -0.1596  0.5599
18285SOL    HW156862  10.936   0.454   8.175  0.2523 -0.5701  0.2212
18285SOL    HW256863  10.788   0.448   8.208 -0.2792  0.2663 -1.8604
18286SOL     OW56864   4.152  10.095   5.300  0.5095  0.4570  0.0904
18286SOL    HW156865   4.220  10.050   5.250 -0.0169  0.4911 -0.6746
18286SOL    HW256866   4.120  10.163   5.241 -1.1299 -0.4295 -0.1131
18287SOL     OW56867   5.598   8.157   9.269 -0.4595 -0.5395 -0.1549
18287SOL    HW156868   5.657   8.081   9.265 -0.6460 -0.7320  0.5267
18287SOL    HW256869   5.644   8.219   9.326 -2.2292 -1.9254  3.0117
18288SOL     OW56870   5.107   8.433   0.468 -0.5398 -0.1176  0.6289
18288SOL    HW156871   5.198   8.424   0.443 -0.5443  0.2770  0.4545
18288SOL    HW256872   5.070   8.495   0.405 -1.1868 -1.0407  0.0805
18289SOL     OW56873   0.331   9.394   0.403 -0.1879 -0.2711 -0.6454
18289SOL    HW156874   0.299   9.479   0.435 -0.7658 -0.3544 -0.9918
18289SOL    HW256875   0.369   9.413   0.317 -2.1175 -0.6742 -1.6292
18290SOL     OW56876   7.673   3.483   1.609  0.3207  0.2285 -0.2502
18290SOL    HW156877   7.655   3.493   1.702  4.3328  4.4501  0.4521
18290SOL    HW256878   7.744   3.419   1.605 -0.6157 -0.8165 -0.6166
18291SOL     OW56879   3.289   8.459   2.798  0.1024 -0.3369 -0.0621
18291SOL    HW156880   3.208   8.408   2.798 -0.3537  0.3781  0.1887
18291SOL    HW256881   3.318   8.458   2.707 -0.8214  0.3767 -0.3852
18292SOL     OW56882   8.684   3.367   5.551  0.1727  0.4363  0.1153
18292SOL    HW156883   8.729   3.299   5.501 -1.1597 -1.2083  1.0513
18292SOL    HW256884   8.674   3.329   5.639 -1.0053  1.6479  0.5390
18293SOL     OW56885   5.275   4.822   4.576  0.4043 -0.6815  0.5272
18293SOL    HW156886   5.369   4.806   4.563 -0.2606 -3.3175 -1.7317
18293SOL    HW256887   5.233   4.789   4.497 -2.2604  3.5122 -0.1363
18294SOL     OW56888   6.473   6.375   1.047  0.3037 -0.6196  0.0481
18294SOL    HW156889   6.551   6.429   1.059 -1.7958  3.0729 -1.3104
18294SOL    HW256890   6.429   6.377   1.131  1.4214 -2.5109  0.7461
18295SOL     OW56891   5.245   4.609   0.570 -0.0102 -0.0448 -0.2699
18295SOL    HW156892   5.161   4.569   0.591  0.0705 -0.1920 -0.2245
18295SOL    HW256893   5.230   4.703   0.579 -0.1414 -0.0764 -0.1593
18296SOL     OW56894   1.790   5.249   7.708  0.1161 -0.3947 -0.3139
18296SOL    HW156895   1.797   5.181   7.641  1.1702  0.5837 -1.2539
18296SOL    HW256896   1.847   5.219   7.779 -0.6364 -1.2120 -0.0342
18297SOL     OW56897   4.929   5.357   5.743 -0.2061 -0.1298  0.0010
18297SOL    HW156898   4.968   5.308   5.815 -3.3426 -2.2131  0.4843
18297SOL    HW256899   4.955   5.310   5.665 -1.1331 -1.0913  0.2580
18298SOL     OW56900   9.814   1.284   5.874 -0.3890  0.1972 -0.3791
18298SOL    HW156901   9.759   1.220   5.918 -2.2133  2.0150  0.1598
18298SOL    HW256902   9.890   1.294   5.931  1.5272 -3.5818 -1.9592
18299SOL     OW56903   9.484   8.636   8.302  0.6998 -0.0068  0.3897
18299SOL    HW156904   9.400   8.615   8.261  0.9521 -1.8058  0.7338
18299SOL    HW256905   9.468   8.719   8.347 -0.6898  0.0368 -0.1252
18300SOL     OW56906   5.480   2.123   5.216 -0.3576 -0.1906 -0.2663
18300SOL    HW156907   5.478   2.197   5.156 -3.2697  1.1455  1.3003
18300SOL    HW256908   5.466   2.161   5.303 -0.1507 -2.4253  0.8242
18301SOL     OW56909   3.250   7.692  10.029  0.1014 -0.6000 -0.1441
18301SOL    HW156910   3.182   7.746  10.068  0.4359 -1.5360  1.8565
18301SOL    HW256911   3.308   7.754   9.986 -1.1935  0.3316 -0.6269
18302SOL     OW56912   4.726   0.947  10.494  0.3268  0.1701  0.0372
18302SOL    HW156913   4.786   0.903  10.554 -0.5024 -0.0507  0.7222
18302SOL    HW256914   4.752   1.039  10.499  2.7157 -0.2829 -2.1561
18303SOL     OW56915   9.974   1.144   8.882 -0.0794  0.3484 -0.1829
18303SOL    HW156916   9.959   1.153   8.976  0.1503 -1.9322  0.1375
18303SOL    HW256917   9.930   1.219   8.842 -0.4070  1.2071  1.7175
18304SOL     OW56918   2.123   5.849   9.098  0.6409 -0.6616 -0.2995
18304SOL    HW156919   2.097   5.939   9.118  1.4630  0.4110 -3.5323
18304SOL    HW256920   2.067   5.824   9.025  0.9268 -2.5719  0.0879
18305SOL     OW56921   0.885   9.715   4.902 -0.0963 -0.5208 -0.0066
18305SOL    HW156922   0.887   9.621   4.887 -0.8532 -0.6095  0.4075
18305SOL    HW256923   0.792   9.736   4.909 -0.0185  0.4955 -1.5494
18306SOL     OW56924   1.463   6.926   6.390  0.1151 -0.2993  0.5577
18306SOL    HW156925   1.471   6.846   6.338  1.3549 -1.1295  1.9602
18306SOL    HW256926   1.379   6.916   6.435  0.4741 -1.0557  1.0857
18307SOL     OW56927   4.204   5.494   3.018  0.0347 -0.2012  0.0678
18307SOL    HW156928   4.292   5.515   3.047 -0.6501  1.5884  0.9760
18307SOL    HW256929   4.206   5.506   2.923  0.6955  0.0684  0.1144
18308SOL     OW56930   2.403   7.003  10.079 -0.2927 -0.2375 -0.3405
18308SOL    HW156931   2.423   7.049  10.161 -2.6301  0.0724  0.1229
18308SOL    HW256932   2.384   7.073  10.016 -2.6417 -0.4462  0.0371
18309SOL     OW56933   3.018   3.273   5.464  0.1872 -0.5531  0.3537
18309SOL    HW156934   3.014   3.194   5.409 -1.5988  0.8533 -1.7100
18309SOL    HW256935   2.950   3.259   5.530  0.7773 -1.2704  0.8301
18310SOL     OW56936   4.885   3.682   7.913 -0.6702 -0.2014  0.2767
18310SOL    HW156937   4.892   3.674   8.008  1.9872  3.5211  0.5876
18310SOL    HW256938   4.843   3.767   7.899  0.0292 -0.1542 -1.8753
18311SOL     OW56939   8.414   0.137   2.552  0.2038  0.3072  0.7910
18311SOL    HW156940   8.472   0.062   2.548 -1.3201 -0.8627 -0.4727
18311SOL    HW256941   8.393   0.156   2.461 -0.7465  1.2167  1.1775
18312SOL     OW56942   3.060  10.096   3.083 -0.5717 -0.4023 -0.4994
18312SOL    HW156943   3.070  10.190   3.069  0.8984 -0.3007  0.8329
18312SOL    HW256944   3.069  10.057   2.996  0.4180  0.5983 -0.8722
18313SOL     OW56945   9.455  10.898   4.397  0.0532 -0.2941 -0.0096
18313SOL    HW156946   9.493  10.985   4.404 -1.7268  0.5249  0.0646
18313SOL    HW256947   9.487  10.852   4.475 -2.3586  1.7449  2.4094
18314SOL     OW56948  10.107   0.265   9.686  0.3364 -0.4139 -0.0466
18314SOL    HW156949  10.080   0.174   9.699  0.2136 -0.6482 -1.7636
18314SOL    HW256950  10.082   0.309   9.768  0.0791 -1.8316  0.6741
18315SOL     OW56951   7.117   7.831   4.630 -0.4746 -0.0328 -0.0955
18315SOL    HW156952   7.178   7.779   4.683  0.6708  2.7168  1.4894
18315SOL    HW256953   7.048   7.769   4.606  0.1941 -2.0189  2.5959
18316SOL     OW56954   0.914   7.512   7.759  0.6363 -0.1689  0.1055
18316SOL    HW156955   0.966   7.580   7.715  0.3085  1.4560  2.0958
18316SOL    HW256956   0.896   7.548   7.846 -3.2613 -0.9338 -0.2201
18317SOL     OW56957   9.655   9.578   9.244 -0.6717 -0.2731 -0.0342
18317SOL    HW156958   9.639   9.631   9.166  0.8127  1.9897  1.0465
18317SOL    HW256959   9.612   9.627   9.315  3.7226  1.8018  1.6212
18318SOL     OW56960   6.330   8.134   5.591 -0.1066 -0.2761 -0.9237
18318SOL    HW156961   6.267   8.076   5.549  2.1123 -1.8464 -2.2982
18318SOL    HW256962   6.361   8.192   5.521 -1.0006  1.4910  0.0524
18319SOL     OW56963   2.694   9.650  10.928  0.1116 -0.0601  0.3861
18319SOL    HW156964   2.729   9.735  10.902 -1.3186  0.2768 -0.5904
18319SOL    HW256965   2.683   9.657  11.023  0.3203  0.7362  0.3624
18320SOL     OW56966   2.702   7.524   0.806 -0.4695  0.3837 -0.0823
18320SOL    HW156967   2.726   7.565   0.889 -0.8397 -0.4700  0.4597
18320SOL    HW256968   2.735   7.435   0.813 -0.2959  0.3655 -0.9594
18321SOL     OW56969   1.878   7.242   8.013  0.8416  0.1351  0.5513
18321SOL    HW156970   1.860   7.312   8.076  0.5756 -0.5820  1.3007
18321SOL    HW256971   1.905   7.287   7.933  2.1342  1.0572  1.4687
18322SOL     OW56972   4.547   7.159   2.342 -0.2468  0.3715 -0.7315
18322SOL    HW156973   4.601   7.153   2.263  0.6078 -1.7994 -0.0646
18322SOL    HW256974   4.462   7.123   2.316  0.9391 -3.3428 -0.0344
18323SOL     OW56975   4.731   1.875   3.798  0.4053 -0.3550  0.6563
18323SOL    HW156976   4.752   1.820   3.874  1.0441 -0.0849  0.6744
18323SOL    HW256977   4.792   1.847   3.730  1.5535  1.1498  1.0404
18324SOL     OW56978   8.142  10.016   7.060 -0.2892  0.0626  0.1097
18324SOL    HW156979   8.231   9.982   7.048 -0.5194  0.0638 -1.9323
18324SOL    HW256980   8.089   9.938   7.081 -0.1724 -0.3069 -0.8958
18325SOL     OW56981   5.655   3.381   0.779 -0.1629  0.7414  0.2786
18325SOL    HW156982   5.563   3.366   0.761 -0.2360  1.9450 -0.4297
18325SOL    HW256983   5.680   3.454   0.722  1.2058  0.4908  0.5073
18326SOL     OW56984   7.541   6.043   4.101  0.2530  0.5955 -0.1445
18326SOL    HW156985   7.446   6.048   4.095  0.0739 -1.6562  0.0721
18326SOL    HW256986   7.560   6.056   4.194  0.0693  0.1766 -0.0450
18327SOL     OW56987   4.427   3.646   5.440 -0.2711 -0.9934  0.1437
18327SOL    HW156988   4.474   3.728   5.450 -1.6581  0.0412 -1.3282
18327SOL    HW256989   4.450   3.595   5.518  0.6824  0.7497  1.0497
18328SOL     OW56990  10.550  10.870   3.443  0.3036  0.5860 -0.2044
18328SOL    HW156991  10.593  10.901   3.522 -0.3845  0.1187  0.3753
18328SOL    HW256992  10.484  10.808   3.475  0.3809 -0.0224 -1.1834
18329SOL     OW56993   5.450   8.034  10.528  0.0726 -0.1093  0.0512
18329SOL    HW156994   5.497   8.117  10.535  0.9955 -0.5232 -0.8629
18329SOL    HW256995   5.517   7.971  10.503 -0.9045 -0.7952 -0.9347
18330SOL     OW56996   8.524  10.636   0.190 -0.1508 -0.3505 -0.4359
18330SOL    HW156997   8.572  10.555   0.206  0.4217 -0.1836 -1.2582
18330SOL    HW256998   8.569  10.677   0.117 -0.3211  0.8077  0.0777
18331SOL     OW56999   6.575   4.397   9.753  0.0797 -0.3405  0.7337
18331SOL    HW157000   6.511   4.363   9.815 -0.2914  0.2134  0.6630
18331SOL    HW257001   6.610   4.319   9.710 -2.4352 -0.6092 -1.1068
18332SOL     OW57002  10.678   6.665   8.711 -0.2059 -0.5664 -0.4710
18332SOL    HW157003  10.603   6.614   8.680  0.8167 -1.9185 -0.8260
18332SOL    HW257004  10.686   6.641   8.804 -0.8640  0.4348 -0.1417
18333SOL     OW57005   5.435  10.557   3.859  0.2260 -0.8673  0.2341
18333SOL    HW157006   5.507  10.547   3.922  1.0485 -0.3195 -0.5917
18333SOL    HW257007   5.356  10.540   3.910  0.8640 -0.3793  1.4189
18334SOL     OW57008   9.032   3.585   2.430  0.2508 -0.7063 -0.2264
18334SOL    HW157009   9.013   3.679   2.438  1.1615 -0.4684 -0.7237
18334SOL    HW257010   9.071   3.562   2.514  3.2024  0.1779 -1.2135
18335SOL     OW57011   6.475   4.225   2.486 -0.0944 -0.1389 -0.0020
18335SOL    HW157012   6.523   4.301   2.452 -1.4474  0.0636 -1.6107
18335SOL    HW257013   6.448   4.250   2.574  1.9248  0.0819  0.6079
18336SOL     OW57014   6.116   5.932   9.078 -0.3048 -0.2663  0.6547
18336SOL    HW157015   6.078   5.860   9.128  0.5199 -1.8656 -0.8905
18336SOL    HW257016   6.210   5.912   9.075  0.0963  1.4163  0.9842
18337SOL     OW57017   4.009   2.590   4.365 -0.4281  0.8085  0.7868
18337SOL    HW157018   3.963   2.515   4.327  0.2471  1.1667 -0.8522
18337SOL    HW257019   4.100   2.560   4.374  0.4961  2.1725 -2.4772
18338SOL     OW57020   4.329   0.727   0.121 -0.6443  1.1395 -0.1832
18338SOL    HW157021   4.395   0.685   0.176 -0.0555 -1.2811 -2.5235
18338SOL    HW257022   4.380   0.777   0.057 -0.9952 -0.2318 -1.6109
18339SOL     OW57023   5.494  10.953   5.187  0.0782  0.7881 -0.5290
18339SOL    HW157024   5.511  11.027   5.128  1.1425  0.4085 -0.7123
18339SOL    HW257025   5.502  10.990   5.275  1.3413  0.7468 -0.6147
18340SOL     OW57026   6.913   7.778   2.475 -0.7978 -1.2297  0.3466
18340SOL    HW157027   6.985   7.814   2.424 -0.4488 -1.7907  0.4355
18340SOL    HW257028   6.870   7.854   2.514 -1.8808 -0.6556 -1.8061
18341SOL     OW57029   7.349   3.035   8.946  0.1227  0.0813  0.3016
18341SOL    HW157030   7.433   2.998   8.974  1.7543  2.0123 -1.6944
18341SOL    HW257031   7.338   3.003   8.856  0.2182  2.1156 -0.4788
18342SOL     OW57032   0.208   9.326   8.060 -0.5733 -0.1047  0.7054
18342SOL    HW157033   0.282   9.292   8.111  1.2541  0.6871 -1.2700
18342SOL    HW257034   0.231   9.417   8.042 -3.4841  1.1106  2.4977
18343SOL     OW57035   4.619   8.593   1.897 -0.0888 -0.5052  0.7241
18343SOL    HW157036   4.555   8.578   1.827 -0.5067 -0.3042  1.0665
18343SOL    HW257037   4.700   8.615   1.850  0.3251 -2.8675  0.1973
18344SOL     OW57038  10.339   4.535   1.322 -0.2819  0.6468  0.3785
18344SOL    HW157039  10.280   4.469   1.285 -0.6664  1.0757  0.2246
18344SOL    HW257040  10.426   4.506   1.294 -0.6058  1.3722 -1.5811
18345SOL     OW57041   9.826   5.708   2.043  0.8107  0.2551  0.1503
18345SOL    HW157042   9.807   5.660   2.124  0.1245  0.5134  0.1505
18345SOL    HW257043   9.751   5.766   2.031  0.4079 -0.4866 -1.2085
18346SOL     OW57044   3.834   8.303   4.795  0.0592 -0.0101 -0.3635
18346SOL    HW157045   3.832   8.210   4.772  1.5108 -0.2157  0.2777
18346SOL    HW257046   3.907   8.339   4.745 -0.6172  0.8585 -0.7742
18347SOL     OW57047   5.825   0.762   8.453 -0.5765 -0.1892  0.1597
18347SOL    HW157048   5.892   0.721   8.398 -0.8328  0.7327 -0.8988
18347SOL    HW257049   5.871   0.836   8.494 -1.1421  1.0945 -1.4001
18348SOL     OW57050   4.298   1.748   0.858 -1.0972 -0.2977 -0.4920
18348SOL    HW157051   4.272   1.658   0.838 -0.6188 -0.5970  0.1871
18348SOL    HW257052   4.386   1.740   0.893 -0.1475  0.6749 -2.4866
18349SOL     OW57053   0.991   6.203  10.403 -0.0282 -0.1928 -0.7367
18349SOL    HW157054   0.937   6.217  10.326 -1.0431 -1.9618 -0.3895
18349SOL    HW257055   1.039   6.286  10.414 -2.0364  1.1534 -1.5377
18350SOL     OW57056   8.168   4.186   3.468  0.1369  0.2112 -0.2158
18350SOL    HW157057   8.179   4.259   3.407  0.4219 -0.2485 -0.7224
18350SOL    HW257058   8.076   4.191   3.496  0.3580  1.2370  0.3801
18351SOL     OW57059   6.839   6.277   1.612  0.2018  0.5677  0.1800
18351SOL    HW157060   6.839   6.365   1.648  1.3250  0.1104  1.3846
18351SOL    HW257061   6.776   6.229   1.666 -0.1629  0.5442 -0.2589
18352SOL     OW57062   4.145   8.158   3.818  0.2183 -0.5050 -0.4319
18352SOL    HW157063   4.066   8.212   3.820 -0.1473 -0.9993  1.6226
18352SOL    HW257064   4.124   8.084   3.876  2.2597 -0.5095  0.3651
18353SOL     OW57065   6.624   9.168  10.291  0.5706 -0.4388 -0.2491
18353SOL    HW157066   6.617   9.176  10.386 -1.5402  2.7691 -0.5393
18353SOL    HW257067   6.699   9.223  10.268 -0.4080  0.7967 -0.5764
18354SOL     OW57068   8.645   6.144  10.906  0.1682 -0.1794 -0.3555
18354SOL    HW157069   8.725   6.120  10.859 -0.1379 -1.4640 -0.2425
18354SOL    HW257070   8.596   6.063  10.914 -1.3140  0.6439 -0.7074
18355SOL     OW57071   8.269   0.274   5.353 -0.7233 -0.3239 -0.0891
18355SOL    HW157072   8.309   0.261   5.267 -0.3151  0.0550  0.0391
18355SOL    HW257073   8.217   0.354   5.343  1.0505  0.9635  0.6034
18356SOL     OW57074   6.817   3.103   7.266 -0.2724 -0.5277 -0.4785
18356SOL    HW157075   6.898   3.153   7.274 -0.1489 -0.3611 -2.3389
18356SOL    HW257076   6.749   3.163   7.297  0.2082 -0.3325  0.2202
18357SOL     OW57077   5.528   7.731   8.985  0.1171 -0.8465 -0.1569
18357SOL    HW157078   5.487   7.686   9.059 -0.8207 -0.1977 -0.2652
18357SOL    HW257079   5.598   7.672   8.957  0.7919 -0.8961  1.5212
18358SOL     OW57080   3.850   7.038   4.761 -0.3155 -0.5021 -0.3195
18358SOL    HW157081   3.779   7.064   4.703 -0.0100  1.4337  0.1074
18358SOL    HW257082   3.808   6.984   4.828 -0.9572 -1.2775 -1.3177
18359SOL     OW57083   9.549   5.270   3.495 -0.0868 -0.2035 -0.3369
18359SOL    HW157084   9.639   5.276   3.528 -0.5146  2.7036  0.6727
18359SOL    HW257085   9.497   5.246   3.572 -0.2522 -1.4310 -0.8155
18360SOL     OW57086   0.935   5.281   9.694 -0.3589  0.0431  0.5064
18360SOL    HW157087   0.917   5.190   9.669 -1.3824  0.6257 -0.9897
18360SOL    HW257088   0.956   5.276   9.787 -0.1865 -1.7532  0.4051
18361SOL     OW57089   5.260   1.029   7.486 -0.0180  0.3448  0.3371
18361SOL    HW157090   5.312   0.957   7.453  0.6425  0.8706  0.2033
18361SOL    HW257091   5.196   0.989   7.544  0.6575 -0.2925  0.6491
18362SOL     OW57092   2.802   9.993   8.989 -0.7504  0.0969  0.3985
18362SOL    HW157093   2.761   9.991   8.903  1.0320  0.8908 -0.5329
18362SOL    HW257094   2.896   9.987   8.971 -0.3614 -0.4406  2.3432
18363SOL     OW57095   9.507   6.373  10.759  0.3626 -0.3849  0.0802
18363SOL    HW157096   9.538   6.387  10.848 -0.5566 -1.6485  0.6342
18363SOL    HW257097   9.459   6.453  10.736  3.2551  1.3023 -0.5274
18364SOL     OW57098  10.804   3.660   2.475 -0.2979  0.8779 -0.1150
18364SOL    HW157099  10.796   3.738   2.421  2.5875  0.8579 -0.7257
18364SOL    HW257100  10.878   3.611   2.437 -0.8329 -1.2345  1.3430
18365SOL     OW57101   1.305   8.646  10.026  0.4553  0.4998  0.0402
18365SOL    HW157102   1.352   8.574   9.984 -2.5609 -0.7479 -1.4289
18365SOL    HW257103   1.276   8.701   9.953 -1.1918  0.6716  0.8026
18366SOL     OW57104   1.905   0.738   3.299  0.3357 -0.4602  0.0138
18366SOL    HW157105   1.926   0.644   3.302  1.1468 -0.4101 -2.1769
18366SOL    HW257106   1.954   0.771   3.224 -2.1557  1.1498 -1.0355
18367SOL     OW57107   7.432   8.200   0.026  0.8228  0.3580  0.4402
18367SOL    HW157108   7.434   8.126   0.086  0.1972  0.0968  0.1546
18367SOL    HW257109   7.507   8.253   0.050  0.8839 -0.0198  1.0967
18368SOL     OW57110   0.976   8.886   8.549  0.2136 -0.2697 -0.0249
18368SOL    HW157111   1.006   8.884   8.458 -1.2292  0.3492 -0.5491
18368SOL    HW257112   0.917   8.811   8.556  0.6632 -0.5744  0.5344
18369SOL     OW57113   1.424   2.145   3.679  0.0324 -0.1627 -0.3878
18369SOL    HW157114   1.342   2.148   3.729 -0.7285  0.4916 -1.6166
18369SOL    HW257115   1.455   2.055   3.689  0.8279  0.3363  2.6302
18370SOL     OW57116   9.719   0.470   2.931 -0.5420  0.4699  0.3770
18370SOL    HW157117   9.808   0.462   2.899  0.7584  2.4789  3.0839
18370SOL    HW257118   9.712   0.406   3.001 -1.0279  0.7469  0.5898
18371SOL     OW57119   9.459  10.016   7.076  0.2890 -0.3145 -0.2745
18371SOL    HW157120   9.478   9.924   7.092 -2.1979 -0.6781  1.0776
18371SOL    HW257121   9.526  10.063   7.124  2.5690 -1.3289 -2.2779
18372SOL     OW57122   7.062   3.526   7.907 -0.2753 -0.0325  0.2537
18372SOL    HW157123   7.096   3.548   7.821 -0.1260 -0.4791  0.1971
18372SOL    HW257124   7.118   3.573   7.969  0.4084 -0.6917  0.1591
18373SOL     OW57125   4.356   1.656   7.897 -0.2670 -0.6595  0.3801
18373SOL    HW157126   4.356   1.563   7.920  1.4610 -0.8268 -0.1433
18373SOL    HW257127   4.429   1.693   7.947 -0.7891  0.3668  0.3959
18374SOL     OW57128   1.492  10.013   5.479  0.1863 -0.1993  0.9955
18374SOL    HW157129   1.475   9.986   5.569  0.4983 -0.7502  0.8900
18374SOL    HW257130   1.574  10.061   5.483 -0.8938  1.7529  1.3672
18375SOL     OW57131   2.368   5.284   4.139 -0.3674 -0.0295 -0.5340
18375SOL    HW157132   2.411   5.314   4.060 -0.4380 -0.6140 -0.8008
18375SOL    HW257133   2.291   5.340   4.148  0.0377  0.5245 -0.4656
18376SOL     OW57134   3.197   6.797   6.319  0.8605  0.5857 -0.2130
18376SOL    HW157135   3.256   6.767   6.250  1.8821  2.5678 -0.2768
18376SOL    HW257136   3.115   6.816   6.273  0.4504 -1.1781 -0.2941
18377SOL     OW57137   4.267   1.409  10.050  0.3164 -0.2216  0.1290
18377SOL    HW157138   4.186   1.435  10.095 -0.6415 -1.6624 -0.6702
18377SOL    HW257139   4.308   1.346  10.110 -0.1542 -0.9432 -0.2913
18378SOL     OW57140  10.204   2.317   2.062 -0.6625 -0.3494  0.2502
18378SOL    HW157141  10.213   2.344   2.154 -1.9224 -1.0063  0.5945
18378SOL    HW257142  10.286   2.272   2.042 -0.5082 -0.4961  1.1711
18379SOL     OW57143   6.492   8.708   9.835  0.1078  0.2081  0.3196
18379SOL    HW157144   6.425   8.649   9.867  0.9179 -0.1861  1.3576
18379SOL    HW257145   6.445   8.785   9.806 -0.9984 -1.0155 -1.2991
18380SOL     OW57146   0.353   0.265   6.322 -0.1710 -0.2672 -0.1868
18380SOL    HW157147   0.442   0.293   6.344  0.4936 -2.0624 -0.4083
18380SOL    HW257148   0.334   0.194   6.383 -1.7279  0.5161  0.2843
18381SOL     OW57149   2.397  10.069  10.711 -0.2926 -0.4894 -0.4010
18381SOL    HW157150   2.443  10.124  10.647 -0.4071  2.4672  1.8407
18381SOL    HW257151   2.466  10.013  10.747  0.6267  0.6202 -0.3423
18382SOL     OW57152   2.338   5.411   9.505 -0.4395  0.5758 -0.1023
18382SOL    HW157153   2.364   5.450   9.588  0.2544 -3.3399  1.7733
18382SOL    HW257154   2.409   5.435   9.445  1.3215  0.0673  1.6401
18383SOL     OW57155   3.030   6.790   5.997  0.4566 -0.0911  1.1850
18383SOL    HW157156   2.934   6.784   5.995  0.4172  0.6193  0.8977
18383SOL    HW257157   3.059   6.749   5.916  0.2664  1.8369  0.0791
18384SOL     OW57158   7.948   0.205   1.061  0.0804 -0.0515 -0.2151
18384SOL    HW157159   7.967   0.295   1.033  1.4166 -0.2109  0.1449
18384SOL    HW257160   7.865   0.213   1.109 -0.5458  0.7484 -1.3563
18385SOL     OW57161   2.990   2.219   5.123 -0.3617 -0.7652  0.6308
18385SOL    HW157162   3.029   2.169   5.195  0.3464  1.3859  1.8105
18385SOL    HW257163   2.907   2.251   5.159 -0.7443 -0.9529 -0.0680
18386SOL     OW57164   1.588   1.057   2.882 -0.2840  0.0522 -0.4507
18386SOL    HW157165   1.562   1.019   2.966  0.7026  0.1305 -0.1041
18386SOL    HW257166   1.568   1.151   2.890 -2.3462 -0.2683 -1.1635
18387SOL     OW57167   6.475   5.233   8.474 -0.1457  0.1328 -0.0555
18387SOL    HW157168   6.480   5.140   8.452 -0.7403 -0.3765  1.7952
18387SOL    HW257169   6.453   5.276   8.391  0.3958 -1.3280 -0.9955
18388SOL     OW57170   3.383   5.307   4.875  0.3335 -0.0027  0.4449
18388SOL    HW157171   3.297   5.281   4.908 -1.3686  4.2005  0.0089
18388SOL    HW257172   3.394   5.257   4.794 -2.1842 -0.0574  0.0442
18389SOL     OW57173   3.482   7.375   3.557 -0.5496  0.7055  0.6821
18389SOL    HW157174   3.421   7.301   3.552 -0.2623  0.5192 -0.2156
18389SOL    HW257175   3.437   7.445   3.510 -1.0698  1.3022  2.0107
18390SOL     OW57176   9.942   1.409   4.965 -0.0778 -0.0012  0.0555
18390SOL    HW157177   9.860   1.421   4.918 -0.3065 -1.7273 -0.0307
18390SOL    HW257178   9.933   1.464   5.043 -1.2944 -0.1259  0.0186
18391SOL     OW57179   0.191   4.031   0.229 -0.2200 -0.6374 -0.0263
18391SOL    HW157180   0.226   4.056   0.314 -1.9059 -1.1049  0.8631
18391SOL    HW257181   0.223   3.942   0.215  0.9968 -0.1524 -0.4437
18392SOL     OW57182   5.005   2.458  10.824 -1.1424  0.1251 -0.0015
18392SOL    HW157183   5.036   2.409  10.900 -1.6204 -2.1033 -1.1402
18392SOL    HW257184   4.923   2.498  10.853 -0.3479  0.9512  1.1984
18393SOL     OW57185   0.954   2.281   0.354 -0.5494 -0.1230 -0.4201
18393SOL    HW157186   0.903   2.280   0.435  1.1248  1.5653  0.7488
18393SOL    HW257187   1.022   2.215   0.369 -0.5306 -0.1611 -0.6716
18394SOL     OW57188   2.505   1.159   7.922 -1.0519  0.2020 -0.0607
18394SOL    HW157189   2.487   1.201   8.006 -1.9217  0.6174 -0.4434
18394SOL    HW257190   2.425   1.169   7.872  0.2218  2.1671 -1.8795
18395SOL     OW57191   6.807   7.511   5.500 -0.2424 -0.0503 -0.6224
18395SOL    HW157192   6.780   7.426   5.536 -0.8197  0.7674  0.9734
18395SOL    HW257193   6.745   7.573   5.536  1.5304  1.3706  0.1508
18396SOL     OW57194   1.065   2.272   5.727  1.0000  0.0201 -0.1722
18396SOL    HW157195   1.134   2.287   5.792  1.1725  1.3988 -0.6427
18396SOL    HW257196   0.994   2.329   5.753  0.5737 -0.3517 -0.4940
18397SOL     OW57197   1.642   0.897   2.035 -0.4098  0.1807  0.5696
18397SOL    HW157198   1.672   0.944   1.957 -3.6054 -0.7825 -1.4586
18397SOL    HW257199   1.584   0.959   2.080 -1.1585 -0.3234  0.3213
18398SOL     OW57200  11.101   6.806   8.969 -0.2632 -0.1253  0.2542
18398SOL    HW157201  11.012   6.839   8.958 -0.2890 -0.1400  0.4208
18398SOL    HW257202  11.099   6.720   8.928 -0.5683 -0.5101  1.0667
18399SOL     OW57203   7.683   7.365   7.272  0.1301 -0.1481  0.0126
18399SOL    HW157204   7.593   7.342   7.250  0.3858  0.4218 -1.8649
18399SOL    HW257205   7.702   7.440   7.215  0.7544  1.8297  2.6690
18400SOL     OW57206   0.169   2.214   9.575 -0.0305  0.4874  0.1027
18400SOL    HW157207   0.150   2.272   9.501  1.1537  3.7158  2.0840
18400SOL    HW257208   0.263   2.196   9.568 -0.0613  0.2096  0.4061
18401SOL     OW57209   6.750   0.771   0.616  0.6963  0.3943 -0.0886
18401SOL    HW157210   6.736   0.724   0.699  1.3127 -1.1430 -0.8224
18401SOL    HW257211   6.708   0.856   0.630 -1.9421 -0.9131  0.7316
18402SOL     OW57212   8.107   7.795   4.414  0.6001  0.2173  0.4287
18402SOL    HW157213   8.127   7.706   4.443 -1.8830  0.3444  2.9649
18402SOL    HW257214   8.012   7.796   4.405  0.2692  3.2127  2.8999
18403SOL     OW57215   8.642   1.082   5.349  0.6928 -0.8086 -0.4185
18403SOL    HW157216   8.609   1.167   5.321  2.2934 -0.3297 -0.9341
18403SOL    HW257217   8.726   1.072   5.304  0.6659 -2.5577 -0.1824
18404SOL     OW57218  10.203   5.382   8.587  0.0244 -0.3021  0.2413
18404SOL    HW157219  10.269   5.355   8.523  0.0674 -4.0276  1.5816
18404SOL    HW257220  10.253   5.397   8.667 -0.5239 -1.2985  0.7900
18405SOL     OW57221   2.264   8.109   3.793  0.4999  0.2498  0.3922
18405SOL    HW157222   2.304   8.194   3.809  0.0084  0.4937  0.3464
18405SOL    HW257223   2.305   8.051   3.858  1.3524  0.3538 -0.0482
18406SOL     OW57224   4.670   0.565   7.063  0.0491 -0.2637 -0.3226
18406SOL    HW157225   4.622   0.647   7.071 -1.5326 -1.0179 -1.6596
18406SOL    HW257226   4.722   0.560   7.143 -1.9218  0.7045  1.0898
18407SOL     OW57227   3.669   9.276   6.535  0.0555  0.0465  0.4292
18407SOL    HW157228   3.726   9.228   6.595 -0.2973 -0.3694  0.4405
18407SOL    HW257229   3.728   9.329   6.482  0.3385  0.9176  1.5620
18408SOL     OW57230  10.889   7.519   3.212  0.2545  0.2018  0.0294
18408SOL    HW157231  10.842   7.443   3.178  0.9863 -0.1746 -0.1624
18408SOL    HW257232  10.859   7.527   3.302 -1.1242  0.7419 -0.4605
18409SOL     OW57233   5.787   2.363   3.160  0.4343 -0.7309  0.8303
18409SOL    HW157234   5.760   2.453   3.173  0.1356 -0.4423 -1.5118
18409SOL    HW257235   5.759   2.318   3.241 -1.0950  0.8639  1.2486
18410SOL     OW57236   0.473   2.180   6.511 -0.1724  0.5661 -0.3347
18410SOL    HW157237   0.443   2.184   6.420 -3.6015  0.5449  0.6460
18410SOL    HW257238   0.460   2.089   6.536  0.2037  0.6927  0.3362
18411SOL     OW57239   5.565   8.016   0.479 -0.1018  0.3494  0.2727
18411SOL    HW157240   5.563   8.083   0.411  1.7888  1.1091  0.8839
18411SOL    HW257241   5.643   7.963   0.459  0.3235  0.4047  1.6511
18412SOL     OW57242   5.673   6.032   1.361 -0.3511  0.1212  0.2133
18412SOL    HW157243   5.674   6.126   1.343 -1.2467  0.4282  1.5642
18412SOL    HW257244   5.763   6.011   1.384 -0.0943  0.5974 -0.3374
18413SOL     OW57245   4.623   0.413   2.237  0.2740  0.5145  0.2405
18413SOL    HW157246   4.682   0.340   2.258 -1.9267 -1.5039 -0.1623
18413SOL    HW257247   4.642   0.434   2.146 -0.3778 -0.9118 -0.2471
18414SOL     OW57248   7.662   5.961   0.218  0.1392 -0.9184 -0.4988
18414SOL    HW157249   7.574   5.999   0.221  0.4301 -0.2495  0.1344
18414SOL    HW257250   7.652   5.873   0.253 -0.2963 -0.8753 -0.5114
18415SOL     OW57251   3.751   9.353  10.887  0.2341  0.0724  0.1119
18415SOL    HW157252   3.762   9.328  10.979 -1.2449 -1.9521 -0.1819
18415SOL    HW257253   3.677   9.414  10.888  0.2925  0.1430  0.2753
18416SOL     OW57254   6.257   2.886   1.695  0.1764  0.3427  0.7671
18416SOL    HW157255   6.290   2.796   1.695  1.5500  0.7202 -2.0106
18416SOL    HW257256   6.326   2.937   1.737  0.0782  0.2931  0.9897
18417SOL     OW57257   9.850   9.055   1.755  0.1087 -0.3094 -0.0514
18417SOL    HW157258   9.870   8.975   1.706  1.0448 -1.7711  2.5066
18417SOL    HW257259   9.755   9.062   1.753  0.1299 -0.2866 -2.0576
18418SOL     OW57260   3.465   6.167   9.486  0.4630 -0.2492  0.8692
18418SOL    HW157261   3.443   6.248   9.533 -0.9711 -1.4547  2.3616
18418SOL    HW257262   3.381   6.128   9.464  1.0873 -2.2141  1.7389
18419SOL     OW57263   3.316   8.274   7.161  0.1225 -0.0500 -0.2367
18419SOL    HW157264   3.233   8.241   7.195 -0.5692  1.9031  0.1158
18419SOL    HW257265   3.292   8.349   7.107  1.6444  0.5114 -0.1935
18420SOL     OW57266   2.156   5.672  10.135 -0.1197 -0.2366  0.4175
18420SOL    HW157267   2.147   5.766  10.116  0.6908 -0.0656  0.8349
18420SOL    HW257268   2.074   5.634  10.104 -0.0492  0.4591 -0.7120
18421SOL     OW57269   9.345   5.906   8.235  0.7871 -0.0814 -0.0033
18421SOL    HW157270   9.322   5.814   8.222 -1.1948 -0.0595  2.4803
18421SOL    HW257271   9.283   5.955   8.181  1.1965 -0.1792 -0.5652
18422SOL     OW57272   3.323   0.673   8.196  0.2269  0.1676  0.3044
18422SOL    HW157273   3.409   0.638   8.171  0.3571  1.3839 -1.1420
18422SOL    HW257274   3.260   0.611   8.159  0.4762 -0.1281  0.3723
18423SOL     OW57275   3.552   2.320   7.962 -0.2686  0.4096 -0.7787
18423SOL    HW157276   3.531   2.390   7.901 -0.1268  0.2064 -1.0609
18423SOL    HW257277   3.643   2.337   7.988  0.8642 -1.3692 -3.1945
18424SOL     OW57278  10.399   8.656  10.787  0.4385  0.0314 -0.1532
18424SOL    HW157279  10.493   8.655  10.806  0.4467 -1.6509 -0.2044
18424SOL    HW257280  10.378   8.568  10.757 -0.8904  0.7667 -1.5895
18425SOL     OW57281   1.134  10.135   4.565  0.1679  0.0806  0.2148
18425SOL    HW157282   1.077  10.159   4.638 -1.0398  0.7653 -0.9053
18425SOL    HW257283   1.207  10.198   4.570  0.5898 -0.4738  1.3552
18426SOL     OW57284   3.636   5.642  10.499 -0.1023 -0.0037  0.2678
18426SOL    HW157285   3.672   5.705  10.437  1.2264  1.3571  2.2957
18426SOL    HW257286   3.706   5.577  10.510 -0.5908 -0.6091 -0.1098
18427SOL     OW57287   0.661   3.769   7.181  0.0493  0.0668 -0.2691
18427SOL    HW157288   0.605   3.806   7.113  0.0108 -0.3510 -0.4735
18427SOL    HW257289   0.691   3.686   7.144  0.8304  0.2990 -0.1749
18428SOL     OW57290   9.291   9.321   1.894  0.0403 -0.3456 -0.7117
18428SOL    HW157291   9.265   9.313   1.985 -1.6877  0.7944 -1.0438
18428SOL    HW257292   9.386   9.317   1.895  0.0046 -1.9664  0.9362
18429SOL     OW57293   2.297   9.995   0.592  0.4030 -0.3715 -0.6839
18429SOL    HW157294   2.224   9.961   0.540  1.5622 -3.6506 -0.4336
18429SOL    HW257295   2.368  10.006   0.529 -0.0677  2.3548 -0.8457
18430SOL     OW57296   2.054   6.555   7.783 -0.5266  1.0572 -0.1118
18430SOL    HW157297   2.110   6.543   7.706 -0.8767  0.0131 -0.2328
18430SOL    HW257298   1.965   6.553   7.748 -0.6942  0.4094  0.3257
18431SOL     OW57299   8.549   7.746   7.899 -0.2331  0.3937  0.0063
18431SOL    HW157300   8.606   7.696   7.841  0.6270  1.6975 -0.3155
18431SOL    HW257301   8.529   7.826   7.850 -1.3600  0.5085  0.6103
18432SOL     OW57302   5.501   2.207   2.710  0.1964 -0.1945  0.3006
18432SOL    HW157303   5.555   2.141   2.754  1.5104  0.1472 -0.7258
18432SOL    HW257304   5.487   2.171   2.622  0.8016  0.8039 -0.2207
18433SOL     OW57305   4.873   6.745   8.119  0.1036 -0.0503  0.4759
18433SOL    HW157306   4.926   6.809   8.072 -0.7491  0.1786 -0.2076
18433SOL    HW257307   4.899   6.661   8.081 -0.7603  0.1547 -0.6239
18434SOL     OW57308   1.079   5.814   1.598 -0.2584 -0.5005  0.1272
18434SOL    HW157309   1.088   5.829   1.692 -0.0667  1.5040 -0.1669
18434SOL    HW257310   1.168   5.818   1.565 -0.3540 -0.9188 -0.1810
18435SOL     OW57311   1.546   4.960   0.169 -0.1683 -0.6754 -0.4494
18435SOL    HW157312   1.636   4.986   0.189  0.5831  0.7242 -4.5413
18435SOL    HW257313   1.494   5.037   0.190  0.3394  0.1382 -1.9650
18436SOL     OW57314   8.215   1.929   2.418 -0.0467  0.5498 -0.0073
18436SOL    HW157315   8.154   1.856   2.411  0.7944 -0.1956  0.2045
18436SOL    HW257316   8.287   1.895   2.472 -0.0271  1.8045  0.7957
18437SOL     OW57317   6.519   5.579   0.245  0.1141 -0.9879 -0.3002
18437SOL    HW157318   6.556   5.491   0.236  1.0380 -0.7343  0.7679
18437SOL    HW257319   6.581   5.625   0.302 -0.6345  0.1915 -0.4146
18438SOL     OW57320   1.008   9.388   4.473 -0.7964 -0.3931  0.7243
18438SOL    HW157321   1.075   9.409   4.537  0.6080 -0.1072 -0.7593
18438SOL    HW257322   1.043   9.313   4.425 -2.3581 -1.3667  1.0578
18439SOL     OW57323   0.605   3.880   6.520  0.5029  0.4932  0.9250
18439SOL    HW157324   0.657   3.951   6.485 -2.6633  2.2489 -0.5966
18439SOL    HW257325   0.608   3.812   6.453  0.5528  0.7205  0.6973
18440SOL     OW57326   4.197   9.940   9.079  0.4163 -0.2613 -0.0631
18440SOL    HW157327   4.156  10.025   9.096  1.9728  0.8751 -1.6866
18440SOL    HW257328   4.246   9.921   9.159  0.5122  0.6544  0.1109
18441SOL     OW57329   6.181  10.909   4.244 -0.1831  0.1208 -0.5083
18441SOL    HW157330   6.104  10.865   4.279 -0.1327 -0.7743 -1.4755
18441SOL    HW257331   6.154  11.000   4.233 -0.8105  0.0021 -0.0187
18442SOL     OW57332   3.486   1.823   8.090  0.0453  0.4099 -0.9586
18442SOL    HW157333   3.575   1.791   8.100 -0.7531 -1.1257  2.7341
18442SOL    HW257334   3.494   1.918   8.085  1.8079  0.5005  1.9840
18443SOL     OW57335   3.194   1.633  10.379  0.4493 -0.0056  0.3216
18443SOL    HW157336   3.183   1.538  10.373  1.7472 -0.1233 -0.8318
18443SOL    HW257337   3.175   1.654  10.470 -2.3026 -0.9958  0.0730
18444SOL     OW57338   2.938   6.818   7.652  0.1684  0.0131 -0.6085
18444SOL    HW157339   2.984   6.857   7.726 -3.2918  2.5253  0.4715
18444SOL    HW257340   2.956   6.725   7.659  3.8733  0.6457  0.3990
18445SOL     OW57341   3.240   7.539   3.015 -0.1297  1.3361 -0.6343
18445SOL    HW157342   3.214   7.450   3.040 -1.6771  1.9025 -0.1546
18445SOL    HW257343   3.177   7.565   2.948 -1.1005  2.8807  0.8148
18446SOL     OW57344  10.516   6.670   2.574  0.6095  0.2597 -0.0387
18446SOL    HW157345  10.560   6.589   2.601 -0.1654 -0.5356 -1.0560
18446SOL    HW257346  10.499   6.658   2.481  0.3912  1.5749 -0.1866
18447SOL     OW57347   5.541   9.005   6.215  0.3801  0.3706  0.2347
18447SOL    HW157348   5.506   9.059   6.286  1.0289 -1.5001  2.0853
18447SOL    HW257349   5.544   8.916   6.252  3.6376 -0.1847 -1.0567
18448SOL     OW57350   5.142   7.702   0.662 -0.6696  0.2316  0.2925
18448SOL    HW157351   5.131   7.740   0.749 -0.4830  1.0459 -0.0396
18448SOL    HW257352   5.236   7.684   0.655 -0.6307  0.5060  0.1153
18449SOL     OW57353   9.177   9.294   0.963  0.1575 -0.9657 -0.0231
18449SOL    HW157354   9.249   9.289   1.026  2.2090 -2.5232 -2.3467
18449SOL    HW257355   9.134   9.209   0.969 -2.0559  0.1530  1.7905
18450SOL     OW57356   8.609   4.617   6.610  0.5243 -0.7803  0.0046
18450SOL    HW157357   8.517   4.590   6.607 -0.6838  1.9950  3.7214
18450SOL    HW257358   8.652   4.551   6.664 -0.2785 -0.1191  1.5110
18451SOL     OW57359  11.011   1.753   7.563  0.8127  0.4804  0.4606
18451SOL    HW157360  11.041   1.776   7.475  1.3509  0.3697  0.6161
18451SOL    HW257361  10.928   1.800   7.573  1.7651  2.2018  0.6940
18452SOL     OW57362   2.620   6.044   4.617 -0.2801  0.5351 -0.5489
18452SOL    HW157363   2.658   5.957   4.617 -0.4135  0.4782 -0.0376
18452SOL    HW257364   2.585   6.056   4.705 -1.6426  0.4950 -1.0484
18453SOL     OW57365   2.321   5.795  10.631 -0.2161  0.3759 -0.3697
18453SOL    HW157366   2.330   5.700  10.633 -0.3752  0.3584 -0.4398
18453SOL    HW257367   2.234   5.810  10.593  0.2802  0.5703 -1.4482
18454SOL     OW57368   8.920   4.031   7.441 -0.5310  0.0864 -0.2134
18454SOL    HW157369   8.988   3.975   7.403  0.6569  1.6674 -0.5336
18454SOL    HW257370   8.935   4.025   7.535  0.5362  0.9817 -0.3156
18455SOL     OW57371  11.057   3.085   3.203  0.1275 -0.6041 -0.1259
18455SOL    HW157372  11.030   3.000   3.169 -1.7093  0.1303 -0.6328
18455SOL    HW257373  11.123   3.117   3.140  2.0042 -2.2461  0.8956
18456SOL     OW57374   1.549   0.592   4.571 -0.3423  0.3848 -0.2312
18456SOL    HW157375   1.573   0.540   4.495 -1.0626 -0.9341  0.4062
18456SOL    HW257376   1.457   0.571   4.587 -0.1707  0.5068  1.0816
18457SOL     OW57377   3.480   2.395  11.029 -0.7619 -0.5453 -0.4113
18457SOL    HW157378   3.387   2.421  11.028 -0.5105  0.7200  2.0614
18457SOL    HW257379   3.522   2.461  11.084  1.4349 -1.7097 -0.6215
18458SOL     OW57380   0.487   0.746   6.611 -1.1632 -0.4500  0.0654
18458SOL    HW157381   0.578   0.772   6.623 -1.3369  0.4344 -0.5098
18458SOL    HW257382   0.436   0.817   6.650 -1.6157 -0.7818  0.0891
18459SOL     OW57383   5.856   4.895   2.252 -0.0625 -0.1068 -0.0187
18459SOL    HW157384   5.862   4.941   2.335 -0.1428 -0.5604  0.2438
18459SOL    HW257385   5.937   4.916   2.206  0.4677 -0.7188  0.6276
18460SOL     OW57386   9.193   9.441   3.830 -0.2120  0.2785  0.3909
18460SOL    HW157387   9.107   9.400   3.841 -0.4417  0.4301 -0.7289
18460SOL    HW257388   9.251   9.392   3.888 -0.6378 -1.1215 -0.3122
18461SOL     OW57389   4.431   7.108  10.973  0.7813  0.6663 -0.2271
18461SOL    HW157390   4.417   7.027  10.923  1.7955  0.2075  0.2018
18461SOL    HW257391   4.445   7.175  10.907  3.2161 -0.1327 -0.6223
18462SOL     OW57392   0.583   5.017  10.197  0.7743  0.0362 -0.1517
18462SOL    HW157393   0.573   4.969  10.280  1.3278 -2.4182 -1.4299
18462SOL    HW257394   0.541   5.102  10.214 -1.7123 -1.4311  1.7472
18463SOL     OW57395   8.526  10.072   2.019 -0.6037 -0.4227 -0.0133
18463SOL    HW157396   8.598  10.024   2.060 -0.1791 -0.4546 -0.7703
18463SOL    HW257397   8.452  10.012   2.023 -0.9041  0.0162  1.7468
18464SOL     OW57398   6.525   3.778   9.972 -0.0955  0.0034  0.0743
18464SOL    HW157399   6.461   3.712   9.947 -2.1041  1.6410  0.6130
18464SOL    HW257400   6.547   3.823   9.891 -1.7020  1.1477  0.2372
18465SOL     OW57401  10.566   5.937  11.003  0.4180 -0.0499 -0.0027
18465SOL    HW157402  10.614   5.941  11.086  1.5221  0.6631 -0.6433
18465SOL    HW257403  10.595   6.015  10.955  0.6563 -1.0227 -1.5113
18466SOL     OW57404   3.041   4.005   9.284 -0.0854  0.6147 -0.5970
18466SOL    HW157405   3.038   4.035   9.375  2.6623  0.6559 -0.4250
18466SOL    HW257406   3.100   4.066   9.240  0.2542 -0.5693 -1.8801
18467SOL     OW57407   6.271   1.531   2.871  0.0387 -0.2059 -0.1612
18467SOL    HW157408   6.285   1.483   2.789 -0.0197  0.2275 -0.4308
18467SOL    HW257409   6.319   1.480   2.937 -0.7703 -1.1304 -0.2596
18468SOL     OW57410   6.772   7.741   4.384 -0.1030 -0.2190 -0.6021
18468SOL    HW157411   6.708   7.743   4.456  0.0765 -0.7176 -0.4293
18468SOL    HW257412   6.845   7.689   4.418 -0.0339 -0.4893 -1.1571
18469SOL     OW57413   1.589   2.575   4.878  0.8563 -0.0718  0.3363
18469SOL    HW157414   1.519   2.533   4.828  0.9648  0.2318 -0.0736
18469SOL    HW257415   1.658   2.591   4.814  1.1384  0.0037  0.6560
18470SOL     OW57416   6.082   1.416  10.319  0.4286 -0.4963 -0.0930
18470SOL    HW157417   6.168   1.376  10.333  1.4333  1.3873 -0.4836
18470SOL    HW257418   6.079   1.488  10.382 -1.2900 -1.0894  0.5580
18471SOL     OW57419   8.835   3.605   7.753 -0.2323 -0.3730 -0.0390
18471SOL    HW157420   8.900   3.564   7.810 -0.4445 -1.8432 -0.7931
18471SOL    HW257421   8.753   3.561   7.775 -1.0763  1.6635  1.1058
18472SOL     OW57422   7.042   3.941   3.972  0.1796 -0.2119  0.0697
18472SOL    HW157423   7.122   3.924   4.022  0.6231 -1.1034 -0.9097
18472SOL    HW257424   7.019   4.031   3.996  2.0465  0.4435 -0.3881
18473SOL     OW57425   2.456   5.079   3.841  0.1118 -0.3377 -0.6692
18473SOL    HW157426   2.493   4.996   3.813  0.2056 -0.7763  0.6979
18473SOL    HW257427   2.461   5.077   3.937 -3.1336 -0.3139 -0.3754
18474SOL     OW57428  11.080   5.923  10.007 -0.1201  0.2251 -0.3766
18474SOL    HW157429  11.057   5.915   9.915 -2.1245  1.4121 -0.0409
18474SOL    HW257430  11.146   5.855  10.022 -0.1988 -0.3725 -2.5299
18475SOL     OW57431   1.753   1.967   0.640  0.2649  0.3112  0.4839
18475SOL    HW157432   1.805   1.925   0.571 -1.1482 -1.3591  0.3737
18475SOL    HW257433   1.803   1.951   0.720 -0.3627 -1.9500  0.4962
18476SOL     OW57434   9.415   8.650   8.010 -0.1214 -0.9814  0.3165
18476SOL    HW157435   9.459   8.724   8.052  1.0077 -1.1615 -0.5063
18476SOL    HW257436   9.353   8.690   7.949 -1.5739 -0.7215  1.8810
18477SOL     OW57437   1.168   4.111   5.840  0.0527 -0.0973 -0.0295
18477SOL    HW157438   1.239   4.125   5.902  0.7929  0.0395 -0.8973
18477SOL    HW257439   1.092   4.092   5.895  0.8230 -0.5696  0.8975
18478SOL     OW57440   2.822   6.337  10.607 -0.7584 -0.1092 -0.3613
18478SOL    HW157441   2.882   6.272  10.643 -2.3392  0.0893  2.9706
18478SOL    HW257442   2.874   6.417  10.601  0.1380 -0.6946 -0.7195
18479SOL     OW57443   5.143   8.579   1.866 -0.0131  0.0019 -0.3167
18479SOL    HW157444   5.147   8.489   1.833 -0.4114  0.6159 -2.1796
18479SOL    HW257445   5.234   8.603   1.880  0.0313 -1.2998  2.1149
18480SOL     OW57446   5.760   8.446   8.243  0.3101 -0.4285  0.0727
18480SOL    HW157447   5.698   8.518   8.255 -0.6570 -0.8527 -1.9150
18480SOL    HW257448   5.843   8.480   8.274 -0.4211  1.0356  0.5160
18481SOL     OW57449   8.213   4.554   7.579 -0.4562  0.0417 -0.2063
18481SOL    HW157450   8.164   4.619   7.629 -1.1345 -0.8516  0.3285
18481SOL    HW257451   8.160   4.474   7.587  1.3363 -1.1020  0.8310
18482SOL     OW57452   3.679   3.740   2.900  0.3413 -0.1502 -0.6614
18482SOL    HW157453   3.664   3.752   2.994  2.2147 -0.1811 -0.3217
18482SOL    HW257454   3.609   3.681   2.872 -0.0104 -0.4659  0.7963
18483SOL     OW57455   3.389   1.788   2.146 -0.3648 -0.2393  0.1730
18483SOL    HW157456   3.445   1.777   2.223  1.7437 -1.3439 -1.4116
18483SOL    HW257457   3.344   1.704   2.137 -1.7539  0.3804  0.9819
18484SOL     OW57458   6.127   3.042   7.583 -0.0010  0.0551 -0.3112
18484SOL    HW157459   6.160   3.017   7.496 -2.3371  0.0147 -1.2671
18484SOL    HW257460   6.110   2.959   7.627 -1.2974  0.0106 -0.8585
18485SOL     OW57461   5.975   2.222   9.073 -0.1600 -0.2391 -0.9246
18485SOL    HW157462   5.943   2.140   9.035 -0.0532 -0.8540  0.2859
18485SOL    HW257463   5.909   2.246   9.138  0.2503  0.1604 -0.6501
18486SOL     OW57464   5.596   7.877   2.705 -0.0744  1.0324 -0.2004
18486SOL    HW157465   5.510   7.902   2.739 -0.5723  0.1422 -0.8007
18486SOL    HW257466   5.657   7.936   2.751 -0.4567 -1.2463  3.7373
18487SOL     OW57467   9.949   1.307   6.966 -0.5510  0.5397 -0.1929
18487SOL    HW157468  10.004   1.232   6.988 -0.4062  0.2039 -1.5872
18487SOL    HW257469   9.988   1.381   7.012 -0.7270 -0.2376  1.2414
18488SOL     OW57470   2.873   5.635   1.283  0.3126 -0.0502  0.2663
18488SOL    HW157471   2.918   5.611   1.365 -1.8044  0.9091  1.8048
18488SOL    HW257472   2.941   5.677   1.230  1.7491 -0.6549  1.5566
18489SOL     OW57473   8.622   7.323   6.715  0.5787 -0.4436  0.0068
18489SOL    HW157474   8.617   7.404   6.663  1.7554 -0.3522  0.0081
18489SOL    HW257475   8.534   7.312   6.750  1.0054  2.5374  2.5069
18490SOL     OW57476   6.871   4.360   2.844  0.0823 -0.0054 -0.1731
18490SOL    HW157477   6.917   4.401   2.770 -0.5381  1.9989  0.4839
18490SOL    HW257478   6.784   4.341   2.811 -0.8916  2.7550  0.4727
18491SOL     OW57479   0.213   5.229   5.441 -0.2105 -0.5694 -0.6225
18491SOL    HW157480   0.253   5.287   5.377 -1.0940  1.3852  0.5013
18491SOL    HW257481   0.261   5.244   5.522 -1.6149  0.0124  0.1406
18492SOL     OW57482   7.693   5.198   7.462  0.1434 -0.2598 -0.1085
18492SOL    HW157483   7.742   5.142   7.522  1.3933  0.7708 -0.1228
18492SOL    HW257484   7.665   5.139   7.392  0.2369 -1.1200  0.5656
18493SOL     OW57485   0.573   6.721   1.295 -0.0627  0.0529 -0.2741
18493SOL    HW157486   0.523   6.643   1.320  0.9075  0.2763  2.7753
18493SOL    HW257487   0.515   6.794   1.316  0.5521  0.2352  0.8558
18494SOL     OW57488  10.558   3.960  10.568 -0.0220  0.5043 -0.1333
18494SOL    HW157489  10.544   3.944  10.661  0.1082  2.1286  0.1845
18494SOL    HW257490  10.491   3.906  10.525  0.2209 -0.6441  0.8440
18495SOL     OW57491   6.101   0.255   6.825 -0.1273  0.4700  0.9047
18495SOL    HW157492   6.054   0.235   6.906 -0.9204  1.5286  0.7269
18495SOL    HW257493   6.054   0.329   6.788  2.2928  2.3227  1.2516
18496SOL     OW57494   0.580   5.069   0.478  0.4257  0.2477 -0.7205
18496SOL    HW157495   0.663   5.110   0.453  1.1223 -1.1739 -0.8333
18496SOL    HW257496   0.543   5.128   0.544  0.9693  1.4773 -1.4634
18497SOL     OW57497   5.092  10.007   9.335  0.4684  0.2288 -0.1004
18497SOL    HW157498   5.020   9.947   9.317  1.9972 -1.6177 -0.4197
18497SOL    HW257499   5.085  10.028   9.428 -0.2629 -0.1906 -0.0601
18498SOL     OW57500   4.634   3.827   1.122  0.3211 -0.5185  0.4321
18498SOL    HW157501   4.606   3.839   1.031 -0.4132 -0.2793  0.6860
18498SOL    HW257502   4.653   3.734   1.129 -3.4783 -1.3999  1.0585
18499SOL     OW57503  10.178   8.507   0.111 -1.0314  0.6703 -0.3386
18499SOL    HW157504  10.248   8.451   0.145  0.2828  2.4026 -0.0233
18499SOL    HW257505  10.109   8.446   0.085 -0.5287 -0.9421  1.8481
18500SOL     OW57506   8.449   5.360   8.104  0.1159 -1.4318 -0.6978
18500SOL    HW157507   8.358   5.331   8.111  0.2241 -1.8238 -0.8462
18500SOL    HW257508   8.444   5.455   8.097 -0.1274 -1.0735  2.7187
18501SOL     OW57509   2.570   5.294  10.851  0.1529 -0.8620 -0.2276
18501SOL    HW157510   2.479   5.298  10.822  0.2261 -2.1678 -0.7123
18501SOL    HW257511   2.570   5.231  10.923  0.8053 -1.5893 -0.8399
18502SOL     OW57512   7.026   3.040   5.601  0.2973  0.3352  0.2163
18502SOL    HW157513   7.117   3.033   5.630  0.7764  0.7146 -1.1239
18502SOL    HW257514   7.021   2.984   5.524  0.0469  2.1666 -1.1609
18503SOL     OW57515   1.221   9.330   1.716 -0.5477  0.5051  0.3325
18503SOL    HW157516   1.249   9.420   1.696  3.1464 -0.1175  1.9993
18503SOL    HW257517   1.249   9.279   1.640  0.0194  0.3161  0.6721
18504SOL     OW57518   3.212   6.662   7.684 -0.2251  0.2053 -0.9332
18504SOL    HW157519   3.213   6.683   7.590  0.8063 -3.7516 -2.0070
18504SOL    HW257520   3.304   6.651   7.706 -0.5300 -0.0667  0.2338
18505SOL     OW57521   4.894   9.220   9.072  0.0985  0.0904  0.1875
18505SOL    HW157522   4.880   9.275   9.149  2.1535 -0.7186  1.2227
18505SOL    HW257523   4.976   9.253   9.034  0.1856 -0.8425 -0.4607
18506SOL     OW57524   3.810   4.555   5.555 -0.1542  0.1108 -0.4602
18506SOL    HW157525   3.762   4.615   5.497 -0.6013  0.8716  0.6750
18506SOL    HW257526   3.892   4.601   5.574 -0.4140  0.2851  0.2570
18507SOL     OW57527   6.950   9.625   3.767  0.7118 -0.7021 -0.2671
18507SOL    HW157528   6.944   9.649   3.859 -0.2664 -0.3944 -0.3975
18507SOL    HW257529   6.879   9.562   3.754  0.0826  0.1566 -1.0747
18508SOL     OW57530   0.488   6.967   5.711  0.0659  0.7822  0.0060
18508SOL    HW157531   0.494   7.019   5.630 -0.4731  1.7302  0.5622
18508SOL    HW257532   0.416   6.907   5.696  0.4373  0.4537 -0.4944
18509SOL     OW57533   9.918   4.867   8.272 -0.3532  0.2172  0.0566
18509SOL    HW157534   9.970   4.938   8.310  1.5072 -0.5434 -0.9677
18509SOL    HW257535   9.830   4.881   8.308 -0.1189  3.1450 -0.2574
18510SOL     OW57536   6.235   5.418   6.809 -0.1417  0.4237  0.1293
18510SOL    HW157537   6.251   5.330   6.842 -1.6943  0.0032 -0.1778
18510SOL    HW257538   6.174   5.406   6.736 -0.2739  1.7369 -0.0040
18511SOL     OW57539   6.442   0.045  10.418  0.0904 -0.1839 -0.3428
18511SOL    HW157540   6.440   0.009  10.507 -1.8739 -0.3586 -0.4261
18511SOL    HW257541   6.524   0.012  10.381 -0.0134 -1.7377  0.7265
18512SOL     OW57542  10.768   0.967   8.940 -0.2031  0.3685 -0.3398
18512SOL    HW157543  10.763   0.902   9.010  2.1649  0.6404  0.1731
18512SOL    HW257544  10.754   0.917   8.860 -2.1155 -0.0848  0.2126
18513SOL     OW57545   2.664   1.029   8.514  0.4326  0.4057 -0.2149
18513SOL    HW157546   2.643   0.994   8.428 -0.9311 -0.7125  0.5383
18513SOL    HW257547   2.732   1.095   8.497 -1.8760  2.4421 -2.5232
18514SOL     OW57548   2.598   8.929   9.788 -0.9456  0.2260 -0.3976
18514SOL    HW157549   2.667   8.941   9.722 -2.0239 -1.1247 -1.8401
18514SOL    HW257550   2.520   8.968   9.749 -1.3933  0.2985  0.5281
18515SOL     OW57551   6.236   0.310   4.051  0.4910 -0.5583  0.1797
18515SOL    HW157552   6.249   0.393   4.005  0.7423 -0.2451  0.8009
18515SOL    HW257553   6.269   0.326   4.140  2.7703 -2.0365 -0.3284
18516SOL     OW57554   7.608   3.034  10.062  0.1429  0.1830  0.3857
18516SOL    HW157555   7.583   2.943  10.043 -0.2835  0.4840 -0.5404
18516SOL    HW257556   7.690   3.047  10.016  0.0796  0.3463  0.3205
18517SOL     OW57557   6.422   1.066   9.402  0.1658 -0.6621  0.0288
18517SOL    HW157558   6.441   1.113   9.321 -0.9288  0.4408  0.3946
18517SOL    HW257559   6.331   1.039   9.395  0.2387 -1.1090  0.6310
18518SOL     OW57560   5.940   5.789   4.364 -0.0576  0.2656 -0.1015
18518SOL    HW157561   5.946   5.701   4.402  0.4449  0.8373  1.1945
18518SOL    HW257562   5.916   5.845   4.437 -1.5019  1.0708 -1.1382
18519SOL     OW57563   4.127   2.735   5.753 -0.1076 -0.1938 -0.5091
18519SOL    HW157564   4.159   2.668   5.813 -0.3281 -1.5229 -1.8003
18519SOL    HW257565   4.033   2.740   5.771  0.0170  0.2052  0.0122
18520SOL     OW57566   2.662   7.055   9.422  1.1037  0.4508 -0.1491
18520SOL    HW157567   2.625   7.001   9.352  1.5688  0.6541 -0.5632
18520SOL    HW257568   2.755   7.033   9.422  0.9278 -0.3573  1.1549
18521SOL     OW57569   4.732   9.102   5.857 -0.6285  0.6813 -0.5104
18521SOL    HW157570   4.795   9.170   5.836  0.6355  1.0707  3.6028
18521SOL    HW257571   4.648   9.147   5.861 -0.2271  1.4413 -0.4282
18522SOL     OW57572   5.722   2.863   7.866  0.4183  0.6560 -0.4478
18522SOL    HW157573   5.804   2.859   7.915  0.4764 -1.7436 -0.6122
18522SOL    HW257574   5.654   2.852   7.932  0.3967 -0.4678 -0.6451
18523SOL     OW57575   2.543   2.935   2.399 -0.2578 -0.1711 -0.2532
18523SOL    HW157576   2.589   2.969   2.322  1.7413 -1.3364  0.3324
18523SOL    HW257577   2.456   2.974   2.395  0.0219  0.3647 -2.6993
18524SOL     OW57578   9.865   9.990   9.930 -0.0902 -0.1735 -0.7792
18524SOL    HW157579   9.837   9.898   9.927 -0.6343 -0.0186 -0.5569
18524SOL    HW257580   9.884  10.012   9.839 -2.2832  0.1929 -1.2120
18525SOL     OW57581   0.991   6.262   2.122  0.2468 -0.2571 -0.3753
18525SOL    HW157582   1.049   6.245   2.197  1.2022 -0.8315 -1.2119
18525SOL    HW257583   0.999   6.356   2.107  0.2588 -0.1828  0.0898
18526SOL     OW57584   3.615   1.846   8.881  0.1552  0.3597 -0.2975
18526SOL    HW157585   3.532   1.889   8.902  1.7733  3.3955  0.5210
18526SOL    HW257586   3.658   1.834   8.965  1.4413  0.8806 -0.8503
18527SOL     OW57587   7.095   1.533   9.255 -0.5260 -0.1430  0.4253
18527SOL    HW157588   7.014   1.489   9.228 -0.6189 -0.7308  1.6162
18527SOL    HW257589   7.084   1.623   9.225 -0.0838 -0.9849 -2.5974
18528SOL     OW57590  10.082   5.744  11.040 -0.0526  0.1962  0.0681
18528SOL    HW157591  10.063   5.789  11.122  1.7374  0.7645  0.2133
18528SOL    HW257592  10.160   5.691  11.060 -1.2021 -1.8257 -0.5225
18529SOL     OW57593   1.584   2.109   9.527  0.1391 -0.4804  0.2794
18529SOL    HW157594   1.527   2.171   9.572  0.5612 -1.3549  2.0820
18529SOL    HW257595   1.575   2.133   9.434 -1.0098  1.1581  0.7533
18530SOL     OW57596   1.155   1.173   3.792 -0.6362  0.8983  0.0004
18530SOL    HW157597   1.100   1.148   3.718 -0.6368  0.1976  0.2379
18530SOL    HW257598   1.220   1.103   3.799 -0.5230  1.0560  0.5469
18531SOL     OW57599   1.566   7.745   6.667  0.3606 -0.3132  0.6523
18531SOL    HW157600   1.570   7.763   6.761  1.3373  0.5451  0.4642
18531SOL    HW257601   1.657   7.740   6.639  0.0902 -0.0412 -0.3476
18532SOL     OW57602   9.661   9.309   3.883 -0.0693  0.1332  0.1080
18532SOL    HW157603   9.649   9.349   3.969  0.3500 -1.0817  0.7566
18532SOL    HW257604   9.756   9.307   3.870 -0.1303  0.3784 -0.4320
18533SOL     OW57605   1.130   7.652   5.481  0.4262  0.1304 -0.2062
18533SOL    HW157606   1.093   7.737   5.505  0.8115 -0.4129  2.5833
18533SOL    HW257607   1.190   7.672   5.409  2.0484  2.6191  1.6351
18534SOL     OW57608   1.255   8.822   8.778 -0.8155 -0.1836 -0.2220
18534SOL    HW157609   1.160   8.820   8.793 -0.9019  2.8979  0.3489
18534SOL    HW257610   1.281   8.911   8.802  2.2338 -0.8977 -0.4887
18535SOL     OW57611   6.694   3.342  10.640 -0.0713 -0.2604  0.0344
18535SOL    HW157612   6.694   3.435  10.617 -0.7748 -0.5168 -1.0520
18535SOL    HW257613   6.677   3.341  10.734  3.2426  0.8330  0.7719
18536SOL     OW57614   0.635   0.423   6.095  0.4544 -0.2217 -0.1989
18536SOL    HW157615   0.640   0.486   6.023 -2.6244  2.2157  1.4631
18536SOL    HW257616   0.558   0.370   6.075 -1.8743  1.9871  2.1452
18537SOL     OW57617   2.323   3.589   9.568 -0.6090 -0.1939  0.4008
18537SOL    HW157618   2.242   3.637   9.553 -0.2520  0.5124  0.7114
18537SOL    HW257619   2.299   3.522   9.633 -1.1251 -0.5123 -0.1051
18538SOL     OW57620   3.514   9.621   7.699 -0.1428  0.0405  0.0710
18538SOL    HW157621   3.578   9.679   7.739  0.0418  0.5244 -0.8811
18538SOL    HW257622   3.566   9.546   7.667 -0.3815 -0.6768  1.3062
18539SOL     OW57623   2.309   1.432   5.400 -0.0753 -0.2664 -0.2961
18539SOL    HW157624   2.307   1.345   5.361  0.4758 -1.2938  1.8301
18539SOL    HW257625   2.402   1.457   5.400 -0.3461  0.9144 -2.0279
18540SOL     OW57626  10.581   1.276   2.426  0.4209  0.9432  0.1380
18540SOL    HW157627  10.676   1.283   2.413  0.5343 -0.5741  0.0125
18540SOL    HW257628  10.570   1.280   2.521  0.4292  2.7239  0.1086
18541SOL     OW57629   0.144  10.039   1.570 -0.0488 -0.2141  0.0175
18541SOL    HW157630   0.201  10.087   1.510 -0.3035  0.0988  0.0274
18541SOL    HW257631   0.121  10.102   1.638 -1.6590  0.1466 -0.8072
18542SOL     OW57632   7.199   8.164   6.080 -0.1978  0.4736  0.2659
18542SOL    HW157633   7.144   8.190   6.154 -0.9720  0.2752 -0.2331
18542SOL    HW257634   7.155   8.199   6.003  0.2273  0.0749 -0.1678
18543SOL     OW57635   9.071   9.686   6.670 -0.4474 -0.5393 -0.4181
18543SOL    HW157636   9.071   9.673   6.764  0.2952 -1.9543 -0.5824
18543SOL    HW257637   8.986   9.725   6.650 -0.7955 -0.6629  0.7770
18544SOL     OW57638   8.955   7.832   8.080  0.2595 -0.2619 -0.1822
18544SOL    HW157639   9.036   7.864   8.119 -0.3941 -0.2328  1.1995
18544SOL    HW257640   8.957   7.738   8.095  0.4677 -0.4001 -1.0043
18545SOL     OW57641   9.723   4.454   8.580 -0.8953 -0.2476 -0.1970
18545SOL    HW157642   9.672   4.497   8.648 -1.1766  0.3792 -0.7828
18545SOL    HW257643   9.727   4.519   8.509 -2.0217 -1.4620 -1.4466
18546SOL     OW57644   7.633   4.125   6.553 -0.1105  0.0529 -0.2265
18546SOL    HW157645   7.540   4.150   6.554 -0.0316  0.3358  1.1169
18546SOL    HW257646   7.666   4.164   6.472 -1.2360 -0.3711 -0.9253
18547SOL     OW57647   8.593   5.140   2.902  0.4925 -0.5426 -0.5363
18547SOL    HW157648   8.643   5.203   2.850  0.3072 -0.2939 -0.4149
18547SOL    HW257649   8.559   5.191   2.976  0.5552 -0.8413 -0.3012
18548SOL     OW57650   4.016   6.957   2.859  0.3243 -0.0019 -0.2877
18548SOL    HW157651   4.020   6.996   2.772  1.8006  0.6868  0.0684
18548SOL    HW257652   3.992   6.865   2.843 -1.6166  0.6098 -1.2364
18549SOL     OW57653   4.295   9.431   1.358  0.0732 -0.2765  0.4908
18549SOL    HW157654   4.296   9.344   1.398  0.2362  0.6007  2.5383
18549SOL    HW257655   4.301   9.491   1.432 -1.2389  1.5208 -0.7709
18550SOL     OW57656   5.904   5.571  10.620  0.0507 -0.1353  0.0360
18550SOL    HW157657   5.809   5.562  10.631  0.2232  0.7612  3.2509
18550SOL    HW257658   5.925   5.653  10.665  2.3700 -0.2262 -0.7637
18551SOL     OW57659   1.954   9.414   5.805 -1.1210 -0.2701 -0.7035
18551SOL    HW157660   1.967   9.493   5.753 -1.4208 -0.9728 -1.8812
18551SOL    HW257661   1.866   9.385   5.782 -1.0077 -0.9487 -0.2957
18552SOL     OW57662   0.630   8.152   9.055 -0.3812  0.4985 -0.1350
18552SOL    HW157663   0.596   8.095   8.986  3.2507 -0.1975 -1.6071
18552SOL    HW257664   0.639   8.095   9.131  0.9422 -0.3452 -0.8768
18553SOL     OW57665  10.531   3.870   1.103  0.1325  0.5792  0.1359
18553SOL    HW157666  10.449   3.830   1.132 -1.5910  2.8062 -1.3517
18553SOL    HW257667  10.553   3.932   1.172  0.2119  0.4634  0.2158
18554SOL     OW57668   7.983   0.560  10.983  0.3533 -0.1554  0.7903
18554SOL    HW157669   7.986   0.611  11.064 -0.6025 -0.3954  0.9880
18554SOL    HW257670   8.030   0.613  10.919 -3.2115  2.5350  0.1200
18555SOL     OW57671   9.973   9.622   6.613 -0.0861 -0.3085  0.7296
18555SOL    HW157672   9.948   9.618   6.521 -1.2414  1.4983  0.9260
18555SOL    HW257673  10.000   9.533   6.635  1.9918 -0.4069 -1.8225
18556SOL     OW57674   2.848  10.297   7.243 -0.1779  0.0971 -0.3121
18556SOL    HW157675   2.932  10.340   7.252 -0.4753  0.6620 -0.2081
18556SOL    HW257676   2.785  10.368   7.230 -1.0411 -0.0784  2.3489
18557SOL     OW57677   8.186   1.736   9.269 -0.0315  0.0481  1.2075
18557SOL    HW157678   8.196   1.815   9.217  0.2286  0.3523  1.7145
18557SOL    HW257679   8.173   1.666   9.204  0.8979  0.3248  0.7114
18558SOL     OW57680   3.136   4.960   5.254 -0.3821  0.7045  0.7236
18558SOL    HW157681   3.166   4.976   5.344  3.9959 -0.3077 -0.3371
18558SOL    HW257682   3.145   5.045   5.210 -2.5917  1.2180  1.1098
18559SOL     OW57683   6.776   6.687   3.846 -0.1021  0.3729  0.3227
18559SOL    HW157684   6.799   6.723   3.931  1.1082  0.4280 -0.0033
18559SOL    HW257685   6.832   6.610   3.837 -0.8221 -0.1133 -0.0696
18560SOL     OW57686   0.922   8.087   1.877 -0.2216 -0.5949 -0.5600
18560SOL    HW157687   0.860   8.073   1.948 -1.1206 -0.4421 -1.2872
18560SOL    HW257688   1.001   8.119   1.920 -1.7576  2.6175  0.1707
18561SOL     OW57689   9.502   1.045  10.491 -0.3127 -0.1380 -0.4255
18561SOL    HW157690   9.417   1.067  10.529 -0.3388 -2.2170  0.9019
18561SOL    HW257691   9.561   1.039  10.566  0.3751 -1.3315 -1.0338
18562SOL     OW57692   2.275   0.357   4.450  0.3378  0.2231  0.3080
18562SOL    HW157693   2.249   0.448   4.461  0.8107  0.6051 -1.4055
18562SOL    HW257694   2.349   0.360   4.389  0.2062 -1.3219  0.0182
18563SOL     OW57695   1.108   3.085   1.445 -0.3477 -0.2229  0.4131
18563SOL    HW157696   1.019   3.119   1.434 -0.2590 -0.4922 -1.5055
18563SOL    HW257697   1.145   3.138   1.516 -0.9127  2.2391 -1.0066
18564SOL     OW57698  10.591   9.656   8.104 -0.0400 -0.7343  0.0287
18564SOL    HW157699  10.558   9.723   8.164 -0.7660 -2.0071  1.1119
18564SOL    HW257700  10.574   9.692   8.017 -1.1696  0.1367  0.5758
18565SOL     OW57701   5.162   4.791  10.298  0.2528  0.7565  0.7673
18565SOL    HW157702   5.131   4.706  10.329  1.8372  0.3094  1.2119
18565SOL    HW257703   5.158   4.847  10.375  0.3210  0.7611  0.7678
18566SOL     OW57704   4.161   1.429   2.501 -0.5950 -0.2031 -0.0333
18566SOL    HW157705   4.151   1.444   2.407 -0.3417  0.7746  0.0838
18566SOL    HW257706   4.171   1.334   2.509 -0.5083 -0.2885 -1.0022
18567SOL     OW57707   6.360   7.744  10.028  0.1701  0.5022 -0.0063
18567SOL    HW157708   6.398   7.658  10.012 -2.4057 -0.7136 -0.0021
18567SOL    HW257709   6.272   7.740   9.990 -0.8066  2.3912  1.8320
18568SOL     OW57710   5.388  10.377   1.984  0.1049  0.3735 -0.2940
18568SOL    HW157711   5.345  10.426   1.914 -1.3004  1.1430  1.0335
18568SOL    HW257712   5.465  10.428   2.006 -0.0958  0.7608 -0.4809
18569SOL     OW57713   8.092   7.898   8.280  0.0981  0.5029 -0.1413
18569SOL    HW157714   8.155   7.839   8.239 -1.5273 -2.1770  0.9399
18569SOL    HW257715   8.016   7.895   8.223  0.4205  2.7290 -0.7783
18570SOL     OW57716  10.138   6.161   4.950  0.4654  0.2504  0.5742
18570SOL    HW157717  10.064   6.101   4.953 -0.7446  1.6328  0.0242
18570SOL    HW257718  10.208   6.112   4.907 -0.8068 -0.4504 -0.7862
18571SOL     OW57719   5.568   2.204   6.386  0.0799  0.4587  0.3289
18571SOL    HW157720   5.489   2.221   6.334  0.1883  0.8839  0.3001
18571SOL    HW257721   5.551   2.247   6.470 -0.2082 -0.4590  0.7506
18572SOL     OW57722   1.341   7.169  11.079 -0.4601  0.3055 -0.6186
18572SOL    HW157723   1.265   7.113  11.066 -1.5668  2.0157 -2.0596
18572SOL    HW257724   1.319   7.250  11.032  3.2295  0.0502 -3.1839
18573SOL     OW57725   5.329   2.537   9.330 -0.5938 -0.0253  0.7836
18573SOL    HW157726   5.266   2.481   9.376 -0.2173 -0.4744  0.7630
18573SOL    HW257727   5.404   2.480   9.314 -0.1341  0.5404  0.9120
18574SOL     OW57728   6.460   7.084   4.119 -0.9100  0.2496 -0.1113
18574SOL    HW157729   6.530   7.058   4.058 -1.6209 -1.4747 -0.2452
18574SOL    HW257730   6.487   7.046   4.203 -1.4715 -0.0552 -0.0685
18575SOL     OW57731   9.431   2.864   9.704 -0.6096 -0.1255  0.0412
18575SOL    HW157732   9.487   2.880   9.780 -2.2227 -0.4019  1.3277
18575SOL    HW257733   9.407   2.952   9.673  0.7488  0.0049 -0.7296
18576SOL     OW57734   6.740  10.070   5.565 -0.0027  0.2356 -0.4826
18576SOL    HW157735   6.670  10.031   5.513 -0.5521 -0.9631  1.0890
18576SOL    HW257736   6.815  10.012   5.553  0.0036  0.2010 -0.2760
18577SOL     OW57737   5.329   0.691   4.345  0.3255  0.7559  0.9285
18577SOL    HW157738   5.413   0.669   4.306 -0.7530 -1.9920 -0.1296
18577SOL    HW257739   5.337   0.663   4.436  0.9372  1.6871  1.1726
18578SOL     OW57740   7.666   7.036   4.292 -0.0982  0.1873  0.0917
18578SOL    HW157741   7.708   6.951   4.282  1.0773  0.6977  0.5022
18578SOL    HW257742   7.579   7.017   4.326  0.4778 -0.7952  1.0433
18579SOL     OW57743   0.409   0.632   3.462 -0.2971  0.2996 -0.0426
18579SOL    HW157744   0.329   0.645   3.411 -1.2522  1.7411  1.6960
18579SOL    HW257745   0.479   0.655   3.401 -1.2611  0.1635 -1.2630
18580SOL     OW57746   7.532   7.309   2.706  0.1513 -0.2956  0.0003
18580SOL    HW157747   7.582   7.295   2.786  0.8149  1.2341 -0.1016
18580SOL    HW257748   7.520   7.404   2.702  2.0988 -0.0440 -2.8376
18581SOL     OW57749   4.866   1.544   9.648  0.8572 -0.1973 -0.3001
18581SOL    HW157750   4.929   1.486   9.692  3.1445  1.1446 -1.5854
18581SOL    HW257751   4.891   1.539   9.556  0.7349  2.2929 -0.5331
18582SOL     OW57752   1.171   2.982   6.796 -0.2173  0.1728 -0.3360
18582SOL    HW157753   1.253   2.988   6.747 -0.5900 -0.3997 -1.0629
18582SOL    HW257754   1.157   3.069   6.831  0.6441  0.3055 -0.2991
18583SOL     OW57755   4.681   5.571   3.362  0.1116  0.1677  0.7337
18583SOL    HW157756   4.743   5.527   3.303  0.9282  0.0179  1.6693
18583SOL    HW257757   4.634   5.499   3.404 -0.7558  0.2822 -0.0077
18584SOL     OW57758   7.961   8.332   1.269 -0.4030  0.5445 -0.3897
18584SOL    HW157759   8.003   8.418   1.258  1.4189 -0.5682 -4.3889
18584SOL    HW257760   7.874   8.343   1.232 -1.6810  1.4367  2.5947
18585SOL     OW57761   8.438   8.355   5.638  0.0837  0.8268  0.0332
18585SOL    HW157762   8.407   8.438   5.602  1.5904  0.9090 -1.1824
18585SOL    HW257763   8.387   8.288   5.592  0.4490  1.0199 -0.6752
18586SOL     OW57764   1.780   9.163  10.511  0.1868  0.2799 -0.0069
18586SOL    HW157765   1.739   9.104  10.574  2.7447 -0.3939  1.1442
18586SOL    HW257766   1.812   9.236  10.564  0.6271  0.6910 -0.8224
18587SOL     OW57767   8.664   3.278   4.150  0.5404  0.8893  0.3041
18587SOL    HW157768   8.728   3.219   4.110  0.4482  0.2598  1.0587
18587SOL    HW257769   8.715   3.327   4.215  0.2109  0.1633  1.1291
18588SOL     OW57770   5.970   9.420  10.469 -0.5991 -0.2459 -0.3085
18588SOL    HW157771   5.996   9.510  10.490 -2.7644  0.2020  0.7917
18588SOL    HW257772   6.048   9.368  10.485  0.0821  1.1614  1.3262
18589SOL     OW57773   2.103   8.487   6.223  0.6067 -0.2485 -0.4139
18589SOL    HW157774   2.176   8.458   6.168 -0.1111 -2.1088 -0.4452
18589SOL    HW257775   2.076   8.571   6.185  2.7415  0.5441 -0.3512
18590SOL     OW57776   8.632   8.487   7.455 -0.1959 -0.1719 -0.2329
18590SOL    HW157777   8.716   8.461   7.493  0.4325  0.6832 -0.9706
18590SOL    HW257778   8.649   8.491   7.360 -1.5295 -1.5732 -0.5600
18591SOL     OW57779   7.971   3.433   9.294 -0.0850 -0.4511 -0.2926
18591SOL    HW157780   7.993   3.352   9.339 -2.1968 -0.5872  0.6261
18591SOL    HW257781   7.923   3.484   9.360  1.3451  1.6560 -0.7744
18592SOL     OW57782   8.451   8.769   5.261 -0.3217 -0.0352 -0.3322
18592SOL    HW157783   8.453   8.755   5.356 -1.1087 -0.0782 -0.3158
18592SOL    HW257784   8.485   8.687   5.224 -1.2868 -0.5542 -0.1177
18593SOL     OW57785   1.395   3.828   0.749  0.3281 -0.3700  0.4230
18593SOL    HW157786   1.459   3.867   0.808 -0.4359  1.5665  0.0406
18593SOL    HW257787   1.342   3.902   0.719 -2.3880 -1.9086  1.0683
18594SOL     OW57788   7.526  10.837   8.843 -0.4508 -0.4150 -0.1018
18594SOL    HW157789   7.583  10.780   8.894  1.8795  0.4832 -1.5233
18594SOL    HW257790   7.520  10.917   8.895  0.5982 -0.0826 -0.4716
18595SOL     OW57791   8.999   3.013   8.931 -0.0142  0.4872 -0.6253
18595SOL    HW157792   8.982   2.919   8.944  0.0422  0.7697  1.8990
18595SOL    HW257793   9.093   3.018   8.915  0.3535  0.2287  1.2192
18596SOL     OW57794   0.388  10.462   0.798 -1.1323 -0.2334  0.0555
18596SOL    HW157795   0.397  10.503   0.884  0.8823 -0.2689 -0.0934
18596SOL    HW257796   0.318  10.398   0.809 -1.7843  0.6535  1.3012
18597SOL     OW57797   6.534   6.951  10.325 -0.0798  0.5103 -0.0916
18597SOL    HW157798   6.603   7.017  10.332  0.4720 -0.0522 -0.1627
18597SOL    HW257799   6.524   6.917  10.414  0.8510 -0.5161 -0.3556
18598SOL     OW57800  10.694   8.845   4.345 -0.4942  0.1836 -0.5076
18598SOL    HW157801  10.725   8.843   4.254  2.0338  0.0386  0.2808
18598SOL    HW257802  10.763   8.801   4.395 -2.0920 -0.2442  1.4322
18599SOL     OW57803   6.460   1.181   9.161  0.1159  0.2870 -0.5767
18599SOL    HW157804   6.485   1.099   9.117  0.8748  0.0715  0.2365
18599SOL    HW257805   6.475   1.249   9.095 -1.3561 -0.2798 -1.5731
18600SOL     OW57806   9.669   9.899  10.697 -0.0518  0.4991 -0.1946
18600SOL    HW157807   9.725   9.823  10.711  0.2253  0.4709 -1.3585
18600SOL    HW257808   9.690   9.958  10.769  0.5620 -0.0352  0.0744
18601SOL     OW57809   9.408   1.035   5.790 -0.1165 -0.3713  0.3402
18601SOL    HW157810   9.320   1.065   5.768 -0.1488  0.5884  1.6358
18601SOL    HW257811   9.459   1.047   5.709 -1.2155 -1.1833 -0.4952
18602SOL     OW57812  10.778   2.127   0.393  0.4520  0.2050  0.0627
18602SOL    HW157813  10.830   2.121   0.314 -0.2334 -0.0446 -0.3810
18602SOL    HW257814  10.714   2.196   0.375 -0.6881 -0.8864 -0.2053
18603SOL     OW57815   1.280   9.354   9.971 -0.8849 -0.3100 -0.8544
18603SOL    HW157816   1.315   9.356   9.882  0.7162 -2.7472 -0.3712
18603SOL    HW257817   1.270   9.261   9.991 -1.8444  0.1919  1.2988
18604SOL     OW57818   3.873   7.370   7.596  0.1858 -0.3556 -0.7538
18604SOL    HW157819   3.849   7.301   7.534 -0.2895  0.7105 -1.7866
18604SOL    HW257820   3.901   7.443   7.541  1.6429 -0.0507  0.3363
18605SOL     OW57821  10.740   5.501   4.296 -0.7929  0.7368 -0.3752
18605SOL    HW157822  10.660   5.452   4.315 -0.8994  0.5833 -1.2151
18605SOL    HW257823  10.788   5.502   4.379 -0.4347 -1.4485 -0.5109
18606SOL     OW57824   7.714   8.092   8.761 -0.0215  0.3950 -0.3747
18606SOL    HW157825   7.794   8.041   8.775 -0.0180 -0.1648 -2.2569
18606SOL    HW257826   7.645   8.039   8.801  0.2863 -0.0301 -0.3999
18607SOL     OW57827   8.614   4.953   8.832  0.4727  0.0064 -0.0040
18607SOL    HW157828   8.672   4.901   8.887  0.5503  1.0975  0.9884
18607SOL    HW257829   8.539   4.974   8.888  0.8087  1.5962 -0.1034
18608SOL     OW57830   5.470  10.886   4.702 -0.1073 -0.1849  0.2877
18608SOL    HW157831   5.384  10.848   4.721 -0.2691 -0.0984 -0.2601
18608SOL    HW257832   5.459  10.980   4.720 -0.3930 -0.0282 -0.6410
18609SOL     OW57833   6.578   5.446   2.503 -0.1461  0.0973  0.4146
18609SOL    HW157834   6.556   5.392   2.579 -0.2498 -0.4451 -0.0043
18609SOL    HW257835   6.590   5.385   2.431 -4.3796  0.7318 -1.1504
18610SOL     OW57836   4.828  10.457   4.348  0.1606  0.2136 -0.0054
18610SOL    HW157837   4.884  10.534   4.359  0.5276 -0.1605  0.8443
18610SOL    HW257838   4.778  10.451   4.430 -0.5900  0.1199 -0.4627
18611SOL     OW57839   6.634   8.497   2.557  1.0993  0.2080 -0.3681
18611SOL    HW157840   6.725   8.526   2.557  1.4924 -0.8042  2.1610
18611SOL    HW257841   6.634   8.418   2.503  2.2063 -0.9920  1.3021
18612SOL     OW57842   2.701  11.099   7.605 -0.5249  0.2598 -0.0028
18612SOL    HW157843   2.659  11.185   7.599 -1.3039  0.1005  2.2560
18612SOL    HW257844   2.642  11.040   7.557 -0.2672  0.8591 -1.0882
18613SOL     OW57845   8.139   0.509   4.367 -0.3187  0.4319  0.7146
18613SOL    HW157846   8.045   0.494   4.379 -0.2430  0.8407  1.8601
18613SOL    HW257847   8.144   0.582   4.306 -0.7502  0.7253  1.0288
18614SOL     OW57848   5.395   0.502   8.287 -0.1772 -0.1354 -0.1036
18614SOL    HW157849   5.444   0.485   8.206  0.6081 -1.1395  0.5540
18614SOL    HW257850   5.414   0.427   8.342 -0.1600  0.8351  1.2683
18615SOL     OW57851   2.753   6.400   1.775 -0.4349 -0.1837 -0.1701
18615SOL    HW157852   2.761   6.417   1.869  0.0352 -1.3656  0.0214
18615SOL    HW257853   2.694   6.468   1.743  0.6582  1.2211  0.6887
18616SOL     OW57854   2.203   1.741   3.745 -0.0688  0.1428 -0.1163
18616SOL    HW157855   2.261   1.728   3.670 -0.8337 -0.7346 -0.5814
18616SOL    HW257856   2.236   1.820   3.787  0.7223  0.3381 -1.0543
18617SOL     OW57857   4.070   2.668   9.397  0.5006  0.3956 -0.2357
18617SOL    HW157858   4.115   2.669   9.313  2.4299 -3.2370  0.5099
18617SOL    HW257859   4.138   2.687   9.462  0.0823 -0.9713  0.6743
18618SOL     OW57860  11.036  10.077   4.203 -0.5016 -0.5192 -0.2738
18618SOL    HW157861  11.108  10.137   4.222 -1.0160 -0.5200  2.0404
18618SOL    HW257862  11.046  10.007   4.268 -2.1894 -0.8538 -0.3334
18619SOL     OW57863   3.920   9.766   0.868 -1.1498 -0.5769 -0.0486
18619SOL    HW157864   3.904   9.860   0.876  0.5297 -0.2532 -0.1616
18619SOL    HW257865   3.841   9.725   0.904 -2.1416  0.8561 -0.5058
18620SOL     OW57866   8.690   1.650   5.943 -0.1977  0.4410  0.3663
18620SOL    HW157867   8.662   1.733   5.903  0.8392  1.0417  0.8425
18620SOL    HW257868   8.691   1.587   5.871 -2.0372  0.5560  0.1884
18621SOL     OW57869  10.332   0.510   4.206  0.0441 -0.1201  0.6030
18621SOL    HW157870  10.273   0.496   4.280 -1.0741 -0.9653 -0.4126
18621SOL    HW257871  10.323   0.603   4.185  1.6833  0.5641  2.5571
18622SOL     OW57872   6.005  10.834   8.268 -0.0118  0.2259  0.3208
18622SOL    HW157873   5.967  10.912   8.228  2.1015  0.9129 -0.4820
18622SOL    HW257874   6.068  10.802   8.203  0.4241 -1.1298  1.3672
18623SOL     OW57875   6.158   3.069   1.156  0.9528 -0.0300  0.3666
18623SOL    HW157876   6.246   3.103   1.141  1.3385  0.0314  2.4732
18623SOL    HW257877   6.131   3.105   1.240 -0.6656 -0.9073  0.2827
18624SOL     OW57878   0.087  10.507   4.555  0.6067 -0.5151  0.4246
18624SOL    HW157879  -0.007  10.504   4.533  0.1908 -0.0152  2.0333
18624SOL    HW257880   0.129  10.459   4.483 -0.8441 -0.4919 -0.4929
18625SOL     OW57881   2.067   7.411   0.789  0.8437  0.5878  0.1122
18625SOL    HW157882   2.036   7.422   0.879 -1.9372 -1.8059 -0.3936
18625SOL    HW257883   2.098   7.321   0.785  1.4790  0.8364 -1.2084
18626SOL     OW57884  10.211   1.159   9.627  0.0576 -0.1854 -0.2652
18626SOL    HW157885  10.176   1.241   9.661 -2.9829 -1.5969  0.3733
18626SOL    HW257886  10.254   1.118   9.702 -1.4880 -0.6620  0.4100
18627SOL     OW57887   9.983   9.877   4.145  1.2341 -0.2019 -0.1397
18627SOL    HW157888   9.990   9.972   4.134 -0.1769 -0.2315 -1.6786
18627SOL    HW257889   9.922   9.866   4.218  0.6202  0.1119 -0.5891
18628SOL     OW57890   0.491   9.780   1.941 -0.1236  0.2847  0.6399
18628SOL    HW157891   0.490   9.819   1.854 -2.6550 -1.2360 -0.0966
18628SOL    HW257892   0.529   9.693   1.928 -0.3631  0.1098  1.0945
18629SOL     OW57893   8.260   2.665   0.339 -0.5168  0.1591  0.0274
18629SOL    HW157894   8.194   2.704   0.281  0.3052  1.1514 -0.2674
18629SOL    HW257895   8.289   2.737   0.395  3.0507  0.8167 -2.3450
18630SOL     OW57896   4.323   5.813   5.759  0.3158 -0.6068 -0.1417
18630SOL    HW157897   4.359   5.852   5.679  1.3249 -0.1826  0.5038
18630SOL    HW257898   4.235   5.784   5.734 -0.2243  1.4732 -0.8283
18631SOL     OW57899   4.136   6.875   5.773 -0.8698  0.3508  0.1715
18631SOL    HW157900   4.152   6.911   5.860 -0.7108 -1.0907  0.7553
18631SOL    HW257901   4.124   6.781   5.787 -0.6986  0.0706 -1.3839
18632SOL     OW57902   6.441   8.726   4.040 -0.0371  0.6046 -0.3607
18632SOL    HW157903   6.484   8.797   4.089 -1.1213  0.9462  0.1393
18632SOL    HW257904   6.350   8.755   4.031 -0.4763 -0.6704 -0.2596
18633SOL     OW57905   4.594   6.268   4.638 -0.3022 -0.3059 -0.4962
18633SOL    HW157906   4.687   6.270   4.660 -0.6938 -0.0582  1.3031
18633SOL    HW257907   4.588   6.210   4.562  1.1315 -1.6704  0.3713
18634SOL     OW57908   0.350   3.430   6.860 -0.3846 -0.0872 -0.2877
18634SOL    HW157909   0.281   3.428   6.794 -0.7792 -2.2051  0.1251
18634SOL    HW257910   0.317   3.376   6.931  0.5104  1.2118  1.2005
18635SOL     OW57911   6.896  10.761  10.616 -0.2633 -0.3857 -0.7323
18635SOL    HW157912   6.906  10.771  10.711 -1.7420  1.0653 -0.6866
18635SOL    HW257913   6.980  10.789  10.580  0.9703 -2.6698  0.1845
18636SOL     OW57914   2.007   9.474   6.900 -0.3481 -0.2838  0.1923
18636SOL    HW157915   2.102   9.466   6.897 -0.3974 -0.6596 -0.5634
18636SOL    HW257916   1.974   9.386   6.884 -0.8270 -0.2512  0.9355
18637SOL     OW57917   3.362   7.962   5.179  0.6227 -0.1500 -1.3529
18637SOL    HW157918   3.314   8.037   5.145 -0.1579  0.1520  0.3220
18637SOL    HW257919   3.294   7.906   5.218  1.6194  0.8341  2.1056
18638SOL     OW57920   1.586   9.226   9.979  0.1481 -0.7198  0.9015
18638SOL    HW157921   1.629   9.209  10.063  2.0502  1.2373  0.4133
18638SOL    HW257922   1.618   9.312   9.953 -0.4620 -1.2220 -1.7743
18639SOL     OW57923   9.460   5.748  10.448 -0.7814 -0.3638 -0.0538
18639SOL    HW157924   9.431   5.823  10.499  0.6731 -0.8485  1.5531
18639SOL    HW257925   9.535   5.781  10.397 -0.0540 -0.7312  0.7572
18640SOL     OW57926   8.523   3.299   3.630  0.6533 -1.1479  0.0387
18640SOL    HW157927   8.506   3.206   3.618 -0.3917 -1.2457  1.8527
18640SOL    HW257928   8.436   3.340   3.625  1.2017 -0.1109 -1.7175
18641SOL     OW57929   6.070   7.848  10.906  0.3144 -0.0061 -0.0316
18641SOL    HW157930   6.000   7.796  10.867  1.6286 -1.8231 -0.0526
18641SOL    HW257931   6.056   7.841  11.000 -0.1450  0.5472 -0.0495
18642SOL     OW57932   5.665   2.377   2.099  0.0702  0.3477  0.3288
18642SOL    HW157933   5.621   2.293   2.084  0.2796  0.4016 -0.6508
18642SOL    HW257934   5.595   2.436   2.126 -0.1215 -0.0749  0.7709
18643SOL     OW57935   6.019   6.429   4.454  0.5156  0.5078 -0.1905
18643SOL    HW157936   6.000   6.514   4.415 -1.8173 -0.0310 -0.3660
18643SOL    HW257937   6.065   6.451   4.536 -1.1538  2.0415  0.4110
18644SOL     OW57938   9.622   3.368  10.903  0.3795 -1.2228 -0.1749
18644SOL    HW157939   9.568   3.434  10.947  1.1516  0.4263 -1.6005
18644SOL    HW257940   9.566   3.291  10.898 -0.8779 -0.4155  0.7570
18645SOL     OW57941  10.482   7.017   9.072 -0.0678 -0.1039 -0.3610
18645SOL    HW157942  10.537   7.095   9.065 -0.5113  0.2011 -0.4765
18645SOL    HW257943  10.440   7.010   8.986  1.7217 -1.7848 -1.1707
18646SOL     OW57944   0.235   9.754   6.389 -0.3690 -0.6019  0.8864
18646SOL    HW157945   0.271   9.677   6.343 -0.4949 -0.4266  0.4891
18646SOL    HW257946   0.141   9.749   6.373 -0.3788 -0.3714  0.8725
18647SOL     OW57947  11.001   6.698   7.781  0.0405 -0.2161 -0.7095
18647SOL    HW157948  11.093   6.692   7.756  0.0535 -2.6872 -0.3546
18647SOL    HW257949  11.002   6.686   7.876 -0.4267  3.7610 -0.0205
18648SOL     OW57950   1.161   8.120   2.785  0.1597 -0.8498  0.0580
18648SOL    HW157951   1.232   8.171   2.747 -0.0004 -0.8847 -0.2911
18648SOL    HW257952   1.186   8.029   2.772 -0.5330 -0.8761 -1.1990
18649SOL     OW57953   9.067   3.956   7.182 -0.0319  0.6080 -0.2112
18649SOL    HW157954   9.153   3.971   7.221 -0.5821  0.8401  0.9717
18649SOL    HW257955   9.044   3.867   7.210  1.3974 -1.0012 -3.6619
18650SOL     OW57956   4.330   6.410   4.157  0.0616 -0.5272  0.5059
18650SOL    HW157957   4.411   6.381   4.116  1.9419  0.6888  3.0799
18650SOL    HW257958   4.349   6.499   4.188 -1.7793 -0.6902  2.3453
18651SOL     OW57959   7.158   8.061   0.920 -0.6008 -0.2625 -0.9691
18651SOL    HW157960   7.114   7.983   0.886  3.7832 -2.9125 -1.3015
18651SOL    HW257961   7.134   8.063   1.013 -1.8760 -1.1513 -1.2461
18652SOL     OW57962   3.042   9.304   8.931 -0.6246 -0.4275 -0.0295
18652SOL    HW157963   2.981   9.305   9.004 -1.4164 -2.0388 -0.6052
18652SOL    HW257964   3.076   9.393   8.926 -0.8186 -0.1968  2.0422
18653SOL     OW57965   1.053   5.596   5.169  0.2124 -0.1290  1.0220
18653SOL    HW157966   0.975   5.641   5.136  0.8839 -0.0493 -0.5463
18653SOL    HW257967   1.104   5.574   5.091  1.5511 -0.5928  1.9694
18654SOL     OW57968   8.964   1.872  10.190 -0.1118  0.4246  0.4109
18654SOL    HW157969   8.925   1.880  10.103 -0.0465  0.1970  0.3624
18654SOL    HW257970   9.049   1.830  10.176 -1.2645 -2.2549  0.8634
18655SOL     OW57971   1.018   6.964   3.258 -0.8604 -0.2062  0.6100
18655SOL    HW157972   1.112   6.977   3.253 -0.8608 -0.3907  0.0366
18655SOL    HW257973   0.985   6.989   3.172 -1.4557  0.7588  1.0871
18656SOL     OW57974  10.752   8.290   5.467  0.0745  0.4162 -0.1354
18656SOL    HW157975  10.804   8.268   5.389 -0.1838 -1.4710  0.1593
18656SOL    HW257976  10.671   8.328   5.432 -0.8765 -2.1544 -0.9995
18657SOL     OW57977   7.317   0.158   0.511 -0.2678 -0.3018 -0.3262
18657SOL    HW157978   7.385   0.124   0.453  0.8836  0.9288  0.2460
18657SOL    HW257979   7.254   0.086   0.519  0.5617 -1.1962 -1.4885
18658SOL     OW57980   1.419   5.937   1.378 -0.6249  0.3868  0.0727
18658SOL    HW157981   1.400   6.024   1.412 -2.1331 -0.1665  0.7329
18658SOL    HW257982   1.480   5.952   1.306  1.4751  1.7420  2.0004
18659SOL     OW57983   5.716   5.511   8.983 -0.2284  0.4984  0.7780
18659SOL    HW157984   5.683   5.423   8.999 -0.0408  0.2241 -0.2334
18659SOL    HW257985   5.770   5.502   8.904  0.3993  1.3761  1.0866
18660SOL     OW57986   5.982   0.981   2.685  0.2590 -0.0077 -0.0681
18660SOL    HW157987   6.052   0.916   2.694  2.7926  2.6970  1.5867
18660SOL    HW257988   5.914   0.951   2.745  1.7641 -0.7293  1.3853
18661SOL     OW57989   4.687   4.145   5.444 -0.2864  0.0587 -0.0424
18661SOL    HW157990   4.760   4.177   5.497 -2.1237  0.1171  2.6507
18661SOL    HW257991   4.643   4.224   5.415  0.7397  0.0267 -1.7940
18662SOL     OW57992   9.325   8.428   3.792 -0.9593  0.2793  0.2503
18662SOL    HW157993   9.288   8.482   3.722 -3.7832 -0.4761  1.0345
18662SOL    HW257994   9.359   8.491   3.855 -0.1151  0.9994 -0.8760
18663SOL     OW57995   7.048   0.287  10.070 -0.3067 -0.8426 -1.1991
18663SOL    HW157996   7.132   0.241  10.059  0.7077 -0.0023  1.9700
18663SOL    HW257997   7.059   0.369  10.023  1.0789 -0.3512 -0.0949
18664SOL     OW57998  10.382   7.104   1.825  0.3378 -0.0256  0.4346
18664SOL    HW157999  10.431   7.023   1.815 -0.2796 -0.6977  2.3263
18664SOL    HW258000  10.444   7.165   1.864  0.7988  0.4503 -0.9779
18665SOL     OW58001   6.964   9.392   6.030 -0.4351 -0.3837  0.1169
18665SOL    HW158002   6.904   9.408   5.957 -1.8741 -0.1488  1.3040
18665SOL    HW258003   6.957   9.471   6.084 -1.5953 -1.6641  1.9606
18666SOL     OW58004   3.216   7.500   1.446  0.8402  0.0290 -0.0230
18666SOL    HW158005   3.234   7.502   1.352  0.8644  0.1560 -0.0167
18666SOL    HW258006   3.150   7.432   1.457 -0.8548  1.5281 -0.4317
18667SOL     OW58007   3.182   7.126   4.094  0.6032 -0.0772 -0.3767
18667SOL    HW158008   3.244   7.053   4.093  1.9726  0.6163  4.5098
18667SOL    HW258009   3.235   7.202   4.119 -1.6916  1.2172  0.8795
18668SOL     OW58010   2.355   1.007   6.391 -0.4352  0.1525  0.7714
18668SOL    HW158011   2.373   0.913   6.404 -0.3406 -0.1945 -1.4627
18668SOL    HW258012   2.420   1.051   6.445  0.3016 -1.0902  0.9560
18669SOL     OW58013   7.782   9.976   5.823 -0.2536  0.4330  0.1011
18669SOL    HW158014   7.724   9.901   5.837 -0.4495  0.4321 -0.6874
18669SOL    HW258015   7.760  10.007   5.735  2.3393 -0.8016 -1.0950
18670SOL     OW58016  10.225  10.153   3.997 -0.2792 -0.1817  0.0742
18670SOL    HW158017  10.259  10.239   3.974  1.1817 -0.4398  1.0951
18670SOL    HW258018  10.289  10.091   3.962 -1.2332 -0.8735 -0.5193
18671SOL     OW58019   3.972   0.028   6.421  0.0022  0.7186 -0.0020
18671SOL    HW158020   4.026   0.013   6.498  0.1155  1.9758  0.1763
18671SOL    HW258021   4.021  -0.012   6.349 -0.7267 -1.6604  0.7266
18672SOL     OW58022   4.494  11.000   9.772  0.1294 -0.1107  0.2258
18672SOL    HW158023   4.504  11.089   9.737  0.9743  0.6709  2.2533
18672SOL    HW258024   4.580  10.960   9.761  0.1106 -0.2175  0.4632
18673SOL     OW58025   8.106   3.870   7.517  0.3086  0.2249 -0.2275
18673SOL    HW158026   8.057   3.815   7.454 -1.5770 -1.2352  2.3129
18673SOL    HW258027   8.076   3.959   7.500 -0.8458 -0.2592 -0.8203
18674SOL     OW58028   0.630   2.331   3.666  0.7123  0.2365 -0.1375
18674SOL    HW158029   0.591   2.409   3.628 -0.2745  0.5847  1.4681
18674SOL    HW258030   0.658   2.358   3.754  3.9833 -0.1983 -0.9046
18675SOL     OW58031   7.810   5.932   7.472  0.1997 -0.6539  0.4527
18675SOL    HW158032   7.723   5.893   7.465  0.6303 -1.4593 -0.6029
18675SOL    HW258033   7.836   5.916   7.563 -0.7743 -0.3274  0.8020
18676SOL     OW58034   4.997   8.312   5.624  0.1111 -0.0180  0.2410
18676SOL    HW158035   5.043   8.244   5.576  1.0420  1.5218 -1.1667
18676SOL    HW258036   4.919   8.269   5.658  0.4793 -1.6812 -0.9000
18677SOL     OW58037   8.268  10.238  11.076  0.1385  0.4607 -0.3228
18677SOL    HW158038   8.206  10.268  11.142  1.3675  2.2837  0.0967
18677SOL    HW258039   8.250  10.292  10.999 -0.2680 -0.5819 -0.9782
18678SOL     OW58040   0.223   5.885   8.621  0.2086  0.4061 -0.5989
18678SOL    HW158041   0.193   5.932   8.699 -2.0795 -1.1070 -0.4705
18678SOL    HW258042   0.227   5.952   8.553 -0.2465  1.2951  0.2227
18679SOL     OW58043   8.597   6.028   1.414 -0.3965 -0.2734 -0.0214
18679SOL    HW158044   8.648   5.957   1.376  1.5992  1.1205 -0.1305
18679SOL    HW258045   8.639   6.108   1.382 -2.2542  0.9786  0.4681
18680SOL     OW58046   6.949   2.825   5.998 -0.3199  0.2518 -0.1146
18680SOL    HW158047   7.024   2.836   5.940 -0.0467  0.3250  0.2466
18680SOL    HW258048   6.985   2.841   6.086 -0.3361 -1.5639  0.2570
18681SOL     OW58049   3.963   5.907   2.127  0.6661  0.1752  0.2995
18681SOL    HW158050   3.942   5.819   2.095 -1.3232 -0.1523  2.2420
18681SOL    HW258051   4.019   5.891   2.203  1.8687  0.7276 -0.4416
18682SOL     OW58052   5.614  10.934   6.251 -0.1742 -0.9721 -0.1398
18682SOL    HW158053   5.589  10.850   6.212 -1.0785 -1.2436  0.9523
18682SOL    HW258054   5.541  10.955   6.309 -0.2038  0.8523 -0.8015
18683SOL     OW58055   2.422   7.143  10.592 -0.8250  0.9438  0.3485
18683SOL    HW158056   2.516   7.130  10.595 -0.9315 -0.1534 -0.4615
18683SOL    HW258057   2.400   7.181  10.678  0.2565  0.5956  0.7957
18684SOL     OW58058   1.382   3.862   4.957  0.1405 -0.9816 -0.2812
18684SOL    HW158059   1.446   3.792   4.968  0.0386 -1.0259  0.0327
18684SOL    HW258060   1.426   3.926   4.901  1.2031 -0.0906  1.5051
18685SOL     OW58061   2.437   2.330   6.394  0.6912  0.7046  0.0393
18685SOL    HW158062   2.487   2.271   6.451  0.3230  1.7317  1.4698
18685SOL    HW258063   2.458   2.301   6.305  1.5765 -0.7028  0.6781
18686SOL     OW58064   9.778   9.645   8.272  0.0865 -0.5157  0.1343
18686SOL    HW158065   9.762   9.620   8.181  1.2017 -0.6373 -0.0318
18686SOL    HW258066   9.729   9.581   8.323  0.9090 -1.5591 -0.3439
18687SOL     OW58067   5.409   7.011   0.246 -0.0891  0.5834  0.0848
18687SOL    HW158068   5.423   6.947   0.315 -1.0989 -0.0026 -0.2353
18687SOL    HW258069   5.346   6.970   0.187 -0.9085  1.9315 -0.0273
18688SOL     OW58070   6.384   8.606   8.680  0.3937 -0.4345 -0.2554
18688SOL    HW158071   6.373   8.689   8.726 -2.2095 -0.2872 -0.9677
18688SOL    HW258072   6.328   8.544   8.728  1.4818 -1.5343 -0.3487
18689SOL     OW58073   8.438   4.652   1.386  0.3860  0.3720  0.0565
18689SOL    HW158074   8.410   4.716   1.321  2.1794  1.2679  0.1157
18689SOL    HW258075   8.363   4.643   1.445 -0.6577  0.7992 -1.1633
18690SOL     OW58076   3.868  10.772   6.696 -0.5184 -1.2403 -0.8059
18690SOL    HW158077   3.851  10.854   6.743  0.4109 -2.2131  1.3844
18690SOL    HW258078   3.851  10.793   6.604  2.1200  2.1670 -0.7196
18691SOL     OW58079   8.010   8.144   6.597  0.2743  0.2170  0.2682
18691SOL    HW158080   7.925   8.185   6.612  0.4140  0.4618  0.4144
18691SOL    HW258081   7.992   8.069   6.540 -0.0949  0.0320  0.6227
18692SOL     OW58082   5.342   2.074   0.082  0.0165  0.2319  0.0236
18692SOL    HW158083   5.247   2.078   0.091 -0.0308  0.4052 -0.5547
18692SOL    HW258084   5.359   2.095  -0.009  0.5485 -0.8624 -0.1486
18693SOL     OW58085   1.582   6.287   9.636  0.4005 -0.4381 -0.0977
18693SOL    HW158086   1.604   6.208   9.586 -0.5356 -1.5596  1.2013
18693SOL    HW258087   1.666   6.319   9.669  1.1467  0.6801 -2.7561
18694SOL     OW58088   9.277   8.331   1.299 -0.5005  0.2492 -0.0888
18694SOL    HW158089   9.353   8.351   1.354  0.9866 -2.2077 -1.0778
18694SOL    HW258090   9.202   8.359   1.352  0.9139 -0.4303  2.4837
18695SOL     OW58091   7.083   9.903   8.152 -0.2128  0.3339  0.3615
18695SOL    HW158092   7.107   9.864   8.068 -0.9278 -0.2410  0.4229
18695SOL    HW258093   7.006   9.855   8.180  2.1424 -2.1454  3.2066
18696SOL     OW58094   6.148   8.070   0.798  0.4912 -0.0368 -0.1790
18696SOL    HW158095   6.177   7.992   0.750 -0.1628  0.9714 -2.3728
18696SOL    HW258096   6.228   8.122   0.810  0.4230  0.5431 -1.9283
18697SOL     OW58097  10.316   6.377   3.736 -0.5858  1.0212 -0.1499
18697SOL    HW158098  10.397   6.416   3.704  2.9451 -1.6524  4.2531
18697SOL    HW258099  10.282   6.442   3.798 -0.5312  1.2708 -0.3814
18698SOL     OW58100   4.306   4.154   9.794  0.0373  0.1009  0.2348
18698SOL    HW158101   4.271   4.231   9.748 -0.9680 -0.1351  0.5751
18698SOL    HW258102   4.370   4.190   9.855 -1.5943  0.8848  1.5597
18699SOL     OW58103   0.953   5.188   4.248  0.4361  0.2973 -0.5036
18699SOL    HW158104   1.021   5.254   4.266  0.4191 -0.4953  3.4195
18699SOL    HW258105   0.983   5.110   4.294 -3.1016 -0.0266  1.6062
18700SOL     OW58106   8.669   6.608   4.449 -0.1269 -0.2801  0.8558
18700SOL    HW158107   8.716   6.605   4.532  1.9507 -2.8973 -0.2763
18700SOL    HW258108   8.648   6.517   4.430 -0.9679  0.2957 -1.2749
18701SOL     OW58109   6.217   3.627   3.580  0.3282  0.4128  0.1085
18701SOL    HW158110   6.158   3.560   3.545  0.8506  0.5552 -1.0911
18701SOL    HW258111   6.251   3.588   3.661  1.2370 -1.1322 -0.9646
18702SOL     OW58112   2.449   6.410   9.684  0.0251  0.1345 -0.4982
18702SOL    HW158113   2.365   6.389   9.725  0.1995  1.1028  0.4122
18702SOL    HW258114   2.514   6.380   9.748  0.4344 -1.4143 -1.5786
18703SOL     OW58115   1.327   1.481   4.917  0.6390 -0.2221 -0.1214
18703SOL    HW158116   1.295   1.560   4.960 -0.2019  0.5950 -2.1343
18703SOL    HW258117   1.406   1.458   4.965  0.7191  1.6521  0.7310
18704SOL     OW58118  10.730   2.209   7.006 -1.0862  1.0599 -0.2514
18704SOL    HW158119  10.639   2.230   6.985 -0.8845  1.6981 -0.5220
18704SOL    HW258120  10.777   2.291   6.989 -0.3597  0.5454 -0.7542
18705SOL     OW58121   1.998   6.171   6.189 -0.0772  0.3399 -0.2727
18705SOL    HW158122   2.074   6.144   6.138 -0.6019  0.2184 -1.0235
18705SOL    HW258123   2.021   6.256   6.224  0.8805 -0.2474  0.5606
18706SOL     OW58124   6.609   3.040   0.440 -0.1394 -0.1354 -0.2413
18706SOL    HW158125   6.665   3.010   0.368 -0.4118 -0.9892 -0.1092
18706SOL    HW258126   6.545   2.969   0.452 -0.5709  0.3439  0.3287
18707SOL     OW58127   4.325   9.676  10.967 -0.4263  0.2028  0.2014
18707SOL    HW158128   4.357   9.716  10.886 -1.0816  0.8324  0.2488
18707SOL    HW258129   4.308   9.584  10.943 -0.2468  0.2910 -0.2699
18708SOL     OW58130  10.233   9.308   6.068  0.3588  0.4916  0.0205
18708SOL    HW158131  10.153   9.347   6.032  0.6826 -0.0456 -1.3331
18708SOL    HW258132  10.287   9.383   6.093 -0.7516  0.8633  1.4333
18709SOL     OW58133   0.519   7.925   5.262 -0.3073  0.3769  0.3272
18709SOL    HW158134   0.452   7.857   5.272 -0.5932  0.6868  0.5495
18709SOL    HW258135   0.501   7.964   5.176 -0.1261  0.1578  0.1872
18710SOL     OW58136   7.023   9.403   5.686  0.0463 -0.0688  0.5068
18710SOL    HW158137   7.095   9.449   5.728 -0.6795 -1.2029  3.1672
18710SOL    HW258138   6.948   9.462   5.696  0.2436  0.5273 -1.0981
18711SOL     OW58139   4.592   9.048   7.521 -0.3585  0.0841 -0.0761
18711SOL    HW158140   4.617   8.992   7.595 -0.5347 -0.0671 -0.1318
18711SOL    HW258141   4.599   8.991   7.444  0.5135  0.4287 -0.2651
18712SOL     OW58142   4.162   2.409   1.565  0.0961  0.2423  0.4928
18712SOL    HW158143   4.129   2.347   1.631 -3.1407  1.3519  0.0943
18712SOL    HW258144   4.156   2.361   1.482 -1.4365  0.6784  0.3185
18713SOL     OW58145   0.874  11.081   2.044  0.1236  0.5436 -0.4804
18713SOL    HW158146   0.838  11.162   2.080  3.0564  1.7104  0.0697
18713SOL    HW258147   0.930  11.046   2.114  0.0203 -1.2317 -1.2201
18714SOL     OW58148   6.398   2.829   8.534 -0.8533 -0.3024 -0.4610
18714SOL    HW158149   6.358   2.781   8.606 -0.6654  0.4802  0.1756
18714SOL    HW258150   6.487   2.795   8.529 -0.5545  0.3270  0.3326
18715SOL     OW58151   6.935   3.225   4.677  0.1825 -0.5161  0.2272
18715SOL    HW158152   7.027   3.200   4.669  0.1524 -0.1173 -2.2346
18715SOL    HW258153   6.917   3.278   4.599 -1.9723 -0.0197  0.9693
18716SOL     OW58154   0.113   9.811   2.701 -0.1415 -0.0555 -0.1421
18716SOL    HW158155   0.185   9.858   2.658 -1.4246  1.4715 -0.7263
18716SOL    HW258156   0.157   9.750   2.760  1.6744 -1.5953 -2.8790
18717SOL     OW58157   9.278   5.258   8.702  0.0656  0.8176  0.2277
18717SOL    HW158158   9.219   5.267   8.627  2.8517  0.5657 -2.1656
18717SOL    HW258159   9.279   5.345   8.742 -1.9995  0.7812  0.4606
18718SOL     OW58160   2.027   9.574   0.730 -0.3607  0.3871 -0.1651
18718SOL    HW158161   1.963   9.619   0.675 -0.1758  0.0250 -0.6953
18718SOL    HW258162   2.065   9.507   0.672  0.0633  0.2006  0.3156
18719SOL     OW58163   0.050   5.722   3.918 -0.4050 -0.2112 -0.5274
18719SOL    HW158164   0.067   5.771   3.837  1.7931  1.7377  0.9903
18719SOL    HW258165  -0.045   5.729   3.930 -0.8204 -0.7262 -2.9864
18720SOL     OW58166   3.339   6.112   5.728 -0.1020 -0.2856  0.1017
18720SOL    HW158167   3.261   6.119   5.783  0.2979 -0.3207  0.6820
18720SOL    HW258168   3.386   6.194   5.743  0.2005 -0.4587  0.1089
18721SOL     OW58169   2.712   1.065   2.837  0.7807 -0.2901 -0.0570
18721SOL    HW158170   2.669   1.094   2.756  1.9518  1.2709 -0.1455
18721SOL    HW258171   2.713   0.969   2.830 -2.7967 -0.4630  0.0342
18722SOL     OW58172   3.967   6.911   1.775 -0.3821  0.3364 -0.3241
18722SOL    HW158173   3.936   6.980   1.717  1.3359  2.4085  1.0758
18722SOL    HW258174   4.060   6.901   1.755 -0.5412 -1.5158 -0.3713
18723SOL     OW58175   1.298   5.506   4.945 -0.6246 -0.1441 -0.2809
18723SOL    HW158176   1.287   5.499   4.850  0.0953 -1.3637 -0.2849
18723SOL    HW258177   1.318   5.599   4.960 -0.5731  0.0200 -1.3270
18724SOL     OW58178  10.093   9.933   5.995 -0.5770 -0.4624  0.3144
18724SOL    HW158179  10.162   9.887   5.947 -0.6210 -0.9288  0.6948
18724SOL    HW258180  10.012   9.911   5.948 -0.5050 -0.1454  0.0375
18725SOL     OW58181   3.049   7.307   8.582 -0.8039 -0.3847 -0.2349
18725SOL    HW158182   2.958   7.292   8.556 -0.0375 -5.4485 -0.8900
18725SOL    HW258183   3.097   7.314   8.499 -0.1156 -2.1531 -0.0126
18726SOL     OW58184   7.025   2.244   1.333 -0.4110  0.7548 -0.4084
18726SOL    HW158185   6.991   2.159   1.305 -1.9791  1.4458 -0.6871
18726SOL    HW258186   7.093   2.222   1.398 -1.1236 -0.7007 -0.1146
18727SOL     OW58187   9.378   2.772   8.793  0.1898  0.0475  0.1442
18727SOL    HW158188   9.363   2.695   8.848  0.8205  0.8455  1.4777
18727SOL    HW258189   9.456   2.813   8.829 -0.0485  1.2458 -0.6287
18728SOL     OW58190   9.906   4.871   5.267  0.1918  0.6511 -0.7053
18728SOL    HW158191   9.992   4.909   5.286  0.8564 -0.7708 -0.7474
18728SOL    HW258192   9.922   4.807   5.198 -0.9045  0.3570 -0.7114
18729SOL     OW58193   7.539   1.676   4.378 -0.2686 -0.0040 -0.1569
18729SOL    HW158194   7.594   1.647   4.306 -0.2318  1.7590 -0.8812
18729SOL    HW258195   7.573   1.762   4.402 -1.3448  0.1823  0.8279
18730SOL     OW58196   1.407  10.992   1.117 -0.0325  0.3718  0.1655
18730SOL    HW158197   1.458  11.058   1.070 -0.9594 -0.9665 -3.0537
18730SOL    HW258198   1.318  11.025   1.115 -0.1433  0.1199  0.7349
18731SOL     OW58199   2.512   5.612   6.349 -0.8385 -0.8834 -0.2633
18731SOL    HW158200   2.527   5.619   6.444  0.2033 -0.1185 -0.4591
18731SOL    HW258201   2.506   5.703   6.320  1.1921 -1.0231 -1.2513
18732SOL     OW58202   5.999   9.435   4.571 -0.3444 -0.3608 -0.1389
18732SOL    HW158203   6.038   9.352   4.598  1.3072  0.1129 -0.9272
18732SOL    HW258204   5.905   9.418   4.567 -0.1562 -1.7875  1.0608
18733SOL     OW58205   5.491   0.834   5.215  0.2150 -0.2119 -0.8139
18733SOL    HW158206   5.533   0.798   5.293 -1.4889 -0.0923  0.2151
18733SOL    HW258207   5.516   0.926   5.214  0.0472 -0.1591 -0.2648
18734SOL     OW58208   8.868   5.968   8.460  0.3024  0.1337 -0.1259
18734SOL    HW158209   8.866   5.984   8.554  1.0043 -2.2319  0.3631
18734SOL    HW258210   8.936   5.901   8.449 -1.4268 -1.4476 -1.9805
18735SOL     OW58211   3.565   0.406   1.179 -0.4104  0.5916 -0.0370
18735SOL    HW158212   3.524   0.473   1.234 -2.3622 -0.7342  0.2177
18735SOL    HW258213   3.499   0.384   1.114  0.2236 -0.9706 -0.2099
18736SOL     OW58214   5.128   4.435  10.515 -0.5460 -0.5936  0.2455
18736SOL    HW158215   5.039   4.459  10.540 -0.7621 -1.1058  0.0024
18736SOL    HW258216   5.126   4.436  10.419 -0.1924 -0.2670  0.2413
18737SOL     OW58217   4.689   2.230   4.062 -0.1578  0.6223  0.9479
18737SOL    HW158218   4.750   2.166   4.024 -0.8705  0.6351 -0.2399
18737SOL    HW258219   4.645   2.181   4.132 -1.2002 -0.4390 -0.4023
18738SOL     OW58220   2.642  10.265   3.074  0.6871 -0.4876  0.6832
18738SOL    HW158221   2.550  10.270   3.102 -0.4768 -3.1009 -2.1252
18738SOL    HW258222   2.686  10.220   3.146 -0.1660  0.7982  2.0775
18739SOL     OW58223   1.180   1.097   7.856 -0.4887 -0.2806 -0.0168
18739SOL    HW158224   1.105   1.110   7.798 -1.2124 -2.9343  0.1980
18739SOL    HW258225   1.256   1.111   7.800 -1.1389  1.0022 -0.6123
18740SOL     OW58226  10.104   1.928   7.454  0.7753 -0.2396 -0.4431
18740SOL    HW158227  10.145   1.946   7.538 -1.5189 -1.5393  1.0775
18740SOL    HW258228  10.151   1.851   7.421  0.3999 -0.9839  0.6843
18741SOL     OW58229   3.694   8.657   0.567  0.1780 -0.0813  0.0139
18741SOL    HW158230   3.680   8.742   0.524 -0.5692  0.4781  1.3038
18741SOL    HW258231   3.777   8.626   0.532  0.7316  1.4370 -0.0942
18742SOL     OW58232   7.896   2.952   0.795  0.0559  0.0331 -0.3234
18742SOL    HW158233   7.890   3.011   0.720  1.1846  0.4179 -0.1228
18742SOL    HW258234   7.940   3.003   0.863  0.7724 -0.9301 -0.0478
18743SOL     OW58235   0.823   2.168   1.406 -0.0972  0.2237 -0.1987
18743SOL    HW158236   0.914   2.192   1.389 -0.2678  0.6436 -0.5504
18743SOL    HW258237   0.801   2.107   1.336 -0.7313  1.7787 -1.4086
18744SOL     OW58238  10.098   5.799   8.273 -0.1445 -0.8739 -0.0465
18744SOL    HW158239  10.069   5.890   8.270  1.2343 -0.3037  1.7810
18744SOL    HW258240  10.059   5.765   8.354 -2.1498 -2.5278 -1.6061
18745SOL     OW58241  10.556   3.028   2.320  0.5888 -0.5183 -0.3950
18745SOL    HW158242  10.512   3.020   2.235 -1.2198  1.3173  0.2947
18745SOL    HW258243  10.572   2.937   2.347 -3.3133 -1.4133 -0.4973
18746SOL     OW58244   6.207   0.307   4.935  0.1017 -0.0302 -0.3543
18746SOL    HW158245   6.286   0.253   4.926 -0.8473 -1.7432  1.0332
18746SOL    HW258246   6.170   0.310   4.846  0.1784 -1.6924 -0.4699
18747SOL     OW58247   7.407   3.956   3.193  0.5142 -0.2324 -0.1058
18747SOL    HW158248   7.416   3.985   3.283  2.3844 -2.1723  0.4240
18747SOL    HW258249   7.495   3.930   3.167 -0.1074 -0.4276 -2.2575
18748SOL     OW58250   3.294   5.399   5.452 -0.2180 -0.0049 -0.0870
18748SOL    HW158251   3.223   5.464   5.449 -1.3734 -1.2375 -0.9315
18748SOL    HW258252   3.353   5.431   5.520 -2.2868  0.3862  1.6413
18749SOL     OW58253   6.250   9.889   7.796 -0.0941  0.5124 -0.5850
18749SOL    HW158254   6.228   9.953   7.729  2.9221  0.2132 -2.0538
18749SOL    HW258255   6.341   9.910   7.820  0.0604 -1.5257  0.9038
18750SOL     OW58256   2.857   8.603  10.830  0.2042  0.4348  0.2193
18750SOL    HW158257   2.830   8.538  10.764  1.3512 -0.4378  0.5862
18750SOL    HW258258   2.892   8.551  10.902  1.1897  1.4694  0.5073
18751SOL     OW58259   7.015   7.673   3.886  0.0827 -0.6417 -0.3367
18751SOL    HW158260   7.042   7.728   3.959 -1.3378  0.8918 -0.9021
18751SOL    HW258261   7.027   7.727   3.808 -2.5358 -0.5775 -0.7953
18752SOL     OW58262   3.234   6.337   6.614 -0.0223 -0.0657 -0.1859
18752SOL    HW158263   3.186   6.328   6.532  1.3102  1.0219 -1.1360
18752SOL    HW258264   3.278   6.422   6.606  0.8107 -0.3358  1.2968
18753SOL     OW58265   2.839   6.348   5.753 -0.7969 -0.3071  0.1216
18753SOL    HW158266   2.847   6.441   5.730 -1.1839 -0.6702 -1.5450
18753SOL    HW258267   2.766   6.316   5.700 -0.5464 -1.6168  0.5400
18754SOL     OW58268   6.243   8.767   2.833 -0.3466 -0.1481 -0.2566
18754SOL    HW158269   6.262   8.825   2.760  0.8017  0.0980  0.2192
18754SOL    HW258270   6.211   8.825   2.902  0.8621 -0.0344  0.2408
18755SOL     OW58271   7.086   5.856   9.267  0.1982 -0.3361 -0.4693
18755SOL    HW158272   7.036   5.919   9.320  1.1184  0.4703 -0.5216
18755SOL    HW258273   7.036   5.775   9.273  0.3330 -0.3208  1.7711
18756SOL     OW58274   0.338   9.191   6.645  0.3146  0.5715  0.1459
18756SOL    HW158275   0.397   9.145   6.705 -0.9159  0.2866  1.1950
18756SOL    HW258276   0.278   9.123   6.614 -0.2889  1.0870  0.1504
18757SOL     OW58277   7.749   5.402   2.831  0.2069 -0.8327 -0.2852
18757SOL    HW158278   7.689   5.476   2.822 -0.6424 -0.5781  4.6723
18757SOL    HW258279   7.834   5.437   2.804 -0.3892  1.6777  0.7414
18758SOL     OW58280  10.597   5.164   2.556  0.3583  0.6136  0.1665
18758SOL    HW158281  10.535   5.209   2.614 -0.5450 -0.8125  0.3379
18758SOL    HW258282  10.646   5.106   2.615  1.2401  1.0672 -0.1103
18759SOL     OW58283   8.631   8.463  10.512  0.6324 -0.2672 -0.0508
18759SOL    HW158284   8.576   8.482  10.588 -0.6672  1.5522 -1.3581
18759SOL    HW258285   8.574   8.414  10.453  0.9543  0.1491 -0.7157
18760SOL     OW58286   7.658   6.713   8.226  0.0317 -0.3584 -0.3309
18760SOL    HW158287   7.643   6.714   8.131 -1.8785  0.1991 -0.0551
18760SOL    HW258288   7.742   6.668   8.236  0.7344  0.4024 -2.3390
18761SOL     OW58289   3.665   2.728   4.350 -0.3320 -0.5625 -0.2873
18761SOL    HW158290   3.631   2.776   4.425  0.4470 -0.7390  0.1919
18761SOL    HW258291   3.728   2.788   4.309  0.5088 -1.0817  0.2063
18762SOL     OW58292   1.151   5.251   0.454 -0.2956 -0.0202 -0.7462
18762SOL    HW158293   1.120   5.196   0.526 -2.1294 -0.8419 -2.0886
18762SOL    HW258294   1.150   5.340   0.490  1.1735 -0.6178  0.9492
18763SOL     OW58295   2.686   7.265  10.166  0.2231 -0.6077  0.3956
18763SOL    HW158296   2.626   7.218  10.108 -0.0564 -1.6689  1.4956
18763SOL    HW258297   2.773   7.238  10.136  0.2454  1.4842 -1.6581
18764SOL     OW58298   2.937   0.341   8.673  0.3712 -0.0468  0.3466
18764SOL    HW158299   2.958   0.435   8.677 -0.3190  0.1546 -0.4605
18764SOL    HW258300   3.001   0.305   8.612  0.0451  0.0759 -0.0695
18765SOL     OW58301   0.290   0.248   1.342  0.4083 -0.0868  0.8125
18765SOL    HW158302   0.236   0.226   1.266 -0.4441 -1.3279  1.7298
18765SOL    HW258303   0.237   0.308   1.393  0.8125  0.4280  0.6292
18766SOL     OW58304   0.875   5.831   5.960  0.4227 -0.0915 -0.0262
18766SOL    HW158305   0.848   5.773   5.889 -1.2145  0.7406 -0.1416
18766SOL    HW258306   0.970   5.822   5.965  0.6718  0.3528 -2.7879
18767SOL     OW58307   7.034   2.413   9.278  0.1131  0.0500 -0.5142
18767SOL    HW158308   7.118   2.409   9.232  0.3853  2.8632 -0.4201
18767SOL    HW258309   6.969   2.390   9.212  0.8899 -2.9765 -0.3958
18768SOL     OW58310  11.079   0.264   1.675  0.0077  0.3241  0.3668
18768SOL    HW158311  11.000   0.314   1.695  1.0307  1.6163  1.3477
18768SOL    HW258312  11.091   0.206   1.750  0.7927  1.2226  0.9679
18769SOL     OW58313   4.065   7.618   5.665  0.6584  0.0927 -0.9445
18769SOL    HW158314   4.149   7.580   5.691  2.6602  2.8128 -2.7680
18769SOL    HW258315   4.025   7.552   5.608  1.5882 -1.1895 -0.1743
18770SOL     OW58316   0.736   0.641  10.030  0.2594 -0.0855  0.2036
18770SOL    HW158317   0.649   0.608  10.010 -0.4768  1.9811 -0.3156
18770SOL    HW258318   0.794   0.594   9.971 -0.4052 -1.7849  0.8287
18771SOL     OW58319   3.522   6.486   6.881 -0.0633 -0.0820  0.0314
18771SOL    HW158320   3.430   6.484   6.907 -0.7314  2.1242 -1.7825
18771SOL    HW258321   3.539   6.401   6.842 -1.7923 -0.0432 -0.8888
18772SOL     OW58322   3.663   9.887   7.141  0.5839  0.0491  0.2660
18772SOL    HW158323   3.677   9.926   7.227 -0.0892 -0.9737  0.8616
18772SOL    HW258324   3.568   9.888   7.129  0.4477 -2.1620  0.7000
18773SOL     OW58325   6.407   1.956  10.307 -0.1051 -0.3104  0.0331
18773SOL    HW158326   6.443   2.036  10.268 -1.4796  2.0597  3.1677
18773SOL    HW258327   6.314   1.976  10.321 -0.1848 -1.8670  2.1486
18774SOL     OW58328   7.107   4.383  10.498 -0.3210 -0.1545 -0.5165
18774SOL    HW158329   7.046   4.456  10.499 -1.5920 -1.0004  3.9085
18774SOL    HW258330   7.053   4.307  10.473 -0.1406 -0.3124 -0.4325
18775SOL     OW58331   3.639   5.530   0.281  0.4643 -0.3615 -0.0070
18775SOL    HW158332   3.619   5.518   0.374 -0.6857  0.5119 -0.1194
18775SOL    HW258333   3.715   5.588   0.281  0.1809  0.0153  0.3860
18776SOL     OW58334  11.020   8.235   9.999  0.3690  0.1473  0.2325
18776SOL    HW158335  11.060   8.166  10.051 -0.7942 -0.9249 -0.2688
18776SOL    HW258336  10.950   8.192   9.950 -1.4212  1.9462  1.0567
18777SOL     OW58337   8.321   3.997   3.026 -0.4348 -0.1645  0.5227
18777SOL    HW158338   8.355   4.067   3.081 -2.2979 -0.2659  1.9057
18777SOL    HW258339   8.259   4.040   2.968  0.4167 -0.2964 -0.5229
18778SOL     OW58340   3.097   4.230   9.462 -0.5827  0.0720  0.2196
18778SOL    HW158341   3.159   4.303   9.458 -0.5569  0.0350 -2.7616
18778SOL    HW258342   3.011   4.273   9.466 -0.5118  0.2697 -0.2308
18779SOL     OW58343   3.582  10.990  10.784 -0.1666 -0.1691 -0.8290
18779SOL    HW158344   3.626  11.018  10.864 -0.3999  0.6223 -0.9699
18779SOL    HW258345   3.651  10.989  10.718  0.0485 -0.9319 -0.5976
18780SOL     OW58346   0.116   0.725   0.190 -0.6398 -0.0205 -1.1431
18780SOL    HW158347   0.042   0.685   0.235 -0.1337 -2.9655 -2.6677
18780SOL    HW258348   0.079   0.760   0.109 -0.7572  0.9294 -0.6936
18781SOL     OW58349   0.106   7.045   1.813  0.0100  0.1126  0.1491
18781SOL    HW158350   0.146   7.118   1.767 -1.4238  0.7359 -0.1846
18781SOL    HW258351   0.141   7.048   1.901 -0.5887  1.6894  0.3553
18782SOL     OW58352   4.055   4.109  10.768  0.2167  0.3871 -0.3917
18782SOL    HW158353   4.150   4.112  10.756  0.1150  0.3096 -1.2501
18782SOL    HW258354   4.022   4.063  10.691 -0.6175  1.4547 -0.7074
18783SOL     OW58355   8.672   6.881   7.636  0.1554 -0.1162 -0.1646
18783SOL    HW158356   8.728   6.949   7.599  0.4752  0.6190  1.5766
18783SOL    HW258357   8.692   6.881   7.729 -0.6240 -1.8795  0.0515
18784SOL     OW58358   8.464   5.980   1.154  0.0036 -0.1106  0.0023
18784SOL    HW158359   8.376   5.962   1.186  0.0556  2.0553  1.5591
18784SOL    HW258360   8.480   6.072   1.177  3.8579 -1.2454  2.7395
18785SOL     OW58361   6.716   6.167   0.366  0.6743  0.5735  0.0470
18785SOL    HW158362   6.662   6.186   0.289 -2.3699  0.4578  1.9644
18785SOL    HW258363   6.718   6.250   0.415  0.0104 -0.0830  1.2378
18786SOL     OW58364   5.244   9.753   5.107 -0.4230 -0.7516  0.2021
18786SOL    HW158365   5.252   9.835   5.157 -3.4853  1.3376 -2.2946
18786SOL    HW258366   5.150   9.742   5.095  0.0389 -1.7244 -3.9219
18787SOL     OW58367   2.224   7.184   8.832  0.4341 -0.3021 -0.2487
18787SOL    HW158368   2.253   7.190   8.741  3.5706 -0.1466  0.6274
18787SOL    HW258369   2.288   7.236   8.880 -2.6462  1.8749  1.8509
18788SOL     OW58370   8.030   7.899   4.861  0.0292 -0.0280 -0.4597
18788SOL    HW158371   7.942   7.920   4.832  0.3369  0.9875 -0.6952
18788SOL    HW258372   8.034   7.930   4.951  0.9674  2.4879 -1.2812
18789SOL     OW58373   2.565   9.356   6.527  0.1603 -0.0410 -0.2491
18789SOL    HW158374   2.481   9.313   6.514  0.9597 -2.2239  1.1190
18789SOL    HW258375   2.608   9.352   6.442 -0.4017 -0.5878 -0.5108
18790SOL     OW58376   5.528   8.751   8.290 -0.7011  1.1901 -0.4382
18790SOL    HW158377   5.589   8.811   8.332  0.2458 -0.4060  0.5460
18790SOL    HW258378   5.517   8.786   8.202  1.1302  1.8727 -0.4305
18791SOL     OW58379   2.651   6.214   5.606 -0.0675 -0.0760 -0.1226
18791SOL    HW158380   2.595   6.140   5.628  0.2482 -0.2333  0.1590
18791SOL    HW258381   2.663   6.208   5.511  0.0021 -0.4188 -0.0935
18792SOL     OW58382   6.720   5.500   3.725 -0.9793 -0.9312 -0.6637
18792SOL    HW158383   6.760   5.509   3.812  1.8536 -3.5108 -1.4754
18792SOL    HW258384   6.701   5.589   3.697  0.2654  0.1435  1.6517
18793SOL     OW58385   7.890   2.553   9.434 -0.1589  0.2007  0.4221
18793SOL    HW158386   7.894   2.579   9.526  0.4710  0.8737  0.2118
18793SOL    HW258387   7.911   2.632   9.385  0.5509 -0.3932 -0.2734
18794SOL     OW58388   6.610   2.364   6.949  0.2237 -0.4959  0.1168
18794SOL    HW158389   6.525   2.408   6.938 -0.0652 -0.0542  3.1784
18794SOL    HW258390   6.592   2.293   7.011  1.9825 -0.7186  0.4218
18795SOL     OW58391   0.982   8.646  10.881  0.0399  0.2870  0.1342
18795SOL    HW158392   0.990   8.574  10.818  1.1557  0.4923  0.0175
18795SOL    HW258393   0.891   8.645  10.908 -0.2244 -0.4261 -0.7578
18796SOL     OW58394   0.721   7.500   3.581  0.2310  0.1553 -0.5768
18796SOL    HW158395   0.670   7.527   3.657 -1.9857  2.3231 -2.6641
18796SOL    HW258396   0.675   7.423   3.548  0.0819  0.3273 -0.7709
18797SOL     OW58397   1.057   0.940   2.770 -0.2465 -0.8353  0.5647
18797SOL    HW158398   1.150   0.948   2.794  0.1431 -1.0053 -0.7981
18797SOL    HW258399   1.016   0.902   2.848  1.5563 -4.5329 -0.0177
18798SOL     OW58400   4.733   6.758   2.131 -0.1687 -0.3416 -0.0755
18798SOL    HW158401   4.693   6.702   2.064  1.7920 -0.7183 -0.9930
18798SOL    HW258402   4.755   6.699   2.202  0.7687 -0.5536 -0.5242
18799SOL     OW58403  10.523   3.956   2.711  0.4961  0.6063 -0.0697
18799SOL    HW158404  10.526   3.866   2.743 -0.0673  0.1620 -1.1993
18799SOL    HW258405  10.562   3.952   2.623  0.7090  1.5170 -0.0334
18800SOL     OW58406   0.432   4.363  10.803 -0.7429  0.0075 -0.7463
18800SOL    HW158407   0.525   4.386  10.798 -0.3509 -1.4990 -0.9424
18800SOL    HW258408   0.386   4.446  10.791  0.5708  1.0531  0.9992
18801SOL     OW58409   6.888   2.414  10.708 -0.0268 -0.7114 -0.0776
18801SOL    HW158410   6.922   2.355  10.641  0.3000 -1.1573  0.4702
18801SOL    HW258411   6.801   2.379  10.728 -1.6956  1.4649 -2.7702
18802SOL     OW58412   6.687   9.909   3.208  0.4046  1.3501  0.6562
18802SOL    HW158413   6.726   9.827   3.180 -0.0630  0.8110  1.5387
18802SOL    HW258414   6.620   9.928   3.141  0.8906  1.3213  0.1508
18803SOL     OW58415   0.379   8.660   7.221  0.0164 -0.7288  0.0318
18803SOL    HW158416   0.286   8.665   7.200  0.1585 -1.0386 -0.6585
18803SOL    HW258417   0.381   8.652   7.317 -0.6292  0.3242  0.1463
18804SOL     OW58418   8.380   9.525  10.325  0.0460  0.1973 -0.3052
18804SOL    HW158419   8.427   9.555  10.248  0.5375 -0.3415 -0.2224
18804SOL    HW258420   8.447   9.517  10.393 -0.5265  1.5995  0.4699
18805SOL     OW58421  10.394   0.908   8.070 -0.4094 -0.4302  0.1681
18805SOL    HW158422  10.359   0.925   7.983 -1.2425 -1.9489  0.1781
18805SOL    HW258423  10.331   0.947   8.130 -1.0990 -1.4452  0.1306
18806SOL     OW58424   7.468   3.228   3.829 -0.1542  0.4968  0.0488
18806SOL    HW158425   7.400   3.163   3.850 -0.3683  1.4007  2.5129
18806SOL    HW258426   7.420   3.309   3.811  0.1914  1.1781  1.9384
18807SOL     OW58427  10.594   4.970   6.867 -0.1019  0.4736 -0.2331
18807SOL    HW158428  10.543   4.914   6.926  0.7203  1.0363  1.0773
18807SOL    HW258429  10.580   5.059   6.900  2.2188  0.5907  0.6457
18808SOL     OW58430   9.615   5.831   2.533 -0.2160  0.1530 -0.0585
18808SOL    HW158431   9.657   5.907   2.572  1.8157 -0.6317 -0.5584
18808SOL    HW258432   9.675   5.759   2.551 -1.3530 -1.0404 -0.8667
18809SOL     OW58433   5.761   2.203   9.236 -0.6280 -0.4896 -0.5003
18809SOL    HW158434   5.741   2.114   9.265  0.6895 -0.3380  0.9957
18809SOL    HW258435   5.675   2.245   9.226 -1.4092 -0.0732  4.8848
18810SOL     OW58436  10.728   1.267   0.409 -0.3988 -0.2931 -0.5523
18810SOL    HW158437  10.642   1.258   0.449  0.1828  2.2125  1.4822
18810SOL    HW258438  10.710   1.303   0.322 -1.4434 -0.8601 -0.5849
18811SOL     OW58439   6.908   6.022   2.448 -0.0451 -0.5685 -0.0758
18811SOL    HW158440   6.846   6.074   2.499  2.3795  1.8557  0.6311
18811SOL    HW258441   6.964   5.980   2.513 -0.1644 -1.7842 -0.7243
18812SOL     OW58442   5.290   4.881   0.409  0.5246 -0.0338  0.1309
18812SOL    HW158443   5.277   4.903   0.501 -1.4348  1.2069 -0.3883
18812SOL    HW258444   5.238   4.945   0.361  1.3949 -0.7272 -1.8586
18813SOL     OW58445   7.704   0.181  10.382  0.5277 -0.6634  0.3720
18813SOL    HW158446   7.730   0.154  10.294  0.3305  0.4084 -0.0373
18813SOL    HW258447   7.784   0.175  10.434  1.1856  0.7071 -0.3998
18814SOL     OW58448   8.599   8.911   4.419 -0.3929 -1.0156 -0.9788
18814SOL    HW158449   8.622   8.970   4.490  0.3690 -1.0124 -1.2223
18814SOL    HW258450   8.585   8.968   4.344  1.9260 -1.2321 -1.6237
18815SOL     OW58451   1.399   5.286   6.795 -0.1372  0.1387  0.0896
18815SOL    HW158452   1.422   5.267   6.886  1.7169 -0.2919 -0.4352
18815SOL    HW258453   1.426   5.378   6.783  0.9719 -0.2335 -0.4024
18816SOL     OW58454   4.646   8.451   2.284 -0.0329 -0.0214  0.2110
18816SOL    HW158455   4.594   8.519   2.240  0.9401  0.0202 -0.9278
18816SOL    HW258456   4.691   8.406   2.213  0.8133 -0.6227  1.1104
18817SOL     OW58457   1.500   4.480   8.290  0.6823 -0.3631 -0.1296
18817SOL    HW158458   1.520   4.430   8.210  1.3811  2.3150 -1.7730
18817SOL    HW258459   1.487   4.569   8.259 -0.8407  0.4790  2.5985
18818SOL     OW58460   0.726   4.470   1.723  0.2645  0.5367 -0.0848
18818SOL    HW158461   0.722   4.478   1.628  3.1393 -0.2372 -0.3789
18818SOL    HW258462   0.769   4.386   1.739  0.3447  0.8906  1.8887
18819SOL     OW58463   5.178   2.329   9.423 -0.3060  0.2736 -0.7485
18819SOL    HW158464   5.236   2.254   9.412 -0.1358  0.3423 -0.3476
18819SOL    HW258465   5.101   2.294   9.468  0.8915  0.7880  1.9506
18820SOL     OW58466   7.620   4.225   3.152 -0.2812  0.0816 -0.3449
18820SOL    HW158467   7.592   4.220   3.060 -0.9713  1.7965 -0.2555
18820SOL    HW258468   7.641   4.317   3.166  1.5624 -0.4599  0.7451
18821SOL     OW58469   8.465   8.185   8.135  0.0502  0.0039 -0.0151
18821SOL    HW158470   8.403   8.162   8.205  1.2526 -1.2134  0.6963
18821SOL    HW258471   8.551   8.166   8.172  0.7229 -0.9382 -1.9156
18822SOL     OW58472   5.724   9.002   9.824  0.0818 -0.8470  0.5538
18822SOL    HW158473   5.670   8.962   9.755 -4.2846  1.8003  2.0349
18822SOL    HW258474   5.711   8.945   9.900  0.1246 -0.7007  0.6702
18823SOL     OW58475   2.134   3.012  10.441  0.1856 -0.3657 -0.1071
18823SOL    HW158476   2.175   3.023  10.527  0.3881  3.2664 -0.4874
18823SOL    HW258477   2.049   2.973  10.459 -0.4725  1.8274  2.0291
18824SOL     OW58478   5.078   5.187   8.243 -0.1227  0.3950 -0.7607
18824SOL    HW158479   5.072   5.119   8.176 -1.0212  1.1882 -1.5285
18824SOL    HW258480   5.134   5.150   8.311 -1.4310 -1.5193 -0.6566
18825SOL     OW58481   9.335   4.062   6.104  0.3373 -0.1235  0.0787
18825SOL    HW158482   9.332   4.055   6.199  4.4276  1.1929  0.5029
18825SOL    HW258483   9.376   3.981   6.075  2.4242  0.9430 -0.1029
18826SOL     OW58484  10.950   4.570   3.552 -0.3688  0.9337 -0.3889
18826SOL    HW158485  11.000   4.492   3.576 -2.4042  0.0049  1.0687
18826SOL    HW258486  10.998   4.642   3.593  0.8689  0.3546 -0.7504
18827SOL     OW58487   1.692   0.920   3.337  0.0169 -0.5051  0.9197
18827SOL    HW158488   1.707   0.949   3.427  1.5468 -0.7122  0.7566
18827SOL    HW258489   1.766   0.863   3.318 -0.3657 -0.5795 -0.4297
18828SOL     OW58490   1.729   2.448   3.184 -0.0087 -0.3477 -0.2617
18828SOL    HW158491   1.773   2.517   3.232  0.2310  0.7689 -1.9973
18828SOL    HW258492   1.800   2.395   3.147 -0.1895 -1.5345  1.0021
18829SOL     OW58493   7.286   8.090  10.904 -0.2534  0.3631  0.4398
18829SOL    HW158494   7.330   8.048  10.831 -1.5267 -0.7245  0.2545
18829SOL    HW258495   7.356   8.121  10.961  0.7338 -0.2977 -0.4040
18830SOL     OW58496   2.133  10.285   9.066 -0.2931  0.0502 -0.1615
18830SOL    HW158497   2.181  10.247   9.139  0.4220 -1.4806 -1.3726
18830SOL    HW258498   2.065  10.221   9.046  0.7825 -0.5756 -2.0977
18831SOL     OW58499   7.802   9.689   4.836  0.1413 -0.1847 -0.3860
18831SOL    HW158500   7.844   9.774   4.817 -0.9089  0.5984  0.6434
18831SOL    HW258501   7.710   9.711   4.852 -0.2777 -1.6191 -0.7282
18832SOL     OW58502   3.080   6.502   2.536 -0.6160  0.2614 -0.3634
18832SOL    HW158503   3.166   6.506   2.494 -0.7593  0.9319 -0.5926
18832SOL    HW258504   3.020   6.543   2.474 -0.7978  1.4605  0.5628
18833SOL     OW58505   3.610   3.189   9.681 -0.0018 -0.1560 -0.2010
18833SOL    HW158506   3.564   3.157   9.603 -0.7415 -0.4308  0.3351
18833SOL    HW258507   3.574   3.277   9.695  1.6072  0.7182 -1.3376
18834SOL     OW58508   0.392   7.513   6.542 -0.6958 -0.5215 -0.3090
18834SOL    HW158509   0.300   7.523   6.516 -0.7676 -1.5880 -0.5128
18834SOL    HW258510   0.428   7.450   6.480 -0.4342 -1.8525  1.1155
18835SOL     OW58511   4.819   7.457   9.766  0.4723 -0.0416  1.0041
18835SOL    HW158512   4.753   7.499   9.821  0.6752  0.6233  0.7597
18835SOL    HW258513   4.806   7.497   9.680  0.2790 -0.9329  0.6094
18836SOL     OW58514   5.624   9.957   5.138 -0.1037  0.0483  0.3123
18836SOL    HW158515   5.700  10.006   5.106 -0.3351  0.1219 -0.1296
18836SOL    HW258516   5.566  10.024   5.174  0.0676 -0.0146  0.7173
18837SOL     OW58517   3.064   4.716   2.350  0.7139 -0.1287  0.6182
18837SOL    HW158518   3.043   4.655   2.280  1.0295  0.2872  0.1569
18837SOL    HW258519   2.980   4.751   2.378  0.2936 -2.2359  2.2607
18838SOL     OW58520   1.974   8.133   8.942 -0.1743  0.0247  0.8999
18838SOL    HW158521   2.002   8.225   8.945 -1.8320  0.5732  0.4048
18838SOL    HW258522   2.009   8.095   9.023  2.0814  0.5928  0.2674
18839SOL     OW58523   3.257   4.178   6.606 -0.2589  0.3156  0.5917
18839SOL    HW158524   3.243   4.086   6.628 -0.6625  0.4473  0.8992
18839SOL    HW258525   3.235   4.225   6.687  0.4933  0.6436  0.6160
18840SOL     OW58526   0.406   3.370   0.088 -0.0834 -0.3517 -0.3938
18840SOL    HW158527   0.405   3.321   0.171  1.4324 -1.0148 -0.7291
18840SOL    HW258528   0.404   3.302   0.020 -0.5267  0.1612 -0.9036
18841SOL     OW58529   9.312   9.345   2.617  0.6255 -0.0579 -0.6318
18841SOL    HW158530   9.338   9.373   2.705 -0.3380  2.2197 -1.0008
18841SOL    HW258531   9.281   9.255   2.629 -1.7110  0.9115  1.8774
18842SOL     OW58532   3.296   5.301   6.887 -0.5211  0.6630 -0.1710
18842SOL    HW158533   3.333   5.372   6.938 -1.8879  1.2202  0.0937
18842SOL    HW258534   3.290   5.335   6.798  2.0194 -0.3667 -0.8159
18843SOL     OW58535  10.274   0.036   7.569 -0.3686  0.2598  0.1445
18843SOL    HW158536  10.294   0.061   7.479 -3.1299 -1.2480 -1.0167
18843SOL    HW258537  10.209   0.101   7.598 -1.4169 -0.7292  0.0733
18844SOL     OW58538   6.659   4.603  10.844 -0.2260  0.0697  0.5970
18844SOL    HW158539   6.586   4.601  10.782  0.5219  0.1819 -0.3055
18844SOL    HW258540   6.618   4.583  10.929 -1.4557  1.1134  0.2825
18845SOL     OW58541   4.042   6.061   9.864 -0.2506 -1.1219  0.7215
18845SOL    HW158542   4.031   6.017   9.949 -2.3469 -2.2368 -0.0660
18845SOL    HW258543   3.972   6.126   9.861  1.4335  0.8331  0.8914
18846SOL     OW58544   3.540   2.387   4.047  0.1810 -0.3167 -0.1039
18846SOL    HW158545   3.548   2.345   3.961  2.3188  2.1160 -1.2244
18846SOL    HW258546   3.625   2.428   4.062 -0.6304  0.6184  2.5152
18847SOL     OW58547   7.811   6.962   5.842 -0.9076  0.1787 -0.2472
18847SOL    HW158548   7.733   7.017   5.839  0.4688  2.2449  0.1999
18847SOL    HW258549   7.842   6.960   5.751 -1.6727 -1.0123 -0.5096
18848SOL     OW58550   6.480   8.903   1.513 -0.2489  0.3563 -0.3370
18848SOL    HW158551   6.396   8.893   1.556 -0.7212 -0.3788 -1.3914
18848SOL    HW258552   6.459   8.924   1.422  0.2728 -6.6019 -2.6996
18849SOL     OW58553   6.828   2.976   5.013  0.2352 -0.3979  1.0484
18849SOL    HW158554   6.782   3.059   5.003 -0.4584 -1.0571 -2.4508
18849SOL    HW258555   6.764   2.919   5.057 -0.5229  0.0258  0.5303
18850SOL     OW58556   6.337   4.125   2.756  0.7161 -0.3036 -0.3170
18850SOL    HW158557   6.277   4.199   2.749  0.0352 -0.9319 -1.4773
18850SOL    HW258558   6.378   4.135   2.842  1.1024  1.7395 -0.6924
18851SOL     OW58559   1.792  10.069   9.738  0.1563  0.2423  0.0298
18851SOL    HW158560   1.772  10.162   9.747 -2.3720 -0.3020  0.6029
18851SOL    HW258561   1.806  10.038   9.828  1.7029  0.1638 -0.2055
18852SOL     OW58562   0.567   0.032   6.731  0.8944  0.4528  0.2739
18852SOL    HW158563   0.617   0.079   6.798  1.2152 -2.5238  2.2938
18852SOL    HW258564   0.632  -0.022   6.686 -0.0406 -1.4867  1.1466
18853SOL     OW58565   8.200   3.953   1.520  0.8208  0.3304 -0.0860
18853SOL    HW158566   8.290   3.944   1.552  0.5816 -0.9233  0.2822
18853SOL    HW258567   8.147   3.965   1.599  0.7502  2.0478 -0.3629
18854SOL     OW58568   8.490   2.292   2.037 -1.0772 -0.4392 -0.1529
18854SOL    HW158569   8.429   2.260   2.103  0.7301 -1.1665  1.2401
18854SOL    HW258570   8.470   2.241   1.959 -0.9410 -2.1043  0.8677
18855SOL     OW58571   8.959   9.304   3.877  0.1285  0.3214 -0.4072
18855SOL    HW158572   8.999   9.231   3.924 -0.2826 -1.0923 -2.1162
18855SOL    HW258573   8.871   9.311   3.915  0.2982  0.1550  0.0220
18856SOL     OW58574   5.821   8.177   8.189  0.3240 -0.0223 -0.4945
18856SOL    HW158575   5.793   8.144   8.274  1.3041 -0.3080 -0.2687
18856SOL    HW258576   5.790   8.267   8.187 -1.2460 -0.5274 -0.5756
18857SOL     OW58577  10.866   5.970   8.227 -0.2773  0.6385 -0.5280
18857SOL    HW158578  10.933   6.034   8.204  0.8636 -0.4771 -0.4086
18857SOL    HW258579  10.818   5.955   8.146  2.4549 -1.7963 -1.8702
18858SOL     OW58580   5.176   4.865   5.402 -0.7230  0.2867 -0.2744
18858SOL    HW158581   5.230   4.916   5.462 -1.2331  0.6635 -0.1311
18858SOL    HW258582   5.092   4.855   5.447 -0.8383 -0.1434 -0.5699
18859SOL     OW58583   2.713   7.893   3.861  0.7570  0.2253  0.2378
18859SOL    HW158584   2.733   7.863   3.950  0.6219  2.2627  1.0043
18859SOL    HW258585   2.775   7.845   3.805  2.7073  0.8376  1.7359
18860SOL     OW58586   4.705   5.592   9.630  0.2703 -0.4689  0.3565
18860SOL    HW158587   4.725   5.620   9.541 -1.1361 -1.2751 -0.2405
18860SOL    HW258588   4.629   5.644   9.655 -0.5990 -1.6749  0.2984
18861SOL     OW58589   2.901   3.416   7.299  0.1074  0.0358 -0.4169
18861SOL    HW158590   2.910   3.323   7.318  0.9936 -0.3797 -2.5314
18861SOL    HW258591   2.924   3.460   7.381 -1.8744 -1.5697  1.1005
18862SOL     OW58592   4.146   0.846  10.755  0.1640  0.6063  0.1675
18862SOL    HW158593   4.097   0.764  10.757 -0.6693  1.1072  1.7345
18862SOL    HW258594   4.232   0.824  10.789 -0.4357  0.5814  1.7484
18863SOL     OW58595   4.879   5.875   8.265  0.4855  0.3434  0.1985
18863SOL    HW158596   4.797   5.920   8.284  0.6210  0.9754 -0.6319
18863SOL    HW258597   4.857   5.782   8.270 -0.2124  0.5047  0.2535
18864SOL     OW58598   7.959  10.941   8.757 -0.2956 -0.2980 -0.0269
18864SOL    HW158599   8.018  10.909   8.689 -0.3546 -0.0503 -0.1949
18864SOL    HW258600   7.936  10.863   8.807 -0.9528 -0.6394 -0.8365
18865SOL     OW58601   8.935   3.432   2.033 -0.0239 -0.0467 -0.0868
18865SOL    HW158602   8.971   3.458   1.948 -0.1228 -0.0384 -0.1267
18865SOL    HW258603   8.842   3.453   2.027  0.4454  2.7977  1.1289
18866SOL     OW58604   2.207  10.776   9.253 -0.0740  0.8248  0.1016
18866SOL    HW158605   2.238  10.709   9.192 -1.6055  0.4202 -0.2515
18866SOL    HW258606   2.199  10.855   9.199 -2.1398  0.2886 -0.4324
18867SOL     OW58607   4.757   1.693   8.409 -0.1201  0.8191  0.2648
18867SOL    HW158608   4.673   1.651   8.392  0.3380 -0.2429  0.5551
18867SOL    HW258609   4.783   1.661   8.495  1.9343 -1.2296 -0.9923
18868SOL     OW58610  10.451   4.138   7.670 -0.0862 -0.1720  0.1002
18868SOL    HW158611  10.489   4.214   7.714 -0.0979 -0.5421  0.7705
18868SOL    HW258612  10.509   4.121   7.596  0.5702 -0.2023  0.6073
18869SOL     OW58613   9.838   4.410   4.084 -0.9503 -0.1013 -0.8729
18869SOL    HW158614   9.905   4.470   4.051 -1.0813 -0.6950 -2.2659
18869SOL    HW258615   9.755   4.450   4.057 -1.0380 -0.8831 -1.8170
18870SOL     OW58616   6.883  10.219   4.046 -0.2455 -0.3695 -0.7050
18870SOL    HW158617   6.965  10.260   4.018 -2.3708  2.8958 -2.8999
18870SOL    HW258618   6.863  10.260   4.130 -0.2517 -0.1293 -0.8206
18871SOL     OW58619  10.578  10.884   8.052 -0.7796 -0.2197 -0.1920
18871SOL    HW158620  10.543  10.795   8.052 -1.0704 -0.1812 -2.6812
18871SOL    HW258621  10.553  10.920   7.967  0.3675  1.8365  0.2560
18872SOL     OW58622   2.493   5.415   9.799 -0.1504 -0.2714  0.1657
18872SOL    HW158623   2.559   5.443   9.737 -0.4617 -0.9823 -0.5072
18872SOL    HW258624   2.475   5.324   9.776 -1.5790 -0.0093  0.1367
18873SOL     OW58625   1.403   8.573   2.612 -0.4305 -0.5311 -0.6691
18873SOL    HW158626   1.452   8.529   2.543 -0.5206 -1.8809  0.0837
18873SOL    HW258627   1.469   8.596   2.678 -0.3165  0.9185 -1.2629
18874SOL     OW58628   7.113   6.403   7.911  0.3972 -0.7351  0.1739
18874SOL    HW158629   7.043   6.377   7.971  1.3552 -1.5160  0.9771
18874SOL    HW258630   7.136   6.323   7.865 -0.1804 -0.1885 -1.1119
18875SOL     OW58631   7.772   2.562   3.990  0.2687 -0.3849  0.1594
18875SOL    HW158632   7.850   2.509   3.971 -0.9341 -2.7353  1.4327
18875SOL    HW258633   7.704   2.527   3.933 -0.4802 -0.0177  0.8080
18876SOL     OW58634  10.404   8.541  10.267  0.6140 -0.1086 -1.3934
18876SOL    HW158635  10.480   8.501  10.225  0.8323 -1.1187 -0.1146
18876SOL    HW258636  10.429   8.550  10.359 -0.8025 -0.4977 -0.9290
18877SOL     OW58637   4.547   8.783   5.055  0.3021  0.4693 -0.5597
18877SOL    HW158638   4.578   8.741   5.135 -0.3315  0.5367 -0.2741
18877SOL    HW258639   4.555   8.877   5.073  2.5054  0.5156 -1.5023
18878SOL     OW58640   4.305   6.175   5.643  0.1471  0.3942  0.5707
18878SOL    HW158641   4.282   6.148   5.554 -2.6475  1.2148  0.9529
18878SOL    HW258642   4.286   6.269   5.646  0.2152  0.3911  2.0275
18879SOL     OW58643   5.691   5.400   7.539 -0.2667  0.4971  0.1576
18879SOL    HW158644   5.608   5.353   7.528  0.5953 -1.0669  0.0883
18879SOL    HW258645   5.675   5.486   7.500 -2.3662  0.8414  1.5944
18880SOL     OW58646   8.346   1.766   7.307 -0.5131  0.2345 -0.0853
18880SOL    HW158647   8.307   1.724   7.230  0.5495 -0.4384 -0.2773
18880SOL    HW258648   8.298   1.729   7.382  0.3079 -1.2585 -0.2592
18881SOL     OW58649  10.172  10.998   1.880  0.4836  0.2353 -0.4486
18881SOL    HW158650  10.092  11.042   1.905  1.5104  1.4060  0.8768
18881SOL    HW258651  10.143  10.917   1.838 -1.4133  1.5644 -1.8457
18882SOL     OW58652   4.948   9.340   4.230  0.5822  0.7568 -0.7512
18882SOL    HW158653   4.932   9.382   4.314 -0.7203 -0.0473 -0.5576
18882SOL    HW258654   5.033   9.297   4.240  0.2445  0.3098  0.3104
18883SOL     OW58655   7.566   9.517   2.433 -0.3076  0.5103  0.1940
18883SOL    HW158656   7.630   9.460   2.390  1.7548  0.4496  2.9914
18883SOL    HW258657   7.618   9.593   2.462 -1.7898  1.1165  1.3985
18884SOL     OW58658   3.771   0.851   4.904 -0.0262  0.6126  0.1259
18884SOL    HW158659   3.712   0.797   4.851  0.6154  0.4135 -0.3896
18884SOL    HW258660   3.721   0.870   4.983  0.0965 -1.6423  0.8105
18885SOL     OW58661   4.625  11.052   9.475 -1.0235 -0.6484 -0.1437
18885SOL    HW158662   4.530  11.062   9.475 -0.9351  0.3519  0.6681
18885SOL    HW258663   4.658  11.137   9.504  0.0831 -1.2853  0.5499
18886SOL     OW58664   1.370   5.691   8.857 -0.7000  0.3128 -0.4264
18886SOL    HW158665   1.325   5.612   8.887  1.9705 -0.7440  1.0558
18886SOL    HW258666   1.373   5.748   8.934 -0.2764  0.7439 -0.7554
18887SOL     OW58667   2.864  10.808   4.680  0.0315 -0.0661  0.1797
18887SOL    HW158668   2.813  10.889   4.683  0.3910  0.2497 -1.2311
18887SOL    HW258669   2.954  10.836   4.698  0.1019 -0.2025  0.0461
18888SOL     OW58670   6.096   1.853   9.007 -0.0927  0.4640  0.4676
18888SOL    HW158671   6.059   1.827   8.922 -0.5791 -0.5399  0.9647
18888SOL    HW258672   6.118   1.945   8.996  2.6473 -0.3288 -1.7107
18889SOL     OW58673  10.204   2.166   8.383  1.0574 -0.8955  0.5167
18889SOL    HW158674  10.152   2.229   8.432  0.3141 -3.3981  3.2369
18889SOL    HW258675  10.291   2.170   8.424  1.1926 -1.1908  0.2644
18890SOL     OW58676  10.362   7.129   9.816 -0.2001 -0.2773 -0.5047
18890SOL    HW158677  10.285   7.080   9.787 -0.4349 -0.7001  0.7483
18890SOL    HW258678  10.326   7.210   9.853  0.0118 -0.2035 -0.4595
18891SOL     OW58679   2.807   3.349   3.403 -0.1161 -0.3374 -0.9097
18891SOL    HW158680   2.854   3.306   3.332  0.3816 -1.7516  0.2034
18891SOL    HW258681   2.875   3.393   3.454 -0.2652 -0.6158 -0.4649
18892SOL     OW58682   3.760   6.859   1.183 -0.2828 -0.1342 -0.0895
18892SOL    HW158683   3.749   6.947   1.220  0.3773  1.0803 -2.5394
18892SOL    HW258684   3.750   6.800   1.257 -3.3775  1.8307  1.2416
18893SOL     OW58685   3.884   4.462  11.029  0.2373 -0.0209  0.9198
18893SOL    HW158686   3.831   4.465  11.108  0.7582 -1.7262  1.3828
18893SOL    HW258687   3.964   4.509  11.052 -0.1017  0.5404  0.9811
18894SOL     OW58688   3.094   0.522   3.265  0.8348 -0.5370  0.3152
18894SOL    HW158689   3.039   0.477   3.201  0.6171  0.5414 -0.2716
18894SOL    HW258690   3.087   0.614   3.242  1.4149 -0.2133  1.3928
18895SOL     OW58691   7.683   5.882   9.748 -0.1548 -0.8601  0.4574
18895SOL    HW158692   7.765   5.908   9.707 -0.9731 -1.2825 -1.5723
18895SOL    HW258693   7.706   5.812   9.809  1.5494  1.8500  3.1993
18896SOL     OW58694   3.846   6.625   2.211  0.0045  0.0010  0.2734
18896SOL    HW158695   3.932   6.646   2.176  0.7581 -0.4232  1.7908
18896SOL    HW258696   3.806   6.570   2.144  0.5837  0.8321 -0.7957
18897SOL     OW58697  10.916   9.884   2.591 -0.1300 -0.8183  0.3779
18897SOL    HW158698  10.882   9.863   2.504 -0.2814  1.6985 -0.2241
18897SOL    HW258699  11.009   9.863   2.586 -0.4208 -2.1399  0.1373
18898SOL     OW58700   3.226   4.616   6.693 -0.4210 -0.2021 -0.1605
18898SOL    HW158701   3.265   4.549   6.637 -1.0730 -1.0963  0.4087
18898SOL    HW258702   3.192   4.682   6.633 -0.3460 -0.7177 -0.7738
18899SOL     OW58703   8.174   4.743   5.300  0.7047  0.0556  0.4268
18899SOL    HW158704   8.095   4.745   5.247  0.4874 -0.9201  0.6982
18899SOL    HW258705   8.179   4.831   5.339  0.5871  0.6058 -0.7658
18900SOL     OW58706   2.373   0.534   7.748  0.4514  0.2608 -0.1829
18900SOL    HW158707   2.434   0.463   7.730 -0.9785 -0.7782 -1.1594
18900SOL    HW258708   2.417   0.588   7.813  1.5178 -1.6130  0.7301
18901SOL     OW58709   1.136   3.857   9.038 -0.4254  0.0773 -0.4753
18901SOL    HW158710   1.057   3.804   9.050  0.1230 -0.0551  4.2202
18901SOL    HW258711   1.207   3.793   9.038 -0.0318  0.4682  1.1566
18902SOL     OW58712   0.876   5.489   2.932  1.2101  0.0867  0.4361
18902SOL    HW158713   0.834   5.415   2.888  1.0667 -0.0014  0.7166
18902SOL    HW258714   0.938   5.523   2.868  0.9658 -0.0069  0.1466
18903SOL     OW58715   1.130   0.992   6.746  0.5939  0.0255 -0.2512
18903SOL    HW158716   1.176   1.070   6.776 -0.0351  0.5255 -0.5794
18903SOL    HW258717   1.199   0.927   6.733  1.0570  0.3289  0.6162
18904SOL     OW58718   7.907   0.640   5.368  0.1974 -0.1608 -0.1027
18904SOL    HW158719   7.833   0.599   5.325 -0.5656  0.8526  0.1972
18904SOL    HW258720   7.931   0.713   5.311 -0.3077  0.7052  0.7555
18905SOL     OW58721   0.465   4.352   8.006 -0.0144 -0.3616 -0.4858
18905SOL    HW158722   0.482   4.288   8.075  1.0635 -1.2564 -1.5279
18905SOL    HW258723   0.435   4.299   7.932  1.6774  0.2162 -1.6353
18906SOL     OW58724   8.923  10.791   0.312  0.7071 -0.4542  0.0016
18906SOL    HW158725   8.835  10.787   0.349  0.4183 -0.1778 -0.6403
18906SOL    HW258726   8.981  10.780   0.387  0.1292 -3.5008  0.1318
18907SOL     OW58727   7.873   0.279   2.845  0.7186 -0.6489 -0.4631
18907SOL    HW158728   7.878   0.185   2.864  0.8914 -0.8788 -1.5917
18907SOL    HW258729   7.929   0.291   2.769  3.0151  0.8637  1.3394
18908SOL     OW58730   4.000   4.583   9.589 -0.0501 -0.3048 -0.0713
18908SOL    HW158731   3.937   4.563   9.658  0.3091 -1.2750 -0.0007
18908SOL    HW258732   4.019   4.676   9.599  1.3088 -0.7609  2.2596
18909SOL     OW58733   3.893   3.511   3.491 -0.4402 -0.0272  0.0621
18909SOL    HW158734   3.982   3.486   3.513 -0.0602 -0.9669 -2.2362
18909SOL    HW258735   3.900   3.600   3.458  0.0076 -0.7192 -1.8296
18910SOL     OW58736   9.168   7.423   5.053 -0.3555  0.3604 -0.5184
18910SOL    HW158737   9.252   7.384   5.076  0.0802  1.6045  0.0570
18910SOL    HW258738   9.177   7.515   5.076 -0.6645  1.2768 -3.6554
18911SOL     OW58739   6.833   8.865   6.429  0.0873 -0.4529 -0.2956
18911SOL    HW158740   6.909   8.884   6.374  0.0757  1.4524  0.2675
18911SOL    HW258741   6.860   8.791   6.483  2.3703  1.4211  1.3223
18912SOL     OW58742   7.886  10.357   4.058  0.2924  0.4447 -0.1141
18912SOL    HW158743   7.856  10.367   3.968 -0.0034  2.1512  0.1435
18912SOL    HW258744   7.838  10.281   4.091 -2.5434  2.0524 -0.2386
18913SOL     OW58745   6.073   8.436   2.496  0.0012  0.7719 -0.3817
18913SOL    HW158746   6.036   8.347   2.496 -0.3817  0.8949  1.6814
18913SOL    HW258747   6.153   8.428   2.547 -0.5069  1.7941  0.5990
18914SOL     OW58748   2.764   1.110   2.302 -0.3860 -0.4129 -0.5569
18914SOL    HW158749   2.687   1.117   2.246  0.0885  1.1651 -1.0712
18914SOL    HW258750   2.740   1.156   2.382  0.4506  1.3885 -1.2740
18915SOL     OW58751  10.431   4.880   1.207  0.1157  1.0852  0.9366
18915SOL    HW158752  10.380   4.845   1.280 -0.1870 -2.8263 -0.8827
18915SOL    HW258753  10.519   4.847   1.222  0.0946  0.4091 -0.2728
18916SOL     OW58754   7.858   7.354   4.760 -0.6956 -0.1654 -0.0779
18916SOL    HW158755   7.869   7.369   4.854  0.8686  1.3789 -0.4573
18916SOL    HW258756   7.763   7.350   4.748 -0.9246 -0.8345  1.6116
18917SOL     OW58757   7.847   4.154   6.937 -0.6351 -0.8752  0.6132
18917SOL    HW158758   7.940   4.146   6.918 -0.6339 -2.0430  0.9989
18917SOL    HW258759   7.815   4.219   6.875  0.1602 -1.5399 -0.5443
18918SOL     OW58760  10.801   9.740   1.289  0.1713  0.3541 -0.6302
18918SOL    HW158761  10.752   9.679   1.344  1.6048  1.2498  1.8448
18918SOL    HW258762  10.751   9.822   1.294  2.0483  1.4874  2.5151
18919SOL     OW58763   4.450   1.778  10.868 -0.5109  0.4219  0.4247
18919SOL    HW158764   4.544   1.792  10.884 -0.6339 -0.8567  2.7055
18919SOL    HW258765   4.440   1.794  10.774  1.4743  3.1467  0.5464
18920SOL     OW58766   7.770   8.485   4.058 -0.1232  0.5050  0.2722
18920SOL    HW158767   7.727   8.401   4.042  2.2439 -0.5737 -0.9700
18920SOL    HW258768   7.745   8.509   4.147  0.7405 -2.5641  1.4621
18921SOL     OW58769   4.370   0.757   6.380 -0.5859 -0.2996 -0.9026
18921SOL    HW158770   4.408   0.805   6.307  1.2462 -0.1379  0.0752
18921SOL    HW258771   4.445   0.734   6.435 -1.7697 -1.4169  0.3398
18922SOL     OW58772   0.674   4.537  10.827  0.5946  0.4604 -0.3701
18922SOL    HW158773   0.749   4.577  10.871  1.4240 -0.1837 -1.1517
18922SOL    HW258774   0.711   4.466  10.776 -0.5988 -0.0569 -0.5583
18923SOL     OW58775   1.929   1.303   1.161 -0.1916  0.3986  0.8260
18923SOL    HW158776   1.976   1.286   1.243  0.7979  1.5171  0.5204
18923SOL    HW258777   1.887   1.388   1.175  2.5901  2.2102 -0.8609
18924SOL     OW58778   2.159   6.466   0.926  0.2010 -0.2207 -0.1148
18924SOL    HW158779   2.158   6.459   1.021  0.4705 -0.0798 -0.0987
18924SOL    HW258780   2.246   6.433   0.901 -0.3591 -1.5247 -0.4178
18925SOL     OW58781   3.015   4.284   3.342  0.5833  0.1424 -0.4931
18925SOL    HW158782   3.068   4.270   3.264  1.5070  0.4714  0.0549
18925SOL    HW258783   2.978   4.372   3.330  1.8466  0.7777  0.0469
18926SOL     OW58784   4.807  10.456   2.734  0.2491 -0.4951 -0.0335
18926SOL    HW158785   4.866  10.445   2.809  0.8095  0.2597 -0.3525
18926SOL    HW258786   4.846  10.401   2.665  0.2268 -0.4967 -0.0446
18927SOL     OW58787   4.968   2.712   8.153  0.2254  0.0176 -0.0986
18927SOL    HW158788   4.947   2.628   8.194 -2.2899  0.6682  0.1205
18927SOL    HW258789   4.960   2.696   8.059  2.2462 -0.5427 -0.2238
18928SOL     OW58790   3.401   5.137   5.684 -0.4039 -0.3944  0.1401
18928SOL    HW158791   3.482   5.187   5.699  0.6947 -1.8899 -0.5458
18928SOL    HW258792   3.333   5.190   5.724  0.7667  1.4110 -0.1354
18929SOL     OW58793   5.829   2.418   6.467 -0.2856  0.1240 -0.2691
18929SOL    HW158794   5.843   2.339   6.416 -3.6535 -1.8625  1.4855
18929SOL    HW258795   5.750   2.457   6.430  0.9719  2.4288 -0.7053
18930SOL     OW58796   8.756   8.599   4.713 -0.4793  0.2504 -0.4530
18930SOL    HW158797   8.781   8.519   4.759  0.0902 -0.7132 -2.3586
18930SOL    HW258798   8.676   8.628   4.757 -0.3163 -0.9659  0.7112
18931SOL     OW58799   2.404   1.546   8.402 -0.0803 -0.0815 -0.3073
18931SOL    HW158800   2.369   1.565   8.315  0.4922 -1.1974 -0.7950
18931SOL    HW258801   2.429   1.631   8.437 -1.2884  0.5021 -0.8003
18932SOL     OW58802   2.657   4.921   9.920 -0.5340  0.2404  0.1093
18932SOL    HW158803   2.567   4.897   9.939 -0.1108 -1.6305  0.0261
18932SOL    HW258804   2.670   4.894   9.829  0.2320  0.0403  0.2686
18933SOL     OW58805   7.909   9.837   9.880  0.0901 -0.1111  0.4365
18933SOL    HW158806   7.941   9.863   9.966 -1.3217 -0.9251  1.2421
18933SOL    HW258807   7.946   9.749   9.866  1.1530  0.4186 -0.2785
18934SOL     OW58808   8.165   6.787   2.717  0.1448 -0.7692  0.1053
18934SOL    HW158809   8.144   6.849   2.647  2.2157 -1.9344 -1.6694
18934SOL    HW258810   8.150   6.701   2.678  2.5505 -1.4876  0.6300
18935SOL     OW58811   8.792   0.932   3.637  0.2538  0.0003 -0.5029
18935SOL    HW158812   8.765   0.989   3.709 -0.1161  1.6588 -1.8869
18935SOL    HW258813   8.842   0.990   3.579  0.6584 -1.3268 -1.5187
18936SOL     OW58814   0.399   9.208   8.358 -0.3425  0.5497  0.7058
18936SOL    HW158815   0.411   9.301   8.379  0.1404  0.6537 -0.0025
18936SOL    HW258816   0.304   9.196   8.359 -0.5131  1.4875 -0.9711
18937SOL     OW58817   6.675   8.684   4.852  0.0938  0.0099  0.1923
18937SOL    HW158818   6.749   8.627   4.829  2.3290  2.6571  0.3292
18937SOL    HW258819   6.604   8.623   4.870  1.5539 -2.6578 -2.0748
18938SOL     OW58820   5.495   0.506   3.650  0.2626  0.0401 -0.1819
18938SOL    HW158821   5.421   0.465   3.606  0.5819  0.6756 -1.3344
18938SOL    HW258822   5.495   0.597   3.619  1.2654  0.1652  0.1461
18939SOL     OW58823   8.203  10.231   1.013  0.7956 -0.0405 -0.4652
18939SOL    HW158824   8.249  10.311   1.037  0.7116  0.2596 -1.2537
18939SOL    HW258825   8.264  10.184   0.957  0.0915  0.4833 -1.7310
18940SOL     OW58826   4.289  10.682   0.216  0.6090 -0.8213 -0.4912
18940SOL    HW158827   4.384  10.692   0.206  0.6526  0.8350  1.0313
18940SOL    HW258828   4.277  10.589   0.233  1.7460 -1.3796 -2.4194
18941SOL     OW58829   1.934   7.016   6.909  0.3678 -0.0028 -0.3227
18941SOL    HW158830   1.875   6.941   6.896 -1.0411  1.0299 -0.0935
18941SOL    HW258831   2.014   6.991   6.864 -0.2444 -1.4530 -0.6663
18942SOL     OW58832   2.797   5.923   0.390 -0.4289  0.1399 -0.1252
18942SOL    HW158833   2.874   5.908   0.336 -1.2547 -0.1457 -1.2628
18942SOL    HW258834   2.828   5.978   0.462  1.5040 -2.4754  1.1764
18943SOL     OW58835  10.345   3.294  10.273 -0.1188  0.4280 -0.7689
18943SOL    HW158836  10.416   3.356  10.256  0.0985  0.9427  1.5852
18943SOL    HW258837  10.286   3.341  10.333  0.1011 -1.6188  1.1866
18944SOL     OW58838   3.669   2.656   4.022 -0.0190 -0.3952  0.0875
18944SOL    HW158839   3.581   2.619   4.028  0.4186 -1.2230  2.5405
18944SOL    HW258840   3.654   2.750   4.017 -1.0669 -0.4835  0.9667
18945SOL     OW58841   1.002   7.952   3.125  0.4891 -0.1254 -0.4184
18945SOL    HW158842   0.950   8.015   3.175 -0.2659  0.9520 -2.4362
18945SOL    HW258843   0.938   7.897   3.081  1.1466 -2.1098  0.9819
18946SOL     OW58844   4.424   7.453   1.209  0.2908 -0.5399  0.0036
18946SOL    HW158845   4.425   7.531   1.265  0.7919 -1.8452  1.9207
18946SOL    HW258846   4.372   7.390   1.258 -1.2435 -1.0326 -2.1402
18947SOL     OW58847  10.422   8.984   9.487 -0.2061  0.0346 -0.5552
18947SOL    HW158848  10.406   8.894   9.459 -0.0390  0.4294 -1.9959
18947SOL    HW258849  10.344   9.033   9.460  0.0033  0.4548 -0.4247
18948SOL     OW58850  11.087  10.591   5.701 -0.4110  0.3345  0.2692
18948SOL    HW158851  11.054  10.650   5.634 -1.3766 -0.6523 -0.1522
18948SOL    HW258852  11.151  10.643   5.750 -0.5080  1.4032 -0.7080
18949SOL     OW58853   0.319   3.711   5.335 -0.5512 -0.8825  0.1238
18949SOL    HW158854   0.266   3.761   5.273 -1.6948 -0.4411  1.3943
18949SOL    HW258855   0.409   3.739   5.318 -1.0503  0.7843  0.0507
18950SOL     OW58856   6.359   9.601   1.774  0.6206 -0.6144 -0.6373
18950SOL    HW158857   6.426   9.655   1.816  0.2584  0.6017 -1.5691
18950SOL    HW258858   6.387   9.594   1.683  0.1621 -1.2106 -0.7403
18951SOL     OW58859   1.067  10.947   4.983  0.1139 -0.4465  0.0321
18951SOL    HW158860   1.082  10.868   5.035  2.6487 -0.4601 -0.5854
18951SOL    HW258861   1.118  11.015   5.028 -0.1923  0.2813 -0.7063
18952SOL     OW58862   8.885   9.788   0.823  0.3596 -0.2737 -0.0913
18952SOL    HW158863   8.975   9.789   0.790 -0.2967 -0.0624 -2.0553
18952SOL    HW258864   8.847   9.708   0.786 -0.6858  0.4454 -0.6253
18953SOL     OW58865   8.564   7.892   4.233 -0.1402 -0.1057  0.1497
18953SOL    HW158866   8.508   7.961   4.198  0.6009  0.4577  0.0450
18953SOL    HW258867   8.525   7.869   4.317  1.3489  2.7394  1.7713
18954SOL     OW58868   4.572   7.653   5.105 -0.1128 -0.0871  0.1380
18954SOL    HW158869   4.599   7.625   5.018 -2.1508 -1.4740 -0.1002
18954SOL    HW258870   4.651   7.641   5.159  0.8998 -0.1209 -1.2772
18955SOL     OW58871   6.911   4.310  10.153  0.3504 -0.8124 -0.3822
18955SOL    HW158872   6.949   4.230  10.115 -1.5729 -1.9009 -0.1742
18955SOL    HW258873   6.898   4.368  10.078  0.8572 -1.0906 -0.6928
18956SOL     OW58874   7.055   9.855   6.806  0.4590 -0.0942 -0.6652
18956SOL    HW158875   7.147   9.835   6.825  0.5312  1.1864  0.5165
18956SOL    HW258876   7.006   9.816   6.878  0.0619 -0.7634 -1.2861
18957SOL     OW58877   8.727   2.727   3.089 -0.6701 -0.0183  0.0448
18957SOL    HW158878   8.760   2.750   3.176 -1.7862  0.5334  0.3344
18957SOL    HW258879   8.792   2.665   3.054  0.9713  1.4595  0.3509
18958SOL     OW58880   9.093   9.005   6.860 -0.3144 -0.6604  0.0309
18958SOL    HW158881   9.161   9.007   6.928  0.8823 -3.1159 -0.9885
18958SOL    HW258882   9.021   8.955   6.900  0.2622 -1.8332 -0.3769
18959SOL     OW58883   3.183   2.022   3.010 -0.0983 -0.0294 -0.1238
18959SOL    HW158884   3.184   1.975   2.927 -0.1658 -0.5380  0.1525
18959SOL    HW258885   3.098   2.002   3.048 -0.2813  0.6423 -0.1733
18960SOL     OW58886   2.871   2.783   8.318  0.6329  0.1692 -0.3513
18960SOL    HW158887   2.910   2.868   8.339  1.2655 -0.3805  0.7669
18960SOL    HW258888   2.919   2.753   8.240 -0.9365  1.6956 -1.9949
18961SOL     OW58889  10.460   3.937   0.587 -0.1400  0.2506  0.0876
18961SOL    HW158890  10.539   3.904   0.544 -0.6879 -0.8650 -0.1102
18961SOL    HW258891  10.491   3.979   0.667  0.4491 -4.2561  2.5519
18962SOL     OW58892   7.393   9.205   3.970  0.1227 -0.4513 -0.0747
18962SOL    HW158893   7.318   9.260   3.948  1.9155  2.2594  0.1622
18962SOL    HW258894   7.394   9.138   3.901 -0.5917  1.4270 -2.0389
18963SOL     OW58895   0.932   9.031   6.960  0.4697 -0.2614 -0.6028
18963SOL    HW158896   0.972   9.082   7.031  1.2031 -1.9987  0.2871
18963SOL    HW258897   0.842   9.062   6.957  0.6140  0.3512  0.6167
18964SOL     OW58898   1.358  10.712   6.459  0.3024 -0.1418 -0.3012
18964SOL    HW158899   1.331  10.709   6.551 -0.4658 -1.3265 -0.5346
18964SOL    HW258900   1.333  10.800   6.430  1.0496  0.4437  0.7430
18965SOL     OW58901   9.007   0.000   8.165  0.0615 -0.3725 -0.1684
18965SOL    HW158902   8.945   0.008   8.238  0.7305  1.3127  0.2713
18965SOL    HW258903   8.974  -0.073   8.113 -1.1126 -0.8402  1.1741
18966SOL     OW58904  11.008   5.780   6.625 -0.2146  0.1803  0.3240
18966SOL    HW158905  11.092   5.774   6.671  0.8648 -0.8543 -1.6657
18966SOL    HW258906  10.946   5.805   6.693  1.2092 -1.6182  2.4528
18967SOL     OW58907  10.140   9.050   8.670  0.1837 -0.4246  0.3086
18967SOL    HW158908  10.187   8.988   8.614 -0.1026 -1.5400  1.2533
18967SOL    HW258909  10.192   9.052   8.751  1.0185  1.7373 -0.2161
18968SOL     OW58910   6.091  10.518   4.029 -1.1749 -0.4351  0.3981
18968SOL    HW158911   6.080  10.550   4.119  0.7891  0.2571  0.4371
18968SOL    HW258912   6.013  10.549   3.983 -1.1748  1.1107  1.3645
18969SOL     OW58913   5.737   4.387   0.171  0.0347  0.0274 -0.3874
18969SOL    HW158914   5.648   4.363   0.195 -0.0166  1.9717  1.6072
18969SOL    HW258915   5.788   4.377   0.251  1.7389 -1.3325 -1.5517
18970SOL     OW58916   7.589   9.105   3.270 -0.4867  0.3357 -0.4093
18970SOL    HW158917   7.549   9.160   3.337  0.3869  2.0038 -1.1936
18970SOL    HW258918   7.522   9.040   3.249 -1.3672  0.7800  0.9030
18971SOL     OW58919   0.325   6.315   2.354 -0.6895 -0.0148 -0.1489
18971SOL    HW158920   0.297   6.223   2.355 -2.6701  0.5370  0.0786
18971SOL    HW258921   0.418   6.312   2.377 -0.5019 -2.0123 -0.9526
18972SOL     OW58922   0.893   8.769   0.071 -0.0818  0.3657  0.5675
18972SOL    HW158923   0.942   8.851   0.062  0.2332  0.2130  0.8551
18972SOL    HW258924   0.832   8.769  -0.002  0.5217  0.4506  0.0527
18973SOL     OW58925   1.248   9.246   3.848 -0.2826 -0.0081 -0.7392
18973SOL    HW158926   1.274   9.274   3.935 -0.7992 -0.2144 -0.5160
18973SOL    HW258927   1.318   9.276   3.791  0.2741 -0.2613 -0.1929
18974SOL     OW58928   2.922   0.720   6.598 -0.3281  0.5185  0.2100
18974SOL    HW158929   3.010   0.752   6.579 -0.9377  1.6879 -0.7422
18974SOL    HW258930   2.889   0.779   6.666 -1.1366  1.4380 -0.9410
18975SOL     OW58931   8.777   5.979   8.205 -0.6451 -0.6221 -0.1741
18975SOL    HW158932   8.688   5.946   8.218 -0.8289  0.3878  1.3782
18975SOL    HW258933   8.812   5.990   8.293  0.7472 -0.2535 -0.7432
18976SOL     OW58934   2.200   5.053   9.974  0.0209  0.1824  0.1908
18976SOL    HW158935   2.175   5.065   9.883  0.7389 -1.6674 -0.2884
18976SOL    HW258936   2.122   5.077  10.024 -1.5396 -1.8755 -1.0791
18977SOL     OW58937   2.909   8.553   4.895 -0.1859 -0.1712 -0.0739
18977SOL    HW158938   3.000   8.536   4.873 -0.9360 -1.4872 -2.5281
18977SOL    HW258939   2.909   8.564   4.990  2.4271 -0.7124  0.0575
18978SOL     OW58940   7.290   3.997   6.911  0.0938  0.3384 -0.1008
18978SOL    HW158941   7.343   3.948   6.849  0.8310  2.0841 -0.8992
18978SOL    HW258942   7.307   3.954   6.995  3.7090  1.4488 -0.0983
18979SOL     OW58943   4.968   7.479   8.090  0.4934 -0.2131 -0.0306
18979SOL    HW158944   4.954   7.570   8.115  1.2395 -0.2061  0.3680
18979SOL    HW258945   5.022   7.483   8.011  0.8257 -0.3177  0.1903
18980SOL     OW58946   8.551   5.926   6.261 -0.5289 -0.0698  0.0925
18980SOL    HW158947   8.632   5.975   6.252  1.1101 -2.2487  1.8257
18980SOL    HW258948   8.567   5.844   6.213 -1.5801 -0.6422  0.6786
18981SOL     OW58949   9.677   5.956   0.265  0.5447 -0.5989  0.6792
18981SOL    HW158950   9.597   5.911   0.292  1.0105 -2.3068 -0.5440
18981SOL    HW258951   9.647   6.041   0.232 -0.7104 -1.0111  0.6945
18982SOL     OW58952  10.847   5.525  10.074  0.1722  0.1200  0.0730
18982SOL    HW158953  10.872   5.472   9.998  0.2319  1.5123 -0.9027
18982SOL    HW258954  10.916   5.507  10.138  1.2366  0.4514 -0.9437
18983SOL     OW58955   8.207   9.859   6.800  0.2403 -0.2102  0.2954
18983SOL    HW158956   8.168   9.945   6.789  0.9098  0.1933  1.0258
18983SOL    HW258957   8.283   9.860   6.742  1.0499  0.2105  1.3332
18984SOL     OW58958   9.181   5.200   5.694  0.1355  0.2003 -0.3801
18984SOL    HW158959   9.103   5.199   5.750  0.5835  1.4748  0.3140
18984SOL    HW258960   9.184   5.113   5.655 -0.8295 -0.3470  0.7026
18985SOL     OW58961   9.758   3.988   1.985  0.2271  0.1930  0.1955
18985SOL    HW158962   9.722   3.953   2.066 -1.1307 -2.5558 -1.4327
18985SOL    HW258963   9.853   3.978   1.995  0.7400  5.0825  3.4804
18986SOL     OW58964  10.190   0.646   8.327  0.0468  0.3265 -0.8931
18986SOL    HW158965  10.096   0.632   8.337  0.3387 -1.4850 -0.2654
18986SOL    HW258966  10.226   0.634   8.415  1.1752 -2.2269 -1.6125
18987SOL     OW58967   9.400   2.681  10.778 -0.4839 -0.5028 -0.9264
18987SOL    HW158968   9.346   2.603  10.768 -2.0310 -0.0030  2.3421
18987SOL    HW258969   9.448   2.668  10.860 -1.1624  2.1218  0.0023
18988SOL     OW58970   8.742   9.511   3.304 -0.2810 -0.2155 -0.3380
18988SOL    HW158971   8.676   9.565   3.348 -1.2735  0.4198 -2.4859
18988SOL    HW258972   8.779   9.569   3.237  1.5401 -0.9918 -0.0440
18989SOL     OW58973   5.885  10.182   7.726  0.4270  0.4575 -0.1750
18989SOL    HW158974   5.928  10.161   7.809  1.1388  2.0842 -0.1084
18989SOL    HW258975   5.948  10.155   7.659 -0.5772 -1.8591 -0.2930
18990SOL     OW58976   3.041   6.227   3.760 -0.7053 -0.2552  0.4747
18990SOL    HW158977   3.128   6.267   3.754 -0.3703 -0.8669  1.1363
18990SOL    HW258978   2.993   6.263   3.685 -0.9554  2.6522  1.8672
18991SOL     OW58979   7.706  10.206   4.723  0.6380 -0.3570  0.4727
18991SOL    HW158980   7.641  10.174   4.660 -0.0424  1.1089  0.3756
18991SOL    HW258981   7.709  10.301   4.707  2.2691 -0.2962  0.9876
18992SOL     OW58982   8.185   9.084   3.142 -0.3538  0.3092  0.5024
18992SOL    HW158983   8.099   9.093   3.100  0.3496 -1.4463 -1.4935
18992SOL    HW258984   8.226   9.169   3.130 -1.2419  0.7021  0.1330
18993SOL     OW58985   2.873   1.571   5.751  0.0444 -0.2680 -0.2739
18993SOL    HW158986   2.968   1.571   5.741  0.3278  0.5526  1.8883
18993SOL    HW258987   2.847   1.481   5.733  1.4107 -0.8206  0.3754
18994SOL     OW58988   8.551   9.228  10.347  0.4116 -0.0075  0.2754
18994SOL    HW158989   8.509   9.289  10.285  0.8660 -0.2500 -0.2826
18994SOL    HW258990   8.638   9.214  10.311 -0.1423 -2.1148 -0.4195
18995SOL     OW58991   1.420  10.273   5.625  0.0122 -0.1133 -0.8246
18995SOL    HW158992   1.491  10.232   5.675 -1.3669 -1.5583  0.0466
18995SOL    HW258993   1.405  10.213   5.552  0.0438  0.4650 -1.3118
18996SOL     OW58994  10.430   0.088   9.935  0.6829  0.1467 -0.1399
18996SOL    HW158995  10.377   0.063   9.859  2.8283 -0.2625 -1.6026
18996SOL    HW258996  10.394   0.173   9.962 -1.0075 -0.3466 -0.7332
18997SOL     OW58997   0.977   5.666  11.061 -0.5213 -0.3103 -0.1580
18997SOL    HW158998   0.974   5.586  11.009 -0.3980  1.1225 -2.4897
18997SOL    HW258999   0.911   5.723  11.023 -0.6881  0.6898  1.5176
18998SOL     OW59000   0.778   6.992   5.694 -0.1865  0.4750  0.9128
18998SOL    HW159001   0.700   6.938   5.687 -0.5180  0.9789  0.6734
18998SOL    HW259002   0.851   6.930   5.698 -0.5908  0.0088  1.0491
18999SOL     OW59003   5.541  10.430  10.626 -0.1698  0.0685  0.3480
18999SOL    HW159004   5.589  10.504  10.590 -0.3034 -0.0737 -0.1397
18999SOL    HW259005   5.550  10.439  10.721 -1.0212  1.2774  0.3437
19000SOL     OW59006   4.712   7.111   2.054 -0.0708 -0.1425  0.1168
19000SOL    HW159007   4.787   7.069   2.095 -1.3485 -3.2977 -0.5026
19000SOL    HW259008   4.694   7.059   1.976 -2.1065  1.3006 -0.4793
19001SOL     OW59009   1.943   7.582   3.770 -0.7351  0.6536 -0.1245
19001SOL    HW159010   1.927   7.496   3.810 -0.3403  1.9358  3.0328
19001SOL    HW259011   2.038   7.588   3.763 -0.7890  0.5046 -1.2837
19002SOL     OW59012   6.853   7.485   7.632 -0.1647 -0.5941 -0.2166
19002SOL    HW159013   6.895   7.437   7.703 -1.6302 -0.9185  0.4705
19002SOL    HW259014   6.921   7.544   7.599  1.4774 -2.5905 -0.6205
19003SOL     OW59015   3.520  10.809   7.286  0.1420  0.3407 -0.2023
19003SOL    HW159016   3.485  10.895   7.260 -0.5732  0.1866  0.2182
19003SOL    HW259017   3.539  10.765   7.203  0.4061  0.8630 -0.4239
19004SOL     OW59018   9.892   2.445   9.370 -0.1018  0.2254  0.1761
19004SOL    HW159019   9.930   2.529   9.395  1.9786 -0.3843 -0.6830
19004SOL    HW259020   9.830   2.466   9.300  0.0664  1.0857  0.2781
19005SOL     OW59021   2.462   3.951   5.043  0.0663 -0.2384  0.2229
19005SOL    HW159022   2.465   3.870   4.993  3.7130  0.0152 -0.2439
19005SOL    HW259023   2.441   4.018   4.979 -2.6889 -0.6640  0.5617
19006SOL     OW59024   4.494   3.203   3.191 -0.3924 -0.3698 -0.4845
19006SOL    HW159025   4.481   3.182   3.283  0.2453 -0.6117 -0.4478
19006SOL    HW259026   4.445   3.136   3.144 -2.3637  0.8712 -0.3237
19007SOL     OW59027   8.505   2.553   0.486  0.0699 -0.0727  0.5068
19007SOL    HW159028   8.464   2.626   0.440  1.0090  0.1936  0.0721
19007SOL    HW259029   8.490   2.477   0.429 -0.6511 -0.1727  0.8188
19008SOL     OW59030   0.321   6.978   3.092  0.0239 -0.8584  0.4472
19008SOL    HW159031   0.301   7.028   3.013 -3.2690 -1.2713  0.8670
19008SOL    HW259032   0.324   7.043   3.161 -1.4822 -0.8766  0.5711
19009SOL     OW59033   1.997   1.450   7.911 -0.0584  0.4057  0.0811
19009SOL    HW159034   1.925   1.468   7.971  0.5560  1.3879  0.5465
19009SOL    HW259035   1.961   1.387   7.848 -1.0286  0.1688  0.8483
19010SOL     OW59036   0.462   7.169  10.992  0.1705 -0.2839 -0.2905
19010SOL    HW159037   0.544   7.126  10.968 -0.9469 -2.8786  0.1888
19010SOL    HW259038   0.481   7.214  11.074  2.0352  2.3959 -2.0219
19011SOL     OW59039   1.428   8.744   0.220  0.3379 -0.0451  0.2542
19011SOL    HW159040   1.408   8.724   0.311  0.2997 -0.9764  0.0460
19011SOL    HW259041   1.343   8.759   0.179  0.2274 -1.3124 -0.0088
19012SOL     OW59042   2.579   4.269   1.080 -0.2244  0.1348  0.1807
19012SOL    HW159043   2.514   4.241   1.016 -1.0639 -0.5246  1.2932
19012SOL    HW259044   2.534   4.264   1.164  1.0841  0.2669  0.9164
19013SOL     OW59045   8.612   8.232   8.729  0.1889 -0.6343  0.5456
19013SOL    HW159046   8.564   8.310   8.756 -1.1372 -2.0337  2.5763
19013SOL    HW259047   8.704   8.253   8.742 -0.1381  0.6270  0.8951
19014SOL     OW59048   0.516   6.829   7.472  0.3741 -0.4986  0.1817
19014SOL    HW159049   0.451   6.888   7.434  1.6520  0.5288 -0.5070
19014SOL    HW259050   0.553   6.782   7.397  1.4019 -0.0292  0.3702
19015SOL     OW59051   0.882   2.377   5.321 -0.0300  0.0447 -0.0924
19015SOL    HW159052   0.846   2.356   5.234  0.9164 -0.7058 -0.3197
19015SOL    HW259053   0.812   2.353   5.382 -0.7084  0.5782 -0.6339
19016SOL     OW59054   1.178   4.124   9.347  0.2091 -0.0251 -0.1663
19016SOL    HW159055   1.219   4.057   9.401 -0.7830 -0.2065  0.3789
19016SOL    HW259056   1.115   4.166   9.405 -2.9661 -2.0830 -1.8601
19017SOL     OW59057   8.270   9.405   5.194 -0.0000 -0.3437  0.0206
19017SOL    HW159058   8.229   9.344   5.255  1.1374 -0.1793  0.9588
19017SOL    HW259059   8.315   9.350   5.131 -0.1987 -0.4880  0.0045
19018SOL     OW59060  10.181   5.762  10.777 -0.1561  0.2408 -0.6804
19018SOL    HW159061  10.188   5.746  10.871  0.5629  3.2670 -0.1305
19018SOL    HW259062  10.227   5.688  10.737  1.6116  0.0759  1.4587
19019SOL     OW59063   2.608   3.117   1.021 -0.0022  0.7001 -0.1770
19019SOL    HW159064   2.630   3.027   1.044 -1.3825  0.2374 -0.6134
19019SOL    HW259065   2.588   3.159   1.105  2.9612  1.3164  0.3275
19020SOL     OW59066   1.157   5.996   2.162  0.3931 -0.1534 -1.2257
19020SOL    HW159067   1.078   5.977   2.212  0.7187  1.4356 -0.0308
19020SOL    HW259068   1.190   5.910   2.137 -0.2926 -0.9776  0.4937
19021SOL     OW59069  10.593   8.588   0.992 -0.4101  0.0762  0.2620
19021SOL    HW159070  10.685   8.563   0.996 -0.9286 -2.0088  0.0424
19021SOL    HW259071  10.591   8.659   0.928  1.0718  0.3525  0.4834
19022SOL     OW59072   4.193   5.691   0.199  0.1649 -0.3905  0.2803
19022SOL    HW159073   4.107   5.680   0.158  0.3916  3.0923 -1.5006
19022SOL    HW259074   4.245   5.618   0.165 -0.9793 -0.1986 -2.0791
19023SOL     OW59075  10.004   8.409   8.886  0.1192 -0.0438  0.4106
19023SOL    HW159076  10.001   8.485   8.828  2.3614  2.1604  2.8609
19023SOL    HW259077   9.913   8.382   8.896 -0.7181  2.0343 -0.9616
19024SOL     OW59078   7.469  10.800   1.760  0.5512 -0.3313  0.0276
19024SOL    HW159079   7.498  10.875   1.707 -1.0653 -0.1221 -0.6299
19024SOL    HW259080   7.376  10.817   1.775  0.4056 -1.6993  0.7659
19025SOL     OW59081   1.672   8.966   4.636  0.5912  0.2714  0.7232
19025SOL    HW159082   1.745   8.939   4.692  2.3586 -0.4641 -1.7777
19025SOL    HW259083   1.604   8.900   4.653  1.1762 -0.0937  1.7671
19026SOL     OW59084   5.030   8.848   0.869  0.0790  0.5582 -0.0294
19026SOL    HW159085   5.041   8.820   0.778  3.8942  1.3329  0.0006
19026SOL    HW259086   5.019   8.943   0.864 -0.2631  0.5391  0.3126
19027SOL     OW59087   8.237   6.386   8.027  0.4312  0.2645  0.1409
19027SOL    HW159088   8.224   6.439   8.106 -3.5960  0.7115 -0.6026
19027SOL    HW259089   8.207   6.442   7.955  3.1639 -0.4432 -1.7089
19028SOL     OW59090   9.812   8.199   3.876 -0.1358  0.8104  0.4588
19028SOL    HW159091   9.836   8.234   3.961 -1.4317 -0.3767  1.3555
19028SOL    HW259092   9.793   8.276   3.822  0.3179  1.5592  1.3602
19029SOL     OW59093   1.805   0.187   4.288  0.0252 -0.6395  0.3642
19029SOL    HW159094   1.887   0.236   4.298 -0.5948  0.2784  1.0888
19029SOL    HW259095   1.833   0.099   4.263  1.2135 -0.2253  0.1576
19030SOL     OW59096   4.774   4.911   1.332 -0.6010 -0.2214 -0.3332
19030SOL    HW159097   4.697   4.964   1.310 -1.9574 -1.9068  0.0931
19030SOL    HW259098   4.831   4.918   1.256  0.6020  3.9462  0.7255
19031SOL     OW59099   8.309  11.054   1.002 -0.1595  0.5881  0.0623
19031SOL    HW159100   8.315  10.959   0.992  1.3086  0.8408 -1.8947
19031SOL    HW259101   8.340  11.070   1.091  2.2263 -0.5751 -0.4852
19032SOL     OW59102   8.665   9.789   8.389  0.1498 -0.0652 -0.3392
19032SOL    HW159103   8.696   9.811   8.302 -0.4706  2.1943 -0.0567
19032SOL    HW259104   8.641   9.696   8.384  1.0602 -0.2266 -2.2630
19033SOL     OW59105   7.253   6.034   0.500  0.0199 -0.0340 -0.0985
19033SOL    HW159106   7.233   6.108   0.557  1.2782 -0.8190  1.4127
19033SOL    HW259107   7.168   5.994   0.483 -0.4681  0.6833  0.5743
19034SOL     OW59108   4.732   6.192   3.545 -0.1807  0.4186 -0.2777
19034SOL    HW159109   4.743   6.251   3.470  1.8610 -0.3340 -0.6240
19034SOL    HW259110   4.812   6.203   3.597 -0.6677 -0.5567  0.7350
19035SOL     OW59111   6.344   4.868   1.008  0.8217 -0.7379  0.0475
19035SOL    HW159112   6.429   4.912   0.999  0.2088  0.5785  0.3740
19035SOL    HW259113   6.306   4.907   1.087 -1.3440  0.9841 -1.7031
19036SOL     OW59114   7.737   2.432   6.869  0.3512 -0.1880 -0.5566
19036SOL    HW159115   7.747   2.515   6.823  0.3852 -0.7177 -1.5504
19036SOL    HW259116   7.649   2.402   6.846  0.4875 -0.6107 -0.5512
19037SOL     OW59117   0.479   7.178   6.398  0.2281 -0.2679  0.1881
19037SOL    HW159118   0.529   7.252   6.365  1.5447 -0.9963  0.4926
19037SOL    HW259119   0.528   7.147   6.474 -0.2462 -1.4984  0.0210
19038SOL     OW59120   0.341   4.896   4.887  0.4954 -0.3259 -0.6620
19038SOL    HW159121   0.318   4.882   4.979 -0.4789 -2.7363 -1.1996
19038SOL    HW259122   0.429   4.858   4.878  1.5851  1.9253 -0.3127
19039SOL     OW59123  10.809   9.916   8.477 -0.1156 -0.4124 -0.4098
19039SOL    HW159124  10.889   9.884   8.437 -0.3264 -1.1674 -0.2592
19039SOL    HW259125  10.816   9.888   8.569  0.2557  1.0798  0.0420
19040SOL     OW59126   8.370   7.138   9.592  0.7912 -0.7706  0.6831
19040SOL    HW159127   8.441   7.085   9.628  2.2918  0.7969  0.1097
19040SOL    HW259128   8.412   7.218   9.561 -1.6027  1.7477  3.2864
19041SOL     OW59129   3.263   1.070   6.622 -0.3806 -0.3448  0.0693
19041SOL    HW159130   3.270   1.017   6.701  0.3473 -0.3674 -0.0037
19041SOL    HW259131   3.251   1.159   6.654  0.0103 -0.3409  0.2129
19042SOL     OW59132   9.597   8.548   9.370 -1.4228  0.7244 -0.4339
19042SOL    HW159133   9.596   8.571   9.277  3.5120  2.0159 -0.4426
19042SOL    HW259134   9.580   8.630   9.416 -3.2381  0.2068 -0.0891
19043SOL     OW59135   4.027   6.332   8.473 -0.2327 -0.0615 -0.0876
19043SOL    HW159136   3.945   6.341   8.521  0.6782  2.3144  1.1925
19043SOL    HW259137   4.022   6.399   8.404 -0.1096 -1.1586 -1.1995
19044SOL     OW59138  10.040   8.291   6.637 -0.4055 -0.1635  0.2401
19044SOL    HW159139  10.049   8.382   6.664 -1.0399  0.1184 -0.4601
19044SOL    HW259140  10.101   8.281   6.565  0.3274 -0.5547  0.8979
19045SOL     OW59141   3.350   9.946   1.316  0.1361  0.1856  0.2522
19045SOL    HW159142   3.352   9.899   1.233  1.1626 -0.7318  0.7716
19045SOL    HW259143   3.258   9.944   1.343 -0.0340 -0.4033 -0.3666
19046SOL     OW59144   4.674   3.245   4.312  0.5943  0.2087  0.2153
19046SOL    HW159145   4.628   3.329   4.304 -0.3853 -0.0888  2.1267
19046SOL    HW259146   4.755   3.266   4.359 -0.5415 -0.1204  2.4524
19047SOL     OW59147   7.694   5.589   8.159  0.4731 -0.1062 -0.4683
19047SOL    HW159148   7.625   5.605   8.095  2.0289 -1.0753 -2.5272
19047SOL    HW259149   7.775   5.584   8.107  1.6073 -2.7654  1.2804
19048SOL     OW59150   8.909   5.799   5.855  0.3179 -0.0944  0.1975
19048SOL    HW159151   8.953   5.747   5.922  1.2911  0.2373 -0.1757
19048SOL    HW259152   8.828   5.828   5.896  1.4665  1.1736  1.6920
19049SOL     OW59153   5.152   9.376   1.642 -0.4997 -0.5925 -0.4297
19049SOL    HW159154   5.079   9.437   1.633 -1.5202 -1.8460 -1.0651
19049SOL    HW259155   5.230   9.431   1.645 -1.3857  0.7250 -0.9223
19050SOL     OW59156   7.353   1.808   5.390  0.6702 -0.6484 -0.2966
19050SOL    HW159157   7.425   1.753   5.360  1.2101  1.0559 -2.3642
19050SOL    HW259158   7.344   1.875   5.322 -1.7573  0.1986  0.7504
19051SOL     OW59159   0.289  10.127   5.613 -0.7026  0.3072  0.7043
19051SOL    HW159160   0.328  10.157   5.532 -0.0992 -0.8130  0.5617
19051SOL    HW259161   0.330  10.181   5.681 -2.9888  2.9747  0.1378
19052SOL     OW59162   1.013  10.150  10.869 -0.2196 -0.1894 -0.7868
19052SOL    HW159163   0.920  10.166  10.854 -0.2087 -0.7529 -1.5290
19052SOL    HW259164   1.017  10.061  10.903 -0.0333  0.2164  0.2726
19053SOL     OW59165   8.713   5.911   7.737 -0.0442  0.2240 -0.1063
19053SOL    HW159166   8.802   5.894   7.766 -0.4672  1.1680  1.8725
19053SOL    HW259167   8.690   5.994   7.777 -1.3881  0.6309 -1.6260
19054SOL     OW59168   4.848   6.628   6.414  0.5608  0.0099 -0.3195
19054SOL    HW159169   4.859   6.631   6.318  3.0902 -2.0151 -0.2082
19054SOL    HW259170   4.898   6.550   6.441  0.9714  1.2225  2.7813
19055SOL     OW59171   2.676   0.833   6.188 -0.3957 -0.4731 -0.4016
19055SOL    HW159172   2.605   0.897   6.176  1.2124  2.2034  2.6581
19055SOL    HW259173   2.742   0.859   6.123 -0.2477  0.2370  0.0201
19056SOL     OW59174   7.829   1.079   5.895  0.8640  0.1136 -0.6239
19056SOL    HW159175   7.776   1.015   5.943  0.5427  1.0163  0.2592
19056SOL    HW259176   7.767   1.122   5.837  1.3508 -1.3425 -2.2960
19057SOL     OW59177   7.004   6.129   9.354 -0.4114 -0.5924 -0.1052
19057SOL    HW159178   6.923   6.170   9.383 -0.5496 -2.3047  2.1791
19057SOL    HW259179   7.016   6.160   9.264 -3.6697 -0.4374 -0.5945
19058SOL     OW59180   5.529  10.121   8.731 -0.5641 -0.6267  0.3206
19058SOL    HW159181   5.471  10.107   8.806 -0.8738 -0.7639  0.0571
19058SOL    HW259182   5.530  10.037   8.685 -2.2673  0.1111 -1.1507
19059SOL     OW59183   8.037   2.614   8.014 -0.3035 -0.2117  0.3644
19059SOL    HW159184   8.047   2.694   8.064 -0.1327  1.4813 -2.1923
19059SOL    HW259185   7.945   2.590   8.025 -0.7342  1.1924 -0.0031
19060SOL     OW59186   9.633   9.655   0.553 -0.3617  0.0353 -0.0112
19060SOL    HW159187   9.542   9.675   0.529 -0.2091 -0.1046 -0.7235
19060SOL    HW259188   9.684   9.726   0.515 -0.1146 -0.1991 -0.1194
19061SOL     OW59189   0.592   2.979   4.204  0.4102 -0.0557 -0.3624
19061SOL    HW159190   0.638   3.062   4.199 -0.5050  0.5443  0.9222
19061SOL    HW259191   0.646   2.919   4.151  1.7473  1.0216 -0.2769
19062SOL     OW59192   1.957   7.887   2.633 -0.0169  0.3175  0.1742
19062SOL    HW159193   2.032   7.836   2.602  0.2681  0.8485 -0.0191
19062SOL    HW259194   1.988   7.977   2.634 -0.4304  0.4603  0.7827
19063SOL     OW59195   9.178   7.163   5.851 -0.3037 -0.0378  0.0171
19063SOL    HW159196   9.135   7.239   5.813  0.4039 -0.9489 -2.7961
19063SOL    HW259197   9.107   7.102   5.870 -0.5581 -0.3399 -1.7558
19064SOL     OW59198   0.307  11.003   4.260  0.0295  0.4187  0.2847
19064SOL    HW159199   0.293  11.089   4.221  1.7748  1.7321  2.3224
19064SOL    HW259200   0.371  10.961   4.203  1.4301  1.7053  0.8412
19065SOL     OW59201  10.661   8.819   1.591 -0.0226 -0.9060 -0.1983
19065SOL    HW159202  10.754   8.805   1.606 -0.0605 -0.5899  0.4094
19065SOL    HW259203  10.656   8.902   1.544 -0.0807  0.3148  1.8288
19066SOL     OW59204   9.807   2.379   0.618 -0.6182  0.1137 -0.4410
19066SOL    HW159205   9.789   2.401   0.527 -1.8898  0.1246 -0.1986
19066SOL    HW259206   9.864   2.302   0.613  2.7650  2.4507 -1.2886
19067SOL     OW59207   1.786   0.200   1.055 -0.5610 -0.8431 -0.8461
19067SOL    HW159208   1.752   0.211   0.966 -0.1423  0.5108 -0.8727
19067SOL    HW259209   1.835   0.281   1.071  0.5979 -1.6897  0.0742
19068SOL     OW59210   0.270   1.735   6.889  0.1296 -0.3529 -0.3557
19068SOL    HW159211   0.209   1.662   6.896  0.1502 -0.2212  1.7910
19068SOL    HW259212   0.344   1.699   6.840  0.1986 -1.8386  0.7614
19069SOL     OW59213   9.387   2.987   7.704 -0.2394 -0.7209 -0.0702
19069SOL    HW159214   9.475   2.991   7.742 -0.1314 -1.6624 -0.1970
19069SOL    HW259215   9.329   3.016   7.774  0.3960  3.9176 -1.1095
19070SOL     OW59216   7.964  11.045   4.043 -0.4556  0.0017  0.3912
19070SOL    HW159217   8.054  11.013   4.045  0.2654  1.8380  2.8936
19070SOL    HW259218   7.972  11.139   4.056 -2.7665  0.0719  1.8988
19071SOL     OW59219  10.868   7.170   1.025 -0.2209 -0.2163  0.3406
19071SOL    HW159220  10.888   7.078   1.007  0.2174 -0.1524  0.4911
19071SOL    HW259221  10.908   7.187   1.110  0.8947  0.4878 -0.3093
19072SOL     OW59222   3.715   6.671  11.005  0.0080  0.7166 -0.6492
19072SOL    HW159223   3.701   6.707  11.093 -0.3294  0.6367 -0.6694
19072SOL    HW259224   3.661   6.592  11.003 -3.3138  2.8184 -2.3048
19073SOL     OW59225   5.469   3.549   9.168  0.2093  0.3322 -0.8819
19073SOL    HW159226   5.446   3.582   9.255  2.7900  1.4849 -0.5691
19073SOL    HW259227   5.409   3.594   9.109  0.3003  1.7152  0.0447
19074SOL     OW59228   2.289   8.882   3.117  0.4538  0.1355 -0.5304
19074SOL    HW159229   2.313   8.795   3.084  1.2583  0.3240 -0.4683
19074SOL    HW259230   2.201   8.897   3.083 -0.9933 -1.9656  1.9340
19075SOL     OW59231   7.127   1.623  10.771 -0.3454 -0.2840 -0.2819
19075SOL    HW159232   7.155   1.692  10.711 -1.8712  0.9972  0.4113
19075SOL    HW259233   7.195   1.621  10.839 -0.6885  1.1010  0.1178
19076SOL     OW59234   5.493   1.439   9.010 -0.4178 -0.4614 -0.2900
19076SOL    HW159235   5.576   1.448   9.057 -0.1696 -0.3314 -0.7521
19076SOL    HW259236   5.504   1.360   8.957 -0.5358 -0.3556 -0.4726
19077SOL     OW59237   1.977   8.931   0.933  0.0442  0.2922  0.2389
19077SOL    HW159238   2.037   8.903   1.003  1.7081  0.6780 -0.9706
19077SOL    HW259239   2.034   8.970   0.867 -1.3977 -0.6611 -1.6614
19078SOL     OW59240   9.885   1.346   9.846 -0.0023  0.0583  0.0722
19078SOL    HW159241   9.972   1.374   9.818  0.8257 -2.1015  0.3165
19078SOL    HW259242   9.850   1.422   9.893  1.5671  1.1252 -0.3876
19079SOL     OW59243   0.736   1.746  10.939  0.2452 -0.7115 -0.0778
19079SOL    HW159244   0.814   1.777  10.893  0.0473 -0.0813  0.0111
19079SOL    HW259245   0.739   1.788  11.025 -0.2375 -0.6166 -0.1032
19080SOL     OW59246   3.533   0.258   6.378  0.1022  0.2522 -0.5973
19080SOL    HW159247   3.624   0.253   6.349  0.5455  1.7312  0.4196
19080SOL    HW259248   3.525   0.187   6.442 -0.1706 -1.3833 -2.3328
19081SOL     OW59249   6.269   3.766   8.757 -0.2352  0.0370  0.0988
19081SOL    HW159250   6.202   3.815   8.806  0.7098  1.2644  0.2106
19081SOL    HW259251   6.263   3.677   8.791 -1.6195  0.1810  0.3055
19082SOL     OW59252   2.761   8.167   8.915  0.0190  0.5700 -0.2345
19082SOL    HW159253   2.764   8.136   8.825 -0.7945 -1.1876  0.2904
19082SOL    HW259254   2.685   8.122   8.954  0.6531  0.8661  1.4549
19083SOL     OW59255  10.064  10.635   9.466  0.2136 -0.0235 -0.7985
19083SOL    HW159256   9.982  10.588   9.449 -1.4697  2.8336 -1.1763
19083SOL    HW259257  10.079  10.624   9.559 -1.4126  0.5346 -0.4286
19084SOL     OW59258   8.640   1.784   8.062  0.0465  0.2027  0.7214
19084SOL    HW159259   8.548   1.792   8.036  0.8157  1.2211 -2.0107
19084SOL    HW259260   8.658   1.867   8.107 -0.3724 -0.0459  1.3676
19085SOL     OW59261   1.285   0.428  10.801  0.5746  0.0750  0.4536
19085SOL    HW159262   1.356   0.439  10.864  1.2371 -0.1913 -0.2312
19085SOL    HW259263   1.248   0.516  10.792  2.0482  0.6226 -0.5954
19086SOL     OW59264   0.134   0.900   3.566  0.2981 -0.5094 -0.0355
19086SOL    HW159265   0.177   0.885   3.650  1.7097  1.1733 -0.4035
19086SOL    HW259266   0.069   0.967   3.583  1.9276  1.3182 -0.5829
19087SOL     OW59267   3.107   3.123   6.365 -0.3755  0.1197  0.5002
19087SOL    HW159268   3.147   3.136   6.450  0.0432 -0.6663  0.4340
19087SOL    HW259269   3.014   3.141   6.379  0.1925  3.9302  0.2161
19088SOL     OW59270   6.943   0.798   6.409  0.3116  0.5177  0.1721
19088SOL    HW159271   6.983   0.844   6.335  1.6848  0.4364  0.8439
19088SOL    HW259272   7.016   0.775   6.465 -0.7372  0.8790  1.7471
19089SOL     OW59273   7.168  10.128   2.374 -0.1873  0.0385 -0.0600
19089SOL    HW159274   7.182  10.210   2.421  0.6176 -0.8182  1.2494
19089SOL    HW259275   7.228  10.066   2.415 -0.8465 -1.2373 -0.9592
19090SOL     OW59276   8.725   0.223  10.212  0.0095  0.5731  0.0333
19090SOL    HW159277   8.805   0.219  10.264  0.4572 -0.4763 -0.7131
19090SOL    HW259278   8.656   0.242  10.276  0.7147  0.5558  0.8144
19091SOL     OW59279   5.757   9.596   2.782 -0.3479 -0.5513  0.3921
19091SOL    HW159280   5.730   9.515   2.737 -3.9775  0.3045  0.6930
19091SOL    HW259281   5.777   9.569   2.871 -0.3713 -1.2772  0.1830
19092SOL     OW59282   8.070   3.703   9.824  0.2025  0.6192 -0.1171
19092SOL    HW159283   8.076   3.753   9.743 -1.5695  1.5548  0.2882
19092SOL    HW259284   8.069   3.611   9.795  0.3317  0.9142 -1.0834
19093SOL     OW59285   8.007   5.733   9.570  0.1922  0.3684  0.1933
19093SOL    HW159286   7.936   5.672   9.592  0.2957  0.3773  0.5692
19093SOL    HW259287   8.040   5.702   9.486  1.0537 -0.8627  0.9527
19094SOL     OW59288   2.145   7.132   5.212  0.0358  0.2457 -0.1271
19094SOL    HW159289   2.067   7.131   5.157  0.0267  1.1110 -0.1377
19094SOL    HW259290   2.218   7.138   5.150  0.0958 -0.1373 -0.0974
19095SOL     OW59291   1.326   0.478   4.987 -0.0155  0.9115 -0.5833
19095SOL    HW159292   1.321   0.447   4.897 -1.5405 -1.2378  0.1503
19095SOL    HW259293   1.238   0.510   5.006 -0.4333 -0.8300  0.7740
19096SOL     OW59294   8.722   1.420   6.321  0.3444 -0.2960  0.2512
19096SOL    HW159295   8.739   1.498   6.268 -3.2156  0.3527 -0.1965
19096SOL    HW259296   8.780   1.430   6.397  1.9857  1.3074 -1.1042
19097SOL     OW59297   2.936  11.037   0.077 -0.2769  0.5917 -0.1189
19097SOL    HW159298   2.989  11.042  -0.003 -1.3811  0.4600 -0.8868
19097SOL    HW259299   2.846  11.056   0.047 -0.7379  0.3368  1.0582
19098SOL     OW59300   0.749   7.435   2.249  0.4549 -0.1279  0.7370
19098SOL    HW159301   0.824   7.480   2.210  1.0889 -0.0230  2.0148
19098SOL    HW259302   0.676   7.454   2.190  0.8670  1.9862  0.8309
19099SOL     OW59303   2.072   3.394   4.630 -0.5915 -0.2041  0.1283
19099SOL    HW159304   2.058   3.300   4.645  0.8439 -0.5859 -0.7236
19099SOL    HW259305   2.130   3.398   4.554 -2.0819  1.4488 -1.0082
19100SOL     OW59306   7.863   9.184   9.203 -0.3328 -0.1371 -0.9717
19100SOL    HW159307   7.794   9.219   9.259 -1.7409 -2.2043 -1.2871
19100SOL    HW259308   7.860   9.238   9.125 -0.9798  0.3802 -0.6028
19101SOL     OW59309  10.315   3.394   5.631 -0.2330  0.3108  0.6511
19101SOL    HW159310  10.220   3.404   5.621 -0.2681 -0.3785  0.2207
19101SOL    HW259311  10.349   3.484   5.636 -0.8376  0.5695  0.1589
19102SOL     OW59312   2.273   5.454   6.353  0.0375 -0.0456  0.0545
19102SOL    HW159313   2.356   5.500   6.347 -0.6368  1.1676 -0.3293
19102SOL    HW259314   2.287   5.388   6.421  0.5879  1.7341  1.7546
19103SOL     OW59315   5.505   0.061   6.467  0.4309 -0.6116  0.4317
19103SOL    HW159316   5.447   0.007   6.413  0.4619 -2.1939  1.8901
19103SOL    HW259317   5.446   0.104   6.530  0.5611 -0.0440  0.1705
19104SOL     OW59318   5.473   4.439   6.453 -0.5713 -0.3929 -0.1070
19104SOL    HW159319   5.506   4.485   6.530 -0.3225  0.5050 -0.7430
19104SOL    HW259320   5.402   4.385   6.487  1.3835 -2.2584  1.2655
19105SOL     OW59321   1.308   5.797   3.848  0.0470  0.0164 -0.5020
19105SOL    HW159322   1.239   5.749   3.802  0.2029 -0.9295  0.2322
19105SOL    HW259323   1.267   5.881   3.871 -0.0705  0.4853 -2.2413
19106SOL     OW59324   9.970   8.062   9.205 -0.6502 -0.1277 -0.3403
19106SOL    HW159325   9.902   7.995   9.210 -0.4226 -0.3535 -0.2246
19106SOL    HW259326   9.966   8.106   9.290 -0.9580  0.1641 -0.5032
19107SOL     OW59327   4.806   9.709   0.628 -0.0986  0.4808 -0.3443
19107SOL    HW159328   4.885   9.734   0.677 -1.2951  0.4670  1.7190
19107SOL    HW259329   4.782   9.788   0.580  0.1743  1.0736  0.4630
19108SOL     OW59330   2.678   3.061   5.476 -0.0070 -0.5616 -0.6021
19108SOL    HW159331   2.622   3.138   5.482  0.6643 -0.1501  0.9637
19108SOL    HW259332   2.627   2.991   5.518  0.8214 -0.0411  1.3903
19109SOL     OW59333   3.253   6.327   4.209 -0.2106  0.8700  0.9669
19109SOL    HW159334   3.232   6.243   4.251  1.2490  0.2384  0.5310
19109SOL    HW259335   3.284   6.303   4.122  2.2101  1.6327  1.5361
19110SOL     OW59336   7.318   8.939   0.675  0.1443  0.2409  0.3782
19110SOL    HW159337   7.243   8.983   0.716  0.0806  0.5203 -0.0324
19110SOL    HW259338   7.392   8.962   0.730 -0.0520  0.0628  0.7207
19111SOL     OW59339  10.337   2.520   7.802 -0.2596 -0.5704  0.0396
19111SOL    HW159340  10.316   2.613   7.790 -1.4806 -0.8679 -0.3119
19111SOL    HW259341  10.257   2.474   7.775 -0.2712 -1.6436  1.7568
19112SOL     OW59342   1.259   2.831   3.987  0.9441  0.2438 -0.7055
19112SOL    HW159343   1.225   2.760   4.041 -0.3221 -0.2762 -2.1442
19112SOL    HW259344   1.207   2.907   4.011  0.6740  0.1149 -0.8829
19113SOL     OW59345   5.015   6.826   3.126  0.0587  0.2544 -0.2428
19113SOL    HW159346   4.959   6.834   3.204 -1.9040 -2.9068 -1.1056
19113SOL    HW259347   5.103   6.847   3.157 -1.0301  1.6919  2.1568
19114SOL     OW59348  10.331   9.535   3.019 -0.3882 -0.0377  0.3106
19114SOL    HW159349  10.426   9.545   3.027 -0.2573  0.3618 -1.4927
19114SOL    HW259350  10.316   9.441   3.029  0.0465  0.0069  1.6777
19115SOL     OW59351   9.497   6.411   4.551 -0.0779  0.6890  0.5130
19115SOL    HW159352   9.587   6.391   4.578  0.7406 -0.4960 -2.6271
19115SOL    HW259353   9.486   6.364   4.468 -3.3423  1.4892  0.3554
19116SOL     OW59354   8.337   2.757  11.056  0.2314  0.0330  0.0449
19116SOL    HW159355   8.407   2.770  10.992  1.4391 -1.0300  1.1030
19116SOL    HW259356   8.257   2.783  11.009  1.4001  2.2251 -0.8690
19117SOL     OW59357   8.481   4.857   6.041  0.7088  0.1460 -0.6460
19117SOL    HW159358   8.461   4.812   6.122  0.8550 -1.0808 -1.2718
19117SOL    HW259359   8.436   4.941   6.048 -2.0143 -1.2159 -0.6665
19118SOL     OW59360   3.445   0.874   8.742 -0.1431 -1.4844 -0.5152
19118SOL    HW159361   3.479   0.861   8.653  0.3527 -1.5115 -0.3235
19118SOL    HW259362   3.350   0.874   8.731 -0.0832 -0.5913 -1.1723
19119SOL     OW59363   4.600   7.975   0.733  0.2032  0.3280  0.4432
19119SOL    HW159364   4.678   7.958   0.785  0.0506  0.2882  0.6586
19119SOL    HW259365   4.532   7.918   0.770  0.5633 -1.0474 -0.9556
19120SOL     OW59366   7.510   5.446  11.024  0.2286  0.5803  0.2131
19120SOL    HW159367   7.574   5.415  10.960 -0.3454  1.8825 -1.0642
19120SOL    HW259368   7.529   5.540  11.032  0.0592  0.5026  1.7174
19121SOL     OW59369  10.589   2.796   9.787 -0.3457  0.4903  0.8641
19121SOL    HW159370  10.620   2.713   9.824  0.4311  0.4017  0.0405
19121SOL    HW259371  10.502   2.808   9.826 -0.5242 -0.7687  0.9104
19122SOL     OW59372   7.593   2.316   3.335  0.1001 -0.8328 -0.0859
19122SOL    HW159373   7.513   2.306   3.386 -1.0717 -0.9499 -1.8548
19122SOL    HW259374   7.614   2.409   3.342 -1.5923 -0.2924 -1.5220
19123SOL     OW59375   6.660   7.633   9.759 -0.1432 -0.1055 -0.0437
19123SOL    HW159376   6.638   7.633   9.666  0.6025 -1.1324 -0.2397
19123SOL    HW259377   6.695   7.720   9.776  2.2708 -0.7408 -1.3811
19124SOL     OW59378   8.348   6.382   1.326  0.0631 -0.1381 -0.0908
19124SOL    HW159379   8.362   6.335   1.408 -0.2066  1.9898  1.2586
19124SOL    HW259380   8.353   6.475   1.350 -0.6682  0.5730 -2.3748
19125SOL     OW59381   7.836   1.705   7.950 -0.2405  0.0766  0.3256
19125SOL    HW159382   7.884   1.787   7.959 -1.8353  1.0843  0.0737
19125SOL    HW259383   7.884   1.643   8.005  2.1792  0.5896 -1.0855
19126SOL     OW59384   6.189  10.478   7.634  0.2852 -0.0248 -0.3297
19126SOL    HW159385   6.210  10.567   7.660  0.5630 -0.2814  0.3623
19126SOL    HW259386   6.169  10.433   7.717  1.7597 -1.0229 -0.4609
19127SOL     OW59387   3.957   4.585   1.871  0.3132 -0.0668  0.0611
19127SOL    HW159388   4.047   4.615   1.878 -0.0964  0.9067  1.7956
19127SOL    HW259389   3.955   4.503   1.920  0.4828 -0.7077 -0.9732
19128SOL     OW59390   2.619   8.382  10.865  0.0316  0.2748  0.4930
19128SOL    HW159391   2.642   8.304  10.916 -0.5298  0.3505  0.8799
19128SOL    HW259392   2.539   8.415  10.907 -1.6288 -0.7979 -1.6285
19129SOL     OW59393   2.877   4.140   8.834  0.1279 -0.1253 -0.9135
19129SOL    HW159394   2.891   4.117   8.926  1.3307  1.1893 -0.7305
19129SOL    HW259395   2.782   4.142   8.824 -0.0178 -0.6710  0.1945
19130SOL     OW59396   2.979   4.949   6.398 -0.2474 -0.0980 -0.1262
19130SOL    HW159397   3.017   4.903   6.324  1.6480  1.9967 -0.5940
19130SOL    HW259398   3.014   4.904   6.475 -1.0804 -1.4003 -0.4843
19131SOL     OW59399   5.213   2.472   3.076 -0.0341  0.3545  0.0186
19131SOL    HW159400   5.238   2.395   3.026  0.2396  0.3122  0.2186
19131SOL    HW259401   5.186   2.536   3.010 -2.7232 -0.7421 -0.0736
19132SOL     OW59402  10.664   0.642   1.878 -0.7839 -0.0572 -0.3853
19132SOL    HW159403  10.711   0.610   1.955 -0.5994  1.0763  0.0018
19132SOL    HW259404  10.670   0.571   1.814 -0.0485 -0.6109  0.2818
19133SOL     OW59405   7.450   5.080   0.791 -0.2427  0.0444 -0.7608
19133SOL    HW159406   7.363   5.087   0.829 -0.3046 -0.5002 -0.7884
19133SOL    HW259407   7.450   4.995   0.747  0.0876  0.3174 -1.3126
19134SOL     OW59408   4.570  11.052   7.700  0.2495  0.4134 -0.0940
19134SOL    HW159409   4.652  11.093   7.672  0.0298  0.2720 -0.9774
19134SOL    HW259410   4.502  11.101   7.655 -0.2300  1.0293  1.2334
19135SOL     OW59411  10.529   2.278   6.776 -0.2086  0.4304 -0.0725
19135SOL    HW159412  10.575   2.351   6.735 -0.3778  0.4504 -0.2244
19135SOL    HW259413  10.507   2.309   6.864  0.3971  0.2905  0.1353
19136SOL     OW59414   9.010   6.278   3.995 -0.2353 -0.1184  0.1131
19136SOL    HW159415   8.972   6.190   4.005 -1.8237  0.6223  0.9004
19136SOL    HW259416   8.999   6.298   3.902 -0.2279 -0.5836  0.0073
19137SOL     OW59417   1.263  10.081   0.053  0.6727 -0.2980 -0.0993
19137SOL    HW159418   1.210  10.155   0.025  1.3726  1.1530  2.0877
19137SOL    HW259419   1.236  10.065   0.144  1.6034 -1.7128 -0.0401
19138SOL     OW59420   9.869   5.282   7.679 -0.6004 -0.4739 -0.1486
19138SOL    HW159421   9.875   5.348   7.748 -2.2402  1.4172 -1.6754
19138SOL    HW259422   9.960   5.269   7.650  0.1199 -1.3259  2.2850
19139SOL     OW59423   3.676   9.767   1.719 -0.3460 -0.9688  0.5482
19139SOL    HW159424   3.711   9.698   1.776  1.4363 -0.4731  0.1023
19139SOL    HW259425   3.652   9.837   1.779  1.3682 -0.5133  0.7573
19140SOL     OW59426   0.222   9.937   2.389  0.0761 -0.4731  0.4327
19140SOL    HW159427   0.158  10.003   2.363  1.4295  0.5723 -0.3256
19140SOL    HW259428   0.288   9.938   2.320  0.1969 -2.5660  0.4461
19141SOL     OW59429   5.945   0.189   3.612 -0.3031 -0.5093  0.6639
19141SOL    HW159430   5.900   0.274   3.612 -0.1924 -0.4060 -1.0069
19141SOL    HW259431   6.011   0.196   3.680  0.0475  0.9537  0.2102
19142SOL     OW59432   9.269   4.252   8.896 -0.0812  0.2916  0.1508
19142SOL    HW159433   9.237   4.334   8.858 -0.4773 -0.0224 -0.2041
19142SOL    HW259434   9.252   4.186   8.828  1.6935  0.1701 -0.2181
19143SOL     OW59435   9.636   1.859   6.569 -0.3090 -0.7205  0.3581
19143SOL    HW159436   9.593   1.921   6.627  0.6150 -1.4298  1.8614
19143SOL    HW259437   9.634   1.901   6.483  1.0656  1.8035  1.4541
19144SOL     OW59438   9.823   7.275   6.274  0.2297 -0.3314  0.6018
19144SOL    HW159439   9.792   7.355   6.231  1.2555 -0.2048  0.0541
19144SOL    HW259440   9.763   7.207   6.244 -1.0531  0.3231  1.5822
19145SOL     OW59441  10.791   4.059   4.253 -0.2534  0.5573  0.1304
19145SOL    HW159442  10.798   4.032   4.161 -0.7562  2.3584 -0.4663
19145SOL    HW259443  10.714   4.012   4.285  1.3629 -2.1084  0.4467
19146SOL     OW59444   2.001   9.457  10.256 -0.1698 -0.2798 -0.2370
19146SOL    HW159445   2.037   9.394  10.318 -0.7219 -1.0487 -0.6869
19146SOL    HW259446   2.045   9.436  10.173 -0.2501  0.0290 -0.3611
19147SOL     OW59447   2.318   7.382   4.917  0.0076 -0.4925 -1.3081
19147SOL    HW159448   2.234   7.339   4.900 -0.4598  0.4273 -1.3861
19147SOL    HW259449   2.295   7.474   4.933  0.6374 -0.7672  1.8769
19148SOL     OW59450   6.379   9.394   0.918  0.6095  0.7093  0.8231
19148SOL    HW159451   6.312   9.332   0.946  0.4316  0.6892  0.3706
19148SOL    HW259452   6.376   9.390   0.822  2.2158 -0.3406  0.7797
19149SOL     OW59453   2.490   0.876   0.431 -0.4623 -0.1726  0.4993
19149SOL    HW159454   2.483   0.791   0.474 -2.2805 -0.4607 -0.2628
19149SOL    HW259455   2.407   0.920   0.452  0.2431  1.2303  0.4839
19150SOL     OW59456  10.147   5.943   3.989  0.3678  0.0483  0.7946
19150SOL    HW159457  10.081   5.978   4.049  0.4875  0.5051  0.6653
19150SOL    HW259458  10.191   6.021   3.954  0.3699 -0.2188  0.1975
19151SOL     OW59459   6.182   5.442   3.815 -0.2454  0.1253 -0.2399
19151SOL    HW159460   6.274   5.450   3.842 -0.1867 -0.5282 -0.2437
19151SOL    HW259461   6.151   5.533   3.811  0.4718  0.3692 -0.4839
19152SOL     OW59462  11.077   4.926   8.751  0.0124 -0.7832 -0.2027
19152SOL    HW159463  11.042   5.015   8.749 -1.5572 -1.3408  0.6588
19152SOL    HW259464  11.159   4.934   8.800  0.9110  0.4654 -1.7999
19153SOL     OW59465   8.053   1.504   5.186  0.5877 -0.0315 -0.0203
19153SOL    HW159466   7.965   1.514   5.150  0.3363  2.5842  1.0325
19153SOL    HW259467   8.097   1.443   5.127 -1.0259  0.9015 -2.3286
19154SOL     OW59468  10.158   0.494   1.669  0.3706 -0.0153  0.5313
19154SOL    HW159469  10.224   0.504   1.738  2.3940 -0.3768 -1.2475
19154SOL    HW259470  10.206   0.510   1.588 -1.1858 -2.5519 -1.0102
19155SOL     OW59471   0.201   0.157  10.153  0.2566 -0.3263 -0.3072
19155SOL    HW159472   0.121   0.123  10.192 -0.2120  2.2866  1.2573
19155SOL    HW259473   0.170   0.216  10.083  0.7990  0.3949  0.0444
19156SOL     OW59474   3.034   3.731   8.007  0.2077  0.0612  0.0200
19156SOL    HW159475   3.061   3.737   7.915 -1.5125  0.8782 -0.4768
19156SOL    HW259476   2.946   3.768   8.008  0.3512  0.4368  2.0927
19157SOL     OW59477   6.199   5.243   6.563 -0.1276  0.3743  0.5320
19157SOL    HW159478   6.103   5.241   6.562 -0.1389  0.8018 -0.2465
19157SOL    HW259479   6.226   5.158   6.531 -0.2258 -0.0905  1.6294
19158SOL     OW59480   9.366   4.056   7.828  0.1524  0.2586 -0.4763
19158SOL    HW159481   9.453   4.079   7.861 -0.0833  0.1083  0.2564
19158SOL    HW259482   9.315   4.136   7.840 -0.7776 -0.6474  2.4425
19159SOL     OW59483   5.427   6.014   1.566  0.0209 -0.6611  0.0465
19159SOL    HW159484   5.462   6.033   1.479 -3.2897 -0.4335 -1.3550
19159SOL    HW259485   5.446   5.921   1.580  0.9083 -0.6101 -0.7232
19160SOL     OW59486   6.976  11.063   0.481  0.2078  0.2485  0.4044
19160SOL    HW159487   7.072  11.061   0.483  0.2026 -1.2365  2.4103
19160SOL    HW259488   6.953  11.154   0.500  1.2062  0.7410 -0.6806
19161SOL     OW59489   6.590   4.962   0.173 -0.7900  0.3073 -0.1846
19161SOL    HW159490   6.612   4.938   0.083 -0.8315  1.2187 -0.4455
19161SOL    HW259491   6.619   4.887   0.225  0.0325  0.1331 -0.8603
19162SOL     OW59492   6.848   5.687   9.257  0.0478 -0.1972 -0.5695
19162SOL    HW159493   6.817   5.608   9.302  2.1113 -1.1232 -0.6681
19162SOL    HW259494   6.784   5.754   9.281 -2.3033 -2.0540 -1.1969
19163SOL     OW59495   7.802   5.853   9.105  0.0102 -0.0021 -0.5163
19163SOL    HW159496   7.877   5.871   9.048  2.7309 -0.9162  2.4914
19163SOL    HW259497   7.803   5.925   9.168 -0.7190 -0.7788  0.4120
19164SOL     OW59498   4.773   4.149   3.552  0.2150 -0.0823  0.4227
19164SOL    HW159499   4.788   4.208   3.625  0.0376  0.1693  0.2579
19164SOL    HW259500   4.860   4.119   3.527  0.6915  2.5601 -1.5232
19165SOL     OW59501   0.876   6.878   4.727 -0.0346 -0.2908 -0.1257
19165SOL    HW159502   0.968   6.858   4.709 -0.1277 -0.1353 -0.8024
19165SOL    HW259503   0.879   6.959   4.777  0.2027 -0.3322 -0.0690
19166SOL     OW59504   2.052  11.026   0.713  0.1077 -0.1357 -0.2495
19166SOL    HW159505   2.106  10.950   0.690 -2.8883 -2.1872 -1.2449
19166SOL    HW259506   2.051  11.026   0.809 -1.8841 -3.2302 -0.0885
19167SOL     OW59507   2.289  10.102   7.411  0.6191 -0.3151 -0.0025
19167SOL    HW159508   2.347  10.063   7.476 -0.1255  0.0203  0.8989
19167SOL    HW259509   2.258  10.183   7.453  1.0690  0.5329 -1.2712
19168SOL     OW59510   1.903  10.123   9.091  0.2329  0.3411 -0.2878
19168SOL    HW159511   1.867  10.143   9.004  0.2194 -0.4998 -0.4919
19168SOL    HW259512   1.855  10.180   9.150 -0.0974  0.5925 -0.7848
19169SOL     OW59513   6.902   8.613   5.551 -0.4642  0.2217  0.1202
19169SOL    HW159514   6.920   8.674   5.623  2.1052 -2.4414  2.0120
19169SOL    HW259515   6.829   8.560   5.582 -1.9810  1.5087 -1.0625
19170SOL     OW59516   6.049  10.636   1.920 -0.2019 -0.5760  0.2690
19170SOL    HW159517   6.044  10.670   1.831  0.5558  0.2513  0.5202
19170SOL    HW259518   6.038  10.542   1.911 -0.1608 -0.4995 -0.6977
19171SOL     OW59519   2.706  11.071   5.013  0.0559  0.5319  0.4860
19171SOL    HW159520   2.800  11.060   5.001 -0.2182 -0.4857 -0.9931
19171SOL    HW259521   2.686  11.156   4.974  0.4480  1.1038  1.4887
19172SOL     OW59522   1.145   8.512   1.405 -0.8282  0.5752 -1.0935
19172SOL    HW159523   1.182   8.425   1.387 -1.2599  0.3848 -1.0531
19172SOL    HW259524   1.222   8.570   1.408 -0.4508  0.0428 -0.1922
19173SOL     OW59525   8.037  10.892   9.085 -0.3417  0.0503  0.0362
19173SOL    HW159526   8.073  10.803   9.083  1.5630  0.6775  1.8763
19173SOL    HW259527   7.974  10.891   9.157 -0.7647  0.0483 -0.3317
19174SOL     OW59528   0.792   5.703   8.327 -0.3523  0.8648 -0.3650
19174SOL    HW159529   0.779   5.608   8.329  1.5184  0.5809 -0.5009
19174SOL    HW259530   0.770   5.731   8.416  0.2591  0.1140  0.0404
19175SOL     OW59531   5.524   0.694   0.451  0.0153 -0.0380  0.0741
19175SOL    HW159532   5.574   0.661   0.526 -0.0576  1.7660  0.9919
19175SOL    HW259533   5.492   0.780   0.481  0.5992  1.0839 -2.2949
19176SOL     OW59534   2.325   9.110   5.221  0.1683 -0.7816  0.1242
19176SOL    HW159535   2.368   9.135   5.139 -0.0997 -2.0695 -0.4361
19176SOL    HW259536   2.340   9.184   5.280 -0.0614  0.3933 -1.2377
19177SOL     OW59537  11.062   1.925   6.035  0.2133  0.1952 -0.1694
19177SOL    HW159538  11.010   1.939   6.115 -0.0366  0.4056 -0.3669
19177SOL    HW259539  11.141   1.976   6.049  1.8930 -2.6039  1.5309
19178SOL     OW59540   4.989   6.512   8.716  0.2950 -0.0916  0.3553
19178SOL    HW159541   5.054   6.452   8.679  0.5602  0.8181 -0.6975
19178SOL    HW259542   4.960   6.565   8.642 -1.7721 -0.5697  0.7626
19179SOL     OW59543   6.714   3.223   5.010  0.4746  0.4318  0.2282
19179SOL    HW159544   6.639   3.250   5.062  0.6952 -0.3539  0.9899
19179SOL    HW259545   6.741   3.302   4.963  0.2221  1.1579  1.2628
19180SOL     OW59546   7.313   7.568   7.525 -0.3209 -0.4653 -0.1488
19180SOL    HW159547   7.304   7.544   7.433  0.6125  0.4544 -0.5062
19180SOL    HW259548   7.230   7.611   7.547 -0.0248  0.5893 -0.9957
19181SOL     OW59549   1.430   0.109   5.987  0.2221  0.3328  0.2260
19181SOL    HW159550   1.512   0.072   6.021  0.2881  0.9205  0.7386
19181SOL    HW259551   1.418   0.068   5.902  1.1286  0.3448  0.0832
19182SOL     OW59552  10.486   7.473   2.776 -0.1594 -0.2763  0.1169
19182SOL    HW159553  10.540   7.552   2.771 -0.1833 -0.2973 -0.4784
19182SOL    HW259554  10.408   7.501   2.824 -0.3169  0.1554 -0.3780
19183SOL     OW59555   7.904   6.362   2.405 -0.3750  0.1629 -0.4624
19183SOL    HW159556   7.876   6.288   2.460 -1.5732 -0.0415 -1.3186
19183SOL    HW259557   8.000   6.357   2.406 -0.3865 -0.3699  0.8673
19184SOL     OW59558   2.271   3.899   5.680 -0.3405  0.1652 -0.3847
19184SOL    HW159559   2.320   3.891   5.761 -2.4263 -0.7440  0.8851
19184SOL    HW259560   2.303   3.979   5.639  0.4778  0.8748  1.5529
19185SOL     OW59561   2.080   1.092   1.667 -0.9809 -0.3046  0.2006
19185SOL    HW159562   2.019   1.086   1.594 -1.6679 -1.0814  0.8146
19185SOL    HW259563   2.164   1.113   1.627 -0.9325 -2.4866 -1.0395
19186SOL     OW59564   2.765   6.912   1.579 -0.4310 -0.4391 -0.7535
19186SOL    HW159565   2.796   6.888   1.666 -0.8044 -1.2511 -0.8322
19186SOL    HW259566   2.775   7.007   1.575 -0.9139 -0.3265  0.3800
19187SOL     OW59567   3.635   9.249  10.608  0.2148 -0.5170 -0.1295
19187SOL    HW159568   3.584   9.256  10.689 -1.3080 -1.6118 -0.9257
19187SOL    HW259569   3.663   9.158  10.605 -1.1297 -0.9285 -1.5764
19188SOL     OW59570   7.124  10.067   7.177  0.4905 -0.1874  0.0926
19188SOL    HW159571   7.186  10.003   7.212  1.0620  0.5265  0.4155
19188SOL    HW259572   7.080  10.103   7.254  0.1767 -0.1778 -0.0859
19189SOL     OW59573  10.988   5.300   2.748  0.0840  0.4679  0.0159
19189SOL    HW159574  10.919   5.238   2.722 -0.1863  0.4126  0.8261
19189SOL    HW259575  11.058   5.245   2.782 -0.3174  0.6094  1.1089
19190SOL     OW59576   3.514   8.376   3.766 -1.0243  0.0717  0.3974
19190SOL    HW159577   3.441   8.431   3.795  0.7651  2.1870  1.2028
19190SOL    HW259578   3.587   8.437   3.757  0.5888 -1.9037 -0.6746
19191SOL     OW59579   3.287   5.193   8.102 -0.7339 -0.5222 -0.2032
19191SOL    HW159580   3.279   5.098   8.097  0.2325 -0.5609 -1.6751
19191SOL    HW259581   3.226   5.219   8.171 -0.3345 -2.2956  0.8788
19192SOL     OW59582   8.089  10.968   7.784  0.3842 -0.3980  0.0265
19192SOL    HW159583   8.108  10.902   7.717 -0.6092 -0.6220 -0.0522
19192SOL    HW259584   8.095  10.920   7.867 -0.5477 -0.6559 -0.0428
19193SOL     OW59585   5.766   2.398   8.939  0.4793 -0.4159  0.0185
19193SOL    HW159586   5.692   2.415   8.880  1.2597  0.2199 -0.8142
19193SOL    HW259587   5.782   2.304   8.930 -0.3157 -0.5920  0.3288
19194SOL     OW59588   1.322   2.360   1.428 -0.2192  0.6078  0.3155
19194SOL    HW159589   1.397   2.406   1.390  0.4402 -0.3687  0.3932
19194SOL    HW259590   1.332   2.371   1.522 -1.2024  2.0274  0.2770
19195SOL     OW59591  10.035   3.486   8.448 -0.1508 -0.2117 -0.1423
19195SOL    HW159592  10.115   3.478   8.396  0.3660 -3.2061  0.9100
19195SOL    HW259593  10.059   3.452   8.534 -2.1911  0.1979  0.6340
19196SOL     OW59594   4.350   4.900   7.850 -0.2705  0.0669 -0.0552
19196SOL    HW159595   4.345   4.948   7.933  2.7494 -0.9029  0.8327
19196SOL    HW259596   4.436   4.857   7.853 -0.3588 -0.5836 -3.4023
19197SOL     OW59597   8.100   5.118   1.915  0.3862  0.2809  0.5670
19197SOL    HW159598   8.182   5.111   1.963  0.2991 -0.2065  0.6501
19197SOL    HW259599   8.043   5.053   1.955 -0.6868  1.8681  1.7611
19198SOL     OW59600   6.495   9.657   7.542 -0.3084 -0.6615 -0.1522
19198SOL    HW159601   6.570   9.628   7.490 -1.0161 -2.5267 -0.2036
19198SOL    HW259602   6.430   9.685   7.477 -0.5226 -1.2817 -0.2096
19199SOL     OW59603   2.400   3.052   7.599  0.1631  0.0624 -0.1914
19199SOL    HW159604   2.372   3.142   7.583  1.5845  0.4003 -0.9985
19199SOL    HW259605   2.467   3.036   7.533  0.3663 -1.3876  0.3295
19200SOL     OW59606   0.685   1.602   4.265 -0.0074  0.3361  0.1333
19200SOL    HW159607   0.616   1.598   4.332 -1.0400 -1.6844 -0.9413
19200SOL    HW259608   0.651   1.663   4.200 -0.9127 -0.7895 -0.4798
19201SOL     OW59609   3.190   6.822   3.365  0.4530 -0.6542  0.0241
19201SOL    HW159610   3.200   6.825   3.270 -0.4142 -1.7102 -0.1181
19201SOL    HW259611   3.171   6.912   3.390 -0.8814 -0.6136 -1.0082
19202SOL     OW59612   5.428   1.339   2.660 -0.0750  1.3509 -0.1514
19202SOL    HW159613   5.452   1.272   2.725 -0.0747  0.1916 -1.3003
19202SOL    HW259614   5.342   1.369   2.687 -1.4523 -1.2946 -1.2104
19203SOL     OW59615   9.789   7.800   6.268  0.2193  0.5759  0.2620
19203SOL    HW159616   9.721   7.831   6.327  1.4969  0.9875  1.5966
19203SOL    HW259617   9.794   7.706   6.284  1.2075  0.8150  1.6033
19204SOL     OW59618   9.486   4.780   9.592  0.4420 -0.2857 -0.4023
19204SOL    HW159619   9.559   4.751   9.646 -0.6470 -1.3006  0.5913
19204SOL    HW259620   9.430   4.702   9.585 -2.2455  1.2601  1.7528
19205SOL     OW59621  10.552   6.831   6.376 -0.0927 -0.0242 -0.4526
19205SOL    HW159622  10.518   6.749   6.412 -1.5770  0.1344 -1.4038
19205SOL    HW259623  10.515   6.836   6.288  1.6057  0.7042 -1.1819
19206SOL     OW59624   6.554  10.723   7.301 -0.1652  0.3609  0.0483
19206SOL    HW159625   6.634  10.775   7.294  0.4806 -0.4674  0.9135
19206SOL    HW259626   6.550  10.675   7.218  0.1757  0.4974 -0.0514
19207SOL     OW59627   3.783   3.504   9.081  0.3353 -0.4277 -0.9771
19207SOL    HW159628   3.838   3.431   9.051  0.8015 -0.3513 -0.3032
19207SOL    HW259629   3.698   3.463   9.097  0.5893 -0.8306 -0.6180
19208SOL     OW59630   5.311   9.029  10.414 -0.5822 -0.3739 -0.0871
19208SOL    HW159631   5.314   8.935  10.434 -1.6744 -0.2547  0.7406
19208SOL    HW259632   5.369   9.039  10.338 -1.1585 -1.8780 -0.7703
19209SOL     OW59633  10.095   1.124   7.201  0.2523  0.2825 -0.6928
19209SOL    HW159634  10.183   1.149   7.173  0.3823  0.4806 -0.1148
19209SOL    HW259635  10.064   1.065   7.132  1.7893 -1.8042  0.2979
19210SOL     OW59636   7.042   4.725   6.682  0.0021  0.3598 -0.6108
19210SOL    HW159637   6.990   4.730   6.602 -1.0512  0.5574  0.0684
19210SOL    HW259638   6.997   4.783   6.744  0.5369 -0.1405  0.2665
19211SOL     OW59639   9.646   6.441   8.727 -0.3682 -0.2325 -0.4901
19211SOL    HW159640   9.658   6.509   8.793 -1.0734 -2.6525  2.3242
19211SOL    HW259641   9.562   6.462   8.686 -1.3438 -0.1897  1.4214
19212SOL     OW59642   3.846   9.697   9.114  0.5645 -0.1438  0.1973
19212SOL    HW159643   3.928   9.648   9.110  0.0281 -1.2679  2.0047
19212SOL    HW259644   3.871   9.787   9.090  2.0849 -0.6977 -0.4331
19213SOL     OW59645   1.024   6.411   1.849  0.6175  0.8614 -0.4088
19213SOL    HW159646   1.013   6.457   1.766 -0.6676  1.0170 -0.1709
19213SOL    HW259647   0.960   6.452   1.908  0.9921  0.2539  0.4380
19214SOL     OW59648   2.338   4.186   0.444  0.1468  0.2020 -0.6196
19214SOL    HW159649   2.345   4.101   0.401  0.1682  0.0605 -0.3334
19214SOL    HW259650   2.243   4.201   0.451  0.0372 -1.2753  2.2371
19215SOL     OW59651   2.485   5.732   1.861 -0.4974 -0.6580  0.2136
19215SOL    HW159652   2.491   5.675   1.785  0.7619  1.7908 -1.6469
19215SOL    HW259653   2.570   5.725   1.905 -0.7406 -1.0273  0.6399
19216SOL     OW59654  10.879   4.628  10.856  0.6083 -0.9419  0.1867
19216SOL    HW159655  10.800   4.676  10.881  1.7064  0.7519  0.5678
19216SOL    HW259656  10.853   4.579  10.778 -1.2852 -1.8205  1.2797
19217SOL     OW59657   4.740   0.804   4.870 -0.1187  0.9833  0.1132
19217SOL    HW159658   4.644   0.814   4.866 -0.2589  0.5207  1.6208
19217SOL    HW259659   4.774   0.883   4.828 -1.1466  0.8858 -0.9655
19218SOL     OW59660   1.919   2.267   8.123 -1.0801 -0.8117 -0.1433
19218SOL    HW159661   1.903   2.173   8.108 -1.3789 -1.1114  1.8615
19218SOL    HW259662   1.848   2.310   8.076 -1.9428 -1.6873  0.3023
19219SOL     OW59663   4.982  10.142   9.580  0.0854  0.3794  0.1987
19219SOL    HW159664   4.897  10.166   9.616  0.5344  1.5138  0.5400
19219SOL    HW259665   5.042  10.147   9.654  0.5388  0.0561 -0.1397
19220SOL     OW59666   3.872   4.138   6.367 -0.2718 -0.4915  0.0052
19220SOL    HW159667   3.813   4.199   6.410  1.0354 -1.5929  3.7955
19220SOL    HW259668   3.946   4.192   6.337 -0.0300  0.0697  1.5385
19221SOL     OW59669   3.720  10.968   5.693  0.3427 -0.1497 -0.4783
19221SOL    HW159670   3.631  10.952   5.663  0.4796  0.5111 -1.2754
19221SOL    HW259671   3.727  10.919   5.775 -1.9610  2.6725  1.6074
19222SOL     OW59672   3.231   8.933   6.724 -0.4229  0.8255 -0.1800
19222SOL    HW159673   3.311   8.986   6.723 -1.2619  2.1986  1.2953
19222SOL    HW259674   3.162   8.994   6.701 -1.3890  0.3271  1.2765
19223SOL     OW59675   0.752   8.119   6.389  0.3145 -0.0155  0.0248
19223SOL    HW159676   0.697   8.134   6.465 -0.4166  0.2396 -0.5425
19223SOL    HW259677   0.695   8.079   6.324  0.9582 -0.3536 -0.3499
19224SOL     OW59678  10.183   3.979   8.305  0.1837  0.2021  0.0583
19224SOL    HW159679  10.152   4.012   8.221  1.0206 -1.8628 -1.1154
19224SOL    HW259680  10.265   3.934   8.285  0.8091  0.3071  2.1195
19225SOL     OW59681   4.642   6.343  10.171 -0.3314  0.4541 -0.1680
19225SOL    HW159682   4.578   6.295  10.119 -0.7635  0.6671  0.1512
19225SOL    HW259683   4.604   6.344  10.259  0.6524 -0.3943  0.2890
19226SOL     OW59684   9.767   4.622   7.913 -0.4866  0.0223  0.1956
19226SOL    HW159685   9.774   4.664   7.827 -2.2119  1.2195  0.5968
19226SOL    HW259686   9.822   4.675   7.970 -0.2104 -0.1287  0.0758
19227SOL     OW59687   5.016   4.568   9.049  0.1970  0.5726  0.0594
19227SOL    HW159688   5.056   4.497   9.099  0.7063  0.0650 -1.0298
19227SOL    HW259689   4.990   4.633   9.114 -0.2661 -0.6010  1.0798
19228SOL     OW59690   5.844   1.122   7.032 -0.1032  0.7034 -0.2939
19228SOL    HW159691   5.801   1.105   6.948 -1.8937  1.3499  0.4469
19228SOL    HW259692   5.837   1.216   7.044 -1.6151  0.4206  1.4439
19229SOL     OW59693   7.152   2.551   6.889 -0.2971 -0.5158  0.6559
19229SOL    HW159694   7.117   2.534   6.976  0.1938 -2.0420  0.5913
19229SOL    HW259695   7.145   2.467   6.844  0.4483 -0.0238 -0.4121
19230SOL     OW59696   8.698  10.739   0.495 -0.3488  0.1158 -0.5001
19230SOL    HW159697   8.604  10.750   0.481 -0.4980 -0.3143  0.1619
19230SOL    HW259698   8.712  10.644   0.498  0.1170  0.1737 -0.6552
19231SOL     OW59699   2.220   3.937   7.452 -0.0373  0.4847  0.5043
19231SOL    HW159700   2.130   3.964   7.433 -0.5668 -1.3604  0.1803
19231SOL    HW259701   2.213   3.846   7.480  1.6223  0.6681  1.7012
19232SOL     OW59702   0.867   2.592   2.945  0.0354  0.1930  0.2376
19232SOL    HW159703   0.828   2.512   2.911  3.8672 -1.5478 -0.4963
19232SOL    HW259704   0.824   2.662   2.896 -0.7202 -1.6543 -1.9095
19233SOL     OW59705   0.902   2.358  10.599  0.1676 -0.1746 -0.0203
19233SOL    HW159706   0.909   2.330  10.690  1.0429  0.4421  0.1150
19233SOL    HW259707   0.812   2.390  10.590  0.1048 -0.1539  0.6455
19234SOL     OW59708   9.418   3.305   6.664 -0.5884  0.0581  0.6029
19234SOL    HW159709   9.426   3.392   6.704  0.2289 -0.2479  1.1369
19234SOL    HW259710   9.442   3.244   6.733  0.8933 -0.4865 -0.3425
19235SOL     OW59711   7.455   4.651   6.966 -0.3892  0.0581 -0.6725
19235SOL    HW159712   7.525   4.707   6.933  0.2479 -0.1517  0.2656
19235SOL    HW259713   7.394   4.642   6.893  0.9301 -0.3410 -1.7667
19236SOL     OW59714   2.028  10.483   1.072 -0.1667  0.6519 -0.1709
19236SOL    HW159715   2.028  10.438   0.987  1.2374  2.1430 -1.0272
19236SOL    HW259716   1.956  10.546   1.066  1.2349  2.2718 -1.2046
19237SOL     OW59717   7.015   1.363  10.917  0.7266 -0.5575  0.1856
19237SOL    HW159718   6.959   1.361  10.994  1.3506  0.5202  0.6911
19237SOL    HW259719   7.098   1.398  10.949  1.7361 -2.1736 -0.5273
19238SOL     OW59720  10.838   8.556   8.089 -0.4293 -0.1180  0.2469
19238SOL    HW159721  10.858   8.645   8.061  0.0832 -0.6300 -1.0911
19238SOL    HW259722  10.905   8.536   8.155  0.9671 -0.3295 -1.1762
19239SOL     OW59723   1.562   9.055   8.046 -0.0419  0.1593  0.1499
19239SOL    HW159724   1.578   9.133   8.099  0.5297 -1.1926  2.0564
19239SOL    HW259725   1.551   8.985   8.110 -2.7570 -0.9831 -1.4140
19240SOL     OW59726   9.298   1.079   3.178 -0.0720 -0.4940  0.0759
19240SOL    HW159727   9.220   1.053   3.227 -0.8313  0.3785 -0.6354
19240SOL    HW259728   9.271   1.156   3.128  0.8014 -1.0792 -1.3671
19241SOL     OW59729   5.062   3.763   0.034 -0.0392 -0.6075 -0.5476
19241SOL    HW159730   5.112   3.709  -0.027 -1.7720 -4.8464  1.4010
19241SOL    HW259731   5.107   3.751   0.118  0.6656  2.8438 -0.2472
19242SOL     OW59732   6.154   8.811   2.000 -0.2395  0.3152 -0.5149
19242SOL    HW159733   6.185   8.741   1.942 -1.2932  0.5429 -1.3948
19242SOL    HW259734   6.065   8.786   2.022  0.2334  0.0817  1.3071
19243SOL     OW59735   4.260   2.000   5.693 -0.6583 -0.4697  0.4478
19243SOL    HW159736   4.329   2.067   5.695 -1.4089  0.3209  2.4670
19243SOL    HW259737   4.241   1.989   5.600  0.6278  0.9355 -0.0387
19244SOL     OW59738   3.436   7.149   0.425  0.3157 -0.4755  0.0089
19244SOL    HW159739   3.471   7.186   0.506  0.6408 -1.4172  0.3125
19244SOL    HW259740   3.463   7.058   0.427 -2.1510 -1.2597  0.2434
19245SOL     OW59741   2.364   8.213   2.116 -0.5991 -0.2542 -0.3149
19245SOL    HW159742   2.440   8.264   2.087 -0.3448  0.8194  2.0398
19245SOL    HW259743   2.397   8.123   2.120  0.3991  0.1078  0.0771
19246SOL     OW59744   0.938   2.232   8.164  0.2355 -0.3709 -0.5278
19246SOL    HW159745   0.877   2.303   8.181  0.7797 -0.3528  1.7212
19246SOL    HW259746   0.891   2.173   8.104 -2.7436 -1.2077  2.3209
19247SOL     OW59747  10.687  10.177   8.185 -0.6017  0.6142 -0.0461
19247SOL    HW159748  10.731  10.093   8.173 -1.0488  0.1774  1.3095
19247SOL    HW259749  10.736  10.237   8.128  0.9155 -0.1510  0.3960
19248SOL     OW59750   0.031   9.210   6.084  0.4526  0.5523 -0.3761
19248SOL    HW159751   0.073   9.156   6.018  2.4485  1.5270  0.0369
19248SOL    HW259752   0.012   9.150   6.156  1.6296  0.1629 -0.3710
19249SOL     OW59753   1.614   0.192   0.114  0.4409 -0.0301  0.5029
19249SOL    HW159754   1.625   0.229   0.202  0.6326  1.0232  0.0505
19249SOL    HW259755   1.539   0.238   0.078  0.0756 -0.7929  0.2819
19250SOL     OW59756   9.450   9.327   5.084  0.0723 -0.2359  0.2254
19250SOL    HW159757   9.414   9.240   5.102  1.2899 -0.4952  1.6103
19250SOL    HW259758   9.392   9.387   5.130 -1.0814 -0.2501 -1.1758
19251SOL     OW59759   9.337   5.410   5.647 -0.6740 -1.2517 -0.0561
19251SOL    HW159760   9.313   5.473   5.715 -1.1961  0.3592 -1.6672
19251SOL    HW259761   9.266   5.347   5.646  0.0319 -2.1657  1.8306
19252SOL     OW59762  11.099   6.936   1.366 -0.1472  0.2497  0.5670
19252SOL    HW159763  11.158   6.883   1.421  1.1657 -0.9136 -1.8021
19252SOL    HW259764  11.155   6.968   1.295 -1.5067  2.7255  0.5191
19253SOL     OW59765  10.328   4.794   1.459 -0.5227  0.1112  0.0762
19253SOL    HW159766  10.337   4.709   1.415  0.3840  0.9024 -1.3623
19253SOL    HW259767  10.269   4.777   1.532 -0.0819 -1.8294  0.0410
19254SOL     OW59768   5.270   6.256   9.920 -0.3211  0.3029 -0.7593
19254SOL    HW159769   5.229   6.236  10.005 -1.5315  1.3162 -1.0786
19254SOL    HW259770   5.236   6.190   9.861  0.0663 -0.0490 -0.5958
19255SOL     OW59771   5.220   9.731   0.086  0.0378  0.2570 -0.2399
19255SOL    HW159772   5.314   9.726   0.102  0.0792 -0.8773 -0.7969
19255SOL    HW259773   5.180   9.707   0.169  0.1716  3.1016  0.7799
19256SOL     OW59774   5.412   9.870   1.128 -0.1326  0.2215  0.2047
19256SOL    HW159775   5.482   9.809   1.150  0.1715  0.8348  1.0122
19256SOL    HW259776   5.449   9.926   1.060  0.1294  0.4669  0.5444
19257SOL     OW59777   3.938   5.172   8.136 -0.0515  0.4521 -0.7910
19257SOL    HW159778   4.011   5.169   8.075  0.0844 -1.5391 -0.6046
19257SOL    HW259779   3.864   5.135   8.088  0.5015 -2.9344  0.6745
19258SOL     OW59780   9.778   1.213   1.144 -0.0802 -0.0523  0.2152
19258SOL    HW159781   9.707   1.153   1.123  0.2380 -0.4427  0.2281
19258SOL    HW259782   9.854   1.178   1.097  0.0587  0.4748  0.0343
19259SOL     OW59783   9.634   1.673   7.673 -0.2419  1.7474  0.5800
19259SOL    HW159784   9.703   1.702   7.614 -2.9522  1.9419 -2.7837
19259SOL    HW259785   9.625   1.745   7.736  1.3255  2.5754 -0.0955
19260SOL     OW59786  10.070   7.064   3.483 -0.9160 -0.3869  0.0428
19260SOL    HW159787  10.017   7.032   3.556 -1.6905 -2.5818 -1.3590
19260SOL    HW259788  10.148   7.010   3.484 -0.4166  0.3193 -0.1036
19261SOL     OW59789   6.491  10.821   6.665 -0.1058 -0.4815 -0.7655
19261SOL    HW159790   6.464  10.757   6.599 -0.1372 -0.6193 -0.6189
19261SOL    HW259791   6.409  10.850   6.706 -0.0807 -0.4486 -0.7376
19262SOL     OW59792   3.978   2.915   2.148  0.0569  0.1784 -0.0641
19262SOL    HW159793   4.017   2.862   2.218 -0.3955  0.4752  0.4240
19262SOL    HW259794   3.892   2.940   2.182  0.2461  1.2051 -0.2944
19263SOL     OW59795   2.654   6.752   1.062  0.0484 -0.2667  0.5566
19263SOL    HW159796   2.718   6.769   1.131  1.2627 -0.4949 -0.4811
19263SOL    HW259797   2.654   6.656   1.053  0.0874 -0.2205  0.0583
19264SOL     OW59798   9.941   7.241   8.911  0.3720 -0.8552 -0.9363
19264SOL    HW159799   9.987   7.158   8.914 -0.3227 -1.2203  0.1722
19264SOL    HW259800   9.980   7.293   8.981  0.1979 -0.5736 -1.0445
19265SOL     OW59801   2.524   2.456   7.421 -0.1187 -0.3754  0.0519
19265SOL    HW159802   2.511   2.361   7.412  0.7349 -0.4043 -1.1951
19265SOL    HW259803   2.603   2.464   7.475 -0.5645 -0.3476  0.7139
19266SOL     OW59804   1.612   3.663   9.267 -0.2800  0.3737  0.8827
19266SOL    HW159805   1.610   3.703   9.180  1.6196  2.2420  1.6163
19266SOL    HW259806   1.637   3.572   9.250 -2.0018  0.1215 -0.6368
19267SOL     OW59807   5.983   5.658   6.793  0.3129 -0.2399  0.1502
19267SOL    HW159808   6.042   5.647   6.719  0.5370  0.7698  0.1621
19267SOL    HW259809   6.022   5.606   6.864  1.7478  1.1949  0.4585
19268SOL     OW59810   0.913   8.726   1.499 -0.2812 -1.1981  0.0560
19268SOL    HW159811   0.847   8.747   1.566 -0.1996 -1.3839  0.1955
19268SOL    HW259812   0.986   8.689   1.548 -0.3047 -1.5326 -0.1566
19269SOL     OW59813   8.046   6.853   1.987  0.2844  0.1867 -0.3072
19269SOL    HW159814   7.978   6.921   1.988 -1.8424 -1.7981  0.8310
19269SOL    HW259815   8.062   6.837   1.894 -1.1515  0.4299 -0.6292
19270SOL     OW59816   5.149   5.175   5.266  0.5264 -0.3823  0.1626
19270SOL    HW159817   5.156   5.092   5.219  0.8501 -1.2748  1.7382
19270SOL    HW259818   5.234   5.187   5.306  0.6209  0.9599 -0.3962
19271SOL     OW59819  10.285   3.592   3.321 -0.7128 -0.0683 -0.6719
19271SOL    HW159820  10.323   3.666   3.274  1.4913 -0.4189  0.4207
19271SOL    HW259821  10.266   3.626   3.408  1.5543 -1.0070  0.2752
19272SOL     OW59822   0.331   4.206  10.045  0.1422  0.0311  0.4534
19272SOL    HW159823   0.302   4.156   9.969 -0.8921  0.8975  0.2570
19272SOL    HW259824   0.348   4.140  10.112  0.2179 -0.6808 -0.2596
19273SOL     OW59825   4.839   9.829   8.719  0.0584 -0.0239  0.0665
19273SOL    HW159826   4.825   9.765   8.649 -1.2064  0.6869 -0.3410
19273SOL    HW259827   4.753   9.867   8.735  1.0978  3.3825 -1.4506
19274SOL     OW59828   9.412   4.666   8.809 -0.5832 -0.4588  0.5155
19274SOL    HW159829   9.412   4.630   8.721 -2.1182 -0.1553  0.3738
19274SOL    HW259830   9.503   4.655   8.839 -0.6291 -3.0098 -0.0602
19275SOL     OW59831   4.089   0.952   0.634 -0.6589  0.6174 -0.8817
19275SOL    HW159832   4.019   0.963   0.571 -1.6036  1.0141  0.1990
19275SOL    HW259833   4.064   1.008   0.708  0.7323  0.6788 -0.4174
19276SOL     OW59834  10.833   4.903   9.201  0.5655 -0.0276  0.3636
19276SOL    HW159835  10.908   4.942   9.156 -1.0758  0.3461 -2.2975
19276SOL    HW259836  10.791   4.848   9.134 -2.1908  0.7479  1.3218
19277SOL     OW59837   4.240   5.528   8.458 -0.5230  0.4176  0.0378
19277SOL    HW159838   4.206   5.494   8.375  0.4033 -0.8747  0.1481
19277SOL    HW259839   4.334   5.509   8.455 -0.6320 -0.7261  1.8245
19278SOL     OW59840   7.479   0.860   9.991  0.0856  0.2282  0.5227
19278SOL    HW159841   7.567   0.884   9.959 -0.2546  0.2373 -0.4484
19278SOL    HW259842   7.452   0.788   9.934 -0.4956  0.1453  0.8965
19279SOL     OW59843   7.421   7.547   9.874  0.5598  0.6436 -0.1855
19279SOL    HW159844   7.363   7.478   9.907 -1.2465  1.5155 -1.3340
19279SOL    HW259845   7.469   7.505   9.802  1.8518 -0.2495  1.1431
19280SOL     OW59846  10.402  10.565   0.535  0.4180  0.6507  0.1306
19280SOL    HW159847  10.449  10.482   0.533 -0.0236  0.3768  0.9347
19280SOL    HW259848  10.315  10.543   0.567 -0.2794  1.1574 -1.3094
19281SOL     OW59849   5.099   6.891   5.031  0.1871 -0.3654  0.3763
19281SOL    HW159850   5.189   6.858   5.021  1.2542  2.4950 -0.4499
19281SOL    HW259851   5.108   6.986   5.025 -2.7068  0.1192  2.1646
19282SOL     OW59852   5.642   3.006   6.098 -0.1484 -0.1966  0.0953
19282SOL    HW159853   5.735   3.016   6.076 -0.8174  0.8475 -2.5436
19282SOL    HW259854   5.598   2.994   6.014 -2.5176  0.1230  1.2041
19283SOL     OW59855   7.240   0.067   6.066 -0.3720 -0.1953  0.7737
19283SOL    HW159856   7.277   0.042   5.981 -2.3038 -1.8813  0.3387
19283SOL    HW259857   7.278   0.006   6.128 -0.6826 -0.4535  0.7135
19284SOL     OW59858   9.359  10.229  10.149  0.2375  0.0263  0.4435
19284SOL    HW159859   9.415  10.155  10.124  0.9475  0.8659 -0.5180
19284SOL    HW259860   9.324  10.261  10.066 -1.1139 -0.0240  0.9693
19285SOL     OW59861  10.993   0.578   2.329 -0.3055  1.3505  0.0766
19285SOL    HW159862  11.055   0.508   2.350  0.6312  1.8348 -0.9672
19285SOL    HW259863  10.925   0.570   2.395 -0.2159 -0.5451 -0.0021
19286SOL     OW59864   9.199   2.502   4.852 -0.0948 -0.3191  0.1115
19286SOL    HW159865   9.238   2.574   4.803  1.2628 -1.2111 -0.1769
19286SOL    HW259866   9.208   2.528   4.944 -1.5674  0.8179 -0.0304
19287SOL     OW59867   7.492   3.456   1.417 -0.2960 -0.8087 -0.8220
19287SOL    HW159868   7.457   3.544   1.408 -3.6563 -1.7770  0.9958
19287SOL    HW259869   7.540   3.457   1.499 -1.4916 -0.9459 -0.1011
19288SOL     OW59870   9.573   4.962   4.904  0.6525 -0.4786 -0.3660
19288SOL    HW159871   9.580   5.054   4.877  1.7236  0.9296  3.8999
19288SOL    HW259872   9.481   4.951   4.926  0.9435  0.4754  1.5174
19289SOL     OW59873   0.863   5.164  10.177  0.6807  0.0824  0.5215
19289SOL    HW159874   0.777   5.131  10.150  0.9987 -0.9372  0.7306
19289SOL    HW259875   0.846   5.214  10.257 -0.1361  2.3370 -0.9484
19290SOL     OW59876   7.544   8.332   8.411  0.5737  0.4928 -0.3682
19290SOL    HW159877   7.462   8.285   8.422  0.1312  1.0950 -0.9950
19290SOL    HW259878   7.609   8.279   8.457  0.0371 -0.5791 -0.8223
19291SOL     OW59879   1.484   6.811   9.149  0.0976  0.2413  0.5896
19291SOL    HW159880   1.527   6.816   9.235 -0.9102  0.4737  1.0925
19291SOL    HW259881   1.492   6.719   9.124  0.8866  0.2837  0.6751
19292SOL     OW59882   0.677   6.426   9.308 -0.6827  0.0066  0.0464
19292SOL    HW159883   0.763   6.442   9.347 -0.3334  1.8586 -1.3298
19292SOL    HW259884   0.645   6.513   9.284 -2.1100 -0.8077 -1.1737
19293SOL     OW59885   5.215  10.542   4.029  0.0729  0.1606 -0.6168
19293SOL    HW159886   5.143  10.479   4.040  0.2978 -0.3645 -1.9082
19293SOL    HW259887   5.189  10.618   4.081  1.2547 -2.0852  3.7073
19294SOL     OW59888   1.085   8.152  10.159  0.3747  0.9341  0.3840
19294SOL    HW159889   1.072   8.104  10.242 -2.4552 -0.5300 -0.7586
19294SOL    HW259890   1.008   8.209  10.153 -0.1322  0.1170 -1.7378
19295SOL     OW59891   4.561   7.181   9.952  0.1067 -0.0024  0.0519
19295SOL    HW159892   4.489   7.232   9.915 -0.0460  0.0525  0.4235
19295SOL    HW259893   4.528   7.149  10.035  1.0192  1.2774  0.9516
19296SOL     OW59894   6.972   8.725  10.038  0.3262 -0.0323 -0.1216
19296SOL    HW159895   6.919   8.754  10.112  0.1967  0.4803 -0.4110
19296SOL    HW259896   6.941   8.636  10.019 -1.3958  0.7542 -1.1655
19297SOL     OW59897   1.636   8.396   5.744  0.3855  0.1232  0.4531
19297SOL    HW159898   1.658   8.487   5.723  0.3503  0.1580  0.5635
19297SOL    HW259899   1.708   8.366   5.800 -0.3119  0.5435  1.6304
19298SOL     OW59900   6.571   3.650   9.175  0.2439 -0.7519  0.4714
19298SOL    HW159901   6.478   3.664   9.194  0.5647  2.8463  0.0036
19298SOL    HW259902   6.616   3.688   9.250  1.3545  0.3061 -0.6973
19299SOL     OW59903   0.703   4.699   0.982 -1.1279 -0.1219  0.0179
19299SOL    HW159904   0.682   4.693   1.075 -1.6733  0.6618 -0.0519
19299SOL    HW259905   0.642   4.639   0.939 -0.0059 -1.5170  0.2658
19300SOL     OW59906   1.374   8.722   0.472 -0.0776 -0.0852 -0.4352
19300SOL    HW159907   1.319   8.643   0.467 -1.6937  1.0695 -3.0735
19300SOL    HW259908   1.354   8.760   0.557 -0.0734 -1.9237  0.4378
19301SOL     OW59909   5.093   8.388   3.221 -0.6001 -0.3643  0.5098
19301SOL    HW159910   5.182   8.361   3.245  0.0054 -0.7856 -1.9241
19301SOL    HW259911   5.105   8.438   3.140 -2.5278  0.2819  0.5903
19302SOL     OW59912   8.181   7.384   7.160  0.8235  0.2528  0.3200
19302SOL    HW159913   8.257   7.423   7.204  0.2638  0.5768  1.0354
19302SOL    HW259914   8.136   7.336   7.230 -1.3245  2.6125  0.7346
19303SOL     OW59915   1.605  10.766   9.116 -0.9320  0.4577 -0.3001
19303SOL    HW159916   1.664  10.731   9.183  0.3773  1.2830 -0.9678
19303SOL    HW259917   1.574  10.689   9.069 -1.8523 -0.1340  1.2091
19304SOL     OW59918   4.050   8.970   3.705  0.4495  0.2394 -0.0392
19304SOL    HW159919   4.007   9.004   3.626 -1.3014 -0.6643  0.4674
19304SOL    HW259920   4.044   8.875   3.695  0.4083  0.1171  1.0935
19305SOL     OW59921   9.661   6.834   1.192  0.5457  0.1549  0.4563
19305SOL    HW159922   9.754   6.821   1.210  0.8403  0.4421 -0.7275
19305SOL    HW259923   9.656   6.924   1.159 -0.0821  0.0136  0.1587
19306SOL     OW59924   8.811   9.035   4.045 -0.6054 -0.5703 -0.8865
19306SOL    HW159925   8.742   9.003   3.988  0.4443  0.2428 -2.6863
19306SOL    HW259926   8.766   9.054   4.128 -2.1686 -1.7401 -1.4090
19307SOL     OW59927   5.063   6.348   5.098  0.1042  0.9191  0.5964
19307SOL    HW159928   4.993   6.412   5.109 -0.3997  0.3713  0.6005
19307SOL    HW259929   5.105   6.372   5.016 -0.5219  0.8461  0.2482
19308SOL     OW59930   0.844   4.833   5.359  0.2431  0.0210  0.0176
19308SOL    HW159931   0.806   4.903   5.305  0.2679 -0.0598 -0.1069
19308SOL    HW259932   0.821   4.856   5.449  1.1260  0.7462  0.0805
19309SOL     OW59933   5.568   9.107   0.357 -0.3415 -0.5673  0.1611
19309SOL    HW159934   5.590   9.027   0.406  0.2773 -1.0638 -0.9062
19309SOL    HW259935   5.480   9.091   0.323  0.2565 -1.3398 -1.0925
19310SOL     OW59936   3.039   5.775   5.275  0.5070  0.3009 -0.3511
19310SOL    HW159937   3.033   5.859   5.321  2.6203 -0.3626  1.3054
19310SOL    HW259938   3.085   5.796   5.194 -2.5260  1.3460 -1.9273
19311SOL     OW59939   4.806   4.788   2.857  0.2947  0.3613  0.4078
19311SOL    HW159940   4.761   4.790   2.942 -1.7767  1.4991 -0.6428
19311SOL    HW259941   4.893   4.821   2.875 -0.8096  2.7614  1.7692
19312SOL     OW59942   3.336   8.182   0.873  0.0427 -0.6388  0.4704
19312SOL    HW159943   3.292   8.151   0.952 -0.7441 -1.1962 -0.1627
19312SOL    HW259944   3.424   8.143   0.877  0.3841  0.2042  1.5762
19313SOL     OW59945   9.883   2.008   2.469  0.6240 -0.0109 -0.0550
19313SOL    HW159946   9.870   1.988   2.376  0.7754  0.6776 -0.2312
19313SOL    HW259947   9.799   1.987   2.509  0.0851  1.0022 -0.5937
19314SOL     OW59948   4.839   0.267   2.346  0.5399  0.7847  0.0979
19314SOL    HW159949   4.916   0.320   2.369  0.5883 -0.5634  3.7981
19314SOL    HW259950   4.875   0.189   2.303  1.0346  1.0897 -0.0459
19315SOL     OW59951   5.121   3.908   3.640  0.5596 -0.6433 -0.0093
19315SOL    HW159952   5.107   3.872   3.552 -2.1039  1.5038 -0.6121
19315SOL    HW259953   5.097   4.000   3.632  0.2204 -0.3775  2.9806
19316SOL     OW59954   1.691   5.564   0.820 -1.0564  0.0646  0.1047
19316SOL    HW159955   1.749   5.598   0.888 -1.6950 -0.1933  0.7926
19316SOL    HW259956   1.706   5.621   0.745  1.4323 -1.0795 -0.3637
19317SOL     OW59957   8.010   4.360   9.972  0.6231 -0.0525 -0.1030
19317SOL    HW159958   7.999   4.343  10.065  0.3988 -1.5157 -0.3697
19317SOL    HW259959   7.954   4.296   9.929  0.4115  0.8687 -1.2470
19318SOL     OW59960   9.400   5.753   1.856  0.1806  0.7657 -0.1216
19318SOL    HW159961   9.423   5.846   1.861 -2.4738  1.4917  0.0869
19318SOL    HW259962   9.319   5.751   1.805  0.2017 -1.4558 -0.1551
19319SOL     OW59963   3.563   2.264   9.291  0.1057 -0.6973  0.6183
19319SOL    HW159964   3.509   2.339   9.316  0.3220 -0.3218  0.0023
19319SOL    HW259965   3.622   2.251   9.365  1.3805  0.9987 -0.0292
19320SOL     OW59966   3.416   8.756   4.693  0.0379  0.0362 -0.0901
19320SOL    HW159967   3.351   8.821   4.717  0.5800  0.6098 -0.1454
19320SOL    HW259968   3.408   8.688   4.760  1.2176  1.3879  1.5218
19321SOL     OW59969   3.032   0.754   0.070  0.0611 -0.6647 -0.0708
19321SOL    HW159970   3.100   0.712   0.122  1.0058 -0.7969 -1.3687
19321SOL    HW259971   3.015   0.694  -0.003  0.5734  0.5959 -1.2919
19322SOL     OW59972   3.683   3.000  10.679  0.2311 -0.2276  0.1802
19322SOL    HW159973   3.628   2.982  10.603  1.0150 -0.9023 -0.2466
19322SOL    HW259974   3.681   2.918  10.729  3.6594 -1.6624 -1.6557
19323SOL     OW59975   0.921   7.685   2.672  0.1659  0.4564 -0.5220
19323SOL    HW159976   0.838   7.638   2.669 -0.5001  1.4948  0.6428
19323SOL    HW259977   0.984   7.624   2.633 -0.7759 -1.1108  0.2793
19324SOL     OW59978   7.959   9.776   7.422  0.1347 -0.3767  0.0823
19324SOL    HW159979   7.959   9.691   7.466  0.3335 -0.7215 -0.5615
19324SOL    HW259980   7.870   9.785   7.388  0.0432 -0.2120  0.3656
19325SOL     OW59981   8.212   7.384   2.438  0.7751 -0.0586 -0.6424
19325SOL    HW159982   8.250   7.407   2.353  1.5601 -2.8689 -1.1853
19325SOL    HW259983   8.255   7.442   2.500 -0.0665  2.3223 -2.1240
19326SOL     OW59984   6.682   8.619   0.097 -0.2734  0.2114  0.2415
19326SOL    HW159985   6.630   8.539   0.104  0.4325 -0.3346 -0.4819
19326SOL    HW259986   6.760   8.601   0.149  0.8337 -0.3935 -1.5318
19327SOL     OW59987   6.336   7.518   8.188 -0.1935  0.1804 -0.3412
19327SOL    HW159988   6.389   7.439   8.175  0.6838  0.8239 -0.8127
19327SOL    HW259989   6.310   7.515   8.280  3.9226  1.7296  1.1542
19328SOL     OW59990   3.946   6.431   9.308 -0.4727  0.3084  0.0842
19328SOL    HW159991   3.963   6.411   9.400 -1.8408  0.7623  0.4692
19328SOL    HW259992   4.027   6.469   9.276 -0.1449  0.6466  1.2626
19329SOL     OW59993   8.516   9.725   2.995  0.0498  0.0276 -0.2283
19329SOL    HW159994   8.534   9.667   3.069 -0.4805 -0.4968 -0.5022
19329SOL    HW259995   8.533   9.813   3.028 -1.0032 -0.1319  0.7709
19330SOL     OW59996   6.693   2.036   9.048 -0.0930 -0.7029 -0.4310
19330SOL    HW159997   6.655   2.104   8.993 -1.7019 -2.0157 -1.0441
19330SOL    HW259998   6.711   2.079   9.131 -2.2126  0.2524 -0.3898
19331SOL     OW59999   5.153   3.400   1.417 -0.4492 -0.0748  0.4447
19331SOL    HW160000   5.196   3.474   1.376 -0.9541 -0.4688 -0.8403
19331SOL    HW260001   5.223   3.351   1.460 -0.2180  1.6108  2.1380
19332SOL     OW60002   6.751   6.002   1.526 -0.4925  0.5247  0.5838
19332SOL    HW160003   6.697   6.081   1.534  0.2034  1.2262 -1.0122
19332SOL    HW260004   6.746   5.960   1.612 -2.2583  1.4008  0.9526
19333SOL     OW60005   8.883   7.670   9.079  0.2375 -0.5161  0.3798
19333SOL    HW160006   8.943   7.596   9.086  0.9014 -0.1922 -1.3590
19333SOL    HW260007   8.926   7.730   9.018 -0.2486  1.3640  1.7835
19334SOL     OW60008   0.638   7.198   0.928  0.2133  0.1244 -0.3447
19334SOL    HW160009   0.691   7.199   0.848 -0.6103  1.7762 -0.9046
19334SOL    HW260010   0.697   7.162   0.994  2.0983  1.9598 -0.9207
19335SOL     OW60011   8.587   0.452   8.370 -0.7067 -0.0356  0.1095
19335SOL    HW160012   8.516   0.434   8.308 -2.0447  0.9521  1.3013
19335SOL    HW260013   8.559   0.412   8.452  0.1860  0.2467  0.5648
19336SOL     OW60014   7.605   9.847  10.729 -0.4669 -0.3360  0.1058
19336SOL    HW160015   7.567   9.763  10.755  2.8224 -2.2887 -0.6867
19336SOL    HW260016   7.688   9.851  10.777 -0.1840  2.1682 -0.4386
19337SOL     OW60017   3.317   1.654   8.987  0.2583 -0.0413 -0.2157
19337SOL    HW160018   3.393   1.605   8.956  0.4042 -0.3284  0.5742
19337SOL    HW260019   3.339   1.679   9.076  0.2894  1.6978 -0.6700
19338SOL     OW60020   9.603  10.449   0.083 -0.2476 -0.0309 -0.3465
19338SOL    HW160021   9.566  10.522   0.132  0.4983 -0.0860  0.3362
19338SOL    HW260022   9.686  10.482   0.049  1.3147 -1.1804  1.9902
19339SOL     OW60023   8.479   1.433   8.417  0.0752 -0.2436 -0.1369
19339SOL    HW160024   8.447   1.502   8.359  0.2549 -0.2415 -0.2352
19339SOL    HW260025   8.566   1.411   8.382 -0.5862 -1.5713 -0.9953
19340SOL     OW60026   8.095   9.892   2.408  0.5563 -0.2622 -0.1251
19340SOL    HW160027   8.026   9.882   2.342  1.9919  1.5629 -2.0114
19340SOL    HW260028   8.168   9.841   2.374  0.1469 -2.5260  2.0661
19341SOL     OW60029   4.022   2.847   7.093 -0.1960 -0.0492 -0.3357
19341SOL    HW160030   4.040   2.786   7.165  0.0631 -0.3051 -0.6152
19341SOL    HW260031   4.051   2.932   7.126  1.6601 -0.4575 -0.7970
19342SOL     OW60032   4.600   3.935   1.777 -0.5322  0.0366 -0.3891
19342SOL    HW160033   4.677   3.884   1.753 -0.2712  0.1687  0.1566
19342SOL    HW260034   4.624   4.025   1.756 -1.2225 -0.1020 -1.9472
19343SOL     OW60035   9.623   4.089   7.914 -0.1005 -0.0977 -0.7734
19343SOL    HW160036   9.623   4.185   7.917  2.3163  0.0334 -2.3135
19343SOL    HW260037   9.707   4.064   7.953 -1.0123 -1.6868  0.2980
19344SOL     OW60038   3.571   7.011   1.929  0.1833 -0.0565 -0.7589
19344SOL    HW160039   3.489   7.027   1.881 -0.6922 -3.3648 -0.5999
19344SOL    HW260040   3.572   6.917   1.943  1.4246  0.4334  3.9934
19345SOL     OW60041  11.070   8.262   2.037 -0.0666 -0.0774  0.3860
19345SOL    HW160042  11.107   8.338   1.992 -0.2712 -0.4779 -0.4609
19345SOL    HW260043  10.976   8.267   2.020 -0.2276  0.0850  1.2617
19346SOL     OW60044   8.316   5.956   3.253 -0.0015 -0.3376 -0.5120
19346SOL    HW160045   8.256   5.985   3.322 -0.4927 -0.7127 -0.7778
19346SOL    HW260046   8.370   6.033   3.235 -0.0148 -0.1662  0.1334
19347SOL     OW60047   5.013   2.477   1.965 -0.3614  0.9210 -0.3497
19347SOL    HW160048   4.953   2.551   1.951 -1.3689 -0.3637 -3.6521
19347SOL    HW260049   4.959   2.410   2.006 -0.9613  0.2204 -2.1726
19348SOL     OW60050  11.082   1.387   6.096  1.0647 -0.9612  0.0840
19348SOL    HW160051  11.038   1.423   6.172  0.3783 -0.1437 -0.6832
19348SOL    HW260052  11.116   1.463   6.049 -0.7602 -1.2048 -1.7838
19349SOL     OW60053   6.312   0.644   8.902 -0.0656  0.1438  0.5802
19349SOL    HW160054   6.386   0.612   8.852 -1.0855 -0.6094 -0.4947
19349SOL    HW260055   6.304   0.736   8.877  0.0607  0.0398  0.1559
19350SOL     OW60056   4.671   3.730  10.575  0.3080 -0.1173  0.1930
19350SOL    HW160057   4.699   3.817  10.602  1.3308 -0.2987 -0.2190
19350SOL    HW260058   4.748   3.675  10.589  0.4455 -0.4887 -1.7096
19351SOL     OW60059   9.770   2.469   3.210  0.8855  0.0758 -0.3317
19351SOL    HW160060   9.808   2.542   3.162  2.5764 -0.9091 -0.5897
19351SOL    HW260061   9.845   2.417   3.238 -0.2491 -2.1301 -1.0609
19352SOL     OW60062   4.070   7.074  10.777 -0.3789  0.2574  0.2643
19352SOL    HW160063   4.011   7.085  10.851  1.4902  0.3670  1.8301
19352SOL    HW260064   4.131   7.147  10.783  2.6612 -2.1597  1.5005
19353SOL     OW60065   8.155   0.554   5.106 -0.0831 -0.1769  0.4072
19353SOL    HW160066   8.247   0.535   5.089 -0.5906 -0.1460 -2.9521
19353SOL    HW260067   8.143   0.532   5.199  1.9987 -5.6013 -0.2433
19354SOL     OW60068   9.842   3.227   5.863 -0.1330  0.3304 -0.2260
19354SOL    HW160069   9.918   3.171   5.880 -2.5246 -2.3490  2.9422
19354SOL    HW260070   9.834   3.227   5.767  2.7791 -0.6625 -0.5900
19355SOL     OW60071   1.874   4.632   0.072 -0.7114 -0.1496  0.3129
19355SOL    HW160072   1.884   4.543   0.107  0.1290  0.2471  1.1441
19355SOL    HW260073   1.957   4.650   0.028  0.0027  0.9542  1.9701
19356SOL     OW60074   5.448   1.675  10.788  0.3032 -0.1348 -0.0175
19356SOL    HW160075   5.414   1.670  10.699 -0.9683 -1.5679  0.5065
19356SOL    HW260076   5.379   1.719  10.838  0.4508 -0.4915  0.5092
19357SOL     OW60077   9.395   6.883   0.180  0.6196  0.2566 -0.1409
19357SOL    HW160078   9.424   6.943   0.249 -0.0439  1.1405 -0.6147
19357SOL    HW260079   9.384   6.938   0.102 -1.0444 -0.2644 -0.3226
19358SOL     OW60080   7.825   7.392   6.534  0.2379  0.2522 -0.0665
19358SOL    HW160081   7.849   7.300   6.543  2.2131  0.6351 -0.9051
19358SOL    HW260082   7.876   7.437   6.601  1.7701  1.0776 -1.7160
19359SOL     OW60083   6.745   5.340   1.920 -0.0348 -0.2586  0.0486
19359SOL    HW160084   6.751   5.245   1.917 -0.1913 -0.2334 -2.0919
19359SOL    HW260085   6.772   5.370   1.834  2.2463  1.8263  1.3399
19360SOL     OW60086  10.703   0.422   0.301  0.3224 -0.2937 -0.2780
19360SOL    HW160087  10.728   0.361   0.232  0.6519  0.7620 -1.1117
19360SOL    HW260088  10.740   0.506   0.274 -1.6935  0.7159 -0.1279
19361SOL     OW60089   4.591   2.033   4.283  0.0682  1.2197 -0.0528
19361SOL    HW160090   4.611   1.962   4.344  2.0439  0.5231 -1.4084
19361SOL    HW260091   4.538   1.992   4.214  2.5023  0.5733 -1.6547
19362SOL     OW60092   1.322   1.143   3.150 -0.4214  0.3300  0.3434
19362SOL    HW160093   1.294   1.201   3.078  0.8155 -0.9944 -1.2674
19362SOL    HW260094   1.305   1.195   3.229  0.0150  2.6510 -0.9722
19363SOL     OW60095   1.268   9.354   8.799 -0.7874  0.4873  0.1725
19363SOL    HW160096   1.271   9.307   8.715  1.5047 -2.6862  1.7914
19363SOL    HW260097   1.340   9.416   8.795  1.9314 -2.3408  0.9641
19364SOL     OW60098   5.148  10.524   7.311 -0.2090  0.0046  0.1983
19364SOL    HW160099   5.155  10.539   7.216 -0.2539  0.2981  0.2406
19364SOL    HW260100   5.066  10.476   7.322  0.0716 -0.5268  0.0325
19365SOL     OW60101   3.822   3.807  10.989  0.2671  0.0785  0.3617
19365SOL    HW160102   3.892   3.868  11.009 -1.4712  2.7667 -1.1295
19365SOL    HW260103   3.855   3.722  11.018  3.8510  1.2707  0.2134
19366SOL     OW60104   6.093   2.100   3.087  0.0423 -0.1197 -0.1779
19366SOL    HW160105   6.129   2.178   3.045  0.3713  1.0851  2.1567
19366SOL    HW260106   6.104   2.031   3.022  0.1381  1.6627 -2.1801
19367SOL     OW60107   6.714   0.098   8.963  0.3531 -0.4233 -0.0506
19367SOL    HW160108   6.720   0.182   8.917 -3.1667  1.2476  2.1520
19367SOL    HW260109   6.735   0.119   9.054 -0.8946 -1.8609  0.6015
19368SOL     OW60110   2.131   4.861   9.743  0.4005  0.3359 -1.0168
19368SOL    HW160111   2.155   4.951   9.724  1.1365  0.7580  1.5550
19368SOL    HW260112   2.042   4.852   9.708  0.2427  2.1177 -1.1420
19369SOL     OW60113   0.818   9.161   5.128  0.3919  0.3654  0.4425
19369SOL    HW160114   0.858   9.074   5.133 -0.6145 -0.6104 -3.9383
19369SOL    HW260115   0.891   9.222   5.132  1.2068 -0.6749  2.7050
19370SOL     OW60116   1.090   0.088   2.784 -0.2881 -0.0638 -0.0158
19370SOL    HW160117   1.024   0.056   2.723 -0.8306  2.2921 -0.7874
19370SOL    HW260118   1.070   0.181   2.794  1.2408  0.1301  1.9309
19371SOL     OW60119   7.051  11.061   4.127  0.2699  0.5658 -0.7659
19371SOL    HW160120   7.054  11.121   4.052 -2.0520  1.0033 -0.5935
19371SOL    HW260121   6.959  11.059   4.152  0.4513 -2.1759  0.0150
19372SOL     OW60122   9.480   4.906   2.375  0.3089  0.1193 -0.4048
19372SOL    HW160123   9.417   4.907   2.446 -0.1372  1.3148 -0.7945
19372SOL    HW260124   9.441   4.961   2.307  0.9308 -0.6184 -1.3966
19373SOL     OW60125   0.869   9.218   1.092  0.4465 -0.0899 -1.2665
19373SOL    HW160126   0.803   9.155   1.121 -2.8542  3.5951  0.1558
19373SOL    HW260127   0.910   9.248   1.173  1.0275  0.5449 -1.7893
19374SOL     OW60128   2.957   7.046   1.879 -0.0796 -0.0583  0.7126
19374SOL    HW160129   2.875   7.091   1.900 -1.1180 -1.4154 -0.3152
19374SOL    HW260130   2.986   7.010   1.963 -0.8071 -0.0052  0.9941
19375SOL     OW60131  10.923   0.982   0.567  0.0731 -0.0928 -0.0254
19375SOL    HW160132  10.977   0.958   0.492  0.8641  1.0258  0.1668
19375SOL    HW260133  10.927   1.077   0.570  0.5095 -0.1407  1.7638
19376SOL     OW60134   3.175   9.064   3.516  0.2000 -0.2422  0.3100
19376SOL    HW160135   3.102   9.008   3.542 -0.2254  0.0740 -0.1908
19376SOL    HW260136   3.163   9.144   3.566  0.3350 -0.2767  0.3984
19377SOL     OW60137   1.881   9.411   4.639  0.5883  0.0240 -0.0541
19377SOL    HW160138   1.899   9.318   4.653 -1.1104 -0.4521 -0.8265
19377SOL    HW260139   1.859   9.418   4.546 -2.2107  0.6485  0.5828
19378SOL     OW60140   1.269   1.438   7.860  0.0244 -0.0201  0.2572
19378SOL    HW160141   1.188   1.423   7.811 -0.8503 -0.1147  1.6809
19378SOL    HW260142   1.256   1.391   7.943  0.9793  1.0498  1.0493
19379SOL     OW60143   2.276   0.016   7.317 -0.0555 -0.5032 -0.2111
19379SOL    HW160144   2.210  -0.051   7.300 -2.3870  1.8996 -1.2284
19379SOL    HW260145   2.273   0.073   7.241 -0.1611  2.2712  1.7433
19380SOL     OW60146   3.795   3.899   0.996  0.3311 -0.0439 -0.0617
19380SOL    HW160147   3.853   3.974   1.010  0.1304  0.2969 -0.9649
19380SOL    HW260148   3.709   3.938   0.982  0.4275 -0.3457 -1.7117
19381SOL     OW60149   7.294   8.573   2.711  0.0854 -0.1900  0.1273
19381SOL    HW160150   7.310   8.611   2.797  0.3841 -0.7241  0.3188
19381SOL    HW260151   7.243   8.638   2.664  2.0186  1.2239 -0.1604
19382SOL     OW60152   4.554   4.919   3.024  0.4383  0.5057  0.1358
19382SOL    HW160153   4.459   4.924   3.011  0.6185  1.3425 -1.0934
19382SOL    HW260154   4.565   4.863   3.100 -0.9527 -1.5258 -1.0636
19383SOL     OW60155   8.920   3.446   3.503 -0.1887 -0.3324  0.5536
19383SOL    HW160156   8.989   3.452   3.570  0.7837  1.4033 -0.5102
19383SOL    HW260157   8.961   3.484   3.424 -1.6553 -1.3147 -0.7199
19384SOL     OW60158   6.473   3.577   5.317 -0.0968  0.1498  0.1090
19384SOL    HW160159   6.545   3.513   5.321  0.1947  0.5158  2.2060
19384SOL    HW260160   6.517   3.661   5.329 -0.7825  0.4464  0.5799
19385SOL     OW60161   5.681  10.096   2.692  0.2071  0.2330  0.0920
19385SOL    HW160162   5.599  10.069   2.735 -0.2117 -0.7145 -1.2237
19385SOL    HW260163   5.675  10.058   2.605  0.5075  2.9877 -1.2358
19386SOL     OW60164   5.406   3.112   2.164  0.5320 -0.6523 -0.3596
19386SOL    HW160165   5.354   3.185   2.131 -0.9291 -1.0008  1.0519
19386SOL    HW260166   5.491   3.150   2.185  0.4578  0.2057 -1.5307
19387SOL     OW60167   1.662  10.154   7.132  1.0504 -0.0898 -0.5854
19387SOL    HW160168   1.728  10.110   7.186  2.3352  1.5833 -0.6820
19387SOL    HW260169   1.656  10.242   7.170 -0.9366 -0.0953 -0.7822
19388SOL     OW60170  10.484   4.358   6.209 -0.0038  0.1656  0.6948
19388SOL    HW160171  10.519   4.360   6.120 -0.6319  0.7563  0.4517
19388SOL    HW260172  10.401   4.310   6.201 -0.2715  0.5890  0.8777
19389SOL     OW60173   7.098   7.974   8.099  0.1304  0.2000 -0.0603
19389SOL    HW160174   7.102   8.045   8.162 -0.6813  0.6538 -0.5041
19389SOL    HW260175   7.017   7.989   8.050  0.2978 -0.6333 -0.6263
19390SOL     OW60176   7.849   2.948   4.227  0.4264 -0.4224 -0.6541
19390SOL    HW160177   7.843   2.855   4.246 -0.1131 -0.3332 -0.3835
19390SOL    HW260178   7.921   2.955   4.164 -0.3267 -1.1586 -1.6255
19391SOL     OW60179   3.380   0.564   2.958  0.3207  0.8283 -0.1921
19391SOL    HW160180   3.446   0.625   2.926  1.0543  0.1481 -0.0155
19391SOL    HW260181   3.413   0.536   3.044  0.0508  0.1155 -0.3144
19392SOL     OW60182   7.573   5.284   1.797 -0.3962 -0.0755  0.9933
19392SOL    HW160183   7.523   5.233   1.861  0.8091 -0.6348  1.5258
19392SOL    HW260184   7.593   5.222   1.727 -1.7231  0.5414  0.0357
19393SOL     OW60185   7.999   8.328   8.479 -0.4621  0.3305 -0.4609
19393SOL    HW160186   8.073   8.336   8.419 -0.4828  0.5397 -0.4585
19393SOL    HW260187   7.958   8.415   8.480 -1.6528 -0.1885 -1.6524
19394SOL     OW60188   2.425   1.583   2.766 -0.0184  0.2367  1.1559
19394SOL    HW160189   2.505   1.533   2.750 -0.4367  0.2203 -1.3070
19394SOL    HW260190   2.357   1.516   2.778 -0.4312  0.1011 -1.3504
19395SOL     OW60191   4.884   4.158   5.663  0.2476 -0.4247  0.4164
19395SOL    HW160192   4.907   4.251   5.660 -0.8496 -0.1068  1.0082
19395SOL    HW260193   4.955   4.117   5.713 -0.0051  0.3660  1.4727
19396SOL     OW60194   4.722   0.418   9.914  0.2561  0.0601  0.5392
19396SOL    HW160195   4.658   0.349   9.931  1.4067 -0.7828  1.5389
19396SOL    HW260196   4.804   0.386   9.952  0.5660  2.4589  2.1232
19397SOL     OW60197   4.373   2.501   0.355 -0.0254 -0.4507  0.0452
19397SOL    HW160198   4.452   2.484   0.406  1.2775  0.8972 -1.3995
19397SOL    HW260199   4.301   2.481   0.414  1.3963 -1.4317  1.5118
19398SOL     OW60200   5.390   8.940   9.912  0.0556 -0.3924 -0.1298
19398SOL    HW160201   5.296   8.928   9.895 -0.4249  1.1206  1.2262
19398SOL    HW260202   5.406   9.032   9.892  1.2201 -0.5756 -0.1183
19399SOL     OW60203   5.972   3.555   4.352  0.4470 -0.5918  0.2950
19399SOL    HW160204   6.011   3.640   4.371  0.7365 -0.2423 -1.6218
19399SOL    HW260205   5.998   3.499   4.425  3.5832 -0.0545 -0.2964
19400SOL     OW60206   5.839   1.474   9.570 -0.1995  0.3247 -0.1880
19400SOL    HW160207   5.780   1.502   9.640 -1.1690  1.2870 -1.3510
19400SOL    HW260208   5.834   1.544   9.505  2.0719  0.3351 -0.4363
19401SOL     OW60209   9.053   0.863   0.913 -0.6416 -0.0415  0.4862
19401SOL    HW160210   9.001   0.925   0.863  0.2124 -0.8917 -1.5457
19401SOL    HW260211   9.077   0.910   0.993  2.1160  3.2413 -2.0266
19402SOL     OW60212  10.375   1.999   8.222 -0.1921 -0.3551 -0.5044
19402SOL    HW160213  10.362   2.022   8.314 -0.0436  0.6370 -0.7261
19402SOL    HW260214  10.355   1.905   8.218 -0.0703 -0.4361  0.5605
19403SOL     OW60215   5.904   7.614   2.058  0.4577  0.2946  0.8830
19403SOL    HW160216   5.892   7.554   2.132 -3.0614 -1.7381 -1.0730
19403SOL    HW260217   5.834   7.678   2.067  1.3898  1.3936  0.4928
19404SOL     OW60218   6.343   1.047   5.253  0.0658 -0.3800  0.6464
19404SOL    HW160219   6.323   0.970   5.199 -1.6147  2.2017 -2.7726
19404SOL    HW260220   6.430   1.075   5.225 -0.0490 -0.0660  0.6002
19405SOL     OW60221   0.033   9.381   2.605  0.4993  0.2363  0.0830
19405SOL    HW160222  -0.026   9.439   2.654 -0.2842 -0.3740 -0.1221
19405SOL    HW260223   0.023   9.408   2.514 -0.7503 -0.9650 -0.1570
19406SOL     OW60224  10.386   3.545  10.056 -0.9517  0.0989 -0.0591
19406SOL    HW160225  10.423   3.551   9.969 -0.6762  0.0419  0.0539
19406SOL    HW260226  10.461   3.555  10.115 -1.2949  1.3859  0.1929
19407SOL     OW60227   1.533   7.451   1.538  0.3000  0.2977 -0.0259
19407SOL    HW160228   1.519   7.360   1.510 -1.2925  1.0969 -2.1559
19407SOL    HW260229   1.508   7.503   1.461 -0.8756  2.6167  1.8007
19408SOL     OW60230   6.384   3.654   4.039 -0.5215 -0.1055 -0.7531
19408SOL    HW160231   6.398   3.693   4.125 -4.2263 -0.3764  0.1643
19408SOL    HW260232   6.436   3.573   4.041 -0.4195 -0.0445  1.1927
19409SOL     OW60233   6.367   3.276   9.659 -0.0910 -0.0741 -0.0895
19409SOL    HW160234   6.408   3.191   9.680 -0.6045 -0.3210 -0.0700
19409SOL    HW260235   6.428   3.341   9.694 -0.8639 -0.4598  2.1672
19410SOL     OW60236   9.672   1.413   5.389 -0.4286 -0.5359  0.4376
19410SOL    HW160237   9.724   1.420   5.308 -0.4055 -1.0534  0.4000
19410SOL    HW260238   9.735   1.387   5.456 -0.6939 -1.5812  0.3061
19411SOL     OW60239  10.452   3.292   1.666  0.7542 -0.0459 -0.1753
19411SOL    HW160240  10.507   3.313   1.590 -0.4945  2.2673 -0.5127
19411SOL    HW260241  10.368   3.331   1.646 -0.8496 -2.7426  0.7199
19412SOL     OW60242   4.681   2.697   2.402  0.0696  0.3275 -0.3584
19412SOL    HW160243   4.733   2.723   2.325 -1.3004  0.6719 -1.2036
19412SOL    HW260244   4.607   2.648   2.365 -0.4886  0.2985  0.7727
19413SOL     OW60245   7.448   0.125   9.318  0.4222  0.6682 -0.2779
19413SOL    HW160246   7.543   0.122   9.317  0.4768  1.7147 -0.0220
19413SOL    HW260247   7.427   0.219   9.316 -0.6249  0.4361 -1.4537
19414SOL     OW60248   7.905   4.972   8.923  0.4307  0.1059  0.1547
19414SOL    HW160249   7.901   5.067   8.911  0.4461 -0.1041 -1.9083
19414SOL    HW260250   7.815   4.946   8.942  0.2642  0.4328 -0.1818
19415SOL     OW60251   6.472   5.945   0.736  0.4976 -0.2505  0.0244
19415SOL    HW160252   6.561   5.947   0.702  0.1200 -2.2232 -1.2170
19415SOL    HW260253   6.416   5.938   0.658 -0.8800  2.3050  0.6756
19416SOL     OW60254   0.326   8.177   5.374  0.2596  0.6895 -0.0680
19416SOL    HW160255   0.365   8.090   5.378  0.1557  0.6287 -0.4010
19416SOL    HW260256   0.330   8.208   5.464 -1.5231 -0.4631  0.4739
19417SOL     OW60257   5.131   4.689   6.478 -0.4652  0.1180  0.5524
19417SOL    HW160258   5.186   4.637   6.536 -0.0996 -2.7990 -2.1070
19417SOL    HW260259   5.136   4.643   6.393 -0.8932  4.0702 -1.8544
19418SOL     OW60260   5.961   1.236   9.100  0.7251 -0.7026  0.2560
19418SOL    HW160261   5.918   1.193   9.026 -1.6367  0.6804  0.7460
19418SOL    HW260262   6.053   1.239   9.075 -0.2052  1.7475 -3.7360
19419SOL     OW60263   9.147   5.032   2.287 -0.1719 -0.4449 -0.4340
19419SOL    HW160264   9.089   4.984   2.347  0.3909 -0.2395  0.2850
19419SOL    HW260265   9.162   5.116   2.330  1.4342 -0.8621 -0.1318
19420SOL     OW60266   0.076   2.097   7.564 -0.2210  0.3015  0.6800
19420SOL    HW160267   0.059   2.048   7.484  0.2906  0.2497  0.6013
19420SOL    HW260268   0.170   2.115   7.562 -0.3396  0.9775  0.8785
19421SOL     OW60269   1.928   5.909   7.525 -0.2379  0.0660 -0.3033
19421SOL    HW160270   1.962   5.914   7.435  0.6960 -0.5872 -0.0087
19421SOL    HW260271   1.903   5.999   7.546  2.4790  0.8889 -0.1378
19422SOL     OW60272  10.526   6.868   1.421 -0.0327 -0.3744 -0.2034
19422SOL    HW160273  10.520   6.780   1.458  1.1643 -1.1793 -1.7940
19422SOL    HW260274  10.565   6.855   1.335  3.4310  2.0083  0.7777
19423SOL     OW60275   1.692   8.014   9.760  0.1275  0.1071 -0.1491
19423SOL    HW160276   1.663   7.944   9.701  0.9683  0.1053 -0.5642
19423SOL    HW260277   1.722   7.969   9.838 -1.0551  0.1132  0.3389
19424SOL     OW60278   8.664   3.885   2.879  0.0812  1.2152 -0.3370
19424SOL    HW160279   8.693   3.976   2.879 -0.4615  1.3973 -1.4026
19424SOL    HW260280   8.665   3.859   2.787  0.0224  0.2109 -0.0626
19425SOL     OW60281   4.950   3.290   9.392  0.1505  0.3515 -0.0005
19425SOL    HW160282   5.026   3.329   9.348 -0.8260  0.8533 -1.3326
19425SOL    HW260283   4.966   3.302   9.485  0.8603  2.1133 -0.3234
19426SOL     OW60284   9.553   1.767   8.415  0.5264  0.0679 -0.6149
19426SOL    HW160285   9.493   1.711   8.365  2.0281 -0.8919 -1.4160
19426SOL    HW260286   9.567   1.720   8.496  0.0688  0.3864 -0.3457
19427SOL     OW60287   1.806   6.952   9.238  0.4728  0.0612 -0.6504
19427SOL    HW160288   1.754   7.031   9.247  1.1744  0.6066 -1.3259
19427SOL    HW260289   1.786   6.919   9.150 -0.6300 -1.1213 -0.0021
19428SOL     OW60290  11.006   8.994   7.768 -0.0485 -0.2616 -0.4726
19428SOL    HW160291  10.964   9.071   7.805 -1.7337 -1.0635 -0.6479
19428SOL    HW260292  11.044   9.025   7.685 -0.0504  0.5340 -0.1837
19429SOL     OW60293  10.358   2.890   1.334 -0.4696  0.0112 -0.5030
19429SOL    HW160294  10.428   2.897   1.398 -0.5277 -0.2941 -0.4022
19429SOL    HW260295  10.279   2.919   1.380 -0.3042  0.9985 -0.8157
19430SOL     OW60296  10.866   0.886   5.935 -0.0477 -0.2683 -0.2225
19430SOL    HW160297  10.917   0.967   5.930  1.0812 -0.7091  2.2664
19430SOL    HW260298  10.781   0.909   5.898 -0.0505  2.3380  1.1501
19431SOL     OW60299   3.534   8.749   0.943  0.0046  0.2840 -0.0103
19431SOL    HW160300   3.567   8.661   0.924 -0.8413 -0.2907  1.0291
19431SOL    HW260301   3.457   8.734   0.998 -1.1975  1.6181 -1.2351
19432SOL     OW60302   4.764   3.442   0.243  0.1466  0.0805  0.0746
19432SOL    HW160303   4.761   3.381   0.317 -1.9663 -1.6569 -1.3145
19432SOL    HW260304   4.854   3.437   0.211  0.9844  0.5254  2.1689
19433SOL     OW60305   8.225   7.023   8.190  0.9303  0.0724  0.3369
19433SOL    HW160306   8.212   7.067   8.106 -1.7232 -0.7398  0.2407
19433SOL    HW260307   8.313   6.984   8.183  1.0609  0.6032 -1.7553
19434SOL     OW60308   8.083   1.795   3.950 -0.4320 -0.4838 -0.3959
19434SOL    HW160309   8.048   1.758   4.031 -0.1136  0.0695  0.0056
19434SOL    HW260310   8.171   1.824   3.974  0.1946 -1.5671 -1.2986
19435SOL     OW60311   7.588   2.316  10.232 -0.1811  0.2944 -0.1602
19435SOL    HW160312   7.520   2.382  10.217 -0.6639 -0.0768  0.3495
19435SOL    HW260313   7.635   2.311  10.149 -1.5570 -0.3093 -0.9469
19436SOL     OW60314   2.092   0.867   2.106  0.3502 -0.2353 -0.4853
19436SOL    HW160315   2.053   0.845   2.021 -1.8267  3.2962 -0.6003
19436SOL    HW260316   2.019   0.862   2.168  1.3142 -0.1592  0.6867
19437SOL     OW60317   2.617   4.212   1.875 -0.0896  0.6315 -0.2422
19437SOL    HW160318   2.529   4.210   1.838 -0.5885  2.1865  0.7870
19437SOL    HW260319   2.661   4.284   1.830 -0.1088  1.3453  0.8522
19438SOL     OW60320   8.885   9.480  10.597  0.4806  0.4145  0.5138
19438SOL    HW160321   8.805   9.441  10.633  0.9883 -0.8565  0.3240
19438SOL    HW260322   8.953   9.455  10.660  1.3018 -1.4366 -1.0320
19439SOL     OW60323   2.582   2.388   7.770 -0.3941 -0.8042  0.2888
19439SOL    HW160324   2.646   2.426   7.831 -0.5033  1.4565 -0.8851
19439SOL    HW260325   2.603   2.295   7.767  1.9985 -0.3365  0.9207
19440SOL     OW60326   6.732   9.564   1.597 -0.3650 -0.2621  0.0675
19440SOL    HW160327   6.786   9.582   1.674  0.5797  1.6752 -0.9627
19440SOL    HW260328   6.717   9.469   1.599 -0.4693 -0.2561  2.6523
19441SOL     OW60329   2.736   9.845   1.805  0.0209 -0.3582  0.3369
19441SOL    HW160330   2.642   9.849   1.788 -0.2431 -1.2750  1.4639
19441SOL    HW260331   2.774   9.811   1.724 -0.7717 -1.2092  0.3106
19442SOL     OW60332   5.272   1.718   8.757 -0.1426 -0.1044 -0.1713
19442SOL    HW160333   5.362   1.685   8.756 -0.0998  0.0085 -0.1725
19442SOL    HW260334   5.248   1.720   8.850  0.8516  2.4584  0.1331
19443SOL     OW60335   9.170   3.713   4.696  0.0132  1.0005  0.3250
19443SOL    HW160336   9.100   3.678   4.751 -0.2225  0.3689 -0.3483
19443SOL    HW260337   9.182   3.803   4.726 -0.9648  1.0647  0.5745
19444SOL     OW60338   3.942   5.603   5.549 -0.0879 -0.0952  0.0232
19444SOL    HW160339   3.909   5.658   5.478  1.1995  0.2039 -0.3669
19444SOL    HW260340   3.894   5.521   5.540  0.6914 -0.4062 -1.7830
19445SOL     OW60341   2.663   7.393   5.027 -0.1699  0.0607 -0.1198
19445SOL    HW160342   2.653   7.459   5.095  0.9772 -0.2044  0.3255
19445SOL    HW260343   2.669   7.444   4.946  1.0679  0.5454  0.2525
19446SOL     OW60344   5.921   2.964   0.603  0.1124  0.3338 -0.0108
19446SOL    HW160345   5.945   2.992   0.691  0.9507 -0.8030  0.1405
19446SOL    HW260346   5.914   3.046   0.553 -0.0624  0.9705  1.0172
19447SOL     OW60347   5.139   3.091   1.078  0.2853  0.2164  0.3717
19447SOL    HW160348   5.077   3.045   1.022  0.4539 -0.4407  0.7070
19447SOL    HW260349   5.126   3.052   1.165  2.5007 -1.3386  0.0836
19448SOL     OW60350   5.385   1.777   3.828  0.0210  0.0859  0.4273
19448SOL    HW160351   5.349   1.838   3.763  0.8308 -1.0983 -1.1999
19448SOL    HW260352   5.309   1.745   3.876 -0.6860  0.3845 -0.4607
19449SOL     OW60353   6.143  10.519   3.731  0.2411 -0.5974 -0.4288
19449SOL    HW160354   6.119  10.580   3.801 -0.7671 -1.3211 -0.1175
19449SOL    HW260355   6.178  10.575   3.662 -4.2629  0.9814 -1.8093
19450SOL     OW60356   6.831   6.820   1.598 -0.1477  0.2786 -0.7695
19450SOL    HW160357   6.770   6.769   1.652 -1.1594 -0.3818 -2.4780
19450SOL    HW260358   6.903   6.840   1.657 -1.1913 -0.4404  0.8279
19451SOL     OW60359   6.379   1.779   2.831  0.1254 -0.1330 -0.4909
19451SOL    HW160360   6.369   1.691   2.866  0.9995  1.2074  3.5952
19451SOL    HW260361   6.472   1.784   2.806  0.2181 -0.1619 -0.1469
19452SOL     OW60362   8.232   3.372   6.437  0.3975  0.0099 -0.6009
19452SOL    HW160363   8.279   3.338   6.360 -0.3443 -2.7210  0.0248
19452SOL    HW260364   8.206   3.460   6.413  1.7835 -0.0957 -2.7578
19453SOL     OW60365   0.715   4.128   1.370 -1.0134  0.2585  0.0638
19453SOL    HW160366   0.643   4.064   1.367 -1.6586  0.7461  2.7096
19453SOL    HW260367   0.736   4.136   1.463  5.2374 -2.8031 -0.5805
19454SOL     OW60368  11.099   4.650   6.308 -0.2363  0.1676  0.0406
19454SOL    HW160369  11.126   4.572   6.356 -0.1479  0.1130 -0.0968
19454SOL    HW260370  11.176   4.675   6.257  0.3739  1.4583  1.5207
19455SOL     OW60371   6.579   1.909   7.187 -0.1227 -0.1058  0.7200
19455SOL    HW160372   6.616   1.852   7.254 -1.1635 -0.6893  0.8147
19455SOL    HW260373   6.488   1.882   7.180 -0.6382  1.5241  0.7407
19456SOL     OW60374   0.510   3.387   5.144 -0.3525 -0.0779  0.2904
19456SOL    HW160375   0.539   3.455   5.205 -0.8660  1.5962 -1.2484
19456SOL    HW260376   0.417   3.375   5.163 -0.7256  1.0937 -0.7214
19457SOL     OW60377   9.614   3.773   1.549 -0.3190  0.3839  0.6131
19457SOL    HW160378   9.523   3.744   1.552 -0.2281 -0.0491 -0.5773
19457SOL    HW260379   9.610   3.868   1.562 -1.1607  0.7251 -1.8309
19458SOL     OW60380   5.153   8.212   5.404 -0.0146  0.2079  0.0770
19458SOL    HW160381   5.205   8.187   5.328  0.8037 -1.1165  1.0352
19458SOL    HW260382   5.212   8.267   5.456 -0.4910  0.9073 -0.1015
19459SOL     OW60383   3.189   5.402   3.729  0.1148 -0.5498 -0.3477
19459SOL    HW160384   3.119   5.438   3.675  0.1799  1.0907  0.5885
19459SOL    HW260385   3.167   5.309   3.738 -1.6302 -0.1957 -0.5717
19460SOL     OW60386   6.464   1.911   3.970 -0.5508  0.2391  0.5937
19460SOL    HW160387   6.408   1.968   4.021  0.5663  1.2928  0.6807
19460SOL    HW260388   6.404   1.865   3.911 -1.6397  0.3192  1.6080
19461SOL     OW60389   2.007   7.607   0.332 -0.1008 -0.3095 -0.4542
19461SOL    HW160390   2.037   7.620   0.422 -0.6451  1.3433 -0.4860
19461SOL    HW260391   1.912   7.598   0.339 -0.4460  2.2002 -1.0253
19462SOL     OW60392   6.772   6.435   3.360  0.1511 -0.2347 -0.1095
19462SOL    HW160393   6.710   6.367   3.337  0.9144 -1.3229  0.9402
19462SOL    HW260394   6.804   6.411   3.447  0.2754  1.5857  0.3952
19463SOL     OW60395   3.628  10.380  10.723 -0.1040  0.2107  0.3197
19463SOL    HW160396   3.599  10.470  10.712  0.0012  0.2375  0.2594
19463SOL    HW260397   3.606  10.338  10.639  1.6072  0.6677 -0.3985
19464SOL     OW60398   8.683   3.946   0.213  0.2188  0.3974  0.2375
19464SOL    HW160399   8.634   3.976   0.137  1.4099 -0.1967 -0.7972
19464SOL    HW260400   8.619   3.898   0.265 -0.3166 -0.3517 -1.0661
19465SOL     OW60401   5.321   1.965   5.978  0.0705 -0.7377 -0.2100
19465SOL    HW160402   5.237   1.919   5.973 -0.3146  0.0397 -1.3206
19465SOL    HW260403   5.356   1.942   6.064 -2.4424  0.8910  1.3593
19466SOL     OW60404   2.322   3.933   3.420  0.6639  0.2994 -0.6229
19466SOL    HW160405   2.387   3.990   3.377  1.3836  0.3815  0.5169
19466SOL    HW260406   2.374   3.879   3.480 -0.2586 -0.1326 -0.1929
19467SOL     OW60407   1.868  10.371   4.053  0.2602 -0.9274 -0.2152
19467SOL    HW160408   1.823  10.364   4.137  0.0928 -1.1408 -0.3218
19467SOL    HW260409   1.846  10.291   4.006 -0.2452 -0.4833 -0.7531
19468SOL     OW60410  10.996   7.290   0.397 -0.4480  0.6160  0.4243
19468SOL    HW160411  11.010   7.268   0.305 -3.3563  0.2114 -0.0191
19468SOL    HW260412  10.987   7.385   0.398 -0.7955  0.5876  0.2105
19469SOL     OW60413   2.637   8.447   4.370 -0.3687  0.0831  0.2728
19469SOL    HW160414   2.693   8.524   4.379 -0.2922 -0.0802  1.5062
19469SOL    HW260415   2.695   8.373   4.390 -0.2545 -0.3852 -1.6290
19470SOL     OW60416   2.452   8.028   9.317  0.0248 -0.1420 -0.0884
19470SOL    HW160417   2.488   8.029   9.406  1.2773 -0.7470 -0.5731
19470SOL    HW260418   2.387   7.958   9.318  0.3649 -0.4522  0.2144
19471SOL     OW60419  10.183   0.929   3.969  0.0634  0.5174 -0.1414
19471SOL    HW160420  10.158   1.020   3.984 -2.9541  0.2904 -2.5441
19471SOL    HW260421  10.109   0.893   3.919  0.9152 -3.3910  1.0968
19472SOL     OW60422   9.524   8.642   0.266 -0.2350  0.5095 -0.1293
19472SOL    HW160423   9.433   8.672   0.270  0.0499  1.3197  0.6445
19472SOL    HW260424   9.551   8.635   0.358  0.5510  0.4911 -0.3532
19473SOL     OW60425   8.210   5.655  10.057  0.1077  0.5922  0.5830
19473SOL    HW160426   8.130   5.671  10.107 -1.0307 -1.5212 -0.4432
19473SOL    HW260427   8.221   5.560  10.059  3.2319  0.8555  1.5854
19474SOL     OW60428   3.260  10.317   5.152  0.3885 -0.0336  0.6475
19474SOL    HW160429   3.345  10.318   5.196  1.5077  4.0735 -1.1258
19474SOL    HW260430   3.206  10.378   5.202 -0.2668  0.2551 -0.3870
19475SOL     OW60431   2.080   6.710   0.587  0.4494 -0.6357  0.6413
19475SOL    HW160432   2.081   6.679   0.496 -1.4209  1.0659 -0.0378
19475SOL    HW260433   2.047   6.636   0.637 -2.8808 -0.2943 -0.7804
19476SOL     OW60434  10.139   7.013   9.775  0.7803 -0.1478  0.1632
19476SOL    HW160435  10.096   6.992   9.692  1.8357  0.7042 -0.6252
19476SOL    HW260436  10.135   6.932   9.826  1.5369 -1.1677 -1.3457
19477SOL     OW60437   7.785   4.630   9.794  0.4173  0.0408 -0.2918
19477SOL    HW160438   7.751   4.567   9.859 -0.9490  1.0113 -0.0296
19477SOL    HW260439   7.879   4.633   9.811  0.2855 -0.7943  0.7024
19478SOL     OW60440   4.253   6.147   3.721  0.5739  0.2201  0.5905
19478SOL    HW160441   4.194   6.119   3.651  0.5988  2.4397 -0.3909
19478SOL    HW260442   4.197   6.162   3.796  0.3066 -0.4952  0.5399
19479SOL     OW60443   9.393   7.063   8.438  0.6883  0.1880 -0.0846
19479SOL    HW160444   9.477   7.100   8.465  0.5593  0.7005 -0.3765
19479SOL    HW260445   9.354   7.130   8.382 -0.6711  0.6838  1.3986
19480SOL     OW60446   3.406   7.157   3.296  0.3763 -0.1738  0.9124
19480SOL    HW160447   3.494   7.119   3.300  0.5467  0.3506  2.5873
19480SOL    HW260448   3.358   7.114   3.366 -0.5839 -0.0940  0.3214
19481SOL     OW60449   7.848   2.454   0.489 -0.3481 -0.0342  0.2748
19481SOL    HW160450   7.936   2.438   0.455  0.2125 -0.7470  1.9574
19481SOL    HW260451   7.859   2.529   0.548 -1.2147  0.9370 -0.7602
19482SOL     OW60452   1.180   6.444  10.348  0.3328  0.3679 -0.3694
19482SOL    HW160453   1.262   6.406  10.318  0.1265 -1.4838  1.1781
19482SOL    HW260454   1.189   6.447  10.444 -0.8876  1.3799 -0.2598
19483SOL     OW60455  10.809   2.087   4.556 -0.5033  0.0035  0.4437
19483SOL    HW160456  10.899   2.053   4.555 -0.7832 -0.9676  2.4944
19483SOL    HW260457  10.754   2.009   4.549 -1.2041  0.5714 -0.5816
19484SOL     OW60458   3.901   5.917   4.110  1.1335  0.1494  0.1167
19484SOL    HW160459   3.812   5.909   4.076  0.4423  0.8537  1.6572
19484SOL    HW260460   3.934   5.827   4.109  1.2466  0.1456 -2.4910
19485SOL     OW60461   2.383  10.120   2.108  0.3734  0.2715  0.0209
19485SOL    HW160462   2.405  10.213   2.117 -0.1853  0.4787 -0.6338
19485SOL    HW260463   2.288  10.119   2.096  0.3030 -0.4331  0.6139
19486SOL     OW60464   0.019   4.590   3.054 -0.4402 -0.4085 -0.3712
19486SOL    HW160465  -0.046   4.628   2.996 -0.2949  2.2320  1.0366
19486SOL    HW260466  -0.032   4.541   3.119 -1.0892  1.3947  0.5449
19487SOL     OW60467   0.247   5.130  10.770 -0.4874 -0.0335 -0.7611
19487SOL    HW160468   0.174   5.181  10.735 -1.2218  1.0816  2.1677
19487SOL    HW260469   0.209   5.075  10.838  1.3639  0.6896  0.9652
19488SOL     OW60470   2.829  10.279   5.172 -0.2808  0.4602 -0.4494
19488SOL    HW160471   2.850  10.360   5.219 -0.3598  0.0005  0.3972
19488SOL    HW260472   2.735  10.267   5.187  0.1696 -1.0891  1.5616
19489SOL     OW60473   3.242   5.220   1.239 -0.1595 -0.3053  0.2037
19489SOL    HW160474   3.334   5.203   1.217 -0.1283 -0.5146  0.4878
19489SOL    HW260475   3.222   5.304   1.198  0.1872 -0.2151  0.2186
19490SOL     OW60476   9.881  10.126   5.904 -0.2063  0.2562  0.5608
19490SOL    HW160477   9.845  10.202   5.858 -0.2275  0.9782  1.7388
19490SOL    HW260478   9.868  10.053   5.844  0.8794  1.3699 -1.1089
19491SOL     OW60479   7.830   6.222  10.755 -0.1314 -0.4320  0.2697
19491SOL    HW160480   7.780   6.164  10.813  2.5937 -1.5162  1.6856
19491SOL    HW260481   7.918   6.185  10.754  1.3920  2.8524  0.0584
19492SOL     OW60482   0.801  10.187   2.230  0.0583  0.7154  0.4176
19492SOL    HW160483   0.711  10.158   2.211  0.2818  0.2795  0.0058
19492SOL    HW260484   0.790  10.257   2.294 -0.7270  2.3015 -1.3820
19493SOL     OW60485   8.678   5.265   5.027 -0.6258 -0.7892 -0.3997
19493SOL    HW160486   8.585   5.244   5.028 -0.6644 -0.7454 -1.6545
19493SOL    HW260487   8.722   5.180   5.016 -0.4746 -0.8822  0.8226
19494SOL     OW60488   9.857   1.154  10.722  0.0536 -0.1170 -0.0081
19494SOL    HW160489   9.814   1.239  10.712  1.7955  0.8114  0.0469
19494SOL    HW260490   9.877   1.148  10.816  1.1754  0.0727 -0.2194
19495SOL     OW60491   8.077   9.807  10.117 -0.5565  0.0769 -0.1854
19495SOL    HW160492   8.122   9.748  10.056  0.7942 -1.5130  2.1770
19495SOL    HW260493   8.145   9.866  10.149 -0.0414 -1.9698  2.9781
19496SOL     OW60494   5.343   7.703  10.439 -0.6419  0.0642 -0.0208
19496SOL    HW160495   5.391   7.759  10.378  1.0609  0.6837  1.8016
19496SOL    HW260496   5.297   7.764  10.497  0.8804 -0.3504  1.7138
19497SOL     OW60497   9.511   5.976   1.382  0.1951 -0.1257 -0.4707
19497SOL    HW160498   9.447   6.032   1.338 -1.1477  0.3679  1.9572
19497SOL    HW260499   9.459   5.909   1.425  1.4247 -0.6040  0.3261
19498SOL     OW60500   7.345   4.703   0.478  0.1611  0.0873 -0.7139
19498SOL    HW160501   7.296   4.634   0.434 -0.4225  1.1747 -1.8459
19498SOL    HW260502   7.430   4.664   0.497 -1.5241 -2.3725  2.6993
19499SOL     OW60503   9.124   1.641   4.040  0.0998 -0.1416  0.0562
19499SOL    HW160504   9.217   1.661   4.046 -0.0274  0.4407  0.2211
19499SOL    HW260505   9.119   1.546   4.038  0.6936 -0.1743  0.1379
19500SOL     OW60506   6.034   1.186   4.022 -0.3644  0.4041 -0.1315
19500SOL    HW160507   6.126   1.189   4.050  0.0396  1.4838 -1.4130
19500SOL    HW260508   6.020   1.096   3.996 -0.5316 -0.4532  2.6483
19501SOL     OW60509   4.223   9.809   0.961 -0.6322 -0.5436  0.0149
19501SOL    HW160510   4.251   9.726   0.924 -2.3180 -0.5202 -1.4565
19501SOL    HW260511   4.139   9.790   1.003 -2.3676  0.8220 -2.5749
19502SOL     OW60512   2.028  10.331   6.279 -0.2411 -0.0625  0.4597
19502SOL    HW160513   2.061  10.421   6.282 -1.0236  0.2081  2.0211
19502SOL    HW260514   1.935  10.340   6.262 -0.5597 -0.4868  1.8784
19503SOL     OW60515   0.828   2.884   9.636 -0.6451 -0.1177 -0.3248
19503SOL    HW160516   0.803   2.835   9.558 -0.5154 -0.3810 -0.2032
19503SOL    HW260517   0.905   2.934   9.609  0.0796 -1.0629 -0.0583
19504SOL     OW60518   6.879   4.090   8.522 -0.1430 -0.8976  0.7752
19504SOL    HW160519   6.909   4.094   8.432  1.2799 -0.8621  1.2380
19504SOL    HW260520   6.940   4.031   8.566 -1.3404 -1.6409  1.5308
19505SOL     OW60521   1.395   5.186   8.625  0.3612  0.2752  0.5590
19505SOL    HW160522   1.453   5.113   8.649  0.9615  0.3655 -0.5551
19505SOL    HW260523   1.400   5.190   8.529 -1.8830 -0.0354  0.3780
19506SOL     OW60524   6.087   7.893   0.377 -0.6895  0.2273  0.2354
19506SOL    HW160525   6.160   7.832   0.364 -0.6437  0.3750 -0.2126
19506SOL    HW260526   6.084   7.907   0.472 -0.0020  0.3783  0.2417
19507SOL     OW60527  10.591   5.496   1.237  0.3673 -0.5803  0.2237
19507SOL    HW160528  10.514   5.546   1.265  0.2139 -0.4249 -0.4744
19507SOL    HW260529  10.561   5.405   1.236 -0.7506 -0.2974 -2.9546
19508SOL     OW60530   0.265   7.582   9.163 -0.0021 -0.5618  0.0816
19508SOL    HW160531   0.315   7.535   9.230 -0.2805 -0.7915  0.1310
19508SOL    HW260532   0.331   7.624   9.108  0.2241  1.5164  1.8080
19509SOL     OW60533   7.664  10.089   3.343  0.1015  0.6452 -0.2579
19509SOL    HW160534   7.641  10.004   3.304  1.8019 -0.0808  0.2504
19509SOL    HW260535   7.608  10.096   3.420  0.0487 -0.0894 -0.2200
19510SOL     OW60536   8.810   5.208   9.472  0.8907  0.1062 -0.2802
19510SOL    HW160537   8.880   5.167   9.523  0.0531  0.9818  1.6800
19510SOL    HW260538   8.755   5.251   9.537 -0.5477  0.8600 -1.9118
19511SOL     OW60539   5.717   1.936   0.611 -0.0605  0.6255  1.4017
19511SOL    HW160540   5.625   1.959   0.593  0.3549  1.6041  0.4034
19511SOL    HW260541   5.720   1.841   0.601 -0.6002  0.7671 -0.3801
19512SOL     OW60542   3.906   6.095   9.364  0.0867  0.6005 -0.0967
19512SOL    HW160543   3.851   6.016   9.367  2.3441 -1.1081  2.9709
19512SOL    HW260544   3.880   6.144   9.442  0.1860  1.8489 -0.8314
19513SOL     OW60545   6.097   0.688   9.631  0.1839  0.2505 -0.0519
19513SOL    HW160546   6.096   0.664   9.538 -3.1976 -5.1179  0.9277
19513SOL    HW260547   6.046   0.769   9.635 -1.8278 -0.7181 -2.7596
19514SOL     OW60548   6.349   5.635   2.745  0.1117 -0.2678  0.5159
19514SOL    HW160549   6.343   5.681   2.661 -0.8067  1.8835  1.6714
19514SOL    HW260550   6.324   5.545   2.725 -0.3462  0.2554 -1.4692
19515SOL     OW60551  10.541   5.993   3.103  0.6242 -0.2575 -0.1772
19515SOL    HW160552  10.568   5.914   3.150 -0.0939 -1.0754 -1.0943
19515SOL    HW260553  10.451   6.008   3.131  0.1714 -0.7800 -1.2798
19516SOL     OW60554   2.190   7.819   2.499  0.6048  0.0445  0.4609
19516SOL    HW160555   2.165   7.837   2.408  4.2932  0.0832 -0.7041
19516SOL    HW260556   2.214   7.904   2.535 -2.0210  0.2327  2.0205
19517SOL     OW60557   7.846   9.100   8.453  0.4968  0.2431  0.5378
19517SOL    HW160558   7.832   9.143   8.368 -0.8917 -1.8004 -0.3301
19517SOL    HW260559   7.879   9.013   8.431 -3.2510 -1.7261  1.7465
19518SOL     OW60560   7.301   4.605   1.792  0.1694  0.2274 -0.7102
19518SOL    HW160561   7.295   4.512   1.814  1.8444  0.7726  2.7825
19518SOL    HW260562   7.376   4.610   1.732 -0.7043 -0.7359 -1.9418
19519SOL     OW60563   2.177  10.394   3.604 -0.3478 -0.3751  0.1008
19519SOL    HW160564   2.111  10.454   3.638  1.1060 -0.2609  3.0878
19519SOL    HW260565   2.145  10.307   3.628  0.1601 -0.3701  0.8389
19520SOL     OW60566   2.065   5.669   8.419 -0.1158  0.6728 -0.8426
19520SOL    HW160567   1.989   5.689   8.472  0.1312 -2.0023  0.7059
19520SOL    HW260568   2.070   5.573   8.419  2.3738  0.7131 -2.1419
19521SOL     OW60569   2.967   8.388   1.412 -0.1638  0.1974  0.2818
19521SOL    HW160570   3.035   8.381   1.478 -0.2485 -0.9687  0.2747
19521SOL    HW260571   2.899   8.441   1.452  0.5123  0.9242  0.4834
19522SOL     OW60572   5.776   5.829   9.407 -0.5485 -0.2244  0.2997
19522SOL    HW160573   5.690   5.862   9.434 -0.5536 -0.4997  0.6327
19522SOL    HW260574   5.833   5.906   9.407 -0.5946 -0.1890  0.9157
19523SOL     OW60575   0.456   9.449   8.147 -0.6375  0.2347  0.0867
19523SOL    HW160576   0.517   9.438   8.220 -0.2120 -1.6600 -0.4761
19523SOL    HW260577   0.504   9.415   8.071 -1.2630  1.6410 -0.9886
19524SOL     OW60578   1.071   2.624   4.092 -0.1985  0.3211 -0.1860
19524SOL    HW160579   1.070   2.578   4.009  0.2503 -1.5173  0.7761
19524SOL    HW260580   0.989   2.674   4.093 -1.3395 -1.4573 -0.7568
19525SOL     OW60581   4.550   9.104   1.676 -0.1999 -0.6461  0.4101
19525SOL    HW160582   4.517   9.083   1.763 -0.7842  0.5795  0.5015
19525SOL    HW260583   4.567   9.019   1.636 -0.3434 -1.2352  1.5554
19526SOL     OW60584   0.037   5.355   4.247 -0.0046  0.1639  0.0426
19526SOL    HW160585   0.074   5.411   4.179  0.7479 -0.3959 -0.0209
19526SOL    HW260586  -0.041   5.402   4.277 -1.0139 -0.1090 -1.9898
19527SOL     OW60587   6.994   2.695  10.252 -0.0978  0.2152 -0.5217
19527SOL    HW160588   6.934   2.740  10.193 -0.9211 -2.1605 -1.6389
19527SOL    HW260589   7.079   2.701  10.209 -0.4520 -0.3790 -1.3292
19528SOL     OW60590   4.772   2.272   7.627  0.2767 -0.2632 -0.5346
19528SOL    HW160591   4.788   2.295   7.535  0.3836 -3.2632 -1.3924
19528SOL    HW260592   4.818   2.188   7.638 -2.8556 -1.9291  1.0959
19529SOL     OW60593  10.949  10.490   6.422  0.3834  0.2414 -0.4373
19529SOL    HW160594  10.953  10.540   6.504 -0.1539  1.7205 -1.2764
19529SOL    HW260595  10.935  10.556   6.354  2.1968 -0.8017 -1.9050
19530SOL     OW60596   1.291   7.776   0.098 -0.2636 -0.3755 -0.2053
19530SOL    HW160597   1.385   7.778   0.080 -0.2454  1.4412 -0.1800
19530SOL    HW260598   1.261   7.692   0.063  1.0881 -0.2668 -1.7492
19531SOL     OW60599   5.530   1.697   1.872  0.0382 -0.3587 -0.2606
19531SOL    HW160600   5.459   1.727   1.816  0.3085 -0.6278 -0.7563
19531SOL    HW260601   5.583   1.775   1.889 -2.5525  0.8485  3.5089
19532SOL     OW60602   2.707   1.976   7.875  0.1680  0.1484  0.0905
19532SOL    HW160603   2.658   1.953   7.796  0.1141  1.9500 -0.4442
19532SOL    HW260604   2.725   2.070   7.866  2.4463 -0.1364  0.9800
19533SOL     OW60605   4.962   9.476   5.360 -0.1478  0.2069  0.2597
19533SOL    HW160606   4.876   9.483   5.402  0.1142 -0.8295  1.0251
19533SOL    HW260607   4.980   9.564   5.328 -1.3132  0.5388  0.4382
19534SOL     OW60608   5.690   1.093   8.475 -0.6709 -0.3123 -0.7257
19534SOL    HW160609   5.688   1.029   8.546 -0.1064 -1.3544 -1.6216
19534SOL    HW260610   5.633   1.164   8.506 -0.6351 -0.8443  0.6506
19535SOL     OW60611  10.549   3.557   4.673 -0.1946  0.5014 -0.1474
19535SOL    HW160612  10.582   3.595   4.754 -2.4233  2.8955 -0.2438
19535SOL    HW260613  10.622   3.563   4.611  0.4343  1.9576  0.7009
19536SOL     OW60614  10.459   1.551   4.466  0.5264 -0.4780  0.4605
19536SOL    HW160615  10.541   1.556   4.516  1.6941  1.4284 -1.4693
19536SOL    HW260616  10.464   1.468   4.419  0.7308 -0.9602  1.3099
19537SOL     OW60617   4.612   5.672   0.637 -0.8467  0.5577  0.5503
19537SOL    HW160618   4.610   5.579   0.614 -0.3664  0.2677  1.6232
19537SOL    HW260619   4.536   5.709   0.592 -0.5778 -0.1862 -0.5601
19538SOL     OW60620   4.137   9.246   6.029 -0.0484  0.6600  0.9692
19538SOL    HW160621   4.169   9.328   5.993 -2.4463  1.3929  0.3352
19538SOL    HW260622   4.054   9.269   6.071 -2.7515 -1.8960 -2.3540
19539SOL     OW60623   6.195   3.370   3.237  0.3923 -0.1428  0.2629
19539SOL    HW160624   6.248   3.308   3.288  1.2412  0.7427  0.4914
19539SOL    HW260625   6.134   3.315   3.189  1.5111 -1.2087 -0.0038
19540SOL     OW60626   5.242  10.771   5.292  0.3942  0.2208 -0.0257
19540SOL    HW160627   5.328  10.775   5.333  0.5027  1.7759 -0.3577
19540SOL    HW260628   5.202  10.691   5.328  0.8608  0.9730  2.3659
19541SOL     OW60629   8.459  10.887   3.478  0.0528 -0.6298  0.0601
19541SOL    HW160630   8.390  10.852   3.534  0.7032 -2.1384 -0.0359
19541SOL    HW260631   8.425  10.876   3.389 -0.4460  0.5969  0.0756
19542SOL     OW60632   7.806   9.242   2.646  0.0588 -0.1755 -0.3412
19542SOL    HW160633   7.823   9.173   2.710 -0.0686 -0.0424 -0.1629
19542SOL    HW260634   7.893   9.274   2.623  0.0586  1.6817  1.8690
19543SOL     OW60635   3.691   0.965   7.186 -0.1097 -0.0231 -0.0474
19543SOL    HW160636   3.720   0.875   7.202 -3.2455 -1.0838  0.4086
19543SOL    HW260637   3.720   1.014   7.263 -0.5978 -1.2657  0.9655
19544SOL     OW60638   4.047   2.542   2.523 -0.2902 -0.4955  0.2006
19544SOL    HW160639   4.076   2.451   2.517  0.7927 -0.2223  0.9305
19544SOL    HW260640   3.954   2.537   2.541 -0.2318 -1.4595  0.2828
19545SOL     OW60641   9.106   5.728   2.793 -0.5364 -0.7920  0.2329
19545SOL    HW160642   9.069   5.750   2.707  1.7335 -1.0187 -0.8769
19545SOL    HW260643   9.151   5.808   2.820 -0.3691 -1.0476  0.7144
19546SOL     OW60644   9.051   7.363   0.408 -0.8011  0.1863 -0.5468
19546SOL    HW160645   8.996   7.303   0.457  0.1393 -0.0138  0.2986
19546SOL    HW260646   9.097   7.414   0.475  0.7318 -0.2946 -1.1759
19547SOL     OW60647   1.956   7.837   4.233  0.6129 -0.2211 -1.1045
19547SOL    HW160648   1.975   7.830   4.139  1.3922 -2.0898 -0.8596
19547SOL    HW260649   2.027   7.788   4.275  0.0570  0.2501  0.4410
19548SOL     OW60650   2.424   0.370   2.942 -0.5065  0.3677 -0.3473
19548SOL    HW160651   2.400   0.461   2.959  0.6253  0.9107 -1.4926
19548SOL    HW260652   2.341   0.326   2.924 -0.9273  1.5928 -1.5793
19549SOL     OW60653   5.953   2.029   3.883 -0.3308 -0.3390 -0.6390
19549SOL    HW160654   5.947   2.005   3.790 -0.3384 -2.4398 -0.1622
19549SOL    HW260655   5.862   2.041   3.910 -0.2912  0.9855 -1.0450
19550SOL     OW60656  10.410  10.035   2.641 -1.0321  0.4588  0.4843
19550SOL    HW160657  10.326  10.001   2.611 -2.3020  0.1844  3.9490
19550SOL    HW260658  10.410  10.127   2.614 -1.9394  0.2096 -0.4400
19551SOL     OW60659   7.632   4.408   0.730  0.6080  0.8512  0.3050
19551SOL    HW160660   7.626   4.315   0.754  0.1744  0.4394 -1.2797
19551SOL    HW260661   7.544   4.442   0.745  0.6863  0.9281  0.5896
19552SOL     OW60662   2.438  10.570   0.431 -0.0993 -0.5413  0.5196
19552SOL    HW160663   2.392  10.652   0.409  1.8259 -0.0539 -2.1922
19552SOL    HW260664   2.516  10.599   0.477  0.3998 -0.8634 -0.1129
19553SOL     OW60665   8.377   7.666   1.445  0.6321  0.2802  0.4295
19553SOL    HW160666   8.404   7.723   1.517  0.8627  1.6877 -0.7353
19553SOL    HW260667   8.282   7.674   1.443  0.4522 -1.1151  1.6321
19554SOL     OW60668   3.409   4.751   2.005  0.0292 -0.7244  0.2197
19554SOL    HW160669   3.352   4.827   1.990  0.0014 -1.1433 -2.3164
19554SOL    HW260670   3.365   4.700   2.072  0.2472  1.6482  2.3139
19555SOL     OW60671   1.665  10.166   2.707  0.1242  0.3510  0.0415
19555SOL    HW160672   1.616  10.105   2.761  0.6444 -0.3648 -0.2792
19555SOL    HW260673   1.601  10.232   2.680 -0.9235 -1.1123 -1.2080
19556SOL     OW60674   2.442   1.346   1.153 -0.0383 -0.7470 -0.1157
19556SOL    HW160675   2.386   1.380   1.082 -0.2106 -1.1065 -0.1526
19556SOL    HW260676   2.516   1.407   1.155 -0.8567  0.2704  0.5378
19557SOL     OW60677   3.455   6.600   2.560 -0.3596 -0.6632  0.0724
19557SOL    HW160678   3.545   6.593   2.529 -0.9877 -0.3661 -1.9945
19557SOL    HW260679   3.416   6.515   2.540 -0.5963 -0.7260  0.7754
19558SOL     OW60680   2.811   1.508   2.213  0.1901  0.6836  0.0138
19558SOL    HW160681   2.766   1.423   2.217 -1.6046  1.6413  1.9924
19558SOL    HW260682   2.759   1.560   2.151  0.4286  0.8207 -0.0747
19559SOL     OW60683   4.324   5.695   6.389 -0.4626 -0.9846  0.0254
19559SOL    HW160684   4.237   5.655   6.386 -1.0547  0.2929 -1.2181
19559SOL    HW260685   4.384   5.621   6.396 -1.5564 -2.0268 -1.0119
19560SOL     OW60686  10.186   9.741  10.308 -0.0691  0.3199  0.6481
19560SOL    HW160687  10.117   9.758  10.244  1.4860  2.2258 -0.6489
19560SOL    HW260688  10.263   9.719  10.256  0.7204 -0.1562  1.9722
19561SOL     OW60689   6.434   6.526   0.436 -0.4225 -0.2488  0.1716
19561SOL    HW160690   6.386   6.563   0.361  1.3814  0.5431 -0.6388
19561SOL    HW260691   6.434   6.596   0.501 -0.9985 -0.5269  0.4800
19562SOL     OW60692   7.929   5.316   0.192 -0.2335 -0.3970  0.1283
19562SOL    HW160693   7.857   5.379   0.194  0.0313  0.0780 -2.1697
19562SOL    HW260694   7.921   5.272   0.107  1.1516 -1.5796  0.5630
19563SOL     OW60695   3.634   5.098   8.044 -0.2578  0.2832  0.5037
19563SOL    HW160696   3.588   5.127   8.122  0.7246  2.0525  0.4642
19563SOL    HW260697   3.589   5.017   8.019 -2.4496  1.1972  1.2275
19564SOL     OW60698   4.784   7.778   7.415  0.6261  0.2875 -0.4483
19564SOL    HW160699   4.737   7.862   7.412 -0.2797 -0.1607  0.5892
19564SOL    HW260700   4.714   7.712   7.419  1.3151 -0.5729 -1.9821
19565SOL     OW60701   3.791   2.941   7.254  0.7345  0.3169 -0.4943
19565SOL    HW160702   3.863   2.943   7.317  0.1040  1.9095  0.2201
19565SOL    HW260703   3.810   2.865   7.198  0.9721 -1.5657  1.9941
19566SOL     OW60704   3.715  10.176   7.094 -0.0578  0.2208  0.3734
19566SOL    HW160705   3.761  10.202   7.014 -0.0530  0.1013  0.3385
19566SOL    HW260706   3.726  10.081   7.100  0.0352  0.2425  0.5730
19567SOL     OW60707   2.392   4.253   3.483 -0.6601 -0.0372  0.9000
19567SOL    HW160708   2.440   4.319   3.434  0.5492 -0.8656  0.9423
19567SOL    HW260709   2.317   4.231   3.427  0.6406 -0.9066 -0.5691
19568SOL     OW60710   5.501   8.190   2.964  0.1279 -0.7760  0.2224
19568SOL    HW160711   5.458   8.275   2.963 -0.5155 -1.0985 -0.5798
19568SOL    HW260712   5.578   8.200   2.908  0.1549 -0.6799  0.2767
19569SOL     OW60713   6.572   3.099   1.457  0.5839  0.4398 -0.3257
19569SOL    HW160714   6.589   3.189   1.486  0.1830 -0.2163  2.2387
19569SOL    HW260715   6.585   3.046   1.536 -1.0885 -1.5344 -1.2844
19570SOL     OW60716   5.275   0.336   3.937  0.8239  0.0990 -0.5401
19570SOL    HW160717   5.337   0.298   3.874  2.1926 -0.0022  0.7961
19570SOL    HW260718   5.193   0.289   3.921  1.6322 -1.2241 -1.0192
19571SOL     OW60719   6.735   0.775   2.592 -0.1039 -0.2494 -0.0712
19571SOL    HW160720   6.727   0.727   2.674  0.7631 -1.1890 -0.5127
19571SOL    HW260721   6.802   0.728   2.543 -1.5749 -0.5187 -1.9169
19572SOL     OW60722   2.222   8.370   2.312  0.0568 -0.5282  0.3807
19572SOL    HW160723   2.132   8.397   2.296 -0.8563 -0.7605  4.1044
19572SOL    HW260724   2.244   8.312   2.239 -2.1568  0.8156 -1.4849
19573SOL     OW60725   4.139   8.406   8.782  0.0850 -0.4677  0.6638
19573SOL    HW160726   4.114   8.496   8.805 -0.1206 -0.0137 -1.2264
19573SOL    HW260727   4.190   8.414   8.702 -0.4249 -2.0918  0.1351
19574SOL     OW60728   8.985   5.512   4.894  0.5876  0.6140  0.1563
19574SOL    HW160729   9.063   5.552   4.932  0.4821  2.9527 -1.7869
19574SOL    HW260730   8.973   5.558   4.811 -0.4626 -2.5773 -1.6526
19575SOL     OW60731   1.415   9.673   7.713  0.3597 -0.1630 -0.7930
19575SOL    HW160732   1.327   9.671   7.751  1.2843 -1.0440  1.5112
19575SOL    HW260733   1.436   9.765   7.703  0.0087  0.1372  0.8846
19576SOL     OW60734  10.203   7.908   2.884 -0.4467  0.1266 -0.5428
19576SOL    HW160735  10.110   7.898   2.907 -0.8116  2.2460 -0.9138
19576SOL    HW260736  10.204   7.912   2.788 -0.0776  0.9068 -0.5134
19577SOL     OW60737   7.501   7.733   6.389 -0.0752 -0.6745  0.1409
19577SOL    HW160738   7.525   7.818   6.426  2.5206 -1.5951  0.8340
19577SOL    HW260739   7.466   7.683   6.463 -1.2081 -0.3680 -0.1753
19578SOL     OW60740   0.098  10.546   8.872 -0.0763 -0.0319  0.5704
19578SOL    HW160741   0.116  10.467   8.821  2.6322 -0.0136  1.3268
19578SOL    HW260742   0.089  10.515   8.962 -2.1519  0.2454  0.5160
19579SOL     OW60743   2.021   7.427   1.065 -0.1275 -0.4430  0.4190
19579SOL    HW160744   2.074   7.503   1.091 -1.4586  1.2430 -1.5224
19579SOL    HW260745   2.037   7.363   1.134  1.9082  1.1680  1.5827
19580SOL     OW60746   7.197   2.538   3.226  0.7802 -0.3503 -0.1887
19580SOL    HW160747   7.125   2.489   3.186  0.5513 -0.2567  0.1084
19580SOL    HW260748   7.162   2.626   3.240  1.1111 -0.1650 -0.4942
19581SOL     OW60749   2.121  10.094   1.958  0.4948  0.0561 -0.3843
19581SOL    HW160750   2.027  10.092   1.940  0.5633  0.2222 -0.7728
19581SOL    HW260751   2.152  10.007   1.934  0.5383  0.1885 -0.8152
19582SOL     OW60752   4.102   6.926   1.466  0.3331 -0.2918 -0.0064
19582SOL    HW160753   4.141   6.953   1.383 -0.9256  1.6426 -0.0311
19582SOL    HW260754   4.074   6.835   1.450  0.1403  0.0302 -1.6988
19583SOL     OW60755   7.434   0.635   1.588  0.4450  0.7805  0.4661
19583SOL    HW160756   7.454   0.719   1.546 -0.2636  1.4381  1.3979
19583SOL    HW260757   7.439   0.654   1.681 -2.4520  0.5235  0.7444
19584SOL     OW60758   9.499   9.540   9.893 -0.0744 -0.1240  0.2670
19584SOL    HW160759   9.407   9.543   9.919 -0.3225 -1.5050 -0.4058
19584SOL    HW260760   9.513   9.624   9.848 -1.0803 -0.0215  0.1124
19585SOL     OW60761   8.944   1.597   0.292  0.0826  0.8387  0.3782
19585SOL    HW160762   8.900   1.623   0.211 -1.8694 -1.0508  0.7535
19585SOL    HW260763   8.882   1.538   0.336  2.2946 -0.5870  1.8040
19586SOL     OW60764   3.737   0.587   2.251 -0.1212  0.3843 -0.2519
19586SOL    HW160765   3.677   0.643   2.300 -1.6032  0.2673 -1.8238
19586SOL    HW260766   3.682   0.517   2.216  1.4168 -1.1716  0.3324
19587SOL     OW60767   9.494   3.013   0.144  0.5019 -0.4620  0.6157
19587SOL    HW160768   9.578   2.968   0.144  0.4198 -0.7557  2.8486
19587SOL    HW260769   9.430   2.946   0.168 -0.0727  0.1613  0.8817
19588SOL     OW60770   4.204   7.715   6.011 -0.3532 -0.0621  0.0467
19588SOL    HW160771   4.285   7.750   5.972 -0.6604 -0.0052 -0.5518
19588SOL    HW260772   4.137   7.779   5.989 -0.5031  0.0664  0.8517
19589SOL     OW60773   9.926   9.322   9.981 -0.5707  0.4110  0.1547
19589SOL    HW160774   9.923   9.227   9.965 -1.3953  0.3735  0.5238
19589SOL    HW260775   9.854   9.357   9.929  0.6202  1.0219 -1.1540
19590SOL     OW60776   5.057   6.417   3.797  0.0631  0.4986 -0.0035
19590SOL    HW160777   5.033   6.355   3.865 -0.6441  0.5822 -0.1656
19590SOL    HW260778   5.149   6.436   3.813  0.2650 -0.5174  0.1031
19591SOL     OW60779   2.785   7.190   6.247 -0.2119 -0.2271  0.3029
19591SOL    HW160780   2.748   7.117   6.297  0.2017 -0.6125  0.0592
19591SOL    HW260781   2.844   7.234   6.308  1.4079 -1.5591 -0.2208
19592SOL     OW60782   2.524   7.974   9.801  0.4726 -0.3227  0.1111
19592SOL    HW160783   2.591   7.971   9.734  1.4551  1.1593  0.9806
19592SOL    HW260784   2.570   8.002   9.880 -1.2581  1.3835  0.5853
19593SOL     OW60785   4.248   2.798   7.618 -0.0357  0.0706  0.0545
19593SOL    HW160786   4.219   2.842   7.698 -1.2783 -1.2738  0.3846
19593SOL    HW260787   4.286   2.715   7.648  0.1992 -0.1040 -0.6943
19594SOL     OW60788   1.620   2.375  10.481  0.0896  0.2238  0.2334
19594SOL    HW160789   1.642   2.468  10.470 -0.1232  0.1044 -1.6112
19594SOL    HW260790   1.676   2.330  10.419 -1.6031 -0.6049 -0.7801
19595SOL     OW60791   2.303   7.682   8.376  0.6351 -0.1387  0.5878
19595SOL    HW160792   2.370   7.614   8.371  0.4992 -0.5741  3.4151
19595SOL    HW260793   2.271   7.690   8.286  2.7726 -1.6204 -0.3831
19596SOL     OW60794   3.640   8.702   3.407  0.1543 -0.5581  0.2510
19596SOL    HW160795   3.677   8.702   3.496  2.3206  1.2667 -0.5558
19596SOL    HW260796   3.704   8.654   3.355  1.1825  2.0482 -1.0533
19597SOL     OW60797   7.781   7.445   1.752 -0.9602  0.1614  0.2583
19597SOL    HW160798   7.740   7.526   1.721 -2.0538  0.2704  1.8858
19597SOL    HW260799   7.873   7.467   1.764 -0.0947 -0.2635 -4.1040
19598SOL     OW60800   7.945   9.613   3.694  0.5164  0.1862 -0.0519
19598SOL    HW160801   7.943   9.529   3.649 -1.3338  0.7423 -1.1074
19598SOL    HW260802   7.888   9.670   3.642  0.0706  1.5108  1.7762
19599SOL     OW60803   7.885   2.426   0.822 -0.0450 -0.1306 -0.1668
19599SOL    HW160804   7.802   2.472   0.839  0.6866  0.9835  0.5249
19599SOL    HW260805   7.952   2.494   0.833  1.1875 -1.6157  1.9889
19600SOL     OW60806   1.540   8.234   3.829  0.0727  0.0330 -0.3995
19600SOL    HW160807   1.576   8.225   3.741  2.2298 -0.8575  0.5118
19600SOL    HW260808   1.533   8.144   3.862 -1.3090  0.3053  0.1397
19601SOL     OW60809   7.002   0.187  11.101  0.4506 -0.0980  0.6734
19601SOL    HW160810   6.941   0.156  11.034 -2.0396  5.4474 -0.1623
19601SOL    HW260811   6.947   0.201  11.178  1.5399  1.0269  1.2781
19602SOL     OW60812   4.950   3.261   4.597  0.2245 -0.2801 -0.3640
19602SOL    HW160813   4.860   3.276   4.625 -0.1412 -2.6377 -0.0736
19602SOL    HW260814   4.981   3.189   4.652  2.6302  1.0493  0.1643
19603SOL     OW60815   5.570   9.669   1.210 -0.5275 -0.0906  0.2203
19603SOL    HW160816   5.639   9.610   1.182 -0.2908  0.9927 -1.6395
19603SOL    HW260817   5.574   9.666   1.306  0.9040 -1.3978  0.1640
19604SOL     OW60818   8.843   0.108   1.221  0.3975 -0.4725 -0.0242
19604SOL    HW160819   8.885   0.120   1.136 -1.6824  1.3134 -0.9014
19604SOL    HW260820   8.749   0.110   1.203 -0.1177 -1.2895  2.1789
19605SOL     OW60821   2.785   3.374   9.896  0.0014 -0.2103 -0.6297
19605SOL    HW160822   2.719   3.432   9.933  2.2839  2.3530 -0.2757
19605SOL    HW260823   2.780   3.389   9.802 -2.5143 -3.0856 -1.0950
19606SOL     OW60824   3.768   6.625   6.309 -0.1353  0.9229  0.1911
19606SOL    HW160825   3.858   6.629   6.276  0.3721  2.0932  1.6292
19606SOL    HW260826   3.735   6.541   6.276  2.0665 -0.3864  1.0404
19607SOL     OW60827   1.089   4.538   5.886 -0.5253  0.1686 -0.2282
19607SOL    HW160828   1.097   4.546   5.791 -0.1254 -0.5968 -0.2721
19607SOL    HW260829   1.016   4.476   5.899  0.7404 -1.3577 -0.1096
19608SOL     OW60830   0.477   6.543   7.830 -0.2563 -0.1418 -0.0565
19608SOL    HW160831   0.500   6.632   7.802  0.0522 -0.6145 -1.3514
19608SOL    HW260832   0.496   6.542   7.924  1.1742  0.7208 -0.3072
19609SOL     OW60833   8.937   9.261   6.514 -0.1158  0.7549 -0.5911
19609SOL    HW160834   8.962   9.336   6.460  0.6186 -0.4406 -1.9917
19609SOL    HW260835   9.018   9.233   6.556 -0.2213  0.2989 -0.6813
19610SOL     OW60836   0.815   9.712   2.754  0.2679  0.4483  0.3442
19610SOL    HW160837   0.859   9.635   2.718  1.7301  1.3772  0.0721
19610SOL    HW260838   0.853   9.722   2.842  0.2892  1.0096  0.2724
19611SOL     OW60839   2.010   7.907   7.080  0.5581 -0.5880  0.0799
19611SOL    HW160840   2.009   7.813   7.060 -0.1333 -0.7555  0.8712
19611SOL    HW260841   1.981   7.913   7.171 -2.9397  0.5998 -0.9260
19612SOL     OW60842  10.768   7.195   9.819 -0.1180  0.3032  0.2760
19612SOL    HW160843  10.759   7.245   9.900  0.6504  0.0022  0.5507
19612SOL    HW260844  10.849   7.146   9.829 -0.1014  0.1266 -0.6061
19613SOL     OW60845  10.392   2.446   1.160 -0.4000 -0.4911  0.1713
19613SOL    HW160846  10.452   2.411   1.095  0.3183  1.6613 -0.4304
19613SOL    HW260847  10.320   2.484   1.108  0.4279  1.6961  0.5253
19614SOL     OW60848   4.216   6.371  10.001 -0.1297  0.0178 -0.2308
19614SOL    HW160849   4.218   6.425  10.080  1.3836 -1.4609  0.7887
19614SOL    HW260850   4.123   6.352   9.988 -0.3152 -0.9561  2.1005
19615SOL     OW60851   1.912   0.231   3.654  0.1680 -0.1100  0.5941
19615SOL    HW160852   1.862   0.298   3.702  0.0735 -0.9534  1.7135
19615SOL    HW260853   2.000   0.236   3.691  0.7722  0.9112 -0.9069
19616SOL     OW60854   1.111   0.298   2.405 -0.0692 -0.0074 -0.4339
19616SOL    HW160855   1.170   0.358   2.449  0.2159  0.0746 -0.9236
19616SOL    HW260856   1.024   0.319   2.440 -0.0587  1.1028 -1.0297
19617SOL     OW60857   2.962  10.378   3.827  0.1012 -0.0490  0.1386
19617SOL    HW160858   2.936  10.469   3.843  1.3485  0.0341  1.9799
19617SOL    HW260859   3.018  10.383   3.749  0.1790  0.7729  0.2303
19618SOL     OW60860   7.806   7.823   5.664 -0.2025 -0.0198 -0.2643
19618SOL    HW160861   7.821   7.844   5.571 -0.7142  1.4134 -0.0481
19618SOL    HW260862   7.751   7.745   5.662 -1.2122  0.6794 -1.2137
19619SOL     OW60863   8.580   1.812   3.511  0.5438 -0.9417  0.8025
19619SOL    HW160864   8.650   1.875   3.495 -0.0159 -0.0061  1.9156
19619SOL    HW260865   8.602   1.737   3.455 -0.5633  1.4649 -3.2575
19620SOL     OW60866   4.642   1.331   7.258  0.2579 -0.0592  0.0276
19620SOL    HW160867   4.695   1.411   7.267 -0.7469  0.7290 -0.9411
19620SOL    HW260868   4.680   1.286   7.183  0.8354 -0.5167  0.5844
19621SOL     OW60869   7.201   7.422   8.147  0.3337  0.3977  0.1471
19621SOL    HW160870   7.208   7.424   8.052 -2.3225 -0.6004 -0.1642
19621SOL    HW260871   7.250   7.344   8.173 -1.2315 -0.9683 -0.7679
19622SOL     OW60872   9.494   9.175   5.351  0.3239 -0.5753  0.6621
19622SOL    HW160873   9.539   9.251   5.314  0.1862 -0.9973 -0.4041
19622SOL    HW260874   9.555   9.140   5.416 -0.4960  1.7139  2.8359
19623SOL     OW60875   1.834   5.954   7.011  0.4287  0.8063 -0.0732
19623SOL    HW160876   1.930   5.947   7.008  0.6386  1.6418  2.2434
19623SOL    HW260877   1.804   5.863   7.004  1.5447  0.2746  1.3584
19624SOL     OW60878   1.887   6.459   9.369  0.0063  0.0705 -0.2016
19624SOL    HW160879   1.954   6.524   9.348  0.0986 -0.2498 -0.9241
19624SOL    HW260880   1.934   6.376   9.370 -0.1809 -0.0335  0.3574
19625SOL     OW60881   0.486   6.929   0.097 -0.2569  0.0558  0.1462
19625SOL    HW160882   0.393   6.916   0.076  0.0410 -1.3515 -0.4624
19625SOL    HW260883   0.495   7.023   0.108 -1.9075  0.1622  0.9259
19626SOL     OW60884   7.562   3.905   1.483 -0.6378  0.4799  0.0168
19626SOL    HW160885   7.544   3.947   1.399 -1.1764  0.3933  0.0854
19626SOL    HW260886   7.552   3.812   1.466 -0.1263  0.4170  0.0316
19627SOL     OW60887   0.267   8.257   3.999 -0.2839 -0.0243 -0.6006
19627SOL    HW160888   0.358   8.268   3.971  0.2695 -0.6082  0.8761
19627SOL    HW260889   0.247   8.165   3.980  0.0367 -0.3761  0.6888
19628SOL     OW60890   1.149   6.106   1.033 -0.6947  0.5554 -0.5133
19628SOL    HW160891   1.115   6.017   1.026  0.7601  0.1124 -3.1101
19628SOL    HW260892   1.071   6.161   1.039 -1.6329 -0.8093  0.3243
19629SOL     OW60893   9.665   5.769  10.878 -0.4066 -0.2315  0.0338
19629SOL    HW160894   9.704   5.774  10.965 -4.0634  0.8137  1.8100
19629SOL    HW260895   9.627   5.681  10.874 -0.0854 -0.3511 -0.6371
19630SOL     OW60896   2.997   8.313   8.857 -0.3191 -0.2216  0.2119
19630SOL    HW160897   3.061   8.298   8.926  1.0655 -0.6901 -1.1191
19630SOL    HW260898   2.915   8.277   8.892  0.5255 -1.1747  1.2807
19631SOL     OW60899  10.349   3.294   7.671 -0.1839 -0.3919 -0.6514
19631SOL    HW160900  10.420   3.234   7.692 -0.8371 -1.4266 -1.3050
19631SOL    HW260901  10.287   3.286   7.744  0.3629  0.5321 -0.0670
19632SOL     OW60902   6.641   8.541  10.371 -0.1709 -0.0125  0.5571
19632SOL    HW160903   6.705   8.540  10.442 -0.0412 -0.5827  0.4339
19632SOL    HW260904   6.640   8.451  10.338  0.8188  0.5408 -1.0960
19633SOL     OW60905   5.581   5.699  10.264 -0.3928  0.1297  0.2545
19633SOL    HW160906   5.613   5.672  10.178 -0.3158  1.0911 -0.0285
19633SOL    HW260907   5.649   5.756  10.298 -0.2276 -0.5817  1.1446
19634SOL     OW60908   3.402  10.129   7.309 -0.1690 -0.2944 -0.1240
19634SOL    HW160909   3.397  10.043   7.350 -2.7396  1.0793  2.8366
19634SOL    HW260910   3.484  10.167   7.343  0.3047 -1.0478 -0.3996
19635SOL     OW60911   7.426   0.974   6.674  0.0732  0.1207  0.0237
19635SOL    HW160912   7.517   0.952   6.654  0.3344  2.4170 -1.8572
19635SOL    HW260913   7.431   1.042   6.741 -0.1957  0.6102 -0.4391
19636SOL     OW60914   7.143   0.431   6.721  0.0768 -0.1987 -0.2026
19636SOL    HW160915   7.197   0.357   6.694  0.0516 -0.7928  1.2680
19636SOL    HW260916   7.062   0.421   6.671 -0.5422 -2.0823  1.0332
19637SOL     OW60917   4.536   6.225   0.329  0.1498  0.2213  0.4851
19637SOL    HW160918   4.594   6.297   0.304  1.6255  0.4031  3.8571
19637SOL    HW260919   4.484   6.261   0.401 -0.6370 -1.4514  0.7853
19638SOL     OW60920   2.276   0.918   0.842 -0.3996 -0.6466 -0.3031
19638SOL    HW160921   2.251   0.842   0.790 -0.3624 -1.0318  0.2340
19638SOL    HW260922   2.363   0.942   0.809 -0.6513 -0.4766 -0.8638
19639SOL     OW60923   0.142   4.614   3.692 -0.3175  0.7222  0.1206
19639SOL    HW160924   0.190   4.611   3.775 -1.9262 -1.4703  1.0972
19639SOL    HW260925   0.177   4.541   3.641  0.5407  1.9514 -1.1218
19640SOL     OW60926  10.438   5.202   6.929 -0.0367 -0.0454  0.1879
19640SOL    HW160927  10.408   5.266   6.994 -0.4234  0.0735 -0.1069
19640SOL    HW260928  10.358   5.174   6.884 -0.0044 -1.4552  0.9631
19641SOL     OW60929   9.862   8.043   4.316 -0.0939  0.1251 -0.1408
19641SOL    HW160930   9.949   8.047   4.276  0.3606  2.3570  0.9129
19641SOL    HW260931   9.837   7.951   4.308  1.1343 -0.0844 -2.9536
19642SOL     OW60932   6.824   4.437   0.788 -0.2107  0.1560 -0.3693
19642SOL    HW160933   6.893   4.456   0.851 -2.2990  1.5607  1.6575
19642SOL    HW260934   6.761   4.383   0.837 -1.3513  0.3104 -1.6107
19643SOL     OW60935   9.760   1.421   7.633  0.0678 -1.1310  0.1803
19643SOL    HW160936   9.757   1.514   7.608  0.8730 -1.4195 -1.0481
19643SOL    HW260937   9.701   1.415   7.708  0.1564  0.4134  0.4050
19644SOL     OW60938   5.900   0.344   5.792 -0.0521 -0.1259  0.1976
19644SOL    HW160939   5.896   0.257   5.834 -2.8462  0.3000  1.0016
19644SOL    HW260940   5.935   0.326   5.705 -1.0622 -2.1850  0.1391
19645SOL     OW60941   4.192   4.816   8.640 -0.5916 -0.3022  0.5145
19645SOL    HW160942   4.145   4.864   8.571  1.7607 -0.6013 -1.4136
19645SOL    HW260943   4.280   4.854   8.640  0.0567 -1.6907  1.9858
19646SOL     OW60944   5.732   3.251   7.354 -0.5355  0.3696 -0.2217
19646SOL    HW160945   5.684   3.181   7.310  2.2307 -0.7159 -1.7134
19646SOL    HW260946   5.772   3.209   7.430  0.4091  0.5393 -0.6196
19647SOL     OW60947   4.371   2.443   0.841  0.3479 -0.1570 -0.3725
19647SOL    HW160948   4.276   2.439   0.853  0.2059  2.5940 -0.0405
19647SOL    HW260949   4.405   2.369   0.893 -1.4722  0.3508  1.6985
19648SOL     OW60950   4.025   5.125   5.500 -0.4104  0.0975 -0.0692
19648SOL    HW160951   4.025   5.098   5.408  1.9042  0.6159 -0.2943
19648SOL    HW260952   3.950   5.183   5.508 -0.7785 -0.1175 -1.5705
19649SOL     OW60953   3.507   6.597   5.617 -0.7534 -0.8450  0.2896
19649SOL    HW160954   3.572   6.661   5.645 -0.3073 -1.0703 -0.1907
19649SOL    HW260955   3.425   6.646   5.610 -0.3603 -0.2624 -0.3447
19650SOL     OW60956   4.673   1.629   2.116 -0.5300 -0.4058 -0.3845
19650SOL    HW160957   4.731   1.653   2.044  2.5296 -1.9789  1.3386
19650SOL    HW260958   4.700   1.687   2.188 -0.4439 -1.7546  0.7061
19651SOL     OW60959   9.424   9.026   6.736  0.7331  1.0152  0.0341
19651SOL    HW160960   9.516   9.025   6.762  1.2136  1.3615 -1.5501
19651SOL    HW260961   9.419   9.089   6.665  0.1351 -1.9153 -2.7600
19652SOL     OW60962   0.802  10.419   1.176 -0.1501 -1.0088  0.3857
19652SOL    HW160963   0.804  10.324   1.180 -1.4138 -1.0069  2.6611
19652SOL    HW260964   0.792  10.447   1.266 -0.1246  1.2909 -0.2574
19653SOL     OW60965   3.344   3.229   0.672 -0.6941 -0.6837 -0.3185
19653SOL    HW160966   3.358   3.313   0.715  2.7677 -0.9549 -0.6156
19653SOL    HW260967   3.302   3.174   0.738  0.1807  0.2724  1.0767
19654SOL     OW60968   2.561   9.351   8.575  0.0541  0.4206  0.2429
19654SOL    HW160969   2.556   9.257   8.588 -1.1344  0.4113 -0.2152
19654SOL    HW260970   2.654   9.372   8.587  0.5196 -0.9577 -0.7265
19655SOL     OW60971   2.009   3.022   0.570  0.2981 -0.4037  0.8056
19655SOL    HW160972   2.090   3.066   0.545 -0.7021 -0.7166 -3.8848
19655SOL    HW260973   2.038   2.939   0.606  2.2440 -1.3007 -2.3914
19656SOL     OW60974   0.306  10.873   9.263 -0.8960  0.2583 -0.3055
19656SOL    HW160975   0.253  10.942   9.224  0.2811  1.3560 -0.0336
19656SOL    HW260976   0.273  10.863   9.352 -0.4126  1.1954 -0.0169
19657SOL     OW60977   8.667   6.827   4.280 -0.1496 -0.3221 -0.5125
19657SOL    HW160978   8.650   6.744   4.325  1.2821  0.0016  0.7226
19657SOL    HW260979   8.716   6.802   4.202  0.7655 -0.6326  0.1387
19658SOL     OW60980   3.826   3.814   5.528 -0.5047 -0.5817 -0.1799
19658SOL    HW160981   3.915   3.790   5.504 -0.4647 -2.0698  1.2953
19658SOL    HW260982   3.806   3.760   5.604 -1.9255  1.2353  0.8193
19659SOL     OW60983   1.566   5.485   8.513 -0.7341 -0.1958  0.1641
19659SOL    HW160984   1.478   5.512   8.539 -0.7967  0.2400 -0.4857
19659SOL    HW260985   1.572   5.393   8.539 -0.7244  0.2505  1.8805
19660SOL     OW60986   8.337   9.547   1.997  0.2830 -0.5586 -0.4939
19660SOL    HW160987   8.348   9.625   1.942 -0.4474 -0.7242 -0.8969
19660SOL    HW260988   8.391   9.563   2.074  0.9487 -0.1081 -1.0514
19661SOL     OW60989   2.719   9.683   0.404  0.0079 -0.2446 -0.5462
19661SOL    HW160990   2.633   9.686   0.362 -0.0448  2.4303 -0.3789
19661SOL    HW260991   2.706   9.626   0.480 -1.6594  0.1738 -0.4636
19662SOL     OW60992   7.875   4.934   3.282  0.1874 -0.1676  0.6941
19662SOL    HW160993   7.797   4.918   3.229  0.3110  1.4039 -0.0369
19662SOL    HW260994   7.852   4.903   3.369 -1.5338  0.9051  0.6683
19663SOL     OW60995   4.323  10.832   1.602 -0.3917 -0.8772 -0.2792
19663SOL    HW160996   4.228  10.822   1.602 -0.3813 -2.8750  3.6779
19663SOL    HW260997   4.351  10.795   1.518 -2.9775 -2.0666 -0.7136
19664SOL     OW60998   9.644   2.553   7.656 -0.0085 -0.2079 -0.2531
19664SOL    HW160999   9.713   2.512   7.709  0.9447  1.6210  0.0071
19664SOL    HW261000   9.683   2.635   7.627 -1.7116  0.3457 -1.0579
19665SOL     OW61001  10.227   8.004   8.528 -0.2287 -0.3043  0.8961
19665SOL    HW161002  10.267   8.053   8.457  0.1704 -0.9698  0.6546
19665SOL    HW261003  10.186   8.071   8.584 -0.3319  0.2380  0.1820
19666SOL     OW61004   8.375   4.414   5.953 -0.1072  0.0417 -0.1278
19666SOL    HW161005   8.396   4.323   5.973 -1.5913 -0.2950 -0.0595
19666SOL    HW261006   8.448   4.464   5.992  2.8461 -1.2582 -3.4172
19667SOL     OW61007   5.035   6.859   1.186 -0.4338  0.7894  0.7447
19667SOL    HW161008   4.952   6.886   1.224 -0.4055 -1.4638  2.6565
19667SOL    HW261009   5.100   6.881   1.253 -0.1235 -1.4673  1.2619
19668SOL     OW61010   8.669   0.180   5.475  0.1645 -0.2001  0.9354
19668SOL    HW161011   8.600   0.232   5.514 -0.7101 -0.7035  0.0974
19668SOL    HW261012   8.743   0.241   5.466  0.4955 -0.1089  3.4837
19669SOL     OW61013   4.328   1.819   8.355  0.8190 -0.3335  0.4904
19669SOL    HW161014   4.270   1.783   8.422  0.3240 -0.8274 -0.1856
19669SOL    HW261015   4.287   1.794   8.272 -0.4163  3.1140 -0.0961
19670SOL     OW61016   6.878   6.720  10.822 -0.3974 -0.2426 -0.1313
19670SOL    HW161017   6.915   6.656  10.882  1.3231  1.1494  0.3809
19670SOL    HW261018   6.932   6.798  10.833 -1.1676  0.6677 -2.1726
19671SOL     OW61019   3.529   1.696   6.662  1.3336 -0.2785 -0.3240
19671SOL    HW161020   3.515   1.733   6.575  0.6344  0.5299  0.1197
19671SOL    HW261021   3.534   1.771   6.721 -0.2331 -0.8434  0.6114
19672SOL     OW61022   1.484   8.341   4.174 -0.3298 -0.0230  1.3530
19672SOL    HW161023   1.418   8.330   4.106  0.5422 -3.3986  0.8942
19672SOL    HW261024   1.532   8.258   4.175  1.7252  1.0518  3.9773
19673SOL     OW61025   9.984   0.262   5.169 -0.3099 -0.1814 -0.4956
19673SOL    HW161026   9.905   0.219   5.136  0.0129 -1.9202  0.8248
19673SOL    HW261027  10.052   0.196   5.160  1.2077  1.5167 -2.2548
19674SOL     OW61028   7.725   7.575   8.838 -0.0330 -0.5287 -0.0425
19674SOL    HW161029   7.660   7.555   8.770 -0.4610  3.3003 -0.9546
19674SOL    HW261030   7.678   7.626   8.903  1.0311 -1.8249  1.8330
19675SOL     OW61031   6.445   4.592   4.386 -0.0527 -0.2992  0.2986
19675SOL    HW161032   6.512   4.568   4.322  0.1253  0.5359  0.1597
19675SOL    HW261033   6.443   4.688   4.385 -0.3299 -0.2793  1.2534
19676SOL     OW61034   3.759   1.492  10.475 -0.6938  0.6088 -0.2230
19676SOL    HW161035   3.812   1.418  10.506 -0.2121  1.3148  0.7158
19676SOL    HW261036   3.766   1.556  10.546  2.5218  3.3920 -2.7320
19677SOL     OW61037   4.260   1.636   9.342 -0.5837 -0.1682 -0.3925
19677SOL    HW161038   4.230   1.562   9.394  0.0018 -0.4677 -0.4632
19677SOL    HW261039   4.224   1.622   9.255  1.8581 -1.9788 -1.2347
19678SOL     OW61040   6.449   9.005   4.463  0.5802  0.2596 -0.1840
19678SOL    HW161041   6.375   8.965   4.509  1.2455  0.3848  1.0540
19678SOL    HW261042   6.414   9.088   4.431 -0.2185 -0.3450 -0.9308
19679SOL     OW61043   1.187   2.013  10.530  0.2192 -0.1567  0.1130
19679SOL    HW161044   1.228   1.939  10.486 -0.3379  0.8478 -2.2507
19679SOL    HW261045   1.261   2.065  10.562  0.6903 -0.3905 -0.5724
19680SOL     OW61046   2.226   7.991   7.745  0.0113 -0.0643  0.0907
19680SOL    HW161047   2.230   8.085   7.730  2.1297 -0.0946  0.1617
19680SOL    HW261048   2.297   7.955   7.692  0.0283 -1.4832  1.0121
19681SOL     OW61049   9.938   0.417   5.810  0.0195 -0.4182  0.1510
19681SOL    HW161050   9.868   0.456   5.758 -0.6870 -0.8414  0.7652
19681SOL    HW261051  10.016   0.422   5.754 -0.3737  0.5650 -0.3248
19682SOL     OW61052   7.876   2.748   9.187  0.6818  0.2019 -0.0395
19682SOL    HW161053   7.783   2.727   9.176  0.2241  2.0784 -0.1538
19682SOL    HW261054   7.892   2.817   9.122  1.7642  0.9483  0.9930
19683SOL     OW61055  10.957   3.301   6.596 -0.2507 -0.2042  0.2257
19683SOL    HW161056  10.998   3.236   6.654  2.2552  1.9632  1.0936
19683SOL    HW261057  10.966   3.263   6.508 -0.3386 -1.7190  0.8343
19684SOL     OW61058   0.259   9.327   5.138  0.2026 -0.6606 -0.0674
19684SOL    HW161059   0.335   9.366   5.180  0.4161 -0.8164 -0.3005
19684SOL    HW261060   0.231   9.258   5.198 -1.3846  1.0795  1.3143
19685SOL     OW61061   2.876   1.120   4.273  0.1927  0.0151 -0.1673
19685SOL    HW161062   2.927   1.065   4.213 -0.1161  0.4787 -0.8679
19685SOL    HW261063   2.934   1.195   4.292  0.6997 -0.6252  0.9596
19686SOL     OW61064   9.654   5.768   4.797 -0.2318  0.2654  0.7622
19686SOL    HW161065   9.706   5.844   4.769 -0.2843 -0.2454 -0.8112
19686SOL    HW261066   9.593   5.753   4.725 -1.2603 -0.3489  1.7320
19687SOL     OW61067   2.111   6.019   6.765  0.2076 -0.2208 -0.6600
19687SOL    HW161068   2.025   6.061   6.755 -0.9401 -1.9717  1.1839
19687SOL    HW261069   2.111   5.949   6.700  0.0147 -0.5384 -0.3220
19688SOL     OW61070   4.335   8.233   2.903  0.3429 -0.0142 -1.1444
19688SOL    HW161071   4.332   8.151   2.853  2.7554 -0.4021 -0.7572
19688SOL    HW261072   4.372   8.209   2.988  0.8419  1.4349 -0.9175
19689SOL     OW61073   2.385   9.748   2.490  0.1774 -0.2092  0.0700
19689SOL    HW161074   2.440   9.816   2.451 -1.4111  0.1403 -1.6918
19689SOL    HW261075   2.357   9.786   2.574  1.5519  0.1132  0.4146
19690SOL     OW61076   3.834   8.183   8.842 -0.4579 -0.3980 -0.1492
19690SOL    HW161077   3.814   8.091   8.826  0.0575 -0.4372 -0.5960
19690SOL    HW261078   3.901   8.205   8.778 -0.2115  0.1543  0.2832
19691SOL     OW61079   5.630   5.154   3.813 -0.6812  0.4460 -0.9710
19691SOL    HW161080   5.724   5.169   3.825 -0.5071 -0.5673 -0.9606
19691SOL    HW261081   5.588   5.221   3.867  0.0708 -1.3588  2.0769
19692SOL     OW61082   6.102   8.438   6.224 -0.0418  0.3025  0.6105
19692SOL    HW161083   6.168   8.373   6.197 -0.0580  0.3152  0.5409
19692SOL    HW261084   6.023   8.412   6.177  0.1286  0.7817  0.0379
19693SOL     OW61085   4.569   3.737   4.938  0.5191  0.6455  0.2772
19693SOL    HW161086   4.503   3.735   5.007  2.4947  1.1220  2.3160
19693SOL    HW261087   4.565   3.825   4.902  0.0001  0.6474  0.3408
19694SOL     OW61088   3.323   2.597   2.548  0.5175  0.3376  0.3935
19694SOL    HW161089   3.230   2.578   2.544  0.1118  1.4484  2.9804
19694SOL    HW261090   3.359   2.559   2.467 -2.1247 -0.1552 -0.6287
19695SOL     OW61091  10.051   7.971   4.142  0.2011  0.0067  0.8898
19695SOL    HW161092  10.077   7.997   4.053 -1.3504  1.3333  0.7836
19695SOL    HW261093  10.079   7.879   4.149  3.0133  0.7115  0.1199
19696SOL     OW61094   2.124   6.292   1.802  0.6261  0.0264 -0.2618
19696SOL    HW161095   2.154   6.212   1.845  0.4581 -0.2781 -0.7017
19696SOL    HW261096   2.122   6.357   1.872 -0.4692 -0.6680  0.3893
19697SOL     OW61097   3.589   8.632   1.309  0.5249  0.1505  0.2697
19697SOL    HW161098   3.590   8.577   1.387  0.7251 -0.4990 -0.1849
19697SOL    HW261099   3.597   8.571   1.236  0.7764  0.7835 -0.2446
19698SOL     OW61100   1.364   3.531   5.412 -0.5750  0.3660 -0.1721
19698SOL    HW161101   1.307   3.467   5.454  0.2478 -0.4279 -0.2520
19698SOL    HW261102   1.311   3.566   5.340 -1.8442  1.4400  1.2199
19699SOL     OW61103   4.045   9.958   3.528  0.4311 -0.0381  0.1003
19699SOL    HW161104   4.017   9.889   3.589  2.1026  0.1028  1.0942
19699SOL    HW261105   4.135   9.976   3.552  0.5562  1.3536 -1.2414
19700SOL     OW61106   1.746   3.268   4.816 -0.3472  0.2038 -0.0220
19700SOL    HW161107   1.686   3.196   4.833 -0.9923  0.1865 -2.0756
19700SOL    HW261108   1.814   3.230   4.760  1.1837  0.4291  1.5763
19701SOL     OW61109  10.564   8.027   6.943  0.2113  0.5032 -0.3604
19701SOL    HW161110  10.590   7.939   6.970 -1.9556 -0.0431  0.1296
19701SOL    HW261111  10.607   8.085   7.005  0.4793 -0.3268  0.2491
19702SOL     OW61112   4.009  10.947   5.825 -0.2554 -0.3220  0.2927
19702SOL    HW161113   4.049  10.860   5.829 -0.5739 -0.4574  0.5728
19702SOL    HW261114   3.985  10.966   5.916 -0.7374 -0.1990  0.1401
19703SOL     OW61115   5.596  10.517  10.906 -0.0339  0.5158 -0.3405
19703SOL    HW161116   5.672  10.543  10.959 -1.5977  2.3258  1.1619
19703SOL    HW261117   5.577  10.593  10.852 -1.3020  0.4452 -0.0351
19704SOL     OW61118   7.448   7.260   7.217  0.1498  0.3855  0.5812
19704SOL    HW161119   7.402   7.342   7.202  0.6905  0.5927  0.0070
19704SOL    HW261120   7.381   7.200   7.250 -0.5758  0.6217 -0.4214
19705SOL     OW61121   6.309  10.389   9.942 -0.4461  0.1155  0.2636
19705SOL    HW161122   6.216  10.386   9.965 -0.7623 -0.4040 -1.0042
19705SOL    HW261123   6.312  10.373   9.848  1.0157 -1.3686  0.4951
19706SOL     OW61124   1.574   6.247   8.863  0.8714 -0.0577 -0.0446
19706SOL    HW161125   1.562   6.159   8.828 -1.4378  0.4299 -0.6760
19706SOL    HW261126   1.600   6.233   8.955  3.3299 -1.3345 -0.8439
19707SOL     OW61127   8.486   2.415   4.052  1.0712  0.1078  0.1222
19707SOL    HW161128   8.510   2.381   3.966  1.3692  0.6176  0.0033
19707SOL    HW261129   8.390   2.413   4.052  0.9051  2.7787 -1.3517
19708SOL     OW61130   4.386   5.320   0.416  0.2192  0.5946 -0.3017
19708SOL    HW161131   4.316   5.310   0.352  1.2530  1.7734 -1.6898
19708SOL    HW261132   4.418   5.409   0.403  2.4963 -0.1557 -0.3012
19709SOL     OW61133   3.518   8.473   1.810 -0.4603 -0.6325 -0.8323
19709SOL    HW161134   3.543   8.385   1.836 -0.6140 -0.2638  0.6223
19709SOL    HW261135   3.512   8.522   1.892  1.5423  1.2591 -1.7148
19710SOL     OW61136   4.920   2.994   1.873 -0.2467 -0.5614 -0.5473
19710SOL    HW161137   4.890   2.960   1.789 -1.8130 -1.1151  0.2002
19710SOL    HW261138   5.013   2.971   1.876  0.4830  1.5494 -3.1197
19711SOL     OW61139   0.190   4.587   0.396 -0.1132  0.2897  1.1054
19711SOL    HW161140   0.187   4.619   0.306  0.0778  2.3876  1.7866
19711SOL    HW261141   0.106   4.542   0.409  0.8183 -2.2138 -0.7880
19712SOL     OW61142   5.241   2.411  10.610  0.9057 -0.5578 -0.3884
19712SOL    HW161143   5.224   2.447  10.523 -1.5399 -0.7873 -0.0649
19712SOL    HW261144   5.184   2.461  10.669  1.4104 -1.4005  0.8692
19713SOL     OW61145   4.915   3.661   6.865 -0.8079 -0.4249  0.3670
19713SOL    HW161146   4.972   3.727   6.826 -2.8180  2.0598  1.3127
19713SOL    HW261147   4.907   3.687   6.956  0.0073 -3.3303  1.3588
19714SOL     OW61148   7.982   7.731   1.999  0.1084  0.6108  0.1609
19714SOL    HW161149   7.911   7.750   1.938  0.3456 -1.3766 -0.8242
19714SOL    HW261150   7.939   7.688   2.073 -0.0190  1.9045  0.8727
19715SOL     OW61151  10.537   1.629   4.131 -0.3824 -0.1883 -0.5198
19715SOL    HW161152  10.593   1.685   4.184  1.0915 -1.0471 -1.1197
19715SOL    HW261153  10.570   1.638   4.042 -2.0223  0.2562 -1.1186
19716SOL     OW61154   6.715   1.528   6.598 -0.6668  0.7456  0.1088
19716SOL    HW161155   6.774   1.576   6.540  0.3102 -1.0178 -0.4368
19716SOL    HW261156   6.743   1.436   6.591 -4.7944 -0.6041 -1.8661
19717SOL     OW61157  10.884   2.848  10.800 -0.0801 -0.0304  0.0949
19717SOL    HW161158  10.947   2.789  10.757  0.3815  0.6747 -0.2142
19717SOL    HW261159  10.818   2.866  10.732  1.1433  1.8254 -0.6773
19718SOL     OW61160  10.867   7.826   0.322 -0.1026  0.2689 -0.4777
19718SOL    HW161161  10.867   7.770   0.245  0.1903  2.3918 -2.0946
19718SOL    HW261162  10.925   7.898   0.300  0.4291  0.6900  1.9661
19719SOL     OW61163   8.306   8.394   8.031 -0.5094 -0.4506 -0.0396
19719SOL    HW161164   8.364   8.318   8.031 -1.4094 -1.1491 -0.6744
19719SOL    HW261165   8.363   8.468   8.009  0.7358 -0.6241  2.3388
19720SOL     OW61166  10.081   3.506   6.218  0.2831 -0.5415 -0.0468
19720SOL    HW161167   9.995   3.539   6.245  0.7116  1.2676 -0.7328
19720SOL    HW261168  10.141   3.543   6.283  0.5893 -1.5884  0.2796
19721SOL     OW61169   3.715   1.620   8.834  0.4193 -0.7635  0.7968
19721SOL    HW161170   3.693   1.712   8.851  1.4181 -0.4224  0.3114
19721SOL    HW261171   3.639   1.571   8.866 -0.0113  0.2095  1.3057
19722SOL     OW61172   9.883   0.719   3.961 -0.2603  0.2087  0.2908
19722SOL    HW161173   9.820   0.759   3.901 -0.5843  1.1874  1.2553
19722SOL    HW261174   9.888   0.780   4.035  2.5290  0.6833 -0.1772
19723SOL     OW61175   6.875   4.200   4.932  0.4265  0.0859 -0.3516
19723SOL    HW161176   6.901   4.250   5.009 -1.0847 -0.3419  0.4790
19723SOL    HW261177   6.783   4.221   4.920  0.0501 -1.5804 -0.6628
19724SOL     OW61178   4.068  10.617   1.777 -0.1420 -0.0528  0.7034
19724SOL    HW161179   4.162  10.632   1.784 -0.2098  1.3152 -0.7292
19724SOL    HW261180   4.028  10.702   1.796 -1.0965 -0.6030  1.2492
19725SOL     OW61181   1.973  10.892   2.566 -0.1800 -0.0740 -0.2381
19725SOL    HW161182   2.009  10.822   2.621  2.0621 -0.0318 -1.4980
19725SOL    HW261183   2.041  10.907   2.500 -1.1120  2.4763 -0.7345
19726SOL     OW61184   3.218   7.870   7.151 -0.6543 -0.0850  0.8467
19726SOL    HW161185   3.210   7.852   7.244 -0.0137 -0.2933  0.8720
19726SOL    HW261186   3.154   7.813   7.109 -0.8208 -0.1202  1.1515
19727SOL     OW61187   3.104  10.521   9.348 -0.6893 -0.7148  0.5890
19727SOL    HW161188   3.059  10.531   9.265  1.1366  0.5793 -0.3121
19727SOL    HW261189   3.094  10.606   9.391 -0.5234 -0.9607  1.1246
19728SOL     OW61190   8.409   3.785   2.914  0.3919  0.1448 -1.3698
19728SOL    HW161191   8.365   3.855   2.962  1.3231 -1.0034  1.3841
19728SOL    HW261192   8.500   3.815   2.906  1.3577 -1.4330  1.7674
19729SOL     OW61193   6.376   8.474   5.294  0.1504  0.3870  0.3888
19729SOL    HW161194   6.334   8.550   5.255  0.1046  0.8042  1.2392
19729SOL    HW261195   6.304   8.418   5.323  0.1578  0.9221  1.4945
19730SOL     OW61196  11.078   8.905   5.347 -0.0155 -0.2361 -0.3125
19730SOL    HW161197  11.089   8.884   5.440 -0.7420  2.0711  0.3681
19730SOL    HW261198  10.991   8.944   5.342  0.3338  0.4086 -1.8250
19731SOL     OW61199   2.619   0.027  10.306  0.3639 -0.0714 -0.4536
19731SOL    HW161200   2.641   0.073  10.387 -0.5569  0.4177 -0.4766
19731SOL    HW261201   2.537  -0.018  10.324  0.6504 -0.7678 -0.8128
19732SOL     OW61202   0.404   7.820   8.523 -0.1477  0.0589  0.5482
19732SOL    HW161203   0.415   7.896   8.465 -0.6893  0.7182  1.2920
19732SOL    HW261204   0.331   7.843   8.579  0.5513 -0.4424  1.7026
19733SOL     OW61205   3.124   1.850   6.599  0.3888  0.0239  0.1986
19733SOL    HW161206   3.064   1.890   6.536  0.2347  1.7510  1.3682
19733SOL    HW261207   3.154   1.923   6.653  1.9579 -1.1211  0.9519
19734SOL     OW61208   0.362   3.189   4.748  0.1439  0.3112  0.1016
19734SOL    HW161209   0.339   3.281   4.737  1.2687  0.6124  0.1336
19734SOL    HW261210   0.360   3.153   4.659 -1.1218  0.1391  0.1773
19735SOL     OW61211   0.167   9.724   9.637 -0.3849  1.1260 -0.4167
19735SOL    HW161212   0.229   9.653   9.649 -2.0160 -0.3172 -0.0720
19735SOL    HW261213   0.176   9.749   9.545 -0.3846 -0.1360 -0.7750
19736SOL     OW61214   4.348   9.658   7.286 -0.0180 -0.1976 -0.2002
19736SOL    HW161215   4.432   9.641   7.242  0.6804 -0.8731  1.3158
19736SOL    HW261216   4.365   9.735   7.340 -1.0883  1.0835 -1.5920
19737SOL     OW61217   0.253   6.775   0.486  0.4462  0.0736  1.3229
19737SOL    HW161218   0.190   6.765   0.415  2.5676  0.6443 -0.7551
19737SOL    HW261219   0.260   6.869   0.500 -0.4026 -0.0569  2.7497
19738SOL     OW61220  10.323   4.550   4.421 -0.6935  0.5240 -0.2703
19738SOL    HW161221  10.369   4.633   4.409  0.2206  0.1725  0.6575
19738SOL    HW261222  10.239   4.574   4.460 -0.8564  1.0764 -0.9208
19739SOL     OW61223   9.337   7.166   7.799  0.5149  0.2388  0.2328
19739SOL    HW161224   9.354   7.076   7.824 -0.9541 -0.2161 -0.2862
19739SOL    HW261225   9.420   7.212   7.814  0.4555 -0.4669  3.6092
19740SOL     OW61226   8.221   9.154   1.042  0.1779 -0.0743 -0.1856
19740SOL    HW161227   8.300   9.184   0.998 -0.3622  0.9101 -0.5260
19740SOL    HW261228   8.165   9.120   0.972 -0.3821  0.8050 -0.1794
19741SOL     OW61229   4.359   7.898   5.874  0.2321  0.0943 -0.1976
19741SOL    HW161230   4.402   7.829   5.824 -0.0317 -0.8518  0.8170
19741SOL    HW261231   4.397   7.980   5.842 -0.2059 -0.4264 -2.1729
19742SOL     OW61232   9.505   7.407   4.243 -0.3806 -0.9413 -0.1992
19742SOL    HW161233   9.468   7.494   4.251  1.2208  0.0131 -2.2345
19742SOL    HW261234   9.440   7.357   4.193 -0.5687 -0.3879 -0.5153
19743SOL     OW61235   9.208   2.206   8.255 -0.0629  0.1848  0.5021
19743SOL    HW161236   9.158   2.124   8.256 -1.3299  0.9006 -0.3364
19743SOL    HW261237   9.246   2.210   8.168 -0.6689  0.8546  0.2620
19744SOL     OW61238   2.961   7.466   0.490 -0.0138 -0.3624  0.3829
19744SOL    HW161239   3.039   7.444   0.440  1.5247 -1.6984  3.1855
19744SOL    HW261240   2.991   7.528   0.556 -2.0082  1.4368 -0.2602
19745SOL     OW61241   9.795   2.134  10.151  0.1582  0.1381  0.0494
19745SOL    HW161242   9.716   2.184  10.128 -0.9154 -1.1275  0.8345
19745SOL    HW261243   9.825   2.097  10.068 -0.4492  0.1324 -0.1735
19746SOL     OW61244   1.581   7.616   7.955 -0.5630  0.1613 -0.2962
19746SOL    HW161245   1.668   7.584   7.978 -0.6927 -0.3388 -0.4924
19746SOL    HW261246   1.524   7.584   8.024 -0.5575  0.7047 -0.0306
19747SOL     OW61247   7.102   9.719  10.379 -0.4899  0.1856 -0.1253
19747SOL    HW161248   7.153   9.709  10.460  0.3483 -0.1361 -0.6769
19747SOL    HW261249   7.108   9.812  10.358  1.4493 -0.1123 -1.1533
19748SOL     OW61250   7.568   7.096   9.816  0.0258 -0.3012 -0.1738
19748SOL    HW161251   7.561   7.082   9.910 -0.1210  0.8641 -0.0011
19748SOL    HW261252   7.482   7.074   9.781  0.0007 -0.4644 -0.0084
19749SOL     OW61253   3.622   7.160  10.357  0.0282  0.0832  0.4091
19749SOL    HW161254   3.603   7.138  10.448  0.8697  2.5642  1.2595
19749SOL    HW261255   3.537   7.155  10.313 -0.1572 -2.7393  0.8730
19750SOL     OW61256  10.107   0.782   2.441 -0.2642  0.2510 -0.8666
19750SOL    HW161257  10.193   0.816   2.464 -0.1177 -0.6244 -0.0768
19750SOL    HW261258  10.125   0.699   2.396 -0.7007 -0.5974  0.4508
19751SOL     OW61259   8.184   0.522   0.502 -0.1019  0.7087  0.0982
19751SOL    HW161260   8.117   0.495   0.440 -1.0597  0.3814  1.2357
19751SOL    HW261261   8.237   0.587   0.455 -0.1074 -0.3272 -1.4160
19752SOL     OW61262   6.166   7.569   3.403 -0.8202 -0.3487 -0.5111
19752SOL    HW161263   6.233   7.630   3.372 -1.2463  0.5583  0.2727
19752SOL    HW261264   6.199   7.538   3.487 -1.3876  0.1572 -0.0866
19753SOL     OW61265   3.691   4.310   9.472 -0.7907 -0.1313  0.1700
19753SOL    HW161266   3.685   4.373   9.400  0.3137  1.4158  1.3545
19753SOL    HW261267   3.672   4.362   9.550 -2.1983 -1.8209  1.0131
19754SOL     OW61268   0.791   9.830   5.290  0.5670 -0.0659 -0.0370
19754SOL    HW161269   0.762   9.883   5.215  2.6103  1.9916  0.5053
19754SOL    HW261270   0.712   9.788   5.322 -1.1887  2.5801 -0.6253
19755SOL     OW61271   2.133   2.596   9.394 -0.1438  0.3501 -0.1348
19755SOL    HW161272   2.038   2.593   9.381 -0.1106 -0.5591 -0.2296
19755SOL    HW261273   2.145   2.615   9.487 -0.4301 -0.8081  0.1479
19756SOL     OW61274   9.739   5.189   6.996 -1.1979 -0.3007  0.2342
19756SOL    HW161275   9.812   5.140   6.957 -1.5039  0.9831 -2.1444
19756SOL    HW261276   9.711   5.135   7.070 -0.2438 -2.7264 -1.0466
19757SOL     OW61277   0.551  10.244   5.440 -0.1462  0.0245 -0.2894
19757SOL    HW161278   0.597  10.290   5.510 -2.1620 -0.1537  1.2389
19757SOL    HW261279   0.559  10.302   5.364 -0.4074  1.6485  0.8775
19758SOL     OW61280   3.194   8.183   8.981  1.1201 -0.3227 -0.0389
19758SOL    HW161281   3.276   8.171   8.933  0.5772  0.0087 -1.0707
19758SOL    HW261282   3.139   8.110   8.953  1.4486 -1.2485  1.5623
19759SOL     OW61283   5.597   5.462   0.815 -0.7503 -0.0379 -0.3264
19759SOL    HW161284   5.595   5.368   0.831  3.1767 -0.1932  0.2574
19759SOL    HW261285   5.597   5.501   0.902  0.8442  0.2700 -0.4430
19760SOL     OW61286   4.460   7.145   4.900  0.4910  0.5335  0.1164
19760SOL    HW161287   4.373   7.122   4.867  0.3631  0.8489  0.2305
19760SOL    HW261288   4.511   7.064   4.892  0.0837  0.2444  0.3918
19761SOL     OW61289   1.052   3.033   9.512 -0.7340 -0.0456 -0.0864
19761SOL    HW161290   1.106   3.090   9.458 -1.6443 -0.0392 -1.0235
19761SOL    HW261291   1.111   2.963   9.540 -0.3423 -0.2932 -1.4721
19762SOL     OW61292  10.070   4.111   1.022 -0.3602 -0.3180  0.1616
19762SOL    HW161293  10.087   4.026   0.983 -1.4079 -0.5948  0.2724
19762SOL    HW261294  10.096   4.101   1.114  0.6744 -0.1329 -0.1049
19763SOL     OW61295   7.204   3.969   1.335 -0.9203 -0.0913 -0.5153
19763SOL    HW161296   7.144   3.895   1.320  0.3093 -0.7030 -2.9386
19763SOL    HW261297   7.188   4.029   1.262  0.0721  0.6565 -0.1492
19764SOL     OW61298   7.591   1.509   5.932 -0.4013  0.8058  0.2363
19764SOL    HW161299   7.683   1.530   5.912 -0.7428  2.2026  0.0510
19764SOL    HW261300   7.572   1.432   5.878  0.2033  1.4452 -0.9138
19765SOL     OW61301   4.348   8.873   6.218 -0.1478  0.2475 -0.3258
19765SOL    HW161302   4.274   8.928   6.243  1.7788  2.1080  1.6922
19765SOL    HW261303   4.327   8.787   6.253 -2.2164  0.1742 -1.5882
19766SOL     OW61304   5.241  10.514   8.925  0.2112 -0.4068 -0.5823
19766SOL    HW161305   5.269  10.468   9.005 -0.9756  0.9732  0.6788
19766SOL    HW261306   5.316  10.506   8.866  2.0877  0.4998  1.5021
19767SOL     OW61307   2.657   5.804  10.356  0.2147 -0.1983 -0.2027
19767SOL    HW161308   2.702   5.720  10.356  1.9942  0.5188  3.5059
19767SOL    HW261309   2.564   5.783  10.357  0.6311 -2.1647  0.8563
19768SOL     OW61310   5.896  10.116   9.552  0.6852 -1.3272  0.1664
19768SOL    HW161311   5.959  10.045   9.548 -0.5425 -2.5602  1.5508
19768SOL    HW261312   5.811  10.072   9.554 -0.2776  0.2802 -1.8589
19769SOL     OW61313   1.404  10.986   1.420 -0.1877  0.1795 -0.4025
19769SOL    HW161314   1.389  10.998   1.326  2.3018  1.1826 -0.7467
19769SOL    HW261315   1.495  11.010   1.433  0.6719 -3.4833  1.7065
19770SOL     OW61316   6.386   3.332   4.955  0.2492 -0.0117  0.4008
19770SOL    HW161317   6.400   3.274   5.030 -0.7355 -0.6990  0.0650
19770SOL    HW261318   6.293   3.325   4.935  0.4587  0.3080 -0.7749
19771SOL     OW61319   8.588   4.433   7.350  0.8412  0.4467  0.1824
19771SOL    HW161320   8.613   4.341   7.357  3.2549  1.0094 -0.0985
19771SOL    HW261321   8.669   4.482   7.364 -0.4636  2.5893  0.9471
19772SOL     OW61322  10.467   4.882   2.939  0.2617 -0.4485  0.5832
19772SOL    HW161323  10.377   4.914   2.937  0.3154 -0.3411 -0.0193
19772SOL    HW261324  10.471   4.830   3.019 -0.6850 -1.4895 -0.0217
19773SOL     OW61325   2.361   9.972   2.946 -0.0586  0.0065 -0.1971
19773SOL    HW161326   2.287  10.033   2.940  1.8734  3.0159  3.1451
19773SOL    HW261327   2.423  10.004   2.879  0.4247  1.0104  0.7001
19774SOL     OW61328   5.337   9.871   3.062 -0.3657 -0.2402 -0.0475
19774SOL    HW161329   5.245   9.881   3.037 -0.0523 -0.8471 -1.5333
19774SOL    HW261330   5.340   9.787   3.108 -0.6585  0.0962  0.6010
19775SOL     OW61331   0.071  10.452  10.558  0.0028 -0.3483 -0.3865
19775SOL    HW161332   0.057  10.358  10.548  1.7286 -0.6764 -0.0445
19775SOL    HW261333   0.145  10.459  10.618  1.1307  1.1459 -1.8402
19776SOL     OW61334  10.590   0.941   2.562  0.2722  0.5280 -0.2902
19776SOL    HW161335  10.526   0.935   2.492  0.8100 -2.1258 -0.6576
19776SOL    HW261336  10.539   0.934   2.643 -0.0028 -0.9151 -0.5632
19777SOL     OW61337   6.116   1.816   2.893  0.1495  0.1761  0.0354
19777SOL    HW161338   6.203   1.783   2.871 -0.5952 -2.0286  0.1384
19777SOL    HW261339   6.060   1.784   2.821 -0.6752  1.0804  0.2548
19778SOL     OW61340  10.780   7.991   4.066 -0.1312  0.1861  0.0110
19778SOL    HW161341  10.822   7.942   3.996  0.4596 -0.1760  0.6069
19778SOL    HW261342  10.852   8.036   4.110 -0.4816  0.3183  0.4576
19779SOL     OW61343   1.972   3.204   7.633 -0.4796 -0.6870 -0.1846
19779SOL    HW161344   1.944   3.291   7.661  3.5391  0.7715 -0.1798
19779SOL    HW261345   2.003   3.217   7.543 -0.4690 -2.3033 -0.4385
19780SOL     OW61346   5.800   1.194   8.864 -0.0643  0.3549  0.2064
19780SOL    HW161347   5.711   1.229   8.862 -0.5825 -0.7568  1.6623
19780SOL    HW261348   5.824   1.184   8.772 -1.5691  0.4064 -0.2190
19781SOL     OW61349   0.483   4.326   4.132  0.6600  0.2734 -0.0955
19781SOL    HW161350   0.451   4.286   4.212 -0.0711  1.3037  0.1363
19781SOL    HW261351   0.530   4.255   4.087  0.8045 -0.3920  1.0759
19782SOL     OW61352   5.521   9.224   2.035  0.6178 -0.6500 -0.0600
19782SOL    HW161353   5.465   9.298   2.060  0.4014 -0.2652 -1.5920
19782SOL    HW261354   5.459   9.154   2.016  0.8146 -1.1807  1.1848
19783SOL     OW61355   1.452   8.296   9.574  0.3590  0.5997 -0.5868
19783SOL    HW161356   1.437   8.224   9.635 -0.1012  1.4356  0.3331
19783SOL    HW261357   1.366   8.318   9.541  0.3780  1.2381 -0.2342
19784SOL     OW61358   8.094   4.128  10.541  0.3345  0.5061  0.3276
19784SOL    HW161359   8.017   4.184  10.541 -0.8849 -0.9992 -1.5037
19784SOL    HW261360   8.061   4.043  10.572  0.8302 -0.5535 -1.8493
19785SOL     OW61361   1.412   0.918  11.005 -0.2510 -0.1637  0.0975
19785SOL    HW161362   1.426   1.012  11.014 -0.2371 -0.0395 -1.0819
19785SOL    HW261363   1.490   0.878  11.044 -0.5833  0.2873  1.2399
19786SOL     OW61364   1.495   5.457   5.281  0.0360 -0.5037 -0.1405
19786SOL    HW161365   1.535   5.381   5.238 -1.4115 -0.7429 -1.1316
19786SOL    HW261366   1.450   5.504   5.210 -0.3999  0.4186  0.7233
19787SOL     OW61367   9.505   1.792   0.710  0.4293 -0.4506  0.0156
19787SOL    HW161368   9.557   1.742   0.774  1.5529  0.3730 -0.2167
19787SOL    HW261369   9.571   1.834   0.654 -0.4469 -3.1759 -3.4012
19788SOL     OW61370   1.150   8.976   3.946  0.0612 -0.5042 -0.4936
19788SOL    HW161371   1.182   9.064   3.931 -0.8284 -0.1891 -0.6270
19788SOL    HW261372   1.136   8.970   4.040 -0.0248 -0.4435 -0.5021
19789SOL     OW61373   7.250   7.928   4.394 -0.8532  0.1275  0.9008
19789SOL    HW161374   7.209   8.008   4.363 -1.4893 -0.1567  0.9979
19789SOL    HW261375   7.199   7.902   4.471 -1.1689 -0.8084  0.4002
19790SOL     OW61376   0.438   9.078   8.838 -0.8646 -0.8841 -0.4968
19790SOL    HW161377   0.526   9.114   8.846 -0.4127 -2.3043  1.7301
19790SOL    HW261378   0.423   9.071   8.744  0.2208  2.0406 -0.9954
19791SOL     OW61379   7.031   6.064   1.575  0.2939  0.8315 -0.2860
19791SOL    HW161380   7.053   6.155   1.591  0.3294  0.9921 -1.1616
19791SOL    HW261381   6.936   6.062   1.570  0.3420  1.3842 -3.0989
19792SOL     OW61382   3.656  10.810   1.388 -0.1888 -0.1453 -0.2238
19792SOL    HW161383   3.687  10.900   1.392 -0.0236 -0.1982 -0.3032
19792SOL    HW261384   3.720  10.765   1.332  0.5411 -0.6302  0.9521
19793SOL     OW61385   9.208   6.668   1.810  0.1596  0.3947 -0.1033
19793SOL    HW161386   9.220   6.698   1.720  0.0826  2.8248  0.6175
19793SOL    HW261387   9.224   6.746   1.864  1.2222 -1.1894  2.0719
19794SOL     OW61388   2.276   6.744   8.424  0.4463  0.4791 -0.1222
19794SOL    HW161389   2.201   6.690   8.401  0.7777  0.5528 -1.4401
19794SOL    HW261390   2.281   6.739   8.520 -0.4809 -0.5177 -0.1134
19795SOL     OW61391   1.029   8.857   6.739 -0.1021 -0.7203  0.2727
19795SOL    HW161392   0.992   8.906   6.812 -1.2671 -1.2114  0.0280
19795SOL    HW261393   1.123   8.854   6.758 -0.0255  1.3772  0.4049
19796SOL     OW61394   2.459   5.693   1.480  0.2499 -0.4987  0.2728
19796SOL    HW161395   2.411   5.638   1.418  1.5618  0.7230 -1.9099
19796SOL    HW261396   2.437   5.782   1.455  1.9275  0.0350  0.6330
19797SOL     OW61397   9.579   0.688   1.776  0.0500 -0.1891  0.0209
19797SOL    HW161398   9.631   0.612   1.803  0.4598  0.4985  1.2149
19797SOL    HW261399   9.546   0.664   1.689 -0.0843 -1.8702  0.4888
19798SOL     OW61400   1.056   0.390   9.077 -0.6451  0.4619  0.0035
19798SOL    HW161401   0.975   0.419   9.118 -1.1776 -0.8718 -0.0470
19798SOL    HW261402   1.053   0.426   8.988 -2.2543 -1.3210 -0.7331
19799SOL     OW61403   6.090   5.015   0.563 -0.8437  0.8325 -0.1164
19799SOL    HW161404   6.153   4.964   0.512  1.2075  0.2620  2.7511
19799SOL    HW261405   6.121   5.106   0.555  0.0478  0.6269  0.8007
19800SOL     OW61406   0.835   3.027  10.479  0.7284 -0.6299  0.5862
19800SOL    HW161407   0.901   2.958  10.470  0.6887 -0.4982 -0.9293
19800SOL    HW261408   0.786   3.003  10.558  0.7960 -2.2731  0.1652
19801SOL     OW61409   3.421   8.781   3.829  0.0967 -0.1284 -0.5685
19801SOL    HW161410   3.502   8.805   3.873 -1.2397  0.9776  1.4477
19801SOL    HW261411   3.379   8.864   3.808  0.1633 -0.6322 -3.1093
19802SOL     OW61412   3.060   5.266   8.423  0.1090  0.3001  0.5357
19802SOL    HW161413   3.127   5.198   8.434 -0.2949 -0.4642 -1.3704
19802SOL    HW261414   3.080   5.330   8.492  2.8576  0.1405  0.0114
19803SOL     OW61415   3.896   4.394   1.594  0.0414  0.3639 -0.2199
19803SOL    HW161416   3.943   4.315   1.621  0.5690  0.7084 -0.1145
19803SOL    HW261417   3.955   4.466   1.617  0.7638  0.6614 -2.7403
19804SOL     OW61418   3.973   0.881  11.074 -0.6856 -0.0606  0.0606
19804SOL    HW161419   4.013   0.849  10.993  0.5190  0.9883  0.2203
19804SOL    HW261420   3.949   0.972  11.054  2.1312  1.1546  1.6684
19805SOL     OW61421   1.567   4.437   0.975  0.3970 -0.3857 -0.7760
19805SOL    HW161422   1.634   4.422   0.908  0.6658 -1.0447 -0.3651
19805SOL    HW261423   1.568   4.358   1.028  0.7030  0.4044  0.4517
19806SOL     OW61424  10.650   5.732   6.526  0.3327 -0.3617  0.3944
19806SOL    HW161425  10.644   5.827   6.538 -0.7349 -0.4793  0.9420
19806SOL    HW261426  10.724   5.720   6.468  1.0551  0.7590  1.0402
19807SOL     OW61427   8.513   9.693  10.952  0.0305 -0.0867  0.1429
19807SOL    HW161428   8.548   9.677  11.040 -0.7389 -0.3826  0.4006
19807SOL    HW261429   8.530   9.786  10.937 -0.1644  0.0552  0.7558
19808SOL     OW61430   9.805   2.559   0.120  0.3940 -0.6422 -0.8542
19808SOL    HW161431   9.884   2.604   0.148  0.6810 -1.3140 -0.5625
19808SOL    HW261432   9.811   2.555   0.025  1.0756 -1.3335 -0.7906
19809SOL     OW61433   0.934   0.417   2.734 -0.0891  0.0252  0.3629
19809SOL    HW161434   1.025   0.405   2.759 -0.0175 -0.3104 -0.0447
19809SOL    HW261435   0.909   0.501   2.772 -0.0590 -0.5821  1.7609
19810SOL     OW61436   5.600   2.647   1.772 -0.5597  0.0395  1.0196
19810SOL    HW161437   5.532   2.703   1.734 -0.7534 -0.3306  0.8136
19810SOL    HW261438   5.654   2.706   1.824 -0.9200  0.3709  1.0174
19811SOL     OW61439   3.050   7.124   4.976 -0.0281 -0.7747 -0.1841
19811SOL    HW161440   2.959   7.144   5.000 -0.2976 -1.9484 -0.1390
19811SOL    HW261441   3.048   7.116   4.880 -0.1971 -1.7240 -0.1173
19812SOL     OW61442   8.786   3.749   9.085 -0.0720  0.5605 -0.1618
19812SOL    HW161443   8.781   3.695   9.006  1.0266 -2.1274  1.5008
19812SOL    HW261444   8.695   3.754   9.116 -0.0589 -1.3691  0.2734
19813SOL     OW61445   8.547   7.380   4.136 -0.1320  0.0442  0.6303
19813SOL    HW161446   8.455   7.378   4.161  0.3878 -1.3206  2.7379
19813SOL    HW261447   8.569   7.473   4.129 -1.1278  0.4373  2.3403
19814SOL     OW61448  10.303   4.138   5.622  0.9917  0.2981 -0.1890
19814SOL    HW161449  10.296   4.155   5.528 -1.4671 -3.3005 -0.8501
19814SOL    HW261450  10.362   4.063   5.628  0.6082  0.0795  1.0690
19815SOL     OW61451   0.613   2.383   2.931 -0.0726  0.3619  0.5161
19815SOL    HW161452   0.614   2.302   2.981  1.7935 -0.3778 -0.5850
19815SOL    HW261453   0.582   2.357   2.844  0.6436  0.7832  0.1237
19816SOL     OW61454   2.715  10.219   4.591 -0.1177  0.3951  0.1374
19816SOL    HW161455   2.714  10.191   4.500 -1.0611  0.0112  0.2500
19816SOL    HW261456   2.632  10.264   4.603 -1.0615 -1.5344  1.3730
19817SOL     OW61457   0.506  10.467   4.233 -0.3093 -0.5463 -0.2074
19817SOL    HW161458   0.458  10.391   4.199  0.6975 -0.8337 -1.0206
19817SOL    HW261459   0.595  10.457   4.200  0.0472  0.5729  0.3457
19818SOL     OW61460   9.628   6.965   3.299 -0.1235  0.0954 -0.0223
19818SOL    HW161461   9.648   7.040   3.243  1.3581 -0.1860  0.1136
19818SOL    HW261462   9.626   6.890   3.240  1.3800 -0.1922  0.2617
19819SOL     OW61463   2.192   1.791   3.243 -0.1665 -0.7200  0.7251
19819SOL    HW161464   2.245   1.840   3.306  1.9373 -1.1174 -0.6217
19819SOL    HW261465   2.171   1.709   3.287  0.8984 -0.8079  1.0901
19820SOL     OW61466   2.060   6.578   8.313 -0.0323 -0.1779  0.1160
19820SOL    HW161467   2.013   6.496   8.325 -0.2402 -0.3330 -1.5162
19820SOL    HW261468   1.995   6.638   8.275  0.7481 -0.0325 -1.0481
19821SOL     OW61469   0.499   4.811   2.323  0.2237 -0.0814  0.0298
19821SOL    HW161470   0.460   4.838   2.406  3.3092  2.3639  0.8676
19821SOL    HW261471   0.592   4.800   2.342  0.8000 -1.0564 -2.7914
19822SOL     OW61472   8.825  10.537   7.106 -0.0097 -0.3802  0.0785
19822SOL    HW161473   8.821  10.625   7.068  1.7252 -0.8211 -1.2751
19822SOL    HW261474   8.762  10.539   7.178 -3.5013  0.5471 -2.7135
19823SOL     OW61475   6.123   7.802   4.537 -0.2446 -0.0921  0.0243
19823SOL    HW161476   6.202   7.755   4.562  0.4799  0.6127 -0.8483
19823SOL    HW261477   6.065   7.794   4.612  0.9919  0.1143  1.0372
19824SOL     OW61478   3.269  10.330   0.500  0.3192 -0.2779  0.5064
19824SOL    HW161479   3.244  10.258   0.443 -1.2030  0.9554 -0.4747
19824SOL    HW261480   3.232  10.307   0.586 -0.4212 -0.5154  0.1292
19825SOL     OW61481   8.159   9.384   1.559 -0.2138 -0.2607 -0.3173
19825SOL    HW161482   8.067   9.391   1.582 -0.3307  0.2868 -0.9117
19825SOL    HW261483   8.159   9.337   1.475  0.2016 -2.3459  0.7846
19826SOL     OW61484   9.529   1.200  10.862 -0.0728  0.2491 -0.2323
19826SOL    HW161485   9.583   1.213  10.784  1.0948 -0.3213  0.4637
19826SOL    HW261486   9.566   1.123  10.905 -1.6123 -0.3299  0.1344
19827SOL     OW61487   4.713   5.157   6.238  0.4818  0.0245  0.3047
19827SOL    HW161488   4.674   5.192   6.158  0.6283  2.0430  1.0692
19827SOL    HW261489   4.658   5.082   6.260 -1.5352  1.3479  0.0322
19828SOL     OW61490   6.150   8.323   0.355  0.1435 -0.2205 -0.2117
19828SOL    HW161491   6.241   8.329   0.383  0.0757 -0.0799 -0.0149
19828SOL    HW261492   6.100   8.331   0.436 -0.0046 -2.2577 -0.0478
19829SOL     OW61493   8.546   2.758  10.870  0.3991 -0.2255  0.5129
19829SOL    HW161494   8.559   2.811  10.792 -0.6559  0.7215  0.9484
19829SOL    HW261495   8.531   2.670  10.837  0.6961  0.0229 -0.3054
19830SOL     OW61496   8.950   6.892   0.917 -0.7781 -0.7866 -0.0255
19830SOL    HW161497   8.992   6.826   0.862 -0.9729  0.4647 -1.7671
19830SOL    HW261498   9.012   6.908   0.987 -0.2797 -2.0560 -0.1545
19831SOL     OW61499   3.441   6.791   1.331  0.0144 -0.2547 -0.1594
19831SOL    HW161500   3.495   6.782   1.409  2.0071 -0.2838 -1.4537
19831SOL    HW261501   3.436   6.885   1.316 -1.8117 -0.1510  0.9111
19832SOL     OW61502   0.812  10.063   3.943  0.0034 -0.2303  0.4994
19832SOL    HW161503   0.780   9.973   3.953 -0.5547  0.0601  1.4610
19832SOL    HW261504   0.775  10.092   3.860 -0.9683 -0.4299  0.8422
19833SOL     OW61505   3.344   2.262   3.010 -0.5422  1.0906  0.7870
19833SOL    HW161506   3.275   2.197   2.995 -1.4504  2.4002 -1.0491
19833SOL    HW261507   3.425   2.210   3.014 -0.8075 -0.0581 -3.6759
19834SOL     OW61508   4.735   5.616   6.104 -0.6179  0.2093 -0.1058
19834SOL    HW161509   4.793   5.591   6.176 -2.8146 -2.6180  0.8763
19834SOL    HW261510   4.689   5.693   6.137  1.8484  2.0210 -0.5951
19835SOL     OW61511   4.109   2.861   3.564  0.3972  0.4115  0.3372
19835SOL    HW161512   4.037   2.910   3.525  0.9109  1.1645  0.3150
19835SOL    HW261513   4.171   2.846   3.492 -0.0142 -0.8006  0.2031
19836SOL     OW61514   8.385   4.194   7.623 -0.2750  0.0711  0.3366
19836SOL    HW161515   8.454   4.132   7.646  0.3474  1.2588  1.8757
19836SOL    HW261516   8.426   4.280   7.634 -2.0706  0.8297  1.5537
19837SOL     OW61517  11.037   2.079   9.749 -0.1677 -0.0390 -0.1900
19837SOL    HW161518  11.003   1.990   9.748  0.2782 -0.2600  1.3096
19837SOL    HW261519  11.106   2.080   9.683 -1.7884 -0.0915 -1.9588
19838SOL     OW61520   3.916   6.674   9.064 -0.0119 -0.0275 -0.5573
19838SOL    HW161521   3.922   6.629   9.148  1.2256  0.5627 -0.3041
19838SOL    HW261522   3.884   6.607   9.004  0.9977 -1.0306 -0.0258
19839SOL     OW61523   2.769   4.091   4.071  0.1637  0.1864  0.4445
19839SOL    HW161524   2.782   4.001   4.042  2.2416  0.9924 -1.4229
19839SOL    HW261525   2.797   4.091   4.163  1.5633 -0.8091  0.0487
19840SOL     OW61526   4.835   8.735   4.172 -0.3420  0.2182  0.3855
19840SOL    HW161527   4.927   8.716   4.190  0.1810 -1.6282 -3.2523
19840SOL    HW261528   4.835   8.818   4.125 -0.4310 -0.1346 -0.2479
19841SOL     OW61529   7.402   5.664   9.230 -0.2491 -0.2493  0.0210
19841SOL    HW161530   7.341   5.646   9.301  1.5589  0.5985  1.9017
19841SOL    HW261531   7.478   5.609   9.250  0.7290  0.8181 -0.6503
19842SOL     OW61532  10.616   7.458   8.082  0.6282 -0.2202 -0.5018
19842SOL    HW161533  10.598   7.549   8.059 -3.9080  0.3039  3.6336
19842SOL    HW261534  10.559   7.407   8.024  0.8396 -0.2237 -0.7113
19843SOL     OW61535   3.621   5.520   4.553  0.4464  0.2987 -0.1679
19843SOL    HW161536   3.635   5.615   4.560 -1.7115  0.7635 -1.3118
19843SOL    HW261537   3.537   5.511   4.508 -0.1762 -2.1663  1.2546
19844SOL     OW61538   2.753   5.759   1.931  0.0256 -0.3287 -0.6977
19844SOL    HW161539   2.745   5.815   1.854 -1.7548 -3.0414 -2.6488
19844SOL    HW261540   2.818   5.693   1.906  1.2839  0.1551  1.1229
19845SOL     OW61541   1.586   7.327   0.529 -0.5431  0.5148 -0.3333
19845SOL    HW161542   1.512   7.316   0.589  0.9603 -0.2577  1.4768
19845SOL    HW261543   1.547   7.364   0.449 -2.6476  1.4614  1.0492
19846SOL     OW61544   8.179   4.117   7.464 -0.0468 -0.6354  0.1281
19846SOL    HW161545   8.248   4.074   7.413  1.1783 -1.0990  2.0625
19846SOL    HW261546   8.226   4.180   7.518 -1.6375  2.0486 -1.4377
19847SOL     OW61547   2.887  10.763   7.739  0.7252  0.1859  0.5752
19847SOL    HW161548   2.820  10.807   7.792  0.9509 -0.5808  1.5430
19847SOL    HW261549   2.860  10.671   7.739 -0.6705  0.4717 -2.8278
19848SOL     OW61550   2.286   0.870   5.626 -0.3663 -0.2611 -0.0720
19848SOL    HW161551   2.351   0.840   5.690  0.7469  2.6083  0.2681
19848SOL    HW261552   2.216   0.908   5.680 -1.8351 -2.1755 -0.4909
19849SOL     OW61553   7.360   9.242  10.004  0.1414 -0.1681 -0.1392
19849SOL    HW161554   7.302   9.318  10.005 -0.2914 -0.4580  1.6248
19849SOL    HW261555   7.309   9.173   9.961 -0.5167 -0.1797  0.6294
19850SOL     OW61556   3.646   5.641  10.820  0.3921 -0.3001 -0.8765
19850SOL    HW161557   3.603   5.593  10.749  0.7795 -1.7873 -0.1371
19850SOL    HW261558   3.574   5.686  10.865 -0.1925 -1.3451 -0.7239
19851SOL     OW61559   7.505  10.510   1.427  1.0283  0.2965 -0.9346
19851SOL    HW161560   7.439  10.554   1.481  1.2544  1.8947 -1.8757
19851SOL    HW261561   7.561  10.466   1.490 -0.7392 -0.8718 -0.0966
19852SOL     OW61562   6.190   8.758   4.051 -0.3010  0.4837  0.5098
19852SOL    HW161563   6.142   8.805   3.983  1.4056  1.2120 -0.2202
19852SOL    HW261564   6.158   8.796   4.133 -1.2094  0.7132  0.0606
19853SOL     OW61565   0.725   2.543   4.317  0.4998  0.1478 -0.2984
19853SOL    HW161566   0.769   2.563   4.400  3.1259  2.0229 -2.0001
19853SOL    HW261567   0.731   2.448   4.309  1.3922  0.0702  1.0417
19854SOL     OW61568   7.297   4.382   8.794  0.0183 -1.3639  0.5030
19854SOL    HW161569   7.287   4.361   8.702 -0.0900  0.8635 -0.0487
19854SOL    HW261570   7.380   4.430   8.799 -0.2416 -0.9814  1.4478
19855SOL     OW61571  10.892   2.337   2.764  0.0412 -0.6048 -0.1928
19855SOL    HW161572  10.902   2.255   2.813  2.2063 -0.1972  0.1601
19855SOL    HW261573  10.828   2.317   2.696 -0.9340 -2.0069  1.0691
19856SOL     OW61574   5.928   1.429   1.488  0.0199  0.1087 -0.2046
19856SOL    HW161575   5.944   1.432   1.393  0.3551  2.1684 -0.1325
19856SOL    HW261576   5.892   1.515   1.508 -2.5162 -1.1688  1.1584
19857SOL     OW61577   3.112   5.845   0.158 -0.6368 -0.1576  0.3210
19857SOL    HW161578   3.074   5.761   0.183 -1.3864 -0.5387 -1.8774
19857SOL    HW261579   3.139   5.833   0.067 -1.2070  2.1067 -0.2136
19858SOL     OW61580   1.256   4.205   7.669  0.3836 -0.2384  0.1265
19858SOL    HW161581   1.276   4.205   7.576 -1.1659  1.4573 -0.2642
19858SOL    HW261582   1.250   4.113   7.693  0.5465 -0.6892 -1.4943
19859SOL     OW61583  10.243   4.421   2.221 -0.1292 -0.0835 -0.4282
19859SOL    HW161584  10.328   4.417   2.266  0.5301 -0.5023 -1.6558
19859SOL    HW261585  10.181   4.387   2.286  0.8051 -0.8072  0.1277
19860SOL     OW61586   4.358   0.742  10.467  0.6848  0.2208  0.2665
19860SOL    HW161587   4.418   0.676  10.503 -0.1082 -0.4965  0.3059
19860SOL    HW261588   4.318   0.783  10.544 -1.1769 -1.4665  0.2803
19861SOL     OW61589   9.369   0.757   4.955  0.3052 -0.0661 -0.9819
19861SOL    HW161590   9.404   0.840   4.986 -0.1879 -0.1129 -0.2772
19861SOL    HW261591   9.429   0.691   4.990 -0.1087 -0.1015 -0.3342
19862SOL     OW61592   5.779   3.981   9.715  0.1720 -0.0660  0.1678
19862SOL    HW161593   5.729   3.916   9.665 -1.8593  1.1469  0.5305
19862SOL    HW261594   5.720   4.008   9.785  0.9662  2.1366  0.0442
19863SOL     OW61595   5.794   6.498   0.115 -0.4410  0.3341  0.0226
19863SOL    HW161596   5.712   6.449   0.108 -1.0949  1.6362 -2.6374
19863SOL    HW261597   5.862   6.432   0.102 -1.1383 -0.4147  0.0787
19864SOL     OW61598  10.288   5.216   8.866  0.1150 -0.3041 -0.7005
19864SOL    HW161599  10.312   5.152   8.800  0.0674 -0.3747 -0.6506
19864SOL    HW261600  10.352   5.287   8.857  0.6078 -0.6882 -0.2747
19865SOL     OW61601   4.332   2.430   5.190  0.0022 -0.0681  0.1062
19865SOL    HW161602   4.273   2.504   5.204  3.0513  2.3823  1.2270
19865SOL    HW261603   4.381   2.422   5.272  2.0812 -1.0912 -1.1416
19866SOL     OW61604  10.085   1.867   9.661 -0.0800 -0.6116 -0.3398
19866SOL    HW161605  10.047   1.903   9.581  0.1215  0.6667  0.1205
19866SOL    HW261606  10.011   1.825   9.706 -0.3063 -0.8342 -0.9094
19867SOL     OW61607   6.002   7.341   3.330  0.1694  0.6118 -0.5090
19867SOL    HW161608   6.080   7.343   3.274 -0.5045  3.2637 -1.4560
19867SOL    HW261609   6.001   7.426   3.373 -1.1590 -0.1359  1.0639
19868SOL     OW61610   2.712   8.595   8.153  0.0906  0.8783 -0.4124
19868SOL    HW161611   2.647   8.656   8.187 -0.7364 -1.0892  1.7577
19868SOL    HW261612   2.792   8.614   8.202 -0.5285 -0.5555  1.2555
19869SOL     OW61613   2.301   0.973   5.924 -0.1218  0.0843 -0.7804
19869SOL    HW161614   2.337   1.039   5.865  0.0337  1.0750  0.3866
19869SOL    HW261615   2.310   0.890   5.876  2.3323  0.4921 -1.1417
19870SOL     OW61616   9.957   5.836   2.838  0.4490  0.0755  0.5309
19870SOL    HW161617  10.033   5.800   2.793  1.0705 -0.0636  1.6426
19870SOL    HW261618   9.890   5.846   2.770  1.0822 -0.8646 -0.2471
19871SOL     OW61619   6.841   4.524   1.837  0.1028 -0.4955 -0.1987
19871SOL    HW161620   6.834   4.586   1.909 -0.2074 -0.3967 -0.3096
19871SOL    HW261621   6.838   4.437   1.878 -1.0956 -0.4567 -0.1606
19872SOL     OW61622   5.835  10.616   6.469  0.0469 -0.2578  0.4074
19872SOL    HW161623   5.832  10.616   6.374  1.3368 -3.2924  0.2517
19872SOL    HW261624   5.776  10.545   6.495  0.4674 -0.1222  1.8100
19873SOL     OW61625   4.800   0.875   1.858  0.3681 -0.0819 -0.3734
19873SOL    HW161626   4.795   0.898   1.951  2.2635 -1.0020 -0.0113
19873SOL    HW261627   4.708   0.869   1.831 -0.2329 -0.2087  1.5323
19874SOL     OW61628   8.178   0.985  10.048  0.2726 -0.6330 -0.3955
19874SOL    HW161629   8.143   1.059  10.098  0.7439 -0.4528 -0.3320
19874SOL    HW261630   8.115   0.914  10.064  1.2546 -1.0846  1.7778
19875SOL     OW61631   9.253  10.932   0.450  0.1361 -0.1388  0.3039
19875SOL    HW161632   9.316  10.860   0.460  1.0931  0.7183  0.6104
19875SOL    HW261633   9.177  10.904   0.502 -1.0619 -2.5582 -2.4712
19876SOL     OW61634   8.892   7.632   1.620 -0.2193  0.1166  0.0838
19876SOL    HW161635   8.836   7.645   1.544 -0.7292  0.1896  0.4663
19876SOL    HW261636   8.892   7.537   1.633 -1.0942  0.1842  0.6932
19877SOL     OW61637   3.269   7.884   4.716  0.0312  0.2377 -0.4993
19877SOL    HW161638   3.337   7.838   4.766 -0.9595  0.3196  0.9777
19877SOL    HW261639   3.247   7.824   4.645  2.6754  0.8324 -1.9678
19878SOL     OW61640   9.161  10.962   4.579 -0.5120  0.1307 -0.3859
19878SOL    HW161641   9.159  10.872   4.546 -1.7876  0.2189 -0.6065
19878SOL    HW261642   9.124  11.014   4.507  0.4964  0.8843 -0.3808
19879SOL     OW61643   9.191   2.283   7.010 -0.1958 -0.4983 -0.0144
19879SOL    HW161644   9.236   2.217   6.957 -0.9521 -1.1403  0.1293
19879SOL    HW261645   9.215   2.262   7.100  1.2619  0.7233 -0.0827
19880SOL     OW61646   5.348   8.870   4.034 -0.5803  0.8312 -0.0154
19880SOL    HW161647   5.318   8.952   4.074 -1.2117  0.0947  1.0705
19880SOL    HW261648   5.277   8.845   3.976 -0.9356  0.4246  0.5889
19881SOL     OW61649   3.805   2.366   8.108  0.1017  0.5439  0.3758
19881SOL    HW161650   3.885   2.341   8.153 -1.4431 -1.9109  2.0022
19881SOL    HW261651   3.752   2.408   8.176 -0.8129  0.2002 -0.1127
19882SOL     OW61652   1.130  10.353   1.677 -0.1596 -0.8035 -0.0954
19882SOL    HW161653   1.196  10.388   1.618  1.1876 -0.9668  1.2579
19882SOL    HW261654   1.136  10.408   1.755  1.3187 -3.3228  1.6966
19883SOL     OW61655   4.932   9.152  10.954  0.5571  0.0591  0.1412
19883SOL    HW161656   4.870   9.150  11.027 -0.4309 -0.9980 -0.6956
19883SOL    HW261657   5.016   9.173  10.995 -0.1154  0.3068  1.4601
19884SOL     OW61658   5.531   0.529   9.568 -0.0809  0.1073 -0.0304
19884SOL    HW161659   5.491   0.545   9.483  0.9717  3.0232 -0.1126
19884SOL    HW261660   5.625   0.540   9.553  0.0456  2.0876  1.6443
19885SOL     OW61661   1.445   5.888   6.507  0.1970 -0.2215 -0.0214
19885SOL    HW161662   1.382   5.913   6.439  0.2676 -1.8583 -0.7579
19885SOL    HW261663   1.500   5.822   6.465  2.2987  0.9910  0.6706
19886SOL     OW61664   9.290   9.672   4.235  0.1845  0.4020 -0.4902
19886SOL    HW161665   9.282   9.720   4.152 -0.2556  0.8759 -0.1838
19886SOL    HW261666   9.230   9.718   4.294  0.9141  0.4125  0.2522
19887SOL     OW61667   0.250   2.936   1.205 -0.0748 -0.8944 -0.3598
19887SOL    HW161668   0.265   2.900   1.118  2.5157  0.7236 -0.6730
19887SOL    HW261669   0.274   2.866   1.265  1.5636 -0.8821 -0.9673
19888SOL     OW61670   6.558   8.592   2.824  0.9049 -0.0820 -0.4931
19888SOL    HW161671   6.578   8.681   2.794  1.4012 -0.1638 -0.4087
19888SOL    HW261672   6.570   8.537   2.747 -0.7125  0.0838 -0.9040
19889SOL     OW61673  10.298   9.056   0.632 -1.1426  0.3907  0.8034
19889SOL    HW161674  10.354   9.134   0.628  0.3912 -0.6912 -1.4627
19889SOL    HW261675  10.346   8.995   0.688 -1.0713  0.2149  0.5553
19890SOL     OW61676  10.037   5.443   0.054 -0.1092 -0.2410  0.3801
19890SOL    HW161677  10.116   5.422   0.104  0.6458 -1.2616 -1.1520
19890SOL    HW261678  10.008   5.359   0.018  0.0932  0.5476 -1.8261
19891SOL     OW61679   1.524   2.568   9.552  0.3367  0.4572 -0.0385
19891SOL    HW161680   1.571   2.648   9.529 -3.1144  2.3296 -1.4101
19891SOL    HW261681   1.489   2.586   9.639 -1.9930  1.3645 -1.0861
19892SOL     OW61682   5.440   1.698  10.223 -0.7035  0.1847  0.1296
19892SOL    HW161683   5.391   1.747  10.157 -0.6077 -0.8106 -0.7000
19892SOL    HW261684   5.486   1.630  10.174 -1.2823 -1.0964  1.3130
19893SOL     OW61685   4.720   5.698   3.673 -0.1615 -0.4693  0.3037
19893SOL    HW161686   4.637   5.668   3.636 -0.3335 -0.0019  0.3082
19893SOL    HW261687   4.696   5.731   3.760  0.2447 -1.6105  0.8724
19894SOL     OW61688  10.299   8.086   7.694  0.5200  0.0660 -0.0048
19894SOL    HW161689  10.338   8.055   7.776 -0.1126 -0.7165  0.0225
19894SOL    HW261690  10.335   8.174   7.681 -1.1359  1.2397  2.3870
19895SOL     OW61691   8.009  10.643  10.872 -0.1190 -0.3539 -0.4363
19895SOL    HW161692   8.034  10.639  10.780 -0.5294 -0.7162 -0.5330
19895SOL    HW261693   7.952  10.720  10.878  3.3987  2.4913  0.3779
19896SOL     OW61694  10.214  10.576   3.331  0.0207 -0.1932 -0.0191
19896SOL    HW161695  10.143  10.543   3.386 -2.1030  1.0414 -1.8254
19896SOL    HW261696  10.198  10.537   3.245  1.0238  0.7697 -0.6695
19897SOL     OW61697   1.055   2.068   1.303 -0.1460  0.5656  0.0066
19897SOL    HW161698   1.085   2.006   1.370  0.1336  0.4247 -0.2455
19897SOL    HW261699   1.054   2.017   1.222  0.1317  0.9038 -0.2132
19898SOL     OW61700   3.522   0.504   0.183 -0.3271 -0.0413  0.1167
19898SOL    HW161701   3.495   0.448   0.111  0.5232 -0.9391  0.4782
19898SOL    HW261702   3.540   0.589   0.143  1.9947 -1.0279 -1.0539
19899SOL     OW61703   5.975   1.479   2.983  0.1256 -0.1594  0.7425
19899SOL    HW161704   5.942   1.537   3.052  0.0346  0.1115  0.4737
19899SOL    HW261705   6.054   1.441   3.021 -0.2423 -0.4664  1.2170
19900SOL     OW61706   8.149   6.811   0.055  0.0906 -0.0056 -1.0709
19900SOL    HW161707   8.076   6.827  -0.005 -0.8670 -1.5790 -0.3846
19900SOL    HW261708   8.140   6.878   0.123 -0.1495  0.3707 -1.4671
19901SOL     OW61709   2.274  10.494   0.907 -0.2343  0.1764 -0.0522
19901SOL    HW161710   2.355  10.491   0.856  0.5241 -1.8170  1.1501
19901SOL    HW261711   2.266  10.407   0.945 -2.8710  0.3774  0.0417
19902SOL     OW61712   6.283   2.239   0.316 -0.1576 -0.0225 -0.0562
19902SOL    HW161713   6.196   2.258   0.280 -0.5662  0.3142  1.0912
19902SOL    HW261714   6.304   2.315   0.370 -0.5618 -1.4659  2.2758
19903SOL     OW61715  10.441   9.338   1.374 -0.4419  0.3706 -0.7791
19903SOL    HW161716  10.459   9.245   1.369  0.9939  0.4841  1.0389
19903SOL    HW261717  10.426   9.365   1.283 -0.6371 -1.5586 -1.3590
19904SOL     OW61718  10.668   3.726   1.701 -0.3759  0.2763 -0.2976
19904SOL    HW161719  10.709   3.679   1.774  1.9202 -1.0282 -2.2862
19904SOL    HW261720  10.699   3.817   1.711  1.5836 -0.2958 -0.6774
19905SOL     OW61721   8.191   2.184   3.032  0.1987  0.4346  0.0718
19905SOL    HW161722   8.221   2.270   3.005  0.2669  0.5913  0.6496
19905SOL    HW261723   8.260   2.151   3.090  0.3775 -0.1867 -0.4734
19906SOL     OW61724   1.856   6.959   2.477 -0.2788 -0.3406  0.6998
19906SOL    HW161725   1.941   6.988   2.446 -1.5208  2.3459 -0.5352
19906SOL    HW261726   1.794   6.989   2.410 -2.2407 -2.0030  1.6497
19907SOL     OW61727   8.417   1.872  10.052 -0.1047  0.5229 -0.0646
19907SOL    HW161728   8.473   1.892  10.127 -0.9838  0.2510  0.6915
19907SOL    HW261729   8.462   1.802  10.005  0.3763  0.5831  0.3030
19908SOL     OW61730   0.118   4.196   3.244  0.0791 -0.5610  0.2326
19908SOL    HW161731   0.027   4.165   3.251  0.2551 -1.0471  0.3691
19908SOL    HW261732   0.166   4.144   3.308  0.9031 -2.0076 -1.4526
19909SOL     OW61733   7.429   8.928   9.289 -0.8772 -0.5901 -0.5940
19909SOL    HW161734   7.468   8.927   9.202 -0.0781  1.4367 -0.3022
19909SOL    HW261735   7.395   8.839   9.300  1.1799 -1.6498 -1.9725
19910SOL     OW61736   8.784   1.251   4.400  0.4982 -0.0072 -0.4193
19910SOL    HW161737   8.739   1.197   4.465 -0.0842  0.6828 -0.2296
19910SOL    HW261738   8.838   1.311   4.451 -1.1788  1.6286 -0.4325
19911SOL     OW61739   7.434  10.730   0.421 -0.2029  0.4184 -0.0526
19911SOL    HW161740   7.471  10.749   0.507 -2.8336  1.1676  0.9974
19911SOL    HW261741   7.448  10.810   0.370 -1.8566  1.3618  0.9132
19912SOL     OW61742   1.284   5.320   6.398  0.2241  0.3907  0.0356
19912SOL    HW161743   1.235   5.262   6.340  0.2368  1.2787 -0.8795
19912SOL    HW261744   1.219   5.381   6.432  0.5885  1.2804 -0.8179
19913SOL     OW61745   8.790   0.547   2.046 -0.1426  0.2343  0.9111
19913SOL    HW161746   8.818   0.489   1.975 -2.1150  0.6745 -0.3168
19913SOL    HW261747   8.789   0.492   2.124  1.1255 -0.5237  0.4135
19914SOL     OW61748   8.523   1.611   4.001 -0.1811 -0.2317  0.3464
19914SOL    HW161749   8.595   1.549   3.992 -0.2509 -0.0382 -2.3054
19914SOL    HW261750   8.453   1.560   4.042  0.7031 -1.0402  0.9143
19915SOL     OW61751  10.363   4.806   2.132  0.0643 -0.2398  0.9347
19915SOL    HW161752  10.448   4.835   2.163  0.5158  0.1036 -0.5521
19915SOL    HW261753  10.300   4.861   2.179  0.4640 -2.0258  3.7842
19916SOL     OW61754   9.503   9.984  10.068 -0.0285 -0.3439  0.6183
19916SOL    HW161755   9.423   9.931  10.073  0.3261 -1.0417 -0.6437
19916SOL    HW261756   9.572   9.926  10.103  0.5507 -1.1949 -1.7297
19917SOL     OW61757   3.459   5.820   5.292  0.1382  0.0834  0.3277
19917SOL    HW161758   3.463   5.854   5.381  0.2503  1.0875 -0.0458
19917SOL    HW261759   3.367   5.829   5.267 -0.0770 -1.0472  0.6464
19918SOL     OW61760  11.041   6.227   9.280  0.3674  0.4730  0.9495
19918SOL    HW161761  10.945   6.231   9.276 -0.5548 -6.0789  3.7450
19918SOL    HW261762  11.063   6.266   9.365 -0.6700 -1.7965  2.3872
19919SOL     OW61763   1.184   0.806   9.584 -0.3373  0.1588 -0.6626
19919SOL    HW161764   1.148   0.718   9.568  0.4880  0.1042 -2.3972
19919SOL    HW261765   1.235   0.825   9.506  2.7685  0.5847  1.3283
19920SOL     OW61766   8.820   0.456   7.615 -0.3187 -0.5139 -0.0882
19920SOL    HW161767   8.857   0.542   7.638  0.7276 -0.8595 -0.4472
19920SOL    HW261768   8.870   0.394   7.668  0.1235 -1.0560 -1.1247
19921SOL     OW61769   3.728   8.754   7.433  0.4477  0.4845  0.1954
19921SOL    HW161770   3.683   8.804   7.501 -0.2122 -0.7287  0.6855
19921SOL    HW261771   3.821   8.760   7.457  0.2938  0.7232  0.7590
19922SOL     OW61772   7.055   6.030   2.852 -0.2285  0.0599 -0.5708
19922SOL    HW161773   6.965   5.999   2.851 -0.5842  0.9306 -3.2443
19922SOL    HW261774   7.048   6.124   2.870  0.2938 -0.1401  0.7607
19923SOL     OW61775   5.910   5.320   2.454  0.0047  0.3488  0.7438
19923SOL    HW161776   5.958   5.332   2.372  1.4485 -0.7121  1.3719
19923SOL    HW261777   5.923   5.402   2.501  0.0554  0.5803  0.3339
19924SOL     OW61778   2.969  10.195   6.616 -0.1489 -0.4352  0.0835
19924SOL    HW161779   2.945  10.242   6.536 -0.8583 -1.4552 -0.3174
19924SOL    HW261780   3.065  10.203   6.620 -0.2907  1.7662  0.5102
19925SOL     OW61781   0.805   3.762   5.513 -0.5663  0.2244  0.5711
19925SOL    HW161782   0.887   3.809   5.496 -1.1796  0.7927 -0.9378
19925SOL    HW261783   0.816   3.726   5.602  1.5935 -0.3018  0.1408
19926SOL     OW61784   3.871   3.270   3.709  0.3738 -0.6534  0.7722
19926SOL    HW161785   3.942   3.213   3.741 -0.1363 -1.4433  0.5206
19926SOL    HW261786   3.912   3.323   3.641  0.1390 -3.0784 -1.4262
19927SOL     OW61787   5.382   8.409   0.422  0.1877 -0.5687 -0.3579
19927SOL    HW161788   5.427   8.488   0.393 -0.9721  0.3218  0.1508
19927SOL    HW261789   5.443   8.338   0.406  0.7480  0.2643 -2.0671
19928SOL     OW61790   7.602   2.914   6.808  0.2805 -0.0334 -0.0338
19928SOL    HW161791   7.562   2.998   6.789  0.8225  0.2629  0.0986
19928SOL    HW261792   7.552   2.879   6.881 -0.3959 -0.1569 -0.5476
19929SOL     OW61793   6.744   3.462   5.687 -0.4773 -0.3719  0.4700
19929SOL    HW161794   6.822   3.465   5.742 -0.1523 -1.0773  0.0635
19929SOL    HW261795   6.716   3.370   5.690  0.2962 -0.7398 -1.5395
19930SOL     OW61796  10.805  10.263   3.637  0.4909 -0.3430 -0.1153
19930SOL    HW161797  10.739  10.332   3.637 -0.1832 -0.9736 -0.9690
19930SOL    HW261798  10.886  10.307   3.611  0.0402  0.1066 -0.7852
19931SOL     OW61799   5.770   1.460   9.085 -0.4875 -0.4265 -0.1832
19931SOL    HW161800   5.811   1.546   9.073 -0.0694 -0.7754 -1.3910
19931SOL    HW261801   5.843   1.399   9.080 -0.6600 -0.8164  1.5689
19932SOL     OW61802   3.343   2.901   2.554  0.1644 -0.5721  0.4062
19932SOL    HW161803   3.325   2.808   2.540  0.5637 -0.6538  0.4414
19932SOL    HW261804   3.300   2.920   2.638  0.2527 -0.7700  0.4974
19933SOL     OW61805   1.609   6.865   5.315 -0.0794  0.1294 -0.6013
19933SOL    HW161806   1.620   6.840   5.224  3.9669  0.5344 -0.4034
19933SOL    HW261807   1.636   6.787   5.365  2.3379  1.2866  0.0755
19934SOL     OW61808   0.102   6.696   9.962 -0.1108  0.5763 -0.1985
19934SOL    HW161809   0.191   6.662   9.975 -0.4053 -0.5925 -1.0885
19934SOL    HW261810   0.066   6.699  10.051  0.4038 -0.1360  0.0543
19935SOL     OW61811   0.737   4.110   3.743 -0.4873 -0.3394  0.0830
19935SOL    HW161812   0.824   4.114   3.783 -0.0327 -0.5081 -0.8589
19935SOL    HW261813   0.733   4.189   3.688 -0.3901 -1.0199 -0.9234
19936SOL     OW61814   7.644   5.192   5.230 -0.4348 -0.0511  0.5325
19936SOL    HW161815   7.659   5.114   5.176 -0.0840  1.4937 -1.7358
19936SOL    HW261816   7.732   5.225   5.249 -0.5755 -0.2885  1.6856
19937SOL     OW61817   2.006   4.970   6.257 -0.4751 -0.2318  0.7557
19937SOL    HW161818   1.932   5.000   6.310 -2.5733  0.5257 -2.3125
19937SOL    HW261819   2.055   5.049   6.237 -2.2009  0.3141 -1.8347
19938SOL     OW61820   0.672   0.707   2.032 -0.3858 -0.1030 -0.1206
19938SOL    HW161821   0.605   0.740   2.092 -0.6558 -0.7571 -0.0503
19938SOL    HW261822   0.685   0.615   2.058  0.0840 -0.1615 -0.5363
19939SOL     OW61823   7.815   5.204   2.468 -0.5486  0.0407  0.4342
19939SOL    HW161824   7.798   5.149   2.392 -0.3807 -0.8881  1.0494
19939SOL    HW261825   7.895   5.168   2.506  1.8345  3.0511 -1.2519
19940SOL     OW61826  10.304   3.437   3.916 -0.1543 -0.1934  0.6295
19940SOL    HW161827  10.303   3.342   3.898  1.1991 -0.5523  2.2464
19940SOL    HW261828  10.287   3.477   3.831 -2.3575 -1.8874  0.1726
19941SOL     OW61829  10.823   4.528   7.498 -0.0245 -0.1380 -0.0862
19941SOL    HW161830  10.797   4.618   7.517  2.4376  0.7265 -0.3805
19941SOL    HW261831  10.876   4.501   7.573  0.5693 -0.7331 -0.6927
19942SOL     OW61832   0.890   0.067   9.401 -0.3202 -0.1887 -0.4671
19942SOL    HW161833   0.970   0.087   9.449 -0.0940 -1.6558 -0.1888
19942SOL    HW261834   0.853  -0.009   9.446 -1.1255 -0.4093 -1.4496
19943SOL     OW61835   3.922   5.671   0.139 -0.3000 -0.4216 -0.3942
19943SOL    HW161836   3.903   5.761   0.166 -0.5310 -0.3984 -0.6364
19943SOL    HW261837   3.925   5.621   0.221 -1.9010 -0.5287 -0.3834
19944SOL     OW61838   6.626  10.071   9.421 -0.1590 -0.1762  0.0965
19944SOL    HW161839   6.586  10.106   9.341  0.0785  0.6939  0.3395
19944SOL    HW261840   6.717  10.102   9.418  0.1151 -0.9549  0.2295
19945SOL     OW61841   8.250   7.992   4.608 -0.0925 -0.0719  0.1099
19945SOL    HW161842   8.310   7.972   4.679 -1.0547 -1.1384  0.6537
19945SOL    HW261843   8.177   7.931   4.620 -2.5732  2.8242  1.0505
19946SOL     OW61844   3.326   7.209   5.119 -0.3372  0.7558  0.1278
19946SOL    HW161845   3.316   7.171   5.206  1.8412 -0.9677 -0.2873
19946SOL    HW261846   3.271   7.155   5.062  0.2187  0.2323  0.0684
19947SOL     OW61847   2.236   9.313   1.016  0.2458 -0.3875  0.1977
19947SOL    HW161848   2.233   9.390   0.960 -0.9909 -2.2494 -2.5398
19947SOL    HW261849   2.151   9.311   1.060 -0.6668 -1.3140 -1.5093
19948SOL     OW61850  10.142   4.638   3.325  0.0878  1.0124 -0.0708
19948SOL    HW161851  10.154   4.722   3.281 -1.7397  0.6647 -1.3216
19948SOL    HW261852  10.206   4.580   3.284 -0.7175  1.0334 -1.4324
19949SOL     OW61853   6.070  10.422   0.620  0.2767  0.2370 -0.3469
19949SOL    HW161854   6.003  10.490   0.629 -0.2800 -0.2582 -0.7033
19949SOL    HW261855   6.062  10.392   0.530 -0.3192 -1.1439  0.1437
19950SOL     OW61856   4.982   9.371   0.547  0.3029 -0.2138  0.0746
19950SOL    HW161857   4.934   9.329   0.476  3.2340 -0.7170 -1.7875
19950SOL    HW261858   4.952   9.462   0.547  1.7187  0.3930 -3.3909
19951SOL     OW61859   8.184   4.608   1.503 -0.3019 -0.4760  0.3023
19951SOL    HW161860   8.152   4.623   1.592 -0.1116  0.3588  0.2455
19951SOL    HW261861   8.179   4.514   1.490 -0.1049 -0.6288  1.2877
19952SOL     OW61862   2.274   0.666  10.167  0.7165  0.2690 -0.7863
19952SOL    HW161863   2.336   0.606  10.126  2.2407 -0.8927  2.7780
19952SOL    HW261864   2.189   0.621  10.162  1.0789 -0.3380 -1.6031
19953SOL     OW61865  10.826   4.518   0.463 -0.0765  0.4110  0.1537
19953SOL    HW161866  10.817   4.569   0.544  0.9070  0.1529  0.4359
19953SOL    HW261867  10.740   4.477   0.451 -0.2810  0.5816  0.9767
19954SOL     OW61868   4.081  10.325   5.656 -0.1656  0.2216  0.4250
19954SOL    HW161869   4.173  10.331   5.679 -0.8084  0.0443  3.6245
19954SOL    HW261870   4.044  10.267   5.723 -2.8060  1.3841  0.1019
19955SOL     OW61871   2.798   4.225   7.414 -0.5612 -0.1134  0.3018
19955SOL    HW161872   2.847   4.303   7.438  0.1605 -0.8709  1.3992
19955SOL    HW261873   2.807   4.219   7.319  0.5076  0.4085  0.3528
19956SOL     OW61874   6.192   9.154   0.642  0.4710  0.0218  0.1375
19956SOL    HW161875   6.146   9.103   0.708 -0.1895  0.8460  0.3336
19956SOL    HW261876   6.185   9.102   0.562 -0.7834  0.0948  0.1753
19957SOL     OW61877   7.342   8.156   1.500 -0.2457 -0.0814 -0.1079
19957SOL    HW161878   7.428   8.195   1.518 -0.2950 -0.2929  0.6305
19957SOL    HW261879   7.279   8.221   1.532 -0.3219 -1.0576  1.8669
19958SOL     OW61880   0.152   5.510   2.694  0.0130 -0.1552  0.4900
19958SOL    HW161881   0.078   5.569   2.681  0.7082  0.3994 -1.2400
19958SOL    HW261882   0.124   5.427   2.656  0.2906  0.0980 -0.3074
19959SOL     OW61883   2.965   5.517   9.787 -0.3983  0.2750 -0.4746
19959SOL    HW161884   2.950   5.426   9.815 -1.3479  0.4434 -0.3786
19959SOL    HW261885   3.055   5.536   9.813  0.8294 -1.5448 -2.9609
19960SOL     OW61886   9.893   8.231  10.725  0.0645  0.5757 -0.3957
19960SOL    HW161887   9.948   8.176  10.782  1.5593 -0.4238 -2.6358
19960SOL    HW261888   9.940   8.314  10.719  0.0520  0.5825 -0.3946
19961SOL     OW61889  10.826   9.204   6.640  0.4895  0.1029 -0.3465
19961SOL    HW161890  10.889   9.150   6.689  1.2419  0.0480 -1.3357
19961SOL    HW261891  10.747   9.203   6.694  1.1151 -0.3931  0.5984
19962SOL     OW61892   4.106  10.474   0.339 -0.2831  0.0576  0.1728
19962SOL    HW161893   4.076  10.526   0.414  0.2185 -0.4585  0.7416
19962SOL    HW261894   4.136  10.392   0.377 -0.4284 -0.3868 -0.6488
19963SOL     OW61895   1.437   0.368   8.070  0.2157 -0.6562  0.3250
19963SOL    HW161896   1.494   0.305   8.115 -0.7035 -0.9173  1.1670
19963SOL    HW261897   1.351   0.326   8.070 -0.0218 -0.1993 -0.7767
19964SOL     OW61898   5.225   4.002   9.383  0.0026  0.7943 -0.0993
19964SOL    HW161899   5.287   3.953   9.329  1.4803  0.5615  1.7013
19964SOL    HW261900   5.259   4.092   9.384 -0.0799  0.8223  0.3443
19965SOL     OW61901   8.917   6.847   1.746 -0.5146 -0.8983  0.7159
19965SOL    HW161902   8.941   6.807   1.662 -2.2947  1.3301 -0.9585
19965SOL    HW261903   8.994   6.897   1.771 -1.2362  1.7241 -1.7845
19966SOL     OW61904  10.915   5.642   0.398 -0.2671 -0.7377 -0.3347
19966SOL    HW161905  10.862   5.711   0.437  2.8446  2.2521 -0.8911
19966SOL    HW261906  10.992   5.636   0.455  0.2099 -2.8206 -1.0954
19967SOL     OW61907   6.268   5.540   1.302  0.5021  0.2326  0.2104
19967SOL    HW161908   6.243   5.460   1.349  1.4452 -0.1829  0.0313
19967SOL    HW261909   6.188   5.593   1.301  0.4233  0.2541  2.2435
19968SOL     OW61910   0.716   6.847   4.092  0.3017  0.0102  0.1935
19968SOL    HW161911   0.631   6.886   4.076  0.4452  0.9652  1.5587
19968SOL    HW261912   0.733   6.792   4.016 -0.5239  1.5650 -1.1679
19969SOL     OW61913   0.969   3.387   8.732 -0.3238  0.7497  0.0977
19969SOL    HW161914   0.982   3.391   8.827  1.1233 -1.1639  0.0445
19969SOL    HW261915   1.047   3.429   8.696  0.2495 -0.5449 -0.2239
19970SOL     OW61916   7.712   0.104   9.053 -0.2866  0.1021  0.0479
19970SOL    HW161917   7.717   0.182   9.107 -0.9521  1.0479 -1.1935
19970SOL    HW261918   7.799   0.064   9.060  0.5329  1.7137 -0.3721
19971SOL     OW61919   1.971   4.935  10.242 -0.0530  0.9800 -0.4265
19971SOL    HW161920   1.932   4.880  10.310  0.0565  0.9985 -0.3480
19971SOL    HW261921   1.911   5.009  10.234 -0.7515  0.3447 -1.2604
19972SOL     OW61922   5.937   2.848  10.039  0.3437  0.2331 -0.0021
19972SOL    HW161923   5.996   2.802  10.099 -1.6838 -3.2326 -0.3960
19972SOL    HW261924   5.981   2.846   9.954  0.7106 -0.0562  0.1969
19973SOL     OW61925   7.944   1.684   7.247 -0.1261 -0.0796 -0.6197
19973SOL    HW161926   8.002   1.625   7.294 -1.4066  0.1731  1.4335
19973SOL    HW261927   7.856   1.662   7.280 -0.7610  2.1232 -0.6721
19974SOL     OW61928   0.041   4.242   5.516 -0.3195 -0.0593  0.1827
19974SOL    HW161929  -0.027   4.220   5.453 -0.0912 -0.7958  0.1910
19974SOL    HW261930   0.019   4.192   5.594 -0.4093  0.5844  0.5815
19975SOL     OW61931   1.551   0.308   9.435 -0.0741 -1.0884 -0.3645
19975SOL    HW161932   1.631   0.333   9.482  0.3365  0.3623 -1.7323
19975SOL    HW261933   1.557   0.213   9.428  0.9786 -1.1143  0.5310
19976SOL     OW61934   8.131   6.647   5.537  0.2096 -0.3679 -0.5228
19976SOL    HW161935   8.101   6.725   5.491 -1.5610 -1.7893 -1.9353
19976SOL    HW261936   8.072   6.640   5.612  2.9696  1.8382  2.1194
19977SOL     OW61937   7.112   5.187   2.769 -0.5227  0.5361 -0.1277
19977SOL    HW161938   7.036   5.179   2.712  0.1668 -0.9216 -0.8822
19977SOL    HW261939   7.089   5.258   2.830 -2.4357  0.1826 -0.3874
19978SOL     OW61940   3.463  10.543   6.170 -0.1835  0.1616 -0.1690
19978SOL    HW161941   3.405  10.570   6.241 -1.5401 -0.1461 -1.1203
19978SOL    HW261942   3.496  10.625   6.133 -0.1357  0.3439  0.2707
19979SOL     OW61943   9.358   5.963   3.778 -0.2874 -0.0215 -0.0672
19979SOL    HW161944   9.296   6.035   3.772 -1.7183 -1.2477 -0.6164
19979SOL    HW261945   9.308   5.886   3.752  1.3276 -1.1489  0.0121
19980SOL     OW61946   3.710  10.280   8.226  0.3881  0.3601  0.3594
19980SOL    HW161947   3.778  10.214   8.216  0.7677  0.8951 -0.7265
19980SOL    HW261948   3.738  10.333   8.300  1.4008  0.8310 -0.3270
19981SOL     OW61949   5.649   5.607   4.193 -0.3009  0.5769  0.2516
19981SOL    HW161950   5.563   5.589   4.230 -0.5865  0.9398 -0.2237
19981SOL    HW261951   5.703   5.532   4.219 -1.3614 -0.8536 -1.3902
19982SOL     OW61952   8.163   5.448   3.513  0.4018 -0.0803  0.0961
19982SOL    HW161953   8.133   5.537   3.493  1.6981  0.3710  0.0652
19982SOL    HW261954   8.255   5.459   3.538 -0.3102 -0.9207  3.6841
19983SOL     OW61955   5.730   9.978  11.042  0.8633  0.3455 -0.3571
19983SOL    HW161956   5.697  10.068  11.046 -0.8958 -0.2323 -0.6741
19983SOL    HW261957   5.700   9.945  10.957 -0.4539 -1.1951  0.6417
19984SOL     OW61958   9.496   0.802   8.547 -0.0780  0.1056  0.1431
19984SOL    HW161959   9.558   0.775   8.615 -1.9728  0.5462  2.1501
19984SOL    HW261960   9.431   0.731   8.544  0.5583 -0.4764 -2.1049
19985SOL     OW61961   0.877   4.607   8.226 -0.4223  0.0504 -0.3846
19985SOL    HW161962   0.869   4.527   8.277  0.8468 -1.5060 -2.4388
19985SOL    HW261963   0.902   4.674   8.289  0.5635 -1.6494  1.1204
19986SOL     OW61964   3.156   5.089   2.987  0.5769  0.3557 -0.4438
19986SOL    HW161965   3.090   5.023   3.008 -0.1539  1.3523  0.5005
19986SOL    HW261966   3.234   5.063   3.037  0.6496 -0.3809 -0.9335
19987SOL     OW61967   3.396   3.988   2.969  0.1832 -0.5992  0.0062
19987SOL    HW161968   3.317   4.035   2.944  0.7984 -0.0212 -0.9415
19987SOL    HW261969   3.435   3.960   2.885  1.4451 -0.0681  0.3822
19988SOL     OW61970   0.141   1.774   8.999  0.2732  0.3595 -0.0657
19988SOL    HW161971   0.059   1.807   8.961 -0.6242 -1.5639  0.1149
19988SOL    HW261972   0.116   1.738   9.084  2.0051  3.1690  1.7981
19989SOL     OW61973   2.693   7.344   8.820  0.0929 -0.7084 -0.2560
19989SOL    HW161974   2.651   7.386   8.894 -2.2113 -1.8080 -0.8410
19989SOL    HW261975   2.647   7.378   8.743  0.9715 -1.1915 -1.0192
19990SOL     OW61976   5.528   8.847   3.523  0.5235 -0.1895  0.2697
19990SOL    HW161977   5.576   8.796   3.457 -1.0115  0.0611 -1.0965
19990SOL    HW261978   5.455   8.790   3.548 -2.6977  2.0150 -3.0893
19991SOL     OW61979   9.850   9.372   3.432 -0.6939 -0.7583 -0.2979
19991SOL    HW161980   9.869   9.290   3.388 -1.7878  0.0175 -2.3450
19991SOL    HW261981   9.758   9.365   3.458 -0.1727 -1.0566  1.6419
19992SOL     OW61982   3.291  10.527   3.338 -0.2875  0.0590  0.3723
19992SOL    HW161983   3.221  10.576   3.382  0.0088  0.7007  0.1508
19992SOL    HW261984   3.333  10.592   3.281 -0.8463 -0.8243 -1.0893
19993SOL     OW61985   7.155   8.559   3.653  0.3708  0.4321  0.4195
19993SOL    HW161986   7.248   8.541   3.641  0.2978 -0.2845  0.8442
19993SOL    HW261987   7.131   8.615   3.580  1.1396  0.6239  0.3105
19994SOL     OW61988   1.675   9.138   7.315  0.0753 -0.5338  0.4258
19994SOL    HW161989   1.593   9.089   7.306 -0.4138  0.1535  1.0248
19994SOL    HW261990   1.678   9.162   7.407  0.0368  0.9952  0.0506
19995SOL     OW61991   0.319   0.820   8.997 -0.7692 -0.0437 -0.0748
19995SOL    HW161992   0.371   0.812   9.077 -0.8133  0.2654 -0.0140
19995SOL    HW261993   0.230   0.836   9.028 -0.8960 -0.5081 -0.1799
19996SOL     OW61994   1.496   8.426   5.182 -0.3270 -0.2084 -0.1535
19996SOL    HW161995   1.484   8.518   5.158  0.8479 -0.2292 -0.9018
19996SOL    HW261996   1.591   8.414   5.185 -0.3787 -0.6857  2.8169
19997SOL     OW61997   6.353   6.283   0.324 -0.5086  0.1799 -0.3322
19997SOL    HW161998   6.384   6.360   0.373  2.0861 -0.8744 -0.1411
19997SOL    HW261999   6.389   6.295   0.236  0.1728 -0.8916 -0.2223
19998SOL     OW62000   3.560   0.259   5.480 -0.4101 -0.4399 -0.4782
19998SOL    HW162001   3.487   0.238   5.422 -0.1457 -2.6624 -0.1197
19998SOL    HW262002   3.558   0.190   5.546  0.6944  0.7142  0.8316
19999SOL     OW62003   0.010   2.704  10.716 -0.2623 -0.1497  0.5352
19999SOL    HW162004   0.104   2.699  10.697 -0.3831 -0.3252 -0.0627
19999SOL    HW262005  -0.002   2.650  10.794  0.0452 -0.6641  0.2354
20000SOL     OW62006   0.596   2.693   8.069 -0.9488  0.0425 -0.8890
20000SOL    HW162007   0.684   2.713   8.101 -0.9121 -1.3783 -0.0323
20000SOL    HW262008   0.556   2.778   8.056 -0.1113  0.7162  0.6192
20001SOL     OW62009   5.268  10.219   7.741 -0.1726 -0.4912  0.0882
20001SOL    HW162010   5.309  10.253   7.820 -0.6704  0.0127  0.1359
20001SOL    HW262011   5.296  10.280   7.672 -1.7007  0.5032  0.3093
20002SOL     OW62012   2.800   1.207   1.539 -0.2007 -0.2538 -0.5047
20002SOL    HW162013   2.723   1.191   1.484  0.7297 -2.3428 -1.3204
20002SOL    HW262014   2.834   1.291   1.509 -3.4258  1.9834  1.5116
20003SOL     OW62015  10.056   3.842   3.266  0.0140  0.3129 -0.3643
20003SOL    HW162016  10.144   3.876   3.280  0.5331 -0.9823 -0.3069
20003SOL    HW262017  10.048   3.770   3.329  0.1455 -1.6856 -2.4684
20004SOL     OW62018   4.837   7.256   9.957  0.3669 -0.3608  0.2739
20004SOL    HW162019   4.744   7.241   9.937 -0.5209  0.8466  3.0871
20004SOL    HW262020   4.859   7.334   9.906 -0.5848  0.1956  0.6890
20005SOL     OW62021   3.153   7.921  10.220  0.1655 -0.8032  0.9509
20005SOL    HW162022   3.133   8.001  10.172  0.8859 -1.2006 -0.0510
20005SOL    HW262023   3.113   7.934  10.306 -1.8134 -0.3885  0.0281
20006SOL     OW62024   7.541   6.405   8.497  0.3213 -0.3742 -0.1303
20006SOL    HW162025   7.624   6.384   8.454  0.7475  1.2184 -0.1487
20006SOL    HW262026   7.515   6.490   8.459 -1.0027 -0.5512  0.3211
20007SOL     OW62027   3.332   9.544   1.853 -0.5449 -0.1067  0.4415
20007SOL    HW162028   3.367   9.563   1.766  0.0247  1.8031  1.0452
20007SOL    HW262029   3.403   9.499   1.898 -0.5793 -0.4398  0.1722
20008SOL     OW62030   6.243   6.517   3.319  0.4486 -0.0711  0.6263
20008SOL    HW162031   6.208   6.601   3.349  0.3338 -0.1508  0.7176
20008SOL    HW262032   6.324   6.505   3.369  2.6015  1.8159 -2.1086
20009SOL     OW62033   4.289   6.048   0.509 -0.2650 -0.2377  0.2865
20009SOL    HW162034   4.342   6.012   0.580 -1.4671  0.9967  1.8793
20009SOL    HW262035   4.303   6.142   0.514  1.9804 -0.2310 -3.1100
20010SOL     OW62036   6.302   8.373   9.278 -0.2842 -0.1202  0.1636
20010SOL    HW162037   6.295   8.292   9.329 -2.9961 -0.8128 -1.1484
20010SOL    HW262038   6.298   8.443   9.343  1.0265 -0.9860  1.2312
20011SOL     OW62039   6.017   3.829  10.376  0.0417 -0.0786  0.1589
20011SOL    HW162040   5.949   3.770  10.410 -0.4583 -0.7549 -1.8553
20011SOL    HW262041   6.053   3.783  10.300  1.7803  0.9061  0.3405
20012SOL     OW62042  10.031  10.521   7.117 -0.4575  0.1322 -0.3942
20012SOL    HW162043  10.053  10.549   7.028  2.0848 -0.9468 -0.1862
20012SOL    HW262044  10.031  10.425   7.113  0.1004  0.0613  0.8498
20013SOL     OW62045   7.202   1.846  10.646 -0.0991 -0.0166 -0.3478
20013SOL    HW162046   7.284   1.886  10.674 -0.6884 -0.7013  2.7008
20013SOL    HW262047   7.142   1.920  10.634  0.3337  0.3440 -0.2785
20014SOL     OW62048   1.835   0.691   3.757  0.2860 -0.0916  0.1208
20014SOL    HW162049   1.909   0.734   3.716 -0.4219 -0.4947 -1.6928
20014SOL    HW262050   1.866   0.603   3.778  0.5470 -0.0091  0.0743
20015SOL     OW62051   2.548   1.328  10.497  0.3899  0.3150  0.3803
20015SOL    HW162052   2.611   1.273  10.545 -2.2056 -1.3297  2.1418
20015SOL    HW262053   2.596   1.409  10.480  2.9675 -0.8073  1.6342
20016SOL     OW62054   9.917  11.061   5.788  0.0025  0.4863 -0.0323
20016SOL    HW162055   9.996  11.114   5.777  0.0389  0.6504  0.9378
20016SOL    HW262056   9.904  11.056   5.883  0.2178 -1.5495 -0.0552
20017SOL     OW62057   3.651   5.252   6.519 -0.1412  0.2941  0.0444
20017SOL    HW162058   3.702   5.182   6.479  1.1265  1.8098 -1.1046
20017SOL    HW262059   3.634   5.314   6.448  0.3127  2.0174  1.3783
20018SOL     OW62060   6.007   3.239   3.074 -0.2532  0.4969 -0.3090
20018SOL    HW162061   5.914   3.222   3.063  0.2149 -1.0516 -2.2416
20018SOL    HW262062   6.042   3.243   2.985  1.5789  0.7414  0.3799
20019SOL     OW62063   1.622   4.761   6.927 -0.6488  0.0366  0.4625
20019SOL    HW162064   1.554   4.827   6.914  0.1157  0.6097 -0.8834
20019SOL    HW262065   1.650   4.738   6.839 -0.6046 -1.8161  0.9217
20020SOL     OW62066   9.441   7.441  10.062  0.1886 -0.2511  0.5384
20020SOL    HW162067   9.425   7.521  10.013  1.6870 -0.2266  0.0626
20020SOL    HW262068   9.470   7.377   9.997 -1.4962 -1.3939  0.8178
20021SOL     OW62069   1.229   7.448   0.359 -0.0256 -0.3393  0.0983
20021SOL    HW162070   1.187   7.362   0.357 -0.0113 -0.3435 -1.2053
20021SOL    HW262071   1.170   7.502   0.411 -1.1630 -0.6178 -0.8440
20022SOL     OW62072   5.000   3.442   0.122  0.8827 -0.1276 -0.5571
20022SOL    HW162073   5.028   3.533   0.115  0.6669  0.1836  1.7341
20022SOL    HW262074   5.079   3.394   0.146  0.6869 -0.2745 -0.1971
20023SOL     OW62075   5.592   4.518   3.628 -0.1741  0.1098 -0.2727
20023SOL    HW162076   5.567   4.519   3.721  1.7804 -1.0671  0.3353
20023SOL    HW262077   5.636   4.601   3.614 -0.8112  0.4531 -0.2503
20024SOL     OW62078   6.639   3.500   3.190  0.4528  0.1867 -0.2649
20024SOL    HW162079   6.730   3.519   3.213  0.3281 -1.0224  1.3907
20024SOL    HW262080   6.642   3.480   3.097  2.0393 -0.7278 -0.0571
20025SOL     OW62081   6.399   9.442   5.582 -0.0754  0.0207  0.1084
20025SOL    HW162082   6.321   9.418   5.631 -1.1978  2.3608 -0.3700
20025SOL    HW262083   6.447   9.360   5.570 -0.3815 -0.8980  3.9149
20026SOL     OW62084   2.859   8.650   0.307  0.2791 -0.2438  0.4592
20026SOL    HW162085   2.813   8.673   0.388  0.9751  0.4051  0.6810
20026SOL    HW262086   2.872   8.734   0.263  0.1100 -0.5705 -0.2239
20027SOL     OW62087  11.045   4.319   5.101 -0.1014  0.0131  0.0321
20027SOL    HW162088  10.971   4.287   5.153 -0.5475  1.0541  0.0856
20027SOL    HW262089  11.047   4.262   5.024  0.0367 -1.0106  0.7845
20028SOL     OW62090   1.746   5.538   9.839 -0.9063  0.3623 -0.6361
20028SOL    HW162091   1.789   5.524   9.923 -0.1317  1.4644 -0.8199
20028SOL    HW262092   1.758   5.456   9.791 -0.1600  0.2007 -0.1829
20029SOL     OW62093   7.347   9.858   6.888  0.1650 -0.2139  0.4929
20029SOL    HW162094   7.433   9.899   6.893 -0.3104  0.8661  0.0691
20029SOL    HW262095   7.343   9.799   6.964  0.8777  0.4926  1.0845
20030SOL     OW62096   1.979   8.853   6.864 -0.4240 -0.4957  0.5016
20030SOL    HW162097   2.000   8.759   6.859 -1.2415 -0.6983  0.7566
20030SOL    HW262098   1.888   8.859   6.835 -0.7794  0.0572  1.6951
20031SOL     OW62099   0.876   5.409   1.165  0.8165  0.7490  0.3791
20031SOL    HW162100   0.860   5.387   1.074  1.8453  1.2883  0.0603
20031SOL    HW262101   0.858   5.503   1.171 -0.1258  0.5536  0.9482
20032SOL     OW62102   5.551  10.035   3.408  0.0331 -0.3779  0.1617
20032SOL    HW162103   5.579  10.003   3.323 -3.3238 -1.5039 -0.6435
20032SOL    HW262104   5.597  10.119   3.418  0.4864 -0.1865 -2.7613
20033SOL     OW62105   9.832   0.730   2.823  0.2165  0.4287  0.5061
20033SOL    HW162106   9.879   0.662   2.871 -0.1544 -0.1144  0.1140
20033SOL    HW262107   9.740   0.714   2.842 -0.0143 -0.3415 -1.0370
20034SOL     OW62108   0.205   5.163   8.433  0.3434  0.1002  0.6757
20034SOL    HW162109   0.112   5.179   8.449 -0.0123 -2.8025  2.2497
20034SOL    HW262110   0.217   5.069   8.450  3.2333 -0.0147 -1.2319
20035SOL     OW62111   2.028   9.919   0.111 -0.5110 -0.2589  0.5203
20035SOL    HW162112   2.073   9.901   0.194 -0.1900 -0.6191  0.2737
20035SOL    HW262113   2.022   9.834   0.068  2.3101  0.3136 -1.3089
20036SOL     OW62114   8.350   1.301   1.641  0.7853 -0.3031  0.1452
20036SOL    HW162115   8.280   1.367   1.638  0.4136 -0.7194 -2.0678
20036SOL    HW262116   8.328   1.239   1.572  2.8292 -1.0054  0.0445
20037SOL     OW62117   4.828   0.774   7.214 -0.4465 -1.0645 -0.0234
20037SOL    HW162118   4.849   0.867   7.217  0.6806 -1.2185 -1.9275
20037SOL    HW262119   4.755   0.764   7.275 -0.5701  1.0541  0.2292
20038SOL     OW62120  10.832   9.570   7.828 -0.2123 -0.0503 -0.4010
20038SOL    HW162121  10.776   9.568   7.751  0.8000  0.9160 -1.1800
20038SOL    HW262122  10.802   9.646   7.878 -1.1575 -0.9213  0.4261
20039SOL     OW62123   6.406   2.007   8.676 -0.6215 -0.0969  0.3223
20039SOL    HW162124   6.482   2.039   8.627  2.2088 -2.4309  2.7556
20039SOL    HW262125   6.368   1.940   8.620  0.8127 -0.7825  0.1229
20040SOL     OW62126   7.465   6.756   1.947  0.0885 -0.1190  0.1127
20040SOL    HW162127   7.496   6.777   2.035 -0.2591  1.4826 -0.1206
20040SOL    HW262128   7.470   6.661   1.942  2.7418 -0.1084  0.8966
20041SOL     OW62129   1.114   6.679  10.238  0.8492 -0.3043 -0.4713
20041SOL    HW162130   1.162   6.753  10.276 -0.6802  0.3532  0.2789
20041SOL    HW262131   1.124   6.609  10.302  0.4302 -0.0132 -0.0768
20042SOL     OW62132  10.050   9.868   5.501  0.5234  0.5897 -0.1015
20042SOL    HW162133   9.970   9.856   5.449 -2.6351  2.4821  3.7598
20042SOL    HW262134  10.073   9.960   5.487 -0.1091  0.9962  1.3289
20043SOL     OW62135   6.905   2.733   5.242 -0.4930 -0.5899 -0.0182
20043SOL    HW162136   6.979   2.780   5.280 -0.4499 -0.7113  0.0467
20043SOL    HW262137   6.908   2.646   5.282  0.1733 -1.0701 -1.0661
20044SOL     OW62138   4.038   7.087   7.262 -0.6300 -0.2255  0.2677
20044SOL    HW162139   3.947   7.079   7.288  0.2806 -1.6149  3.6595
20044SOL    HW262140   4.069   7.166   7.308  0.0037 -0.0342 -0.4657
20045SOL     OW62141   2.658   8.163   9.509  0.7209  0.1570 -0.0910
20045SOL    HW162142   2.606   8.194   9.583  0.4582 -1.6979  0.5619
20045SOL    HW262143   2.631   8.219   9.435  0.2443  1.3712  0.9660
20046SOL     OW62144   8.080   7.137   8.826 -0.4605  0.2458 -0.1463
20046SOL    HW162145   8.041   7.198   8.889 -0.5437  0.5064 -0.4452
20046SOL    HW262146   8.102   7.191   8.751 -1.4850 -0.2585 -0.8366
20047SOL     OW62147   4.596   5.641   0.015  0.4422  0.3645  0.1537
20047SOL    HW162148   4.660   5.583   0.056  2.0876  1.1111 -1.2454
20047SOL    HW262149   4.553   5.587  -0.051  0.6204  0.2199  0.1561
20048SOL     OW62150   8.396   9.333   6.484  0.0545  0.2570 -0.0656
20048SOL    HW162151   8.415   9.307   6.574  1.5983  2.2739  0.2498
20048SOL    HW262152   8.480   9.324   6.438  0.5852  3.8206 -0.0666
20049SOL     OW62153   7.512   8.834   2.463  0.0570  0.2231  0.6165
20049SOL    HW162154   7.541   8.811   2.551 -1.0774  0.9419  1.2125
20049SOL    HW262155   7.469   8.919   2.473 -1.7195 -0.5034 -0.2614
20050SOL     OW62156   4.129   7.208   5.841 -0.6289 -0.6209  0.2978
20050SOL    HW162157   4.116   7.165   5.756  0.5351 -1.0091  0.2943
20050SOL    HW262158   4.126   7.136   5.905  0.8633 -0.6920  0.3338
20051SOL     OW62159   8.155  10.881   9.432 -0.0578 -0.8686  0.7364
20051SOL    HW162160   8.250  10.886   9.445 -0.1073 -0.7719  1.0623
20051SOL    HW262161   8.128  10.971   9.419 -0.1540 -0.8612  0.9895
20052SOL     OW62162   2.665   3.267   0.793  0.4220 -0.0563 -0.6105
20052SOL    HW162163   2.631   3.220   0.717  2.5703 -1.8094 -0.5998
20052SOL    HW262164   2.660   3.203   0.864  1.4020  0.4539 -0.0557
20053SOL     OW62165   3.579   0.986   6.566 -0.3164  0.5343  0.2197
20053SOL    HW162166   3.497   0.999   6.519  1.0094  1.1120 -2.0346
20053SOL    HW262167   3.622   1.071   6.566  0.3520  0.2292  1.3212
20054SOL     OW62168   6.512   9.614   6.451  0.5787  0.0134 -0.0956
20054SOL    HW162169   6.597   9.651   6.429 -0.1605  1.6766 -0.3642
20054SOL    HW262170   6.468   9.603   6.367 -0.3271  1.4467  0.1535
20055SOL     OW62171  10.954   5.214   8.143  0.1798  0.3566  0.0810
20055SOL    HW162172  10.861   5.192   8.148 -0.1890  1.3794 -1.5605
20055SOL    HW262173  10.965   5.289   8.202 -0.3566  1.1448 -0.7992
20056SOL     OW62174   7.120  10.492   5.936  0.6517 -0.4893  0.5486
20056SOL    HW162175   7.194  10.544   5.967 -1.6790  2.8357  1.0075
20056SOL    HW262176   7.132  10.487   5.841  1.6779 -0.3726  0.6683
20057SOL     OW62177   9.882   5.223   3.396 -0.3429 -0.0273  0.0186
20057SOL    HW162178   9.819   5.255   3.461 -1.7849 -0.9834 -0.8538
20057SOL    HW262179   9.945   5.294   3.386 -1.0980  0.8328  1.1485
20058SOL     OW62180   7.327   0.438   0.523  0.0319 -0.0480 -0.2680
20058SOL    HW162181   7.269   0.458   0.597  0.9426  0.3943  0.3387
20058SOL    HW262182   7.320   0.343   0.513 -0.8288 -0.0006 -0.2394
20059SOL     OW62183   8.495   4.704   7.978 -0.5431 -0.3506  0.6312
20059SOL    HW162184   8.484   4.645   8.052  0.6127 -0.3419  0.8276
20059SOL    HW262185   8.550   4.775   8.011 -1.0645  0.3144  0.1111
20060SOL     OW62186   1.017   8.023   0.816 -0.0795 -0.1300 -0.2765
20060SOL    HW162187   1.069   7.982   0.747 -0.2776  0.3020 -0.6908
20060SOL    HW262188   0.945   7.962   0.832 -0.2398 -0.0618 -0.7170
20061SOL     OW62189   8.261   1.450  10.013 -0.6003  0.0333  0.3021
20061SOL    HW162190   8.229   1.534  10.044 -1.1071  0.0587 -0.2591
20061SOL    HW262191   8.322   1.420  10.081  1.0720  1.7213 -0.3458
20062SOL     OW62192   8.129   3.783   9.526  0.3954 -0.3711  0.3291
20062SOL    HW162193   8.060   3.719   9.542  0.2119  0.0579  1.2903
20062SOL    HW262194   8.104   3.826   9.444 -0.5240 -0.1674  0.7118
20063SOL     OW62195   5.881   8.435   6.052 -0.1269 -0.2163 -0.7408
20063SOL    HW162196   5.876   8.380   5.974 -1.2873 -2.6477  0.8985
20063SOL    HW262197   5.804   8.492   6.047 -0.5323 -0.7856 -1.0944
20064SOL     OW62198   2.071  10.767   4.511 -0.2371 -0.4172  0.8880
20064SOL    HW162199   2.074  10.684   4.464 -0.3301 -0.9518  1.7876
20064SOL    HW262200   1.996  10.758   4.570 -0.0538  0.1835  1.2232
20065SOL     OW62201   7.895  10.001   9.566  0.1225  0.6561 -0.5789
20065SOL    HW162202   7.969  10.016   9.625 -0.4815  0.7420  0.1697
20065SOL    HW262203   7.894  10.078   9.508  0.7210  0.5675 -0.7101
20066SOL     OW62204   6.194   2.792   4.868  0.2253 -0.9007 -0.3988
20066SOL    HW162205   6.262   2.725   4.863 -0.0012 -1.2536  0.8866
20066SOL    HW262206   6.160   2.799   4.779  1.6205 -1.0466 -0.9594
20067SOL     OW62207   3.018   1.683   1.398 -0.1157  0.7414  0.5660
20067SOL    HW162208   3.094   1.723   1.441 -1.1477  0.5125  2.7295
20067SOL    HW262209   3.012   1.727   1.314  2.6221  0.4969  0.1620
20068SOL     OW62210   1.609   8.104   4.955 -0.3060  0.1966 -0.6492
20068SOL    HW162211   1.678   8.162   4.988 -0.9737 -0.1565  1.4957
20068SOL    HW262212   1.563   8.156   4.890  0.5761  1.2307 -0.4768
20069SOL     OW62213   8.374   7.290   8.735  0.1310 -0.1450 -0.0268
20069SOL    HW162214   8.401   7.381   8.726  1.0959 -0.4740 -0.6118
20069SOL    HW262215   8.281   7.289   8.711  0.2156  0.6187 -0.4008
20070SOL     OW62216   1.220   4.855  10.719 -0.0164 -0.1159 -0.7195
20070SOL    HW162217   1.156   4.802  10.670 -0.2875  0.0470 -0.5413
20070SOL    HW262218   1.302   4.805  10.711 -1.0653 -2.8105  2.8774
20071SOL     OW62219   0.155   5.073   7.024 -0.3177 -0.6255 -0.2957
20071SOL    HW162220   0.063   5.098   7.025 -0.3059 -0.4648 -1.4106
20071SOL    HW262221   0.168   5.024   7.105 -1.2627 -0.2353  0.1060
20072SOL     OW62222   1.820   5.137   1.682  0.6296  0.3438 -0.3358
20072SOL    HW162223   1.901   5.145   1.732  0.8216 -2.5234 -0.0585
20072SOL    HW262224   1.848   5.111   1.594  0.0386 -0.5861 -0.2607
20073SOL     OW62225   5.539   7.582   1.100 -0.1268 -0.4630 -0.4192
20073SOL    HW162226   5.504   7.511   1.046  0.1034 -0.4244 -0.6194
20073SOL    HW262227   5.466   7.607   1.156 -0.3685 -0.5020 -0.7132
20074SOL     OW62228   1.500   9.579   3.321 -0.5241 -0.0579 -0.1576
20074SOL    HW162229   1.515   9.485   3.327 -0.1848 -0.0722 -1.0445
20074SOL    HW262230   1.447   9.590   3.243  1.9667  0.7084 -1.8735
20075SOL     OW62231   5.164   3.221   3.036 -0.2915  0.0125  0.0474
20075SOL    HW162232   5.258   3.240   3.027 -0.3526  0.0953 -0.4158
20075SOL    HW262233   5.159   3.126   3.023 -0.4359  0.1950 -1.2678
20076SOL     OW62234   7.284   8.653   4.164  0.0662  0.1429 -0.6666
20076SOL    HW162235   7.212   8.590   4.172 -0.5824  0.6244 -2.4381
20076SOL    HW262236   7.362   8.604   4.191 -0.6918 -0.8560 -0.2397
20077SOL     OW62237   6.233  10.280   1.779  0.0969 -0.2332  0.1642
20077SOL    HW162238   6.141  10.267   1.753 -0.5012  0.4500  1.7677
20077SOL    HW262239   6.262  10.354   1.726 -0.2587 -0.4740 -0.3817
20078SOL     OW62240   7.765   5.773   8.815  0.3621  0.4516 -0.1459
20078SOL    HW162241   7.836   5.824   8.777 -0.6289 -0.4354 -3.4495
20078SOL    HW262242   7.686   5.825   8.798 -0.1236  0.1245  0.9757
20079SOL     OW62243   1.359   1.498  10.906 -0.8198  0.1247 -0.1497
20079SOL    HW162244   1.326   1.475  10.819  0.5224  0.9380 -0.9091
20079SOL    HW262245   1.454   1.492  10.898 -0.6859 -1.0246  1.6453
20080SOL     OW62246   8.150  10.002  10.780 -0.2606 -0.0453  0.5045
20080SOL    HW162247   8.224   9.942  10.772 -1.1220 -1.0054 -0.6895
20080SOL    HW262248   8.099   9.988  10.700 -0.5087  2.2819  0.1880
20081SOL     OW62249   4.541   6.718   3.355 -0.2051  0.3133 -0.0566
20081SOL    HW162250   4.573   6.768   3.280  1.4522 -1.8885 -0.9390
20081SOL    HW262251   4.584   6.758   3.431 -0.2058  1.2351 -0.5333
20082SOL     OW62252   5.179   0.885   9.120 -0.0742  0.1398  0.1519
20082SOL    HW162253   5.149   0.812   9.175  3.1746  0.0829  2.0939
20082SOL    HW262254   5.130   0.961   9.152 -0.7013 -0.4936  0.7460
20083SOL     OW62255   1.934  10.655   7.413 -0.5403  0.6223 -0.3367
20083SOL    HW162256   1.974  10.576   7.451 -0.0929  0.4999 -1.0518
20083SOL    HW262257   1.992  10.678   7.341 -1.8229  0.3943 -1.4616
20084SOL     OW62258   2.833   4.813   3.875 -0.0525 -0.3057  0.0332
20084SOL    HW162259   2.793   4.802   3.962 -1.5749 -1.8005 -0.7985
20084SOL    HW262260   2.924   4.834   3.893  0.0391 -2.0502  2.0059
20085SOL     OW62261   1.185   1.355   1.521  0.3451  0.4881  0.5171
20085SOL    HW162262   1.138   1.312   1.592  1.2326  0.4586  1.1031
20085SOL    HW262263   1.117   1.377   1.457 -0.4239  0.2436  1.2318
20086SOL     OW62264   5.011   5.938   6.413  0.6411 -0.4424  0.2351
20086SOL    HW162265   5.056   5.930   6.497  0.7680 -0.8234  0.1374
20086SOL    HW262266   5.072   5.899   6.350  0.6000 -0.0470 -0.0521
20087SOL     OW62267   2.713   6.572   5.380 -0.3412 -0.4399  0.2548
20087SOL    HW162268   2.668   6.526   5.451 -0.6758  0.4847  0.6573
20087SOL    HW262269   2.684   6.663   5.388  1.3451  0.1282  0.3159
20088SOL     OW62270   8.575   9.003   5.390  0.1236 -0.4065 -0.3073
20088SOL    HW162271   8.532   8.941   5.331  1.4847 -2.2947  0.5730
20088SOL    HW262272   8.606   9.073   5.333 -1.6634 -0.3480 -1.2998
20089SOL     OW62273   2.978   9.224  10.171 -0.3359 -0.3512 -0.0761
20089SOL    HW162274   3.014   9.136  10.158 -1.4238 -0.8900  0.3746
20089SOL    HW262275   2.904   9.229  10.111  0.0649  0.4864 -0.5174
20090SOL     OW62276   3.614   8.853   7.666  0.8478 -0.2251  0.7390
20090SOL    HW162277   3.678   8.891   7.726  1.0747 -0.2472  0.5127
20090SOL    HW262278   3.547   8.920   7.656 -0.2159 -0.9600  2.5639
20091SOL     OW62279   3.513   2.267   5.996 -0.8499  0.5207  0.7620
20091SOL    HW162280   3.465   2.320   6.060  1.8112  0.2924  3.1221
20091SOL    HW262281   3.522   2.181   6.039 -0.1595 -0.0746 -0.5355
20092SOL     OW62282   9.648   3.177   7.986  0.2451 -0.6085 -0.7515
20092SOL    HW162283   9.665   3.232   7.909  0.2562 -0.6797 -0.7996
20092SOL    HW262284   9.735   3.163   8.025  0.2724 -0.7951 -0.8780
20093SOL     OW62285  10.109   8.519   2.628  0.2335  0.2694  0.4547
20093SOL    HW162286  10.024   8.500   2.668  0.5544 -0.0683  0.9980
20093SOL    HW262287  10.119   8.614   2.637 -0.6597  0.5161 -0.8007
20094SOL     OW62288   2.014   0.301   5.836 -0.3340 -0.5184 -0.1985
20094SOL    HW162289   1.970   0.291   5.920 -1.8948 -1.1189 -1.0399
20094SOL    HW262290   2.059   0.218   5.822 -0.6216 -0.6674 -0.2487
20095SOL     OW62291   7.786   8.602  10.570 -0.1751 -0.1864  0.3884
20095SOL    HW162292   7.732   8.531  10.603  0.1136 -0.1284  1.0121
20095SOL    HW262293   7.810   8.575  10.481 -0.6826 -0.5131  0.3491
20096SOL     OW62294   7.205  10.513  10.433  0.8480 -0.6756  0.1693
20096SOL    HW162295   7.189  10.450  10.503  2.7221 -1.7132 -0.2760
20096SOL    HW262296   7.151  10.482  10.360 -0.8858  0.2470  0.9922
20097SOL     OW62297   3.917   2.917   3.166 -0.1508  0.9943 -0.3649
20097SOL    HW162298   3.978   2.925   3.093 -1.2134 -0.9051 -1.5516
20097SOL    HW262299   3.909   2.822   3.180 -0.7150  1.2878  1.5798
20098SOL     OW62300   7.435   8.326   4.238 -0.2784 -0.1593 -0.0535
20098SOL    HW162301   7.481   8.262   4.292  2.0421 -0.4128 -2.1212
20098SOL    HW262302   7.497   8.398   4.228 -1.3441  0.6764 -0.8856
20099SOL     OW62303   2.813   5.777   9.822  0.4598 -0.2697 -0.1017
20099SOL    HW162304   2.848   5.688   9.822 -0.1787 -0.5809  2.3160
20099SOL    HW262305   2.852   5.818   9.899  0.1119  1.3156 -0.7288
20100SOL     OW62306   4.901   6.294   4.687 -0.3352 -0.0323  0.1873
20100SOL    HW162307   4.936   6.362   4.629  2.1048 -1.1121  0.2512
20100SOL    HW262308   4.963   6.290   4.759 -1.0945 -1.4792  0.8106
20101SOL     OW62309   4.440   4.453   9.052 -0.0361 -0.2462  0.7202
20101SOL    HW162310   4.477   4.448   8.964  2.6771  3.8277  1.3632
20101SOL    HW262311   4.345   4.449   9.038  0.3120 -1.3920 -2.1050
20102SOL     OW62312   9.095   1.448   8.044 -0.1892 -0.1046  0.0037
20102SOL    HW162313   9.093   1.479   7.953 -0.4063  0.3864  0.1752
20102SOL    HW262314   9.160   1.377   8.043  0.0288  0.0962 -0.4704
20103SOL     OW62315   9.980  11.045   2.915 -0.5256  0.1673  0.0780
20103SOL    HW162316   9.892  11.078   2.933 -0.7829 -0.2829 -0.3115
20103SOL    HW262317   9.984  10.962   2.963 -0.4859 -0.0411 -0.2779
20104SOL     OW62318   0.583   8.190   8.006 -0.4354 -0.5119 -0.4129
20104SOL    HW162319   0.675   8.165   8.011  0.1010  0.7767 -2.3900
20104SOL    HW262320   0.538   8.128   8.063  1.7583 -0.5027  1.4799
20105SOL     OW62321   8.434  10.123   0.789  0.5654 -0.9437  0.1509
20105SOL    HW162322   8.411  10.044   0.740  1.0198  0.0060 -1.7162
20105SOL    HW262323   8.503  10.164   0.736 -1.1344  1.7997 -0.1473
20106SOL     OW62324  10.158   7.733   6.227 -0.2190 -0.1079  0.3240
20106SOL    HW162325  10.147   7.825   6.201 -0.5197 -0.9610 -2.9582
20106SOL    HW262326  10.101   7.723   6.303 -1.2942  2.0887 -0.1044
20107SOL     OW62327   5.434   3.862   5.299  0.3366 -0.3074  0.9792
20107SOL    HW162328   5.463   3.913   5.375  1.4275 -0.9784  1.0389
20107SOL    HW262329   5.420   3.928   5.230  0.5725  0.1855  1.3953
20108SOL     OW62330   1.086   6.975   3.918 -0.4034 -0.3779  0.3382
20108SOL    HW162331   1.028   6.994   3.991 -0.3527  4.4338 -0.5956
20108SOL    HW262332   1.172   7.005   3.947  0.2865 -1.3441 -0.6106
20109SOL     OW62333  10.335   3.712   0.783 -0.2850  0.2611 -0.0477
20109SOL    HW162334  10.292   3.742   0.704 -1.0603  3.6355  1.4894
20109SOL    HW262335  10.276   3.646   0.819 -0.9840  0.2574 -1.1597
20110SOL     OW62336  10.745   5.617   7.980  0.3381 -0.7355 -0.1261
20110SOL    HW162337  10.653   5.599   7.959  0.4748 -0.6150 -0.8565
20110SOL    HW262338  10.794   5.576   7.909  0.6573  2.6045 -2.0342
20111SOL     OW62339   3.875   7.716   2.139  0.4122 -0.3911 -0.6262
20111SOL    HW162340   3.859   7.730   2.045  0.5985 -0.1806 -0.6282
20111SOL    HW262341   3.938   7.644   2.142  2.5313  1.3715 -0.7827
20112SOL     OW62342   5.373   9.349   0.911 -0.7176 -0.9019 -0.2494
20112SOL    HW162343   5.384   9.350   0.816  1.1578 -0.9299 -0.0620
20112SOL    HW262344   5.325   9.429   0.930  1.5825  0.7393 -0.9668
20113SOL     OW62345   8.597   5.359   0.227 -0.0910  0.6137 -0.4032
20113SOL    HW162346   8.542   5.284   0.203 -1.5177  0.7046  2.2402
20113SOL    HW262347   8.681   5.342   0.185  0.1042 -3.2377  1.1595
20114SOL     OW62348   3.848   0.910   9.083  0.2277 -0.4733 -0.2976
20114SOL    HW162349   3.876   0.997   9.055  5.8618 -0.8622  2.8354
20114SOL    HW262350   3.826   0.920   9.175 -1.3531 -2.0812 -0.4416
20115SOL     OW62351   5.836   4.090   3.262  0.5237 -0.1628 -0.2579
20115SOL    HW162352   5.870   4.039   3.188  1.2711  0.0248 -0.0560
20115SOL    HW262353   5.762   4.139   3.226 -0.2066 -1.3809 -0.4541
20116SOL     OW62354   2.570   8.707   1.351  0.0852  0.4953 -0.9343
20116SOL    HW162355   2.602   8.658   1.427 -3.0436  0.6725  0.6452
20116SOL    HW262356   2.595   8.798   1.369 -1.7808  0.7514  0.6432
20117SOL     OW62357   3.388   1.897   9.804  0.2440 -0.2482  0.3633
20117SOL    HW162358   3.468   1.927   9.847 -0.2979 -0.0613  1.2691
20117SOL    HW262359   3.317   1.935   9.855 -0.4373  0.2210 -0.8767
20118SOL     OW62360   7.799   8.888   5.593 -0.0533 -0.0771  0.8305
20118SOL    HW162361   7.850   8.965   5.569 -1.0979  0.9406  1.7748
20118SOL    HW262362   7.714   8.922   5.619 -0.8503 -1.6347  0.4147
20119SOL     OW62363   1.396   3.482   8.447 -0.4285 -0.3120 -0.2808
20119SOL    HW162364   1.367   3.562   8.402 -1.2265 -1.1574 -1.3478
20119SOL    HW262365   1.455   3.440   8.385  2.1021  0.6622  1.3011
20120SOL     OW62366  10.249   8.175   6.255  0.4672 -0.0472 -0.1434
20120SOL    HW162367  10.177   8.225   6.295  1.8067  1.0034  1.0830
20120SOL    HW262368  10.210   8.092   6.230 -1.5987  1.1848 -1.2419
20121SOL     OW62369   7.827   7.355  10.497  0.1670 -0.4512 -0.2869
20121SOL    HW162370   7.732   7.344  10.498  0.0504  0.5352  0.6834
20121SOL    HW262371   7.846   7.382  10.407 -0.9087  2.6895  0.3096
20122SOL     OW62372   0.615   3.454   8.909  0.4350  0.6267  0.5168
20122SOL    HW162373   0.585   3.457   8.818 -1.7929 -1.9754  1.0285
20122SOL    HW262374   0.557   3.515   8.955 -1.1451 -0.9923  0.7608
20123SOL     OW62375   7.168   3.167   5.363  0.1509 -0.1269  0.2202
20123SOL    HW162376   7.169   3.223   5.285 -3.9482 -1.0025 -0.7098
20123SOL    HW262377   7.131   3.222   5.432 -2.6834 -1.1489 -0.3674
20124SOL     OW62378   7.787   4.625   8.562  1.2030  0.0881 -0.0833
20124SOL    HW162379   7.813   4.589   8.647  0.4628 -0.7153 -0.1824
20124SOL    HW262380   7.713   4.571   8.535  2.0673 -0.3440 -1.7256
20125SOL     OW62381   8.595   8.483   1.246  0.1904 -0.5378  0.6057
20125SOL    HW162382   8.528   8.547   1.221  0.2651 -0.8154 -0.3491
20125SOL    HW262383   8.570   8.403   1.200  1.4150 -0.5185 -0.1247
20126SOL     OW62384   3.036   3.695   6.696 -0.4984 -0.2836  0.5842
20126SOL    HW162385   3.064   3.685   6.605  1.2873  1.4890  0.8830
20126SOL    HW262386   2.942   3.714   6.690 -0.3337  0.1939 -0.9150
20127SOL     OW62387   9.781   3.797   3.135 -0.3496  0.3858  0.3022
20127SOL    HW162388   9.740   3.797   3.222 -1.2130 -0.7725 -0.0886
20127SOL    HW262389   9.870   3.830   3.151 -0.4475  0.0510  1.6437
20128SOL     OW62390   0.180   2.610   4.940  0.4955 -0.1385 -0.0869
20128SOL    HW162391   0.228   2.533   4.912  1.0703  0.7066 -1.5303
20128SOL    HW262392   0.161   2.657   4.859  0.9418  1.6877  0.8188
20129SOL     OW62393   0.148   0.112  10.622  0.0006  0.2820 -0.8979
20129SOL    HW162394   0.190   0.172  10.683 -0.9760 -0.4545  0.5546
20129SOL    HW262395   0.172   0.025  10.654 -1.3478 -0.1304 -0.9674
20130SOL     OW62396   8.372   5.984  10.527  0.1382  0.1899  0.3258
20130SOL    HW162397   8.292   5.966  10.577 -1.4501  0.9373 -1.7935
20130SOL    HW262398   8.390   6.077  10.543 -0.0866  0.3052 -0.0689
20131SOL     OW62399   2.979   5.032   0.273 -0.2373 -0.1885  0.4023
20131SOL    HW162400   2.931   4.950   0.262 -1.3112  0.4587  0.0736
20131SOL    HW262401   3.014   5.051   0.186 -0.0920 -0.2356  0.4505
20132SOL     OW62402   2.686   0.141   1.882  0.1683  0.4391  0.2341
20132SOL    HW162403   2.732   0.196   1.945 -0.3248  1.0416  0.0705
20132SOL    HW262404   2.744   0.135   1.807  0.0816  1.0044  0.1233
20133SOL     OW62405   8.600   7.480   8.735 -0.4517  0.5187 -0.0153
20133SOL    HW162406   8.542   7.550   8.766 -1.7453 -0.1050 -0.9408
20133SOL    HW262407   8.634   7.513   8.652 -0.1098  0.5477  0.1362
20134SOL     OW62408   5.236   8.738   8.726 -0.7452  0.5283  0.0167
20134SOL    HW162409   5.322   8.700   8.706 -0.7214  1.4294 -1.8680
20134SOL    HW262410   5.184   8.721   8.647 -1.6515  1.7747  0.3112
20135SOL     OW62411   7.734   9.137   6.221 -0.0476 -0.2161 -0.1213
20135SOL    HW162412   7.758   9.128   6.129  0.6003  1.1652 -0.1128
20135SOL    HW262413   7.816   9.124   6.269 -0.5387 -1.7811  0.3319
20136SOL     OW62414   3.494   5.449  10.268 -0.5210 -0.8353  0.6376
20136SOL    HW162415   3.550   5.466  10.344 -0.6985  0.6033  0.4740
20136SOL    HW262416   3.530   5.370  10.229  2.6417  0.9634 -0.5059
20137SOL     OW62417   0.850   1.802   2.551 -0.1094  0.6381  0.2509
20137SOL    HW162418   0.873   1.785   2.643  0.1455 -1.2706 -0.1265
20137SOL    HW262419   0.813   1.720   2.521  0.4122  1.0352 -1.5604
20138SOL     OW62420   9.575   6.800   2.948 -0.2636  0.1375 -0.0498
20138SOL    HW162421   9.669   6.781   2.945 -0.2577  0.1583  0.0001
20138SOL    HW262422   9.534   6.715   2.962 -0.2344  0.1649  0.2189
20139SOL     OW62423   5.993   9.296   5.136 -0.7041  0.4780  0.3731
20139SOL    HW162424   6.005   9.317   5.044  3.8283  0.1275  0.6506
20139SOL    HW262425   6.022   9.375   5.182  0.0499 -0.3990  1.4551
20140SOL     OW62426   7.038   6.917   9.633  0.3572  0.3812  0.6375
20140SOL    HW162427   6.989   6.974   9.574 -0.2357 -0.7756 -0.0312
20140SOL    HW262428   7.122   6.904   9.590  0.0510 -0.1879  0.1940
20141SOL     OW62429   4.052   1.374   9.169 -0.0324  0.6268 -0.0809
20141SOL    HW162430   3.982   1.333   9.118  1.6412  1.5015 -3.3834
20141SOL    HW262431   4.039   1.468   9.156  1.4806  0.8115 -0.4227
20142SOL     OW62432   3.364   8.132   8.301 -0.4198  0.0964  0.2555
20142SOL    HW162433   3.308   8.148   8.225  1.4199  2.3686 -0.7677
20142SOL    HW262434   3.420   8.059   8.274  0.6877  1.3255 -0.9550
20143SOL     OW62435   7.131   2.739   7.342 -0.5357 -0.2087  0.1765
20143SOL    HW162436   7.133   2.831   7.370 -1.2074  0.2407 -1.1587
20143SOL    HW262437   7.138   2.743   7.246 -2.0182 -1.4695 -0.0218
20144SOL     OW62438   5.543   5.004  11.059  0.2741 -0.3150  0.8031
20144SOL    HW162439   5.498   4.920  11.047 -1.2544  0.2131  2.3244
20144SOL    HW262440   5.598   4.991  11.136  2.6842 -0.8922 -0.9320
20145SOL     OW62441   2.441   0.166   8.790 -0.1865  0.3827 -0.1844
20145SOL    HW162442   2.404   0.173   8.878 -2.0591  1.0499 -0.9742
20145SOL    HW262443   2.378   0.211   8.734  0.6800 -0.5050 -1.9542
20146SOL     OW62444   7.469   8.650   6.162 -0.0836  0.5367  0.3055
20146SOL    HW162445   7.386   8.691   6.137  0.1773  1.7814  1.3380
20146SOL    HW262446   7.444   8.565   6.198 -0.6830 -0.1111 -1.5061
20147SOL     OW62447   0.595   6.490  10.110 -0.2717 -0.0181 -0.2894
20147SOL    HW162448   0.663   6.427  10.133 -0.8970 -1.3647 -1.8731
20147SOL    HW262449   0.625   6.573  10.146  2.0745 -0.6232 -0.7162
20148SOL     OW62450   4.993   1.581   8.311  0.4504 -0.5338 -0.0171
20148SOL    HW162451   4.903   1.600   8.338  0.5364  0.0565 -0.1187
20148SOL    HW262452   5.038   1.665   8.321  1.3524 -1.1525  1.4588
20149SOL     OW62453   8.710   3.008   6.802  0.1888  0.4040  0.2156
20149SOL    HW162454   8.616   3.026   6.795  0.1767 -0.1377 -1.0850
20149SOL    HW262455   8.716   2.913   6.813  0.6264  0.3399 -0.5598
20150SOL     OW62456   8.566  10.248   4.382 -0.1838 -0.3614  0.2581
20150SOL    HW162457   8.646  10.215   4.341 -0.8907 -1.4407 -0.3027
20150SOL    HW262458   8.552  10.191   4.458  0.2930  0.6676  1.1275
20151SOL     OW62459  10.073   1.405   9.339 -0.1104 -0.1085  0.2826
20151SOL    HW162460  10.066   1.490   9.296  1.5460 -0.5203 -0.9209
20151SOL    HW262461   9.984   1.385   9.367 -0.7543  1.4628 -0.5098
20152SOL     OW62462   4.677   6.336   1.852 -0.1009  0.3507  0.3856
20152SOL    HW162463   4.729   6.307   1.777  1.9569 -1.9307  2.4863
20152SOL    HW262464   4.694   6.430   1.859  2.2766  0.0238 -0.1646
20153SOL     OW62465   7.747   2.361   8.380  0.1180  0.4298  0.4968
20153SOL    HW162466   7.832   2.369   8.425  0.8473 -1.5549 -0.3922
20153SOL    HW262467   7.727   2.267   8.383  0.2529  0.1130 -3.2813
20154SOL     OW62468   4.651   6.070   0.858  0.3623 -0.0286  0.0883
20154SOL    HW162469   4.662   5.977   0.876 -1.2247 -0.3180 -0.3382
20154SOL    HW262470   4.561   6.078   0.826 -0.0469  1.8561  1.5486
20155SOL     OW62471   5.487   9.433   9.394  0.1926  0.3293 -0.9953
20155SOL    HW162472   5.484   9.419   9.299 -1.6322 -0.4470 -0.8672
20155SOL    HW262473   5.537   9.358   9.427  1.1585  0.8001 -1.3542
20156SOL     OW62474   3.331   4.962   1.635  0.1003  0.0252  0.0297
20156SOL    HW162475   3.344   4.870   1.608  0.3838  0.1575 -0.3080
20156SOL    HW262476   3.247   4.962   1.680 -0.9188 -0.0371 -1.7520
20157SOL     OW62477   8.803   9.561   2.116  0.3875  0.5211  0.1625
20157SOL    HW162478   8.807   9.523   2.028 -0.0445 -1.2627  0.8712
20157SOL    HW262479   8.710   9.559   2.139  0.5273  0.7251  0.7543
20158SOL     OW62480   4.459  11.007   6.032  0.1647 -0.0092 -0.3625
20158SOL    HW162481   4.503  10.935   6.075  2.1837 -0.0785 -2.3377
20158SOL    HW262482   4.408  11.049   6.101  0.5932 -2.0401  1.2866
20159SOL     OW62483   2.753  10.106   8.217 -0.3511 -0.0926 -0.2486
20159SOL    HW162484   2.702  10.183   8.242 -1.1607 -0.6931 -0.0010
20159SOL    HW262485   2.690  10.048   8.176  0.2084 -0.7067 -0.2624
20160SOL     OW62486   0.339   1.277   5.240 -0.3826 -0.2338  0.4025
20160SOL    HW162487   0.327   1.331   5.163  1.9066 -1.0589 -0.6360
20160SOL    HW262488   0.251   1.243   5.260 -1.1800  0.7648 -1.2187
20161SOL     OW62489   2.049   8.319  10.773 -0.4524  0.3290  0.1192
20161SOL    HW162490   2.112   8.364  10.717  0.2970 -1.0157 -0.1637
20161SOL    HW262491   2.055   8.227  10.746  2.4194 -1.1011  4.5171
20162SOL     OW62492   4.435   7.687   4.514  0.1726  0.0612 -0.3469
20162SOL    HW162493   4.505   7.622   4.511  1.9296  1.8631 -0.5635
20162SOL    HW262494   4.404   7.693   4.423 -0.3423 -0.7946 -0.2370
20163SOL     OW62495   2.327   4.706   7.071 -0.3778 -0.5438  0.0493
20163SOL    HW162496   2.237   4.724   7.100 -0.7214  0.7556 -1.6049
20163SOL    HW262497   2.383   4.739   7.141 -1.1723 -0.4155  0.6343
20164SOL     OW62498   0.077   5.417   1.544 -0.1056  0.8045 -0.2925
20164SOL    HW162499   0.140   5.414   1.616 -0.2261  0.7692 -0.1891
20164SOL    HW262500   0.033   5.332   1.546  0.3891  0.5268 -0.8532
20165SOL     OW62501   7.498   5.515   6.284  0.1038  0.8491  0.6170
20165SOL    HW162502   7.411   5.528   6.247  0.2142  0.0899  0.0571
20165SOL    HW262503   7.487   5.445   6.348  0.1482  1.3146  1.1355
20166SOL     OW62504   4.744  10.234   3.998 -0.0600 -0.0575 -0.3011
20166SOL    HW162505   4.684  10.174   4.043  1.2669 -1.0330  0.2282
20166SOL    HW262506   4.688  10.280   3.935 -1.4505 -0.5895  0.4789
20167SOL     OW62507   5.968   7.306   9.113 -0.0759  1.0020  0.8725
20167SOL    HW162508   6.054   7.266   9.118  0.3096  1.7120  0.1553
20167SOL    HW262509   5.968   7.355   9.031 -0.5193  2.4459  1.6789
20168SOL     OW62510   9.124   8.626   8.224 -0.2350 -0.0344  0.1334
20168SOL    HW162511   9.089   8.628   8.135  1.6658  0.1252 -0.6573
20168SOL    HW262512   9.071   8.690   8.272 -1.7952 -0.6875 -0.6598
20169SOL     OW62513   1.980   2.859   8.767  0.1864  0.6624 -0.0072
20169SOL    HW162514   2.043   2.833   8.700 -0.0683  1.6142 -0.6402
20169SOL    HW262515   2.021   2.934   8.811  1.0540 -0.8869  2.0007
20170SOL     OW62516   7.934   4.554   1.336  0.0589  0.0523  0.1062
20170SOL    HW162517   7.847   4.574   1.302 -0.4072 -0.4558  0.9838
20170SOL    HW262518   7.984   4.635   1.325 -1.1173  1.0005  1.4534
20171SOL     OW62519   3.086   3.989   3.676 -0.6817  0.6083  0.3646
20171SOL    HW162520   3.041   4.071   3.693 -0.5553  0.6187  0.6520
20171SOL    HW262521   3.166   3.994   3.728 -1.7018 -0.6102  2.1433
20172SOL     OW62522   3.718  10.007   0.232  0.9325 -0.5778  0.1474
20172SOL    HW162523   3.807  10.024   0.202  0.8810 -1.3911 -0.5149
20172SOL    HW262524   3.682   9.946   0.168 -0.9274  1.5375 -0.9387
20173SOL     OW62525   9.815  10.513   2.091 -0.5039  1.0678 -0.0507
20173SOL    HW162526   9.723  10.489   2.081 -0.3096  0.5376 -0.6902
20173SOL    HW262527   9.848  10.456   2.160 -0.3625  0.3752 -0.6757
20174SOL     OW62528   4.492   1.626   8.925  0.4062 -0.4772 -0.3341
20174SOL    HW162529   4.528   1.656   8.842 -0.2219  0.7618 -0.1857
20174SOL    HW262530   4.397   1.633   8.913  0.2793 -1.3543  0.1094
20175SOL     OW62531   7.106  10.869   4.623 -0.8616 -0.4740 -0.2602
20175SOL    HW162532   7.164  10.865   4.699  2.9864  1.6217 -2.7646
20175SOL    HW262533   7.104  10.779   4.590 -1.3152 -1.0899  1.3262
20176SOL     OW62534   7.131   8.176   4.401  1.2631 -0.4044 -0.1614
20176SOL    HW162535   7.214   8.205   4.440  0.8587  2.2843 -1.0891
20176SOL    HW262536   7.075   8.158   4.476  2.4936 -1.8317  0.4764
20177SOL     OW62537  10.979   1.646   3.324 -0.5112  0.0675 -0.4880
20177SOL    HW162538  11.009   1.563   3.362  0.9805  0.4546 -0.7557
20177SOL    HW262539  11.020   1.713   3.378 -0.6396  0.6343 -1.0801
20178SOL     OW62540   4.326   1.376   7.869 -0.0332 -0.2714 -0.3398
20178SOL    HW162541   4.237   1.374   7.902 -0.3574 -0.1409 -1.1818
20178SOL    HW262542   4.337   1.293   7.822  1.1757 -1.5015  1.9393
20179SOL     OW62543   4.359   8.939   0.894 -0.2589 -0.4842  0.1483
20179SOL    HW162544   4.314   8.997   0.955 -0.1502  0.7539 -0.9171
20179SOL    HW262545   4.397   8.871   0.950 -2.6309 -1.0919  1.1927
20180SOL     OW62546   5.382   6.560   9.428 -0.3277 -0.1834  0.8387
20180SOL    HW162547   5.383   6.656   9.436  0.0407 -0.2087  1.1198
20180SOL    HW262548   5.365   6.544   9.336  1.8124  0.1798  0.3305
20181SOL     OW62549   0.340   7.370   3.462  0.0785 -0.5185  0.4745
20181SOL    HW162550   0.405   7.313   3.422  1.9909  0.9019  1.3964
20181SOL    HW262551   0.346   7.350   3.556  1.7631  2.0216  0.9984
20182SOL     OW62552   8.027   2.049   0.619 -0.0536 -0.7717  0.0219
20182SOL    HW162553   8.033   2.036   0.525 -0.7603 -2.5263  0.1898
20182SOL    HW262554   7.982   2.133   0.629 -0.8320 -1.0157 -1.2101
20183SOL     OW62555  10.436   4.559   1.613  0.0249  0.1692  0.0019
20183SOL    HW162556  10.522   4.554   1.653 -0.4919 -1.8021  0.9911
20183SOL    HW262557  10.443   4.504   1.535 -0.6357 -1.0362  0.7592
20184SOL     OW62558   7.624   7.625  10.582 -0.2692 -0.2694  0.0796
20184SOL    HW162559   7.658   7.594  10.498  0.0787 -0.9390  0.4641
20184SOL    HW262560   7.585   7.710  10.562  0.1681 -0.2441 -0.6794
20185SOL     OW62561   2.743   9.016   6.730 -0.0164 -0.0914  0.3087
20185SOL    HW162562   2.662   9.052   6.695 -0.0940  1.0362  1.6074
20185SOL    HW262563   2.716   8.940   6.780 -0.1312 -0.4001 -0.2092
20186SOL     OW62564   0.530  10.318   3.995 -0.5787 -0.0522  0.1937
20186SOL    HW162565   0.600  10.282   4.050  0.9892  0.9820 -1.0492
20186SOL    HW262566   0.550  10.287   3.907 -1.0973  1.0981 -0.3457
20187SOL     OW62567   5.977   5.448   7.378  0.4837  0.0405  0.5985
20187SOL    HW162568   5.976   5.359   7.412 -3.3759 -2.4984 -4.6540
20187SOL    HW262569   5.905   5.492   7.422 -0.1796 -0.8645  0.4425
20188SOL     OW62570   3.754   8.386   2.195 -0.1485  0.1393 -0.4336
20188SOL    HW162571   3.811   8.350   2.263  2.1212  2.3326 -1.0115
20188SOL    HW262572   3.798   8.363   2.113  0.0673  2.0754 -0.8935
20189SOL     OW62573   7.233  10.782   3.688  0.8922 -1.5126  0.4502
20189SOL    HW162574   7.219  10.814   3.777 -2.3993 -0.4153 -0.3259
20189SOL    HW262575   7.240  10.861   3.634 -0.5141 -2.1124 -0.6557
20190SOL     OW62576   0.016   0.889   3.978 -0.2511  0.4306 -0.4805
20190SOL    HW162577  -0.032   0.841   4.045 -0.4611  0.9421 -0.2562
20190SOL    HW262578  -0.052   0.932   3.926 -0.0868  0.1149 -0.9633
20191SOL     OW62579   1.860   4.351   6.075  0.2468  0.5002  0.2062
20191SOL    HW162580   1.920   4.291   6.032  0.5726 -0.8145  2.3370
20191SOL    HW262581   1.773   4.313   6.063 -0.0711  1.7066 -1.7382
20192SOL     OW62582   6.056   5.815   5.935  0.0291  0.4742  0.1660
20192SOL    HW162583   6.006   5.889   5.971  1.2946  0.3321  2.4206
20192SOL    HW262584   6.034   5.814   5.842 -2.0983  2.0178  0.5749
20193SOL     OW62585   4.787   8.009   8.266 -0.3508 -0.4306 -0.5290
20193SOL    HW162586   4.837   7.939   8.309  0.5669 -0.2281 -1.2250
20193SOL    HW262587   4.849   8.082   8.260 -0.8902  0.0004 -0.9738
20194SOL     OW62588   7.117  10.921   1.722 -0.1262 -0.6694  0.2223
20194SOL    HW162589   7.126  10.853   1.790  0.6601  0.5562  1.3923
20194SOL    HW262590   7.045  10.975   1.752 -1.3517 -1.4447 -1.1707
20195SOL     OW62591   6.469   8.373   2.089  0.0823 -0.0838 -0.4257
20195SOL    HW162592   6.531   8.394   2.019 -0.7210  0.7028 -0.9216
20195SOL    HW262593   6.433   8.288   2.065 -1.0031  0.6651 -1.5986
20196SOL     OW62594   1.179   3.395   2.151  0.3785 -0.2098 -0.0038
20196SOL    HW162595   1.200   3.331   2.084  1.8214  1.0293 -0.7824
20196SOL    HW262596   1.110   3.353   2.203 -2.7812 -0.2493 -3.7606
20197SOL     OW62597   6.715   3.591   8.245  0.6063 -0.1457 -0.2129
20197SOL    HW162598   6.717   3.506   8.290 -0.9495  0.0330  0.2750
20197SOL    HW262599   6.633   3.589   8.195  2.0744 -0.1567 -2.7904
20198SOL     OW62600   7.690   5.786   3.978 -0.0633  0.1691 -0.5144
20198SOL    HW162601   7.639   5.710   3.949  0.3045  0.0455 -0.8350
20198SOL    HW262602   7.778   5.772   3.943 -0.0209  0.8027 -0.6809
20199SOL     OW62603   6.350   9.288   5.299 -0.0592  0.1411  0.0656
20199SOL    HW162604   6.377   9.316   5.212  0.1508  0.1220  0.1239
20199SOL    HW262605   6.427   9.301   5.354 -0.7928  2.1777  0.7172
20200SOL     OW62606   1.238   8.509   0.416 -0.3426  0.0306  0.3940
20200SOL    HW162607   1.163   8.518   0.475 -0.1510  0.5505  0.5733
20200SOL    HW262608   1.208   8.451   0.347 -0.5281 -0.7160  1.0857
20201SOL     OW62609   0.259   0.523   4.722  0.1685  0.3638 -0.7611
20201SOL    HW162610   0.193   0.529   4.653  0.5597  1.1835 -1.0727
20201SOL    HW262611   0.342   0.539   4.677  0.5850 -0.6088 -0.3648
20202SOL     OW62612  10.618   9.163   5.475  0.3212 -0.0160 -0.2753
20202SOL    HW162613  10.525   9.147   5.489  0.2595  0.5285 -0.0567
20202SOL    HW262614  10.621   9.226   5.402  0.4618  0.9936  0.5812
20203SOL     OW62615   4.647   4.695  10.145  0.1938  0.1750 -0.5584
20203SOL    HW162616   4.708   4.686  10.218 -1.3562  1.5932  1.0150
20203SOL    HW262617   4.560   4.693  10.186 -0.8099 -0.6353 -2.5765
20204SOL     OW62618   3.855   2.051   1.009 -0.5534  0.5844 -0.1307
20204SOL    HW162619   3.939   2.041   1.054  0.3750 -3.5980 -2.3021
20204SOL    HW262620   3.790   2.021   1.073  0.5563 -3.5345 -0.6541
20205SOL     OW62621   9.343   5.818   1.569 -0.0915 -0.3734  0.4829
20205SOL    HW162622   9.264   5.830   1.621 -1.6260 -0.8914 -1.6038
20205SOL    HW262623   9.314   5.770   1.491  1.8496  1.1931 -1.3412
20206SOL     OW62624   1.134   9.248   5.822  0.8093  0.0413  0.1708
20206SOL    HW162625   1.153   9.333   5.783  3.1457 -0.6083 -0.2687
20206SOL    HW262626   1.060   9.214   5.772 -0.4031  1.9009  0.5775
20207SOL     OW62627   8.618   6.700   6.851 -0.3427  0.7149  0.7130
20207SOL    HW162628   8.572   6.768   6.802  1.5833  2.5649  1.2876
20207SOL    HW262629   8.603   6.723   6.943 -0.8747 -0.5351  0.9523
20208SOL     OW62630  11.017   1.232   4.629  0.3487 -0.2598  0.3147
20208SOL    HW162631  10.963   1.288   4.573  2.0756  0.7965 -0.3727
20208SOL    HW262632  10.968   1.149   4.634 -1.3022  0.6366 -0.2625
20209SOL     OW62633  11.052   1.595  10.155 -0.1627 -0.0030  0.3991
20209SOL    HW162634  10.967   1.562  10.124  0.3578 -0.9132 -0.0851
20209SOL    HW262635  11.056   1.567  10.247 -0.8505  0.9942  0.7502
20210SOL     OW62636   2.313   9.930   7.647 -0.9602  0.1122  0.2481
20210SOL    HW162637   2.336   9.839   7.660 -0.6449 -0.1268 -1.6846
20210SOL    HW262638   2.300   9.965   7.735 -1.1192 -1.7894  1.0139
20211SOL     OW62639   9.625   3.839   4.388 -0.8616  0.3079 -0.2342
20211SOL    HW162640   9.597   3.783   4.317 -2.5698  0.8351 -0.0189
20211SOL    HW262641   9.545   3.861   4.435  0.1630  0.3170  1.6115
20212SOL     OW62642   1.803   8.077   5.802 -0.0318 -0.6784  0.0017
20212SOL    HW162643   1.809   8.053   5.895  1.7664 -0.1346  0.0736
20212SOL    HW262644   1.852   8.008   5.757 -0.1025 -0.4412 -0.4378
20213SOL     OW62645   8.054   7.122   4.711  0.0970  0.4480 -0.2908
20213SOL    HW162646   8.020   7.209   4.690 -2.6051 -0.1147  1.3048
20213SOL    HW262647   8.127   7.139   4.770 -1.8579  1.7109  1.9631
20214SOL     OW62648   4.913   3.651   8.202 -0.6758  0.0242 -0.6833
20214SOL    HW162649   4.944   3.739   8.225  2.3230 -0.9706 -0.3905
20214SOL    HW262650   4.926   3.600   8.281 -0.4570 -1.1078 -1.4317
20215SOL     OW62651   0.589  10.421   4.555  0.1714 -0.2190  0.0632
20215SOL    HW162652   0.512  10.368   4.576  1.5052 -2.2733  0.0239
20215SOL    HW262653   0.605  10.405   4.462  0.4584  0.4652 -0.0111
20216SOL     OW62654   9.698   9.728   1.234  0.1463  0.0083  0.4062
20216SOL    HW162655   9.707   9.633   1.220 -0.9969  0.0850 -1.0756
20216SOL    HW262656   9.788   9.760   1.240  0.5799 -1.0146 -0.3054
20217SOL     OW62657   4.538  10.581   1.002 -0.1950  0.5224 -0.9110
20217SOL    HW162658   4.451  10.616   1.021 -1.0205  0.1684 -3.5793
20217SOL    HW262659   4.598  10.653   1.022 -1.2036  1.1716 -0.1172
20218SOL     OW62660  10.395   8.333   7.644  0.2170 -0.2894 -0.4410
20218SOL    HW162661  10.411   8.372   7.730 -0.9277  0.2482 -0.4634
20218SOL    HW262662  10.452   8.383   7.585  0.5304 -0.2384 -0.1044
20219SOL     OW62663   5.361   4.164   6.799 -0.3222 -0.0774 -0.4893
20219SOL    HW162664   5.454   4.172   6.818 -0.2797 -1.6294  0.0968
20219SOL    HW262665   5.357   4.150   6.704  0.0862 -0.5027 -0.4475
20220SOL     OW62666   3.156  11.101   2.634  0.2253  0.3226 -0.1493
20220SOL    HW162667   3.118  11.154   2.705 -1.3202 -0.3267 -0.4523
20220SOL    HW262668   3.215  11.161   2.589 -0.6793  1.4857  0.1640
20221SOL     OW62669   7.154   8.103   5.211 -0.0229  0.6040  0.1099
20221SOL    HW162670   7.158   8.011   5.183  2.1200  0.4014  0.8186
20221SOL    HW262671   7.232   8.114   5.266  0.2799  3.1038 -0.6978
20222SOL     OW62672   1.041   1.367  10.899  0.3992  0.0676  0.0455
20222SOL    HW162673   1.001   1.294  10.946  1.5530 -0.7982 -0.2398
20222SOL    HW262674   1.135   1.349  10.904  0.6216  0.5580 -1.5746
20223SOL     OW62675   8.044   6.326   1.524 -0.0545 -0.1741  0.0081
20223SOL    HW162676   8.097   6.256   1.485 -0.0080  0.0820 -0.3981
20223SOL    HW262677   8.108   6.390   1.555 -0.1143  0.2599 -0.7153
20224SOL     OW62678   5.328   2.129  10.908  0.3416 -0.8778 -0.4806
20224SOL    HW162679   5.238   2.119  10.939 -0.8508  4.2707 -1.3796
20224SOL    HW262680   5.321   2.124  10.812  0.7460  0.6658 -0.6098
20225SOL     OW62681   9.554   8.115   4.412  0.6365 -0.2281  0.0265
20225SOL    HW162682   9.602   8.114   4.329  1.9789  1.2025  0.7228
20225SOL    HW262683   9.614   8.075   4.475 -1.3912 -3.9040 -0.0728
20226SOL     OW62684   5.286   5.123   2.118  0.3057 -0.2309 -0.2646
20226SOL    HW162685   5.239   5.045   2.148 -2.1664  0.3823 -2.1785
20226SOL    HW262686   5.269   5.189   2.184 -1.9485  0.0726 -1.0728
20227SOL     OW62687   8.164   5.889   5.856  0.3842  0.4266 -0.0221
20227SOL    HW162688   8.079   5.919   5.888  0.2070 -0.9639  0.8622
20227SOL    HW262689   8.148   5.800   5.825  1.6422 -0.1037  0.7703
20228SOL     OW62690   1.488   8.375   3.084 -0.1663 -0.3672 -0.0491
20228SOL    HW162691   1.456   8.464   3.070  0.7632 -0.0508 -0.2280
20228SOL    HW262692   1.442   8.322   3.018  1.3226  0.4592 -1.8213
20229SOL     OW62693  10.892   2.341   7.923  0.2045 -0.3553 -0.2877
20229SOL    HW162694  10.801   2.314   7.930 -0.8339  2.4176 -1.6500
20229SOL    HW262695  10.934   2.272   7.871 -1.8372 -0.3158 -2.1113
20230SOL     OW62696   9.421   3.051   2.185  0.4008 -0.3372 -0.2581
20230SOL    HW162697   9.435   3.034   2.092  0.6849 -0.9663 -0.1088
20230SOL    HW262698   9.404   2.965   2.223 -1.3866  0.0933  0.0064
20231SOL     OW62699   0.285   5.929   5.142  0.0642 -0.4904 -0.7756
20231SOL    HW162700   0.360   5.924   5.201 -0.8596  0.2109  0.5285
20231SOL    HW262701   0.269   6.023   5.132 -0.5920 -0.6294 -1.0861
20232SOL     OW62702   7.253   6.418   2.930  0.0048  0.5442  0.6697
20232SOL    HW162703   7.224   6.476   3.001  1.1819  0.3610  1.3134
20232SOL    HW262704   7.185   6.350   2.926  0.3228  0.0920  2.1906
20233SOL     OW62705   1.412   3.760   6.528  0.6038  0.4757  0.5063
20233SOL    HW162706   1.500   3.795   6.514  0.1346  1.2533 -0.6486
20233SOL    HW262707   1.354   3.831   6.499 -0.4180  0.3293  2.1037
20234SOL     OW62708   2.143   0.126   4.551  0.2928  0.2933 -0.0664
20234SOL    HW162709   2.149   0.176   4.470 -0.7474  0.5186 -0.0222
20234SOL    HW262710   2.089   0.050   4.529 -0.4814  0.6485  0.5359
20235SOL     OW62711   7.440   1.487   3.385 -0.4492 -0.1608  0.1724
20235SOL    HW162712   7.518   1.516   3.336 -0.2791 -0.4127  0.2927
20235SOL    HW262713   7.369   1.541   3.350 -0.4136 -0.6318 -0.6638
20236SOL     OW62714   2.752   8.611   0.771 -0.0692 -0.2937  0.5501
20236SOL    HW162715   2.844   8.598   0.751 -0.3851 -0.6596 -0.6989
20236SOL    HW262716   2.751   8.630   0.865  1.4845  1.7971  0.2314
20237SOL     OW62717   2.663   3.478   0.202 -0.3509  0.3051 -0.1395
20237SOL    HW162718   2.671   3.535   0.125 -1.3609  0.4092 -0.1787
20237SOL    HW262719   2.649   3.538   0.275  0.6802  0.2115  0.1602
20238SOL     OW62720   4.024   8.054   4.402 -0.3755 -0.5474  0.4816
20238SOL    HW162721   4.012   8.030   4.494 -0.4185 -2.3886  0.0496
20238SOL    HW262722   4.109   8.099   4.400 -0.5414 -0.1693  1.4694
20239SOL     OW62723   4.434  10.815   3.993  0.1013 -0.1041 -0.5268
20239SOL    HW162724   4.354  10.803   4.044 -0.7853 -0.9340 -2.0429
20239SOL    HW262725   4.424  10.902   3.953 -0.5134 -0.5971 -1.4747
20240SOL     OW62726   1.804   4.718   9.330 -0.0031 -0.3656 -0.0217
20240SOL    HW162727   1.819   4.655   9.400 -0.7071  0.1514  0.6212
20240SOL    HW262728   1.736   4.678   9.276 -0.0548 -0.4081  0.0729
20241SOL     OW62729   2.017   0.379   1.958 -0.1267 -1.1489  0.5823
20241SOL    HW162730   2.011   0.393   1.863 -1.3207  1.3409  0.9302
20241SOL    HW262731   2.108   0.399   1.979  0.1019 -1.5379  0.0031
20242SOL     OW62732   3.396   8.576   8.018 -0.1104 -0.5812 -0.4094
20242SOL    HW162733   3.464   8.605   7.957  1.0802 -0.0927  1.0757
20242SOL    HW262734   3.445   8.534   8.089 -1.0017  2.4703  2.2513
20243SOL     OW62735   6.614   1.947   8.362  0.2707  0.4583 -0.1020
20243SOL    HW162736   6.558   1.906   8.296  1.0342  0.4446 -0.7529
20243SOL    HW262737   6.625   1.880   8.429  0.1268  0.1977 -0.3378
20244SOL     OW62738   4.762   2.498   8.360  0.2799  0.0283  0.3659
20244SOL    HW162739   4.716   2.563   8.307 -0.5523  0.5057  1.6378
20244SOL    HW262740   4.836   2.547   8.397  1.7090 -0.6505 -1.3975
20245SOL     OW62741   3.458   5.916   9.338  0.5440 -0.1551  0.7164
20245SOL    HW162742   3.428   5.826   9.324  1.9788 -1.1350  3.2195
20245SOL    HW262743   3.428   5.937   9.427  1.2055  1.4329  0.5882
20246SOL     OW62744   3.359   8.318   0.551  0.2440  0.1256 -0.1770
20246SOL    HW162745   3.342   8.339   0.459 -2.0524 -0.1778  0.1209
20246SOL    HW262746   3.414   8.240   0.549 -0.2656 -0.2159 -1.2865
20247SOL     OW62747   0.509   8.081   3.774 -0.8881  0.4888  0.0445
20247SOL    HW162748   0.582   8.143   3.768 -0.8271  0.3666 -0.5092
20247SOL    HW262749   0.483   8.084   3.866 -1.0551  1.5368 -0.0207
20248SOL     OW62750   1.620   8.437   4.409  0.0298 -0.0655  0.2259
20248SOL    HW162751   1.570   8.395   4.339 -0.6948  1.8067 -0.4481
20248SOL    HW262752   1.693   8.377   4.427 -1.0848 -1.6968 -0.4671
20249SOL     OW62753  10.287   1.258   2.182 -0.3205  0.0634  0.3458
20249SOL    HW162754  10.200   1.231   2.150  0.1021 -0.0756 -0.7270
20249SOL    HW262755  10.284   1.241   2.276 -0.5987 -2.3827 -0.0241
20250SOL     OW62756   9.099   7.775   2.136 -0.1728  0.1334 -0.4479
20250SOL    HW162757   9.147   7.856   2.152 -0.5377  0.2669 -0.0024
20250SOL    HW262758   9.131   7.745   2.052 -0.3882  1.0048 -0.8586
20251SOL     OW62759   1.960   7.131   3.496 -0.0247 -0.2243 -0.1060
20251SOL    HW162760   1.880   7.174   3.525  0.1245 -0.5948  0.8973
20251SOL    HW262761   1.933   7.042   3.473  0.0504 -0.2761  0.0021
20252SOL     OW62762   3.461   9.332   7.379  0.6772  0.0494  0.1523
20252SOL    HW162763   3.371   9.353   7.402 -0.1650 -2.1689 -0.8505
20252SOL    HW262764   3.511   9.349   7.459 -0.5078  1.7678  0.5809
20253SOL     OW62765   0.617   7.282   1.443 -0.1382 -0.1026 -0.4836
20253SOL    HW162766   0.568   7.209   1.482 -0.8312  0.5110 -0.1847
20253SOL    HW262767   0.709   7.259   1.457 -0.3522 -0.6856  0.0321
20254SOL     OW62768   6.233  10.588  10.994 -0.3136  0.0263 -0.5071
20254SOL    HW162769   6.246  10.667  10.942  3.2043 -0.5847 -0.7860
20254SOL    HW262770   6.183  10.529  10.937 -1.4707  1.3521 -0.9294
20255SOL     OW62771   9.962   7.441   6.722 -0.4159  0.1631  0.4618
20255SOL    HW162772  10.048   7.451   6.681  0.1891 -0.1786  1.5844
20255SOL    HW262773   9.907   7.507   6.679  0.6934  1.1193  0.4533
20256SOL     OW62774   9.644   1.943   2.572  0.4354  0.0912 -0.5539
20256SOL    HW162775   9.609   1.853   2.575  2.0488 -0.5602  0.9513
20256SOL    HW262776   9.589   1.991   2.634  0.6649 -0.3209 -0.0164
20257SOL     OW62777   3.901   7.019   0.185  0.5838  0.2954 -0.3253
20257SOL    HW162778   3.962   7.089   0.160  2.3132 -0.7290  0.7870
20257SOL    HW262779   3.923   7.000   0.277 -1.2322 -0.3446  0.0216
20258SOL     OW62780   6.832   7.051   8.705  0.8950 -0.0490  0.0396
20258SOL    HW162781   6.791   7.085   8.625  0.0027 -0.1340  0.4530
20258SOL    HW262782   6.764   7.057   8.772  0.9556 -1.8969  0.3263
20259SOL     OW62783   1.532   9.672   2.210 -0.2062  0.2693  0.3284
20259SOL    HW162784   1.604   9.732   2.191 -1.0222  1.4533  0.8806
20259SOL    HW262785   1.468   9.725   2.257 -0.7784 -1.1388  1.2101
20260SOL     OW62786   4.680   9.195   6.814 -0.3803 -0.0167  0.0590
20260SOL    HW162787   4.739   9.247   6.759 -0.7132 -0.7611 -1.0319
20260SOL    HW262788   4.696   9.227   6.903  1.8991 -0.3768 -0.1410
20261SOL     OW62789   7.755   2.230   2.145  0.1445  0.2016  0.5898
20261SOL    HW162790   7.717   2.311   2.181  0.2603  0.1315  0.8751
20261SOL    HW262791   7.761   2.246   2.051  0.1427  0.5147  0.6410
20262SOL     OW62792  10.118   8.684   9.652  0.2757  0.0429 -0.3520
20262SOL    HW162793  10.100   8.722   9.738  0.1300  0.4446 -0.5575
20262SOL    HW262794  10.181   8.744   9.611  2.4904 -1.5664  0.5168
20263SOL     OW62795   6.941   1.670   3.293  0.1825 -0.8468 -0.6378
20263SOL    HW162796   7.023   1.622   3.301  1.0487  0.6422 -0.0092
20263SOL    HW262797   6.906   1.673   3.382 -2.5032 -4.5454 -1.3604
20264SOL     OW62798   1.810   7.408   7.476  0.7162  0.0099  0.0506
20264SOL    HW162799   1.896   7.377   7.449  0.2221 -1.2638 -0.1503
20264SOL    HW262800   1.826   7.492   7.519  2.4828 -1.6803  3.0363
20265SOL     OW62801   6.518   2.487   8.175 -0.1244  0.2020  0.7445
20265SOL    HW162802   6.450   2.419   8.177 -0.7638  0.8455  1.2394
20265SOL    HW262803   6.545   2.489   8.083 -0.4403 -0.3828  0.6262
20266SOL     OW62804   2.522  10.198   5.656 -0.0092  0.3113 -0.5443
20266SOL    HW162805   2.586  10.140   5.697 -1.3813 -0.8572  0.0383
20266SOL    HW262806   2.451  10.139   5.629 -0.5743  1.4807 -1.7126
20267SOL     OW62807   2.831   7.139   9.106  0.0714 -0.4595  0.5843
20267SOL    HW162808   2.897   7.204   9.084  0.1434 -0.1599  1.6198
20267SOL    HW262809   2.773   7.136   9.030  0.6826  0.0318  0.0946
20268SOL     OW62810   1.547   6.197   6.799  0.1359  0.4221  0.7897
20268SOL    HW162811   1.467   6.166   6.757  0.8760 -0.9388  0.2862
20268SOL    HW262812   1.574   6.124   6.856  1.3982  0.5237  0.3628
20269SOL     OW62813   8.118   1.154   7.463 -0.5558 -0.3828  0.2024
20269SOL    HW162814   8.141   1.210   7.389 -2.8031 -0.9649 -1.0210
20269SOL    HW262815   8.136   1.065   7.433 -1.1030 -0.5998  0.4944
20270SOL     OW62816   6.446   3.732   9.716 -0.3468 -0.0123  0.2238
20270SOL    HW162817   6.423   3.686   9.635  1.3823  1.7433 -1.3922
20270SOL    HW262818   6.398   3.815   9.710  0.7287  0.6394  0.3712
20271SOL     OW62819   8.124   8.495   5.035  0.3367 -0.4501  0.0297
20271SOL    HW162820   8.072   8.421   5.005  0.8594 -1.3780  1.2950
20271SOL    HW262821   8.082   8.522   5.117 -1.1739  2.1310 -1.4558
20272SOL     OW62822   7.173   8.346   4.135 -0.1415 -0.8950 -0.1391
20272SOL    HW162823   7.106   8.342   4.203 -0.9689 -2.0781 -1.0010
20272SOL    HW262824   7.255   8.330   4.182 -0.8839 -3.7899  0.3294
20273SOL     OW62825   3.361  10.241   1.448  0.4688 -0.2782  0.2182
20273SOL    HW162826   3.397  10.164   1.405  0.3321  0.3878 -1.1615
20273SOL    HW262827   3.286  10.266   1.393  0.9109  1.2071  0.2382
20274SOL     OW62828   2.537   9.276   4.064  0.5329  0.0108 -0.3979
20274SOL    HW162829   2.530   9.244   3.974 -0.8437 -0.7234 -0.0731
20274SOL    HW262830   2.492   9.361   4.063 -1.2917 -0.8888 -0.0461
20275SOL     OW62831   4.742   8.718   0.625  0.2352  0.2682 -0.0457
20275SOL    HW162832   4.806   8.716   0.554 -1.5722  0.2837 -1.7546
20275SOL    HW262833   4.754   8.804   0.666  0.7917  0.5674 -0.8120
20276SOL     OW62834  10.764   5.557  11.027 -0.8268  0.6398 -0.0089
20276SOL    HW162835  10.682   5.512  11.006 -0.6334  1.0596 -1.8306
20276SOL    HW262836  10.755   5.581  11.119 -2.7162  0.5863 -0.1388
20277SOL     OW62837   9.518   9.669   6.946 -0.1109 -0.3235 -0.3767
20277SOL    HW162838   9.462   9.667   6.868 -1.7125  1.5053  0.6396
20277SOL    HW262839   9.589   9.729   6.923 -2.3737  2.9285  0.5767
20278SOL     OW62840   6.142   5.562  10.916  0.7159 -0.7141  0.6088
20278SOL    HW162841   6.200   5.637  10.906  1.0395 -1.0927 -0.5161
20278SOL    HW262842   6.073   5.576  10.850  0.1163 -0.8094  1.2008
20279SOL     OW62843   7.582   1.331   9.709  0.0795 -0.3566 -0.4894
20279SOL    HW162844   7.549   1.419   9.728  0.3554 -0.5051  0.7683
20279SOL    HW262845   7.654   1.345   9.648  2.1914  0.6462  2.0487
20280SOL     OW62846   7.282   1.810   4.128 -0.5025 -0.1004 -0.8707
20280SOL    HW162847   7.215   1.833   4.192  0.8834  1.0145  0.2427
20280SOL    HW262848   7.361   1.794   4.180  0.5181  0.2190 -2.2517
20281SOL     OW62849   6.657   4.378   3.437 -0.5406  0.2805 -0.1804
20281SOL    HW162850   6.674   4.338   3.522 -2.9544 -0.0010  0.2211
20281SOL    HW262851   6.647   4.303   3.377 -1.0684  0.4050 -0.2488
20282SOL     OW62852   0.654  10.941   2.605 -0.1496  0.0644 -0.8671
20282SOL    HW162853   0.702  10.972   2.528  1.3936  0.7994  0.3444
20282SOL    HW262854   0.562  10.955   2.583  0.1670 -0.7213 -2.9730
20283SOL     OW62855   7.618  10.192   8.426 -0.0890 -0.3204 -0.2983
20283SOL    HW162856   7.619  10.111   8.477 -0.6646 -0.8276 -1.0896
20283SOL    HW262857   7.663  10.169   8.345 -2.0740 -0.4396 -1.4059
20284SOL     OW62858   2.914   6.143   2.389  0.0752  0.7523  0.0046
20284SOL    HW162859   2.834   6.191   2.366 -0.3453  0.1647  0.2183
20284SOL    HW262860   2.884   6.054   2.408  0.7622  0.5695  0.2598
20285SOL     OW62861   9.523   3.493   3.350  0.1081 -0.7388  0.1540
20285SOL    HW162862   9.590   3.493   3.283 -0.4154  0.3321 -0.3879
20285SOL    HW262863   9.450   3.444   3.311  0.2508 -1.1767  0.4236
20286SOL     OW62864   8.974   5.706   1.965 -0.3039 -0.1017 -0.3291
20286SOL    HW162865   8.921   5.758   2.026 -0.5950  0.0611 -0.7199
20286SOL    HW262866   8.984   5.621   2.008  0.3937  0.3544  0.4396
20287SOL     OW62867   9.688   5.915   4.057 -0.2958 -0.2562  0.4166
20287SOL    HW162868   9.707   5.847   4.121 -0.2188 -0.0147  0.6558
20287SOL    HW262869   9.626   5.875   3.996  0.5035 -0.8533 -0.0133
20288SOL     OW62870   0.561  10.378   8.500 -0.3184 -0.2056  0.0892
20288SOL    HW162871   0.648  10.339   8.490 -1.0563 -1.6182 -1.3863
20288SOL    HW262872   0.540  10.366   8.593 -0.1234 -2.5961 -0.1097
20289SOL     OW62873   0.252   2.754  10.581 -0.6760 -0.6452 -0.0089
20289SOL    HW162874   0.306   2.705  10.520 -0.1115 -0.2121  0.1335
20289SOL    HW262875   0.312   2.782  10.650 -1.7350 -3.4061  2.2478
20290SOL     OW62876   1.281   7.357   0.676  0.3308 -0.7135 -0.1831
20290SOL    HW162877   1.195   7.398   0.666  1.4565  1.6160 -1.1885
20290SOL    HW262878   1.281   7.285   0.614 -1.4187 -1.7872  0.9859
20291SOL     OW62879   8.346   5.531   0.809  0.4262  0.2510 -0.5211
20291SOL    HW162880   8.401   5.609   0.803 -1.5453  1.7532 -0.2255
20291SOL    HW262881   8.384   5.470   0.747  1.6477  1.6976 -1.2629
20292SOL     OW62882   0.040   2.018  10.257 -0.1920 -0.0208  0.2118
20292SOL    HW162883   0.122   1.978  10.286 -0.8476 -1.1100  0.6657
20292SOL    HW262884   0.034   1.996  10.164 -0.4052 -0.7852  0.3910
20293SOL     OW62885   6.050   0.369   0.066 -0.3474  0.1432 -0.2076
20293SOL    HW162886   6.123   0.311   0.043 -0.1646  0.4707 -0.4533
20293SOL    HW262887   6.069   0.451   0.020 -0.5113  0.4602  0.2830
20294SOL     OW62888   4.627   4.588   2.795 -0.0380  0.3857  0.4784
20294SOL    HW162889   4.702   4.644   2.819  0.9847 -0.4288 -0.6550
20294SOL    HW262890   4.552   4.647   2.797  0.9077  1.6724 -0.0579
20295SOL     OW62891   0.854   8.275   8.017 -0.4094  0.0031 -0.6815
20295SOL    HW162892   0.931   8.252   8.068 -0.8773  1.5262  0.7996
20295SOL    HW262893   0.826   8.359   8.053 -3.3599 -0.9697 -0.4818
20296SOL     OW62894   9.474   9.094   2.873  0.1120 -0.0842  0.5344
20296SOL    HW162895   9.399   9.148   2.899 -0.2245 -0.5999  0.6504
20296SOL    HW262896   9.529   9.153   2.822 -1.8169 -0.4661 -2.1846
20297SOL     OW62897   4.490   3.458   4.854 -0.0621  0.1211 -0.1194
20297SOL    HW162898   4.412   3.447   4.908  0.3693 -0.6435  0.3559
20297SOL    HW262899   4.503   3.553   4.851  0.2331  0.1619  1.5980
20298SOL     OW62900   2.659   2.020   8.132 -0.1683  0.2700  0.1207
20298SOL    HW162901   2.700   1.942   8.168  2.0220  0.1891 -2.2903
20298SOL    HW262902   2.656   2.005   8.038 -0.7294  2.6408 -0.3072
20299SOL     OW62903   8.955   3.406   3.010 -0.0101 -0.1491 -0.2556
20299SOL    HW162904   8.971   3.333   2.950 -0.6379 -0.7559  0.2869
20299SOL    HW262905   8.882   3.376   3.065 -0.2964  0.9005 -0.0345
20300SOL     OW62906   1.878   2.332   9.173 -0.1534  0.2584  0.0890
20300SOL    HW162907   1.870   2.238   9.158 -0.5366 -0.1119  2.2050
20300SOL    HW262908   1.972   2.348   9.178  0.0195  0.4454 -2.4136
20301SOL     OW62909   8.129   1.668   4.776  0.1352  0.1014  0.4044
20301SOL    HW162910   8.067   1.742   4.779  0.5095  0.3938  1.0572
20301SOL    HW262911   8.089   1.601   4.831 -0.6693 -0.5712 -0.9387
20302SOL     OW62912   1.797   4.744   5.183 -0.1977  0.4355 -0.6815
20302SOL    HW162913   1.713   4.733   5.137  0.4923 -0.5395 -1.7527
20302SOL    HW262914   1.846   4.665   5.163  0.8708  0.8464  0.2090
20303SOL     OW62915   0.046   1.183   3.945 -0.1957 -0.3194 -0.5369
20303SOL    HW162916   0.094   1.128   3.882  0.6747 -1.1457  0.8066
20303SOL    HW262917   0.012   1.121   4.010 -1.8071  0.4292 -0.6234
20304SOL     OW62918   8.153   2.207   5.595 -0.2360 -0.3236 -0.0483
20304SOL    HW162919   8.248   2.213   5.602 -0.1433  1.0341 -1.8258
20304SOL    HW262920   8.123   2.298   5.592 -1.8569 -0.6589  2.8111
20305SOL     OW62921   3.314   2.072   0.255  0.2531 -0.0992  0.5342
20305SOL    HW162922   3.316   2.153   0.307 -1.2430 -0.0524  0.5603
20305SOL    HW262923   3.389   2.022   0.286  1.0011  1.1120  0.7817
20306SOL     OW62924   8.235  10.679   7.959  0.5009 -0.3398 -0.1018
20306SOL    HW162925   8.300  10.712   8.021  1.0574  1.2267 -1.4536
20306SOL    HW262926   8.286  10.638   7.889  0.0009  0.1236 -0.7513
20307SOL     OW62927   3.061   2.419   7.912  0.6898  0.0298 -0.0875
20307SOL    HW162928   3.112   2.344   7.881  2.7694  1.0582  0.5880
20307SOL    HW262929   3.044   2.401   8.005  1.0698  0.2950  0.0402
20308SOL     OW62930   2.674   5.610   1.613 -0.0002 -0.2519  0.1479
20308SOL    HW162931   2.716   5.695   1.622 -0.2059  0.3423 -3.1838
20308SOL    HW262932   2.583   5.630   1.590 -0.2360 -1.3930  0.0138
20309SOL     OW62933   6.554   1.118   4.361 -0.0792  0.5359  0.2167
20309SOL    HW162934   6.461   1.094   4.371 -0.1629  0.7978  0.0795
20309SOL    HW262935   6.601   1.035   4.370 -0.2694  0.5153  1.0450
20310SOL     OW62936   1.036   9.683   3.982  0.1526  0.4556  0.1375
20310SOL    HW162937   1.076   9.760   3.943  0.2491  1.1073  1.4576
20310SOL    HW262938   1.010   9.629   3.908  3.6722 -0.1493 -0.8724
20311SOL     OW62939   5.761   9.074   4.058 -0.0500 -0.1857 -0.3400
20311SOL    HW162940   5.852   9.068   4.088  1.1085 -0.5032 -3.4629
20311SOL    HW262941   5.709   9.077   4.138  2.8042  2.2435  1.6702
20312SOL     OW62942  11.010   8.786   4.112  0.0935 -0.6625 -0.2623
20312SOL    HW162943  10.958   8.864   4.090 -2.1845 -1.6631  1.2206
20312SOL    HW262944  11.030   8.746   4.027 -0.9263  0.1668 -0.9195
20313SOL     OW62945   3.800   6.495   8.571 -0.4572  0.1017 -0.5916
20313SOL    HW162946   3.779   6.404   8.592 -2.1623  0.4117 -0.8078
20313SOL    HW262947   3.716   6.540   8.575  0.0288  1.2818 -2.4251
20314SOL     OW62948   6.999   4.789   8.316 -0.5296  0.1022  0.4666
20314SOL    HW162949   6.977   4.762   8.227 -1.5820  1.0739  0.4033
20314SOL    HW262950   6.980   4.712   8.370  0.8169 -0.7433 -0.2083
20315SOL     OW62951   4.688   1.889   6.072 -0.3227 -0.0818  0.0096
20315SOL    HW162952   4.673   1.844   6.156  1.7593 -0.4473  0.2258
20315SOL    HW262953   4.755   1.954   6.091  0.8402 -0.7743 -1.5573
20316SOL     OW62954   0.027   9.518  10.876 -0.1914  0.3900  0.3402
20316SOL    HW162955   0.082   9.440  10.883 -0.8274  0.0151  1.3830
20316SOL    HW262956  -0.059   9.485  10.852 -0.8823  0.5506  2.3455
20317SOL     OW62957   4.156   2.761  10.358  0.2232  0.0874  0.1692
20317SOL    HW162958   4.227   2.699  10.346  0.5924  0.9136 -2.5914
20317SOL    HW262959   4.116   2.769  10.271 -0.1534  3.2345  0.5092
20318SOL     OW62960   9.529   5.223  10.009 -0.4156 -0.0269 -0.1705
20318SOL    HW162961   9.492   5.136  10.021 -0.1778  0.0868  1.8602
20318SOL    HW262962   9.466   5.281  10.052  0.7742  0.4627  0.9734
20319SOL     OW62963  10.828   6.941   2.276 -0.4485  0.1404  0.5942
20319SOL    HW162964  10.912   6.908   2.245 -2.4276 -2.8677 -2.2063
20319SOL    HW262965  10.820   6.906   2.365  0.9893 -0.0098  0.6847
20320SOL     OW62966   3.771  10.751   5.915 -0.6931 -0.2003 -0.3140
20320SOL    HW162967   3.842  10.794   5.964 -0.9385  0.0108 -0.1364
20320SOL    HW262968   3.766  10.663   5.953  0.4806 -0.7479 -1.3623
20321SOL     OW62969   1.400   1.796   6.039  0.3968  0.4322 -0.1024
20321SOL    HW162970   1.423   1.766   5.951  1.5783  1.4845 -0.1849
20321SOL    HW262971   1.322   1.850   6.026  1.0524  1.2733 -0.6549
20322SOL     OW62972   6.185   7.806   8.648  0.2310 -0.4485 -0.2096
20322SOL    HW162973   6.270   7.776   8.681 -0.3684 -1.9530  0.0318
20322SOL    HW262974   6.158   7.875   8.709  0.3759 -1.3275  0.8778
20323SOL     OW62975   6.675   8.356   3.312  0.1405  0.8306 -0.3641
20323SOL    HW162976   6.725   8.290   3.358 -2.3292 -1.5275 -0.7795
20323SOL    HW262977   6.658   8.424   3.378 -1.1264 -1.2102  1.5888
20324SOL     OW62978   2.708   0.802   2.663 -0.1117 -0.0298 -0.7653
20324SOL    HW162979   2.657   0.729   2.625 -0.7383  0.6311 -1.2261
20324SOL    HW262980   2.682   0.878   2.611 -0.0653  0.6719  0.2224
20325SOL     OW62981   7.739   6.553   7.662 -0.0045  0.7733  0.5874
20325SOL    HW162982   7.782   6.469   7.674  0.1355  0.8068  0.3244
20325SOL    HW262983   7.749   6.597   7.747  0.1456  0.6298  0.6457
20326SOL     OW62984   8.798   9.516   4.512  0.1461  0.0484 -0.2820
20326SOL    HW162985   8.829   9.460   4.583  1.2671 -1.4522 -1.8707
20326SOL    HW262986   8.703   9.508   4.515  0.2208 -0.7407  0.4471
20327SOL     OW62987   3.009   4.620   9.218  0.5053  0.1651 -0.3912
20327SOL    HW162988   2.978   4.570   9.294 -0.3523  2.2421  0.6929
20327SOL    HW262989   2.966   4.579   9.143  0.0979 -0.9225  0.4101
20328SOL     OW62990   9.015   0.819   2.510 -0.7857  0.0047 -0.0782
20328SOL    HW162991   9.092   0.856   2.551 -0.5791 -0.7320  0.2270
20328SOL    HW262992   9.025   0.837   2.417  0.0095 -0.5082 -0.1063
20329SOL     OW62993   3.985   5.597   8.842 -0.3237  1.0537 -0.3338
20329SOL    HW162994   4.072   5.557   8.846 -0.2247  1.2984  0.0863
20329SOL    HW262995   3.952   5.593   8.932 -0.2213  2.0783 -0.2297
20330SOL     OW62996   4.974   1.158   4.514  0.1280  0.0639 -0.1228
20330SOL    HW162997   4.888   1.172   4.476  0.4109  1.5261 -0.2924
20330SOL    HW262998   5.012   1.086   4.463 -2.2448 -3.0490  2.1513
20331SOL     OW62999   6.964   2.463  10.375 -0.5650 -0.2906 -0.1970
20331SOL    HW163000   6.942   2.539  10.322  0.3321  0.2767  0.2084
20331SOL    HW263001   7.028   2.496  10.438  0.2681 -1.5019 -0.3740
20332SOL     OW63002   0.209   7.311   8.244  0.4158 -0.0989  0.3962
20332SOL    HW163003   0.270   7.339   8.175 -0.1907 -2.0281 -1.0136
20332SOL    HW263004   0.148   7.385   8.253  2.0228  1.2407  0.7627
20333SOL     OW63005   1.610   3.121   6.398  0.3865 -0.2719  1.0825
20333SOL    HW163006   1.596   3.035   6.357  1.0673 -0.2958  0.8877
20333SOL    HW263007   1.603   3.183   6.326  0.5460 -0.2198  1.1129
20334SOL     OW63008  10.665   5.776   6.169  1.1274 -0.0627  0.0483
20334SOL    HW163009  10.751   5.735   6.179  0.9908 -0.1925  0.6991
20334SOL    HW263010  10.684   5.870   6.164  1.2943 -0.0810  0.3286
20335SOL     OW63011   6.134   6.548   9.462 -0.0663 -0.0782 -0.4511
20335SOL    HW163012   6.196   6.617   9.438  1.0622  0.2696  2.8924
20335SOL    HW263013   6.048   6.590   9.458  0.3650  0.7766 -0.8907
20336SOL     OW63014   2.063   0.920   8.048  0.3126  0.1207 -0.6209
20336SOL    HW163015   2.140   0.870   8.020  0.5759  0.3304 -0.2845
20336SOL    HW263016   2.042   0.976   7.973  1.4112  1.1518 -0.1896
20337SOL     OW63017   7.920   4.127   9.805 -0.2939 -0.2349 -0.1488
20337SOL    HW163018   8.005   4.086   9.790 -0.5377 -0.3244 -1.3310
20337SOL    HW263019   7.856   4.059   9.785 -0.6635 -0.0345  0.3147
20338SOL     OW63020   6.372   9.180   2.991  0.0920  0.2660  0.1901
20338SOL    HW163021   6.444   9.233   3.026 -0.7599  2.8146 -1.5559
20338SOL    HW263022   6.342   9.229   2.914 -3.3593 -0.7769  0.7000
20339SOL     OW63023   5.934   1.955   4.549  0.2175 -0.1244  0.5991
20339SOL    HW163024   5.987   1.897   4.496 -0.5815 -1.7556  1.5051
20339SOL    HW263025   5.913   1.904   4.628 -0.4509  1.4140  1.4756
20340SOL     OW63026   1.788   0.623   0.681 -0.0018  0.6461  0.1637
20340SOL    HW163027   1.864   0.675   0.707 -0.2602  0.7700  0.6871
20340SOL    HW263028   1.756   0.586   0.763 -2.4755  3.2152  0.4981
20341SOL     OW63029   5.649   5.161  10.085  0.4403 -0.4373 -0.2533
20341SOL    HW163030   5.581   5.200  10.139  0.3658 -2.1498  0.9935
20341SOL    HW263031   5.623   5.069  10.077  0.2109 -0.2165 -3.6363
20342SOL     OW63032   7.875   0.636   9.481  0.0562 -1.2290 -0.7938
20342SOL    HW163033   7.808   0.587   9.527 -1.5707  0.9533 -0.6820
20342SOL    HW263034   7.854   0.626   9.388 -0.1918 -0.8711 -0.7775
20343SOL     OW63035   7.307   6.336   7.410  0.2807  0.2781  0.2987
20343SOL    HW163036   7.313   6.387   7.491  1.3134  0.4875  0.1003
20343SOL    HW263037   7.346   6.393   7.343  0.7151 -0.4560 -0.0791
20344SOL     OW63038   6.524   6.839   9.828  0.1358  0.3090  0.4413
20344SOL    HW163039   6.573   6.861   9.749 -0.3794 -0.1323 -0.0041
20344SOL    HW263040   6.436   6.818   9.797  0.2746 -1.1545  0.9869
20345SOL     OW63041   8.280   1.650   0.580  0.0201 -0.2287  0.8680
20345SOL    HW163042   8.293   1.666   0.673 -0.1084 -2.9268  1.4329
20345SOL    HW263043   8.204   1.703   0.556 -0.4913 -0.1761  2.5136
20346SOL     OW63044   8.294   3.865   8.459  0.1295  0.3644  0.0867
20346SOL    HW163045   8.375   3.844   8.412  0.4116  0.5873  0.4751
20346SOL    HW263046   8.323   3.900   8.543 -0.3411 -2.6916  1.6811
20347SOL     OW63047   0.491   4.895   0.306 -0.7672 -0.5272 -0.2503
20347SOL    HW163048   0.564   4.936   0.353 -0.6137 -0.2768 -0.6977
20347SOL    HW263049   0.532   4.850   0.233 -1.1624  0.7899 -1.3280
20348SOL     OW63050   7.754   0.413   0.553 -0.0018  0.0371 -0.0325
20348SOL    HW163051   7.673   0.407   0.603 -0.8540  4.1693 -0.5642
20348SOL    HW263052   7.824   0.397   0.617 -1.1456 -0.8552  1.0372
20349SOL     OW63053   9.120   0.729   5.206 -0.0459 -0.7845 -0.9939
20349SOL    HW163054   9.031   0.705   5.233  0.3442 -0.9345  0.2522
20349SOL    HW263055   9.110   0.811   5.159 -0.8390 -0.7623 -0.7972
20350SOL     OW63056   9.213   6.840   8.426 -0.0495  0.1912 -0.0781
20350SOL    HW163057   9.135   6.862   8.477  0.2002  0.6587  0.1099
20350SOL    HW263058   9.281   6.898   8.461  0.9131 -1.5761  1.1790
20351SOL     OW63059   1.691   4.907   5.616 -0.1845 -0.0590  0.3108
20351SOL    HW163060   1.688   4.811   5.619  1.1084 -0.0944  1.9789
20351SOL    HW263061   1.747   4.927   5.541 -0.8467 -0.5749 -0.3353
20352SOL     OW63062  10.494   8.525   0.008 -0.1760 -0.1280  0.8126
20352SOL    HW163063  10.488   8.498   0.100  0.0347  0.0348  0.8748
20352SOL    HW263064  10.451   8.455  -0.040 -1.0180  0.1711  1.1017
20353SOL     OW63065   4.359  10.830   5.164  0.3031 -0.1903  0.0094
20353SOL    HW163066   4.373  10.768   5.092  0.6128 -1.2210  0.9354
20353SOL    HW263067   4.426  10.808   5.228 -0.8285 -0.2033  1.2245
20354SOL     OW63068  10.320   0.972   5.947 -0.1857 -0.2685  0.9406
20354SOL    HW163069  10.275   0.893   5.917 -1.6760  0.6926  0.4946
20354SOL    HW263070  10.365   0.945   6.027  0.5147 -1.8912  0.0436
20355SOL     OW63071   1.671   4.474   4.991 -0.5741  0.4186 -0.3156
20355SOL    HW163072   1.620   4.543   5.033  1.2255  0.2440  2.4403
20355SOL    HW263073   1.751   4.468   5.044  1.7380 -0.1969 -3.6041
20356SOL     OW63074   6.152  10.687   7.339 -0.3861  0.2085  0.0309
20356SOL    HW163075   6.243  10.660   7.353  0.5664  2.2417 -1.6802
20356SOL    HW263076   6.129  10.651   7.254 -2.1839 -2.4878  1.5131
20357SOL     OW63077   4.889   5.987   6.950 -0.1095  0.1216 -0.0939
20357SOL    HW163078   4.910   6.031   7.032  2.6493  1.2176 -1.2866
20357SOL    HW263079   4.822   6.041   6.910 -0.2717  0.5030  0.6717
20358SOL     OW63080   7.724   7.336   8.491  0.3761  0.1132  0.6171
20358SOL    HW163081   7.771   7.253   8.491  0.8510  0.3564 -0.7799
20358SOL    HW263082   7.711   7.357   8.398 -0.0831  1.4061  0.9429
20359SOL     OW63083   7.623   2.064   6.499 -0.4403  0.2568  0.0548
20359SOL    HW163084   7.566   2.107   6.436 -1.7886 -0.2282  0.9012
20359SOL    HW263085   7.577   1.983   6.523  1.4444 -1.0824 -0.5754
20360SOL     OW63086   4.406   1.117   8.546 -0.1893  0.1160 -0.0239
20360SOL    HW163087   4.498   1.141   8.550 -0.3347  1.2903 -2.0703
20360SOL    HW263088   4.405   1.023   8.528  0.5804  0.0351  0.3352
20361SOL     OW63089   5.138   7.937   5.401  0.0120 -0.0294  0.2608
20361SOL    HW163090   5.142   8.028   5.432 -0.3514 -0.1052  0.5409
20361SOL    HW263091   5.061   7.936   5.344  1.9467  0.6784 -2.5474
20362SOL     OW63092   9.878   3.738  11.005 -0.4342  0.1767 -0.2451
20362SOL    HW163093   9.827   3.671  11.050 -0.6849 -0.2733 -1.1840
20362SOL    HW263094   9.897   3.700  10.919 -2.1588  2.0016 -1.5160
20363SOL     OW63095   3.238   8.118   9.479  0.7547  0.0390  0.4114
20363SOL    HW163096   3.192   8.083   9.402 -0.2041 -2.2172  1.9116
20363SOL    HW263097   3.240   8.212   9.464 -0.7951 -0.1704 -1.6486
20364SOL     OW63098  10.320   2.404   0.622 -0.6329 -0.0513  0.3246
20364SOL    HW163099  10.310   2.314   0.650 -3.0480  0.7519  2.3758
20364SOL    HW263100  10.246   2.451   0.661  1.2802  3.1040  0.5656
20365SOL     OW63101   5.396   7.001  10.040  0.0863  0.2441  0.1354
20365SOL    HW163102   5.330   7.044   9.985  0.3486  0.0727 -0.3180
20365SOL    HW263103   5.454   6.958   9.978  0.5320  0.2560  0.5422
20366SOL     OW63104   4.748   7.175   7.797 -0.1045 -0.2710  0.3733
20366SOL    HW163105   4.707   7.231   7.863  1.0957  1.4423 -0.2572
20366SOL    HW263106   4.753   7.089   7.838  2.5449  1.1334  3.4943
20367SOL     OW63107   8.039   8.390   9.891 -1.1176 -0.0780 -0.3207
20367SOL    HW163108   8.061   8.481   9.870  1.0955 -1.0452 -2.8285
20367SOL    HW263109   7.975   8.365   9.824 -0.1718 -0.9032 -0.9525
20368SOL     OW63110   5.207   9.704   8.740 -0.7132  0.6989 -0.9402
20368SOL    HW163111   5.271   9.648   8.696 -1.1951 -0.6784  0.0431
20368SOL    HW263112   5.159   9.746   8.669 -0.0747  0.1706 -1.7039
20369SOL     OW63113   7.253   6.224  10.625 -0.1866  0.1521 -0.5279
20369SOL    HW163114   7.316   6.287  10.660  0.4621 -0.5966 -0.3150
20369SOL    HW263115   7.307   6.160  10.578 -0.9936  1.0747 -2.9012
20370SOL     OW63116   8.253   5.098   1.163 -0.3177 -0.1676  0.2527
20370SOL    HW163117   8.291   5.186   1.168  0.1481 -0.2289 -1.5684
20370SOL    HW263118   8.163   5.112   1.136 -0.1058 -0.2421 -0.5327
20371SOL     OW63119   5.361   6.831  10.752 -0.4469 -0.3114  0.3336
20371SOL    HW163120   5.326   6.742  10.741 -1.3621  0.1525 -0.6838
20371SOL    HW263121   5.374   6.840  10.847 -0.6673 -1.3976  0.4852
20372SOL     OW63122   7.298  10.011   0.446 -0.4425  0.4378  0.1394
20372SOL    HW163123   7.329  10.098   0.472 -0.2332  0.6706 -0.8594
20372SOL    HW263124   7.203  10.020   0.443 -0.4123  0.7042 -0.1685
20373SOL     OW63125   0.892   9.445   2.997  0.7409 -0.1381  0.1323
20373SOL    HW163126   0.844   9.380   3.047 -0.2956  0.2267 -0.3639
20373SOL    HW263127   0.847   9.528   3.015 -0.0736 -0.0846 -1.8745
20374SOL     OW63128   3.117   7.245   1.561  0.2486 -0.0324 -0.1356
20374SOL    HW163129   3.103   7.312   1.628 -0.2377  0.7314 -0.9723
20374SOL    HW263130   3.093   7.163   1.604  0.1914  0.4068  0.6996
20375SOL     OW63131   9.805   1.640  10.704 -0.4387 -0.2865 -0.3511
20375SOL    HW163132   9.738   1.678  10.647  1.0839  0.3468 -1.7916
20375SOL    HW263133   9.838   1.714  10.756 -0.3920 -0.4665 -0.1207
20376SOL     OW63134   6.246  10.067   8.624 -0.4261  0.2669  0.0940
20376SOL    HW163135   6.152  10.053   8.619 -0.5075  0.8392 -0.0265
20376SOL    HW263136   6.262  10.091   8.716 -0.1952 -1.2064  0.4674
20377SOL     OW63137   5.475   4.072   0.167 -0.0520  0.1330  0.0094
20377SOL    HW163138   5.517   4.075   0.081  0.6552 -1.2417  0.2660
20377SOL    HW263139   5.541   4.105   0.228  1.1080 -2.7796  0.5216
20378SOL     OW63140   0.827  10.996   1.782 -0.2596 -0.2000  0.4474
20378SOL    HW163141   0.829  11.025   1.873  0.8855  0.6130  0.1769
20378SOL    HW263142   0.733  10.984   1.763 -0.5185 -0.2560  1.6770
20379SOL     OW63143   1.519   8.986   7.711  0.6954 -0.0345 -0.1714
20379SOL    HW163144   1.518   8.951   7.800  1.5851 -1.9694 -0.8721
20379SOL    HW263145   1.606   9.023   7.701  0.4740  0.5083 -0.1403
20380SOL     OW63146   8.486   1.596   6.746 -0.1442 -1.0638  0.1540
20380SOL    HW163147   8.446   1.581   6.831 -1.1693  0.6112  0.0350
20380SOL    HW263148   8.414   1.583   6.684  0.3571 -1.3617 -0.3715
20381SOL     OW63149   5.815   7.492   7.930  0.6112  0.2325  0.4713
20381SOL    HW163150   5.868   7.484   7.851  1.4561 -2.6946  1.2195
20381SOL    HW263151   5.876   7.526   7.996  0.7070 -0.1029  0.5577
20382SOL     OW63152   5.470   8.122   1.267 -0.3035 -0.3332  0.0617
20382SOL    HW163153   5.465   8.171   1.349  1.3638 -0.8048  0.4937
20382SOL    HW263154   5.553   8.075   1.273 -0.1432 -0.3733 -1.9053
20383SOL     OW63155   3.050   6.179   7.269  0.5801  0.3608 -0.4835
20383SOL    HW163156   3.091   6.093   7.268  0.2706  0.1787  0.6355
20383SOL    HW263157   2.972   6.170   7.215 -1.0811 -0.9521  1.9535
20384SOL     OW63158   1.021   4.677   3.620  0.1268  0.0582 -0.3000
20384SOL    HW163159   0.960   4.750   3.628  0.7716  0.6169 -0.4088
20384SOL    HW263160   0.978   4.605   3.666 -0.1337  0.7377  0.5427
20385SOL     OW63161   1.443   8.502   8.593  0.9453  0.1880  0.5388
20385SOL    HW163162   1.378   8.523   8.527  1.2312  1.0658  0.5260
20385SOL    HW263163   1.395   8.505   8.676  1.3911  3.2455  0.8069
20386SOL     OW63164   7.722   4.348   4.008  0.3923 -0.8526 -0.4951
20386SOL    HW163165   7.648   4.339   3.948  1.0796 -0.3263 -1.4597
20386SOL    HW263166   7.702   4.427   4.059 -0.2699 -1.3899  0.0937
20387SOL     OW63167   1.838   0.612   4.231  0.1683  0.0820  0.5233
20387SOL    HW163168   1.742   0.616   4.233  0.0558 -1.6267  0.0492
20387SOL    HW263169   1.863   0.593   4.321  0.1580  1.4689  0.8506
20388SOL     OW63170  10.774   0.890   6.218  0.0229 -0.4187  0.8996
20388SOL    HW163171  10.791   0.901   6.125 -0.9083 -1.8487  0.5121
20388SOL    HW263172  10.849   0.929   6.262  1.0993 -0.8461 -0.4916
20389SOL     OW63173   8.039   4.956   0.946 -0.0191  0.2135 -0.4565
20389SOL    HW163174   7.975   4.985   0.881 -0.1010 -0.7976 -0.8508
20389SOL    HW263175   7.987   4.915   1.015  0.0007  2.0133  0.6946
20390SOL     OW63176   6.239   0.314   8.098  0.4231 -0.5224  0.0892
20390SOL    HW163177   6.263   0.269   8.179  2.0305  0.1655  0.0363
20390SOL    HW263178   6.302   0.385   8.091 -0.9139  0.6282 -0.7771
20391SOL     OW63179  10.304   5.637   2.605 -0.1461 -0.3460 -0.0302
20391SOL    HW163180  10.337   5.718   2.645 -2.6654  2.1896 -2.5897
20391SOL    HW263181  10.352   5.630   2.522 -0.6833 -0.8711 -0.3067
20392SOL     OW63182   3.456   6.828   0.429 -0.1172  0.0780  0.0365
20392SOL    HW163183   3.373   6.781   0.434  0.4914 -1.1503 -1.0213
20392SOL    HW263184   3.496   6.816   0.516 -0.6393 -0.0792  0.2574
20393SOL     OW63185   0.470   5.830   8.698  0.2556 -0.4939 -0.5566
20393SOL    HW163186   0.468   5.735   8.708  0.0035 -0.4395 -0.0571
20393SOL    HW263187   0.381   5.854   8.671 -0.4964 -0.1354  1.9831
20394SOL     OW63188   9.616   8.833   0.565 -0.1998  0.1021 -0.1461
20394SOL    HW163189   9.584   8.747   0.593  0.1743 -0.5541 -1.6480
20394SOL    HW263190   9.710   8.830   0.582 -0.3011  0.5348  0.5429
20395SOL     OW63191   7.873   8.073   7.119  0.2920  0.0066 -0.0256
20395SOL    HW163192   7.934   8.051   7.048  1.3207  3.1299 -0.2554
20395SOL    HW263193   7.913   8.034   7.197  2.4303  1.5426 -0.2545
20396SOL     OW63194   4.842   6.679  10.594 -0.5648  0.4277  0.1775
20396SOL    HW163195   4.832   6.601  10.650  0.8456  0.6589  0.7865
20396SOL    HW263196   4.855   6.751  10.656 -3.5677  1.4949 -0.3083
20397SOL     OW63197   7.890   1.961   4.097  0.1110  0.0203 -0.1936
20397SOL    HW163198   7.803   2.000   4.082  0.0578  0.4828  1.1865
20397SOL    HW263199   7.934   1.969   4.013 -1.2967 -0.5414 -1.0220
20398SOL     OW63200   3.235   0.637  10.046 -0.2593  0.5175 -0.3922
20398SOL    HW163201   3.307   0.698  10.036  0.5097 -0.3941 -0.5649
20398SOL    HW263202   3.241   0.580   9.969  2.1102 -2.8851  2.0009
20399SOL     OW63203   9.492   8.303   2.348 -0.0994  1.1678 -0.5140
20399SOL    HW163204   9.484   8.208   2.356  0.1482  0.9233 -2.5166
20399SOL    HW263205   9.403   8.336   2.363 -0.1817  0.6418  0.2172
20400SOL     OW63206   8.819   6.243   4.862 -0.0851 -0.2185  0.1050
20400SOL    HW163207   8.726   6.264   4.861 -0.1600 -0.4609  1.0309
20400SOL    HW263208   8.856   6.297   4.932  0.4533 -0.1901 -0.1938
20401SOL     OW63209   8.782   6.231   9.563  0.1249 -0.0445  0.4326
20401SOL    HW163210   8.719   6.262   9.628  2.1832  1.6984  1.7147
20401SOL    HW263211   8.813   6.147   9.598 -2.2965 -1.5961 -0.8647
20402SOL     OW63212   5.047   0.326  10.345  0.4928 -1.0605  0.1613
20402SOL    HW163213   5.080   0.415  10.358  0.7312 -1.2031  0.5630
20402SOL    HW263214   5.124   0.276  10.317 -0.0328 -0.7294 -2.0884
20403SOL     OW63215   3.848  10.519   2.568  0.3255 -0.1492  0.9941
20403SOL    HW163216   3.914  10.541   2.634 -0.4650  0.1968  1.6930
20403SOL    HW263217   3.765  10.536   2.611 -0.2389  2.7939 -0.9518
20404SOL     OW63218   2.905   1.250   9.657 -0.1490 -0.1023  0.0065
20404SOL    HW163219   2.818   1.231   9.694 -0.1129  1.5349  1.0362
20404SOL    HW263220   2.967   1.222   9.724  0.0565  0.0913 -0.1014
20405SOL     OW63221   8.055   2.921   6.912 -1.1025  0.5253  0.1063
20405SOL    HW163222   8.118   2.919   6.983 -0.3605  0.0903 -0.5405
20405SOL    HW263223   7.973   2.891   6.951 -0.7402  0.4194  0.7988
20406SOL     OW63224   6.893   1.906   8.907 -0.3914 -0.0034  0.4520
20406SOL    HW163225   6.874   1.965   8.834 -0.3879  0.1896  0.6070
20406SOL    HW263226   6.826   1.926   8.972 -1.4553 -1.3650 -0.1689
20407SOL     OW63227   4.367   2.489   4.852 -0.2740  0.0896 -0.1584
20407SOL    HW163228   4.316   2.414   4.883  1.1138 -1.4554 -1.4216
20407SOL    HW263229   4.375   2.476   4.758  1.4842  0.8545 -0.1675
20408SOL     OW63230   6.826   2.871   7.110  0.4985  0.0345 -0.5116
20408SOL    HW163231   6.734   2.846   7.100  0.4126 -0.9247  1.9378
20408SOL    HW263232   6.824   2.952   7.160  0.9868  0.5043 -1.2321
20409SOL     OW63233   5.495   5.384   2.271  0.3936 -0.5591 -0.5307
20409SOL    HW163234   5.556   5.409   2.341  0.9998  0.8275 -1.5121
20409SOL    HW263235   5.410   5.416   2.300  0.6846  0.2204 -0.5141
20410SOL     OW63236   1.537   1.313   0.589 -0.1397 -0.2434 -0.5688
20410SOL    HW163237   1.580   1.364   0.658 -1.7860  0.8279 -0.2642
20410SOL    HW263238   1.608   1.271   0.542  1.2012  1.1491  0.1233
20411SOL     OW63239   1.061   3.202   2.803 -0.8027 -0.2842 -0.2906
20411SOL    HW163240   1.082   3.118   2.845 -2.2937 -0.6279 -0.1781
20411SOL    HW263241   1.067   3.266   2.874 -0.5121 -0.4263 -0.1854
20412SOL     OW63242   7.481   0.321   4.587 -0.4869  0.4624  0.2619
20412SOL    HW163243   7.496   0.403   4.634 -0.0915  0.7940 -0.4310
20412SOL    HW263244   7.460   0.348   4.498 -0.3685 -0.1902  0.0315
20413SOL     OW63245   9.247   4.106  10.633  0.4473 -0.4611  0.3862
20413SOL    HW163246   9.212   4.031  10.680 -1.3681  0.7120  1.0265
20413SOL    HW263247   9.298   4.154  10.698 -0.4818  0.1517  0.6881
20414SOL     OW63248   0.191   9.329  11.002  0.3071 -0.2508 -0.0682
20414SOL    HW163249   0.147   9.312  11.085  0.2636 -1.4274 -0.3037
20414SOL    HW263250   0.277   9.363  11.027 -0.0506  0.2932  0.4373
20415SOL     OW63251  10.679   2.164   7.847  0.0708 -0.2553  0.5753
20415SOL    HW163252  10.630   2.208   7.777  0.0303 -1.4331 -0.1626
20415SOL    HW263253  10.612   2.133   7.907 -0.0719 -1.3522 -0.1299
20416SOL     OW63254   2.165   9.887   9.758  0.1852 -0.1440  0.1576
20416SOL    HW163255   2.121   9.827   9.818 -0.5667  0.1218 -0.1172
20416SOL    HW263256   2.102   9.957   9.743  0.7841  0.3550 -0.0827
20417SOL     OW63257  11.049   2.428   5.416 -0.4717 -0.2608  0.0328
20417SOL    HW163258  10.988   2.357   5.436  0.3313 -1.0470 -0.2026
20417SOL    HW263259  11.076   2.461   5.501  0.1211 -1.1151  0.1963
20418SOL     OW63260   8.975   6.798   8.813 -0.5151 -0.6539  0.1861
20418SOL    HW163261   8.993   6.872   8.756 -2.2589 -2.0123 -2.3892
20418SOL    HW263262   8.904   6.828   8.870 -1.5952 -0.4418 -1.2116
20419SOL     OW63263   5.448   3.891   6.887  0.0683  0.1623  0.4786
20419SOL    HW163264   5.454   3.986   6.875 -1.0350  0.2291  0.3869
20419SOL    HW263265   5.525   3.869   6.940  1.1414  0.8889 -0.7028
20420SOL     OW63266   3.393   6.175   4.541  0.2183 -0.0264  0.3356
20420SOL    HW163267   3.365   6.154   4.631  0.4531  0.3728  0.5048
20420SOL    HW263268   3.335   6.246   4.515  0.1194 -0.1746  0.1524
20421SOL     OW63269   2.087   9.485   8.962  1.3185  0.6567 -0.4135
20421SOL    HW163270   2.118   9.411   9.015  1.1894  1.1927  0.4386
20421SOL    HW263271   2.088   9.453   8.872 -1.8309 -1.5147  0.1683
20422SOL     OW63272   6.518   5.408   7.991 -0.2735  0.4102  0.0614
20422SOL    HW163273   6.493   5.384   7.901 -0.0514  2.0172 -0.4618
20422SOL    HW263274   6.608   5.379   8.000  0.0358  1.1229 -0.6047
20423SOL     OW63275  10.302   6.789   6.644 -0.5410  0.1980  0.5297
20423SOL    HW163276  10.285   6.771   6.737  2.4499  2.8063  1.7437
20423SOL    HW263277  10.380   6.738   6.624  0.7218  2.1108  0.4349
20424SOL     OW63278   9.645   1.310   8.893 -0.2423  0.4039 -0.4485
20424SOL    HW163279   9.559   1.328   8.857  0.8827  2.7047 -2.2162
20424SOL    HW263280   9.642   1.346   8.982 -1.0563  0.4934 -0.5043
20425SOL     OW63281   8.431   9.267   8.769  0.3961  0.5164 -0.1344
20425SOL    HW163282   8.361   9.213   8.731  0.6681  0.2266 -0.2267
20425SOL    HW263283   8.388   9.349   8.793 -1.0308 -1.1842  3.9211
20426SOL     OW63284   6.161   2.827   6.612  0.4668  0.2603  0.3889
20426SOL    HW163285   6.216   2.829   6.533  0.3542 -0.8439  0.2711
20426SOL    HW263286   6.203   2.889   6.672  1.1954  0.2704 -0.1237
20427SOL     OW63287   3.623   8.540   9.352 -0.4208 -0.1053  0.1438
20427SOL    HW163288   3.674   8.619   9.337  0.0284 -0.8571 -2.8705
20427SOL    HW263289   3.533   8.571   9.362 -0.1755  0.8118 -0.4311
20428SOL     OW63290   1.423   9.965   7.638  0.0774 -0.0254  0.7781
20428SOL    HW163291   1.346  10.019   7.652 -0.3231 -0.4947  0.4091
20428SOL    HW263292   1.486  10.022   7.595 -0.0682  0.3527  1.0632
20429SOL     OW63293   1.664  10.362   0.032  0.1430  0.2916 -0.2072
20429SOL    HW163294   1.603  10.401  -0.030  0.4725  0.6214 -0.3251
20429SOL    HW263295   1.746  10.353  -0.016 -0.1684 -1.4657 -0.5009
20430SOL     OW63296   0.295   6.197   5.140 -0.1940 -0.2968  0.5007
20430SOL    HW163297   0.367   6.250   5.105  0.1565  0.1580  1.8460
20430SOL    HW263298   0.228   6.261   5.165 -0.8314 -0.6797 -0.1858
20431SOL     OW63299   3.305   2.257   6.950  0.5968 -0.3407  0.3046
20431SOL    HW163300   3.292   2.322   6.881  0.5801 -1.1769 -0.5082
20431SOL    HW263301   3.217   2.229   6.975  0.5217 -3.1190 -2.3993
20432SOL     OW63302   0.827   6.627  10.365  0.2283  0.2411  0.0400
20432SOL    HW163303   0.906   6.634  10.312 -0.6193 -0.6448 -1.4046
20432SOL    HW263304   0.811   6.717  10.395  0.9025  0.7197 -0.9674
20433SOL     OW63305   3.480   2.236   9.706 -0.1229  0.0744  0.3690
20433SOL    HW163306   3.460   2.266   9.794 -0.2304 -1.1970  0.7979
20433SOL    HW263307   3.560   2.184   9.715  1.6503  2.3664 -0.7963
20434SOL     OW63308   3.409  10.884   8.894 -0.4623  0.8541 -0.4317
20434SOL    HW163309   3.499  10.914   8.895 -0.5044  1.0235  1.0039
20434SOL    HW263310   3.396  10.843   8.980 -1.1286 -1.0906 -1.3749
20435SOL     OW63311   8.030   5.789   8.260 -0.0817  0.4342 -0.0985
20435SOL    HW163312   7.972   5.839   8.203 -0.4693  0.5201  0.3665
20435SOL    HW263313   7.998   5.699   8.253 -0.5078  0.5397  0.4418
20436SOL     OW63314   2.446   8.582   3.606 -0.3081 -0.1591  0.7410
20436SOL    HW163315   2.504   8.512   3.577 -0.8720 -0.1720 -0.4245
20436SOL    HW263316   2.362   8.562   3.564  0.0898  2.4655 -1.5964
20437SOL     OW63317   6.654   2.737   4.463 -0.7616 -0.7720  0.1658
20437SOL    HW163318   6.579   2.792   4.489 -1.2901 -1.0633 -0.6974
20437SOL    HW263319   6.622   2.648   4.472 -0.8837 -0.8875 -1.2132
20438SOL     OW63320   5.615   0.783   7.899  0.2806  0.1706 -0.3459
20438SOL    HW163321   5.536   0.774   7.845  0.8827  0.2100 -1.2564
20438SOL    HW263322   5.583   0.822   7.981 -0.5829  0.5906 -0.8613
20439SOL     OW63323   0.616  10.365   3.514 -0.7182 -0.8135  0.7330
20439SOL    HW163324   0.666  10.391   3.592 -0.6321 -1.7178  0.9898
20439SOL    HW263325   0.659  10.411   3.442 -0.8427  0.0852  1.2260
20440SOL     OW63326   6.766   3.726   4.263 -0.1835  0.0551  0.5428
20440SOL    HW163327   6.851   3.688   4.285  0.4822  0.5134 -1.1275
20440SOL    HW263328   6.738   3.680   4.183 -0.7059  1.0726  0.1161
20441SOL     OW63329   7.873   2.400  10.948 -0.1966  0.3828 -0.0484
20441SOL    HW163330   7.954   2.412  10.897 -0.0745  1.9553  0.4324
20441SOL    HW263331   7.817   2.347  10.892  0.2210  1.4089 -1.5084
20442SOL     OW63332   7.320   8.457   9.869 -0.1082  0.3975 -0.0980
20442SOL    HW163333   7.382   8.415   9.929 -0.8784  0.7030  0.9480
20442SOL    HW263334   7.376   8.502   9.805  0.7893 -2.6013 -1.6647
20443SOL     OW63335   4.813   4.917   8.412  1.0715 -0.1947  0.0377
20443SOL    HW163336   4.906   4.900   8.427  1.4199 -0.3778 -2.0518
20443SOL    HW263337   4.768   4.839   8.444  1.7910 -0.8028 -0.4059
20444SOL     OW63338   4.493   0.345   2.837 -0.4561 -0.0945  0.1880
20444SOL    HW163339   4.578   0.303   2.820 -0.6095 -0.0839 -0.6435
20444SOL    HW263340   4.512   0.410   2.904  0.7155  1.5536 -1.6329
20445SOL     OW63341   2.214   9.727   9.145 -0.3149 -0.1766 -0.4752
20445SOL    HW163342   2.291   9.721   9.202 -2.0148  0.0048  2.0185
20445SOL    HW263343   2.202   9.639   9.111  1.4228 -0.0262 -1.5630
20446SOL     OW63344   0.047  10.118   8.336 -0.0824  0.5613  0.3695
20446SOL    HW163345   0.039  10.027   8.368 -0.7487  0.6433  0.4351
20446SOL    HW263346   0.142  10.130   8.326 -0.0123 -1.7817 -4.4125
20447SOL     OW63347   1.896   1.099   4.310 -0.0073  0.0951  0.2758
20447SOL    HW163348   1.852   1.024   4.351 -2.2024  0.8185 -0.6452
20447SOL    HW263349   1.829   1.167   4.307  1.9664  2.2245  1.2573
20448SOL     OW63350   0.774   2.403   9.412 -0.0565 -0.4800  0.3071
20448SOL    HW163351   0.707   2.439   9.470 -1.7732 -3.9848  0.7730
20448SOL    HW263352   0.730   2.393   9.328  0.5090 -0.9937  0.0623
20449SOL     OW63353   2.414   7.353   5.630  0.1710 -0.0637 -0.3102
20449SOL    HW163354   2.504   7.332   5.607  0.7147  3.0576 -1.5743
20449SOL    HW263355   2.362   7.285   5.587  1.8177 -0.5727 -1.6279
20450SOL     OW63356   6.600   8.365   6.143 -0.2202  0.4397 -0.3567
20450SOL    HW163357   6.538   8.303   6.181  1.1061 -1.1576 -0.6763
20450SOL    HW263358   6.579   8.366   6.050 -0.5600  0.8503 -0.2747
20451SOL     OW63359   2.555   8.923   5.587 -0.8416 -0.1568 -0.2699
20451SOL    HW163360   2.643   8.947   5.559 -0.5127  1.7032  2.0462
20451SOL    HW263361   2.499   8.993   5.554 -0.7519  0.9348  1.7424
20452SOL     OW63362   9.580   9.530   2.344  0.3429 -0.0841 -0.5104
20452SOL    HW163363   9.550   9.458   2.399  0.6573 -1.0908 -1.6134
20452SOL    HW263364   9.602   9.600   2.406 -2.2406 -0.0297  0.4590
20453SOL     OW63365   6.994   5.724   2.086 -0.7444 -0.0145 -0.5029
20453SOL    HW163366   6.912   5.751   2.129  0.2196  0.9610  0.8247
20453SOL    HW263367   7.041   5.675   2.154  0.2001  0.3045 -0.9128
20454SOL     OW63368   5.140   2.192   2.646 -0.0515  0.1453  0.4214
20454SOL    HW163369   5.206   2.223   2.584  0.3763 -1.8436 -0.1821
20454SOL    HW263370   5.123   2.102   2.621 -0.0044 -0.7048  3.0938
20455SOL     OW63371   8.256   7.038   4.194 -0.1540 -0.1224  0.4374
20455SOL    HW163372   8.187   7.035   4.260 -1.1572 -0.6157 -0.5940
20455SOL    HW263373   8.226   7.103   4.131  2.8143  3.6621  2.5137
20456SOL     OW63374   1.495   3.934   2.189  0.4032  0.2458 -0.3105
20456SOL    HW163375   1.582   3.974   2.196 -0.0862  1.3033 -0.1096
20456SOL    HW263376   1.441   3.982   2.251  0.2439 -2.0803  1.4767
20457SOL     OW63377  10.275   5.489   1.335  0.0972 -0.3031  0.1980
20457SOL    HW163378  10.280   5.418   1.399  1.6828  0.3828  0.8934
20457SOL    HW263379  10.186   5.524   1.345  0.1501 -0.5154  1.7097
20458SOL     OW63380   7.663   7.917   8.011  0.0618  0.1365 -0.1860
20458SOL    HW163381   7.621   7.831   8.006  1.8031 -0.6973 -1.7055
20458SOL    HW263382   7.590   7.978   8.021 -1.4703 -1.2909 -1.8994
20459SOL     OW63383   3.093   3.064   1.888 -0.5825 -0.0471  0.2193
20459SOL    HW163384   3.168   3.118   1.865 -0.3654  0.4603  1.9739
20459SOL    HW263385   3.047   3.115   1.954 -1.8710 -0.8500 -0.0292
20460SOL     OW63386   1.729   7.007   6.292 -0.2726 -0.2575  0.4094
20460SOL    HW163387   1.687   6.992   6.377  0.5168 -0.7546  0.7177
20460SOL    HW263388   1.822   6.994   6.309  0.1175  1.5414 -0.0914
20461SOL     OW63389   1.697   6.040   6.403  0.2477  0.0710  0.3615
20461SOL    HW163390   1.614   6.001   6.375  0.5574 -1.1678  1.1173
20461SOL    HW263391   1.673   6.095   6.478  0.2329 -1.0895  1.2318
20462SOL     OW63392   9.205   5.625   8.977  0.4334 -0.1232 -0.1067
20462SOL    HW163393   9.115   5.602   8.995  0.4681 -0.3683 -0.2442
20462SOL    HW263394   9.257   5.573   9.038  0.4981 -0.2051 -0.2318
20463SOL     OW63395   6.308  10.351   4.839 -0.4237 -0.3689 -0.1591
20463SOL    HW163396   6.283  10.276   4.892  2.2881 -1.9128 -0.9171
20463SOL    HW263397   6.346  10.313   4.759  0.1078  1.8189 -1.0260
20464SOL     OW63398   4.395   9.255   6.192 -0.2995  0.0139  0.2041
20464SOL    HW163399   4.363   9.175   6.149  2.1118 -1.6937  1.3221
20464SOL    HW263400   4.344   9.326   6.152 -1.4409 -1.9033 -2.0103
20465SOL     OW63401   2.280   3.536   2.839 -0.5576  0.4109 -0.4314
20465SOL    HW163402   2.307   3.503   2.753  0.9264 -0.9649  0.5039
20465SOL    HW263403   2.185   3.545   2.832 -0.6321 -0.9883 -1.7993
20466SOL     OW63404   5.564   4.950  10.308 -0.3762 -0.1330  0.2509
20466SOL    HW163405   5.546   5.037  10.343 -2.9312 -0.3412 -0.3926
20466SOL    HW263406   5.547   4.891  10.382  3.1834 -0.1175  1.2889
20467SOL     OW63407   9.289   7.714   1.572 -0.4134  0.0287 -0.1443
20467SOL    HW163408   9.271   7.759   1.489  0.7847  0.5306 -0.1373
20467SOL    HW263409   9.229   7.638   1.570  1.9346 -2.0100 -3.1182
20468SOL     OW63410   6.779  10.295   8.712  0.1649  0.5235 -0.1369
20468SOL    HW163411   6.699  10.264   8.756  0.7292  1.4478  1.6535
20468SOL    HW263412   6.805  10.223   8.655 -0.9174 -0.5334  0.6637
20469SOL     OW63413   9.118   1.571   8.273 -0.2891  0.9388 -0.1304
20469SOL    HW163414   9.133   1.540   8.183  0.4167 -0.6506  0.5024
20469SOL    HW263415   9.053   1.510   8.308  0.2845  0.8614  0.7999
20470SOL     OW63416   3.139   7.943   8.859  0.7666  0.1164  0.5870
20470SOL    HW163417   3.090   7.965   8.780  1.5034 -0.9280 -0.1802
20470SOL    HW263418   3.104   7.858   8.886  1.5173 -0.2154  0.5415
20471SOL     OW63419   3.192   5.382   3.026 -0.3979  0.1271 -0.7511
20471SOL    HW163420   3.222   5.371   3.116  0.5951  2.8840 -0.6576
20471SOL    HW263421   3.173   5.293   2.996 -1.6002 -0.8280  2.4216
20472SOL     OW63422   4.295  10.850   7.918 -0.1494  0.2864 -0.2117
20472SOL    HW163423   4.242  10.850   7.838  1.9939 -0.7445 -1.7525
20472SOL    HW263424   4.352  10.927   7.908 -0.0707  0.3255  0.4870
20473SOL     OW63425   6.770   4.119  10.731  0.7746 -0.4657  0.2283
20473SOL    HW163426   6.805   4.120  10.821  1.3556 -0.9814  0.0172
20473SOL    HW263427   6.691   4.065  10.737  0.6935 -0.3246  0.4672
20474SOL     OW63428  10.854   5.073   9.408 -0.0725 -0.3022  0.0293
20474SOL    HW163429  10.841   4.991   9.360 -5.2632  0.7105 -0.9636
20474SOL    HW263430  10.857   5.140   9.339 -0.6464  0.6307  0.8871
20475SOL     OW63431   4.828   8.296   7.983 -0.3734  0.7723  0.7038
20475SOL    HW163432   4.857   8.216   7.940 -0.2394  1.4174 -0.4491
20475SOL    HW263433   4.737   8.307   7.956  0.0340  1.7631 -0.3492
20476SOL     OW63434   5.681   5.336   8.132  0.3580 -0.1774  0.3849
20476SOL    HW163435   5.674   5.399   8.204  0.9400  0.7816 -0.3713
20476SOL    HW263436   5.771   5.344   8.102  0.1456 -0.6266 -0.3967
20477SOL     OW63437   6.520   2.371   6.441 -0.0797 -0.4282 -0.3003
20477SOL    HW163438   6.453   2.430   6.477  0.3969  0.0620 -0.2017
20477SOL    HW263439   6.595   2.383   6.499 -0.9740 -3.5724  1.7835
20478SOL     OW63440   0.310   2.415   6.345 -0.1458 -0.1478  0.1918
20478SOL    HW163441   0.302   2.329   6.304  0.6385  0.0722 -0.4448
20478SOL    HW263442   0.240   2.418   6.409 -1.0891 -0.7103 -0.7807
20479SOL     OW63443   9.778   2.169   3.300  0.3136  0.3258 -0.4913
20479SOL    HW163444   9.851   2.229   3.316  0.5454 -0.0404 -0.1519
20479SOL    HW263445   9.820   2.088   3.271  0.4543 -1.3296  3.5898
20480SOL     OW63446   3.887   9.280   0.015 -0.2344 -0.0322  0.6959
20480SOL    HW163447   3.959   9.242   0.065  0.2917 -0.4034 -0.3089
20480SOL    HW263448   3.893   9.373   0.033  0.7303 -0.0102  0.3641
20481SOL     OW63449   5.034   7.606   3.107  0.4162  0.1390  0.1254
20481SOL    HW163450   5.115   7.642   3.073 -0.5113  2.4531  0.1493
20481SOL    HW263451   4.977   7.597   3.031  0.1076  0.2417  0.3389
20482SOL     OW63452   6.485   4.874   4.412  0.3520  0.0035  0.2209
20482SOL    HW163453   6.488   4.970   4.418  0.1417  0.0375 -0.2019
20482SOL    HW263454   6.576   4.847   4.409  0.4123  0.3127 -1.4715
20483SOL     OW63455   8.275   6.921   3.676  0.7269 -0.1160  0.0456
20483SOL    HW163456   8.209   6.883   3.618  0.7208  1.4435 -1.0167
20483SOL    HW263457   8.270   6.868   3.756 -2.0023  0.1178  0.1122
20484SOL     OW63458   1.474   2.803   5.520 -0.3264  0.3198  0.3784
20484SOL    HW163459   1.487   2.826   5.612 -1.4697  2.5830  0.0468
20484SOL    HW263460   1.393   2.751   5.520  0.1412 -0.4277  0.7182
20485SOL     OW63461   9.556  11.093   4.555  0.5414 -0.3273  0.9935
20485SOL    HW163462   9.627  11.156   4.549 -0.4482  0.6850 -0.5798
20485SOL    HW263463   9.481  11.144   4.585 -0.9385 -0.1004 -2.6993
20486SOL     OW63464   8.151   5.876   4.949  0.3682  0.0913 -0.0829
20486SOL    HW163465   8.178   5.949   4.892  2.3882  0.7122  1.5697
20486SOL    HW263466   8.198   5.800   4.915  0.0528  0.0353 -0.4034
20487SOL     OW63467   6.253   5.360   5.149  0.6735 -0.4572  0.5290
20487SOL    HW163468   6.282   5.344   5.239  2.1243  2.2331  0.6433
20487SOL    HW263469   6.179   5.420   5.158 -0.0262 -1.2186 -0.0491
20488SOL     OW63470   0.826   3.305   3.177 -0.1753  0.3479  0.0724
20488SOL    HW163471   0.794   3.301   3.087  0.1953  2.4897 -0.2127
20488SOL    HW263472   0.782   3.233   3.222  1.0147 -1.9746 -2.2150
20489SOL     OW63473   8.559   2.909   5.350  0.2552 -0.7575 -0.4435
20489SOL    HW163474   8.545   2.989   5.402 -1.3372 -1.1361 -0.2477
20489SOL    HW263475   8.627   2.861   5.398  0.7580  0.1698 -0.2073
20490SOL     OW63476   1.728  10.312   8.686 -0.2648  0.2732 -0.3627
20490SOL    HW163477   1.632  10.307   8.694 -0.2633 -0.8463 -0.8504
20490SOL    HW263478   1.758  10.343   8.772 -0.9315 -1.3080  0.4823
20491SOL     OW63479   5.993   4.180  10.466 -0.5236  0.0597 -0.3253
20491SOL    HW163480   6.026   4.094  10.493  1.3369  1.4713  2.2863
20491SOL    HW263481   6.044   4.201  10.387 -0.1011 -0.6965 -0.2614
20492SOL     OW63482   5.292   7.152   3.668 -0.0936 -0.1514  0.4126
20492SOL    HW163483   5.249   7.235   3.686  0.1835 -0.3053  1.9284
20492SOL    HW263484   5.224   7.086   3.682 -0.4805 -0.1860 -1.3756
20493SOL     OW63485  10.432   0.002  10.259  0.0341 -0.0532 -0.0126
20493SOL    HW163486  10.357   0.045  10.219 -0.0896  0.4264  0.7180
20493SOL    HW263487  10.453  -0.070  10.199 -1.3372 -0.5333  0.0491
20494SOL     OW63488   7.077   2.464   4.659 -0.1200 -0.0723 -0.3885
20494SOL    HW163489   7.001   2.520   4.641 -0.8868 -1.3041 -1.1172
20494SOL    HW263490   7.078   2.401   4.587  0.9245 -0.7952  0.2313
20495SOL     OW63491   8.857   7.743   8.369  0.0768 -0.3413 -0.1418
20495SOL    HW163492   8.840   7.836   8.351  0.9255 -0.3391 -1.0349
20495SOL    HW263493   8.948   7.730   8.342  0.0823 -1.3499  0.3266
20496SOL     OW63494   1.967   0.758   4.027  0.0484 -0.1048 -0.2877
20496SOL    HW163495   1.902   0.723   4.088  1.2529 -1.2906  0.3758
20496SOL    HW263496   1.915   0.790   3.953 -1.3001 -0.8393  0.2918
20497SOL     OW63497   3.632   5.381   6.283  0.0120 -0.2898 -0.3411
20497SOL    HW163498   3.607   5.314   6.218 -0.5955  0.7351 -1.1909
20497SOL    HW263499   3.656   5.457   6.230 -2.4771  1.2922  0.6365
20498SOL     OW63500   1.693   1.636   9.221  0.7603  0.4472  0.3975
20498SOL    HW163501   1.770   1.680   9.256  0.2286  0.3336  1.7721
20498SOL    HW263502   1.724   1.550   9.193  1.1334  0.3789  1.0024
20499SOL     OW63503   2.886   3.845   6.067  0.0621  0.1519  0.3535
20499SOL    HW163504   2.878   3.873   6.158  3.4484  1.3245  0.4187
20499SOL    HW263505   2.907   3.752   6.072 -0.1405  0.1236  0.7399
20500SOL     OW63506   2.885   0.945   9.825 -0.3901  0.3594 -0.8050
20500SOL    HW163507   2.966   0.913   9.866 -1.5133 -0.9226  0.5317
20500SOL    HW263508   2.857   1.016   9.882 -0.2074  0.8197 -1.2826
20501SOL     OW63509   1.724   1.855   6.501 -0.4883  0.2883 -0.3674
20501SOL    HW163510   1.716   1.807   6.418  0.6434  3.3498 -2.4408
20501SOL    HW263511   1.817   1.849   6.523 -0.8976 -1.0702  1.1143
20502SOL     OW63512   9.189   9.188   5.362  0.2701 -0.7085 -0.1787
20502SOL    HW163513   9.152   9.177   5.450 -1.1701 -2.2449 -0.9160
20502SOL    HW263514   9.259   9.122   5.357  0.2780 -0.6984 -0.2102
20503SOL     OW63515   7.916   3.661   4.809 -0.2764  0.5534 -0.0095
20503SOL    HW163516   7.948   3.635   4.722 -0.8891  1.5700 -0.5560
20503SOL    HW263517   7.911   3.756   4.805 -0.6580  0.5867  1.0309
20504SOL     OW63518   4.497   0.270   0.480 -0.6333 -0.1980 -0.4550
20504SOL    HW163519   4.557   0.262   0.405 -0.4451 -0.7527 -0.2534
20504SOL    HW263520   4.435   0.338   0.454 -0.5498 -0.3591 -1.1054
20505SOL     OW63521   7.880   3.058  10.295 -0.0392  0.1441 -0.8683
20505SOL    HW163522   7.882   3.133  10.235 -2.3866 -0.5688 -1.9698
20505SOL    HW263523   7.802   3.072  10.348  0.9298 -0.2507  0.7077
20506SOL     OW63524   6.088   3.609   0.158  0.8834  0.5508 -0.8794
20506SOL    HW163525   5.995   3.601   0.181  1.4491  0.1853  1.5833
20506SOL    HW263526   6.090   3.597   0.063 -1.5162  0.0211 -0.9382
20507SOL     OW63527   7.117   2.992   7.392 -0.1673 -0.1690 -0.1993
20507SOL    HW163528   7.036   3.043   7.390 -0.1370 -0.0626  0.6957
20507SOL    HW263529   7.185   3.056   7.412  0.0244 -0.3859 -0.1577
20508SOL     OW63530   5.582   7.409   2.574  0.4559  0.1398 -0.8805
20508SOL    HW163531   5.533   7.329   2.595  2.9152 -1.5142 -1.0520
20508SOL    HW263532   5.523   7.459   2.518 -1.2842 -1.4060 -0.5359
20509SOL     OW63533   6.872   1.453   7.052 -0.4194  0.1887 -0.3702
20509SOL    HW163534   6.778   1.440   7.070  0.2322 -2.0587  1.9758
20509SOL    HW263535   6.874   1.529   6.993 -3.5606  1.6891  1.1795
20510SOL     OW63536   0.217   1.555   8.632  0.2348 -0.4169  0.5794
20510SOL    HW163537   0.142   1.611   8.654 -0.0809 -0.7140  0.2715
20510SOL    HW263538   0.178   1.474   8.599  0.6636 -1.1363  1.7455
20511SOL     OW63539  10.945   9.325   9.696 -0.1313 -0.3943  0.0451
20511SOL    HW163540  10.988   9.399   9.739  2.5935 -1.1707 -1.1101
20511SOL    HW263541  10.953   9.344   9.602 -2.8380 -0.3922 -0.2729
20512SOL     OW63542   8.033   6.311   3.664 -0.6744 -0.3942 -0.2314
20512SOL    HW163543   8.066   6.285   3.749  0.7363  1.7824 -0.0190
20512SOL    HW263544   7.950   6.356   3.682 -1.6321 -2.0645 -0.3094
20513SOL     OW63545   5.764   1.168   4.837  0.5250  0.0754 -0.7064
20513SOL    HW163546   5.686   1.193   4.788  1.0666  0.4342 -1.4099
20513SOL    HW263547   5.781   1.243   4.894  1.1497  0.6021 -1.5641
20514SOL     OW63548   1.205   4.732  10.246  0.0617  0.1945  0.2138
20514SOL    HW163549   1.256   4.789  10.304  1.4412 -0.1802 -0.5829
20514SOL    HW263550   1.127   4.783  10.225 -0.0360  0.6899  1.6740
20515SOL     OW63551   3.397   4.463   2.639 -0.1447 -0.3971  0.5629
20515SOL    HW163552   3.411   4.438   2.548 -0.7449 -0.9100  0.6073
20515SOL    HW263553   3.343   4.542   2.635 -0.5065 -0.6495  0.4845
20516SOL     OW63554   9.390   4.751   6.320 -0.4916 -0.4950 -0.0308
20516SOL    HW163555   9.335   4.677   6.295 -1.2151 -0.1453  0.5122
20516SOL    HW263556   9.408   4.796   6.237 -0.1821 -1.1762 -0.3442
20517SOL     OW63557   1.417   1.041   3.834  0.1590  0.3119  0.6465
20517SOL    HW163558   1.463   1.008   3.911  0.9254  0.8766  0.4452
20517SOL    HW263559   1.409   0.964   3.777  0.9416  0.2217  0.6474
20518SOL     OW63560   0.292   0.703   9.383 -0.1076 -0.0381  0.7201
20518SOL    HW163561   0.337   0.777   9.344  0.2631 -1.2688 -1.2852
20518SOL    HW263562   0.243   0.741   9.457  1.1807  1.9263  0.6255
20519SOL     OW63563   9.882   2.334  10.342 -0.4332 -0.3203 -0.1884
20519SOL    HW163564   9.854   2.409  10.291 -3.2076 -0.2777  1.2094
20519SOL    HW263565   9.833   2.260  10.306 -1.0528 -0.6111  1.1808
20520SOL     OW63566   7.333   1.405   4.653 -0.1444 -0.2487 -0.5518
20520SOL    HW163567   7.414   1.401   4.704 -0.4839  0.2191  0.0199
20520SOL    HW263568   7.341   1.485   4.602 -0.2259 -0.2332 -0.5395
20521SOL     OW63569   9.014   7.100   8.317 -0.5915  0.0274  0.2742
20521SOL    HW163570   9.096   7.074   8.361 -0.5308 -3.3533 -1.5001
20521SOL    HW263571   9.042   7.162   8.250  0.6086 -1.1683 -0.3838
20522SOL     OW63572   4.964   6.857   2.060 -0.4824  0.5168  0.0916
20522SOL    HW163573   4.966   6.952   2.072 -0.9676  0.6436 -0.7417
20522SOL    HW263574   4.871   6.835   2.069 -0.5689  0.3281 -1.1319
20523SOL     OW63575   8.246  11.015   3.037  0.1097  0.0669 -0.1246
20523SOL    HW163576   8.308  11.065   2.985 -1.5670  2.4809  0.0338
20523SOL    HW263577   8.208  11.078   3.098 -0.6236 -1.8774  1.5893
20524SOL     OW63578   4.023   7.470   3.875 -0.0967 -0.2002 -0.2736
20524SOL    HW163579   4.096   7.410   3.864 -0.9488 -1.2881 -0.1387
20524SOL    HW263580   3.947   7.414   3.891 -0.7522  0.9375  0.8342
20525SOL     OW63581   6.833   1.633   1.713 -0.2230  0.0388  0.0642
20525SOL    HW163582   6.801   1.638   1.803 -0.1018  0.7772  0.0758
20525SOL    HW263583   6.910   1.690   1.712  0.6140 -1.0519 -0.1621
20526SOL     OW63584  10.893   0.556   4.227  0.0149 -0.0143 -0.1049
20526SOL    HW163585  10.919   0.648   4.228  0.7230 -0.1863 -1.6790
20526SOL    HW263586  10.809   0.555   4.274  0.0927  1.3892  0.0997
20527SOL     OW63587   6.510  10.926   2.082  0.1782 -0.0197 -0.1918
20527SOL    HW163588   6.600  10.894   2.084  1.3854  3.0110  1.8312
20527SOL    HW263589   6.480  10.921   2.173 -2.0966 -1.7239 -0.9284
20528SOL     OW63590   9.588   7.863  10.715  0.1196 -0.1668 -0.2176
20528SOL    HW163591   9.634   7.794  10.763  2.0808  2.1672  1.4714
20528SOL    HW263592   9.585   7.937  10.775 -0.4335  1.7955 -2.4964
20529SOL     OW63593   4.181   7.656   1.264 -0.3780  0.0043  0.2878
20529SOL    HW163594   4.118   7.726   1.280 -1.0927  0.0210 -2.1994
20529SOL    HW263595   4.263   7.700   1.242 -0.4810  0.0593  0.0057
20530SOL     OW63596   6.368   0.700   1.503  0.3441  0.3092 -0.3429
20530SOL    HW163597   6.361   0.714   1.409  1.2098  1.3128 -0.2810
20530SOL    HW263598   6.422   0.622   1.513  0.1055  0.1027 -0.6763
20531SOL     OW63599   3.820   2.722   1.731  0.5084 -0.5582  0.0300
20531SOL    HW163600   3.725   2.717   1.742  0.2970 -2.7387 -1.8408
20531SOL    HW263601   3.833   2.792   1.667  0.0208 -0.9733 -0.5406
20532SOL     OW63602   2.256   7.731   8.117  0.8524 -0.0724  0.6884
20532SOL    HW163603   2.329   7.762   8.063  0.2295 -0.4504 -0.3976
20532SOL    HW263604   2.180   7.737   8.060 -0.3464  2.0822  2.3624
20533SOL     OW63605   9.063   5.568   7.756 -0.2331  0.6850 -1.0303
20533SOL    HW163606   9.026   5.501   7.814 -0.1398 -0.8066 -2.6299
20533SOL    HW263607   9.108   5.629   7.816 -0.6899 -0.4178  0.5037
20534SOL     OW63608   4.660   4.423   5.349  0.0308 -0.8273  1.2818
20534SOL    HW163609   4.602   4.495   5.374  0.5061  0.5330 -1.2464
20534SOL    HW263610   4.727   4.422   5.417 -0.8010  0.1328  2.1519
20535SOL     OW63611   3.828   1.877   7.349 -0.3898 -0.4843 -0.3367
20535SOL    HW163612   3.893   1.927   7.299 -2.3878  1.6054 -0.9970
20535SOL    HW263613   3.832   1.789   7.311  3.0759 -0.9320  0.7003
20536SOL     OW63614   4.765   5.718   9.881 -0.0239  0.2150 -0.4907
20536SOL    HW163615   4.729   5.806   9.864  0.8480  0.5882 -0.4600
20536SOL    HW263616   4.761   5.674   9.796 -1.3536 -0.0585 -0.2995
20537SOL     OW63617   7.821   0.530   1.460 -0.3961 -0.1595 -0.3541
20537SOL    HW163618   7.817   0.490   1.547 -0.1165  1.8355  0.6329
20537SOL    HW263619   7.897   0.489   1.419  0.3120 -0.1731  0.8965
20538SOL     OW63620   3.657   3.533   2.204  0.7138 -0.1280  0.3378
20538SOL    HW163621   3.635   3.450   2.162  0.6933  0.6181 -1.2285
20538SOL    HW263622   3.585   3.591   2.181  1.1717  0.5669  0.6219
20539SOL     OW63623   7.564   6.654   6.125  0.0888  0.3552 -0.5386
20539SOL    HW163624   7.476   6.636   6.092 -0.2502 -0.5364  0.7810
20539SOL    HW263625   7.575   6.595   6.200  0.8305  2.2397  0.9123
20540SOL     OW63626   1.919   0.658  11.024 -0.4097 -0.2182 -0.6590
20540SOL    HW163627   1.842   0.602  11.028  1.0751 -2.5599 -2.1642
20540SOL    HW263628   1.991   0.603  11.056  0.8645  1.4614 -0.4664
20541SOL     OW63629   2.718   2.667   5.012 -0.3859 -0.0311 -0.3138
20541SOL    HW163630   2.713   2.574   4.993  0.0043  0.2586 -1.9390
20541SOL    HW263631   2.647   2.682   5.075 -0.5936 -1.3648 -0.2031
20542SOL     OW63632   5.676   9.314  10.499  0.0812 -0.1721  0.0235
20542SOL    HW163633   5.752   9.368  10.480  1.1858 -1.4867  0.5639
20542SOL    HW263634   5.710   9.225  10.505 -1.2555 -0.6325  1.6567
20543SOL     OW63635  10.426   7.707   3.994  0.0557  0.8188 -0.5007
20543SOL    HW163636  10.458   7.794   4.016  1.7998 -0.2309  1.4687
20543SOL    HW263637  10.338   7.722   3.959  0.0187  3.3043  0.4660
20544SOL     OW63638   4.481  10.581   8.663  0.2943 -0.3045 -0.3798
20544SOL    HW163639   4.554  10.529   8.629  0.0371  1.4168 -3.9351
20544SOL    HW263640   4.413  10.575   8.596 -0.0327  3.8722 -0.6876
20545SOL     OW63641  10.144   4.265   5.152  0.4037 -0.1187 -0.3245
20545SOL    HW163642  10.106   4.289   5.067  0.5048  0.2417 -0.2684
20545SOL    HW263643  10.157   4.348   5.197  0.2161 -0.3185  0.1055
20546SOL     OW63644   3.397   5.934   2.215  0.3190 -0.5990 -0.2426
20546SOL    HW163645   3.372   5.952   2.124  0.5362 -1.9835 -0.6091
20546SOL    HW263646   3.338   5.863   2.241 -0.5757  0.6107  1.1276
20547SOL     OW63647   2.223   2.281   3.081  0.5256 -0.0424 -1.3240
20547SOL    HW163648   2.294   2.321   3.031  1.9969  0.0726  0.7335
20547SOL    HW263649   2.242   2.187   3.079  1.5221  0.1019  0.3163
20548SOL     OW63650   7.315   5.385  10.083 -0.3699  0.0373  0.1012
20548SOL    HW163651   7.326   5.320  10.014  0.9509 -1.6358  1.7986
20548SOL    HW263652   7.328   5.469  10.039  0.6303 -0.9778 -1.6513
20549SOL     OW63653   0.267   7.997   3.928 -0.1061  0.8404 -0.0152
20549SOL    HW163654   0.309   7.961   4.006  0.0677  3.0780  1.0088
20549SOL    HW263655   0.280   7.931   3.860  1.3153 -0.3801  1.3851
20550SOL     OW63656   4.421   5.069   4.616  0.2043  0.2302  0.5021
20550SOL    HW163657   4.352   5.108   4.669  0.8260  0.4985  1.1283
20550SOL    HW263658   4.495   5.130   4.624  0.9561 -0.7180  0.9254
20551SOL     OW63659   4.532   2.691   7.646  0.8402 -0.6715 -0.5225
20551SOL    HW163660   4.494   2.629   7.583  0.0443 -0.6251 -0.1029
20551SOL    HW263661   4.544   2.771   7.596 -3.3224  0.6133  0.1654
20552SOL     OW63662   1.461  10.355  10.315 -0.1574 -0.0328  0.0791
20552SOL    HW163663   1.486  10.320  10.400 -3.1090 -0.4833  0.8665
20552SOL    HW263664   1.401  10.427  10.335  0.7862  1.3375 -1.6392
20553SOL     OW63665   7.351   6.554   8.063  0.0738  0.5997 -0.5313
20553SOL    HW163666   7.346   6.491   8.135 -1.9446  2.0183  0.6700
20553SOL    HW263667   7.274   6.536   8.009  0.8606  0.4148 -1.6309
20554SOL     OW63668   9.971   7.447   7.828 -0.5903 -0.2807 -0.4759
20554SOL    HW163669   9.930   7.532   7.847  2.0136  0.9989 -0.1885
20554SOL    HW263670   9.993   7.452   7.735  1.6683  0.4215  0.0275
20555SOL     OW63671   1.847   4.544   4.007 -0.4985  0.0302  0.3401
20555SOL    HW163672   1.837   4.591   4.090  2.0979 -0.3794  0.9800
20555SOL    HW263673   1.806   4.600   3.942 -2.1304  0.6126  1.8086
20556SOL     OW63674   9.330   7.900   4.219 -0.2339 -0.4327  0.9673
20556SOL    HW163675   9.399   7.948   4.174  1.4657 -2.5776  1.0839
20556SOL    HW263676   9.359   7.895   4.310 -0.1902 -1.8607  0.9059
20557SOL     OW63677   1.083   9.054   4.209 -0.5261 -0.7490 -0.6363
20557SOL    HW163678   1.139   9.033   4.284  1.7843  0.4034 -1.9099
20557SOL    HW263679   1.082   9.149   4.205 -2.9213 -0.7102 -0.5024
20558SOL     OW63680   0.347   0.785   1.838 -0.1111 -0.0466 -0.3533
20558SOL    HW163681   0.436   0.758   1.818 -1.1603 -1.9975 -2.9045
20558SOL    HW263682   0.309   0.808   1.753 -1.8211  1.5630  0.7614
20559SOL     OW63683   9.854   1.326   9.545  0.1690 -0.3082 -0.0904
20559SOL    HW163684   9.855   1.325   9.641  0.8054 -1.2403 -0.0926
20559SOL    HW263685   9.857   1.233   9.521 -1.5506 -0.1691 -1.0157
20560SOL     OW63686   7.215   9.656   8.923  0.8044  0.6006 -1.0334
20560SOL    HW163687   7.229   9.749   8.944  1.6909  0.7066 -2.0248
20560SOL    HW263688   7.239   9.609   9.003 -0.6609  1.2584 -0.1520
20561SOL     OW63689   5.574   2.225   9.966  0.1168 -0.0700 -0.4473
20561SOL    HW163690   5.594   2.134   9.942 -1.2138 -0.2439 -0.9401
20561SOL    HW263691   5.541   2.265   9.886  1.1431  1.0132 -0.3615
20562SOL     OW63692   0.116   0.398   7.195 -0.1440 -0.2103  0.2667
20562SOL    HW163693   0.082   0.396   7.106 -0.6122  0.7079  0.4105
20562SOL    HW263694   0.207   0.369   7.187 -0.4303 -0.9672 -0.3778
20563SOL     OW63695   4.650   4.640   6.707  0.2606  0.0418 -0.2160
20563SOL    HW163696   4.720   4.594   6.659  0.9404 -0.5501  1.2844
20563SOL    HW263697   4.597   4.680   6.638  1.6251 -0.1456 -1.4369
20564SOL     OW63698  10.514   3.016   2.038  0.3443  0.2535 -0.3460
20564SOL    HW163699  10.597   3.058   2.012 -0.9218  2.0430 -1.7566
20564SOL    HW263700  10.517   2.930   1.997  1.6826  0.1176 -0.0178
20565SOL     OW63701   3.071   5.858   1.907  0.4000  0.0916 -0.2033
20565SOL    HW163702   3.072   5.770   1.870 -0.6567 -0.0482  0.0770
20565SOL    HW263703   3.112   5.847   1.993 -0.8427 -0.3971  0.3576
20566SOL     OW63704   7.857   3.019  10.847 -0.4231  0.0729 -0.1325
20566SOL    HW163705   7.848   2.931  10.884 -3.8202  0.0381 -0.7183
20566SOL    HW263706   7.837   3.007  10.753  0.5216  1.2617 -0.5023
20567SOL     OW63707   3.405   1.041  10.091  0.0800 -0.2162 -0.1401
20567SOL    HW163708   3.481   0.998  10.130 -0.1154  0.2823  0.8233
20567SOL    HW263709   3.396   1.000  10.005  1.9382  0.2857 -0.6232
20568SOL     OW63710   5.026   8.838   1.651 -0.0796  0.0225 -0.2138
20568SOL    HW163711   5.096   8.900   1.632  0.8880 -1.0964 -0.4039
20568SOL    HW263712   5.047   8.804   1.738  0.0234 -0.8169 -0.5495
20569SOL     OW63713   5.352  10.996   6.326 -0.5050  0.2487  0.0621
20569SOL    HW163714   5.324  10.909   6.354 -0.4693  0.3284  0.3472
20569SOL    HW263715   5.274  11.033   6.284 -0.7600  0.3755  0.6336
20570SOL     OW63716   3.768   3.328   7.531  0.0906 -0.6177  0.1474
20570SOL    HW163717   3.845   3.361   7.484  0.7895 -2.8038 -0.3724
20570SOL    HW263718   3.803   3.262   7.591 -1.4238 -2.4539 -0.8649
20571SOL     OW63719  10.686   4.243   0.957  0.3315 -0.4256  0.4803
20571SOL    HW163720  10.758   4.221   0.898  0.8343 -1.7576  1.5229
20571SOL    HW263721  10.625   4.170   0.948 -0.6281  0.4086  0.0464
20572SOL     OW63722   3.231  10.855  10.185 -0.2464 -0.5364  0.3916
20572SOL    HW163723   3.230  10.799  10.107 -1.4842 -0.3556  0.2488
20572SOL    HW263724   3.318  10.843  10.222  0.6922  0.0340 -1.4765
20573SOL     OW63725   4.667   1.590   7.130  0.5070 -0.7236  0.1598
20573SOL    HW163726   4.623   1.591   7.215  0.5303  2.4720  0.2381
20573SOL    HW263727   4.596   1.579   7.066  0.2936 -1.3425  0.4934
20574SOL     OW63728   5.377   6.521   3.262 -0.6138  0.0402  0.2320
20574SOL    HW163729   5.370   6.610   3.229 -0.8465 -0.2661 -0.5573
20574SOL    HW263730   5.287   6.487   3.259 -0.6574  0.0188  1.2428
20575SOL     OW63731   9.767   0.517   1.867  0.1487  0.5104 -0.2245
20575SOL    HW163732   9.779   0.424   1.885 -0.6282  0.5571  0.6065
20575SOL    HW263733   9.856   0.552   1.862  0.4807  0.2204  2.2931
20576SOL     OW63734   0.196   7.005   2.379  0.2237  0.2492  0.2910
20576SOL    HW163735   0.210   7.083   2.434 -0.2766 -1.3189  2.8155
20576SOL    HW263736   0.102   7.005   2.361  0.3272  0.5607 -0.2609
20577SOL     OW63737   4.105   8.341   1.940  0.1131 -0.2046 -1.2134
20577SOL    HW163738   4.169   8.320   2.007 -0.7647  2.4680  0.6212
20577SOL    HW263739   4.138   8.420   1.898 -2.0842  1.4914  0.0735
20578SOL     OW63740   9.440   8.081   1.667  0.3470  0.4248 -0.4897
20578SOL    HW163741   9.526   8.082   1.624  0.2751 -1.4170 -0.7506
20578SOL    HW263742   9.402   7.996   1.643 -0.8484  0.4984  1.0062
20579SOL     OW63743   4.104   1.634   9.111  0.4507 -0.1430 -0.1600
20579SOL    HW163744   4.168   1.677   9.054  0.7980  0.1631  0.4528
20579SOL    HW263745   4.020   1.647   9.067  0.8849 -1.1916 -1.3505
20580SOL     OW63746   5.854  10.607   2.634 -0.4604 -0.1018 -0.2379
20580SOL    HW163747   5.799  10.555   2.576  1.0482 -1.1124 -0.8103
20580SOL    HW263748   5.832  10.576   2.722  0.1900 -1.5140 -0.5534
20581SOL     OW63749  10.189   7.035   3.190  0.0457 -0.0055  0.4578
20581SOL    HW163750  10.240   6.955   3.178  0.9004  0.2233  2.1963
20581SOL    HW263751  10.163   7.032   3.282  0.9210  2.1839  0.8243
20582SOL     OW63752   6.052  10.180   4.958  0.0959 -0.1703  0.3452
20582SOL    HW163753   5.971  10.175   4.908 -0.9526  1.5950  1.7624
20582SOL    HW263754   6.078  10.088   4.970 -0.3851 -0.7016 -2.0818
20583SOL     OW63755  10.222   9.863   0.684 -0.9050 -0.3837 -0.2673
20583SOL    HW163756  10.252   9.884   0.596 -1.5952 -0.3202 -0.4972
20583SOL    HW263757  10.139   9.816   0.671  0.7424 -3.6580  0.2209
20584SOL     OW63758   1.088   5.717   4.355  0.8189 -0.1176  0.1006
20584SOL    HW163759   1.024   5.737   4.423 -0.6247  0.9028 -1.4771
20584SOL    HW263760   1.040   5.726   4.273  3.2905  2.0888 -1.2732
20585SOL     OW63761   1.207   4.605   1.516 -0.5569  0.2257  0.3100
20585SOL    HW163762   1.159   4.608   1.433  1.2243  4.1163 -0.7515
20585SOL    HW263763   1.142   4.630   1.581 -1.3564 -0.3551 -0.2407
20586SOL     OW63764   3.857   7.442  10.310 -0.9383  0.1124  0.6782
20586SOL    HW163765   3.763   7.428  10.302 -0.8700  0.0201 -0.0236
20586SOL    HW263766   3.865   7.532  10.343 -1.2731  0.0160  1.0337
20587SOL     OW63767   7.768   7.169  11.047 -0.2991  0.1907 -0.8202
20587SOL    HW163768   7.758   7.264  11.051 -2.2760  0.1485 -2.7195
20587SOL    HW263769   7.682   7.135  11.071  0.3397 -1.1422 -0.3019
20588SOL     OW63770   3.006   1.031   7.305  0.0740  0.2767 -0.3224
20588SOL    HW163771   3.072   0.985   7.254  0.8702  0.1054  0.8383
20588SOL    HW263772   3.023   1.006   7.396 -0.6087  1.4453  0.1532
20589SOL     OW63773   9.439   9.615   4.514  0.2587 -0.1174  0.1285
20589SOL    HW163774   9.515   9.559   4.531  1.0649  0.2678 -1.9494
20589SOL    HW263775   9.454   9.650   4.426 -2.4355 -0.1946 -0.4455
20590SOL     OW63776   2.898   9.433   2.742 -0.0987 -0.1622  0.1389
20590SOL    HW163777   2.850   9.350   2.743 -0.4411  0.0234 -0.5102
20590SOL    HW263778   2.986   9.410   2.769 -0.9829 -0.2170  3.3697
20591SOL     OW63779   4.510   5.823   0.263 -0.3895 -0.0679 -0.5340
20591SOL    HW163780   4.543   5.754   0.205 -0.6443 -1.1699  0.5828
20591SOL    HW263781   4.472   5.888   0.204  1.3932 -0.0404 -1.7072
20592SOL     OW63782   9.335   9.201   6.933  0.0217 -0.0658  0.0192
20592SOL    HW163783   9.344   9.121   6.881  0.4463  1.0741 -1.7472
20592SOL    HW263784   9.416   9.249   6.917  0.3972  0.1269  2.1836
20593SOL     OW63785   9.691   6.402   9.907 -0.6087  0.0103  0.2015
20593SOL    HW163786   9.599   6.385   9.923 -0.9684  0.6705 -1.0477
20593SOL    HW263787   9.692   6.474   9.845  0.7222 -0.8509 -0.8290
20594SOL     OW63788   1.480   7.680  11.004  0.5064  0.3543 -0.1861
20594SOL    HW163789   1.402   7.699  10.953 -0.4706 -0.7649  0.8146
20594SOL    HW263790   1.551   7.721  10.955 -0.5183  0.2910 -1.8278
20595SOL     OW63791   4.419   2.212   3.899  0.1423  0.3537 -0.3812
20595SOL    HW163792   4.388   2.123   3.882 -0.3394  0.8865 -2.6466
20595SOL    HW263793   4.443   2.212   3.991  2.0525 -2.6786 -0.7428
20596SOL     OW63794   4.846   7.250   7.025  0.2617  0.2621 -0.9458
20596SOL    HW163795   4.938   7.275   7.018  0.3218 -0.0847 -1.4777
20596SOL    HW263796   4.809   7.310   7.090  1.3383 -0.9318  0.8807
20597SOL     OW63797  10.073   0.513  10.575  0.1606  0.1975 -0.2736
20597SOL    HW163798  10.097   0.588  10.630  0.8200 -0.0419 -0.2154
20597SOL    HW263799  10.132   0.443  10.603 -0.2157 -0.2435 -0.5601
20598SOL     OW63800   6.967   7.699  10.982  0.3618 -0.6863 -0.8067
20598SOL    HW163801   7.038   7.756  11.011 -0.7038  0.8824 -1.0900
20598SOL    HW263802   6.937   7.655  11.061  1.0921 -0.6971 -0.5358
20599SOL     OW63803   3.658   4.244   6.497 -0.3540 -0.3843  0.6751
20599SOL    HW163804   3.661   4.323   6.443  1.9194  0.0813  1.3656
20599SOL    HW263805   3.601   4.184   6.448 -1.2249  1.2542 -0.4286
20600SOL     OW63806   9.364   6.639   0.869 -0.0206  0.2724  0.4281
20600SOL    HW163807   9.443   6.686   0.841  0.5260 -0.3411  0.8844
20600SOL    HW263808   9.356   6.660   0.962 -0.2643  0.1489  0.4350
20601SOL     OW63809   3.787   8.614   0.866 -0.6577  0.3199  0.2476
20601SOL    HW163810   3.858   8.664   0.907 -1.5768 -0.8312  3.5983
20601SOL    HW263811   3.752   8.673   0.799  1.6181  2.0331  0.4290
20602SOL     OW63812   7.562   9.058   4.771  0.3487  0.1007  0.3547
20602SOL    HW163813   7.606   9.139   4.796 -0.1911  0.4392  0.2408
20602SOL    HW263814   7.517   9.080   4.689  1.3426 -0.7251 -0.4290
20603SOL     OW63815   9.550   9.585   0.859  0.2640  0.2463  0.4239
20603SOL    HW163816   9.478   9.571   0.919  0.6385  1.7154  1.2582
20603SOL    HW263817   9.516   9.557   0.774 -0.5394 -1.1001  1.1583
20604SOL     OW63818   1.028   3.187   9.067  0.5187 -0.2068  0.1701
20604SOL    HW163819   1.007   3.146   8.984  0.2597  0.9716 -0.3615
20604SOL    HW263820   1.110   3.234   9.051 -1.6824  3.6999 -0.7995
20605SOL     OW63821   5.200   7.471   0.214 -0.5986 -0.6176  0.0815
20605SOL    HW163822   5.286   7.428   0.215 -0.7423 -0.9030  0.4966
20605SOL    HW263823   5.168   7.457   0.124  0.6587  1.2849 -0.7354
20606SOL     OW63824   2.753   6.896   2.181  0.0304  0.3252 -0.2042
20606SOL    HW163825   2.691   6.843   2.231 -0.9883  0.7923 -0.9319
20606SOL    HW263826   2.837   6.883   2.225 -0.6909  0.1521  1.1691
20607SOL     OW63827   6.695   1.919   4.697 -0.7184  0.3262 -0.4642
20607SOL    HW163828   6.694   1.844   4.756 -2.0140  1.3241  0.8487
20607SOL    HW263829   6.609   1.916   4.653  0.2818 -0.5141 -2.5378
20608SOL     OW63830   9.291   7.246   1.855 -0.0987 -0.0233 -0.2713
20608SOL    HW163831   9.288   7.164   1.905 -1.4951  0.3184  0.2579
20608SOL    HW263832   9.362   7.296   1.893 -0.5018 -0.1904  0.7260
20609SOL     OW63833   3.896   5.650   9.499  0.0407  0.6894 -0.2082
20609SOL    HW163834   3.894   5.721   9.564  0.9709  0.6309 -0.1089
20609SOL    HW263835   3.984   5.654   9.462 -0.1961  0.1499 -0.8424
20610SOL     OW63836   6.444   6.470   8.316  0.6691 -0.4225 -0.6522
20610SOL    HW163837   6.441   6.406   8.386  2.7471  1.2083  1.0657
20610SOL    HW263838   6.413   6.423   8.238 -3.7389 -1.7917  1.5935
20611SOL     OW63839   6.099  10.075   5.672 -0.7277 -0.3551 -0.2755
20611SOL    HW163840   6.031  10.127   5.716  0.4469  0.8086  0.2331
20611SOL    HW263841   6.180  10.097   5.718  0.5372  0.6867 -2.7694
20612SOL     OW63842   4.298   0.282  10.619  0.2839 -0.2191  0.2687
20612SOL    HW163843   4.275   0.278  10.526  2.6758 -0.0803 -0.4035
20612SOL    HW263844   4.251   0.358  10.653  2.4138  2.2407 -1.8527
20613SOL     OW63845   1.483   6.229   7.190  0.3347  0.0045 -0.8231
20613SOL    HW163846   1.446   6.256   7.274 -1.3363 -1.1770 -1.1191
20613SOL    HW263847   1.568   6.191   7.212 -0.5055 -1.2210  0.5033
20614SOL     OW63848   7.126   4.208   6.427 -0.1060 -0.0746 -0.0741
20614SOL    HW163849   7.041   4.218   6.470 -0.0832  1.2241 -0.2848
20614SOL    HW263850   7.111   4.239   6.338  0.3608 -0.7479 -0.3924
20615SOL     OW63851  11.039   1.828   5.315 -0.0096 -0.0588 -0.1527
20615SOL    HW163852  10.987   1.762   5.269  0.9989  0.0919 -1.5753
20615SOL    HW263853  11.059   1.788   5.400 -0.1371 -1.2234 -0.6557
20616SOL     OW63854   2.927   5.877   9.498 -0.0094  0.0517 -0.1159
20616SOL    HW163855   2.855   5.833   9.543 -0.6909  0.0696 -1.1552
20616SOL    HW263856   2.901   5.969   9.496  0.8772  0.3520  1.0432
20617SOL     OW63857   0.741   1.699   8.535 -0.6860 -0.0844 -0.5436
20617SOL    HW163858   0.672   1.634   8.523 -0.4303 -0.3665 -0.4852
20617SOL    HW263859   0.823   1.649   8.532 -0.4090  0.4055 -1.8088
20618SOL     OW63860   3.762   8.319   5.839 -0.3621  0.3205 -0.2084
20618SOL    HW163861   3.821   8.341   5.912 -0.2754  3.2027 -1.0136
20618SOL    HW263862   3.717   8.240   5.868  1.3787 -0.0056  1.9300
20619SOL     OW63863   7.119   2.107   8.683 -0.2179 -0.4157 -0.4467
20619SOL    HW163864   7.202   2.154   8.669 -0.2663 -0.8105 -2.2992
20619SOL    HW263865   7.133   2.022   8.641 -0.2439 -2.0466  2.5562
20620SOL     OW63866   9.227  10.870   0.793  0.1651 -0.4245  0.5772
20620SOL    HW163867   9.279  10.914   0.726 -0.9380 -1.0343 -0.7500
20620SOL    HW263868   9.181  10.940   0.838 -0.5086 -0.0876 -0.5796
20621SOL     OW63869   7.980   4.142   0.252 -0.2987  0.3470 -0.0518
20621SOL    HW163870   7.995   4.164   0.344  0.7823  1.1864 -0.4064
20621SOL    HW263871   8.060   4.171   0.207 -0.3812 -0.9580 -1.1162
20622SOL     OW63872   3.548   8.634   9.815 -0.4361  0.2942 -0.1010
20622SOL    HW163873   3.503   8.612   9.896  0.7156 -1.0538  0.2080
20622SOL    HW263874   3.498   8.588   9.747 -0.8218  0.6165 -0.0361
20623SOL     OW63875   1.826   9.605   7.152  0.3873 -0.2720 -0.1204
20623SOL    HW163876   1.870   9.581   7.070 -0.6801  1.0042 -1.1184
20623SOL    HW263877   1.834   9.528   7.207  1.7180 -0.9347 -1.1784
20624SOL     OW63878   6.036   6.412   1.620  0.5245  0.3556  0.2284
20624SOL    HW163879   6.105   6.477   1.606  0.4827  0.2903 -0.2940
20624SOL    HW263880   6.077   6.328   1.601 -0.4026  0.4789 -3.0194
20625SOL     OW63881   7.205   0.364   2.899  0.3440  0.4120  0.5085
20625SOL    HW163882   7.275   0.412   2.944  0.6281 -0.8681  1.4630
20625SOL    HW263883   7.191   0.286   2.952 -0.6197 -0.2139 -0.6272
20626SOL     OW63884   5.795   7.541   8.543 -0.1876  0.2846 -0.0708
20626SOL    HW163885   5.760   7.460   8.506 -0.1154 -0.6796  1.8217
20626SOL    HW263886   5.882   7.518   8.573 -0.8290  0.4898  2.1287
20627SOL     OW63887   3.693   7.843  10.539 -0.0385  0.2447 -0.1152
20627SOL    HW163888   3.606   7.813  10.563 -0.5746  1.3177 -0.6414
20627SOL    HW263889   3.753   7.792  10.594 -1.0209 -0.1197  0.6342
20628SOL     OW63890   5.545   6.742  10.546  0.6774  0.3643  0.1708
20628SOL    HW163891   5.486   6.790  10.605  0.4565  0.2551  0.0388
20628SOL    HW263892   5.536   6.651  10.572  0.3285  0.2738 -0.2425
20629SOL     OW63893   4.297   1.211   8.303 -0.3463 -0.2091  0.0847
20629SOL    HW163894   4.362   1.187   8.368 -0.8364  1.0123  1.0748
20629SOL    HW263895   4.269   1.129   8.263  0.7900 -0.8611  0.6152
20630SOL     OW63896   7.753   4.579   1.132 -0.6599 -0.3613  0.4569
20630SOL    HW163897   7.726   4.670   1.117  1.5319  0.1259 -1.1153
20630SOL    HW263898   7.801   4.556   1.053  0.4011 -2.2837  1.5978
20631SOL     OW63899   4.413   7.920   0.939  0.1073 -0.0807  0.2313
20631SOL    HW163900   4.342   7.886   0.885  2.1620 -0.5566 -2.3902
20631SOL    HW263901   4.410   8.015   0.927  0.3590 -0.1599 -0.5288
20632SOL     OW63902   8.846   3.365   7.379 -0.0125  0.2359 -0.3389
20632SOL    HW163903   8.812   3.357   7.469 -2.0212 -1.4041 -1.1648
20632SOL    HW263904   8.940   3.354   7.388 -0.3965 -2.4594  1.3384
20633SOL     OW63905   0.997   8.345   0.731 -0.0090  0.2345  0.0053
20633SOL    HW163906   1.065   8.303   0.679 -1.4268  0.8324 -2.4863
20633SOL    HW263907   0.992   8.434   0.696 -1.5220  0.4447  0.6667
20634SOL     OW63908   1.978   4.357   0.174 -0.1462  0.2903 -0.4320
20634SOL    HW163909   2.064   4.379   0.138 -0.1928  0.1292 -0.6505
20634SOL    HW263910   1.997   4.308   0.254 -0.0210 -0.2446 -0.7801
20635SOL     OW63911  11.015   9.204   1.565 -0.6911 -0.0980 -0.5553
20635SOL    HW163912  10.990   9.209   1.657  1.8294  0.5564  0.1611
20635SOL    HW263913  11.076   9.130   1.560  2.1916  2.1117 -0.8187
20636SOL     OW63914   6.092   0.007   9.008  0.2080  0.0969 -0.4031
20636SOL    HW163915   6.032   0.027   8.937 -0.1760 -0.8538 -0.3618
20636SOL    HW263916   6.153   0.080   9.010  0.4928 -0.0685 -1.9966
20637SOL     OW63917   4.872   7.801   2.643 -0.2950 -0.8065 -0.3046
20637SOL    HW163918   4.870   7.725   2.700 -0.1256 -1.4816 -1.1860
20637SOL    HW263919   4.850   7.768   2.557  2.6248 -0.4203 -1.3213
20638SOL     OW63920   1.036   3.910   2.273 -0.1073 -0.4229  1.0223
20638SOL    HW163921   0.952   3.897   2.229  0.7984  2.0585 -1.7672
20638SOL    HW263922   1.096   3.852   2.226  0.1954 -0.4113  1.3938
20639SOL     OW63923   4.422   0.900   5.796 -0.9102 -0.0962  0.3586
20639SOL    HW163924   4.365   0.824   5.781 -1.0538 -0.2364  1.5143
20639SOL    HW263925   4.362   0.970   5.822 -0.4827 -0.7313  3.4187
20640SOL     OW63926  10.267   2.255  10.919  0.3133 -0.6321 -0.6855
20640SOL    HW163927  10.172   2.256  10.902  0.2108  2.1904 -0.3310
20640SOL    HW263928  10.306   2.266  10.832  0.0713  3.0175 -0.5010
20641SOL     OW63929   4.511   2.720   0.611 -0.2935  0.1569  0.7633
20641SOL    HW163930   4.481   2.763   0.691  0.8975 -0.1714  1.4033
20641SOL    HW263931   4.524   2.629   0.637 -0.0448  0.0149  0.1483
20642SOL     OW63932   4.227   2.174   0.076  0.4644  0.1397 -0.3023
20642SOL    HW163933   4.156   2.214   0.128  1.3030 -0.9945  1.8179
20642SOL    HW263934   4.233   2.230  -0.002  0.0831  2.8338  1.4506
20643SOL     OW63935   8.187   6.375   2.430 -0.5769 -0.0556 -0.6093
20643SOL    HW163936   8.228   6.365   2.516  0.0744  0.8355 -0.7962
20643SOL    HW263937   8.210   6.296   2.383 -0.0263 -0.0757 -0.3165
20644SOL     OW63938   1.322   1.550   3.484 -0.4736 -0.3947  0.0470
20644SOL    HW163939   1.318   1.580   3.393  1.1709 -0.4821 -0.0872
20644SOL    HW263940   1.415   1.556   3.507 -0.6596 -1.6872  1.2791
20645SOL     OW63941   1.084   0.642   0.227  0.2748  0.1667 -0.3238
20645SOL    HW163942   1.002   0.593   0.236  0.6963 -0.4606  0.2065
20645SOL    HW263943   1.082   0.677   0.138 -0.6924  0.3910 -0.2228
20646SOL     OW63944   2.287   5.516   8.270 -0.1446  0.4495  0.3809
20646SOL    HW163945   2.211   5.517   8.212 -0.8380 -0.8606  1.2039
20646SOL    HW263946   2.253   5.482   8.353  1.5633 -1.4942  0.3771
20647SOL     OW63947   5.409   6.314   4.915  0.2364  0.8493 -0.0904
20647SOL    HW163948   5.325   6.360   4.904 -2.0033 -2.3822  1.9727
20647SOL    HW263949   5.432   6.328   5.006  0.2264 -0.8517  0.2032
20648SOL     OW63950   6.912  11.035   9.254 -0.1367 -0.2112 -0.4406
20648SOL    HW163951   7.003  11.027   9.225 -0.3610  1.1636 -1.6217
20648SOL    HW263952   6.919  11.063   9.346  0.6186 -0.1862 -0.4958
20649SOL     OW63953   6.127   3.551   2.458 -0.2534  0.0820 -0.5349
20649SOL    HW163954   6.090   3.474   2.415  0.0973  0.8256 -2.2115
20649SOL    HW263955   6.056   3.614   2.460  0.5782  1.2088 -3.0078
20650SOL     OW63956   3.177   6.966   0.670 -0.1042 -0.2426  0.5368
20650SOL    HW163957   3.224   6.884   0.656 -1.3486 -0.8811 -0.0802
20650SOL    HW263958   3.143   6.990   0.583  0.8508  1.3289  0.5526
20651SOL     OW63959   8.667  10.156  10.036 -0.5952  0.4080  0.4111
20651SOL    HW163960   8.755  10.120  10.044 -0.8992 -0.9344 -1.6815
20651SOL    HW263961   8.647  10.191  10.124  0.5903 -2.4932  1.9568
20652SOL     OW63962   2.564   1.434   3.907 -0.4934  0.5352 -0.1499
20652SOL    HW163963   2.589   1.426   3.815  1.0031 -0.3699  0.3045
20652SOL    HW263964   2.470   1.415   3.907 -0.5760  0.7994 -1.5160
20653SOL     OW63965   1.570   0.825   0.664 -0.5958  0.0831  0.0963
20653SOL    HW163966   1.608   0.904   0.703 -0.3276  0.4511 -0.8863
20653SOL    HW263967   1.620   0.753   0.704 -0.2071  0.4585  0.3002
20654SOL     OW63968   1.260  10.431   7.264  0.0740 -0.2963 -0.6421
20654SOL    HW163969   1.203  10.468   7.332  3.6119  1.4604  1.7101
20654SOL    HW263970   1.203  10.375   7.212 -3.0654 -1.5324  3.5717
20655SOL     OW63971   6.798   2.897   7.466  0.1792 -0.8015  0.2801
20655SOL    HW163972   6.814   2.967   7.403  1.5416  0.0280  1.4554
20655SOL    HW263973   6.813   2.816   7.417  2.3828 -0.1653 -0.2244
20656SOL     OW63974   1.530   4.021   6.521  0.3165 -0.4481 -0.2051
20656SOL    HW163975   1.435   4.021   6.515  0.3939 -1.2587 -2.0953
20656SOL    HW263976   1.558   4.092   6.463  0.8629  0.6463  1.3277
20657SOL     OW63977   8.689   5.697   1.840  0.4299 -0.3379  0.6582
20657SOL    HW163978   8.626   5.650   1.785 -0.6703  0.0177  1.5686
20657SOL    HW263979   8.733   5.758   1.781  0.0223 -0.6974 -0.0235
20658SOL     OW63980   3.452   8.845  10.183 -0.1067 -0.6722  0.3503
20658SOL    HW163981   3.371   8.839  10.134 -0.0508 -0.3067  0.2110
20658SOL    HW263982   3.521   8.845  10.117 -0.0807  1.0071  0.3420
20659SOL     OW63983   2.585   0.344   9.000 -0.0989  0.3710  0.0787
20659SOL    HW163984   2.561   0.335   9.092  0.8658 -2.1429  0.1715
20659SOL    HW263985   2.508   0.383   8.959 -0.4346  1.8587  1.9648
20660SOL     OW63986   2.302   2.555   9.848  0.2909 -0.3006  0.0606
20660SOL    HW163987   2.267   2.483   9.900  1.0224 -0.2550  0.6209
20660SOL    HW263988   2.391   2.568   9.880 -0.0398  1.2860  0.4315
20661SOL     OW63989   5.591   3.215   3.910  0.2584  0.2890  0.3832
20661SOL    HW163990   5.630   3.131   3.933  1.2186  0.1717 -1.5047
20661SOL    HW263991   5.506   3.192   3.873  0.7231  0.1005 -0.5781
20662SOL     OW63992   9.267   6.804   8.748 -0.3745  0.3489 -0.1996
20662SOL    HW163993   9.214   6.736   8.706 -0.1337 -0.8141  1.2742
20662SOL    HW263994   9.206   6.852   8.803 -0.5024  1.2376 -1.0772
20663SOL     OW63995   3.154   0.136   9.938  0.1687  0.1392 -0.4273
20663SOL    HW163996   3.235   0.129   9.988  1.4624  0.3905 -2.3609
20663SOL    HW263997   3.182   0.136   9.847 -2.2262 -3.1261 -1.3617
20664SOL     OW63998   2.763   8.879  10.798 -0.7891  0.1323 -0.5382
20664SOL    HW163999   2.785   8.887  10.705  1.0569 -0.0052 -0.1524
20664SOL    HW264000   2.759   8.785  10.813  2.0175  0.0176  0.1128
20665SOL     OW64001   6.921   6.458   3.627 -0.1155 -0.2315  0.0595
20665SOL    HW164002   6.988   6.473   3.561  0.3182 -1.9684  0.0405
20665SOL    HW264003   6.893   6.367   3.611  0.3151 -0.8601  2.5080
20666SOL     OW64004   6.831   6.189   4.914  0.3363  0.0052 -0.2042
20666SOL    HW164005   6.790   6.164   4.831  0.4931 -1.1262  0.0426
20666SOL    HW264006   6.757   6.209   4.971  0.0683 -2.0643  0.2476
20667SOL     OW64007  10.291   6.357   8.134  0.0225  0.0745 -1.0941
20667SOL    HW164008  10.210   6.356   8.184  0.9875  0.6649  0.5910
20667SOL    HW264009  10.327   6.269   8.145  0.5539  0.3931 -0.1324
20668SOL     OW64010   0.809   3.778  10.600 -0.1697 -0.1555 -0.6008
20668SOL    HW164011   0.788   3.747  10.512 -1.3697  0.0778 -0.4144
20668SOL    HW264012   0.730   3.823  10.629  0.0574 -0.5902  0.7643
20669SOL     OW64013   8.034  10.336   4.265 -0.1045  0.0253 -0.1420
20669SOL    HW164014   7.990  10.335   4.180  0.2336 -1.2559 -0.3295
20669SOL    HW264015   7.965  10.317   4.329 -0.5621  2.0020  0.0167
20670SOL     OW64016   9.502   4.545   3.711 -0.0489  0.3050  0.1411
20670SOL    HW164017   9.553   4.553   3.631  0.8215 -0.4389  0.5988
20670SOL    HW264018   9.472   4.454   3.712  1.4881 -0.2384  1.5246
20671SOL     OW64019   2.690   2.382   4.859  0.0926 -0.5162 -0.1735
20671SOL    HW164020   2.682   2.294   4.895  0.8939 -1.3702 -1.9721
20671SOL    HW264021   2.784   2.394   4.843  0.2072  1.3002  1.4648
20672SOL     OW64022   0.809   9.931   5.879 -0.4991 -0.1734 -0.1676
20672SOL    HW164023   0.762  10.009   5.853 -0.9289 -0.9016 -1.6771
20672SOL    HW264024   0.742   9.872   5.912 -0.3124 -0.2839  0.0194
20673SOL     OW64025   7.372   8.268   9.303  0.2329 -0.2354 -0.0862
20673SOL    HW164026   7.463   8.243   9.319 -0.1894 -0.9694  1.4181
20673SOL    HW264027   7.339   8.295   9.389 -0.6796  1.0887 -0.8023
20674SOL     OW64028   0.952   7.929   2.498 -0.2298  0.0158 -0.5038
20674SOL    HW164029   0.873   7.925   2.443  0.1976 -3.6334 -1.0521
20674SOL    HW264030   0.958   7.842   2.538  2.2347  0.9740  1.4552
20675SOL     OW64031  10.465   1.139   0.789 -0.0187 -0.2506 -0.2534
20675SOL    HW164032  10.476   1.142   0.884  1.6445  0.2161 -0.4160
20675SOL    HW264033  10.371   1.144   0.775 -0.2436  0.7853  1.3449
20676SOL     OW64034   8.696   7.557   2.242  0.4430 -0.5374 -0.4536
20676SOL    HW164035   8.636   7.542   2.169 -0.1584  3.0202 -0.8210
20676SOL    HW264036   8.782   7.534   2.207 -0.0491 -0.6036 -1.6769
20677SOL     OW64037   9.050   4.111   3.694 -0.1131  0.2498  0.1859
20677SOL    HW164038   9.118   4.177   3.710  0.0215  0.2467 -0.3489
20677SOL    HW264039   8.978   4.136   3.752  0.0156  0.7485  0.1373
20678SOL     OW64040   6.207   1.239   3.749 -0.3009  0.4106 -0.3579
20678SOL    HW164041   6.220   1.256   3.656 -1.1686 -0.8924 -0.7349
20678SOL    HW264042   6.131   1.292   3.773 -0.4285  0.3039 -0.5270
20679SOL     OW64043   2.389   4.915   2.314 -0.3452  0.1341 -0.3188
20679SOL    HW164044   2.320   4.982   2.308 -0.0191  0.4171 -0.9707
20679SOL    HW264045   2.373   4.858   2.238  0.1015  0.1676 -0.4391
20680SOL     OW64046   7.005   8.219   0.744 -0.8856 -0.4866 -0.6531
20680SOL    HW164047   6.926   8.250   0.789 -0.6837 -0.4813 -0.2969
20680SOL    HW264048   7.020   8.132   0.779 -0.4640 -0.3033 -0.3648
20681SOL     OW64049   8.149   4.138   7.770 -0.3610  0.5054 -0.4440
20681SOL    HW164050   8.107   4.212   7.727 -1.6816 -0.5814 -1.0787
20681SOL    HW264051   8.237   4.135   7.732  0.1982  2.5061  0.5392
20682SOL     OW64052  11.074   3.835   0.002  0.1089 -0.1431  0.1501
20682SOL    HW164053  11.064   3.831  -0.093 -0.4502 -0.1194  0.2023
20682SOL    HW264054  11.138   3.905   0.017 -2.6525  2.7122 -0.0938
20683SOL     OW64055   0.375   9.541   0.684 -0.3487 -0.2070 -0.5286
20683SOL    HW164056   0.451   9.571   0.734  0.7739 -0.7457 -1.8452
20683SOL    HW264057   0.385   9.582   0.598  0.1770 -2.7095 -1.7479
20684SOL     OW64058   8.474   9.869   8.573 -0.6985 -0.0814 -0.0283
20684SOL    HW164059   8.538   9.850   8.504 -0.8979 -2.9169  0.4425
20684SOL    HW264060   8.464   9.964   8.571  1.7161  0.2326 -1.7198
20685SOL     OW64061   9.092   9.435   0.274 -0.3457 -0.0759  0.1388
20685SOL    HW164062   9.022   9.406   0.215 -2.1316  1.4836  1.3657
20685SOL    HW264063   9.058   9.515   0.314  2.4992  1.2130  0.2190
20686SOL     OW64064   1.035   0.252   5.202  0.0440  0.6225 -0.4185
20686SOL    HW164065   1.120   0.289   5.177  0.4698  0.4287  0.6885
20686SOL    HW264066   1.057   0.171   5.248 -0.7103  0.8735  0.4079
20687SOL     OW64067   4.678   8.612   0.869  0.4577  0.0243 -0.0197
20687SOL    HW164068   4.752   8.554   0.889 -0.7467 -1.8361 -0.7069
20687SOL    HW264069   4.703   8.654   0.787  0.7566 -0.6153 -0.2702
20688SOL     OW64070   6.709   8.841   8.840 -0.2715  0.1942  0.2337
20688SOL    HW164071   6.774   8.831   8.771  0.9785 -0.5735  1.4593
20688SOL    HW264072   6.687   8.752   8.866 -0.5862  0.4625  0.9353
20689SOL     OW64073   7.494   8.255   2.319  0.1630 -0.5144 -0.0692
20689SOL    HW164074   7.489   8.164   2.290  0.3089 -0.0370 -1.6419
20689SOL    HW264075   7.502   8.249   2.414  0.3329 -2.1447 -0.1638
20690SOL     OW64076   6.232   5.847   1.021 -0.1360 -0.2358  0.7855
20690SOL    HW164077   6.209   5.803   0.940  1.2648 -0.9677  0.7491
20690SOL    HW264078   6.279   5.926   0.993 -0.6130  0.0754  0.8692
20691SOL     OW64079   3.035   6.841   1.403  0.6480 -0.2573  0.4169
20691SOL    HW164080   2.950   6.854   1.445  1.0446 -0.9456  1.4952
20691SOL    HW264081   3.097   6.883   1.462  1.1082 -0.2011 -0.0985
20692SOL     OW64082  10.309   7.643   2.882  0.3500  0.2588  0.7305
20692SOL    HW164083  10.289   7.609   2.795  1.9626  0.0460  0.4187
20692SOL    HW264084  10.344   7.730   2.867 -2.1025  1.4366  1.4071
20693SOL     OW64085   2.290  10.676   3.011 -0.8897  0.0773  0.1450
20693SOL    HW164086   2.277  10.707   2.922 -0.9118  0.6669  0.3500
20693SOL    HW264087   2.281  10.754   3.065  0.6217 -0.0045  0.5398
20694SOL     OW64088   9.596   7.299   2.835 -0.6062 -0.0902  0.2630
20694SOL    HW164089   9.548   7.266   2.759 -0.6373 -0.5599  0.4765
20694SOL    HW264090   9.661   7.359   2.799 -1.5358  0.7656  0.0012
20695SOL     OW64091   9.243   6.934   1.681 -0.1633 -0.3959 -0.0534
20695SOL    HW164092   9.332   6.911   1.655 -0.0534  1.0146 -1.0352
20695SOL    HW264093   9.248   7.027   1.705 -0.9681 -0.8023  1.8667
20696SOL     OW64094   6.543   1.423   2.562  0.0681 -0.2440 -0.0972
20696SOL    HW164095   6.583   1.406   2.647 -0.8478 -1.6374  0.0898
20696SOL    HW264096   6.599   1.490   2.522 -0.8550  2.3248  2.5614
20697SOL     OW64097   5.144   9.512   6.198  0.0639 -0.2546 -0.0272
20697SOL    HW164098   5.232   9.529   6.230 -0.3001 -0.0521  0.9010
20697SOL    HW264099   5.126   9.583   6.137 -0.4309  1.2166  1.7655
20698SOL     OW64100   7.241   3.918   5.883  0.2600  0.4317 -0.1167
20698SOL    HW164101   7.327   3.960   5.878  0.8868 -0.7379  0.2677
20698SOL    HW264102   7.183   3.985   5.918  1.0530  1.1915 -0.2118
20699SOL     OW64103  10.931  10.190   5.946 -0.0907  0.2125 -0.3084
20699SOL    HW164104  10.851  10.231   5.980  0.4221 -0.0111  1.2007
20699SOL    HW264105  10.946  10.235   5.862 -0.8622  1.4431  0.1780
20700SOL     OW64106   2.815   1.273   9.029 -0.5091  0.4806  0.1371
20700SOL    HW164107   2.798   1.241   8.941  0.2529  0.4284 -0.0034
20700SOL    HW264108   2.871   1.350   9.016 -0.1080  0.2727  0.5788
20701SOL     OW64109   9.094   7.095  10.070  0.2378  0.3703 -0.1333
20701SOL    HW164110   9.122   7.172  10.120  1.3427 -0.4462  0.5503
20701SOL    HW264111   9.060   7.035  10.136 -1.6174  0.6414 -0.7725
20702SOL     OW64112   8.957  10.603   2.248 -0.0182 -0.2767  0.1569
20702SOL    HW164113   8.969  10.644   2.162 -0.1672 -2.7486 -1.1273
20702SOL    HW264114   8.874  10.638   2.279 -0.2348  0.2658 -0.9524
20703SOL     OW64115   8.558   2.919   8.569  0.2487 -0.1004  0.5540
20703SOL    HW164116   8.491   2.880   8.625  0.3968  1.3605  1.8212
20703SOL    HW264117   8.557   3.012   8.591  1.8087  0.1661 -0.3322
20704SOL     OW64118   6.187   0.076   9.611 -0.5566 -0.3036  0.1155
20704SOL    HW164119   6.146   0.111   9.690  0.7913  1.3118  0.1688
20704SOL    HW264120   6.246   0.008   9.642 -0.1263  0.2375  0.4949
20705SOL     OW64121   8.107   6.687   3.797 -0.4736  0.3398  0.5132
20705SOL    HW164122   8.185   6.636   3.819  0.6747  2.6036  2.1110
20705SOL    HW264123   8.106   6.758   3.861 -3.2330  1.0694 -0.1932
20706SOL     OW64124   9.501   0.327   7.337 -0.1395 -0.3526 -0.5323
20706SOL    HW164125   9.560   0.353   7.407 -1.0026 -1.4330  0.6352
20706SOL    HW264126   9.551   0.341   7.256  0.5719  1.7283  0.2079
20707SOL     OW64127   0.698   0.189   9.847  0.0900 -0.0798  0.1611
20707SOL    HW164128   0.691   0.099   9.815  1.4595  0.7690 -2.8811
20707SOL    HW264129   0.607   0.219   9.855 -0.3660 -1.4625  0.3963
20708SOL     OW64130   6.151   2.603  10.993  0.0906  0.1648  1.1865
20708SOL    HW164131   6.155   2.602  10.897  1.4419  0.6364  1.2186
20708SOL    HW264132   6.210   2.533  11.020 -1.1781 -0.7486  1.6859
20709SOL     OW64133   7.357   4.765   9.001 -0.5350  0.5212 -0.5447
20709SOL    HW164134   7.306   4.839   9.036  0.5057  1.7932 -1.5909
20709SOL    HW264135   7.337   4.765   8.908 -1.2469 -1.1553 -0.4165
20710SOL     OW64136   2.770   3.901   9.341 -0.3327  0.4713 -0.2925
20710SOL    HW164137   2.829   3.932   9.272  3.0773 -0.5281  1.9271
20710SOL    HW264138   2.782   3.806   9.341 -0.8509  0.3852  1.1536
20711SOL     OW64139   0.589   5.356   4.494 -0.2436 -0.2917 -0.4901
20711SOL    HW164140   0.497   5.360   4.470 -0.0541 -0.0495 -1.2146
20711SOL    HW264141   0.598   5.274   4.543 -0.4634 -1.3640 -2.1588
20712SOL     OW64142   0.274   4.287   6.298 -0.7705 -0.4785 -0.0569
20712SOL    HW164143   0.179   4.299   6.305 -0.5871  0.3338  1.1657
20712SOL    HW264144   0.307   4.373   6.274 -0.3361 -0.8018 -0.6540
20713SOL     OW64145   8.149   3.715   1.692 -0.5832 -0.2295 -0.2011
20713SOL    HW164146   8.211   3.737   1.762  1.0611 -2.3073 -0.9077
20713SOL    HW264147   8.101   3.797   1.677  0.8511  1.0233  1.4958
20714SOL     OW64148   1.591   3.165   8.270 -0.0093 -0.3481  0.1601
20714SOL    HW164149   1.680   3.184   8.241 -0.0496 -1.6388 -0.8622
20714SOL    HW264150   1.536   3.229   8.225  0.2346 -0.5575 -0.4359
20715SOL     OW64151   9.925  10.130   8.646  0.6800 -0.7296  0.1452
20715SOL    HW164152   9.899  10.222   8.635  0.8879 -0.7986 -1.0944
20715SOL    HW264153   9.958  10.125   8.735 -1.3391 -0.1028  0.9970
20716SOL     OW64154   0.038   1.280   4.849  0.2206  0.0710 -0.3208
20716SOL    HW164155  -0.019   1.261   4.774  0.3996 -1.1647 -0.1626
20716SOL    HW264156   0.099   1.206   4.851 -1.3890 -1.3357  2.5908
20717SOL     OW64157   1.161   9.398   5.542  0.1721 -0.4876  0.1481
20717SOL    HW164158   1.166   9.303   5.532  1.1452 -0.3159 -1.3710
20717SOL    HW264159   1.173   9.432   5.453 -0.5456  1.0571  0.6082
20718SOL     OW64160   6.951  10.732   9.853 -0.5659  0.2711  0.2326
20718SOL    HW164161   7.031  10.685   9.829  0.4316  1.6697  0.6486
20718SOL    HW264162   6.952  10.810   9.798 -3.0894 -0.9389 -1.7071
20719SOL     OW64163   9.782   9.662   5.766 -0.3771 -0.3579  0.0796
20719SOL    HW164164   9.700   9.708   5.785  0.7046  1.5450  0.3606
20719SOL    HW264165   9.755   9.586   5.714 -2.3526 -0.0189  0.5404
20720SOL     OW64166   7.960   3.499   5.793 -0.0301  0.1545 -0.0234
20720SOL    HW164167   7.979   3.574   5.850  0.0268  0.6603 -0.6971
20720SOL    HW264168   7.952   3.425   5.853  1.3032  0.4336  0.5393
20721SOL     OW64169   7.170   6.919   4.210  0.2123  0.0418 -0.2820
20721SOL    HW164170   7.085   6.949   4.240  1.4859  1.1974  2.4388
20721SOL    HW264171   7.209   6.995   4.167 -0.1112 -0.5195 -1.6317
20722SOL     OW64172   9.145   9.975   0.706 -0.1802 -0.0305 -0.6540
20722SOL    HW164173   9.157   9.919   0.783 -0.9446 -1.0476 -1.2593
20722SOL    HW264174   9.152   9.915   0.632  0.3058  0.9028 -1.3828
20723SOL     OW64175   8.967   0.930  10.362  0.0811 -0.0315 -0.4363
20723SOL    HW164176   8.934   0.842  10.345  2.4998 -1.0302 -0.3264
20723SOL    HW264177   8.972   0.936  10.457 -1.7377  0.9553 -0.3433
20724SOL     OW64178   8.860   6.957   5.574  0.0026  0.6404 -0.0908
20724SOL    HW164179   8.867   6.937   5.667  0.1720  1.4945  0.0944
20724SOL    HW264180   8.773   6.994   5.564 -0.1846  0.1355 -0.3600
20725SOL     OW64181   4.932   6.853   6.129  0.4147  0.3928  0.0448
20725SOL    HW164182   4.854   6.826   6.177  0.8382 -1.0861 -0.0468
20725SOL    HW264183   4.948   6.943   6.157 -1.6238  0.9083 -0.3404
20726SOL     OW64184   2.239   7.491   9.956 -0.3814 -0.1949 -0.2573
20726SOL    HW164185   2.315   7.474   9.901 -0.3303  0.9932 -0.5929
20726SOL    HW264186   2.199   7.570   9.918  0.3360  1.4120  2.0932
20727SOL     OW64187   1.650   3.880   5.948  0.6545  0.2351 -0.1740
20727SOL    HW164188   1.609   3.962   5.921 -1.6623 -0.5365  0.7987
20727SOL    HW264189   1.609   3.813   5.894  2.1276 -0.3933 -0.5748
20728SOL     OW64190   1.212   9.233   0.929  0.5822 -0.2212  0.2367
20728SOL    HW164191   1.290   9.286   0.917  0.0330  0.1892 -1.7965
20728SOL    HW264192   1.142   9.296   0.947  0.5672 -0.5444  1.4347
20729SOL     OW64193   1.164   5.634   2.413  0.3615  0.3309 -0.2232
20729SOL    HW164194   1.214   5.554   2.400  0.3298  0.1916  0.4715
20729SOL    HW264195   1.189   5.690   2.340 -0.4334 -0.7111 -1.3602
20730SOL     OW64196   0.041   3.354  10.626 -0.1220 -0.2447  0.5503
20730SOL    HW164197   0.006   3.314  10.706 -1.0986  0.2409  0.3841
20730SOL    HW264198  -0.037   3.384  10.579  0.4975  0.2726 -0.1605
20731SOL     OW64199   4.057   8.860   6.033 -0.0499  0.6649  0.2845
20731SOL    HW164200   3.996   8.870   6.106  0.0122 -0.6889  0.5348
20731SOL    HW264201   4.013   8.904   5.959 -0.7044  0.8925  0.7980
20732SOL     OW64202   0.327  10.624  10.576 -0.0880 -0.1143 -0.1480
20732SOL    HW164203   0.268  10.656  10.508 -1.1238 -0.5577  0.5130
20732SOL    HW264204   0.306  10.676  10.653 -0.1860 -0.8188  0.3089
20733SOL     OW64205   9.581   5.176   1.850 -0.3460  0.4569  0.1783
20733SOL    HW164206   9.597   5.229   1.928  0.2715  2.3697 -1.1982
20733SOL    HW264207   9.618   5.226   1.778  1.0670 -2.2516 -1.1450
20734SOL     OW64208   0.935   9.273   8.632 -0.5000  0.1616  0.3008
20734SOL    HW164209   0.942   9.326   8.552  0.2869  0.7910  0.7720
20734SOL    HW264210   0.954   9.335   8.703 -1.2703 -0.3708  0.9872
20735SOL     OW64211   4.773   0.751   8.631  0.8699 -0.1346 -0.0112
20735SOL    HW164212   4.683   0.722   8.618  0.5251  1.2684 -0.9864
20735SOL    HW264213   4.822   0.714   8.558  1.2182 -1.2854  0.7693
20736SOL     OW64214   1.661   0.092   2.806  0.0431 -0.0019 -0.3915
20736SOL    HW164215   1.693   0.179   2.783 -0.3527 -0.0965 -1.3389
20736SOL    HW264216   1.597   0.108   2.875  0.8511  0.3379  0.2992
20737SOL     OW64217   8.746   9.217   9.944 -0.0930 -0.1973 -0.5161
20737SOL    HW164218   8.730   9.284   9.878  2.4610  1.0633  0.0400
20737SOL    HW264219   8.841   9.203   9.942  0.0700 -0.2169  2.7314
20738SOL     OW64220   4.701   4.858   1.852  0.2916  0.6686  0.1150
20738SOL    HW164221   4.734   4.832   1.766 -0.4246  0.8293 -0.2171
20738SOL    HW264222   4.609   4.882   1.836  0.0147  0.2406  1.0094
20739SOL     OW64223   8.849   8.827   3.661  0.1484  1.1444  0.6842
20739SOL    HW164224   8.856   8.823   3.566 -2.1404 -1.6759  0.5038
20739SOL    HW264225   8.925   8.779   3.693 -0.1848  0.2739  0.1857
20740SOL     OW64226   3.418  10.314   3.219  1.1757  0.1072  0.2178
20740SOL    HW164227   3.371  10.387   3.260  1.1270 -0.2503  0.8080
20740SOL    HW264228   3.383  10.310   3.130  0.2353 -0.0116  0.5742
20741SOL     OW64229   4.347   8.906  10.492  0.1427 -0.1405 -0.1927
20741SOL    HW164230   4.425   8.869  10.532  0.2344  1.0692  0.8530
20741SOL    HW264231   4.352   9.000  10.514 -1.4321  0.0071 -0.3612
20742SOL     OW64232  10.705   5.380   0.996  0.1744  0.6798 -0.1450
20742SOL    HW164233  10.649   5.346   1.066  0.3465 -0.5856 -0.6119
20742SOL    HW264234  10.646   5.434   0.943 -0.5509 -0.3907 -0.4508
20743SOL     OW64235   5.789   2.762   0.444  0.2224  0.1633 -0.4166
20743SOL    HW164236   5.819   2.831   0.503  1.0193 -1.1778  0.8090
20743SOL    HW264237   5.863   2.703   0.437 -1.4671 -2.3520  1.3218
20744SOL     OW64238  10.547   2.092   0.801  0.5741 -0.0152  0.2832
20744SOL    HW164239  10.634   2.051   0.802 -0.1772 -1.7772 -1.4007
20744SOL    HW264240  10.519   2.090   0.893  0.9014 -2.6327  0.3965
20745SOL     OW64241   6.016  10.467  10.486 -0.4053  0.1525  0.0392
20745SOL    HW164242   6.046  10.495  10.572 -0.4553  0.0990  0.0741
20745SOL    HW264243   5.987  10.547  10.443  2.2967  0.6458 -1.0261
20746SOL     OW64244   8.844   3.152   9.580 -0.6077  0.2325  0.4883
20746SOL    HW164245   8.855   3.246   9.571 -0.0599  0.4676  2.9048
20746SOL    HW264246   8.754   3.135   9.550 -0.9846  1.6348  0.7636
20747SOL     OW64247   5.417   5.057   7.691 -0.4591  0.9427  0.4396
20747SOL    HW164248   5.490   4.997   7.706  0.9799  1.8434 -2.3904
20747SOL    HW264249   5.363   5.049   7.770  3.1752  0.9693  3.1470
20748SOL     OW64250   0.668   5.662   6.968  0.0588  0.3368 -0.0679
20748SOL    HW164251   0.607   5.688   6.898 -0.6958 -1.7340 -0.2645
20748SOL    HW264252   0.754   5.662   6.926  0.1337  2.4254 -0.0277
20749SOL     OW64253  10.550   2.534   0.514 -0.2391 -0.4330  0.5473
20749SOL    HW164254  10.458   2.516   0.531 -0.4323 -2.3067 -1.8962
20749SOL    HW264255  10.579   2.462   0.458  2.2868  0.9761 -0.1509
20750SOL     OW64256   0.087   4.108   7.978 -0.0332  0.1872 -0.0839
20750SOL    HW164257   0.014   4.076   7.925  1.7213 -2.7649 -0.9445
20750SOL    HW264258   0.084   4.054   8.057  0.4028  1.0438  0.5354
20751SOL     OW64259   0.789   5.681   5.421  0.5665 -0.0332  0.1976
20751SOL    HW164260   0.713   5.631   5.451  1.2598 -0.8993  0.5511
20751SOL    HW264261   0.753   5.744   5.359 -0.2393 -1.6320 -1.0523
20752SOL     OW64262  10.149   5.691   8.735 -0.1689  0.1396 -0.1798
20752SOL    HW164263  10.178   5.623   8.795  0.5782 -0.3557 -1.0848
20752SOL    HW264264  10.222   5.753   8.731 -0.8758  1.0637  0.7080
20753SOL     OW64265   7.885   0.504   2.311  0.7599 -0.7871 -0.2007
20753SOL    HW164266   7.867   0.586   2.264  2.6400  0.1946  0.6961
20753SOL    HW264267   7.909   0.442   2.242  0.0416 -0.4044 -0.8170
20754SOL     OW64268   7.885   1.066   9.757 -0.2459 -0.4849  0.1598
20754SOL    HW164269   7.892   1.155   9.792 -0.9191 -0.4025  0.0986
20754SOL    HW264270   7.969   1.051   9.713  0.5332 -0.5210  1.6140
20755SOL     OW64271   2.970   2.484   7.212 -0.1371  0.1756 -0.5421
20755SOL    HW164272   2.878   2.506   7.217 -0.5588 -1.5491 -0.0572
20755SOL    HW264273   2.974   2.409   7.153  0.9317  0.0809 -0.3836
20756SOL     OW64274   4.017   0.082  10.688 -0.1255 -0.6231  0.1572
20756SOL    HW164275   4.109   0.108  10.682 -0.2584 -0.4374 -3.1893
20756SOL    HW264276   3.970   0.151  10.640 -2.0253 -0.7960  1.6585
20757SOL     OW64277   2.901   7.128   3.195  0.4118  0.2058  0.1660
20757SOL    HW164278   2.888   7.114   3.289  1.8293 -0.8905  0.2356
20757SOL    HW264279   2.858   7.054   3.153 -2.0884  1.7870 -0.2419
20758SOL     OW64280   1.910   9.375   7.699  0.0434 -0.1841 -0.3322
20758SOL    HW164281   1.856   9.432   7.754  2.5799  0.8625  1.2113
20758SOL    HW264282   1.939   9.432   7.627 -0.5752 -0.6564 -0.9752
20759SOL     OW64283  10.175   6.730   4.753  0.3876  0.5088 -0.2599
20759SOL    HW164284  10.196   6.815   4.792  0.6806  0.8858 -1.2290
20759SOL    HW264285  10.134   6.681   4.825 -0.7868  1.8315  0.0140
20760SOL     OW64286   5.220   4.976   5.063  0.4922 -0.1894  0.0468
20760SOL    HW164287   5.295   4.970   5.004  0.0902  0.5289 -0.5544
20760SOL    HW264288   5.145   4.984   5.005 -0.1195 -1.4627  0.6331
20761SOL     OW64289   0.996   9.056   0.800 -0.3872  0.6625 -0.4436
20761SOL    HW164290   1.022   9.135   0.752  2.8168  0.9575  1.4677
20761SOL    HW264291   1.045   9.061   0.882 -4.1016 -0.7555  2.1130
20762SOL     OW64292   7.226   4.600   1.433  0.3840  0.0049  1.1214
20762SOL    HW164293   7.302   4.542   1.434  0.2321 -0.2107  0.5228
20762SOL    HW264294   7.154   4.545   1.400  0.1001  0.3666  1.1330
20763SOL     OW64295   4.555   3.440   1.843  0.0154 -0.0188  0.1832
20763SOL    HW164296   4.639   3.403   1.815  1.0430  1.1525  1.5489
20763SOL    HW264297   4.490   3.374   1.819  1.3113 -0.9499 -0.9239
20764SOL     OW64298   5.276   7.397   4.315 -0.1440  0.2159 -0.1646
20764SOL    HW164299   5.277   7.332   4.244 -0.0390  0.9592 -0.8589
20764SOL    HW264300   5.198   7.450   4.297 -0.2313  0.2859  0.4013
20765SOL     OW64301   0.161   7.544  10.589  0.0898  0.1084 -0.2452
20765SOL    HW164302   0.125   7.571  10.504  0.8143 -0.2175 -0.6660
20765SOL    HW264303   0.094   7.487  10.626  0.0333 -0.2421 -0.8784
20766SOL     OW64304   6.854  10.532   2.925 -0.8785  0.3087 -0.5969
20766SOL    HW164305   6.946  10.557   2.933 -0.1441 -2.5803  2.7063
20766SOL    HW264306   6.854  10.465   2.856  0.0807 -1.3355  0.8922
20767SOL     OW64307   9.471  10.814  10.031 -0.0461 -0.2674  1.1721
20767SOL    HW164308   9.403  10.779   9.973  2.3438 -0.6503 -1.6370
20767SOL    HW264309   9.467  10.909  10.018  0.7691 -0.3816 -0.0456
20768SOL     OW64310   1.908   2.938   0.010 -0.3207  0.0949 -0.1211
20768SOL    HW164311   1.883   2.861  -0.042  0.1563 -0.9857  1.1660
20768SOL    HW264312   1.928   2.902   0.096 -0.6607  1.7687  0.6958
20769SOL     OW64313  10.505   5.455  10.998 -0.0220 -0.0410  0.0333
20769SOL    HW164314  10.449   5.532  10.991 -1.0378 -0.7830 -0.2324
20769SOL    HW264315  10.484   5.403  10.921  1.8450  0.1646 -0.6665
20770SOL     OW64316   2.150  10.286   8.701  0.1711  0.0973  0.6602
20770SOL    HW164317   2.130  10.321   8.615 -0.3210  1.6567  1.3702
20770SOL    HW264318   2.168  10.193   8.686 -0.1570  0.2854 -1.0670
20771SOL     OW64319   3.259   3.699   3.500  0.5327 -0.0354 -0.2640
20771SOL    HW164320   3.304   3.723   3.582  0.8126  0.1823 -0.4805
20771SOL    HW264321   3.167   3.715   3.518  0.2919 -2.1577  0.8017
20772SOL     OW64322   2.684   5.841   9.594  0.4184 -0.1492 -0.0667
20772SOL    HW164323   2.602   5.795   9.610 -0.4118  1.1682 -0.4257
20772SOL    HW264324   2.735   5.827   9.673 -1.0080  0.7908  1.0559
20773SOL     OW64325   5.596   1.147   2.179  0.4348 -0.7648 -0.4305
20773SOL    HW164326   5.678   1.194   2.164 -1.1697  1.7027 -2.0928
20773SOL    HW264327   5.604   1.068   2.124  1.6208 -0.4994 -0.6698
20774SOL     OW64328   5.173   6.851   8.882 -0.3725 -1.0753  0.6069
20774SOL    HW164329   5.213   6.921   8.831  0.0918 -1.6964  0.1020
20774SOL    HW264330   5.083   6.881   8.898 -0.7774 -1.1884 -1.2275
20775SOL     OW64331  10.371   1.081  11.087  0.1768  0.6721 -0.3757
20775SOL    HW164332  10.352   1.140  11.160  0.8469  1.7856 -1.0728
20775SOL    HW264333  10.445   1.121  11.042  0.7431 -0.7907 -0.7956
20776SOL     OW64334   2.371   8.917   0.232  0.4156  0.1593 -0.4039
20776SOL    HW164335   2.425   8.949   0.159 -0.8784  0.1340 -1.4254
20776SOL    HW264336   2.406   8.830   0.251  2.0287  0.9449  0.3551
20777SOL     OW64337   5.178  11.055   8.619 -0.0726  0.0918 -0.4411
20777SOL    HW164338   5.116  11.114   8.663 -0.7262 -1.9386  1.5769
20777SOL    HW264339   5.200  10.990   8.685  5.1654  1.2212 -0.6722
20778SOL     OW64340   6.945   6.012  10.848 -0.3046 -0.1076 -0.3257
20778SOL    HW164341   6.926   6.065  10.925  0.7435 -0.4200  0.1547
20778SOL    HW264342   6.957   5.923  10.881 -3.0364 -0.9183 -1.2255
20779SOL     OW64343   8.856   2.794   4.026 -0.7164  0.6615  0.2262
20779SOL    HW164344   8.853   2.785   3.931 -0.5770 -2.4387  0.4195
20779SOL    HW264345   8.787   2.736   4.058  0.0138  0.7316  2.0433
20780SOL     OW64346   8.470   2.438   6.554  0.3199  0.3606 -0.2509
20780SOL    HW164347   8.469   2.349   6.517  1.0959 -0.1760  0.9486
20780SOL    HW264348   8.493   2.494   6.481 -1.0893 -0.3085 -1.2451
20781SOL     OW64349   4.110   4.684   1.224 -0.0272  0.4084  0.4806
20781SOL    HW164350   4.128   4.775   1.248 -0.6213  0.1690  1.9142
20781SOL    HW264351   4.034   4.660   1.276 -0.5940 -0.5611 -0.7520
20782SOL     OW64352   5.185   3.737   0.771 -0.0443  0.2498 -0.4841
20782SOL    HW164353   5.124   3.790   0.823  2.2928  0.0349  2.7929
20782SOL    HW264354   5.244   3.801   0.730 -0.2504  0.3230 -0.6687
20783SOL     OW64355   8.221   0.645   3.417 -0.1465 -0.6095  0.8951
20783SOL    HW164356   8.215   0.690   3.333 -1.3533 -0.5018  1.0233
20783SOL    HW264357   8.315   0.627   3.428  0.2713  1.1136  0.4476
20784SOL     OW64358   2.820   9.635  10.471 -0.3487  0.0882 -0.1330
20784SOL    HW164359   2.812   9.622  10.565  1.8237 -1.8313 -0.1256
20784SOL    HW264360   2.896   9.692  10.460 -0.5446  0.2506 -0.7462
20785SOL     OW64361   6.707   5.489  10.500  0.2453 -0.4739 -0.4908
20785SOL    HW164362   6.675   5.500  10.411  0.6742 -0.5108 -0.6519
20785SOL    HW264363   6.676   5.567  10.546 -2.7498 -1.8891  0.1857
20786SOL     OW64364   2.662   1.287   0.346 -0.1067  0.3127  0.6466
20786SOL    HW164365   2.659   1.358   0.410 -0.0564  0.5053  0.4367
20786SOL    HW264366   2.754   1.282   0.320 -0.2300  0.6525  0.1270
20787SOL     OW64367   4.942   5.309   9.411 -0.1373 -0.1209 -0.3385
20787SOL    HW164368   4.852   5.342   9.419  0.4980  1.9773 -1.1250
20787SOL    HW264369   4.989   5.350   9.484  0.6105  0.4874 -1.1428
20788SOL     OW64370   8.029   6.735  10.687 -0.0851 -0.4007 -0.1366
20788SOL    HW164371   8.079   6.780  10.754  1.4675 -1.3115 -0.6302
20788SOL    HW264372   8.016   6.647  10.722 -0.8872 -0.3320 -0.2502
20789SOL     OW64373   5.873   0.752   4.264  0.2655 -0.1942  0.1791
20789SOL    HW164374   5.894   0.793   4.180  2.5535 -2.6844 -0.6249
20789SOL    HW264375   5.780   0.731   4.258  0.3503 -0.2290 -1.7224
20790SOL     OW64376  10.366   4.033  10.847  0.1944  0.0748 -0.5510
20790SOL    HW164377  10.328   4.090  10.914  0.1786  0.2805 -0.7360
20790SOL    HW264378  10.440   4.082  10.813 -0.5056  0.4932 -1.5300
20791SOL     OW64379   7.718   2.914   5.969  0.9466 -0.7232  0.6848
20791SOL    HW164380   7.651   2.918   5.901  0.7484 -2.2214  0.7538
20791SOL    HW264381   7.696   2.986   6.028  0.6346  0.0860 -0.3716
20792SOL     OW64382   9.969   1.242   4.568 -0.1842  0.4902 -0.3624
20792SOL    HW164383  10.053   1.253   4.611 -0.8888 -0.0557  1.2202
20792SOL    HW264384   9.938   1.156   4.596 -1.1271  0.5443 -1.1785
20793SOL     OW64385  10.691   0.121   9.810  0.2582  0.3391  0.1947
20793SOL    HW164386  10.621   0.099   9.871  0.9574  0.6449  1.1255
20793SOL    HW264387  10.676   0.213   9.789  0.2688  0.3539  0.2509
20794SOL     OW64388   5.427   6.136   9.048 -0.1580  0.2423  0.3032
20794SOL    HW164389   5.399   6.080   9.121  0.6847 -0.7402 -0.1012
20794SOL    HW264390   5.433   6.077   8.974  1.1162  0.7939 -0.0536
20795SOL     OW64391   8.884   5.364   5.174  0.0736  0.0140  0.9024
20795SOL    HW164392   8.953   5.364   5.108 -1.2089 -1.4724 -0.5081
20795SOL    HW264393   8.805   5.334   5.128 -0.6951 -1.9640  3.2555
20796SOL     OW64394   2.658   4.405   8.704 -0.7761 -0.0247 -0.0641
20796SOL    HW164395   2.582   4.405   8.762 -0.1347  0.6117  0.8017
20796SOL    HW264396   2.622   4.427   8.618 -1.8423 -1.6902 -0.0968
20797SOL     OW64397   6.275   9.970   3.331 -0.2832 -0.1189 -0.5659
20797SOL    HW164398   6.238   9.914   3.399 -0.1980  0.5200  0.0196
20797SOL    HW264399   6.347  10.017   3.374 -0.9606  1.1485 -0.7623
20798SOL     OW64400   7.515   9.740   7.805  0.4265 -0.0810 -0.4797
20798SOL    HW164401   7.591   9.701   7.849  0.7454  1.3980  0.3553
20798SOL    HW264402   7.548   9.822   7.768 -0.2931 -0.4079 -1.9330
20799SOL     OW64403   2.599   9.360   5.047  0.1900 -0.0798  0.3255
20799SOL    HW164404   2.519   9.351   4.995 -0.5808 -2.6847  1.8067
20799SOL    HW264405   2.575   9.423   5.115  0.0030  0.4853 -0.2481
20800SOL     OW64406   6.261  10.154   6.984  0.3359  0.5767  0.3857
20800SOL    HW164407   6.199  10.092   7.022  0.2589  0.7467  0.5407
20800SOL    HW264408   6.326  10.168   7.053  0.6048  0.3177  0.1859
20801SOL     OW64409   5.129  10.125   1.814 -0.2665  0.6137  0.4387
20801SOL    HW164410   5.122  10.099   1.906 -1.2224 -1.4654 -0.1619
20801SOL    HW264411   5.048  10.171   1.796 -1.3693 -1.4059 -0.0245
20802SOL     OW64412   9.763   5.617   1.521  0.3272  0.2814  0.9488
20802SOL    HW164413   9.724   5.695   1.559  1.2454  0.4015  1.6904
20802SOL    HW264414   9.854   5.618   1.551  0.2794 -1.2315  1.2460
20803SOL     OW64415   8.467   7.293   5.165  0.0756 -0.3313  0.2149
20803SOL    HW164416   8.425   7.243   5.235  0.5886 -1.0385  0.0269
20803SOL    HW264417   8.488   7.228   5.098  1.9083 -0.0873  0.5114
20804SOL     OW64418   4.002  10.673  10.091  0.3963  0.0507  0.0858
20804SOL    HW164419   4.079  10.726  10.110  0.4110  0.1614 -0.2846
20804SOL    HW264420   3.986  10.624  10.172 -1.0242  2.3465  1.2801
20805SOL     OW64421   2.875   5.109   3.791 -0.2437 -0.4306  0.3793
20805SOL    HW164422   2.863   5.015   3.782 -0.0177 -0.3921 -0.4292
20805SOL    HW264423   2.909   5.137   3.706  1.0357  0.1702  1.0570
20806SOL     OW64424   1.883   6.249   6.519 -0.2436 -0.3674  0.2819
20806SOL    HW164425   1.832   6.328   6.535  0.0775 -0.0798 -0.0715
20806SOL    HW264426   1.945   6.275   6.450  0.0498 -0.8462  0.3630
20807SOL     OW64427   0.679   3.781  10.363  0.1605 -0.1056 -0.6791
20807SOL    HW164428   0.613   3.720  10.394 -1.5445  0.7460 -2.3910
20807SOL    HW264429   0.724   3.734  10.293  2.5639 -1.2545  1.4619
20808SOL     OW64430   6.108   7.619   9.859 -0.0744 -0.0085 -0.6453
20808SOL    HW164431   6.018   7.633   9.886  0.4330  1.4309  0.4264
20808SOL    HW264432   6.106   7.623   9.764 -0.8842  1.9942 -0.5941
20809SOL     OW64433   7.816   5.516   7.798  0.0372  0.7157  0.1888
20809SOL    HW164434   7.737   5.462   7.798  1.8472 -2.1165  0.0883
20809SOL    HW264435   7.789   5.597   7.754 -2.6948 -0.2461 -0.1241
20810SOL     OW64436   1.174   2.722   1.780  0.6695  0.8891  0.4336
20810SOL    HW164437   1.260   2.764   1.785  0.3414  1.5505  0.6678
20810SOL    HW264438   1.150   2.727   1.687  0.8771  0.7110  0.3697
20811SOL     OW64439  10.754   1.971   1.180 -0.0562 -0.1114  0.4902
20811SOL    HW164440  10.813   1.921   1.124 -0.2223  0.5695 -0.3094
20811SOL    HW264441  10.785   1.954   1.269  0.0919 -1.3547  0.2194
20812SOL     OW64442   4.602   3.086   0.063 -0.1571  0.1640 -0.5007
20812SOL    HW164443   4.559   3.090  -0.022  1.0685 -1.6162 -1.2644
20812SOL    HW264444   4.682   3.137   0.053 -0.2637  0.3912 -0.2321
20813SOL     OW64445   5.670   2.054   9.658  1.2667 -0.3562  0.4870
20813SOL    HW164446   5.725   2.049   9.579  0.9059 -0.7396  0.2556
20813SOL    HW264447   5.671   2.147   9.682  0.1162  0.0382 -0.8675
20814SOL     OW64448   8.310  11.020   0.559 -0.3918  0.9095  0.0339
20814SOL    HW164449   8.219  10.993   0.547 -0.3078  1.4247 -2.0349
20814SOL    HW264450   8.356  10.940   0.583 -1.3181  0.5924  0.8325
20815SOL     OW64451   3.493   3.926   4.327  0.0675 -0.4164 -0.0651
20815SOL    HW164452   3.538   3.863   4.271 -0.1663 -0.7339  0.1037
20815SOL    HW264453   3.460   3.992   4.267  2.2119  0.7528 -0.0665
20816SOL     OW64454   2.397  10.241   3.966 -0.2855  0.3365 -0.2426
20816SOL    HW164455   2.344  10.321   3.961 -2.6387 -1.1765 -1.2150
20816SOL    HW264456   2.389  10.202   3.879  1.0532 -0.8316  0.1248
20817SOL     OW64457   2.888  10.122   5.523  0.3878 -0.7408 -0.5424
20817SOL    HW164458   2.856  10.086   5.605 -4.2453  0.0361 -1.7316
20817SOL    HW264459   2.932  10.048   5.480  0.4343 -1.9183  1.4333
20818SOL     OW64460   3.512   5.612   8.487 -0.0788 -0.0634  0.0366
20818SOL    HW164461   3.596   5.646   8.457  0.2016 -0.6181  0.1762
20818SOL    HW264462   3.508   5.637   8.579  1.2159 -2.3816  0.8176
20819SOL     OW64463   7.352   0.529   3.087 -0.3389  0.6008  0.5938
20819SOL    HW164464   7.285   0.593   3.111 -0.3812  0.1051  1.8685
20819SOL    HW264465   7.351   0.465   3.159  1.3232  0.4542  0.5232
20820SOL     OW64466   4.169   8.292   0.375 -0.7474  0.3850 -0.1242
20820SOL    HW164467   4.166   8.297   0.470 -1.0817 -0.5094 -0.0727
20820SOL    HW264468   4.079   8.270   0.349  0.0823 -3.5967 -0.3084
20821SOL     OW64469   6.349   0.378  10.668  0.0090 -0.1868  0.2148
20821SOL    HW164470   6.371   0.287  10.690 -0.5021 -0.5426 -0.6964
20821SOL    HW264471   6.427   0.428  10.692  0.1562 -0.8002  1.0789
20822SOL     OW64472   9.324   9.544   1.050 -0.6172  0.5794 -0.4549
20822SOL    HW164473   9.276   9.474   1.006  1.5560 -0.8559 -0.7077
20822SOL    HW264474   9.337   9.513   1.139  1.7416 -0.1605 -0.9889
20823SOL     OW64475   7.179   7.059   0.195  0.3431 -0.5882  0.3651
20823SOL    HW164476   7.179   6.991   0.127  2.0253 -0.4339  0.1601
20823SOL    HW264477   7.270   7.089   0.198  0.1023  0.0622  2.0478
20824SOL     OW64478   6.191   3.801   3.907  0.2628  0.4816  0.0969
20824SOL    HW164479   6.250   3.761   3.973  0.0203  1.1105  0.7055
20824SOL    HW264480   6.143   3.727   3.871  0.8950  0.0421  0.1230
20825SOL     OW64481   9.617  10.437   7.400 -0.6175 -0.2461 -0.4479
20825SOL    HW164482   9.627  10.435   7.495 -0.1209 -1.3214 -0.5084
20825SOL    HW264483   9.681  10.502   7.371 -0.6892  0.0032 -0.0654
20826SOL     OW64484   8.861   3.032   8.616 -0.3870 -0.0187 -0.4197
20826SOL    HW164485   8.809   2.983   8.680  0.6510 -1.2818 -0.5076
20826SOL    HW264486   8.861   3.121   8.649 -2.0020 -0.1182 -0.0413
20827SOL     OW64487   5.921   4.815   4.325 -0.2554  0.2201 -0.5526
20827SOL    HW164488   5.968   4.771   4.254 -0.5662 -0.0103 -0.6177
20827SOL    HW264489   5.932   4.909   4.307  0.7519  0.1799 -0.1851
20828SOL     OW64490   8.231  10.464   9.079 -0.1228 -0.3017  0.6023
20828SOL    HW164491   8.302  10.526   9.098  0.1517 -0.2968 -0.4254
20828SOL    HW264492   8.275  10.383   9.056 -0.4220 -0.0559 -0.9052
20829SOL     OW64493  10.348   3.270   5.225 -0.0956  0.4095 -0.0856
20829SOL    HW164494  10.274   3.251   5.283 -0.3335 -2.0183 -1.0498
20829SOL    HW264495  10.307   3.302   5.144 -0.0482 -0.1917 -0.3502
20830SOL     OW64496   6.652   0.973   8.314 -0.0454 -0.1427 -0.2079
20830SOL    HW164497   6.674   1.058   8.277  0.1301 -0.3553 -0.6079
20830SOL    HW264498   6.567   0.951   8.275  0.4109 -0.6303 -0.9599
20831SOL     OW64499   4.749   3.708   4.558 -0.1061 -0.0343  0.0605
20831SOL    HW164500   4.768   3.772   4.626 -0.5707  1.5809 -1.2757
20831SOL    HW264501   4.816   3.640   4.569  1.2595  1.3614  0.6384
20832SOL     OW64502   6.286  10.592   0.951 -0.0403  0.1359  0.1154
20832SOL    HW164503   6.287  10.688   0.943 -1.5720  0.3693  2.1576
20832SOL    HW264504   6.372  10.570   0.986 -0.8726  1.2217  3.1595
20833SOL     OW64505   0.200   4.440   1.371 -0.3611  1.0738  0.0679
20833SOL    HW164506   0.123   4.457   1.317 -0.6201 -0.8668 -0.2471
20833SOL    HW264507   0.198   4.508   1.439 -2.1926  1.2042 -0.0831
20834SOL     OW64508   6.256   9.477  11.077  0.5836  0.1998 -0.2681
20834SOL    HW164509   6.179   9.462  11.132 -0.3597  0.4957 -1.4755
20834SOL    HW264510   6.250   9.569  11.052 -0.0133 -0.3701 -2.3481
20835SOL     OW64511   0.457   1.731   2.860  0.1567  0.1462  0.0588
20835SOL    HW164512   0.454   1.820   2.826 -3.1721  0.1152 -0.0492
20835SOL    HW264513   0.417   1.677   2.792 -0.1797 -1.0351  1.1347
20836SOL     OW64514   2.327   8.368   6.091 -0.9088 -0.4253  0.7878
20836SOL    HW164515   2.412   8.335   6.063 -0.6955 -1.3500  2.3944
20836SOL    HW264516   2.264   8.303   6.060 -1.0376  0.1852 -0.2735
20837SOL     OW64517   1.652   2.637  10.538  0.0609  0.2497  0.1208
20837SOL    HW164518   1.745   2.644  10.515 -0.4574  1.4801 -1.9072
20837SOL    HW264519   1.620   2.728  10.536 -1.1427 -0.1301  1.0020
20838SOL     OW64520   2.134   3.198   2.923  0.4484  0.2455 -0.4067
20838SOL    HW164521   2.223   3.164   2.932  0.2707 -0.6443 -1.7789
20838SOL    HW264522   2.130   3.234   2.834 -0.6481  0.0047 -0.4697
20839SOL     OW64523   7.256   9.915  10.523 -0.6981 -0.0786 -0.6162
20839SOL    HW164524   7.193   9.986  10.512 -1.2228 -0.3785  0.3811
20839SOL    HW264525   7.292   9.928  10.611 -0.5716 -0.8721 -0.5471
20840SOL     OW64526   3.446   7.604  10.775  0.4758 -0.8247  0.6238
20840SOL    HW164527   3.355   7.595  10.802  0.1772 -0.0870 -0.0947
20840SOL    HW264528   3.457   7.536  10.708 -0.8325  1.6725 -2.4094
20841SOL     OW64529   5.111   0.311   7.980 -0.3992  0.6539  0.0874
20841SOL    HW164530   5.070   0.332   8.064 -3.6762 -1.1704 -0.8459
20841SOL    HW264531   5.120   0.215   7.981 -0.1914  0.6200 -1.4838
20842SOL     OW64532   1.139   8.360   5.083 -0.0648  0.5206 -0.1879
20842SOL    HW164533   1.212   8.304   5.107 -0.7915  0.2216  1.4614
20842SOL    HW264534   1.110   8.327   4.998  1.5033  0.4581 -0.7201
20843SOL     OW64535  10.149  11.035   4.673  0.2181 -0.0910 -0.4528
20843SOL    HW164536  10.086  11.100   4.702  0.0259  0.2661 -1.6090
20843SOL    HW264537  10.178  10.991   4.753  0.3689  1.4313  0.3452
20844SOL     OW64538  10.711   8.246   2.749 -0.0193 -0.2466 -0.2675
20844SOL    HW164539  10.641   8.195   2.708  0.5890  0.6476 -2.5195
20844SOL    HW264540  10.668   8.328   2.776 -0.0980 -0.2219 -0.4700
20845SOL     OW64541  10.769   4.224   2.265 -0.3350  0.2618 -0.4457
20845SOL    HW164542  10.843   4.279   2.290 -0.0499 -0.5068  0.4924
20845SOL    HW264543  10.741   4.183   2.347 -0.4425 -1.0830 -1.1198
20846SOL     OW64544   3.820   7.439   0.227  0.1227 -0.2394 -0.3130
20846SOL    HW164545   3.803   7.433   0.321 -1.7192 -0.8177 -0.6448
20846SOL    HW264546   3.869   7.521   0.216  2.7638 -1.4531  1.4076
20847SOL     OW64547   1.269   8.675   9.477 -0.2881  0.5967 -0.0057
20847SOL    HW164548   1.220   8.748   9.438  0.1709  0.8922 -0.0314
20847SOL    HW264549   1.360   8.703   9.473  0.0414 -0.5471 -1.2441
20848SOL     OW64550   3.803  10.667   4.240  0.3483 -0.2315  0.3479
20848SOL    HW164551   3.853  10.586   4.228  1.3501  0.1677  1.6609
20848SOL    HW264552   3.727  10.641   4.293  0.6945 -0.3089  0.8086
20849SOL     OW64553   9.852   6.322   0.868 -0.2630 -0.3881  0.3708
20849SOL    HW164554   9.887   6.407   0.842 -0.9015 -0.4731 -0.8264
20849SOL    HW264555   9.928   6.265   0.874  0.1817  0.2773  1.2737
20850SOL     OW64556   6.442   4.307   7.713  0.1991  0.4715 -0.1805
20850SOL    HW164557   6.432   4.335   7.621 -0.0646  1.6400  0.1880
20850SOL    HW264558   6.511   4.240   7.710 -0.7002 -0.4549 -1.3964
20851SOL     OW64559   5.065  10.652   3.782 -0.3966  0.1661  0.3241
20851SOL    HW164560   4.984  10.601   3.784 -0.0454 -0.5346 -1.0795
20851SOL    HW264561   5.125  10.603   3.838 -0.3858 -0.3831 -0.1582
20852SOL     OW64562   7.297   8.809   2.239  0.7081  0.0817  0.0384
20852SOL    HW164563   7.294   8.716   2.217 -0.2421  0.1604 -0.1976
20852SOL    HW264564   7.359   8.814   2.312  1.4545 -0.6095 -0.5328
20853SOL     OW64565   3.647  10.195   4.007 -0.3072 -0.7700 -0.2034
20853SOL    HW164566   3.595  10.255   3.953  1.7439  0.7893 -0.5924
20853SOL    HW264567   3.604  10.110   3.997 -3.3415  0.5751  0.3383
20854SOL     OW64568   7.970   8.846   0.112  0.8231 -0.1771  0.1568
20854SOL    HW164569   8.013   8.916   0.162  1.4337 -2.0478  2.3843
20854SOL    HW264570   8.039   8.781   0.097 -0.2085 -1.2530 -0.0547
20855SOL     OW64571   2.989   3.212   2.079  0.0141  0.0228  0.1305
20855SOL    HW164572   2.905   3.240   2.114  0.5534  0.6638  0.9461
20855SOL    HW264573   3.017   3.141   2.136 -0.1196 -0.4062 -0.3350
20856SOL     OW64574   0.544  10.601  10.409 -0.5536  0.4958  0.0150
20856SOL    HW164575   0.462  10.608  10.459 -0.6830  0.4654 -0.1920
20856SOL    HW264576   0.581  10.517  10.436  1.2299  2.0368  2.8519
20857SOL     OW64577   3.111   8.250   3.771  0.1650 -0.2349  0.4844
20857SOL    HW164578   3.068   8.205   3.698  0.9726  0.6034 -0.5408
20857SOL    HW264579   3.056   8.232   3.846  1.0293 -3.9421  0.4195
20858SOL     OW64580   0.649   3.536   5.911 -0.0577  0.2702 -0.3396
20858SOL    HW164581   0.569   3.581   5.936  0.3058  0.5146  0.4049
20858SOL    HW264582   0.624   3.444   5.902 -0.4461  0.3674 -0.2431
20859SOL     OW64583   6.705   4.742   0.805  0.4853 -0.6952 -0.1925
20859SOL    HW164584   6.641   4.795   0.853 -0.7369 -0.1611 -2.2777
20859SOL    HW264585   6.781   4.739   0.862 -0.1479  1.5938  0.8983
20860SOL     OW64586   2.981   7.034   3.824 -0.2149 -0.2538 -0.1397
20860SOL    HW164587   2.898   6.986   3.827  0.1760 -1.1084 -1.6996
20860SOL    HW264588   2.965   7.112   3.876 -1.6218 -0.9617  0.5630
20861SOL     OW64589   1.357  10.397   8.727 -0.4990 -0.2133  0.0378
20861SOL    HW164590   1.390  10.478   8.688 -0.9342 -0.1378 -0.1866
20861SOL    HW264591   1.306  10.426   8.802 -2.0936 -0.1340 -1.0293
20862SOL     OW64592   4.821  10.016   8.513 -0.5893  0.4778 -0.0622
20862SOL    HW164593   4.813   9.949   8.581  0.9775  0.4830  0.1701
20862SOL    HW264594   4.761   9.988   8.444  0.2160 -1.3121 -0.0741
20863SOL     OW64595   8.102   7.800   3.451 -0.3294 -0.3094 -0.7454
20863SOL    HW164596   8.162   7.759   3.513 -1.2509  0.4654  0.7193
20863SOL    HW264597   8.149   7.800   3.368  2.1963  1.2910  0.5635
20864SOL     OW64598   5.656   3.781   2.050 -0.5207 -0.0812 -0.5910
20864SOL    HW164599   5.570   3.820   2.066 -0.6416 -0.7489  0.4844
20864SOL    HW264600   5.644   3.731   1.969 -1.8226 -1.9553  0.6633
20865SOL     OW64601   2.535  10.887   3.296 -0.1754  0.1768  0.7730
20865SOL    HW164602   2.449  10.854   3.325  1.0846 -1.8088  2.5695
20865SOL    HW264603   2.585  10.896   3.377  1.7800 -0.1625 -0.3496
20866SOL     OW64604   1.882   7.866  10.411 -0.1282  0.1856 -0.3064
20866SOL    HW164605   1.795   7.900  10.391 -1.0250 -0.8905  1.4918
20866SOL    HW264606   1.895   7.793  10.351  0.0646  1.0763 -1.3766
20867SOL     OW64607   4.393   4.153   2.047 -0.0449 -0.3703 -0.6007
20867SOL    HW164608   4.447   4.137   2.124 -1.4519 -1.5058  0.1971
20867SOL    HW264609   4.330   4.080   2.046 -1.2787  0.6592 -1.7330
20868SOL     OW64610   2.859   3.612   8.336 -0.7059 -0.3326  0.2775
20868SOL    HW164611   2.939   3.664   8.339 -0.2489 -1.0199  0.4544
20868SOL    HW264612   2.801   3.653   8.400 -0.8462  0.7121 -0.4970
20869SOL     OW64613   5.299   3.547   1.234  0.6790 -0.5197 -0.0334
20869SOL    HW164614   5.382   3.518   1.198 -0.0084 -0.2386 -1.9512
20869SOL    HW264615   5.323   3.600   1.310  2.0472 -3.8265  2.0553
20870SOL     OW64616  11.003   8.886   7.032 -0.2327  0.0757  0.1799
20870SOL    HW164617  11.016   8.791   7.026 -0.5938  0.0136  0.4017
20870SOL    HW264618  10.948   8.898   7.108 -0.0578  0.4803  0.2448
20871SOL     OW64619   5.079   4.763   0.814 -0.4109  0.4442 -0.0845
20871SOL    HW164620   5.034   4.681   0.793 -0.0619  0.9609 -3.4279
20871SOL    HW264621   5.031   4.798   0.889 -2.1923 -1.5965 -0.1712
20872SOL     OW64622  10.827   9.102   7.962  0.3478 -0.7539 -0.0520
20872SOL    HW164623  10.768   9.120   7.889  0.4178 -1.3682 -0.2639
20872SOL    HW264624  10.777   9.044   8.019  0.7621 -1.3095 -0.2542
20873SOL     OW64625   3.289   5.045   0.114 -0.7740 -0.2956  0.0603
20873SOL    HW164626   3.339   4.965   0.127 -1.2141 -0.3538  1.6788
20873SOL    HW264627   3.300   5.094   0.196 -0.2321  1.4784 -1.0086
20874SOL     OW64628   4.680   9.913   3.411 -0.4950  0.4485  0.2792
20874SOL    HW164629   4.681   9.889   3.318 -1.4936  1.4243 -0.0147
20874SOL    HW264630   4.684  10.008   3.411  1.3796  0.4138  1.3367
20875SOL     OW64631   8.507   5.157   6.527 -0.2118  0.3188 -0.0069
20875SOL    HW164632   8.513   5.243   6.486 -2.6308 -0.1318 -1.5315
20875SOL    HW264633   8.525   5.173   6.620  0.1452  2.3116 -0.3761
20876SOL     OW64634   9.427   1.607   7.085 -0.0774  0.3082 -0.4378
20876SOL    HW164635   9.369   1.532   7.096 -0.4023  0.7379  1.1580
20876SOL    HW264636   9.515   1.571   7.088 -0.2046  0.0409  1.3057
20877SOL     OW64637   1.926   1.932   3.111 -0.2535 -0.0151 -0.6590
20877SOL    HW164638   1.886   1.846   3.125 -2.1547  0.8281 -0.5395
20877SOL    HW264639   1.856   1.994   3.132  1.5880  1.6333  1.1152
20878SOL     OW64640   3.705   0.351   3.284 -0.4508  0.7078  0.4445
20878SOL    HW164641   3.663   0.305   3.357 -0.9744  1.0869  0.3903
20878SOL    HW264642   3.798   0.348   3.304 -0.6131  1.1113  1.3121
20879SOL     OW64643   6.166   2.337   7.354 -0.7351 -0.3973 -0.6188
20879SOL    HW164644   6.136   2.426   7.334 -1.6264 -0.6807 -0.5750
20879SOL    HW264645   6.199   2.304   7.270  1.9917  0.8385 -0.1516
20880SOL     OW64646  10.717   9.852   7.147 -0.2765  0.2400 -0.1350
20880SOL    HW164647  10.719   9.810   7.061 -2.0867  3.1069 -1.7536
20880SOL    HW264648  10.805   9.890   7.157  0.6961 -1.9853  0.4289
20881SOL     OW64649   7.349   8.525   6.751 -0.2238  0.8356  0.7625
20881SOL    HW164650   7.344   8.547   6.844  0.1296 -0.2171  1.0447
20881SOL    HW264651   7.312   8.437   6.746  1.7596 -0.0103  0.2473
20882SOL     OW64652   7.946   8.439   3.816  0.4231  0.3747  0.3298
20882SOL    HW164653   7.966   8.487   3.897  1.7720 -0.9244  0.8169
20882SOL    HW264654   7.877   8.377   3.842 -0.7782  1.4782 -0.1142
20883SOL     OW64655   5.461  10.687   0.249 -0.4988  0.3607  0.7292
20883SOL    HW164656   5.553  10.697   0.275  0.4610  1.0970 -2.5260
20883SOL    HW264657   5.436  10.773   0.215 -2.6419  0.3282  2.0557
20884SOL     OW64658   8.947   4.238   9.527  0.0765  0.6367 -0.2207
20884SOL    HW164659   8.889   4.195   9.591 -0.9696  1.0376 -0.8787
20884SOL    HW264660   8.890   4.258   9.453 -0.1318  5.1751  0.8632
20885SOL     OW64661   9.604   0.793  10.023 -0.1793  0.1056  0.2085
20885SOL    HW164662   9.510   0.806  10.010 -0.5699 -0.0980  2.4334
20885SOL    HW264663   9.623   0.841  10.103  1.4435 -0.5729  0.2559
20886SOL     OW64664   4.804   6.348   4.215 -0.5037  0.0133 -0.4829
20886SOL    HW164665   4.848   6.328   4.298  1.8191  0.7201 -1.4410
20886SOL    HW264666   4.835   6.436   4.193 -1.1788 -0.1048 -2.0194
20887SOL     OW64667   3.124   3.317   2.339  0.5442 -0.0829 -0.2243
20887SOL    HW164668   3.145   3.281   2.425  2.7092  1.5193 -0.0210
20887SOL    HW264669   3.132   3.412   2.350  0.5864  0.1628 -2.1296
20888SOL     OW64670  10.579   6.469   3.382  0.3982 -0.6331 -0.2144
20888SOL    HW164671  10.582   6.383   3.340 -1.5940 -0.3044 -1.1985
20888SOL    HW264672  10.489   6.500   3.366  0.5395  0.8968  1.5979
20889SOL     OW64673   3.302   8.745   6.273  0.0248  0.0166 -0.4187
20889SOL    HW164674   3.223   8.690   6.279 -0.1679  0.2248 -1.0020
20889SOL    HW264675   3.374   8.684   6.289 -0.3245  0.2124  2.4631
20890SOL     OW64676   5.978   9.128   3.840  0.6068  0.4294  0.2954
20890SOL    HW164677   6.000   9.037   3.820 -0.0871  0.7932 -2.6000
20890SOL    HW264678   5.899   9.123   3.893 -0.1804 -0.6668 -0.9289
20891SOL     OW64679   7.176   8.573  10.717 -0.1043 -0.1239  0.2125
20891SOL    HW164680   7.121   8.607  10.788 -0.9669 -0.6598 -0.1873
20891SOL    HW264681   7.180   8.479  10.733  0.9496 -0.0534  0.4026
20892SOL     OW64682   2.795   7.975   0.769  0.0307 -0.4516  0.9246
20892SOL    HW164683   2.714   7.926   0.785  0.3240 -0.8762  1.1322
20892SOL    HW264684   2.797   7.987   0.674  0.6403 -2.0693  0.7037
20893SOL     OW64685   2.210   0.290  10.433  0.0020 -0.1664  0.2579
20893SOL    HW164686   2.301   0.305  10.407 -1.0204  2.2693 -2.4013
20893SOL    HW264687   2.161   0.292  10.351 -2.7959  1.5486  1.8151
20894SOL     OW64688   3.678   0.070   2.535 -0.1760 -0.1437  0.5382
20894SOL    HW164689   3.710   0.137   2.474 -1.2325  0.0969  0.2356
20894SOL    HW264690   3.738   0.075   2.610 -0.7135  1.6796  0.8802
20895SOL     OW64691   8.227   4.157   2.218 -0.4199 -0.1749  0.2788
20895SOL    HW164692   8.294   4.223   2.238  0.8859 -0.3119 -3.0615
20895SOL    HW264693   8.226   4.101   2.296  2.1666  0.8056  1.1510
20896SOL     OW64694   2.749   4.629   2.288 -0.2820  1.0392 -0.3530
20896SOL    HW164695   2.678   4.581   2.331  0.8698  0.6516  1.2436
20896SOL    HW264696   2.802   4.561   2.246 -0.4184  1.2380 -0.8406
20897SOL     OW64697   9.982   7.928   1.543  0.3335  0.6216 -0.7898
20897SOL    HW164698  10.030   8.001   1.582 -1.4366  0.3875  2.1234
20897SOL    HW264699  10.008   7.851   1.593  2.2675 -0.9403 -3.8988
20898SOL     OW64700  10.630   9.361   9.738  0.3936  0.5434 -0.0180
20898SOL    HW164701  10.662   9.416   9.667  1.5002  0.9483  0.7598
20898SOL    HW264702  10.709   9.341   9.790  0.2826 -2.7440 -0.8901
20899SOL     OW64703   5.733  10.210   5.937  0.0721  0.3332  0.0782
20899SOL    HW164704   5.697  10.126   5.965  0.1053 -0.0880 -1.0811
20899SOL    HW264705   5.822  10.210   5.972 -0.1574  0.1930  0.6745
20900SOL     OW64706   2.231   7.269   7.248 -0.4960 -0.2782 -0.1386
20900SOL    HW164707   2.169   7.249   7.178 -1.5533 -0.7455  0.8957
20900SOL    HW264708   2.178   7.307   7.317  0.8609  2.3663 -0.4164
20901SOL     OW64709   9.538   4.523   2.035  0.3338  0.0784  0.1338
20901SOL    HW164710   9.533   4.445   2.091 -0.4091  0.0571  0.0540
20901SOL    HW264711   9.620   4.514   1.987  0.6787 -0.2159  0.7632
20902SOL     OW64712   9.417   1.457   0.979  0.5298 -0.6690 -0.2962
20902SOL    HW164713   9.457   1.413   1.055 -1.3682 -1.4039  0.3299
20902SOL    HW264714   9.435   1.550   0.993  4.1896 -1.0373 -1.3769
20903SOL     OW64715   0.658   7.041  10.782  0.6234 -0.1588 -0.1998
20903SOL    HW164716   0.613   6.957  10.787 -0.7144  0.4676 -1.0322
20903SOL    HW264717   0.717   7.042  10.857 -1.6385 -0.5248  1.6706
20904SOL     OW64718   8.539   6.166   4.003 -0.0150 -0.1748 -0.2030
20904SOL    HW164719   8.458   6.218   3.999  0.0268 -0.1237 -0.3743
20904SOL    HW264720   8.592   6.210   4.070 -0.3599 -0.5371  0.3202
20905SOL     OW64721   1.469   3.084   7.653 -0.3278  0.6884  0.2980
20905SOL    HW164722   1.511   3.013   7.702 -1.0785  0.5565  0.7814
20905SOL    HW264723   1.541   3.135   7.616  0.2760  0.8696  1.6549
20906SOL     OW64724   3.008   3.411   9.184  0.2578 -0.0274 -0.4898
20906SOL    HW164725   2.917   3.417   9.157  0.6120 -1.3702 -2.1779
20906SOL    HW264726   3.007   3.357   9.263 -0.4211  0.0297 -0.4556
20907SOL     OW64727   4.656   5.092   9.984  0.5158  0.1399 -0.0292
20907SOL    HW164728   4.710   5.128  10.055 -1.5693  2.0936  0.7292
20907SOL    HW264729   4.577   5.061  10.028 -0.4568  0.5811 -1.3866
20908SOL     OW64730   2.819   0.745   5.827 -0.2252  0.4216 -0.2537
20908SOL    HW164731   2.742   0.693   5.803 -0.7942  2.3305 -3.0759
20908SOL    HW264732   2.892   0.704   5.780 -0.4510  1.3605 -1.4747
20909SOL     OW64733   2.303   2.619   0.836  0.5458 -0.2877  0.1550
20909SOL    HW164734   2.290   2.589   0.926  1.1032  2.1415  1.1211
20909SOL    HW264735   2.292   2.540   0.783 -0.1895 -1.7276  2.2961
20910SOL     OW64736   7.759  10.290   0.701 -0.5571 -0.1244 -0.1581
20910SOL    HW164737   7.770  10.236   0.622 -0.6538 -0.3957  0.0136
20910SOL    HW264738   7.664  10.301   0.708 -0.5457 -0.0737 -0.0965
20911SOL     OW64739   0.899   4.548   5.333 -0.0799 -0.2065  0.5865
20911SOL    HW164740   0.876   4.636   5.362 -3.7472 -1.3139  1.5863
20911SOL    HW264741   0.869   4.491   5.404 -0.8239 -2.4412 -1.3903
20912SOL     OW64742   0.887  10.847   4.786 -0.3586  0.0469  0.4376
20912SOL    HW164743   0.948  10.805   4.725 -0.8407 -0.4953  0.3257
20912SOL    HW264744   0.944  10.881   4.856  0.0783 -0.4176  0.3156
20913SOL     OW64745   7.257   8.837   1.967  0.1183  0.1346  1.0708
20913SOL    HW164746   7.261   8.747   1.933 -0.1532 -0.1496  1.7810
20913SOL    HW264747   7.308   8.835   2.047 -0.6389  0.3989  1.5687
20914SOL     OW64748   0.557   3.774   0.284 -0.7095  0.6668  0.2165
20914SOL    HW164749   0.504   3.721   0.343  0.7110 -2.0894 -0.7997
20914SOL    HW264750   0.551   3.730   0.199  3.9398 -0.5654  0.2645
20915SOL     OW64751   8.788  10.835   6.461 -0.3370  0.5188  0.3407
20915SOL    HW164752   8.763  10.927   6.457 -0.8807  0.4047  1.1233
20915SOL    HW264753   8.711  10.789   6.493  0.1059 -0.1424  0.4952
20916SOL     OW64754   8.404   4.098   6.059 -0.4680 -0.1878 -1.3524
20916SOL    HW164755   8.331   4.157   6.077  1.3406  2.2389 -1.4425
20916SOL    HW264756   8.386   4.020   6.111 -1.9819  1.2733  0.4263
20917SOL     OW64757   6.474   9.173   7.853  0.2811 -0.8819  0.5454
20917SOL    HW164758   6.435   9.155   7.938  0.9704 -3.6160  0.3822
20917SOL    HW264759   6.430   9.113   7.793  1.6325 -0.8781 -0.4971
20918SOL     OW64760   6.027   8.016   3.510 -0.0595 -0.5443 -0.1735
20918SOL    HW164761   6.057   8.082   3.572 -1.1519  0.7056 -0.9127
20918SOL    HW264762   6.025   7.934   3.560 -1.7415  0.5669  1.7139
20919SOL     OW64763   7.745   1.025   9.529 -0.3215  0.0902 -0.5996
20919SOL    HW164764   7.786   1.018   9.616  1.4062 -1.6598 -1.4957
20919SOL    HW264765   7.735   1.120   9.516  3.7404  0.7460 -0.3509
20920SOL     OW64766   2.928   3.752   3.707  0.0513  0.4918  0.4131
20920SOL    HW164767   2.972   3.667   3.702 -0.8240  0.0749 -0.9239
20920SOL    HW264768   2.998   3.816   3.705  0.6927 -0.1935  0.6215
20921SOL     OW64769   4.502   5.913  10.677  0.2255  1.1060  0.3834
20921SOL    HW164770   4.413   5.899  10.710  0.3595  1.1448  0.7734
20921SOL    HW264771   4.504   6.005  10.652  0.3791  1.3026  1.0928
20922SOL     OW64772   1.551   0.299   0.377 -0.1795  0.2847  0.0057
20922SOL    HW164773   1.541   0.252   0.459 -0.1683  0.0250 -0.1411
20922SOL    HW264774   1.559   0.391   0.403  1.0315  0.0929  0.3860
20923SOL     OW64775   8.470   3.718   1.717 -0.5288 -0.1550  0.5825
20923SOL    HW164776   8.506   3.670   1.792  0.2048 -0.3128  0.1443
20923SOL    HW264777   8.398   3.769   1.753 -1.0659 -1.2571  1.1418
20924SOL     OW64778   1.411   7.301   8.416 -0.1092  0.0945  0.0980
20924SOL    HW164779   1.408   7.293   8.511  2.8224  1.4853  0.4375
20924SOL    HW264780   1.331   7.347   8.393 -0.7446 -0.0132  1.9428
20925SOL     OW64781   3.627   7.909   0.226  1.0991  0.6717 -0.4509
20925SOL    HW164782   3.586   7.867   0.301  2.5189 -0.3896 -0.2219
20925SOL    HW264783   3.559   7.910   0.159  0.3196  0.1275  0.3037
20926SOL     OW64784   6.261  10.820  10.900 -0.1163 -0.3416  0.3082
20926SOL    HW164785   6.356  10.825  10.900 -0.1215  2.1927 -2.4670
20926SOL    HW264786   6.232  10.897  10.949 -0.6505  0.4081 -1.1116
20927SOL     OW64787   5.108   8.120  10.880  0.2448 -0.1177  0.2568
20927SOL    HW164788   5.028   8.170  10.894  0.6443  0.2115  1.4737
20927SOL    HW264789   5.083   8.029  10.894 -0.6002 -0.4112 -2.4360
20928SOL     OW64790   1.900   4.964   1.988 -0.0066  0.6821 -0.5234
20928SOL    HW164791   1.824   4.951   2.045  1.1795 -0.6911  0.8432
20928SOL    HW264792   1.885   4.905   1.914 -0.1623  0.2436 -0.1449
20929SOL     OW64793   9.186  10.938   7.151  0.2060  0.3112  0.3572
20929SOL    HW164794   9.245  10.945   7.076 -0.6455  0.9796 -0.2767
20929SOL    HW264795   9.146  11.025   7.158 -0.7170 -0.1278  0.7474
20930SOL     OW64796   6.079   6.665   4.302 -0.2324 -0.8130 -0.1566
20930SOL    HW164797   6.172   6.682   4.319 -0.7617  3.7668 -0.5676
20930SOL    HW264798   6.075   6.653   4.207 -0.3079  3.0499 -0.7860
20931SOL     OW64799   1.358  10.627   3.635 -0.3756 -0.2320 -0.6607
20931SOL    HW164800   1.384  10.686   3.564  1.3880  1.7864  1.4861
20931SOL    HW264801   1.314  10.684   3.698  0.4690 -1.4023  1.0490
20932SOL     OW64802   3.758  10.471   6.444  0.3773  0.1133 -0.2100
20932SOL    HW164803   3.813  10.424   6.381  0.8512  0.8268 -0.3394
20932SOL    HW264804   3.739  10.406   6.511  0.8036 -0.3442 -0.5186
20933SOL     OW64805   1.963   0.415   1.080 -0.3275  0.3809  0.5592
20933SOL    HW164806   1.955   0.496   1.030  0.6994  0.7783  1.0031
20933SOL    HW264807   2.039   0.371   1.043 -1.6689 -1.0711 -0.5799
20934SOL     OW64808   4.550   6.142   9.993 -0.3247  0.6232 -0.7830
20934SOL    HW164809   4.562   6.206   9.923  2.6901  0.2716 -0.7292
20934SOL    HW264810   4.460   6.113   9.984 -0.7099  2.2470 -3.0601
20935SOL     OW64811   7.402   9.234   0.182  0.4991 -0.1452  0.0280
20935SOL    HW164812   7.473   9.186   0.225  0.1314  0.5968  1.5171
20935SOL    HW264813   7.340   9.167   0.154 -0.1538 -0.5673  2.3384
20936SOL     OW64814   1.226   2.777   0.118 -0.8220  0.5179 -0.3974
20936SOL    HW164815   1.141   2.733   0.114 -0.8649  0.6462 -1.0140
20936SOL    HW264816   1.204   2.870   0.122 -0.7297  0.4947  0.8330
20937SOL     OW64817   6.219   2.815   4.076 -0.4488  0.7440 -0.2293
20937SOL    HW164818   6.234   2.878   4.147  1.8841  1.3664 -1.1787
20937SOL    HW264819   6.152   2.856   4.022  0.3661  2.0430 -0.3197
20938SOL     OW64820   0.201   8.462   8.720  0.1343  0.4383 -0.2907
20938SOL    HW164821   0.256   8.522   8.770  0.1846  0.9420 -0.9263
20938SOL    HW264822   0.154   8.519   8.659  1.3727 -0.3045 -2.0205
20939SOL     OW64823   8.941   0.209  10.429  0.4040 -0.2216  0.4874
20939SOL    HW164824   8.926   0.134  10.486 -1.2516  0.4153  0.9415
20939SOL    HW264825   9.000   0.265  10.478  1.4541 -1.0643  0.2487
20940SOL     OW64826   3.262   2.200   8.431  0.3869  0.4519  0.4830
20940SOL    HW164827   3.333   2.265   8.431  0.1336  0.7370  0.8549
20940SOL    HW264828   3.217   2.214   8.347  1.7840 -0.8774 -0.5226
20941SOL     OW64829   4.101   3.384   6.310  0.0884  0.2865  0.1055
20941SOL    HW164830   4.064   3.472   6.300 -0.4246  0.0690  0.0722
20941SOL    HW264831   4.025   3.328   6.326  0.4695 -0.0641  0.7204
20942SOL     OW64832   0.861   9.852   2.169 -0.5948 -0.4191  0.4016
20942SOL    HW164833   0.853   9.769   2.123 -1.0251 -0.2761  0.2085
20942SOL    HW264834   0.804   9.912   2.121  2.0119  0.8517 -1.3511
20943SOL     OW64835   2.932   8.330   5.573  0.7646  0.6559  0.2980
20943SOL    HW164836   3.016   8.369   5.552  0.2975  0.9457 -1.1406
20943SOL    HW264837   2.953   8.248   5.618  1.8320  0.2172 -0.9705
20944SOL     OW64838   8.886   3.598   1.264 -0.0259 -0.1392  0.2970
20944SOL    HW164839   8.880   3.559   1.351  0.7298 -0.4370  0.2285
20944SOL    HW264840   8.799   3.588   1.226  0.1217 -1.7037  0.3117
20945SOL     OW64841   0.592   0.494   1.120  0.3626  0.0166 -0.1034
20945SOL    HW164842   0.672   0.470   1.073  0.7636 -0.5101  0.8082
20945SOL    HW264843   0.601   0.588   1.136  0.5732  0.0509 -0.4148
20946SOL     OW64844   2.750   0.502   3.280  0.6564  0.4069 -0.5238
20946SOL    HW164845   2.737   0.582   3.332 -1.5738  1.2173 -2.1921
20946SOL    HW264846   2.820   0.455   3.326 -2.9859 -0.5000  5.1039
20947SOL     OW64847   8.437   1.588  10.619  0.4218  0.3136 -0.1862
20947SOL    HW164848   8.360   1.540  10.647 -0.9183  2.6198  0.3253
20947SOL    HW264849   8.419   1.610  10.527  0.6057  0.6117 -0.1505
20948SOL     OW64850   0.586   2.617  10.095  0.2782  0.0930  0.2522
20948SOL    HW164851   0.636   2.633  10.015  1.4224  0.5994  1.0343
20948SOL    HW264852   0.557   2.704  10.123 -1.0301 -0.1989 -0.1750
20949SOL     OW64853   8.614   5.947   8.957 -0.3991 -0.1338 -0.4165
20949SOL    HW164854   8.709   5.934   8.964 -0.0161 -0.7696 -4.5297
20949SOL    HW264855   8.605   6.030   8.910 -1.9720  0.4429  0.8304
20950SOL     OW64856   3.982   8.799   0.245 -0.2376  0.0879  0.5003
20950SOL    HW164857   3.958   8.858   0.173 -1.0519 -1.3566 -0.4504
20950SOL    HW264858   3.924   8.824   0.317 -0.9595  0.0940 -0.0714
20951SOL     OW64859   8.875   4.694   0.853  0.2312 -0.2689 -0.5988
20951SOL    HW164860   8.841   4.618   0.901  0.4684 -0.7368 -1.1675
20951SOL    HW264861   8.921   4.745   0.920  1.1867 -1.2899 -0.4485
20952SOL     OW64862   0.817   5.705   8.067 -0.7146 -0.2633 -0.7085
20952SOL    HW164863   0.801   5.703   8.161 -1.2474  0.9740 -0.7556
20952SOL    HW264864   0.896   5.651   8.055 -0.2659  0.0786  0.5196
20953SOL     OW64865   2.827   2.229   6.001 -0.2248  0.2406 -0.3013
20953SOL    HW164866   2.767   2.303   5.992  1.1079  1.3025 -0.6839
20953SOL    HW264867   2.801   2.186   6.083 -1.8986  0.2868 -0.7793
20954SOL     OW64868   4.396   6.790   4.680 -0.2835 -0.1030  0.1546
20954SOL    HW164869   4.468   6.841   4.717  2.4703 -3.0368 -0.6982
20954SOL    HW264870   4.395   6.709   4.730 -0.4004 -1.7059 -2.2579
20955SOL     OW64871   3.732  10.194   2.069  0.4837  0.2221 -0.2242
20955SOL    HW164872   3.751  10.258   2.001 -0.1766 -0.3647 -0.9919
20955SOL    HW264873   3.641  10.211   2.094  0.7561  0.5120  0.6134
20956SOL     OW64874  10.203  10.347   3.079  0.0594 -0.3559  0.7537
20956SOL    HW164875  10.208  10.285   3.152  1.7405 -0.9171  0.2010
20956SOL    HW264876  10.119  10.326   3.036 -0.6146 -0.4882  2.0882
20957SOL     OW64877   2.170   9.334   9.161  0.1927 -0.1051 -0.5684
20957SOL    HW164878   2.241   9.277   9.192  0.2436  0.7824  1.0216
20957SOL    HW264879   2.137   9.377   9.240 -1.8826 -0.2094 -1.3205
20958SOL     OW64880   3.412   7.205   6.117 -0.3025  0.0696  0.3227
20958SOL    HW164881   3.425   7.229   6.026 -0.0796  1.6838  0.7534
20958SOL    HW264882   3.323   7.171   6.120  0.6913 -3.0830 -1.0511
20959SOL     OW64883   7.020   3.803  10.422  0.2066  0.2283 -0.1855
20959SOL    HW164884   6.991   3.849  10.501  0.9625 -2.2115  1.6394
20959SOL    HW264885   7.044   3.873  10.361 -2.7113  2.2616  0.7556
20960SOL     OW64886   1.972   8.462   2.804 -0.1418  0.0102  0.0464
20960SOL    HW164887   1.964   8.396   2.872 -0.6338 -0.2711 -0.2750
20960SOL    HW264888   2.025   8.420   2.736  0.5872  0.3911  0.3694
20961SOL     OW64889   1.682  10.974   5.077 -0.4804  0.0863  0.9745
20961SOL    HW164890   1.674  11.043   5.143 -0.5241 -0.1340  1.2047
20961SOL    HW264891   1.771  10.940   5.087 -0.9789 -1.0159  2.0150
20962SOL     OW64892  10.180   7.257   8.125  0.2453  0.2705  0.3021
20962SOL    HW164893  10.165   7.165   8.145  0.2882  0.0833 -0.5034
20962SOL    HW264894  10.133   7.305   8.193  1.4509 -0.3405  1.6292
20963SOL     OW64895   0.789   5.226   7.565 -0.2695  0.4893  0.5497
20963SOL    HW164896   0.792   5.191   7.654 -0.2208 -0.8479  0.0444
20963SOL    HW264897   0.861   5.290   7.562 -0.0772  0.3205  1.3677
20964SOL     OW64898   9.264   7.347  10.224 -0.4348  0.6220 -0.4703
20964SOL    HW164899   9.283   7.388  10.308 -0.7302  2.7236 -1.3618
20964SOL    HW264900   9.329   7.384  10.164 -0.9644  0.0838 -1.4024
20965SOL     OW64901   9.336   8.914   8.655  0.7447  0.5170 -0.3630
20965SOL    HW164902   9.287   8.992   8.683  2.8570  2.3579 -1.4584
20965SOL    HW264903   9.422   8.924   8.695  1.0710 -1.2974 -0.5376
20966SOL     OW64904   0.940   9.746   2.471 -0.1825  0.0061  0.2755
20966SOL    HW164905   0.935   9.661   2.428  1.1848 -0.0579  0.1985
20966SOL    HW264906   0.895   9.734   2.555  0.6566 -1.0197  0.5976
20967SOL     OW64907   4.263   2.451   9.979 -0.2068  0.0482  0.3495
20967SOL    HW164908   4.275   2.497   9.896  0.7011  0.6339  0.7949
20967SOL    HW264909   4.293   2.513  10.045 -0.0155 -0.7791  1.0508
20968SOL     OW64910   5.451   8.772   5.386  0.2794 -0.3085  0.4900
20968SOL    HW164911   5.450   8.867   5.373 -0.4741 -0.6566 -3.0450
20968SOL    HW264912   5.365   8.752   5.422 -0.5513  0.1507 -1.1725
20969SOL     OW64913   0.458   3.693   7.747 -0.4787 -0.1710 -0.2687
20969SOL    HW164914   0.379   3.737   7.779 -0.1526  1.3878 -1.4592
20969SOL    HW264915   0.526   3.760   7.751 -0.1052 -0.2923 -2.7891
20970SOL     OW64916   6.929   3.008   7.705  0.2708 -0.3845 -0.8488
20970SOL    HW164917   6.868   3.081   7.698 -0.8165 -1.3632 -2.0223
20970SOL    HW264918   6.919   2.960   7.623  1.0444 -1.7761 -0.1681
20971SOL     OW64919   4.156   1.094   1.266 -0.3863  0.2754 -0.1535
20971SOL    HW164920   4.095   1.076   1.337 -0.8073  0.7344 -0.3842
20971SOL    HW264921   4.196   1.178   1.289  1.6111 -0.9130  0.9570
20972SOL     OW64922   2.805   5.219   9.023 -0.7121  0.6162  0.4138
20972SOL    HW164923   2.732   5.231   9.084 -1.1114 -1.2586  0.3515
20972SOL    HW264924   2.867   5.164   9.070 -1.8839 -2.5115 -1.4468
20973SOL     OW64925   7.426   3.565   5.140 -0.2415  0.3771  0.1518
20973SOL    HW164926   7.438   3.650   5.182  0.6874  1.4304 -2.0731
20973SOL    HW264927   7.494   3.509   5.179 -0.0745  0.9949  0.7638
20974SOL     OW64928  10.466  10.387   2.988 -0.2939 -0.1448 -0.1331
20974SOL    HW164929  10.375  10.384   3.017 -0.3120 -3.3131 -0.2185
20974SOL    HW264930  10.478  10.477   2.959 -1.9615  1.7832  4.2160
20975SOL     OW64931   3.765   1.116   1.098 -0.1650 -0.0146 -0.2166
20975SOL    HW164932   3.797   1.178   1.032 -0.6341 -0.7475 -1.1621
20975SOL    HW264933   3.710   1.169   1.156 -0.5132  0.4818 -0.9761
20976SOL     OW64934   4.066  10.288   5.122 -0.0919  0.0017 -0.1563
20976SOL    HW164935   4.061  10.378   5.089 -1.0923 -0.3799 -1.0935
20976SOL    HW264936   3.975  10.261   5.132  0.1775 -1.1910 -0.7145
20977SOL     OW64937   0.405   0.265   2.823  0.4917 -0.3990 -0.2858
20977SOL    HW164938   0.349   0.330   2.865  0.6369 -2.1843  3.0675
20977SOL    HW264939   0.490   0.308   2.815  0.8912 -0.3697  2.9121
20978SOL     OW64940   1.451   9.824  10.763 -0.6317 -0.2132  0.2834
20978SOL    HW164941   1.416   9.843  10.850 -1.3594  0.8752 -0.2162
20978SOL    HW264942   1.405   9.746  10.735 -3.4132  1.6362 -0.6936
20979SOL     OW64943   3.438  10.331   4.787  0.2611 -0.6071  1.5018
20979SOL    HW164944   3.492  10.390   4.840 -0.7805 -0.0616  1.9916
20979SOL    HW264945   3.478  10.333   4.700  1.5701 -0.9459  2.0744
20980SOL     OW64946   1.847   7.474   2.583  0.1290  0.8696 -0.1180
20980SOL    HW164947   1.920   7.533   2.603  0.5211  0.8750 -1.5109
20980SOL    HW264948   1.869   7.434   2.499 -0.0686 -1.4022  0.8317
20981SOL     OW64949   4.440   6.896   5.810 -0.1742 -0.4181  0.4828
20981SOL    HW164950   4.492   6.845   5.747 -2.2131 -0.0992 -1.6185
20981SOL    HW264951   4.498   6.908   5.885  1.0627 -4.1627  0.3169
20982SOL     OW64952   5.366   4.713   6.016  0.8113 -0.1911  0.1699
20982SOL    HW164953   5.447   4.721   5.965  0.4479  1.5329 -0.2148
20982SOL    HW264954   5.330   4.628   5.990  1.4908 -0.1060 -1.1808
20983SOL     OW64955   8.271   5.653  10.680 -0.4995  0.5794 -0.0568
20983SOL    HW164956   8.231   5.682  10.598 -0.1968  1.0741 -0.0326
20983SOL    HW264957   8.355   5.615  10.654 -0.7126  0.0945 -0.0453
20984SOL     OW64958   3.524   9.238   9.662  0.2749 -0.0783 -0.1964
20984SOL    HW164959   3.577   9.211   9.587  0.0004  1.5834 -1.0386
20984SOL    HW264960   3.435   9.212   9.639  0.3906 -0.8665  0.2191
20985SOL     OW64961   1.811   1.756   4.705 -0.5591  0.3903  0.6747
20985SOL    HW164962   1.842   1.846   4.692 -0.0163  0.1997  0.6027
20985SOL    HW264963   1.774   1.755   4.793 -0.1304  0.5701  0.8592
20986SOL     OW64964   6.799   2.626   1.711  0.0792  0.0519 -0.0111
20986SOL    HW164965   6.879   2.575   1.718  1.1187  1.4276 -1.3783
20986SOL    HW264966   6.792   2.673   1.795  0.6528 -0.1295  0.1371
20987SOL     OW64967   8.486   1.554   3.716  0.1769 -0.6046  0.2287
20987SOL    HW164968   8.393   1.575   3.707  0.5237  0.6157 -0.7723
20987SOL    HW264969   8.518   1.616   3.782  0.7244  0.5698 -1.0814
20988SOL     OW64970   2.203   4.591   8.004 -0.5255 -0.4716 -0.0654
20988SOL    HW164971   2.279   4.644   8.026 -2.8464  3.2081  0.0948
20988SOL    HW264972   2.154   4.584   8.086 -3.3618  2.9117 -1.2280
20989SOL     OW64973   0.144   4.887   8.419 -0.3201  0.1873 -0.1861
20989SOL    HW164974   0.141   4.820   8.487 -0.6488  1.0344  0.6696
20989SOL    HW264975   0.053   4.895   8.390  0.0443 -1.2495 -1.8520
20990SOL     OW64976   1.985   5.302   5.238  0.1177 -0.5074 -0.0571
20990SOL    HW164977   1.950   5.224   5.195  0.5356 -0.2133 -0.9631
20990SOL    HW264978   2.079   5.299   5.220 -0.0484  0.9810 -1.4367
20991SOL     OW64979   6.865   3.143   4.126  0.2590 -0.8650  0.0922
20991SOL    HW164980   6.927   3.135   4.199 -0.3030 -2.2852  0.4374
20991SOL    HW264981   6.784   3.104   4.158 -0.4218 -0.2508 -0.8256
20992SOL     OW64982   0.305   2.983   4.947 -0.4430 -0.0250 -0.2321
20992SOL    HW164983   0.390   2.944   4.968 -1.1696 -1.6940 -0.2774
20992SOL    HW264984   0.327   3.067   4.907  1.3785 -1.7792 -3.3265
20993SOL     OW64985   7.335   9.553   5.204 -0.2508  0.2640  0.2715
20993SOL    HW164986   7.336   9.648   5.209 -0.1190  0.2089  1.8190
20993SOL    HW264987   7.243   9.529   5.200 -0.2799  0.4492 -0.2482
20994SOL     OW64988   5.193   4.079   7.279 -0.4720 -0.1236 -0.0673
20994SOL    HW164989   5.169   4.017   7.348 -0.0700 -1.7417 -1.3029
20994SOL    HW264990   5.279   4.048   7.249  0.4475  1.9618  0.2594
20995SOL     OW64991   5.354  10.418   5.420 -0.1685 -0.9008  0.6336
20995SOL    HW164992   5.285  10.403   5.486 -2.1048 -0.5932 -1.2215
20995SOL    HW264993   5.353  10.338   5.367  0.8696 -0.8547  0.5387
20996SOL     OW64994   5.170   1.119   3.594  0.4022 -0.2087  0.6496
20996SOL    HW164995   5.183   1.207   3.558 -1.6805  1.1780  2.9596
20996SOL    HW264996   5.161   1.063   3.518 -0.3839  1.9637 -0.9461
20997SOL     OW64997   1.434   0.999   7.460  0.0661 -0.4993 -0.3977
20997SOL    HW164998   1.389   1.077   7.492 -0.8059 -2.3515  3.3654
20997SOL    HW264999   1.402   0.988   7.370 -1.1767  2.3767 -0.4053
20998SOL     OW65000   3.129   8.894   0.253 -0.6893 -0.2003  0.2914
20998SOL    HW165001   3.153   8.833   0.322 -0.0659 -0.0221  0.2313
20998SOL    HW265002   3.180   8.867   0.177 -0.4159  0.3860  0.2611
20999SOL     OW65003   2.675   5.694   7.467 -0.0168 -0.0770 -0.0858
20999SOL    HW165004   2.613   5.632   7.505 -1.9295  0.1650 -2.5402
20999SOL    HW265005   2.727   5.725   7.541 -0.3088 -3.0724  1.5210
21000SOL     OW65006   7.535   2.312   5.464  0.0854  0.1483  0.1702
21000SOL    HW165007   7.579   2.235   5.499  0.1498 -0.3657 -1.0063
21000SOL    HW265008   7.605   2.377   5.456  0.2954 -0.1055 -0.0838
21001SOL     OW65009   3.979   4.380   1.146 -0.3898  0.6637  0.2870
21001SOL    HW165010   3.958   4.464   1.188  0.4286  1.1133 -0.1753
21001SOL    HW265011   4.050   4.401   1.085 -0.0333 -0.4119  0.3127
21002SOL     OW65012   6.755   9.391   2.602  0.1385 -0.6218  0.3749
21002SOL    HW165013   6.789   9.429   2.522 -0.0393  0.5731  0.8372
21002SOL    HW265014   6.661   9.410   2.599  0.1634 -0.3630  0.9506
21003SOL     OW65015  10.041  10.141   4.184 -0.3093  0.1044 -0.2792
21003SOL    HW165016  10.090  10.156   4.104 -0.5361  0.2136 -0.3977
21003SOL    HW265017  10.016  10.228   4.214  1.8952  0.2849  1.2554
21004SOL     OW65018   3.931   1.334   7.211 -0.2461 -0.2600 -0.4742
21004SOL    HW165019   3.904   1.285   7.289  0.5643  0.5422  0.3187
21004SOL    HW265020   3.954   1.421   7.243  0.3645  0.0002 -1.5653
21005SOL     OW65021  10.518   9.487  10.093  0.1602 -0.2077 -0.4608
21005SOL    HW165022  10.475   9.406  10.121  0.7964 -0.4442 -0.1462
21005SOL    HW265023  10.610   9.463  10.082  1.1464  1.2143  3.1528
21006SOL     OW65024   2.904   6.765   5.002 -0.8488 -0.2928  0.3843
21006SOL    HW165025   2.860   6.684   5.028  0.0523 -0.8336  0.2591
21006SOL    HW265026   2.949   6.794   5.081 -3.5246  1.7355  1.3322
21007SOL     OW65027   8.486   9.757   7.644  0.0950  0.1485  0.1176
21007SOL    HW165028   8.582   9.751   7.650  0.0697 -0.2206  0.1597
21007SOL    HW265029   8.469   9.778   7.552  0.1772 -0.7045 -0.1035
21008SOL     OW65030   2.365   9.503   3.006  0.0003  0.1239  0.0568
21008SOL    HW165031   2.420   9.581   2.995  0.1544  0.0503  0.2830
21008SOL    HW265032   2.378   9.453   2.925  0.8303 -0.2358  0.3999
21009SOL     OW65033   1.501  10.268   6.266 -0.4298 -0.3200  0.5834
21009SOL    HW165034   1.426  10.218   6.234 -0.3686  0.2719 -0.5067
21009SOL    HW265035   1.464  10.326   6.333 -0.7119 -0.9180  0.9577
21010SOL     OW65036   8.364   1.492   0.017 -0.0250 -0.9625 -0.1531
21010SOL    HW165037   8.348   1.441  -0.063  1.4665  0.0317 -1.1457
21010SOL    HW265038   8.369   1.582  -0.013  1.4200 -0.6480  0.9282
21011SOL     OW65039   7.304   1.636   7.039 -0.0483 -0.1034  0.4967
21011SOL    HW165040   7.228   1.630   7.096 -1.1962  0.9260 -0.8331
21011SOL    HW265041   7.327   1.729   7.039  3.2353 -0.7378  3.2989
21012SOL     OW65042   9.755   6.754   9.222  0.5321  0.4679 -0.4454
21012SOL    HW165043   9.823   6.735   9.157 -2.3202 -3.0265 -2.7238
21012SOL    HW265044   9.673   6.745   9.175 -1.6762  2.1190  2.7424
21013SOL     OW65045   3.038   0.987  10.369  0.1870  0.3128 -0.1842
21013SOL    HW165046   2.986   1.066  10.383  1.0949  1.1891 -1.4634
21013SOL    HW265047   2.980   0.929  10.320 -0.1903  0.5512 -0.0244
21014SOL     OW65048   3.881   4.556   9.838  0.5370  0.2210 -0.2369
21014SOL    HW165049   3.849   4.613   9.908  2.3574 -0.5126  1.2912
21014SOL    HW265050   3.863   4.467   9.870  0.8076 -0.1133 -0.9977
21015SOL     OW65051   5.118   2.273   6.438  0.8714  0.3136 -0.0794
21015SOL    HW165052   5.126   2.186   6.476  1.7224  0.8741  1.1242
21015SOL    HW265053   5.026   2.296   6.450  0.3009 -0.9460 -1.7102
21016SOL     OW65054   9.462   9.935   3.128  0.2417  0.3081 -0.2957
21016SOL    HW165055   9.432  10.011   3.177  0.8409  0.9558 -0.9088
21016SOL    HW265056   9.447   9.861   3.186 -0.1006  0.9298  0.4167
21017SOL     OW65057   4.855   7.857   2.184  0.5045 -0.4243 -0.2719
21017SOL    HW165058   4.925   7.835   2.124 -1.5323 -2.3571 -2.1278
21017SOL    HW265059   4.859   7.953   2.192  4.0329 -0.5203  0.7421
21018SOL     OW65060   9.291   9.591   5.639  0.4471  0.4672 -0.3269
21018SOL    HW165061   9.301   9.510   5.589 -2.1485  0.3859 -0.8665
21018SOL    HW265062   9.329   9.572   5.724  0.0126 -1.2911 -0.5004
21019SOL     OW65063   9.818   4.814  10.677 -0.5106 -0.3036  0.2571
21019SOL    HW165064   9.779   4.837  10.592  0.5643  0.1095 -0.1493
21019SOL    HW265065   9.906   4.783  10.655  0.4092  1.4080  1.3326
21020SOL     OW65066   7.908   9.542   2.459  0.2240  0.2965  0.4207
21020SOL    HW165067   7.858   9.622   2.444  0.8096  0.6742  0.4373
21020SOL    HW265068   7.917   9.503   2.372  0.1931  0.4042  0.3685
21021SOL     OW65069   2.570   4.225   2.420  0.1455  0.0566 -0.1781
21021SOL    HW165070   2.562   4.299   2.360 -0.2857 -1.3804 -1.9972
21021SOL    HW265071   2.498   4.237   2.482  0.1212  1.1951 -0.4071
21022SOL     OW65072   6.796   8.437   8.042 -0.3286 -0.1721  0.3401
21022SOL    HW165073   6.717   8.402   8.001 -1.2416  1.7476  0.3632
21022SOL    HW265074   6.808   8.523   8.002  0.8727  0.2090  1.4607
21023SOL     OW65075   3.074   4.825   6.162  0.1780  0.5688 -0.3888
21023SOL    HW165076   3.130   4.877   6.106 -2.2366  0.5184 -3.0684
21023SOL    HW265077   3.102   4.734   6.148  1.8759  0.7479  1.3547
21024SOL     OW65078   2.799   0.347   8.144  0.6173 -0.6162 -0.0812
21024SOL    HW165079   2.759   0.361   8.230 -0.6360  0.0371 -0.7470
21024SOL    HW265080   2.844   0.429   8.124 -0.4348 -0.1822 -0.7290
21025SOL     OW65081   4.209   2.964  10.541  0.4806  0.6068 -0.4425
21025SOL    HW165082   4.123   2.989  10.574  0.0755  1.1356 -1.8389
21025SOL    HW265083   4.191   2.891  10.482  1.3428 -1.2233  1.4336
21026SOL     OW65084   1.936   0.026   2.953  0.2280 -0.4524  0.3517
21026SOL    HW165085   1.964   0.105   3.001  0.9753  0.0251 -0.8184
21026SOL    HW265086   1.891  -0.027   3.018  1.8646 -0.1741  1.7860
21027SOL     OW65087   8.549  10.621   1.843 -0.3845  0.7732 -0.1159
21027SOL    HW165088   8.497  10.543   1.861 -2.8068  2.5607  1.2211
21027SOL    HW265089   8.598  10.636   1.924 -0.8207  1.2836  0.0542
21028SOL     OW65090   5.491   2.615   4.734 -0.0377  0.1648 -0.3965
21028SOL    HW165091   5.449   2.619   4.648 -0.7543  0.5777 -0.0418
21028SOL    HW265092   5.581   2.644   4.719 -0.0365 -0.1845 -1.0789
21029SOL     OW65093   0.605   9.409   9.562  0.0174 -0.4578  0.0847
21029SOL    HW165094   0.682   9.430   9.613  1.3656  0.5943 -2.2059
21029SOL    HW265095   0.534   9.457   9.604  0.6879 -0.9611  1.8727
21030SOL     OW65096   7.316   6.624   6.966  0.4760 -0.7953  0.1202
21030SOL    HW165097   7.245   6.572   6.929  1.0858 -1.6218  0.0765
21030SOL    HW265098   7.380   6.632   6.895 -0.4688  1.7549 -0.5462
21031SOL     OW65099   0.099   5.084   4.087  0.6258  0.2832 -0.1773
21031SOL    HW165100   0.182   5.125   4.111  0.6248  0.4822 -0.5096
21031SOL    HW265101   0.032   5.140   4.124  0.6185  0.7262 -0.8374
21032SOL     OW65102   5.244   8.229   7.704 -0.2434  0.3638  0.4212
21032SOL    HW165103   5.268   8.145   7.743 -2.4606 -0.3771  0.3020
21032SOL    HW265104   5.251   8.292   7.776  0.0044 -0.1731  0.8739
21033SOL     OW65105   5.657   5.443   6.040 -0.6982 -0.4457 -0.2016
21033SOL    HW165106   5.666   5.538   6.038 -0.1432 -0.4503  1.0321
21033SOL    HW265107   5.636   5.423   6.131 -0.9076 -1.5025 -0.4698
21034SOL     OW65108   3.152   9.009   7.183 -0.0391 -0.3798  0.1104
21034SOL    HW165109   3.199   8.965   7.254  1.5917 -0.7382 -1.1561
21034SOL    HW265110   3.164   8.953   7.107  1.2020  1.6722 -1.3123
21035SOL     OW65111   0.029   4.174   7.661  0.3012 -0.1045  0.0148
21035SOL    HW165112   0.009   4.186   7.568 -0.2092  0.5432  0.2016
21035SOL    HW265113  -0.033   4.107   7.690  0.1487  0.0292 -0.0035
21036SOL     OW65114   1.115   4.117   5.294  0.3068  0.1494 -0.3108
21036SOL    HW165115   1.149   4.151   5.212 -1.9620  3.3676 -0.1194
21036SOL    HW265116   1.179   4.145   5.360  0.9711 -0.4457 -0.6832
21037SOL     OW65117   1.568  10.317   3.020 -0.1310  0.6966 -0.0337
21037SOL    HW165118   1.581  10.350   2.930  1.5885  1.0989  0.3224
21037SOL    HW265119   1.544  10.395   3.070  1.0252  0.8841  0.2473
21038SOL     OW65120   3.523   2.761   8.162 -0.5990  0.5467  0.5606
21038SOL    HW165121   3.595   2.711   8.201  1.1064 -0.3147 -3.2538
21038SOL    HW265122   3.551   2.852   8.169  2.8315  0.1352 -3.7581
21039SOL     OW65123   4.554   6.799   9.728  0.2244 -0.7243  0.6835
21039SOL    HW165124   4.616   6.798   9.801  1.4751 -0.3883 -0.3317
21039SOL    HW265125   4.476   6.756   9.762  1.2292 -1.7410  1.8240
21040SOL     OW65126   1.212   7.004   0.592  0.9328  0.2353  0.0425
21040SOL    HW165127   1.215   6.916   0.555 -0.4215 -0.3470  1.2212
21040SOL    HW265128   1.299   7.040   0.575  1.1218 -0.8583 -1.5467
21041SOL     OW65129   8.667   2.131  10.095  0.1343  0.2752 -0.0051
21041SOL    HW165130   8.734   2.200  10.102  1.1503 -0.6794 -0.0391
21041SOL    HW265131   8.668   2.106  10.002 -0.2805  0.2570 -0.0060
21042SOL     OW65132   2.224   8.712   4.118  0.1810  0.2715  0.5353
21042SOL    HW165133   2.199   8.629   4.158 -1.2356  0.6756  0.5585
21042SOL    HW265134   2.310   8.731   4.153  1.1743 -1.8654 -0.5538
21043SOL     OW65135   7.912   8.200   5.397  0.2625 -0.1510 -0.3172
21043SOL    HW165136   7.879   8.224   5.310 -1.6473  3.4110  1.2184
21043SOL    HW265137   8.004   8.228   5.396  0.2968 -0.2546 -1.2013
21044SOL     OW65138   8.502   2.684  10.096 -0.1882  0.7877  0.5986
21044SOL    HW165139   8.520   2.594  10.071  0.3403  0.6058  1.5718
21044SOL    HW265140   8.469   2.725  10.016 -2.4848 -0.7963  0.6367
21045SOL     OW65141   9.131   9.223   5.641 -0.0578 -0.3819  0.1943
21045SOL    HW165142   9.036   9.214   5.646 -0.0889  0.1611  0.7725
21045SOL    HW265143   9.164   9.134   5.637 -0.5961 -0.5728 -0.0050
21046SOL     OW65144  10.402   3.959   9.921  0.1871 -0.1512  0.2355
21046SOL    HW165145  10.351   4.025   9.967  1.7520  1.0999  0.2688
21046SOL    HW265146  10.486   3.956   9.968  0.7406 -0.9712 -0.7573
21047SOL     OW65147   6.244   8.054   4.763 -0.6457 -0.0428 -0.0865
21047SOL    HW165148   6.279   8.103   4.837 -1.3765 -0.9199  0.8722
21047SOL    HW265149   6.289   7.969   4.768 -2.1611 -0.8387  0.6011
21048SOL     OW65150   2.816   0.115   6.275  0.5758  0.1525 -0.0294
21048SOL    HW165151   2.858   0.106   6.360 -0.1747 -1.6453  0.1927
21048SOL    HW265152   2.761   0.193   6.284  1.7174  0.9121  0.5781
21049SOL     OW65153   3.807   6.973   7.541 -0.4747 -0.1382 -0.3181
21049SOL    HW165154   3.733   6.914   7.526 -0.5056 -0.1977  0.0600
21049SOL    HW265155   3.790   7.047   7.483 -0.8437 -0.1416 -0.2228
21050SOL     OW65156   0.001   1.348   5.121 -0.3195 -0.1661  0.1910
21050SOL    HW165157   0.022   1.337   5.028  0.9391 -0.7105  0.5300
21050SOL    HW265158  -0.041   1.265   5.146 -1.4242  0.2872 -0.0664
21051SOL     OW65159   5.644   6.078   2.426  0.1991 -0.6363 -1.1812
21051SOL    HW165160   5.549   6.066   2.431  0.0984 -0.2153 -1.9375
21051SOL    HW265161   5.665   6.061   2.335  0.8062 -0.3749 -1.0911
21052SOL     OW65162   8.742   3.891   0.547  0.6099 -0.6669 -1.4899
21052SOL    HW165163   8.720   3.984   0.550 -0.2367 -0.8682 -1.0873
21052SOL    HW265164   8.680   3.850   0.608  2.7593 -1.1478  0.4969
21053SOL     OW65165   2.693   5.487   4.026 -0.3608 -0.7113 -0.0634
21053SOL    HW165166   2.754   5.536   4.081  1.3379 -0.7171 -1.8141
21053SOL    HW265167   2.718   5.395   4.038 -1.0385 -0.8384  0.3680
21054SOL     OW65168   3.350   8.717   0.625  0.0857 -0.4372 -0.3847
21054SOL    HW165169   3.446   8.706   0.624 -0.0548 -2.2412  1.1495
21054SOL    HW265170   3.333   8.763   0.708 -0.2874  1.3754 -1.4265
21055SOL     OW65171   7.364   4.204   0.489  0.4581 -0.0353 -0.6204
21055SOL    HW165172   7.437   4.263   0.472  1.5339 -1.3758 -0.8817
21055SOL    HW265173   7.398   4.117   0.469 -1.5208 -0.6345 -1.7614
21056SOL     OW65174   7.401  10.262   5.024  0.0960  0.5954 -0.1669
21056SOL    HW165175   7.336  10.191   5.028  0.6824  0.0558 -0.0065
21056SOL    HW265176   7.358  10.335   5.069 -1.3520  1.0621 -2.1440
21057SOL     OW65177   2.508   9.998   5.374 -0.2495  0.1800 -0.1484
21057SOL    HW165178   2.603   9.996   5.362 -0.3529 -1.1759 -0.9719
21057SOL    HW265179   2.483   9.906   5.382 -1.3156  0.5674  1.7540
21058SOL     OW65180   8.937   8.206   6.612  0.1030  0.5492  0.7476
21058SOL    HW165181   8.944   8.232   6.520 -0.8976 -0.2736  0.4220
21058SOL    HW265182   8.918   8.288   6.659  1.2720  1.0851  0.3300
21059SOL     OW65183   9.311   3.994   0.937 -0.2538  0.0434  0.4978
21059SOL    HW165184   9.247   4.005   1.007  1.6552  1.8220  2.0973
21059SOL    HW265185   9.378   3.936   0.975 -1.1797 -2.4658 -1.4218
21060SOL     OW65186   1.603   1.999  10.722  0.5167 -0.0812 -0.3949
21060SOL    HW165187   1.535   2.067  10.727  1.7466  1.4386 -2.4243
21060SOL    HW265188   1.685   2.047  10.734  1.4626 -1.0631 -2.4169
21061SOL     OW65189   4.324   5.768   5.467 -0.1082 -0.8020  0.3733
21061SOL    HW165190   4.343   5.859   5.442  0.9920 -0.4171  2.4014
21061SOL    HW265191   4.313   5.722   5.384 -1.0869  1.2462 -0.7020
21062SOL     OW65192   2.703   0.086   0.439 -0.0194 -0.4168 -0.1493
21062SOL    HW165193   2.636   0.085   0.508 -1.9895 -1.9641 -1.9308
21062SOL    HW265194   2.778   0.130   0.479 -1.9567  1.1160  2.0840
21063SOL     OW65195  10.769   6.523   9.434 -0.0863  0.0955 -0.1974
21063SOL    HW165196  10.799   6.608   9.468 -1.0784 -0.0031  1.0154
21063SOL    HW265197  10.675   6.534   9.421 -0.6498 -1.3966  1.9976
21064SOL     OW65198   8.634   3.239   4.894  0.8820 -0.0557 -0.0574
21064SOL    HW165199   8.665   3.251   4.804 -0.5727 -0.5565 -0.6520
21064SOL    HW265200   8.671   3.312   4.942 -0.5404  1.8256 -1.6628
21065SOL     OW65201   2.495   9.048   8.860  0.7590 -0.4308  0.1143
21065SOL    HW165202   2.451   9.128   8.888  0.0504 -0.2863 -1.2993
21065SOL    HW265203   2.551   9.077   8.788 -0.0949 -1.3096 -0.9310
21066SOL     OW65204   4.053   8.518  10.822  0.0195 -0.0841  0.1848
21066SOL    HW165205   4.102   8.472  10.890 -1.8968 -0.5570  1.3190
21066SOL    HW265206   4.094   8.605  10.818  1.1917 -0.5780  0.7649
21067SOL     OW65207   5.885  10.134   9.824  0.3080 -0.1598  0.1024
21067SOL    HW165208   5.802  10.087   9.827  0.2808 -0.0503  1.2853
21067SOL    HW265209   5.882  10.182   9.741 -0.5651 -0.5942 -0.1257
21068SOL     OW65210   3.070   7.534  10.156 -0.1943 -0.3653 -0.4277
21068SOL    HW165211   3.131   7.579  10.098 -0.1730 -0.1823 -0.2625
21068SOL    HW265212   2.994   7.591  10.161  1.1704  1.4133  2.5381
21069SOL     OW65213   9.898   9.532  10.178 -0.5319 -0.4722 -0.5322
21069SOL    HW165214   9.824   9.474  10.198  1.5941 -3.2049 -0.0772
21069SOL    HW265215   9.950   9.484  10.114  0.5389  1.6802 -1.3537
21070SOL     OW65216  10.247   5.448   6.600  0.3894  0.2037 -0.2269
21070SOL    HW165217  10.178   5.388   6.571 -0.3787  1.7838 -1.8563
21070SOL    HW265218  10.324   5.421   6.550  0.1686  0.2812 -0.6117
21071SOL     OW65219   3.572  10.721   6.772  1.0136 -0.5482  0.0246
21071SOL    HW165220   3.544  10.672   6.695 -0.4645  0.2337  0.0416
21071SOL    HW265221   3.542  10.668   6.846  1.7710 -0.9228  0.0749
21072SOL     OW65222   6.263   1.117   2.203  0.7311  0.2047  0.0218
21072SOL    HW165223   6.168   1.105   2.201  1.0003 -2.6704 -2.1843
21072SOL    HW265224   6.277   1.204   2.166 -1.0221  0.0340 -1.1481
21073SOL     OW65225   5.458   2.301   5.452  0.0016 -0.1179  0.0149
21073SOL    HW165226   5.394   2.312   5.522  0.5512  2.9253  0.1596
21073SOL    HW265227   5.542   2.294   5.497  0.4168  2.3706 -0.2439
21074SOL     OW65228   4.527   9.411   4.241  0.2053  0.2327 -0.4531
21074SOL    HW165229   4.608   9.368   4.212  0.3447  1.3719 -1.8156
21074SOL    HW265230   4.457   9.352   4.215  0.5985 -1.4040  1.8825
21075SOL     OW65231   2.368  10.452   8.789  0.4500  0.6240 -0.0578
21075SOL    HW165232   2.360  10.528   8.731  0.1447  0.8010  0.2138
21075SOL    HW265233   2.294  10.396   8.765  2.0570 -0.8115 -2.0205
21076SOL     OW65234   3.757   7.666   8.670  0.2159  0.1251 -0.0405
21076SOL    HW165235   3.820   7.594   8.671 -1.7579 -1.7369  2.0735
21076SOL    HW265236   3.741   7.681   8.577  0.5725 -2.3581 -0.5986
21077SOL     OW65237   3.997   8.731   0.976 -0.3451  0.7707 -0.4321
21077SOL    HW165238   4.026   8.780   0.899  0.1230  3.5631  1.4075
21077SOL    HW265239   4.058   8.756   1.045 -1.4607 -0.7211  1.1801
21078SOL     OW65240   7.713   8.858   4.885 -0.0867 -0.3146 -0.4334
21078SOL    HW165241   7.688   8.786   4.827  0.9222 -1.4328  0.4609
21078SOL    HW265242   7.683   8.937   4.840  1.2593 -1.0622 -2.8273
21079SOL     OW65243   6.063   3.657   0.491  0.4830  0.2750 -0.3230
21079SOL    HW165244   6.156   3.675   0.478  1.0663 -1.6461  0.7103
21079SOL    HW265245   6.033   3.622   0.407  0.5262  1.4796 -0.8482
21080SOL     OW65246   6.455   7.348   0.014 -0.2458 -0.2356 -0.0275
21080SOL    HW165247   6.470   7.280   0.080 -1.7008  0.5201  1.1432
21080SOL    HW265248   6.404   7.305  -0.054 -1.7733 -0.1796  1.0468
21081SOL     OW65249   7.231   7.980   5.779 -0.8413  0.5841  0.5638
21081SOL    HW165250   7.210   8.070   5.801 -1.0566  0.2041  1.9935
21081SOL    HW265251   7.199   7.928   5.852 -1.7718 -0.7992 -0.7594
21082SOL     OW65252   3.686   7.017   9.575  0.6301  1.0360 -0.3686
21082SOL    HW165253   3.760   7.004   9.635  3.3110 -1.6294 -3.8040
21082SOL    HW265254   3.652   6.929   9.559  0.3823  1.5083 -2.9808
21083SOL     OW65255   4.202   8.473   5.266 -0.4470  0.2347  0.0228
21083SOL    HW165256   4.209   8.560   5.305 -0.3813 -0.4156  1.5374
21083SOL    HW265257   4.180   8.415   5.339 -0.5032 -1.0293 -0.9473
21084SOL     OW65258   7.480   2.374   8.298 -0.0268  0.2155  0.2779
21084SOL    HW165259   7.493   2.295   8.245  0.1024 -0.1735  0.8850
21084SOL    HW265260   7.560   2.381   8.350 -1.0307 -0.6483  2.0192
21085SOL     OW65261   3.636  10.101   7.735  0.3531  0.2930  0.4827
21085SOL    HW165262   3.686  10.039   7.788  0.8173  0.7031  0.5282
21085SOL    HW265263   3.688  10.181   7.735  2.2562 -0.6704 -3.5443
21086SOL     OW65264   9.148   8.192   8.632  1.0100 -0.0039  0.4710
21086SOL    HW165265   9.118   8.115   8.584  2.0583 -0.2057  0.1277
21086SOL    HW265266   9.091   8.262   8.601 -1.5093 -0.9994  2.4188
21087SOL     OW65267   3.626   1.110   5.179 -0.2367  0.3663 -1.0542
21087SOL    HW165268   3.683   1.119   5.104 -0.2274 -4.3643 -1.9486
21087SOL    HW265269   3.685   1.101   5.254 -0.1345  1.7441 -0.9454
21088SOL     OW65270   5.546   5.722   2.247  0.2556 -0.2199 -0.5009
21088SOL    HW165271   5.608   5.723   2.320 -1.0475  0.9788  0.6392
21088SOL    HW265272   5.464   5.692   2.285 -0.3300 -0.0749 -1.5984
21089SOL     OW65273   7.144   0.720   5.691 -0.0906 -0.2098 -0.5331
21089SOL    HW165274   7.194   0.782   5.639  0.6116 -0.1320  0.2055
21089SOL    HW265275   7.195   0.709   5.771 -1.5641  0.3389  0.5257
21090SOL     OW65276   8.900  10.794   3.387  0.3452  0.1546  0.6043
21090SOL    HW165277   8.841  10.741   3.439 -0.1146 -2.4092 -2.2236
21090SOL    HW265278   8.851  10.875   3.370  0.4948  1.0450  3.8422
21091SOL     OW65279   3.092   3.448   2.027  0.3759  0.1414 -0.5530
21091SOL    HW165280   3.049   3.508   2.087 -0.8984 -0.2500 -1.0316
21091SOL    HW265281   3.094   3.364   2.074  0.7541  0.1853 -0.4835
21092SOL     OW65282   7.266   3.185   2.305 -0.4783 -0.4027 -0.2676
21092SOL    HW165283   7.223   3.103   2.281  1.5776 -1.6025 -0.0974
21092SOL    HW265284   7.305   3.216   2.222 -0.5111 -0.0666 -0.1581
21093SOL     OW65285   4.090   7.409   5.189 -0.2882  0.6312 -0.3844
21093SOL    HW165286   4.017   7.455   5.228 -0.5655  0.6634 -0.9277
21093SOL    HW265287   4.156   7.477   5.174 -0.0777  0.5707  0.2670
21094SOL     OW65288   6.052   1.866  10.078  0.5276  0.3729  0.2802
21094SOL    HW165289   6.136   1.830  10.052  0.2212  1.1063 -1.9905
21094SOL    HW265290   6.011   1.797  10.130  1.3306 -1.2090 -1.0746
21095SOL     OW65291   7.140   3.266  10.279 -0.7026 -0.1261  0.2237
21095SOL    HW165292   7.070   3.223  10.329 -1.4752  2.0463  1.1464
21095SOL    HW265293   7.127   3.360  10.295  0.2586  0.5728 -2.4957
21096SOL     OW65294   6.802   4.855  10.758 -0.1640  0.2968  0.1451
21096SOL    HW165295   6.805   4.822  10.668 -2.5331 -0.5498  0.3055
21096SOL    HW265296   6.832   4.782  10.812 -0.8663  0.0165  0.1696
21097SOL     OW65297   6.518   7.073   2.757 -0.5159  0.3581  0.2837
21097SOL    HW165298   6.599   7.024   2.772 -0.0743  0.1796 -2.2326
21097SOL    HW265299   6.546   7.154   2.715 -1.6392  0.0853 -1.0660
21098SOL     OW65300   4.494   9.970   2.947  0.1373 -0.2932 -0.6784
21098SOL    HW165301   4.464  10.041   3.004 -0.4040  0.5080 -1.9329
21098SOL    HW265302   4.537  10.014   2.874  2.6911 -1.3564  0.0777
21099SOL     OW65303   1.728   8.754   9.794 -0.0264 -0.0459  0.4278
21099SOL    HW165304   1.643   8.788   9.767  0.0771  0.4259  0.6725
21099SOL    HW265305   1.733   8.773   9.888  0.4700  0.2066  0.3563
21100SOL     OW65306   6.191   9.021   0.240  0.0062  0.6560  0.2282
21100SOL    HW165307   6.147   8.997   0.158  0.4892 -0.5658  0.3085
21100SOL    HW265308   6.235   9.104   0.220  0.2110  0.3192 -0.7855
21101SOL     OW65309   5.914   3.441   3.384 -0.1670 -0.2113  0.1413
21101SOL    HW165310   5.989   3.483   3.342 -0.5695  2.3763  1.7941
21101SOL    HW265311   5.865   3.402   3.311  0.0882  2.5114 -1.6380
21102SOL     OW65312   2.083   4.981   0.766  0.2362 -0.9502 -0.1050
21102SOL    HW165313   2.126   4.908   0.810 -2.0126 -1.3386  1.5885
21102SOL    HW265314   2.091   4.961   0.673  1.9537 -1.9583  0.2162
21103SOL     OW65315   1.721   9.820   8.690  0.4571 -0.0347  0.3965
21103SOL    HW165316   1.751   9.742   8.738 -1.3613 -0.0612  1.6045
21103SOL    HW265317   1.751   9.894   8.743  2.6527  0.1989 -1.0270
21104SOL     OW65318   6.754   6.975   8.200  0.2211  0.5717 -0.4154
21104SOL    HW165319   6.672   6.939   8.167  0.8168 -0.8500 -0.4196
21104SOL    HW265320   6.782   7.036   8.132  0.4800 -0.9234 -1.7353
21105SOL     OW65321   5.466   8.500   1.287  0.2425 -0.9244 -1.3615
21105SOL    HW165322   5.443   8.410   1.312 -0.2096 -0.2738  0.7782
21105SOL    HW265323   5.458   8.550   1.368  1.5639  0.8611 -2.2673
21106SOL     OW65324   5.211   0.549   1.064  0.8048  0.0195 -0.5109
21106SOL    HW165325   5.205   0.604   1.142 -0.2701 -0.4494 -0.2598
21106SOL    HW265326   5.263   0.602   1.002  1.0557  0.6835  0.2527
21107SOL     OW65327   0.119   3.926   5.947 -0.6550  0.0805 -0.3774
21107SOL    HW165328   0.203   3.922   5.992 -0.5425 -0.4096 -0.6294
21107SOL    HW265329   0.090   3.835   5.942 -1.0237  0.2099 -0.6233
21108SOL     OW65330   5.198   2.685  10.805 -0.3595  0.0140 -0.2187
21108SOL    HW165331   5.145   2.627  10.861 -2.2346  1.5174 -0.3452
21108SOL    HW265332   5.281   2.694  10.852 -1.6005  0.6338  1.9883
21109SOL     OW65333   6.320   3.136   4.394  0.0283 -0.4501  0.1103
21109SOL    HW165334   6.369   3.188   4.331 -0.5945 -1.2631 -1.1027
21109SOL    HW265335   6.342   3.172   4.479 -0.1506  1.5828 -0.6642
21110SOL     OW65336   3.113   2.632   1.878 -0.2829 -1.1119 -0.0677
21110SOL    HW165337   3.173   2.576   1.828  1.8197 -0.9735  2.1233
21110SOL    HW265338   3.143   2.624   1.968 -2.3692  0.5787  0.8508
21111SOL     OW65339   8.719   2.691   5.878  0.4134 -0.3255  0.1932
21111SOL    HW165340   8.764   2.762   5.832 -1.2441 -1.1016 -2.9586
21111SOL    HW265341   8.637   2.731   5.908 -1.1005 -0.9506 -2.6574
21112SOL     OW65342   8.159   0.693   3.907 -0.0388  0.3025  0.3125
21112SOL    HW165343   8.254   0.703   3.900 -0.1005  0.9638  0.3180
21112SOL    HW265344   8.126   0.718   3.821 -0.1325 -1.0903 -0.0729
21113SOL     OW65345   2.837   5.611  10.370 -0.0182  0.2890 -0.1410
21113SOL    HW165346   2.905   5.665  10.330 -0.1793 -0.5063 -1.5586
21113SOL    HW265347   2.867   5.598  10.460  2.6643 -1.4603 -1.1467
21114SOL     OW65348   0.857   9.398   9.051  0.0037  0.1839 -0.4254
21114SOL    HW165349   0.943   9.433   9.076  0.8346 -1.0245 -1.4247
21114SOL    HW265350   0.850   9.316   9.100  0.3647 -0.7443 -1.8403
21115SOL     OW65351   6.733   7.916   6.222  0.3884 -0.3521 -0.0575
21115SOL    HW165352   6.828   7.923   6.210  0.4005 -1.7753 -1.0538
21115SOL    HW265353   6.696   7.949   6.140  0.1468 -2.2798 -0.7715
21116SOL     OW65354   6.747   0.244   3.378 -0.3972  0.2799 -0.4210
21116SOL    HW165355   6.775   0.336   3.379 -2.3367  0.9955  2.7925
21116SOL    HW265356   6.715   0.228   3.467 -1.9158 -2.9734 -1.4057
21117SOL     OW65357   5.477  10.771   3.167 -0.2969 -0.7585  0.1201
21117SOL    HW165358   5.394  10.792   3.125 -0.1247 -0.3998 -0.0450
21117SOL    HW265359   5.488  10.677   3.154  0.0305 -0.5679 -1.1486
21118SOL     OW65360   6.883  10.890   5.206  0.0510 -0.6896 -0.2389
21118SOL    HW165361   6.825  10.922   5.137 -0.6242  0.2986  0.7611
21118SOL    HW265362   6.949  10.959   5.216 -1.0202  0.1507  1.4655
21119SOL     OW65363   0.036   9.532   0.517  0.9117 -0.6733  0.9713
21119SOL    HW165364   0.003   9.443   0.503 -0.0626 -0.6169  2.6600
21119SOL    HW265365   0.074   9.530   0.604  2.4941  0.1380  0.3373
21120SOL     OW65366   8.317   4.922   2.221 -0.4939  0.0679 -0.2062
21120SOL    HW165367   8.307   4.849   2.161 -3.0309  0.2466 -0.0943
21120SOL    HW265368   8.312   4.882   2.308  0.5095  0.1344 -0.0994
21121SOL     OW65369   7.049   0.105   8.781  0.4628  0.4548  0.6840
21121SOL    HW165370   6.996   0.026   8.765 -1.0945  1.3211  1.3767
21121SOL    HW265371   6.985   0.176   8.788  1.8577  1.8533 -0.2405
21122SOL     OW65372   8.640   2.923   2.150 -0.3058  0.4998 -0.2616
21122SOL    HW165373   8.726   2.933   2.111  0.4044 -1.6338  0.6049
21122SOL    HW265374   8.579   2.956   2.084  1.1771  4.0979 -0.0736
21123SOL     OW65375   7.522   0.039   2.900 -0.1265  1.0121  0.4960
21123SOL    HW165376   7.527  -0.043   2.852  1.7375  2.4525 -2.0059
21123SOL    HW265377   7.430   0.046   2.926  0.0283 -2.8008  2.7883
21124SOL     OW65378   0.944   4.233  10.014 -0.0011 -0.4414 -0.6017
21124SOL    HW165379   0.880   4.163  10.001 -0.2790 -0.2855 -0.1045
21124SOL    HW265380   0.913   4.305   9.958 -0.8690  0.0197  0.4417
21125SOL     OW65381  10.796   9.867   6.541 -0.2351 -0.3174 -0.2602
21125SOL    HW165382  10.792   9.855   6.446  3.6558  1.9897 -0.9479
21125SOL    HW265383  10.889   9.855   6.562 -1.2531 -2.9783  3.7357
21126SOL     OW65384   9.758   4.212   2.631  0.5434  0.4761 -0.0912
21126SOL    HW165385   9.755   4.181   2.541  0.1518  0.6106 -0.1271
21126SOL    HW265386   9.691   4.280   2.635  0.4854  0.3964  0.3307
21127SOL     OW65387   2.950   9.191   5.937  0.3745  0.5372 -0.2494
21127SOL    HW165388   3.029   9.168   5.887  1.2444  0.2746  1.2066
21127SOL    HW265389   2.900   9.110   5.941  0.1958  0.6132 -0.8759
21128SOL     OW65390   8.426   0.026   0.762  0.1722  0.4929  0.6097
21128SOL    HW165391   8.363   0.020   0.833  0.6870 -2.5486  0.9510
21128SOL    HW265392   8.376   0.004   0.683  0.8340 -3.2890  1.0378
21129SOL     OW65393   1.335   3.416   3.216 -0.3105 -0.3517 -0.3844
21129SOL    HW165394   1.260   3.471   3.239 -0.4715  0.9187 -3.4797
21129SOL    HW265395   1.394   3.424   3.291 -3.1467 -1.3918  2.1686
21130SOL     OW65396   2.979   8.506   0.680 -0.0843 -0.1846  0.6573
21130SOL    HW165397   3.066   8.501   0.720  1.4557 -1.6475 -2.4129
21130SOL    HW265398   2.979   8.434   0.616 -3.6503 -0.3107  0.6006
21131SOL     OW65399   6.007   0.654   0.744  0.0885 -0.0354  0.0022
21131SOL    HW165400   6.021   0.713   0.670  0.0041 -0.5138 -0.3951
21131SOL    HW265401   6.068   0.582   0.730 -0.6295 -0.6274 -0.1368
21132SOL     OW65402   0.698  10.676   6.512  0.6719 -0.2201  0.7429
21132SOL    HW165403   0.633  10.669   6.443 -0.7130  1.5578  1.7720
21132SOL    HW265404   0.741  10.760   6.498  1.8172 -0.7471  0.8923
21133SOL     OW65405   8.652  10.873   9.605 -0.3591 -0.1731 -1.1296
21133SOL    HW165406   8.712  10.826   9.663  0.7090  2.1120 -0.2565
21133SOL    HW265407   8.710  10.918   9.543 -1.3657 -0.3840 -2.2671
21134SOL     OW65408   1.980   7.867   0.709  0.2790 -0.2167 -0.2687
21134SOL    HW165409   1.998   7.783   0.666  0.2518 -0.6810  0.6026
21134SOL    HW265410   2.066   7.910   0.714  0.1356  0.2601 -1.6191
21135SOL     OW65411   9.940   2.991   5.144 -0.3285  0.0597  0.0988
21135SOL    HW165412   9.863   2.936   5.162 -0.2990 -0.6894 -1.8486
21135SOL    HW265413  10.000   2.973   5.216 -1.8337  0.4386  1.5060
21136SOL     OW65414   6.519   2.776   1.895 -0.1883  0.3158 -0.4885
21136SOL    HW165415   6.459   2.841   1.931  0.4500 -0.0764  1.4471
21136SOL    HW265416   6.471   2.693   1.903  0.3211  0.0928  0.4439
21137SOL     OW65417   0.776   0.553   7.801 -0.0332  0.0435  0.1633
21137SOL    HW165418   0.727   0.473   7.819  0.3234 -0.5137 -1.2289
21137SOL    HW265419   0.783   0.596   7.886 -0.9654 -0.9769  0.7879
21138SOL     OW65420   8.083  10.918   3.306 -0.1096 -0.0697 -0.1935
21138SOL    HW165421   8.077  10.999   3.356  1.5591  0.3744 -0.6299
21138SOL    HW265422   8.162  10.930   3.252  1.0501 -2.5556  0.8047
21139SOL     OW65423   7.790   2.123   4.452  0.1744 -0.1674 -0.5918
21139SOL    HW165424   7.877   2.084   4.449 -0.2261 -1.1680  0.4116
21139SOL    HW265425   7.798   2.203   4.400  2.1962  0.7552  0.9951
21140SOL     OW65426   3.271   0.689   7.559  0.1258 -0.6460  0.5814
21140SOL    HW165427   3.242   0.644   7.479 -0.0628  1.2135 -0.4529
21140SOL    HW265428   3.360   0.718   7.539 -0.4474  1.1072  0.4561
21141SOL     OW65429   5.591   5.633   1.576  0.2537 -0.2922 -0.5590
21141SOL    HW165430   5.593   5.553   1.629 -0.0350 -0.1364 -0.3132
21141SOL    HW265431   5.681   5.666   1.581  0.3072 -0.4517 -0.4317
21142SOL     OW65432   2.480   6.798   3.760 -0.5442  0.0012  0.4499
21142SOL    HW165433   2.525   6.738   3.820  0.5613  0.0415 -0.2988
21142SOL    HW265434   2.548   6.822   3.697 -1.1853  1.4471  0.2955
21143SOL     OW65435   5.856   8.746  11.047  0.0915  0.2595 -0.2775
21143SOL    HW165436   5.884   8.711  10.962 -0.9044 -2.1979  0.3241
21143SOL    HW265437   5.770   8.785  11.030  0.8031  1.6870 -0.7671
21144SOL     OW65438   1.049   2.640   4.417  0.1833  0.7755  0.1434
21144SOL    HW165439   1.049   2.553   4.457  1.0491  0.8887  0.4141
21144SOL    HW265440   1.022   2.625   4.327  2.9380 -0.1974 -0.6190
21145SOL     OW65441   5.282   8.468   6.066  0.1475 -0.3291 -0.0822
21145SOL    HW165442   5.317   8.461   5.978 -0.9564  2.0838 -0.7845
21145SOL    HW265443   5.342   8.526   6.112 -0.0505 -0.4300  0.3116
21146SOL     OW65444   6.123   1.503   5.143  0.5565 -0.1701  0.3599
21146SOL    HW165445   6.124   1.492   5.048  0.8157 -2.7304  0.5824
21146SOL    HW265446   6.126   1.597   5.157 -1.4782  0.3665 -2.1784
21147SOL     OW65447   9.536   8.725   5.911  0.8210 -0.3875 -0.0422
21147SOL    HW165448   9.495   8.684   5.834  0.2546  1.4179 -0.7493
21147SOL    HW265449   9.541   8.654   5.975  0.3830 -1.6977 -1.3818
21148SOL     OW65450  10.209   9.702   5.645 -0.5311  0.5240 -0.5934
21148SOL    HW165451  10.133   9.752   5.617 -0.7275  0.8356  0.4282
21148SOL    HW265452  10.271   9.768   5.676 -0.0174  0.2457 -1.0063
21149SOL     OW65453  10.205   8.633   3.275 -0.3082  0.1439  0.3011
21149SOL    HW165454  10.225   8.658   3.366 -0.8715  2.5229 -0.1604
21149SOL    HW265455  10.174   8.543   3.282  3.6601 -1.3470  1.9028
21150SOL     OW65456   8.807   0.851  10.702 -1.2612 -0.3530  0.8740
21150SOL    HW165457   8.856   0.773  10.727 -1.1137 -0.0903  1.4250
21150SOL    HW265458   8.725   0.818  10.665 -1.3284 -0.7619  1.3855
21151SOL     OW65459   1.397  10.156   1.623 -0.0946 -0.0650 -0.2253
21151SOL    HW165460   1.487  10.185   1.609  0.0065  0.7303  1.7135
21151SOL    HW265461   1.351  10.235   1.654 -1.3419 -0.5797 -0.6877
21152SOL     OW65462   1.377   9.627   1.956 -0.1328  0.2701 -0.2415
21152SOL    HW165463   1.410   9.592   2.039 -0.9141 -2.3507 -0.9409
21152SOL    HW265464   1.291   9.661   1.978  0.5992  1.7682  0.4419
21153SOL     OW65465  10.237   1.710   7.378 -0.1089  0.8259 -0.8115
21153SOL    HW165466  10.330   1.690   7.379 -0.0105  1.2386 -1.5157
21153SOL    HW265467  10.197   1.639   7.429  0.5404  0.4310 -0.8413
21154SOL     OW65468   6.075   4.883   8.064  0.0292  0.2793  0.4135
21154SOL    HW165469   6.110   4.856   7.980  0.9433 -0.6809  1.0960
21154SOL    HW265470   5.988   4.843   8.068  0.4535 -0.6445  0.4281
21155SOL     OW65471   5.842   3.604   1.233 -0.5327  0.2984  0.1518
21155SOL    HW165472   5.802   3.558   1.160  0.9609 -0.2950 -0.3269
21155SOL    HW265473   5.930   3.568   1.239 -0.2565  1.1205  1.5545
21156SOL     OW65474   0.020   8.367   9.225  0.4319  0.4411 -0.0698
21156SOL    HW165475  -0.042   8.336   9.158  0.2759  0.2393  0.1644
21156SOL    HW265476  -0.022   8.343   9.308  0.5640  0.8077  0.0998
21157SOL     OW65477   6.862   2.374   0.659 -0.2237 -0.1563 -0.1088
21157SOL    HW165478   6.838   2.393   0.749 -0.8768 -2.2264  0.2148
21157SOL    HW265479   6.848   2.279   0.650  0.7724 -0.1720 -2.0906
21158SOL     OW65480   7.426   7.164   6.100  0.1058  0.1727 -0.9712
21158SOL    HW165481   7.372   7.086   6.092  1.3634 -0.8313  0.0779
21158SOL    HW265482   7.370   7.228   6.144  0.0993 -1.2461  1.2250
21159SOL     OW65483   5.476   6.877   2.516 -0.3158  0.1431  0.0863
21159SOL    HW165484   5.396   6.842   2.554 -1.1360  2.2918  0.4977
21159SOL    HW265485   5.541   6.808   2.527 -0.9950 -0.1157  3.6675
21160SOL     OW65486   4.503   2.409   5.932 -0.0773  0.1494  0.4372
21160SOL    HW165487   4.540   2.351   5.999 -1.7022  0.7083  1.8725
21160SOL    HW265488   4.496   2.494   5.975  0.1171  0.8663 -0.9061
21161SOL     OW65489   9.842   9.096   4.609  0.8199 -0.3582  0.0375
21161SOL    HW165490   9.837   9.151   4.687  0.5761 -0.0228 -0.2122
21161SOL    HW265491   9.764   9.041   4.613 -0.9087  1.7730 -1.5330
21162SOL     OW65492   7.855   7.537   2.184 -0.7077  0.0581  0.2555
21162SOL    HW165493   7.908   7.475   2.233  2.3850  0.0581 -2.7056
21162SOL    HW265494   7.799   7.482   2.129 -3.8460  0.0625  3.1350
21163SOL     OW65495   2.013   0.354   0.765  0.3561 -0.4547 -0.4352
21163SOL    HW165496   2.019   0.378   0.672  0.2098  0.8713 -0.1238
21163SOL    HW265497   1.933   0.303   0.772 -0.8810  1.3439 -0.6867
21164SOL     OW65498   5.343   7.822   7.970  0.3567  0.0679 -0.0246
21164SOL    HW165499   5.422   7.772   7.992 -0.5905 -1.3629  0.2073
21164SOL    HW265500   5.365   7.865   7.888  1.0406 -1.1225 -0.4922
21165SOL     OW65501   7.097   8.281  10.841  0.2120 -0.4064  0.1143
21165SOL    HW165502   7.055   8.290  10.927 -1.3313 -1.1375 -0.5084
21165SOL    HW265503   7.177   8.231  10.859  0.3315  0.1533  1.2267
21166SOL     OW65504   4.125   9.453   5.707  0.1332  0.0948  0.2435
21166SOL    HW165505   4.154   9.455   5.616 -1.6232 -0.3202 -0.3660
21166SOL    HW265506   4.203   9.479   5.758  0.9139  1.1809 -1.4121
21167SOL     OW65507   3.134   1.174   6.427  0.1374 -0.0058 -0.1821
21167SOL    HW165508   3.072   1.102   6.414 -0.7716  0.6241  0.6297
21167SOL    HW265509   3.194   1.141   6.494 -1.0730  0.4665  1.1724
21168SOL     OW65510   3.831   0.608   5.781 -0.3517  0.0359  0.4247
21168SOL    HW165511   3.804   0.530   5.732  0.4098 -0.0260  0.0953
21168SOL    HW265512   3.878   0.574   5.856 -0.5920  0.1664  0.6378
21169SOL     OW65513   1.707   9.604   9.417  0.5945  0.2888 -0.2415
21169SOL    HW165514   1.726   9.510   9.415 -3.4608 -0.7089 -0.0995
21169SOL    HW265515   1.698   9.625   9.510  1.3365  0.8214 -0.2787
21170SOL     OW65516   1.877   6.420   8.092 -0.3835 -0.2268 -1.3486
21170SOL    HW165517   1.828   6.338   8.095  1.7194 -1.5530  0.7502
21170SOL    HW265518   1.967   6.394   8.072  0.5175  1.4134  0.2585
21171SOL     OW65519  10.590  10.840   0.475  0.2072 -0.2217 -0.2187
21171SOL    HW165520  10.605  10.931   0.449 -1.0628  0.1073  0.1359
21171SOL    HW265521  10.497  10.827   0.462  0.0133 -0.8722  1.5680
21172SOL     OW65522   2.304   5.822   2.384 -0.0415  0.1620  0.5798
21172SOL    HW165523   2.348   5.825   2.299  0.9664  0.7027  1.0990
21172SOL    HW265524   2.310   5.730   2.411  0.0476  0.0772  0.2754
21173SOL     OW65525   6.818   0.037   2.726  0.0182 -0.5224 -0.4474
21173SOL    HW165526   6.781   0.111   2.774 -0.6887 -0.7932 -0.5542
21173SOL    HW265527   6.909   0.061   2.710 -0.4023  0.6783 -1.1923
21174SOL     OW65528   8.362   3.654   5.393 -0.0698  0.0370 -0.1328
21174SOL    HW165529   8.296   3.633   5.327 -0.5535 -1.4357  0.7722
21174SOL    HW265530   8.441   3.611   5.363 -0.4022 -1.0036  0.4403
21175SOL     OW65531   4.836   6.220   0.716  0.3399  0.1693  0.1583
21175SOL    HW165532   4.815   6.282   0.786 -1.1431 -1.0126  0.8309
21175SOL    HW265533   4.780   6.144   0.734 -1.8707  0.6749 -3.5634
21176SOL     OW65534   4.892   9.136   4.547 -0.3127  0.1678 -0.7653
21176SOL    HW165535   4.833   9.117   4.474 -2.8056 -0.6429  1.3301
21176SOL    HW265536   4.893   9.056   4.599 -0.3017  1.3818  1.1944
21177SOL     OW65537   2.615   0.734   2.941 -0.6197 -0.3276  0.0616
21177SOL    HW165538   2.632   0.741   2.847 -0.1368  0.3652  0.1925
21177SOL    HW265539   2.523   0.707   2.947 -0.7778  0.0355 -0.6076
21178SOL     OW65540   9.219   1.534   0.334  0.4565 -0.4824  0.5006
21178SOL    HW165541   9.226   1.459   0.393 -1.0703 -1.1978 -0.1716
21178SOL    HW265542   9.126   1.540   0.315  0.7901  0.4426 -0.9352
21179SOL     OW65543   4.719   7.973   3.601  0.4544  0.1923 -0.1743
21179SOL    HW165544   4.759   7.979   3.687 -2.1007  0.8658  1.0606
21179SOL    HW265545   4.724   8.062   3.566 -1.4368  0.6857  0.7355
21180SOL     OW65546   2.738   3.977   5.872 -0.7043  0.5603 -0.0133
21180SOL    HW165547   2.799   3.928   5.928  0.2829  0.7074 -0.9318
21180SOL    HW265548   2.779   3.976   5.786 -1.0120  2.4048 -0.2147
21181SOL     OW65549   7.052   6.794   8.168 -0.6165  0.1724 -0.1640
21181SOL    HW165550   7.032   6.885   8.188 -0.0035 -0.0793  1.8283
21181SOL    HW265551   7.093   6.796   8.081  0.2655  1.9037  0.2667
21182SOL     OW65552   7.181  11.061   1.091  0.0698 -0.0303 -0.0712
21182SOL    HW165553   7.263  11.111   1.087  0.2056 -0.1817  0.6910
21182SOL    HW265554   7.141  11.088   1.173  0.2893 -1.4005  0.5113
21183SOL     OW65555   4.650  11.026   4.008 -0.2864  0.4553 -1.1765
21183SOL    HW165556   4.568  11.056   4.049  0.1609  2.0259 -1.3684
21183SOL    HW265557   4.717  11.045   4.074 -0.0321 -0.6642 -1.0927
21184SOL     OW65558   7.240   5.532   6.171 -0.2337  0.6177  0.1575
21184SOL    HW165559   7.163   5.583   6.196 -1.9993 -1.5682 -0.4670
21184SOL    HW265560   7.228   5.513   6.078  0.2452 -1.0055  0.3811
21185SOL     OW65561   5.535   4.807   7.804  0.1827 -1.1282 -0.1098
21185SOL    HW165562   5.480   4.775   7.732 -1.6994  0.4090  0.5691
21185SOL    HW265563   5.540   4.734   7.865  1.5834 -2.3660 -1.6066
21186SOL     OW65564   2.297   6.321   0.280 -0.5845 -0.3237  0.1910
21186SOL    HW165565   2.224   6.383   0.274 -2.0230 -1.9110  0.5741
21186SOL    HW265566   2.280   6.258   0.210  0.8838 -0.2809 -0.2318
21187SOL     OW65567   9.729   3.565   0.060 -0.4428 -0.7585  0.4142
21187SOL    HW165568   9.637   3.549   0.035  0.5146 -2.2087 -2.6651
21187SOL    HW265569   9.755   3.484   0.104 -0.5329 -0.4598  1.0277
21188SOL     OW65570   7.952   2.825   5.219 -0.4044 -0.3175  0.3578
21188SOL    HW165571   8.023   2.775   5.260  0.7800  1.2877  0.3365
21188SOL    HW265572   7.934   2.778   5.138  0.0641 -1.1973  0.7406
21189SOL     OW65573   0.305   3.408  10.804  0.4328  0.5770  0.0994
21189SOL    HW165574   0.221   3.434  10.839  0.7502  1.4025  0.2685
21189SOL    HW265575   0.348   3.360  10.875 -0.7916 -1.8811 -0.7323
21190SOL     OW65576   5.364  10.867   2.277  0.4295  0.1043 -0.2551
21190SOL    HW165577   5.298  10.934   2.294  1.3010  0.9923 -0.2881
21190SOL    HW265578   5.314  10.786   2.268 -0.4138 -0.1482  4.1555
21191SOL     OW65579   1.469   7.575  10.270 -0.6847 -0.0119  0.0217
21191SOL    HW165580   1.388   7.546  10.313 -0.1609  0.5078  1.4220
21191SOL    HW265581   1.536   7.517  10.306  0.0297  1.4758  1.2106
21192SOL     OW65582   5.707  10.359   9.218 -0.7262 -0.6327  0.1281
21192SOL    HW165583   5.736  10.331   9.131  0.0201  0.2662  0.0739
21192SOL    HW265584   5.612  10.369   9.210 -0.4999  0.8537 -0.9987
21193SOL     OW65585   2.533  10.251   1.626  0.1570 -0.4722 -0.4529
21193SOL    HW165586   2.625  10.250   1.601  0.4086  1.2790  0.3082
21193SOL    HW265587   2.533  10.226   1.718  0.0838  1.3911  0.0796
21194SOL     OW65588   3.304   5.202  10.523 -0.3626  0.0381  0.2855
21194SOL    HW165589   3.285   5.138  10.454 -0.2186 -1.8115  1.8832
21194SOL    HW265590   3.323   5.283  10.475 -3.8727 -0.1421 -1.7169
21195SOL     OW65591   0.486   2.055   9.281  0.3397  0.6678  0.1101
21195SOL    HW165592   0.503   1.994   9.352 -1.5382 -0.9432 -0.7187
21195SOL    HW265593   0.391   2.051   9.269  0.4577  1.9376 -1.5938
21196SOL     OW65594   9.541   3.463   8.003 -0.0792 -0.9326  0.3302
21196SOL    HW165595   9.575   3.381   7.969  2.3377  0.8569 -1.9581
21196SOL    HW265596   9.485   3.498   7.933  0.8923  0.4615  0.2059
21197SOL     OW65597   1.400   0.715   5.730 -0.5953 -0.3531 -0.4114
21197SOL    HW165598   1.455   0.736   5.655  2.0191  0.2200  1.5005
21197SOL    HW265599   1.340   0.788   5.738 -0.5883 -0.1959 -1.6303
21198SOL     OW65600   6.147   1.210   8.110 -0.0776  1.0646 -0.6709
21198SOL    HW165601   6.094   1.165   8.044 -0.3320 -0.0679  0.2612
21198SOL    HW265602   6.083   1.253   8.167 -0.0126 -0.1204  0.3292
21199SOL     OW65603   6.589  10.203   4.693 -0.8620  0.1524 -0.4278
21199SOL    HW165604   6.498  10.176   4.689 -0.6881 -1.0493  1.8104
21199SOL    HW265605   6.639  10.123   4.677 -0.2436  0.3552  0.3948
21200SOL     OW65606  10.883   2.646   2.191  0.5876  0.2331  0.4593
21200SOL    HW165607  10.958   2.606   2.148  0.3896 -1.8345  1.8513
21200SOL    HW265608  10.859   2.583   2.260 -1.5478  1.4806  0.9570
21201SOL     OW65609   4.472   7.896   8.430 -0.2833 -0.5900 -0.0406
21201SOL    HW165610   4.495   7.931   8.344  1.9991  0.2557  0.8264
21201SOL    HW265611   4.536   7.826   8.445 -1.6317 -1.7761  0.3495
21202SOL     OW65612   6.740   5.644   0.396  0.7312  0.1292 -0.3989
21202SOL    HW165613   6.758   5.645   0.490  1.3188 -1.7568 -0.4524
21202SOL    HW265614   6.760   5.555   0.369 -0.1770  0.4323 -2.1881
21203SOL     OW65615   8.741   8.098   6.814  0.2493 -0.0100  0.0026
21203SOL    HW165616   8.688   8.097   6.734 -2.2737  0.1118  1.5712
21203SOL    HW265617   8.815   8.154   6.792 -0.2391 -0.1317 -2.2964
21204SOL     OW65618   2.694   1.567   6.194 -0.5245  0.6431  0.5382
21204SOL    HW165619   2.784   1.596   6.205 -1.2584  2.8756  1.2550
21204SOL    HW265620   2.671   1.592   6.104 -0.6272  0.6628  0.5696
21205SOL     OW65621   0.177  10.557   9.623 -0.0924 -0.2857  0.3751
21205SOL    HW165622   0.106  10.495   9.609  0.0308 -0.2574 -0.3744
21205SOL    HW265623   0.173  10.576   9.717  0.1659 -1.7860  0.7114
21206SOL     OW65624   6.519  10.428   8.729 -0.1889  0.5668  0.3309
21206SOL    HW165625   6.606  10.468   8.720  0.5023 -1.1010 -0.8238
21206SOL    HW265626   6.461  10.488   8.682  0.8840  0.1284 -1.6792
21207SOL     OW65627   3.159   8.867   6.005  0.0552 -0.2232  0.7466
21207SOL    HW165628   3.189   8.778   5.984 -0.3564 -0.5215  1.4076
21207SOL    HW265629   3.234   8.923   5.984  0.1519 -0.6609 -0.1585
21208SOL     OW65630   6.692   2.385   2.343  0.9377  0.3167  0.1829
21208SOL    HW165631   6.773   2.385   2.394  1.9091  0.0228 -1.3035
21208SOL    HW265632   6.662   2.476   2.345  1.5051  0.5013  0.4457
21209SOL     OW65633   0.389   2.514   3.782  0.3108  0.6307 -0.2025
21209SOL    HW165634   0.423   2.514   3.872  0.7988 -3.0150 -0.2202
21209SOL    HW265635   0.460   2.550   3.730  0.0902  2.6432  0.7921
21210SOL     OW65636   3.830   0.712   8.596  0.3183  0.1718 -0.5008
21210SOL    HW165637   3.828   0.788   8.654  0.0895  0.2961 -0.6693
21210SOL    HW265638   3.757   0.658   8.625  0.8217 -0.2596 -0.0160
21211SOL     OW65639   7.008   7.446   4.138  0.7253  0.1523 -0.2382
21211SOL    HW165640   7.092   7.400   4.134  1.1910  0.5854  2.6173
21211SOL    HW265641   7.014   7.512   4.069  2.4352 -0.2684 -0.5565
21212SOL     OW65642   7.427   7.974   2.251 -0.0643  0.2239  0.1715
21212SOL    HW165643   7.359   7.965   2.184 -0.4831  1.3994  0.3999
21212SOL    HW265644   7.467   7.888   2.257  1.1393  0.4683 -2.7950
21213SOL     OW65645   8.819   6.469   8.302 -0.1711  0.2953  0.1470
21213SOL    HW165646   8.858   6.555   8.283  1.1706  0.1054  1.8212
21213SOL    HW265647   8.892   6.408   8.293 -0.8581 -0.5249  0.0942
21214SOL     OW65648   4.246  10.611   4.769 -0.0009 -0.0169  0.1002
21214SOL    HW165649   4.175  10.675   4.763  0.5267  0.8772  2.4635
21214SOL    HW265650   4.321  10.660   4.801  0.6854 -1.6103  1.0707
21215SOL     OW65651   6.926   0.578   5.578 -0.7080 -0.1827  0.1508
21215SOL    HW165652   6.963   0.493   5.554  0.1183  0.6805 -1.7629
21215SOL    HW265653   6.998   0.625   5.620 -0.7051  0.1349 -0.2053
21216SOL     OW65654   1.803   1.852   7.517  0.8812 -0.1736  0.2935
21216SOL    HW165655   1.853   1.790   7.571 -1.4897 -3.7562 -1.2835
21216SOL    HW265656   1.842   1.846   7.430 -0.2866 -0.6892 -0.2245
21217SOL     OW65657   3.234   1.563   2.158  0.0551  0.3248  0.0829
21217SOL    HW165658   3.191   1.539   2.240  2.2604  0.3967  1.3320
21217SOL    HW265659   3.316   1.514   2.158  0.9394  1.7085 -1.2036
21218SOL     OW65660   8.351   9.320   2.577 -0.0350 -0.5163  0.0667
21218SOL    HW165661   8.355   9.227   2.600  0.5570 -0.1010  1.7912
21218SOL    HW265662   8.388   9.365   2.653 -2.0003  1.2468  0.0752
21219SOL     OW65663   3.035  11.065   0.610  0.1322 -0.3621 -0.1096
21219SOL    HW165664   2.991  10.980   0.616  2.6428 -1.6840  1.7973
21219SOL    HW265665   3.126  11.043   0.589  1.7258  1.3940  3.8301
21220SOL     OW65666   7.445   0.017   9.027 -0.0700 -0.1260 -0.0967
21220SOL    HW165667   7.405   0.086   8.974 -0.7361  0.5343  1.2253
21220SOL    HW265668   7.519   0.060   9.070  2.0115 -1.2686 -2.3148
21221SOL     OW65669   0.810   9.080  10.825 -0.3346  0.2726  0.2594
21221SOL    HW165670   0.741   9.098  10.889 -0.0440 -1.4302  1.1185
21221SOL    HW265671   0.869   9.019  10.870  0.3062 -0.3749 -1.3714
21222SOL     OW65672   4.801   9.314  10.137 -0.3564  0.4815 -0.6671
21222SOL    HW165673   4.829   9.405  10.147 -1.3952  0.6812  0.6085
21222SOL    HW265674   4.875   9.263  10.171 -0.1090  0.8665 -0.6176
21223SOL     OW65675   8.751   0.173   8.524  0.2822 -0.0256 -0.4002
21223SOL    HW165676   8.826   0.233   8.531  0.0468  0.0827  1.9952
21223SOL    HW265677   8.683   0.213   8.577 -1.0722 -0.7818 -1.4951
21224SOL     OW65678   3.304   0.103   1.303  0.0694  0.2841  0.4071
21224SOL    HW165679   3.279   0.090   1.212  1.6863  0.3697 -0.0813
21224SOL    HW265680   3.305   0.015   1.340  2.2029 -0.1113 -0.4643
21225SOL     OW65681   4.824   8.800   2.524 -0.3555  0.0605 -0.0129
21225SOL    HW165682   4.759   8.758   2.467  0.4903 -0.1540 -0.8568
21225SOL    HW265683   4.800   8.773   2.612 -0.3239 -1.5266 -0.4657
21226SOL     OW65684   3.349   7.434   2.292 -0.2693  0.3136 -0.4186
21226SOL    HW165685   3.322   7.369   2.358  1.0863  0.6892  0.5557
21226SOL    HW265686   3.414   7.389   2.239  0.9073  0.9134  0.4527
21227SOL     OW65687  11.072   6.816   1.715 -0.4125  0.4643  0.4074
21227SOL    HW165688  11.091   6.798   1.623  1.0909  0.4386  0.6979
21227SOL    HW265689  11.107   6.903   1.731 -1.6721  0.9445  0.6974
21228SOL     OW65690  10.375   8.732   0.423 -0.4372 -0.1817  0.0682
21228SOL    HW165691  10.338   8.768   0.504 -2.5984  0.5175 -1.1565
21228SOL    HW265692  10.301   8.693   0.377  0.7749 -0.7842 -1.4892
21229SOL     OW65693   7.694   6.281  10.377  0.0471  0.1114 -0.4852
21229SOL    HW165694   7.653   6.220  10.315 -1.3322  0.2443  0.2585
21229SOL    HW265695   7.699   6.364  10.330 -1.5772  0.3772 -0.2459
21230SOL     OW65696   1.496   2.273   6.418  0.6386  0.5519 -0.3703
21230SOL    HW165697   1.482   2.231   6.333  1.2567 -1.0172  0.2537
21230SOL    HW265698   1.576   2.232   6.451  1.1899  2.1579  0.3656
21231SOL     OW65699   2.774   2.598   8.861 -0.0711  0.0119 -0.2786
21231SOL    HW165700   2.803   2.510   8.885 -3.2742 -0.8983  0.7380
21231SOL    HW265701   2.798   2.606   8.768  0.3519 -1.9137 -0.3825
21232SOL     OW65702   0.320   9.309   4.797 -0.3690  0.2256 -0.9205
21232SOL    HW165703   0.300   9.278   4.886  2.5390  1.5776  0.3513
21232SOL    HW265704   0.330   9.229   4.745 -0.1120 -0.7137  0.5069
21233SOL     OW65705   8.731   5.727   2.241  0.4594  0.3711  0.2593
21233SOL    HW165706   8.730   5.821   2.254  0.2781  0.3337  0.5395
21233SOL    HW265707   8.823   5.701   2.251  0.2612  0.2714  2.0639
21234SOL     OW65708   1.811   6.076   5.764  0.3572  0.3294  0.3106
21234SOL    HW165709   1.819   6.023   5.843  2.8866  0.0880 -0.0511
21234SOL    HW265710   1.785   6.015   5.696  2.1546 -0.3029  0.1390
21235SOL     OW65711  10.247   9.854   2.239  0.4982 -0.0268  0.6267
21235SOL    HW165712  10.197   9.885   2.315  0.0424 -0.0760  0.3546
21235SOL    HW265713  10.338   9.876   2.258  0.3360  0.3096  1.0123
21236SOL     OW65714   9.085   8.623   6.477 -0.5526 -0.7398  0.3987
21236SOL    HW165715   9.152   8.555   6.480 -0.2956 -0.4706  1.1488
21236SOL    HW265716   9.117   8.690   6.538  0.9816  1.6892 -2.7043
21237SOL     OW65717   4.206   4.753   8.135 -0.2060 -0.4571 -0.0195
21237SOL    HW165718   4.178   4.663   8.154  0.1414 -0.6632 -0.4676
21237SOL    HW265719   4.135   4.790   8.083 -1.4972  0.3410  2.2065
21238SOL     OW65720  10.307  10.623   9.353 -0.2089  0.3448 -0.5137
21238SOL    HW165721  10.357  10.635   9.434 -0.5441 -2.0785  0.1398
21238SOL    HW265722  10.219  10.652   9.375 -0.4143 -0.7343  0.1835
21239SOL     OW65723   5.011  11.082  10.864  0.8427  0.1458 -0.7609
21239SOL    HW165724   5.089  11.110  10.912 -1.4705  2.4195  2.1041
21239SOL    HW265725   4.988  10.997  10.902  0.3306  0.8677  0.6361
21240SOL     OW65726   4.819   2.051   6.525 -0.4165  0.2009 -0.2380
21240SOL    HW165727   4.818   1.971   6.473 -3.9636  0.3853 -0.7262
21240SOL    HW265728   4.872   2.029   6.601 -2.1521 -3.1152  0.2306
21241SOL     OW65729   7.330   8.415   7.095  0.6227  0.4368 -0.1790
21241SOL    HW165730   7.419   8.448   7.089  0.2378  1.3439 -1.5126
21241SOL    HW265731   7.337   8.331   7.139  2.0905  0.6468  0.0103
21242SOL     OW65732   8.469   9.979  10.963  0.1510  0.4886  0.6127
21242SOL    HW165733   8.535  10.049  10.966 -0.2715  0.9799 -0.6502
21242SOL    HW265734   8.385  10.026  10.955  0.0256 -0.0818 -2.9428
21243SOL     OW65735   5.305   0.416   3.477  0.1718 -0.0067 -0.2727
21243SOL    HW165736   5.296   0.498   3.428  2.0916  0.3874 -0.0267
21243SOL    HW265737   5.277   0.348   3.415 -0.3567  0.7391 -0.8600
21244SOL     OW65738   5.248   9.220   2.429  0.5790 -0.1530 -0.8879
21244SOL    HW165739   5.194   9.177   2.363  0.0433 -0.4839 -0.2475
21244SOL    HW265740   5.211   9.191   2.513 -0.3263  2.1494 -0.4189
21245SOL     OW65741   5.215   2.324   9.965 -0.1993  0.1869  0.1563
21245SOL    HW165742   5.220   2.417   9.943  1.7675  0.1233  0.1408
21245SOL    HW265743   5.240   2.320  10.058  0.1829 -0.3516  0.0362
21246SOL     OW65744   0.236  10.078   5.091  0.3828 -0.1320  0.1426
21246SOL    HW165745   0.219  10.172   5.094  1.1613  0.0444 -0.5818
21246SOL    HW265746   0.178  10.041   5.157  0.3247  0.8926  0.6848
21247SOL     OW65747   0.783   9.993   8.686 -0.1074 -0.0078 -0.0799
21247SOL    HW165748   0.836   9.943   8.747 -0.4085 -0.1974  0.0263
21247SOL    HW265749   0.773  10.079   8.727 -0.2264 -0.1039  0.0934
21248SOL     OW65750   3.462   2.172   7.151  0.4185 -0.7148 -0.0161
21248SOL    HW165751   3.546   2.176   7.104  0.8470 -0.2297  0.7635
21248SOL    HW265752   3.396   2.191   7.084  0.9871 -0.4035 -0.5014
21249SOL     OW65753   3.943   8.367   5.628 -0.2445 -0.6282  0.4914
21249SOL    HW165754   3.940   8.461   5.649  1.2526 -0.5535  0.4517
21249SOL    HW265755   3.880   8.328   5.688 -0.9025  0.4055  0.5052
21250SOL     OW65756   9.423   1.725   7.361 -0.2079 -0.0093 -0.0681
21250SOL    HW165757   9.517   1.732   7.374  0.4535 -0.4327 -3.5668
21250SOL    HW265758   9.413   1.673   7.281 -3.4943 -1.2776  0.9970
21251SOL     OW65759   5.238   3.793   6.203  0.2021 -0.0035 -0.3658
21251SOL    HW165760   5.163   3.845   6.232  0.0898  0.1984 -1.0010
21251SOL    HW265761   5.310   3.856   6.200  0.1856  0.0046 -0.6305
21252SOL     OW65762  10.278   9.060   5.053 -0.0465 -0.0288  0.4409
21252SOL    HW165763  10.293   9.123   5.123 -1.1100  0.0414  0.6225
21252SOL    HW265764  10.365   9.041   5.019  0.2038  2.6253 -0.5955
21253SOL     OW65765  10.391   6.584   8.040 -0.3353  0.4971 -0.0046
21253SOL    HW165766  10.487   6.583   8.041 -0.3242  1.0003 -0.1025
21253SOL    HW265767  10.366   6.506   8.088  0.1270  0.6448  0.4936
21254SOL     OW65768  10.770   7.278   3.072  0.4188  0.7093  0.0136
21254SOL    HW165769  10.687   7.276   3.024  0.5195  0.8751 -0.1689
21254SOL    HW265770  10.810   7.193   3.055  0.1986  0.5541  0.2594
21255SOL     OW65771   8.993   7.972   3.886 -0.1530 -0.7989 -0.2694
21255SOL    HW165772   9.017   7.890   3.928 -0.4523 -0.4931  0.5055
21255SOL    HW265773   8.970   8.030   3.958 -2.1996 -0.7528 -0.9209
21256SOL     OW65774   6.252   6.245   7.315  0.3756  0.7521  0.1967
21256SOL    HW165775   6.300   6.309   7.367  2.8338 -1.5601  1.0522
21256SOL    HW265776   6.174   6.225   7.367  0.7721  1.3629  1.0470
21257SOL     OW65777   1.897  11.057   4.214  0.2092 -1.1803  0.0985
21257SOL    HW165778   1.960  11.035   4.145 -1.2371  0.6803 -1.9681
21257SOL    HW265779   1.814  11.020   4.183 -0.5787  0.1394  0.5652
21258SOL     OW65780   6.212   3.775   5.191  0.0720 -0.3153 -0.4427
21258SOL    HW165781   6.186   3.858   5.150 -0.9976 -0.0817  0.6556
21258SOL    HW265782   6.220   3.714   5.118 -0.0593  0.5166 -1.1723
21259SOL     OW65783   1.119   0.123   4.381 -0.3579  0.5050 -0.0706
21259SOL    HW165784   1.152   0.163   4.461 -1.3018  1.1912 -0.0135
21259SOL    HW265785   1.083   0.196   4.331 -2.3664 -0.2734  0.1508
21260SOL     OW65786  10.754  10.601   0.457 -0.6432 -0.3133  0.0804
21260SOL    HW165787  10.740  10.558   0.542  0.0576  0.5430  0.6409
21260SOL    HW265788  10.708  10.684   0.465 -0.8799 -0.3844 -0.5257
21261SOL     OW65789   8.047   4.455   2.278 -0.3250  0.6398 -0.2427
21261SOL    HW165790   8.076   4.443   2.368 -1.1967  0.7183  0.0569
21261SOL    HW265791   8.005   4.373   2.254  1.1472  0.1067 -1.0730
21262SOL     OW65792   9.740   1.208   1.711  0.0603 -0.5341 -0.3510
21262SOL    HW165793   9.764   1.163   1.792  2.3297  0.8485 -0.1614
21262SOL    HW265794   9.755   1.301   1.730  1.2091 -0.2149 -2.4814
21263SOL     OW65795   8.717   5.712   9.390 -0.3466  0.0756 -0.3308
21263SOL    HW165796   8.649   5.660   9.432 -0.0611  0.9789  1.3473
21263SOL    HW265797   8.703   5.801   9.422  0.1706  0.7532 -1.8482
21264SOL     OW65798   3.566   5.754   6.372  0.2175  0.2886 -0.5930
21264SOL    HW165799   3.522   5.836   6.392  1.9111  1.0971 -0.0084
21264SOL    HW265800   3.562   5.748   6.276  1.3182  1.8109 -0.7707
21265SOL     OW65801   1.263   2.281   2.037 -0.1874  0.6291 -0.7354
21265SOL    HW165802   1.219   2.201   2.008 -0.1785  0.4842 -0.3521
21265SOL    HW265803   1.197   2.349   2.029 -0.9402  0.1733  1.1581
21266SOL     OW65804   5.849   4.445   3.465  0.4079  0.2398  0.1222
21266SOL    HW165805   5.766   4.436   3.512  0.1869  0.9228 -0.1314
21266SOL    HW265806   5.885   4.356   3.464 -1.2791 -0.4862 -1.5419
21267SOL     OW65807  10.173   8.231   2.408  0.3835  0.4489 -0.1639
21267SOL    HW165808  10.125   8.169   2.353 -0.8196  0.7683  0.4705
21267SOL    HW265809  10.254   8.186   2.431  0.1850 -0.3041 -0.9068
21268SOL     OW65810   3.160   3.827   6.296  0.4420  0.1573 -0.3357
21268SOL    HW165811   3.212   3.855   6.371 -0.0966 -0.6796  0.3690
21268SOL    HW265812   3.208   3.860   6.220  0.9708  1.0597  0.3688
21269SOL     OW65813   4.162   1.870  10.876 -0.5801  0.1158 -0.0950
21269SOL    HW165814   4.232   1.934  10.863 -0.3811 -0.1075 -0.1384
21269SOL    HW265815   4.201   1.787  10.848 -1.1319  0.1248 -0.8947
21270SOL     OW65816   3.589   4.062   5.144  0.0920 -0.4457  0.0019
21270SOL    HW165817   3.611   4.013   5.223 -0.0224 -1.5125 -0.6122
21270SOL    HW265818   3.517   4.013   5.104  2.2795 -1.8652 -2.5116
21271SOL     OW65819   7.391   4.519   4.129 -0.0985 -0.0002  0.1965
21271SOL    HW165820   7.343   4.546   4.050  1.2907  0.8823 -0.3750
21271SOL    HW265821   7.482   4.544   4.111  0.2493  0.1471  2.0534
21272SOL     OW65822   6.689   2.025   7.755 -0.8793 -0.2371  0.3708
21272SOL    HW165823   6.626   2.013   7.827 -0.7101 -0.6050  0.4651
21272SOL    HW265824   6.710   1.935   7.728  0.4166 -0.1729  1.0568
21273SOL     OW65825   0.179   1.423   2.988  0.1724 -0.4421 -0.3904
21273SOL    HW165826   0.125   1.497   3.015 -0.9626 -0.5470 -2.2562
21273SOL    HW265827   0.228   1.401   3.067 -0.2289  1.6074  0.5119
21274SOL     OW65828   4.506   8.121   5.755 -0.3968 -0.1897  0.6958
21274SOL    HW165829   4.478   8.196   5.807  1.3411  0.1044  1.2784
21274SOL    HW265830   4.601   8.124   5.757 -0.1893 -0.1050 -2.5716
21275SOL     OW65831   8.325   3.894   1.896 -0.8087  0.2762  0.1770
21275SOL    HW165832   8.253   3.958   1.896 -0.7245  0.4000 -1.3844
21275SOL    HW265833   8.380   3.920   1.969 -0.9733  1.7817 -0.2080
21276SOL     OW65834   9.518   8.275   5.549 -0.4567  0.3932  0.0406
21276SOL    HW165835   9.551   8.207   5.608 -1.4295  0.7442  1.0252
21276SOL    HW265836   9.587   8.342   5.549  0.7051 -0.7359 -1.2777
21277SOL     OW65837   9.258   3.614   9.230 -0.6210  0.1177  0.2278
21277SOL    HW165838   9.168   3.582   9.237 -0.4876 -0.5261 -0.8168
21277SOL    HW265839   9.272   3.664   9.311 -2.0275  0.5226  0.2468
21278SOL     OW65840   7.434   8.375  10.851  0.2344  0.3316 -0.1734
21278SOL    HW165841   7.392   8.354  10.768 -1.0445  1.7254  0.0925
21278SOL    HW265842   7.363   8.405  10.908  1.5027  2.4443  0.3924
21279SOL     OW65843   0.035   5.026   3.258  0.1002 -0.0918  0.2380
21279SOL    HW165844   0.093   5.071   3.320  1.9184 -0.4596 -1.1142
21279SOL    HW265845  -0.032   4.986   3.313  1.8728 -0.7639  2.0390
21280SOL     OW65846   3.298   0.919   6.215 -0.1049  0.3146 -0.4019
21280SOL    HW165847   3.252   0.848   6.259  2.6109 -1.6013 -0.4487
21280SOL    HW265848   3.373   0.878   6.172  0.5894  2.9551 -2.0016
21281SOL     OW65849   7.857   6.573   1.213 -0.0922  0.1360 -0.3089
21281SOL    HW165850   7.854   6.481   1.239 -1.4563  0.2554  0.0390
21281SOL    HW265851   7.776   6.610   1.248 -0.1322  1.1977 -1.4554
21282SOL     OW65852   7.703   2.318  10.469 -0.2232  0.7320 -0.3173
21282SOL    HW165853   7.774   2.254  10.466  0.9299  1.9566  0.0627
21282SOL    HW265854   7.685   2.338  10.377  1.1834  1.7246 -0.4112
21283SOL     OW65855   6.832   7.996   8.889 -0.2282  0.0913 -0.0415
21283SOL    HW165856   6.744   7.994   8.851 -1.0418 -1.5930  1.7852
21283SOL    HW265857   6.844   8.087   8.916 -1.0563  0.5151 -1.0159
21284SOL     OW65858   4.820   8.270   6.874 -0.0342 -0.0730  0.4920
21284SOL    HW165859   4.858   8.269   6.962 -1.5879 -0.9196  1.2060
21284SOL    HW265860   4.739   8.219   6.883 -1.2331  1.4505 -0.9447
21285SOL     OW65861   3.492  10.419   5.469 -0.3393  0.1572  0.9541
21285SOL    HW165862   3.401  10.419   5.497 -0.5913 -0.4047  0.1583
21285SOL    HW265863   3.534  10.484   5.525 -1.7395  2.2700 -0.3068
21286SOL     OW65864  10.111  10.408   8.229 -0.5529  0.3991 -0.2276
21286SOL    HW165865  10.134  10.473   8.162 -0.1520 -0.5581 -1.0392
21286SOL    HW265866  10.186  10.408   8.289 -0.7830  1.0482  0.0686
21287SOL     OW65867   6.610   0.372   3.662  0.4512 -0.3239  0.1792
21287SOL    HW165868   6.633   0.437   3.728 -0.1119  0.9745 -0.8650
21287SOL    HW265869   6.515   0.370   3.662  0.3042  1.5616 -2.2499
21288SOL     OW65870   5.403  10.892   6.000 -0.1515 -0.1590  0.3108
21288SOL    HW165871   5.486  10.848   5.981  0.0737  0.2228  0.3983
21288SOL    HW265872   5.374  10.852   6.082 -0.4578 -0.8606 -0.1276
21289SOL     OW65873   5.703   8.470   9.552 -0.5230  0.2587 -0.2299
21289SOL    HW165874   5.708   8.375   9.542 -2.4702  0.2684 -1.9990
21289SOL    HW265875   5.790   8.495   9.583 -0.0465 -2.1059  0.6034
21290SOL     OW65876   3.762   5.297   5.274 -0.3765  0.1304 -0.4190
21290SOL    HW165877   3.688   5.290   5.214 -2.5712 -2.7337  2.2542
21290SOL    HW265878   3.816   5.221   5.253 -0.7118 -0.4050  0.6000
21291SOL     OW65879  10.888   6.565   2.239 -1.1174 -0.5360 -0.5537
21291SOL    HW165880  10.905   6.493   2.178  1.2911 -0.0003 -0.6214
21291SOL    HW265881  10.919   6.534   2.323 -2.6162 -0.5369  0.0357
21292SOL     OW65882   4.470   0.294   4.261  0.3136 -0.4319  0.1577
21292SOL    HW165883   4.564   0.287   4.276  0.2400 -1.5394  0.1758
21292SOL    HW265884   4.436   0.206   4.277 -0.5763 -0.2995 -0.8584
21293SOL     OW65885   0.043   2.686   2.598 -0.3599  0.2547  0.0324
21293SOL    HW165886  -0.039   2.728   2.623 -1.5032 -0.6564 -1.9657
21293SOL    HW265887   0.017   2.598   2.568  1.4277 -0.3092  0.0264
21294SOL     OW65888   9.161   4.497   4.614 -0.0701 -0.4133  0.3210
21294SOL    HW165889   9.074   4.461   4.632  0.9308 -1.8679  2.7666
21294SOL    HW265890   9.214   4.420   4.590  0.5516  0.4572 -1.2560
21295SOL     OW65891   2.487   9.597   0.782  0.5017  0.3793  0.8322
21295SOL    HW165892   2.465   9.689   0.799  1.0132  0.6065  0.3151
21295SOL    HW265893   2.484   9.555   0.868 -0.9412  0.6056  0.9172
21296SOL     OW65894   5.950   6.255   0.849 -0.2770  0.1301  0.4298
21296SOL    HW165895   5.877   6.243   0.909  0.6690  0.0025  1.5974
21296SOL    HW265896   6.028   6.238   0.902  0.5806 -0.4316 -0.9574
21297SOL     OW65897   4.576   1.351   5.677  0.0389 -0.0156  0.3083
21297SOL    HW165898   4.617   1.420   5.625  0.9985 -1.3680 -0.8086
21297SOL    HW265899   4.555   1.283   5.614  0.5711 -1.3992  1.5762
21298SOL     OW65900   1.369   4.933   3.127  0.1720 -0.0573  0.4702
21298SOL    HW165901   1.428   4.990   3.077  0.7165  0.6413  1.8539
21298SOL    HW265902   1.422   4.856   3.147  1.0553  1.0406  2.6560
21299SOL     OW65903   1.941   2.408   0.935  0.1783 -0.1929 -0.5927
21299SOL    HW165904   2.021   2.447   0.902  1.3329  0.3869  2.5090
21299SOL    HW265905   1.877   2.479   0.934  1.3722  1.0362  2.0571
21300SOL     OW65906   4.035   0.431   2.835  0.0172  0.0571  0.9573
21300SOL    HW165907   4.114   0.378   2.844  0.6429  0.7318 -0.2987
21300SOL    HW265908   4.040   0.495   2.906  0.8455  0.3879  0.6051
21301SOL     OW65909   5.456   5.509  10.394 -0.6478  0.7092 -0.6001
21301SOL    HW165910   5.477   5.578  10.332  0.7269  0.7231 -0.1742
21301SOL    HW265911   5.460   5.428  10.343 -2.6033  0.9308 -1.1748
21302SOL     OW65912   7.720   0.231   2.110 -0.4921 -0.1224 -0.5862
21302SOL    HW165913   7.666   0.310   2.104 -1.0887 -0.1940  2.2342
21302SOL    HW265914   7.800   0.252   2.063 -1.3708  1.4583 -1.4546
21303SOL     OW65915   1.885   1.315   1.749 -0.1813  0.0666  0.2975
21303SOL    HW165916   1.813   1.272   1.704  0.6501 -0.4916 -0.5542
21303SOL    HW265917   1.956   1.251   1.748  1.0583  1.3706 -0.9253
21304SOL     OW65918   0.043   5.430   4.836  0.4603 -0.3099  0.0732
21304SOL    HW165919   0.083   5.492   4.775 -1.5143 -0.0813 -1.0887
21304SOL    HW265920   0.055   5.470   4.922 -0.0484  1.3138 -0.5654
21305SOL     OW65921   6.542   0.250   5.682  0.2669 -0.5520  0.4565
21305SOL    HW165922   6.562   0.212   5.768  1.4758 -2.7543 -0.7057
21305SOL    HW265923   6.624   0.294   5.657  0.0815 -0.3431  0.2211
21306SOL     OW65924   1.477   9.125   6.243  0.6211  0.0174 -0.0588
21306SOL    HW165925   1.420   9.055   6.211  3.2559 -1.4566 -1.9059
21306SOL    HW265926   1.482   9.187   6.170 -1.4381  2.1167  1.4423
21307SOL     OW65927   7.642   0.225   0.899 -0.4970  0.7543 -0.5529
21307SOL    HW165928   7.625   0.268   0.815  0.0678  0.0231 -1.0611
21307SOL    HW265929   7.604   0.137   0.888  0.2799  0.3876 -0.3401
21308SOL     OW65930   7.073   6.668   1.053 -0.0130  0.5851 -0.1814
21308SOL    HW165931   7.140   6.602   1.035 -1.1378 -0.9322  0.9187
21308SOL    HW265932   7.003   6.619   1.097 -0.8241  2.5603  0.8193
21309SOL     OW65933   2.380   4.413   6.571 -0.5515 -0.4169 -0.2605
21309SOL    HW165934   2.342   4.344   6.517  2.8771 -1.7954 -1.1756
21309SOL    HW265935   2.395   4.486   6.510 -1.4185  0.0102  0.0284
21310SOL     OW65936   3.825   8.969   1.335  0.0498  0.9183  0.1468
21310SOL    HW165937   3.859   9.011   1.255  0.3704  1.1468  0.3998
21310SOL    HW265938   3.737   8.942   1.312 -0.0975  1.5737 -0.0871
21311SOL     OW65939   1.500   2.788   2.008 -0.2929  0.4036  0.2077
21311SOL    HW165940   1.560   2.853   2.046  1.4737  0.4539 -2.3541
21311SOL    HW265941   1.444   2.840   1.950 -1.0752  0.0141  0.6083
21312SOL     OW65942   2.172   8.399   7.059  0.1408 -0.1516 -0.2909
21312SOL    HW165943   2.126   8.428   6.981  1.3696 -0.1317 -1.0326
21312SOL    HW265944   2.170   8.303   7.055  1.0754 -0.1572 -0.8988
21313SOL     OW65945   3.326   9.583   7.267  0.4798 -0.4704  0.0966
21313SOL    HW165946   3.388   9.510   7.269  0.6656 -0.3404  2.5817
21313SOL    HW265947   3.320   9.611   7.359 -1.4581  1.0566 -0.4426
21314SOL     OW65948   1.443   7.238   9.460  0.5658 -0.9370 -0.5911
21314SOL    HW165949   1.501   7.190   9.402  1.2865 -0.9511  0.1286
21314SOL    HW265950   1.501   7.294   9.512 -0.3221  1.6509 -2.2142
21315SOL     OW65951  10.321   2.648   1.590  0.5600 -0.2903 -0.0956
21315SOL    HW165952  10.337   2.574   1.532  0.6255  0.2602 -0.8076
21315SOL    HW265953  10.243   2.690   1.554 -0.3490 -0.8452  1.1743
21316SOL     OW65954   3.064   2.365   4.762  0.1435 -0.1763  0.2400
21316SOL    HW165955   3.044   2.274   4.781 -1.8785  0.0151 -0.7167
21316SOL    HW265956   3.111   2.363   4.679 -1.0212 -0.2905 -0.4313
21317SOL     OW65957   0.136  10.510   4.818 -0.6332  0.4374  0.2667
21317SOL    HW165958   0.178  10.426   4.803  0.8684  0.5919  3.0207
21317SOL    HW265959   0.088  10.528   4.737  1.0212 -1.8615 -1.3319
21318SOL     OW65960   5.012   4.702   5.110 -0.3260  0.3505 -0.4419
21318SOL    HW165961   4.999   4.704   5.015 -1.2789 -0.6095 -0.3500
21318SOL    HW265962   4.930   4.668   5.145  0.9798 -2.1497  0.5000
21319SOL     OW65963   6.446   4.701   7.380 -0.4003  0.0799 -0.4576
21319SOL    HW165964   6.508   4.744   7.322 -0.8570  2.6455  0.8076
21319SOL    HW265965   6.500   4.669   7.453 -0.2011 -0.3987 -0.8151
21320SOL     OW65966  10.491   1.575   0.022 -0.1942  0.3198 -0.7673
21320SOL    HW165967  10.433   1.502  -0.004 -1.6637  2.0042 -2.5464
21320SOL    HW265968  10.579   1.544   0.002 -0.8520 -0.7002 -2.3112
21321SOL     OW65969   3.277   8.687   8.891  0.1219  0.0750 -0.4935
21321SOL    HW165970   3.271   8.597   8.858  0.7942  0.2421 -1.1056
21321SOL    HW265971   3.229   8.739   8.828 -1.2312  0.0315  0.4498
21322SOL     OW65972   7.235   9.072   9.432  1.3394  0.1155  0.0231
21322SOL    HW165973   7.303   9.020   9.390  2.3787 -0.1451  1.8885
21322SOL    HW265974   7.177   9.008   9.472  1.4711  0.3592  0.6143
21323SOL     OW65975   4.171   3.515   8.175  0.0609  1.0495  0.4932
21323SOL    HW165976   4.146   3.559   8.256  0.5695  0.5161  0.9547
21323SOL    HW265977   4.156   3.422   8.193  1.5937  0.7794  0.5266
21324SOL     OW65978   5.293   8.901   4.297  0.7552 -0.0427  0.2188
21324SOL    HW165979   5.301   8.863   4.384  2.9499  0.1337  0.1609
21324SOL    HW265980   5.321   8.830   4.238  0.0674  0.0945 -0.2803
21325SOL     OW65981   8.558  10.713   5.973 -0.4238  0.4047  0.1737
21325SOL    HW165982   8.582  10.805   5.987 -1.2803  0.8521 -1.1632
21325SOL    HW265983   8.482  10.717   5.915  0.2568 -1.1896 -0.8714
21326SOL     OW65984   0.378   0.284   5.012 -0.2153  0.1454  1.0987
21326SOL    HW165985   0.400   0.330   5.093 -0.7352 -0.6906  1.7353
21326SOL    HW265986   0.431   0.204   5.014  0.6946  0.6828 -0.0047
21327SOL     OW65987   0.505   6.105  10.628  0.4987 -0.1496  0.4311
21327SOL    HW165988   0.593   6.067  10.623  0.4824 -0.2225  0.6635
21327SOL    HW265989   0.496   6.155  10.547  0.4873 -0.7073  0.0781
21328SOL     OW65990   4.675   6.610   1.787 -0.0657 -0.4456 -0.1798
21328SOL    HW165991   4.684   6.555   1.709 -0.4427 -1.4544  0.4645
21328SOL    HW265992   4.739   6.680   1.775 -0.3313 -0.4075 -1.5337
21329SOL     OW65993   9.794   0.177   6.302  0.7672 -0.2966 -0.1757
21329SOL    HW165994   9.709   0.138   6.284  1.7226 -2.0459 -1.2233
21329SOL    HW265995   9.819   0.219   6.220  1.6008 -1.2273 -0.4198
21330SOL     OW65996   5.621   4.146   2.577 -0.4634 -0.5661  0.2678
21330SOL    HW165997   5.658   4.208   2.514 -0.9602  0.5041  0.9984
21330SOL    HW265998   5.607   4.066   2.526  0.6723 -0.2673 -0.5772
21331SOL     OW65999   4.475   9.523   4.735  0.4362  0.2165  0.0105
21331SOL    HW166000   4.400   9.467   4.718 -0.5005  0.9146  1.6348
21331SOL    HW266001   4.490   9.570   4.652 -1.1992  0.3892 -0.2176
21332SOL     OW66002   0.505  10.933   9.034 -0.0775 -0.6811 -0.4354
21332SOL    HW166003   0.585  10.983   9.017 -0.9374  0.6750 -0.7174
21332SOL    HW266004   0.447  10.996   9.076 -0.6449 -1.9297  0.7070
21333SOL     OW66005   8.543   6.379   2.062  0.5126  0.5124  0.1811
21333SOL    HW166006   8.507   6.319   1.997  0.1901  0.7607  0.1267
21333SOL    HW266007   8.534   6.333   2.145  0.9941  0.1654  0.0434
21334SOL     OW66008  10.602  11.039  10.991  0.6500 -0.3320 -0.1657
21334SOL    HW166009  10.512  11.071  10.999  0.3012 -1.4057  0.3403
21334SOL    HW266010  10.600  10.979  10.916  1.6878  2.0419 -2.2375
21335SOL     OW66011   8.849  10.714   9.715  0.6560  0.0835 -0.8794
21335SOL    HW166012   8.882  10.642   9.661 -0.2856 -1.6492  0.7411
21335SOL    HW266013   8.898  10.791   9.685  1.7162 -1.2167 -2.6671
21336SOL     OW66014   2.136   9.135   8.676 -0.4782  0.7755  0.5312
21336SOL    HW166015   2.178   9.218   8.698 -1.5893  1.4148  0.3082
21336SOL    HW266016   2.160   9.120   8.584 -0.0475  0.6981  0.6529
21337SOL     OW66017   0.345   2.542   9.269  0.7486  0.0159 -0.2834
21337SOL    HW166018   0.365   2.537   9.176 -2.2703 -1.0684 -1.0234
21337SOL    HW266019   0.287   2.618   9.277  2.0712  0.9377  1.0178
21338SOL     OW66020   1.230   1.482   8.718 -0.3724 -0.1024  0.1176
21338SOL    HW166021   1.150   1.510   8.672  0.5061  2.0617 -0.1723
21338SOL    HW266022   1.280   1.562   8.732  2.1652 -1.4722 -0.4445
21339SOL     OW66023   6.800   1.382   4.262  0.1289 -0.4778  0.1899
21339SOL    HW166024   6.749   1.410   4.338 -1.3449  1.0160 -1.2990
21339SOL    HW266025   6.796   1.286   4.265 -0.4673 -0.4355  1.5969
21340SOL     OW66026   9.832   2.348   4.210  0.8249 -0.3696  0.4522
21340SOL    HW166027   9.901   2.288   4.238  1.6924  0.4656  0.1585
21340SOL    HW266028   9.755   2.292   4.198  2.3479 -2.0448 -2.9480
21341SOL     OW66029  10.048   6.626   3.750  0.3643  0.2806 -0.1125
21341SOL    HW166030  10.102   6.703   3.733 -3.9467  3.4567 -1.1102
21341SOL    HW266031   9.983   6.626   3.680 -0.6583 -3.6094  0.5896
21342SOL     OW66032   7.266   5.703   7.335  0.4379 -0.4767  0.2486
21342SOL    HW166033   7.307   5.616   7.329 -0.4645 -0.8257 -1.8980
21342SOL    HW266034   7.182   5.692   7.289 -1.3104  0.6600  2.9587
21343SOL     OW66035   4.532   6.120   9.009 -0.1742 -0.0066 -0.4200
21343SOL    HW166036   4.623   6.100   9.032 -0.3761  0.0681  0.4956
21343SOL    HW266037   4.485   6.038   9.023 -0.5092  0.3407  0.6505
21344SOL     OW66038   6.603   3.956   5.036  0.1906  0.1484  0.6486
21344SOL    HW166039   6.606   3.900   4.958 -1.1575  1.0347 -0.0996
21344SOL    HW266040   6.541   3.913   5.094  0.5791 -0.0917  0.8887
21345SOL     OW66041   5.063   6.350   7.303 -0.0606  0.5865 -0.4030
21345SOL    HW166042   5.079   6.371   7.211  2.5845  2.2062  0.3286
21345SOL    HW266043   5.020   6.428   7.338  0.3499  0.5909  0.0874
21346SOL     OW66044   8.974  10.785  10.634  0.0708  0.7630  0.2972
21346SOL    HW166045   8.908  10.825  10.576 -0.4482 -0.5434 -0.0590
21346SOL    HW266046   9.003  10.707  10.586 -2.6834 -2.2473  2.9790
21347SOL     OW66047   5.798   8.851   8.311 -0.7943 -0.0899  0.4939
21347SOL    HW166048   5.864   8.802   8.359  1.4797  1.3226 -1.0028
21347SOL    HW266049   5.827   8.942   8.316 -2.6201  0.5792 -0.2667
21348SOL     OW66050   5.023   2.681   3.634  0.0670 -0.0428  0.6405
21348SOL    HW166051   5.001   2.769   3.664  0.9261  1.3768 -2.4237
21348SOL    HW266052   5.118   2.682   3.625 -0.0892 -0.3948 -1.6679
21349SOL     OW66053   1.259   9.551  11.045 -0.0172  0.3770 -0.0407
21349SOL    HW166054   1.215   9.587  11.121  0.6016  3.4881 -1.0361
21349SOL    HW266055   1.220   9.464  11.034 -1.5158  0.6111  2.6062
21350SOL     OW66056   9.061  10.402   7.130  0.0087 -0.4212 -0.1796
21350SOL    HW166057   8.998  10.332   7.147  0.9245 -1.6359 -1.4857
21350SOL    HW266058   9.008  10.481   7.118 -1.0355 -0.8391  1.4817
21351SOL     OW66059   2.626   0.763   6.811 -0.2007 -0.3958  0.1695
21351SOL    HW166060   2.714   0.801   6.809 -0.1406 -0.5289  0.2589
21351SOL    HW266061   2.640   0.673   6.840 -0.1054 -1.1406 -2.0397
21352SOL     OW66062   5.769   5.854  10.383  0.2249 -0.3218 -0.1889
21352SOL    HW166063   5.858   5.884  10.363 -1.2231  4.2455 -0.8967
21352SOL    HW266064   5.758   5.874  10.476 -0.3009 -0.0055 -0.3131
21353SOL     OW66065   0.384   0.534   9.180  0.6572  0.5296 -0.5845
21353SOL    HW166066   0.350   0.604   9.235 -0.5196 -0.0393 -0.5389
21353SOL    HW266067   0.350   0.454   9.220  2.0537 -0.0903 -0.5707
21354SOL     OW66068   2.873   0.680   8.866  0.9760  0.1405  0.2169
21354SOL    HW166069   2.856   0.772   8.888  2.1093  0.0398  1.6772
21354SOL    HW266070   2.850   0.632   8.945  0.1120 -0.8943 -0.6387
21355SOL     OW66071   4.544   8.683   8.719 -0.3669 -0.0765 -0.1889
21355SOL    HW166072   4.474   8.694   8.654 -1.2462 -0.7851  0.6055
21355SOL    HW266073   4.521   8.744   8.789 -0.3847 -0.5754  0.2390
21356SOL     OW66074   1.334   6.026   0.087 -0.2377 -0.6640 -0.0210
21356SOL    HW166075   1.241   6.032   0.062  0.2977  0.4671 -1.9250
21356SOL    HW266076   1.379   6.082   0.025  1.4701  1.0369  2.5784
21357SOL     OW66077   7.600   3.975   3.725 -0.5343 -0.5311 -0.4632
21357SOL    HW166078   7.631   3.971   3.635  0.5545  0.9941 -0.1837
21357SOL    HW266079   7.504   3.968   3.718 -0.4084 -1.2041 -1.6590
21358SOL     OW66080   4.677   7.571   4.855  0.2026  0.4335  0.3088
21358SOL    HW166081   4.749   7.576   4.793  0.0114 -1.5248 -0.1475
21358SOL    HW266082   4.632   7.489   4.833 -0.6359  0.3237  2.2241
21359SOL     OW66083   9.673   6.456   4.173 -0.0476  0.5567  0.0431
21359SOL    HW166084   9.632   6.393   4.233  1.0969 -0.9961 -0.7298
21359SOL    HW266085   9.636   6.434   4.088  0.3235  0.9985 -0.2311
21360SOL     OW66086   9.755   8.115   5.385 -0.6338 -0.3495 -0.4662
21360SOL    HW166087   9.758   8.199   5.430  0.1731 -1.0561  0.8688
21360SOL    HW266088   9.720   8.135   5.298  1.2943  1.6655 -0.8672
21361SOL     OW66089   0.029   2.323   1.150  0.1978 -0.0475  0.1477
21361SOL    HW166090  -0.003   2.294   1.065  2.1515 -1.7952 -0.0750
21361SOL    HW266091   0.056   2.243   1.194 -0.9431  0.7943  2.5407
21362SOL     OW66092   1.635   0.263   7.065  0.6544  0.3430 -0.4644
21362SOL    HW166093   1.563   0.234   7.121  0.4130 -1.1548 -1.4868
21362SOL    HW266094   1.701   0.194   7.073  1.8504  1.5141  0.1788
21363SOL     OW66095   4.564   1.050   2.751 -0.2361  0.3417  0.0719
21363SOL    HW166096   4.643   1.094   2.722  0.1100 -0.9533 -1.0308
21363SOL    HW266097   4.494   1.114   2.738  0.4013  0.9402 -0.4402
21364SOL     OW66098   5.757   0.294   3.333 -0.0786  0.5495  0.3270
21364SOL    HW166099   5.829   0.238   3.303  0.3276  1.6906 -0.9475
21364SOL    HW266100   5.678   0.246   3.309  0.2669  0.0534  0.1694
21365SOL     OW66101   4.830   5.328   8.273  0.2299 -0.6094 -0.1821
21365SOL    HW166102   4.922   5.302   8.263  0.4839 -0.0677  0.7017
21365SOL    HW266103   4.789   5.252   8.315  0.5578 -0.3416  0.6315
21366SOL     OW66104   4.447   9.181   0.106  0.3465 -0.5574 -0.1822
21366SOL    HW166105   4.441   9.159   0.013  0.5677 -5.3949  0.7091
21366SOL    HW266106   4.533   9.149   0.133 -0.7268 -1.6848  2.1410
21367SOL     OW66107   6.104   9.106   3.444 -0.1870  0.1870  0.3404
21367SOL    HW166108   6.179   9.138   3.395 -1.3873  0.1122 -1.6665
21367SOL    HW266109   6.079   9.179   3.501 -0.1957  1.2380 -0.9508
21368SOL     OW66110   4.395   3.586  11.082 -0.5805  0.9599 -0.4841
21368SOL    HW166111   4.489   3.575  11.075 -0.7443  0.1201 -1.5755
21368SOL    HW266112   4.359   3.501  11.055 -1.5780  0.1545  2.8816
21369SOL     OW66113   5.153   7.920   4.821 -0.1021 -0.2175  0.3811
21369SOL    HW166114   5.170   7.956   4.908  0.9521 -0.6681  0.3740
21369SOL    HW266115   5.060   7.937   4.806  0.3958  2.7926  0.2282
21370SOL     OW66116   2.787   0.478   0.916 -0.8898 -0.1233 -0.0304
21370SOL    HW166117   2.736   0.556   0.942  0.1458  0.5254  0.0973
21370SOL    HW266118   2.840   0.509   0.842  0.3284 -0.4025  0.7090
21371SOL     OW66119   7.458   9.305   9.618 -0.2243  0.0558 -0.0800
21371SOL    HW166120   7.374   9.329   9.657  0.7290  1.6656  1.1046
21371SOL    HW266121   7.498   9.245   9.682  0.4713  1.0883  0.4774
21372SOL     OW66122   5.047   3.726   4.458 -0.1135  1.0793 -0.4408
21372SOL    HW166123   5.024   3.810   4.418 -0.1417  0.9817 -0.6330
21372SOL    HW266124   5.096   3.749   4.537 -0.8024  1.2879 -0.0628
21373SOL     OW66125   2.110   8.010  10.187  0.5764 -0.4243  0.0448
21373SOL    HW166126   2.146   7.921  10.188  0.6575 -0.4035 -0.5022
21373SOL    HW266127   2.145   8.049  10.106  1.2522  0.4040  0.7172
21374SOL     OW66128   6.893   7.498   6.907 -0.2929  0.2786  0.5414
21374SOL    HW166129   6.821   7.535   6.957 -2.0746 -1.1572 -0.8051
21374SOL    HW266130   6.886   7.541   6.821  0.0589 -0.3304  0.2066
21375SOL     OW66131   1.102   2.662   3.379  0.4107  0.5118 -0.0528
21375SOL    HW166132   1.193   2.633   3.378  1.5544  3.7252  0.5380
21375SOL    HW266133   1.095   2.725   3.308 -1.9014 -0.8693 -1.1940
21376SOL     OW66134   7.517   2.698  10.629 -0.0936  0.6639  0.4796
21376SOL    HW166135   7.525   2.613  10.672 -1.7041  1.2271  2.0338
21376SOL    HW266136   7.523   2.678  10.536  0.0386 -1.0956  0.8275
21377SOL     OW66137   1.031  10.362   9.235 -0.2400  0.4361  0.5115
21377SOL    HW166138   1.121  10.358   9.203 -0.3434  0.4042  0.2183
21377SOL    HW266139   0.984  10.412   9.169 -0.5669 -0.0797  0.3413
21378SOL     OW66140   6.034   8.889   6.124 -0.6001 -0.2177  0.0668
21378SOL    HW166141   6.097   8.959   6.110 -1.4620  0.5580 -0.0408
21378SOL    HW266142   5.974   8.896   6.049 -0.9092 -0.8388  0.2479
21379SOL     OW66143   8.074  10.925   0.870 -0.5401 -0.7272  0.0374
21379SOL    HW166144   8.001  10.863   0.880 -0.1653 -1.1103  0.4487
21379SOL    HW266145   8.152  10.871   0.878 -0.2070 -0.2837 -0.1953
21380SOL     OW66146  10.890   1.129   8.301  0.5957 -0.6615  0.1286
21380SOL    HW166147  10.835   1.200   8.267  2.2281  0.8610  0.5109
21380SOL    HW266148  10.862   1.120   8.392 -1.6711 -2.6491 -0.6610
21381SOL     OW66149   8.583   5.144   6.192 -0.4347 -0.3266 -0.2356
21381SOL    HW166150   8.499   5.099   6.197 -1.6807  1.9536  0.8443
21381SOL    HW266151   8.626   5.106   6.115 -2.7984 -1.0091 -1.3228
21382SOL     OW66152   9.300   5.523   8.753 -0.0600  0.3191  0.0490
21382SOL    HW166153   9.237   5.560   8.814 -0.5687  0.4504 -0.5411
21382SOL    HW266154   9.360   5.595   8.732 -0.1951  0.4167 -0.0018
21383SOL     OW66155   6.430  10.453   0.040  0.3973  0.7221  0.0936
21383SOL    HW166156   6.478  10.536   0.046  1.5611  0.1134 -0.5066
21383SOL    HW266157   6.364  10.468  -0.027  0.6370  1.1489 -0.0482
21384SOL     OW66158   1.100   3.343  10.721  0.1171  0.3033  0.3211
21384SOL    HW166159   1.079   3.428  10.682  4.0847  1.5091  0.3634
21384SOL    HW266160   1.037   3.334  10.793 -0.6390  3.0648  0.1467
21385SOL     OW66161   9.021   4.557   5.365  0.5783 -0.8038  0.4467
21385SOL    HW166162   9.057   4.584   5.280  2.7139 -1.1327  1.1861
21385SOL    HW266163   8.975   4.634   5.398 -1.2036 -0.9822 -1.4285
21386SOL     OW66164   5.481   8.710   3.174 -0.7901 -0.1792  0.3820
21386SOL    HW166165   5.532   8.681   3.098  1.5582  1.9842  0.9754
21386SOL    HW266166   5.508   8.650   3.245  0.4944  0.5104  0.5160
21387SOL     OW66167   9.199   1.463   3.650 -0.0720  0.2671  0.0634
21387SOL    HW166168   9.274   1.512   3.682 -0.8436 -0.7187  3.9006
21387SOL    HW266169   9.233   1.375   3.632 -0.0452  0.1834  0.5116
21388SOL     OW66170   6.699   7.118  10.715  0.2863 -0.1922  0.3539
21388SOL    HW166171   6.782   7.138  10.672  0.4063  0.4251  0.8508
21388SOL    HW266172   6.653   7.203  10.719  0.3366 -0.2035  1.5413
21389SOL     OW66173   5.889   9.110  10.545  0.4708 -0.7835  0.0491
21389SOL    HW166174   5.975   9.152  10.556  0.6932 -1.2083 -0.0512
21389SOL    HW266175   5.900   9.054  10.468 -0.9104  1.7729 -2.1497
21390SOL     OW66176   8.927   2.089   4.984 -0.0985  0.2519  0.0217
21390SOL    HW166177   8.888   2.157   4.928  0.5285  0.3790 -0.2713
21390SOL    HW266178   9.004   2.132   5.022 -0.3868  0.0926  0.8072
21391SOL     OW66179   9.572   3.495   0.892  0.4156 -0.1462  1.3570
21391SOL    HW166180   9.488   3.528   0.862  0.1196 -0.5687  1.7035
21391SOL    HW266181   9.574   3.403   0.863  1.0966  0.0752  0.6677
21392SOL     OW66182   5.738   7.264   4.506  0.2370  0.0034 -0.2037
21392SOL    HW166183   5.645   7.267   4.528  0.8900 -0.3963  3.1023
21392SOL    HW266184   5.769   7.353   4.521  0.5758 -0.0926 -0.3218
21393SOL     OW66185   8.330   3.924   2.638 -0.0073 -0.1691 -0.6135
21393SOL    HW166186   8.396   3.968   2.586  0.2748 -0.3482 -0.4071
21393SOL    HW266187   8.379   3.864   2.695 -0.3655 -0.5789 -0.7261
21394SOL     OW66188   8.977   7.410   6.643 -0.4547 -0.2240 -0.2072
21394SOL    HW166189   8.913   7.469   6.602  0.3428  0.7023 -0.1616
21394SOL    HW266190   8.976   7.434   6.736 -0.7118 -0.8482 -0.0442
21395SOL     OW66191   7.355  10.300   8.273  0.0388 -0.6490  0.3524
21395SOL    HW166192   7.286  10.303   8.339 -0.6730 -0.5229 -0.3870
21395SOL    HW266193   7.406  10.222   8.295  1.3605  0.7059  2.5599
21396SOL     OW66194   3.040   9.180   4.114 -0.3109  0.1408  0.4007
21396SOL    HW166195   2.998   9.231   4.045 -1.9218  0.3976  1.4932
21396SOL    HW266196   2.966   9.140   4.162  0.8098 -1.3048  1.0039
21397SOL     OW66197   2.417   2.630   0.477  0.6189 -0.0031 -0.5775
21397SOL    HW166198   2.471   2.569   0.526  1.9927  0.2180 -1.7463
21397SOL    HW266199   2.465   2.645   0.396 -0.6453  1.1111 -1.1650
21398SOL     OW66200   9.781   5.500   5.431 -0.0619 -0.1269  0.0697
21398SOL    HW166201   9.696   5.518   5.470  0.3848 -0.0895  1.0743
21398SOL    HW266202   9.843   5.515   5.503  0.8183  0.2083 -0.7375
21399SOL     OW66203   9.243   8.968   9.571  0.2466  0.3006 -0.2365
21399SOL    HW166204   9.258   8.942   9.662  2.2294  0.0735 -0.5849
21399SOL    HW266205   9.180   8.904   9.539 -1.7095  1.3052  1.3687
21400SOL     OW66206   0.566   5.623   0.288  0.4989 -0.1519  0.6558
21400SOL    HW166207   0.576   5.718   0.279 -1.0373 -0.0142  0.2563
21400SOL    HW266208   0.489   5.611   0.342 -0.7777 -1.1655 -1.2729
21401SOL     OW66209   8.008  10.314   5.870 -0.2825 -0.0419 -0.5625
21401SOL    HW166210   8.023  10.406   5.892  0.4682 -0.2081 -0.3345
21401SOL    HW266211   7.922  10.294   5.906 -0.5300  0.6213 -0.7714
21402SOL     OW66212  10.135   8.496   6.794 -0.4169 -0.3051 -0.6585
21402SOL    HW166213  10.110   8.564   6.856  1.3867 -0.8292  0.7502
21402SOL    HW266214  10.225   8.519   6.769 -0.3575 -1.2894 -1.4274
21403SOL     OW66215   1.070   7.918  10.324 -0.3883 -0.3792 -0.0434
21403SOL    HW166216   1.075   7.863  10.245 -0.9861  0.2892 -0.5634
21403SOL    HW266217   1.005   7.875  10.379  0.7115 -1.3759  0.5329
21404SOL     OW66218   8.872   7.571   9.856 -0.1553  0.1017 -0.7687
21404SOL    HW166219   8.951   7.581   9.803 -0.1696 -0.8226 -0.9865
21404SOL    HW266220   8.820   7.649   9.836  0.6115  0.6198 -0.7692
21405SOL     OW66221   7.340   1.648   8.229  0.0009 -0.3536 -0.0197
21405SOL    HW166222   7.412   1.661   8.167 -0.4304 -2.3951 -1.0116
21405SOL    HW266223   7.340   1.728   8.282  1.4686  0.7197 -1.5298
21406SOL     OW66224   8.105   2.985   3.145  0.0072  0.1241  0.0033
21406SOL    HW166225   8.114   3.046   3.218  0.1138  0.6400 -0.4401
21406SOL    HW266226   8.011   2.984   3.127 -0.1850 -0.9356  0.9287
21407SOL     OW66227   6.437   0.952   7.477 -0.0134  0.0682  0.4115
21407SOL    HW166228   6.494   1.010   7.528  0.5531 -0.6261  0.5758
21407SOL    HW266229   6.427   0.874   7.531 -0.9416  0.0810  0.2770
21408SOL     OW66230   6.655   1.069   5.621 -0.0348  0.6526  0.2801
21408SOL    HW166231   6.664   1.054   5.715  2.1557  2.7442  0.4974
21408SOL    HW266232   6.692   0.991   5.580 -2.1974 -0.8703  1.0568
21409SOL     OW66233   9.273   2.985   3.976  0.2107  0.3793  0.2473
21409SOL    HW166234   9.231   3.004   3.893  0.7102  2.5612  0.4472
21409SOL    HW266235   9.201   2.976   4.038 -0.1079  0.0264 -0.1694
21410SOL     OW66236   6.413  10.137   2.912 -0.7079 -0.2711  0.1728
21410SOL    HW166237   6.460  10.193   2.974 -1.3195  0.1981  0.2188
21410SOL    HW266238   6.442  10.048   2.933 -1.0005 -0.1331  1.2176
21411SOL     OW66239   5.188   1.604   9.877 -0.0774 -0.3279  0.0158
21411SOL    HW166240   5.140   1.522   9.865 -1.2414  0.3178  0.0606
21411SOL    HW266241   5.203   1.637   9.789 -1.4408  0.4057  0.0288
21412SOL     OW66242   6.681   0.757   4.104 -0.8501  0.0119  0.1282
21412SOL    HW166243   6.763   0.793   4.139 -0.5108 -0.7387  0.1283
21412SOL    HW266244   6.634   0.727   4.182 -0.6994 -0.4235  0.0523
21413SOL     OW66245   9.434   4.535   5.762  0.0318  0.4837 -0.6179
21413SOL    HW166246   9.486   4.596   5.711  0.4021  1.4551  0.8427
21413SOL    HW266247   9.357   4.518   5.709 -0.6628  3.1616 -0.6146
21414SOL     OW66248  10.524   2.306   0.025 -0.3963  0.7656  0.6324
21414SOL    HW166249  10.456   2.250  -0.013  1.5499 -1.1627 -0.2117
21414SOL    HW266250  10.493   2.396   0.009 -2.4573 -0.0265 -0.1753
21415SOL     OW66251  10.552  10.981   8.927 -0.3263 -0.0149 -0.6824
21415SOL    HW166252  10.491  10.955   8.858 -0.5974 -1.5238  0.0946
21415SOL    HW266253  10.530  10.925   9.001  0.7131  0.7911  0.2661
21416SOL     OW66254   4.219   4.670   4.064  0.5162  0.0929 -0.1010
21416SOL    HW166255   4.224   4.601   3.998 -0.8393 -1.3451  1.2168
21416SOL    HW266256   4.310   4.699   4.075  0.9446 -0.5731 -1.5920
21417SOL     OW66257   0.812   9.632   8.647  0.3051  0.6546  0.4535
21417SOL    HW166258   0.788   9.554   8.697 -0.4046  0.6960  0.1898
21417SOL    HW266259   0.876   9.677   8.702  1.0191 -0.3023  0.4420
21418SOL     OW66260   8.468   1.647   9.270  0.3187  0.0114 -0.3017
21418SOL    HW166261   8.515   1.632   9.188 -0.3393 -2.3484 -0.3147
21418SOL    HW266262   8.382   1.680   9.242 -0.6657 -2.7066 -0.7878
21419SOL     OW66263  10.005   1.017   3.051 -0.5600 -0.3084  0.0288
21419SOL    HW166264   9.978   1.016   2.959  2.2329 -0.4032 -0.8897
21419SOL    HW266265  10.018   0.924   3.074 -1.6311 -0.3150  0.6833
21420SOL     OW66266   7.005   0.474  10.662 -0.1798  0.4748 -0.4803
21420SOL    HW166267   7.099   0.492  10.665 -0.1454  0.2528  2.0030
21420SOL    HW266268   6.998   0.385  10.629  0.7953 -0.7458  2.2731
21421SOL     OW66269   4.241   8.848   6.622  0.5417  0.1405  0.5599
21421SOL    HW166270   4.195   8.924   6.657 -1.6313 -0.2286 -1.2335
21421SOL    HW266271   4.323   8.883   6.588 -0.0983  1.5612  0.4023
21422SOL     OW66272  10.639   7.791   9.349 -0.1479 -0.5982  0.2783
21422SOL    HW166273  10.585   7.712   9.340 -1.3536  0.2513 -0.1027
21422SOL    HW266274  10.577   7.861   9.368  0.9094  0.2679  0.6199
21423SOL     OW66275   4.115   5.509   6.751 -0.1782 -0.5702  0.1536
21423SOL    HW166276   4.129   5.442   6.818  0.4751 -0.3014  0.2997
21423SOL    HW266277   4.163   5.477   6.675 -0.8026 -0.8068 -0.1430
21424SOL     OW66278   3.926   6.770   3.400  0.1584 -0.3665  0.3585
21424SOL    HW166279   3.978   6.753   3.479  1.0847  1.9868  0.3528
21424SOL    HW266280   3.843   6.802   3.433 -0.8128 -2.6825  0.3466
21425SOL     OW66281   1.795   3.390   4.488  0.4202 -0.2136 -0.4816
21425SOL    HW166282   1.745   3.314   4.520 -2.4290  0.8345 -2.0800
21425SOL    HW266283   1.884   3.374   4.518 -0.1439 -3.9274 -0.2679
21426SOL     OW66284   9.806   6.239   5.454  0.5054 -0.3385 -0.1213
21426SOL    HW166285   9.842   6.290   5.381 -0.3256 -0.3728 -0.5587
21426SOL    HW266286   9.813   6.148   5.425  1.0638 -0.4188  0.2467
21427SOL     OW66287   7.872   9.842  10.293  0.0486 -0.5404 -0.2223
21427SOL    HW166288   7.939   9.804  10.236  1.2976  1.9310 -0.5403
21427SOL    HW266289   7.891   9.936  10.293 -1.5415 -0.1253  2.1842
21428SOL     OW66290   4.279   9.557   6.933  0.6100  0.1990 -0.1162
21428SOL    HW166291   4.314   9.566   6.844  0.2917 -0.1631 -0.2788
21428SOL    HW266292   4.195   9.512   6.922  1.0913 -0.8995  0.4547
21429SOL     OW66293   5.966   7.668   5.258 -0.0140 -0.1455  0.3941
21429SOL    HW166294   5.929   7.598   5.204  0.3187 -0.0724  0.0692
21429SOL    HW266295   6.009   7.622   5.330 -0.2277 -0.2546  0.4540
21430SOL     OW66296   9.918   1.560   1.385  0.1840  0.0813  0.0649
21430SOL    HW166297   9.998   1.568   1.438 -0.3128 -1.4504  1.1091
21430SOL    HW266298   9.931   1.479   1.335  0.2968  1.0869 -1.6488
21431SOL     OW66299   7.633   1.703   7.786  0.2401  0.6999 -0.0665
21431SOL    HW166300   7.714   1.693   7.835 -0.1117 -0.1735  0.3592
21431SOL    HW266301   7.613   1.796   7.791  1.0653  0.8718  0.0698
21432SOL     OW66302   6.250   5.239   2.402 -0.6031  0.0108  0.4286
21432SOL    HW166303   6.306   5.213   2.329 -2.2940 -1.2557 -0.4824
21432SOL    HW266304   6.246   5.161   2.457 -1.8762 -0.0986  0.1989
21433SOL     OW66305   6.907   3.412   8.105 -0.1944 -0.0823  0.0214
21433SOL    HW166306   6.971   3.447   8.044 -0.3852  0.9272  0.3868
21433SOL    HW266307   6.857   3.488   8.135 -1.1209 -0.7576  0.2598
21434SOL     OW66308   4.201   1.330   7.024  0.7969  0.2203 -0.1284
21434SOL    HW166309   4.129   1.349   7.083  1.4806  2.4631  0.0613
21434SOL    HW266310   4.264   1.281   7.077  0.3574  0.1240  0.3057
21435SOL     OW66311   0.053  10.278   3.858  0.5212 -0.3219 -0.4765
21435SOL    HW166312  -0.011  10.207   3.862  0.3041 -0.1291 -0.4708
21435SOL    HW266313   0.100  10.264   3.776 -1.9282  1.5520 -2.3570
21436SOL     OW66314   6.332  11.089   5.637  0.4285 -0.5314 -0.4191
21436SOL    HW166315   6.398  11.157   5.622 -1.3998  0.8362 -2.9569
21436SOL    HW266316   6.261  11.134   5.683  0.1512 -1.3381 -0.0421
21437SOL     OW66317   9.340   4.802   7.551 -0.0932  0.2790 -0.5597
21437SOL    HW166318   9.295   4.725   7.518  0.1040  0.0835 -0.3758
21437SOL    HW266319   9.429   4.771   7.571 -0.3632  0.2595  0.6904
21438SOL     OW66320   1.684   0.868   5.214  0.6380 -0.0844  0.1624
21438SOL    HW166321   1.669   0.851   5.121 -0.9107 -0.4029  0.4441
21438SOL    HW266322   1.768   0.914   5.217  0.9682 -0.5327 -1.3366
21439SOL     OW66323   1.488   7.716   3.735 -0.1767  0.5179  0.5788
21439SOL    HW166324   1.423   7.656   3.771 -1.8232  2.1238  0.4382
21439SOL    HW266325   1.520   7.673   3.656 -4.3716  1.4015 -1.9302
21440SOL     OW66326   9.528   3.193   2.481  0.3724 -0.0934 -0.0017
21440SOL    HW166327   9.607   3.242   2.502  0.8506 -1.1631  0.7700
21440SOL    HW266328   9.500   3.155   2.564 -1.0925  0.4502 -0.2174
21441SOL     OW66329  10.006   2.097   5.848  0.2192  0.0156  0.3697
21441SOL    HW166330   9.987   2.162   5.915 -0.5856  0.1521  0.0219
21441SOL    HW266331  10.010   2.014   5.896 -2.1214 -0.1466  0.3852
21442SOL     OW66332   9.280   3.857   1.882  0.0589 -0.6221 -0.0370
21442SOL    HW166333   9.294   3.940   1.927 -0.3494 -1.0365  0.9024
21442SOL    HW266334   9.366   3.831   1.850  0.1954  0.1307 -0.2908
21443SOL     OW66335  10.385   1.740   9.327  0.6702 -0.0323  0.2574
21443SOL    HW166336  10.463   1.743   9.382  1.8140 -4.3697 -0.6779
21443SOL    HW266337  10.322   1.689   9.378  0.2489 -0.6262 -0.8153
21444SOL     OW66338   4.092   3.240   0.425  0.5493 -0.2962  0.2034
21444SOL    HW166339   4.163   3.193   0.383  0.4433  0.8254 -1.3264
21444SOL    HW266340   4.032   3.262   0.353 -0.3844  0.4153  1.1691
21445SOL     OW66341   7.293   2.749   5.847  0.4578 -1.1200 -0.1395
21445SOL    HW166342   7.306   2.685   5.918  2.9404 -0.2070  0.3163
21445SOL    HW266343   7.367   2.735   5.789 -0.2450 -0.1956 -1.2936
21446SOL     OW66344   8.524   7.731  10.000 -0.4300  0.1396  0.4930
21446SOL    HW166345   8.577   7.752   9.923 -1.8434  1.1569 -0.2410
21446SOL    HW266346   8.542   7.803  10.061  0.1003 -0.2629  0.8195
21447SOL     OW66347   3.807   9.637  10.685 -0.2305  0.2582  0.2472
21447SOL    HW166348   3.888   9.680  10.713  0.2330 -0.7324  0.4399
21447SOL    HW266349   3.793   9.567  10.749  0.3323 -1.4579 -1.4216
21448SOL     OW66350   9.638   3.511   7.303 -0.1224 -0.4606  0.0594
21448SOL    HW166351   9.720   3.551   7.334  0.1705 -0.0489 -1.1806
21448SOL    HW266352   9.666   3.449   7.236 -0.8327 -0.0857 -0.5987
21449SOL     OW66353   4.706   8.795   6.498  0.1918  0.1035  0.5317
21449SOL    HW166354   4.700   8.824   6.589  0.9932  1.0895  0.2819
21449SOL    HW266355   4.663   8.864   6.448  0.0741 -0.2606  0.1226
21450SOL     OW66356   8.121   6.668   7.961 -0.0815  0.2543  0.4681
21450SOL    HW166357   8.030   6.696   7.951 -0.0743  0.0571 -0.2153
21450SOL    HW266358   8.139   6.677   8.054 -0.6599  0.7309  0.5406
21451SOL     OW66359   5.182   7.236  10.225 -1.1284 -0.6463  0.2311
21451SOL    HW166360   5.173   7.330  10.241  0.8642 -0.2610 -0.5347
21451SOL    HW266361   5.159   7.225  10.133 -2.7038 -1.1763  0.6556
21452SOL     OW66362   7.977   9.662   5.212  0.7318 -0.1148 -0.2177
21452SOL    HW166363   8.027   9.625   5.285  0.4648 -1.8653 -0.8701
21452SOL    HW266364   7.940   9.743   5.247  0.3418 -1.0750  1.7169
21453SOL     OW66365   6.016  10.699   1.671 -0.2668 -0.3208 -0.3275
21453SOL    HW166366   6.061  10.760   1.612 -0.2540 -1.1069 -1.1553
21453SOL    HW266367   5.923  10.719   1.659 -0.2238  0.2343  0.1972
21454SOL     OW66368   6.138   7.873   2.339  0.0789  0.0738 -0.2230
21454SOL    HW166369   6.067   7.848   2.398 -0.9604  1.5595 -0.7900
21454SOL    HW266370   6.211   7.817   2.365 -0.4633  0.3650  2.2068
21455SOL     OW66371   0.322   7.934   4.574  0.2917  0.4098 -0.6253
21455SOL    HW166372   0.245   7.952   4.629 -0.1608  0.4599 -1.2676
21455SOL    HW266373   0.319   7.839   4.559 -0.2093  0.5554 -1.4737
21456SOL     OW66374   5.098   4.779   7.635  0.4466  0.2008 -0.3253
21456SOL    HW166375   5.119   4.767   7.542  2.7811  0.1874  0.1504
21456SOL    HW266376   5.018   4.728   7.648 -1.9979  2.9643 -3.0209
21457SOL     OW66377   4.987   3.570   6.237 -0.5013 -0.0451 -0.4651
21457SOL    HW166378   4.957   3.661   6.240 -0.2837 -0.0122  1.3396
21457SOL    HW266379   5.029   3.555   6.321  0.3319 -1.5437 -1.1048
21458SOL     OW66380   8.112   3.653   7.140  0.3395  0.1452 -0.5850
21458SOL    HW166381   8.132   3.746   7.142 -1.2108  0.5798 -2.7158
21458SOL    HW266382   8.041   3.642   7.204  0.5650  0.3958 -0.2872
21459SOL     OW66383   0.477   2.523   0.440  0.2690  0.1614 -0.7525
21459SOL    HW166384   0.539   2.458   0.473  0.6104  1.5066  1.4431
21459SOL    HW266385   0.399   2.472   0.417  1.1830 -1.2245 -0.8750
21460SOL     OW66386   4.985   5.000   2.872 -0.1773 -0.7049 -0.1787
21460SOL    HW166387   4.933   5.036   2.943 -1.4256  0.7766 -1.7395
21460SOL    HW266388   5.076   5.018   2.897 -0.6655  1.6083  0.1735
21461SOL     OW66389   8.571   2.267   0.613  0.1838 -0.0172 -0.2639
21461SOL    HW166390   8.579   2.358   0.639  0.2823  0.5994 -2.2852
21461SOL    HW266391   8.626   2.258   0.535  0.6150 -1.9459  0.1960
21462SOL     OW66392   5.727   5.764   5.442 -0.1360  0.1226 -0.2828
21462SOL    HW166393   5.662   5.741   5.376 -0.0313  1.4557 -0.8801
21462SOL    HW266394   5.677   5.774   5.523 -0.2865 -1.3673 -0.1644
21463SOL     OW66395   1.376   3.740  10.890  0.9442 -0.1121 -0.1439
21463SOL    HW166396   1.293   3.755  10.936  0.1297  3.3454 -2.3509
21463SOL    HW266397   1.357   3.672  10.826  0.0791 -0.0450  0.0357
21464SOL     OW66398   5.471   3.960   6.172 -0.0986 -1.1916 -0.0593
21464SOL    HW166399   5.511   4.046   6.181 -1.7795 -0.5586  3.0642
21464SOL    HW266400   5.492   3.932   6.083  2.4322  1.4128 -0.4232
21465SOL     OW66401   4.600   6.952   8.974 -0.2172 -0.0980 -0.5147
21465SOL    HW166402   4.601   6.965   8.879  2.9121 -0.0642 -0.5968
21465SOL    HW266403   4.562   7.033   9.008 -1.2438 -0.0419 -1.6992
21466SOL     OW66404   7.408   2.407   5.014  0.3289  0.0354  0.7186
21466SOL    HW166405   7.397   2.342   4.944  2.3689 -1.5555  1.7803
21466SOL    HW266406   7.448   2.482   4.970 -0.2120 -0.1822 -0.1753
21467SOL     OW66407   9.653   1.585   1.826 -0.6773  0.7832 -0.2173
21467SOL    HW166408   9.739   1.563   1.790 -0.2318  0.3359  1.0471
21467SOL    HW266409   9.671   1.654   1.890 -1.0484 -0.2117  0.9984
21468SOL     OW66410   2.095   9.867   3.030 -0.0087  0.1611  0.5531
21468SOL    HW166411   2.170   9.857   2.972 -0.6820  0.1178 -0.3375
21468SOL    HW266412   2.049   9.945   2.998 -0.8952 -0.3920  0.4422
21469SOL     OW66413   1.019   5.890   2.361 -0.2214  0.7617  0.1434
21469SOL    HW166414   1.005   5.928   2.447  2.7446 -0.1446  1.1511
21469SOL    HW266415   0.934   5.851   2.338 -1.4159  2.0288  2.0712
21470SOL     OW66416   9.992   3.395   4.496  0.1362  0.1103  0.2352
21470SOL    HW166417   9.934   3.469   4.512  0.2725  0.5263 -1.1087
21470SOL    HW266418  10.080   3.428   4.514  0.2709  0.5242 -1.0590
21471SOL     OW66419   0.410   0.515  10.627 -0.1932 -0.6442 -0.4842
21471SOL    HW166420   0.494   0.543  10.664 -1.3464  1.2220  0.8934
21471SOL    HW266421   0.413   0.420  10.629  1.4622 -0.6109  0.5125
21472SOL     OW66422   1.830   7.765   1.390  0.4846 -0.2746 -0.0924
21472SOL    HW166423   1.842   7.858   1.372  0.0002  0.3038  2.2708
21472SOL    HW266424   1.908   7.740   1.439 -0.3293 -0.5658  1.0918
21473SOL     OW66425  11.082  10.653   3.124  0.3067 -0.1187  0.0734
21473SOL    HW166426  11.082  10.588   3.194  1.7263 -1.0573 -0.7437
21473SOL    HW266427  10.997  10.696   3.131 -0.9448 -2.4492  0.3135
21474SOL     OW66428   6.801  10.641   8.606 -0.5629  0.4874  0.3797
21474SOL    HW166429   6.828  10.705   8.539 -0.5984 -0.9157 -1.0306
21474SOL    HW266430   6.884  10.610   8.644 -0.3079 -1.0571 -1.3136
21475SOL     OW66431   3.297   1.253  10.214 -0.0916 -0.0117  0.0771
21475SOL    HW166432   3.326   1.167  10.183 -2.7054 -1.1132  0.4382
21475SOL    HW266433   3.378   1.298  10.238  1.7335 -0.8630 -3.7006
21476SOL     OW66434   1.447   2.227   7.638  0.3760 -0.2963  0.7368
21476SOL    HW166435   1.445   2.310   7.589  1.5875  0.5360  2.0524
21476SOL    HW266436   1.539   2.203   7.642  0.3786 -0.0641  3.0487
21477SOL     OW66437   2.059   5.666   5.976 -0.2991 -0.0493  0.2678
21477SOL    HW166438   2.080   5.696   6.064  1.2545 -0.4029  0.0531
21477SOL    HW266439   2.062   5.571   5.981 -2.7564 -0.1658  0.3855
21478SOL     OW66440   7.809   4.064  11.089 -0.2352 -0.0157 -0.3474
21478SOL    HW166441   7.866   4.103  11.156 -1.3211  0.2256  0.4662
21478SOL    HW266442   7.869   4.036  11.020  0.8370  0.5172  0.3371
21479SOL     OW66443   8.938   1.585  10.309  0.1110  0.2170 -0.3747
21479SOL    HW166444   8.846   1.607  10.321 -0.0834 -0.9201  0.4297
21479SOL    HW266445   8.940   1.535  10.228  0.2081  1.2069 -0.9947
21480SOL     OW66446   9.096   3.830   2.082 -0.2881  0.3378 -0.3422
21480SOL    HW166447   9.040   3.897   2.042 -0.4472  0.0085 -0.6730
21480SOL    HW266448   9.174   3.829   2.027 -0.2512  0.3074 -0.2887
21481SOL     OW66449   4.032  10.855   8.331 -0.6242  0.2849 -0.6171
21481SOL    HW166450   4.017  10.866   8.237  1.2682  1.5023 -0.8463
21481SOL    HW266451   3.964  10.908   8.373 -2.0369 -0.9855 -1.2454
21482SOL     OW66452   1.540   8.943   5.930 -0.0655 -0.2652  0.0072
21482SOL    HW166453   1.542   9.038   5.919 -1.6332 -0.2618 -0.4735
21482SOL    HW266454   1.584   8.909   5.852 -0.3185  0.0420 -0.2712
21483SOL     OW66455   7.842   9.314  10.989 -0.1251  0.1401  0.3224
21483SOL    HW166456   7.862   9.251  10.919 -1.1261 -1.5840  1.4971
21483SOL    HW266457   7.758   9.285  11.023  0.3384  0.9202  2.2488
21484SOL     OW66458   3.094   1.167   2.738 -0.0275  0.0644 -0.1264
21484SOL    HW166459   3.157   1.096   2.728 -2.1149 -2.3134  2.1128
21484SOL    HW266460   3.091   1.184   2.832 -0.0882  2.7634 -0.5275
21485SOL     OW66461   7.438   4.728   8.074  0.0068  1.0379 -0.0879
21485SOL    HW166462   7.382   4.719   7.997 -1.2573  0.9338  0.8156
21485SOL    HW266463   7.526   4.742   8.038 -0.9909  4.2671 -1.5848
21486SOL     OW66464   8.571   8.515   3.123 -0.4242 -0.0722  0.1301
21486SOL    HW166465   8.539   8.492   3.036  2.3033  0.7687 -1.2040
21486SOL    HW266466   8.635   8.585   3.108  0.8402 -0.5469  2.6785
21487SOL     OW66467   9.369   1.120   4.643  0.1802  0.0692 -0.1844
21487SOL    HW166468   9.314   1.150   4.571  0.4132  0.4528 -0.2065
21487SOL    HW266469   9.455   1.106   4.603  0.5008  0.9752  0.1517
21488SOL     OW66470   8.089   2.307   1.940  0.0524  0.0078  0.1290
21488SOL    HW166471   8.034   2.370   1.893  1.0095 -0.2261 -1.3782
21488SOL    HW266472   8.118   2.246   1.872  2.3114  0.2290  0.8121
21489SOL     OW66473   8.229   7.595   4.036  0.0530  0.0047  0.2134
21489SOL    HW166474   8.223   7.690   4.046  0.7268  0.0584  0.1234
21489SOL    HW266475   8.321   7.575   4.050  0.1316 -0.5062 -0.9391
21490SOL     OW66476   2.193   4.165   4.437  0.4021 -0.3988 -0.4696
21490SOL    HW166477   2.176   4.212   4.356  0.2912 -1.1746 -0.9044
21490SOL    HW266478   2.146   4.215   4.504 -0.0454 -0.1181 -0.9898
21491SOL     OW66479   2.980   5.839   7.303 -0.1422 -0.3554  0.6212
21491SOL    HW166480   2.894   5.881   7.294 -0.1030  0.0920  2.0740
21491SOL    HW266481   2.978   5.799   7.390 -0.1620 -3.4600 -0.6722
21492SOL     OW66482   9.282   0.484   9.336  0.0498  0.0152 -0.3065
21492SOL    HW166483   9.276   0.527   9.422  5.1808  0.8752 -0.0656
21492SOL    HW266484   9.261   0.393   9.354 -0.6129  0.4563  1.4576
21493SOL     OW66485  10.782   0.850   2.045 -0.6786  0.4462  0.2528
21493SOL    HW166486  10.791   0.843   2.140 -0.5645 -0.0181  0.2141
21493SOL    HW266487  10.788   0.759   2.015 -2.3719  0.4196 -0.0610
21494SOL     OW66488   1.084   4.151   2.071 -0.0029  0.0909 -0.2406
21494SOL    HW166489   0.999   4.118   2.042 -1.2878  1.3981  1.7364
21494SOL    HW266490   1.083   4.139   2.166  3.2513 -2.4295 -0.3464
21495SOL     OW66491  10.417   5.832   5.787 -0.0237  0.1249  0.0932
21495SOL    HW166492  10.460   5.757   5.828  0.7523  0.8040  0.5519
21495SOL    HW266493  10.382   5.883   5.860 -2.4996 -0.8822 -0.2949
21496SOL     OW66494   2.406   6.223   9.151 -0.0674  0.3287 -0.1135
21496SOL    HW166495   2.418   6.165   9.226  0.6675  0.9021  0.2288
21496SOL    HW266496   2.423   6.167   9.075 -1.1852 -0.3496  0.1087
21497SOL     OW66497   6.959   9.291   1.258  0.0254 -0.2549  0.2322
21497SOL    HW166498   6.967   9.219   1.320 -1.4011 -1.5679 -1.0200
21497SOL    HW266499   6.982   9.253   1.173 -2.3356  0.2526 -0.7207
21498SOL     OW66500   3.586   5.033   2.015  0.6704  0.0467 -0.1656
21498SOL    HW166501   3.538   5.097   1.963  1.9176  0.2348 -1.1360
21498SOL    HW266502   3.530   4.956   2.017  0.3953  0.2014 -1.4094
21499SOL     OW66503   5.752   9.549   6.003 -0.2801 -0.4266  0.1331
21499SOL    HW166504   5.823   9.485   6.015  2.3876  2.2161 -0.5126
21499SOL    HW266505   5.680   9.515   6.057  1.5027 -3.1310  1.0309
21500SOL     OW66506   4.769   4.466   8.888 -0.4808  0.0768  0.0006
21500SOL    HW166507   4.838   4.472   8.954  0.3955 -1.3675 -0.7263
21500SOL    HW266508   4.746   4.374   8.886 -1.4961  0.3305 -0.7256
21501SOL     OW66509   0.853   7.091   1.389 -0.5224  0.1167  0.6707
21501SOL    HW166510   0.807   7.043   1.458 -1.0120  0.0128  0.2710
21501SOL    HW266511   0.800   7.078   1.311 -0.0948  0.4368  0.3251
21502SOL     OW66512   2.324   1.157   8.243 -0.5792  0.6118  0.0465
21502SOL    HW166513   2.278   1.148   8.327  0.9031 -0.3751  0.8017
21502SOL    HW266514   2.290   1.238   8.205 -1.0701  1.2306  1.7296
21503SOL     OW66515   7.028   3.957   1.603  0.2741  0.3087  0.0018
21503SOL    HW166516   6.989   3.977   1.517 -0.5543  0.6505  0.4428
21503SOL    HW266517   7.003   3.865   1.618  0.8019  0.1091 -0.3159
21504SOL     OW66518   8.449   7.464   8.430 -0.1493  0.0935 -0.4527
21504SOL    HW166519   8.414   7.548   8.457  0.5107 -0.0639  0.9918
21504SOL    HW266520   8.542   7.469   8.449 -0.1033 -0.9690 -0.3293
21505SOL     OW66521   2.565   2.482  10.616  0.3309  0.2094  0.3797
21505SOL    HW166522   2.500   2.522  10.557  0.2174 -0.3118  0.1446
21505SOL    HW266523   2.562   2.389  10.594  1.2523  0.1970  0.2766
21506SOL     OW66524   4.355   2.973   1.599 -0.6762 -0.6621  0.2524
21506SOL    HW166525   4.404   2.969   1.517 -1.0349 -2.4135  0.0952
21506SOL    HW266526   4.264   2.963   1.573 -1.2486  2.5364  0.5438
21507SOL     OW66527   3.690   6.172  10.265 -0.2162 -0.2102  0.8892
21507SOL    HW166528   3.700   6.226  10.186 -0.8155 -0.5773  0.5592
21507SOL    HW266529   3.600   6.188  10.293  0.5006  1.2810  2.5150
21508SOL     OW66530   0.379   5.515   9.966  0.2355  0.0758 -0.1323
21508SOL    HW166531   0.341   5.434   9.934 -0.0616  0.0298  0.3207
21508SOL    HW266532   0.469   5.493   9.988 -0.1012 -0.3680  0.8514
21509SOL     OW66533   3.932   5.362   9.781 -0.2231  0.4768 -0.2783
21509SOL    HW166534   3.859   5.337   9.726 -0.3442  1.3840 -0.5419
21509SOL    HW266535   3.931   5.299   9.853  0.3681 -1.1602 -1.6619
21510SOL     OW66536   9.060   2.981   6.068  0.3815 -0.2262 -0.1198
21510SOL    HW166537   9.143   3.029   6.060 -0.6040  1.8279  1.0063
21510SOL    HW266538   9.009   3.033   6.130 -1.5353 -1.7630 -0.3225
21511SOL     OW66539   0.163   6.041  11.055  0.4414 -0.4117  0.0968
21511SOL    HW166540   0.202   6.103  11.116 -0.4115  1.9741 -1.6242
21511SOL    HW266541   0.157   6.089  10.973 -0.6790 -2.6774 -1.2498
21512SOL     OW66542   8.683   4.949   0.358 -0.3982  0.2092 -0.6593
21512SOL    HW166543   8.619   4.880   0.341  0.0227 -0.6432  1.0147
21512SOL    HW266544   8.632   5.021   0.396 -0.8779  0.9869 -2.6405
21513SOL     OW66545   9.599   6.052   6.253 -0.0842  0.7013  0.4388
21513SOL    HW166546   9.585   6.118   6.185  0.7376  0.7209  0.2758
21513SOL    HW266547   9.678   6.005   6.225 -0.8742 -0.6230  0.3446
21514SOL     OW66548  10.255   6.715   2.612  0.1659 -0.1775 -0.0819
21514SOL    HW166549  10.217   6.629   2.597  0.4855 -0.2065 -0.7734
21514SOL    HW266550  10.346   6.706   2.583  0.2912  0.2949  0.1601
21515SOL     OW66551   2.410   3.343   8.086 -0.4185 -0.6878  0.0929
21515SOL    HW166552   2.366   3.306   8.010  0.7919 -0.0725 -0.9315
21515SOL    HW266553   2.410   3.271   8.150 -0.4990 -1.5772 -0.8701
21516SOL     OW66554   1.373   1.322   0.130 -0.2424  0.5028 -0.1061
21516SOL    HW166555   1.389   1.288   0.043  2.4237  0.4646  0.3376
21516SOL    HW266556   1.309   1.262   0.168 -0.5573 -0.1446 -1.5990
21517SOL     OW66557   5.539  10.195   6.538 -0.0088 -0.8065 -0.2573
21517SOL    HW166558   5.489  10.173   6.460 -0.4960 -2.0116  0.3645
21517SOL    HW266559   5.477  10.181   6.610  0.5196 -0.0122  0.3660
21518SOL     OW66560  11.071  10.169   7.278  0.4588 -0.2031  0.1807
21518SOL    HW166561  11.161  10.174   7.308  0.8155 -3.7758  0.1088
21518SOL    HW266562  11.074  10.199   7.187  0.9459  2.4065  0.9761
21519SOL     OW66563   5.227   0.244   6.331  0.2615 -0.4225 -0.0499
21519SOL    HW166564   5.164   0.309   6.301 -0.6891 -1.0038  0.6040
21519SOL    HW266565   5.310   0.291   6.335 -0.1203  0.3640 -0.9324
21520SOL     OW66566   4.718  11.065   3.759  0.3536 -0.1727 -0.0153
21520SOL    HW166567   4.638  11.024   3.726  0.7475 -1.4050  0.5153
21520SOL    HW266568   4.705  11.074   3.853  0.0723  1.4460 -0.1661
21521SOL     OW66569   9.041   8.961   3.968  0.0866 -0.3588  0.1471
21521SOL    HW166570   9.100   9.017   4.017  2.4598 -1.4372 -1.3089
21521SOL    HW266571   8.953   8.991   3.992  1.2128  2.1756  1.3993
21522SOL     OW66572   6.680   6.408   0.493  0.3782  0.3395 -0.2342
21522SOL    HW166573   6.590   6.440   0.491  0.7053  1.2967 -2.0073
21522SOL    HW266574   6.700   6.398   0.586 -1.8062 -0.6998  0.1762
21523SOL     OW66575   3.650   7.693   9.252  0.3351  0.4059 -0.1651
21523SOL    HW166576   3.681   7.783   9.262  0.9125  0.1151  0.8320
21523SOL    HW266577   3.690   7.646   9.325 -1.1337 -0.3538  0.1972
21524SOL     OW66578   8.765   5.457   5.403  0.2364  0.4367  0.1828
21524SOL    HW166579   8.791   5.418   5.320  2.7571  0.1183  1.0271
21524SOL    HW266580   8.832   5.523   5.421 -0.6010  0.9304  1.6554
21525SOL     OW66581   1.653   4.903   2.101  0.5191  0.4207  0.2786
21525SOL    HW166582   1.591   4.905   2.174 -0.7090  1.4886 -0.7518
21525SOL    HW266583   1.625   4.828   2.048  0.7761  0.2642  0.3626
21526SOL     OW66584   6.894   9.031   8.914  0.2709 -0.2969  0.8064
21526SOL    HW166585   6.963   8.967   8.933 -1.0829 -2.3697 -0.7243
21526SOL    HW266586   6.816   8.977   8.899 -1.3751  1.8774  1.1661
21527SOL     OW66587   0.560   6.778   6.336  0.0076  0.8208  0.2334
21527SOL    HW166588   0.542   6.685   6.350  2.0717  0.1601 -1.0853
21527SOL    HW266589   0.482   6.822   6.371 -2.2720 -1.5197 -1.4536
21528SOL     OW66590   0.810   0.316   2.502 -0.2763 -1.0392  0.2400
21528SOL    HW166591   0.739   0.366   2.461  1.2591  1.5480  0.5475
21528SOL    HW266592   0.836   0.369   2.577  3.4360 -0.7067 -1.0912
21529SOL     OW66593   4.180   3.473   9.369 -0.2077  0.2987  0.1070
21529SOL    HW166594   4.155   3.445   9.457  1.1861  0.4540  0.5807
21529SOL    HW266595   4.218   3.560   9.382  0.2663  0.2066 -0.6069
21530SOL     OW66596   7.165   6.678   5.785  0.4032 -0.4238 -0.1484
21530SOL    HW166597   7.166   6.680   5.881 -0.5161 -0.7906 -0.1239
21530SOL    HW266598   7.086   6.629   5.763  1.0197 -1.0064 -1.0935
21531SOL     OW66599   1.764   0.918   9.626 -0.1347  0.4123 -0.0827
21531SOL    HW166600   1.770   1.007   9.663  1.1505  0.1959  0.2892
21531SOL    HW266601   1.717   0.868   9.692  2.0946  0.0430  1.3488
21532SOL     OW66602   0.242   1.942   6.653  0.3127  0.0952  0.4919
21532SOL    HW166603   0.332   1.934   6.621  0.0976 -0.0807 -0.0751
21532SOL    HW266604   0.225   1.859   6.697  0.5791  0.3034  0.9930
21533SOL     OW66605   3.766   2.390   9.131 -0.0088  0.6079 -0.3232
21533SOL    HW166606   3.793   2.472   9.173  1.6090 -1.2138  2.5591
21533SOL    HW266607   3.700   2.354   9.190  0.1897 -0.7139 -0.8800
21534SOL     OW66608   7.845   0.227   7.047 -0.1283 -0.0110  0.0694
21534SOL    HW166609   7.916   0.168   7.075  1.3014  2.2136  1.3872
21534SOL    HW266610   7.772   0.206   7.105 -0.4998 -2.0518 -1.0367
21535SOL     OW66611   0.934   8.583   9.432 -0.0416  0.5822 -0.1840
21535SOL    HW166612   1.021   8.588   9.393  0.1126  1.4917  0.2456
21535SOL    HW266613   0.922   8.490   9.451  0.0755  0.1910 -1.8981
21536SOL     OW66614   0.053   2.721   2.933 -0.3527 -0.3631 -0.2588
21536SOL    HW166615  -0.017   2.690   2.875  0.0036 -2.1397  0.1915
21536SOL    HW266616   0.113   2.767   2.875 -0.1986 -1.7733 -1.2590
21537SOL     OW66617   8.485   4.987   9.749 -0.0893 -1.2430 -0.2006
21537SOL    HW166618   8.424   4.962   9.680  0.1972 -0.2588 -0.8236
21537SOL    HW266619   8.429   5.025   9.817 -0.3293 -1.8464 -0.0556
21538SOL     OW66620   8.101   2.505   9.069  0.3688 -0.2933  0.0151
21538SOL    HW166621   8.042   2.570   9.030 -0.4418 -1.0007  0.0320
21538SOL    HW266622   8.044   2.432   9.093  1.0896 -0.5522  1.0307
21539SOL     OW66623   9.886   2.421   5.648 -0.2437 -0.2859  0.3990
21539SOL    HW166624   9.892   2.416   5.743  0.0352 -0.7196  0.3618
21539SOL    HW266625   9.792   2.430   5.630 -0.4792 -2.0096  0.6459
21540SOL     OW66626   3.777   4.819   1.222  0.6195 -0.0844 -0.6677
21540SOL    HW166627   3.775   4.845   1.130  3.3329  1.7676 -0.3126
21540SOL    HW266628   3.852   4.866   1.259  0.0217 -1.2731  2.3586
21541SOL     OW66629   1.737   6.080   9.035 -0.5588 -0.1234  0.6198
21541SOL    HW166630   1.656   6.031   9.051 -0.0727 -0.6829  1.3973
21541SOL    HW266631   1.758   6.063   8.943 -2.5983  1.9532 -0.3411
21542SOL     OW66632   9.553   2.756  10.178 -0.5184  0.2093 -0.1670
21542SOL    HW166633   9.470   2.757  10.225 -0.4306 -0.3999  0.0186
21542SOL    HW266634   9.608   2.820  10.224 -1.0572  1.0182 -0.6312
21543SOL     OW66635   6.899  10.100   6.019 -0.1196 -0.1014  0.4747
21543SOL    HW166636   6.863  10.096   5.930 -1.1850  0.8832  0.8384
21543SOL    HW266637   6.991  10.124   6.006 -0.4412  0.7539 -0.3375
21544SOL     OW66638   3.844   1.834   5.299  0.6007 -0.2149  0.3753
21544SOL    HW166639   3.899   1.779   5.244  1.3013  0.7872  0.0493
21544SOL    HW266640   3.891   1.917   5.306  0.4610 -0.2465  2.3565
21545SOL     OW66641   4.517   3.240   8.435 -0.0200  1.3381  0.3318
21545SOL    HW166642   4.488   3.313   8.489 -1.1021 -0.1952  1.9470
21545SOL    HW266643   4.532   3.169   8.498  1.8055  0.3967 -1.0889
21546SOL     OW66644   0.553   7.503   0.764 -0.1006  0.0095 -0.9215
21546SOL    HW166645   0.603   7.541   0.836 -1.2452  1.0070 -0.6146
21546SOL    HW266646   0.530   7.415   0.793 -0.6211  0.4286 -0.0140
21547SOL     OW66647   8.210   5.537   8.550  0.1100  0.1223 -0.4718
21547SOL    HW166648   8.184   5.506   8.636  1.7038 -0.3759 -0.1273
21547SOL    HW266649   8.128   5.548   8.502 -0.8595  0.9864  1.2729
21548SOL     OW66650   3.874   4.186   4.436 -0.3685 -0.2367 -0.8132
21548SOL    HW166651   3.929   4.190   4.514 -1.0215  1.5234 -0.4038
21548SOL    HW266652   3.913   4.116   4.383  0.9077 -0.5326  0.4535
21549SOL     OW66653   5.944   2.805  10.407 -0.5932  0.0124 -0.4893
21549SOL    HW166654   5.938   2.722  10.454 -0.4715 -0.1819 -0.8120
21549SOL    HW266655   6.015   2.792  10.344  0.3666  0.8219  0.3856
21550SOL     OW66656  10.261   1.250   3.849  0.1356  0.2265 -0.4499
21550SOL    HW166657  10.249   1.301   3.769  2.1509  0.4357 -0.6734
21550SOL    HW266658  10.213   1.168   3.833 -0.8244  0.9087 -1.1942
21551SOL     OW66659  10.368   0.112   9.510  0.0955 -0.7414  0.0457
21551SOL    HW166660  10.356   0.204   9.530 -0.4911 -0.8353  0.1247
21551SOL    HW266661  10.325   0.065   9.582 -3.7264 -1.1217 -2.2062
21552SOL     OW66662   3.998   7.612   1.517 -0.5418 -0.4496  0.0101
21552SOL    HW166663   4.070   7.641   1.573 -0.6668  0.5716 -0.3338
21552SOL    HW266664   4.013   7.518   1.505  2.5081  0.1852 -2.5375
21553SOL     OW66665   7.699   8.817  10.366 -0.7609  0.0235  0.5444
21553SOL    HW166666   7.757   8.747  10.397 -0.4662  0.0920  0.1599
21553SOL    HW266667   7.651   8.777  10.294  1.4528  0.9940 -1.6298
21554SOL     OW66668   3.787   0.097   7.212  0.4899 -0.7102  0.1044
21554SOL    HW166669   3.721   0.075   7.278 -0.6166  0.5718 -0.5321
21554SOL    HW266670   3.826   0.013   7.188 -1.2829 -1.5829  0.1334
21555SOL     OW66671   9.153   9.096   0.467  0.1328 -0.1490 -0.4329
21555SOL    HW166672   9.218   9.029   0.447  0.5083  0.2258 -0.4782
21555SOL    HW266673   9.134   9.085   0.560 -0.0551 -0.5322 -0.5153
21556SOL     OW66674   7.036   5.726   9.646 -0.0303  0.2829  0.5490
21556SOL    HW166675   7.053   5.702   9.555  3.3199 -0.6395  1.2992
21556SOL    HW266676   7.009   5.818   9.642 -2.0999 -0.3086 -1.4687
21557SOL     OW66677   5.458   2.890   1.697 -0.4879  0.1353 -0.4827
21557SOL    HW166678   5.440   2.980   1.672 -1.0860  0.4481  0.9881
21557SOL    HW266679   5.515   2.896   1.773  1.8929 -0.8059 -2.0756
21558SOL     OW66680   4.552   3.572   0.732 -0.2752 -0.4840  0.2437
21558SOL    HW166681   4.528   3.651   0.782  1.7679 -0.6200  1.5962
21558SOL    HW266682   4.577   3.509   0.799  0.2948 -1.5090 -0.9092
21559SOL     OW66683   2.838   3.169   6.448 -0.4688 -0.0404 -0.1211
21559SOL    HW166684   2.812   3.079   6.469  0.1592 -0.7612 -2.1745
21559SOL    HW266685   2.759   3.221   6.461 -1.2633 -1.1545 -0.3508
21560SOL     OW66686   3.153  10.880   1.856 -0.1751 -0.7337  0.1936
21560SOL    HW166687   3.227  10.829   1.888  0.2650  0.4193  1.1265
21560SOL    HW266688   3.127  10.934   1.931 -0.8267  0.1602 -0.6392
21561SOL     OW66689   0.506   7.537   1.447  0.1911 -0.0228  0.2381
21561SOL    HW166690   0.523   7.600   1.377 -1.9926 -0.6242 -0.9478
21561SOL    HW266691   0.552   7.458   1.420 -0.3144 -0.1280 -0.3588
21562SOL     OW66692   1.278   7.185   8.708  0.0263  0.0407 -0.5884
21562SOL    HW166693   1.243   7.252   8.649  0.2165  0.3497 -0.3595
21562SOL    HW266694   1.206   7.124   8.722 -0.0395 -0.0011 -1.0878
21563SOL     OW66695   7.147   9.356   0.243  0.7441  0.2084 -0.2912
21563SOL    HW166696   7.181   9.306   0.169  0.3047  0.1870 -0.4804
21563SOL    HW266697   7.222   9.365   0.302  0.8932 -0.4571 -0.3701
21564SOL     OW66698   2.205   5.332   7.672  0.3034 -0.0652 -0.1690
21564SOL    HW166699   2.133   5.293   7.722 -0.2766 -0.4767 -1.3118
21564SOL    HW266700   2.168   5.411   7.634 -0.3525 -1.5004 -2.7709
21565SOL     OW66701   5.544   9.759   5.848 -0.1925  0.2202  0.5358
21565SOL    HW166702   5.468   9.707   5.873 -0.2049  0.9213  2.0941
21565SOL    HW266703   5.615   9.727   5.903  1.6260 -2.5953 -2.9862
21566SOL     OW66704   8.730   9.625   7.759 -0.2434 -0.0361 -0.0632
21566SOL    HW166705   8.755   9.583   7.841  0.9709 -1.3140 -1.0534
21566SOL    HW266706   8.800   9.687   7.741 -0.3331 -0.0067 -0.3147
21567SOL     OW66707   2.108   2.707   1.977 -0.0213  0.1901  0.6886
21567SOL    HW166708   2.030   2.703   2.032  0.3251  0.6426  1.2291
21567SOL    HW266709   2.138   2.616   1.971 -1.2320 -0.1645 -0.4962
21568SOL     OW66710   0.515  10.523   1.794 -0.3637 -0.0632 -0.6557
21568SOL    HW166711   0.515  10.489   1.704 -0.2152 -0.0082 -0.6764
21568SOL    HW266712   0.429  10.564   1.804 -0.8077 -1.0119 -0.4173
21569SOL     OW66713   7.069   7.261   7.038  0.1318  0.3703 -1.0879
21569SOL    HW166714   7.065   7.332   7.101 -0.1096  0.8144 -1.5994
21569SOL    HW266715   7.132   7.199   7.076  1.5928  1.6110 -1.3925
21570SOL     OW66716   5.562   8.062   4.946  0.2730  0.3226 -0.1812
21570SOL    HW166717   5.590   8.115   4.871 -2.5543 -1.2929 -2.6114
21570SOL    HW266718   5.610   7.980   4.936  0.6317  0.4601  0.3873
21571SOL     OW66719   6.977   4.967   7.439  0.2303 -0.2414  0.4454
21571SOL    HW166720   7.050   5.026   7.418 -1.1725  1.4918  0.2219
21571SOL    HW266721   7.006   4.920   7.517  2.6022 -1.5079 -1.0583
21572SOL     OW66722   3.337   6.040   1.405  0.2122  0.2336  0.4039
21572SOL    HW166723   3.338   6.136   1.403 -1.5806  0.2772  0.2886
21572SOL    HW266724   3.395   6.014   1.334  0.5810  1.2298  0.3233
21573SOL     OW66725   6.631   8.570   8.826 -0.4859 -0.4469 -0.2832
21573SOL    HW166726   6.595   8.610   8.746 -1.6059 -1.0720 -0.1057
21573SOL    HW266727   6.624   8.476   8.811  0.9973 -0.5920 -0.1883
21574SOL     OW66728   3.622   7.608   0.909  0.0273 -0.1005  0.1891
21574SOL    HW166729   3.527   7.601   0.921 -0.3478  1.4055 -1.5300
21574SOL    HW266730   3.650   7.669   0.978  0.1219 -2.0821  1.9963
21575SOL     OW66731   6.588   2.509   3.351 -0.9744  0.1857 -0.0852
21575SOL    HW166732   6.532   2.432   3.346  0.4674 -0.9896  1.0157
21575SOL    HW266733   6.561   2.552   3.433  0.7069 -1.2567  1.3079
21576SOL     OW66734   4.074   9.706   1.231 -0.6414 -0.0328  0.7748
21576SOL    HW166735   4.042   9.792   1.204 -0.3499 -0.0925  0.2473
21576SOL    HW266736   4.106   9.720   1.320 -0.8130  0.3505  0.7782
21577SOL     OW66737   5.405   5.454   5.490 -0.2681  0.3789 -0.4002
21577SOL    HW166738   5.462   5.490   5.422 -0.4957  0.2562 -0.6554
21577SOL    HW266739   5.327   5.509   5.488 -1.5013 -1.2948 -2.1630
21578SOL     OW66740   0.460   3.577   1.308 -0.5488 -0.6495  0.0188
21578SOL    HW166741   0.437   3.654   1.360  0.8166 -0.5456  0.5141
21578SOL    HW266742   0.555   3.581   1.299 -0.5700 -1.6432 -0.9746
21579SOL     OW66743   5.705   6.359   1.344  0.5775  0.0721 -0.3337
21579SOL    HW166744   5.671   6.446   1.323  0.2026 -0.2658 -1.1932
21579SOL    HW266745   5.631   6.313   1.383  0.2951 -0.3758 -1.3784
21580SOL     OW66746   4.257   5.966   0.248  0.0886 -0.3681  0.2460
21580SOL    HW166747   4.242   5.979   0.342 -0.0699 -2.1323  0.4953
21580SOL    HW266748   4.228   5.877   0.231 -0.0639 -0.0172 -1.5435
21581SOL     OW66749   0.486   9.081   4.640 -0.1852  0.1286 -0.6772
21581SOL    HW166750   0.508   9.160   4.591 -0.1050  0.4863 -0.0707
21581SOL    HW266751   0.549   9.079   4.712 -0.1433 -0.5266 -0.7254
21582SOL     OW66752   3.967   3.564   5.380  0.0465 -0.1571 -0.1741
21582SOL    HW166753   3.998   3.536   5.294  0.9721 -1.1596  0.4743
21582SOL    HW266754   3.911   3.493   5.411  3.4977 -2.2077  2.0750
21583SOL     OW66755  10.130   9.129   7.976 -0.3923  0.1028  0.5922
21583SOL    HW166756  10.175   9.088   8.050  1.3206  0.6177 -0.1201
21583SOL    HW266757  10.192   9.193   7.942 -1.5185  0.5602 -0.7141
21584SOL     OW66758   3.321   2.123  11.063  0.2749 -0.0144  0.2331
21584SOL    HW166759   3.359   2.115  11.151  0.4057 -1.3051  0.0772
21584SOL    HW266760   3.300   2.216  11.055  3.0551  0.7304  0.4600
21585SOL     OW66761   8.609   9.467  10.470  0.2441 -0.0992  0.3390
21585SOL    HW166762   8.628   9.402  10.537  1.4905  0.0087  0.1158
21585SOL    HW266763   8.684   9.464  10.411 -0.7655 -0.1261 -1.0118
21586SOL     OW66764   7.500   7.825   2.574 -0.1060 -0.0153 -0.3020
21586SOL    HW166765   7.592   7.843   2.554 -0.2347  0.7223 -0.2773
21586SOL    HW266766   7.451   7.879   2.512 -0.5159 -0.2341 -0.1704
21587SOL     OW66767   3.608   3.124   7.430  0.3797 -0.0009  0.0382
21587SOL    HW166768   3.671   3.194   7.451  1.2631  0.0480 -2.4432
21587SOL    HW266769   3.663   3.051   7.400 -0.6916 -0.5176 -0.6975
21588SOL     OW66770   5.865   4.995   9.710 -0.3200 -0.1009 -0.4042
21588SOL    HW166771   5.817   4.918   9.680  1.4786 -1.6104  0.4203
21588SOL    HW266772   5.954   4.964   9.726  0.7981  2.4115 -1.1701
21589SOL     OW66773   3.279   8.445   1.434 -0.4258  0.7273  0.3852
21589SOL    HW166774   3.298   8.530   1.393  1.3481  0.0814 -0.2357
21589SOL    HW266775   3.342   8.385   1.393 -1.7142 -0.9143  0.7369
21590SOL     OW66776   2.002   5.493   2.184 -0.3115  0.7322 -0.3344
21590SOL    HW166777   2.028   5.418   2.238 -0.3247 -0.4896 -1.9630
21590SOL    HW266778   1.997   5.458   2.095 -2.5026  2.1451 -0.8334
21591SOL     OW66779   5.488   7.339   2.124  1.3354  0.4838 -0.1355
21591SOL    HW166780   5.506   7.297   2.040  0.1531  1.1727 -0.7510
21591SOL    HW266781   5.484   7.432   2.104 -0.1986  0.5630  0.4500
21592SOL     OW66782   3.745   4.846   7.734 -0.4748 -0.6440  0.2770
21592SOL    HW166783   3.726   4.756   7.707  0.5555 -0.1428 -2.4683
21592SOL    HW266784   3.834   4.842   7.769 -0.4747 -0.7171  0.2682
21593SOL     OW66785   9.012   7.937   4.730  0.3080 -0.4061 -0.2743
21593SOL    HW166786   9.097   7.934   4.775 -0.0381 -1.9008  0.3547
21593SOL    HW266787   9.029   7.901   4.644  0.7122  1.2857 -0.9480
21594SOL     OW66788   1.704   9.668  10.712  0.3780 -0.3790 -0.3532
21594SOL    HW166789   1.617   9.694  10.684 -1.0328 -2.7731  1.4244
21594SOL    HW266790   1.695   9.650  10.806  3.0068  0.0945  0.0706
21595SOL     OW66791   2.644   6.507   4.439  0.1175  0.7914  0.3631
21595SOL    HW166792   2.723   6.505   4.386  0.0357  0.0095  0.2521
21595SOL    HW266793   2.669   6.464   4.521  0.6927  3.3996  1.6303
21596SOL     OW66794   7.318   9.649   0.961 -0.0200  0.2795 -0.1216
21596SOL    HW166795   7.268   9.720   1.001 -0.0594 -0.2197  0.7306
21596SOL    HW266796   7.333   9.678   0.871 -2.5544  0.1034 -0.6714
21597SOL     OW66797   3.380   0.301   2.634  0.2526  0.6847  0.2953
21597SOL    HW166798   3.451   0.294   2.698  2.1867  2.5066 -1.5071
21597SOL    HW266799   3.378   0.393   2.610 -0.5708  0.1280 -2.0488
21598SOL     OW66800   3.096  10.974   1.175  0.1021 -0.6538  0.0359
21598SOL    HW166801   3.124  10.981   1.266  0.5894  0.4481 -0.1761
21598SOL    HW266802   3.001  10.968   1.180  0.1552 -1.0454  0.6374
21599SOL     OW66803   7.615   1.700   4.058  0.1417 -0.4194  0.0061
21599SOL    HW166804   7.603   1.620   4.007 -0.9113 -0.1137 -0.2594
21599SOL    HW266805   7.624   1.770   3.992  2.4024 -0.4523  0.2077
21600SOL     OW66806   5.000  10.728  10.197  0.1944 -0.5528  0.0408
21600SOL    HW166807   4.911  10.761  10.211  0.3727 -1.0188  3.0977
21600SOL    HW266808   5.056  10.806  10.204  0.1166 -0.4392 -0.5833
21601SOL     OW66809   7.998   3.870   1.104  0.3230 -0.4607  0.0068
21601SOL    HW166810   8.013   3.793   1.049  1.4063 -1.0682  1.0906
21601SOL    HW266811   7.961   3.835   1.185 -1.9701  0.4975 -0.5588
21602SOL     OW66812   3.029   4.692   0.899  0.1969  0.0418 -0.0328
21602SOL    HW166813   2.941   4.709   0.866 -0.1126 -0.4088  0.5231
21602SOL    HW266814   3.069   4.634   0.835  0.4492  1.0256 -0.7847
21603SOL     OW66815   5.541   0.905  10.883  0.4356 -0.0961  0.4943
21603SOL    HW166816   5.542   0.834  10.947 -0.3964  0.1359  0.7817
21603SOL    HW266817   5.449   0.927  10.873  0.4250 -0.8347 -1.6039
21604SOL     OW66818   8.443   1.162   1.200 -0.0821 -0.2952 -0.3830
21604SOL    HW166819   8.417   1.178   1.109 -0.2936 -1.0928 -0.4751
21604SOL    HW266820   8.472   1.247   1.232 -0.3349  0.0697 -1.0916
21605SOL     OW66821   9.196   3.231   2.544  0.4248  0.1293 -0.4063
21605SOL    HW166822   9.119   3.176   2.559 -0.4081  1.3785  0.0148
21605SOL    HW266823   9.264   3.193   2.599 -0.9274  1.1380  2.0929
21606SOL     OW66824   8.496   8.658   7.651  0.2639 -0.6294  0.2136
21606SOL    HW166825   8.589   8.669   7.672  0.1585  0.9644 -0.0073
21606SOL    HW266826   8.493   8.657   7.556  0.1241 -1.6227  0.2158
21607SOL     OW66827   2.760  11.047   2.068  0.0925 -0.4129 -0.1459
21607SOL    HW166828   2.763  11.082   2.157  0.6647 -2.2553  0.5876
21607SOL    HW266829   2.692  11.100   2.025  0.1089  0.8055  1.2242
21608SOL     OW66830   3.090  10.746   1.379 -0.6463  0.3518  0.6402
21608SOL    HW166831   3.080  10.665   1.428 -0.2721 -0.0527  0.0630
21608SOL    HW266832   3.013  10.750   1.322  1.3838 -1.9754 -2.6746
21609SOL     OW66833   8.999   0.992   9.943  0.2248  0.0998  0.1360
21609SOL    HW166834   8.911   0.993   9.980  0.0113  1.0527 -0.3542
21609SOL    HW266835   9.054   1.031  10.011  0.0778  0.5004  0.0309
21610SOL     OW66836   3.742   9.080   6.752  0.4577  0.0208  0.5174
21610SOL    HW166837   3.780   9.032   6.826  0.0116 -1.2071 -0.0242
21610SOL    HW266838   3.785   9.044   6.675  1.9329  2.2539  0.2120
21611SOL     OW66839  10.606   3.346   0.420 -0.2339 -0.2841  0.2426
21611SOL    HW166840  10.588   3.366   0.512  0.9955 -0.3536  0.5241
21611SOL    HW266841  10.524   3.364   0.375 -0.2510  1.8180  1.0245
21612SOL     OW66842   8.987   2.887  10.837  0.0658 -0.4379 -0.1766
21612SOL    HW166843   9.031   2.866  10.754  1.7623  0.8084  0.3534
21612SOL    HW266844   9.036   2.839  10.903 -0.5529 -0.5022  0.2433
21613SOL     OW66845   5.088   2.294  11.026 -0.2341 -0.7649 -1.3536
21613SOL    HW166846   5.170   2.344  11.024 -0.5906 -0.1639 -2.8196
21613SOL    HW266847   5.061   2.294  11.118  0.1078  1.2447 -1.2012
21614SOL     OW66848   0.425   4.691   3.986  0.0731 -0.0180  0.3416
21614SOL    HW166849   0.517   4.708   4.007  1.0859 -3.6573 -0.5287
21614SOL    HW266850   0.406   4.751   3.913  1.9127  0.4091  0.1676
21615SOL     OW66851   4.705   7.197   6.115  0.3561  0.3732 -0.4371
21615SOL    HW166852   4.797   7.209   6.091  0.5070 -0.0958 -0.1126
21615SOL    HW266853   4.708   7.135   6.188 -0.1181  1.3763  0.4764
21616SOL     OW66854  10.529   7.259   1.981  0.4217 -0.1047  0.0022
21616SOL    HW166855  10.456   7.267   2.041 -0.7943  0.0267 -1.4377
21616SOL    HW266856  10.602   7.303   2.025 -0.2213 -0.6245  1.6522
21617SOL     OW66857   4.725   2.428   1.725 -0.0026 -0.2145 -0.2229
21617SOL    HW166858   4.666   2.453   1.654  0.1466 -0.8729 -0.5771
21617SOL    HW266859   4.728   2.506   1.781  0.3279  0.5134 -1.2243
21618SOL     OW66860  10.542   0.534   2.977 -0.2904 -0.3384  0.8224
21618SOL    HW166861  10.615   0.542   2.915 -1.9769 -0.1503 -1.2438
21618SOL    HW266862  10.577   0.569   3.059  1.9815 -0.4124 -0.0273
21619SOL     OW66863   6.975   6.480  10.949  0.2736  0.1924  0.2805
21619SOL    HW166864   7.014   6.455  10.865  0.8432 -0.9695  0.8626
21619SOL    HW266865   6.903   6.418  10.962 -0.3915  0.9373  0.2446
21620SOL     OW66866   6.911   5.120   2.367 -0.2009  0.4146  0.3765
21620SOL    HW166867   6.995   5.134   2.410  0.6777  0.7992 -1.3995
21620SOL    HW266868   6.918   5.166   2.283 -0.6191 -2.8102 -1.6202
21621SOL     OW66869   5.330   2.060   4.970 -0.2168 -0.6624  0.5671
21621SOL    HW166870   5.404   2.001   4.979 -0.0635 -0.2937  2.1526
21621SOL    HW266871   5.368   2.147   4.982 -0.2929 -0.0896 -2.5429
21622SOL     OW66872   5.196   6.209   1.442 -0.0989 -0.2251  0.1414
21622SOL    HW166873   5.151   6.192   1.524 -1.4122  1.9560 -0.0537
21622SOL    HW266874   5.133   6.183   1.374  0.7713 -1.5081 -0.2176
21623SOL     OW66875   3.120   2.040   6.404 -0.4498  0.2026  0.6731
21623SOL    HW166876   3.128   2.078   6.317 -1.6203  0.3120  0.6015
21623SOL    HW266877   3.028   2.051   6.428 -0.2021 -0.0282  1.8334
21624SOL     OW66878   0.105   8.355   0.156 -0.2901  0.2298  0.1311
21624SOL    HW166879   0.017   8.364   0.194 -1.0365  0.7361 -1.6195
21624SOL    HW266880   0.134   8.445   0.141  1.0816  0.1164  1.7947
21625SOL     OW66881   2.445   7.932   2.093  0.1415 -0.9361 -0.3288
21625SOL    HW166882   2.531   7.971   2.112 -0.9469  0.7401  1.5974
21625SOL    HW266883   2.444   7.921   1.998  2.3062 -0.5792 -0.4485
21626SOL     OW66884   4.368   7.064   5.316  0.3909 -0.3960  0.1890
21626SOL    HW166885   4.453   7.073   5.358  0.9433  1.4672 -1.2133
21626SOL    HW266886   4.364   7.135   5.253 -1.5195 -1.4529 -0.9932
21627SOL     OW66887   3.260   1.224   9.886  0.2682  0.1388  0.0004
21627SOL    HW166888   3.272   1.197   9.977  1.6428 -0.1472 -0.2408
21627SOL    HW266889   3.310   1.160   9.835  1.4214  1.6028 -0.7833
21628SOL     OW66890   7.008   3.394   6.562 -0.2078  0.1524  0.2240
21628SOL    HW166891   7.072   3.446   6.513  0.4906  0.2612  1.2093
21628SOL    HW266892   6.981   3.326   6.501  0.8648  0.1100 -0.2273
21629SOL     OW66893   3.259   9.120   8.930 -0.4483  0.5610 -0.1562
21629SOL    HW166894   3.181   9.174   8.941 -0.0639  0.9392  0.8046
21629SOL    HW266895   3.330   9.183   8.915 -0.0630  0.3173  0.5799
21630SOL     OW66896   0.297   2.397  10.932 -0.8816 -0.7755  0.2289
21630SOL    HW166897   0.371   2.346  10.899 -0.6244  0.1567 -0.6615
21630SOL    HW266898   0.234   2.397  10.860 -0.2766  1.3543 -0.3524
21631SOL     OW66899  10.695   0.710   7.051  0.1622  0.3351 -0.1344
21631SOL    HW166900  10.662   0.747   7.133 -0.5459  2.1674 -1.1947
21631SOL    HW266901  10.721   0.621   7.074  0.4849  0.9662  2.1947
21632SOL     OW66902   7.607   6.497   1.680  0.1789 -0.1120 -0.3736
21632SOL    HW166903   7.608   6.483   1.775 -0.9363  1.3100 -0.1164
21632SOL    HW266904   7.695   6.527   1.659 -0.2765  2.1815  0.7040
21633SOL     OW66905   2.960   3.078   8.360  0.2264 -0.0051  0.5500
21633SOL    HW166906   2.931   3.156   8.313  0.6055  0.5023  1.1515
21633SOL    HW266907   3.035   3.046   8.309  1.0252  0.8955  1.1349
21634SOL     OW66908  10.200   7.542   2.658  0.8710 -0.2700 -0.2699
21634SOL    HW166909  10.233   7.598   2.587 -3.8393  0.9772 -1.8442
21634SOL    HW266910  10.181   7.459   2.616 -0.6068  0.0091 -0.2026
21635SOL     OW66911   0.264   6.004   2.172 -0.5680 -0.8423  0.5622
21635SOL    HW166912   0.178   6.032   2.202 -0.9397 -1.0131 -0.3088
21635SOL    HW266913   0.291   6.071   2.109  1.0808  0.5819  2.6609
21636SOL     OW66914   8.949   3.556  10.908 -0.5303  0.9084 -0.0706
21636SOL    HW166915   8.982   3.642  10.933 -0.2759  2.0581 -3.7242
21636SOL    HW266916   8.881   3.575  10.843  0.2657 -1.6070 -1.7746
21637SOL     OW66917   7.957   5.502   8.341 -0.2543 -0.1950  0.0612
21637SOL    HW166918   7.888   5.550   8.386 -0.1131  0.4896 -0.4359
21637SOL    HW266919   7.916   5.418   8.318 -1.4158  0.7200 -1.4683
21638SOL     OW66920   3.123   8.109   6.326  0.9391  0.2226  0.2587
21638SOL    HW166921   3.200   8.165   6.327  0.4421  0.9094  0.3919
21638SOL    HW266922   3.059   8.155   6.379  0.0646  0.1827 -0.7330
21639SOL     OW66923   4.916  11.060   7.507  0.5111  0.2221 -0.0220
21639SOL    HW166924   4.940  11.028   7.594  1.1551  0.4914 -0.0953
21639SOL    HW266925   4.881  10.983   7.462  2.3040 -0.4823 -0.2926
21640SOL     OW66926   1.269   0.095   9.928  0.3493  0.4170  0.2097
21640SOL    HW166927   1.291   0.173   9.876  0.2099  0.5435  0.3405
21640SOL    HW266928   1.314   0.109  10.011 -0.4903  0.8346  0.6047
21641SOL     OW66929   5.955   5.909   6.676  0.2098  0.3274 -0.0880
21641SOL    HW166930   5.863   5.936   6.679  0.4471  1.0620  0.9797
21641SOL    HW266931   5.957   5.827   6.726  0.3984  1.1744  1.3444
21642SOL     OW66932   1.839   4.997  10.775 -1.0647 -0.0167  0.2204
21642SOL    HW166933   1.838   5.018  10.868  0.9981  1.8463 -0.0932
21642SOL    HW266934   1.843   4.901  10.772 -2.1672 -0.1622  1.9716
21643SOL     OW66935   9.980  10.172   8.943  0.0922  0.0889 -0.6302
21643SOL    HW166936   9.931  10.096   8.974  0.8550  0.6400  2.2157
21643SOL    HW266937  10.069  10.139   8.931  0.8543  0.7308  2.3021
21644SOL     OW66938   2.883   8.640   3.420 -0.1073 -0.2577 -0.0176
21644SOL    HW166939   2.811   8.680   3.469  0.9734  1.0145  0.6214
21644SOL    HW266940   2.958   8.698   3.437  1.0181 -1.4269 -0.8153
21645SOL     OW66941   9.052   9.975   0.090  0.3541 -0.1115 -0.4620
21645SOL    HW166942   9.031  10.023   0.011  2.5524  0.6236 -0.6598
21645SOL    HW266943   9.147   9.976   0.095  0.2901  0.2278  2.4182
21646SOL     OW66944   4.147   9.301   8.694  0.4887 -0.1027 -0.1924
21646SOL    HW166945   4.193   9.351   8.627  1.8245 -1.0936 -0.0610
21646SOL    HW266946   4.095   9.237   8.644 -1.0446  1.2020 -0.3504
21647SOL     OW66947   1.798   0.238   1.887 -0.2962  0.2306  0.5435
21647SOL    HW166948   1.740   0.306   1.853 -1.7732 -0.6319  1.2444
21647SOL    HW266949   1.865   0.286   1.935 -1.3258  1.2058  1.0722
21648SOL     OW66950  10.924   7.648   9.868 -0.3425  0.0092  0.8583
21648SOL    HW166951  10.869   7.627   9.792  1.4579  2.2965 -1.2656
21648SOL    HW266952  10.868   7.703   9.923 -1.6800 -1.6824  1.2856
21649SOL     OW66953   0.647   7.047   1.990 -0.5039  0.0014 -0.7219
21649SOL    HW166954   0.670   7.130   1.948  0.1668 -0.0862 -0.5416
21649SOL    HW266955   0.633   7.070   2.082  1.8376 -0.4014 -0.2010
21650SOL     OW66956   1.159   3.768  10.441  0.2407 -0.8370 -1.2164
21650SOL    HW166957   1.209   3.774  10.359  2.5240  0.9180  0.1798
21650SOL    HW266958   1.161   3.857  10.476  0.5547 -1.8212  1.4197
21651SOL     OW66959   4.174   3.813   1.464  0.1016  0.5094  0.0288
21651SOL    HW166960   4.247   3.820   1.526  0.4963  0.6396 -0.4355
21651SOL    HW266961   4.198   3.739   1.408  2.2091  3.1740 -3.0206
21652SOL     OW66962   4.367   5.668   8.786 -0.4429  0.5473 -0.7383
21652SOL    HW166963   4.298   5.609   8.757 -1.1629  2.5312 -3.3741
21652SOL    HW266964   4.324   5.726   8.849 -1.2132  1.6118 -2.1784
21653SOL     OW66965   0.167  10.251   6.755 -0.8703 -0.1148  0.0502
21653SOL    HW166966   0.097  10.316   6.753 -1.8402 -1.1016  0.6752
21653SOL    HW266967   0.245  10.298   6.727 -1.8273  0.9528 -0.8855
21654SOL     OW66968   5.381   6.645  10.332  0.1553  0.2074 -0.2892
21654SOL    HW166969   5.311   6.709  10.339  0.4163  0.2920  2.7383
21654SOL    HW266970   5.461   6.694  10.351  0.9498 -0.1830 -2.2951
21655SOL     OW66971   3.363   3.936   1.692  0.1588  0.0104  0.2525
21655SOL    HW166972   3.456   3.958   1.682 -0.1518  1.8960  0.9706
21655SOL    HW266973   3.320   3.977   1.617 -0.0685 -1.2390 -0.3212
21656SOL     OW66974   2.016   4.988   8.220  0.0109  0.0607 -0.7541
21656SOL    HW166975   1.952   5.044   8.177  1.4294  2.6047  0.1849
21656SOL    HW266976   2.020   5.022   8.310 -0.9615 -3.3517  0.7168
21657SOL     OW66977   9.716   3.638   6.832  0.6175  0.4754  0.4743
21657SOL    HW166978   9.762   3.668   6.754 -1.1844  0.2998 -0.7340
21657SOL    HW266979   9.676   3.718   6.868 -1.4349  0.1438 -0.8543
21658SOL     OW66980   1.521  10.545   5.031  0.2584 -0.4880  0.1937
21658SOL    HW166981   1.617  10.548   5.031  0.2538  1.2987 -1.6557
21658SOL    HW266982   1.501  10.451   5.030  2.0889 -0.9738 -2.2503
21659SOL     OW66983   9.405   0.723   1.085 -0.4157 -0.3587 -0.2633
21659SOL    HW166984   9.462   0.655   1.122  0.2341  0.2653 -0.0977
21659SOL    HW266985   9.466   0.789   1.053 -1.0271 -0.1268 -0.9628
21660SOL     OW66986   1.725  10.095   8.273 -0.2318  0.0003  0.6352
21660SOL    HW166987   1.631  10.097   8.252  0.3927  1.1910 -2.7858
21660SOL    HW266988   1.764  10.050   8.198  1.8815 -1.3255  2.4576
21661SOL     OW66989   0.147   2.084   3.723 -0.0267  0.4722  0.7544
21661SOL    HW166990   0.134   2.177   3.702  0.2174  0.4016  0.2677
21661SOL    HW266991   0.062   2.044   3.705  0.0947  0.4665  0.1676
21662SOL     OW66992   6.082  10.384   8.290  0.0705 -0.2101  0.0237
21662SOL    HW166993   6.038  10.465   8.263 -1.4308 -1.1439 -0.4426
21662SOL    HW266994   6.175  10.401   8.275 -0.3748  0.7677 -1.8631
21663SOL     OW66995  10.347   7.225   2.250  0.2627 -0.3722  0.3295
21663SOL    HW166996  10.333   7.137   2.286  1.5710 -1.0671 -0.7835
21663SOL    HW266997  10.264   7.246   2.207 -0.6846 -0.2870  2.0891
21664SOL     OW66998   3.819   4.092   2.651 -0.0029  0.0180 -0.2161
21664SOL    HW166999   3.861   4.151   2.588  0.3403  0.0248  0.0193
21664SOL    HW267000   3.731   4.127   2.660 -0.1379 -0.1253 -0.8816
21665SOL     OW67001   3.958   4.342   6.038  0.0351 -0.0421  0.0453
21665SOL    HW167002   3.986   4.275   5.975  0.5001  0.0496  0.1568
21665SOL    HW267003   4.011   4.326   6.115 -1.2352 -0.8003  0.8053
21666SOL     OW67004   9.620   8.223   4.748  0.1176  0.3777  0.3561
21666SOL    HW167005   9.704   8.218   4.794 -0.2758  2.4332  1.4349
21666SOL    HW267006   9.557   8.246   4.817 -0.7673  2.0059 -0.9176
21667SOL     OW67007   4.495   4.955  10.952  0.4769  0.1655  0.2367
21667SOL    HW167008   4.462   4.866  10.943 -0.9274  0.1678  3.8596
21667SOL    HW267009   4.560   4.951  11.022  1.4631  1.7945 -0.5006
21668SOL     OW67010   8.194   6.258   2.979  0.4295 -0.2610 -0.3304
21668SOL    HW167011   8.187   6.353   2.985  2.1952 -0.1502  0.4250
21668SOL    HW267012   8.193   6.227   3.070  2.6286 -0.6907 -0.3924
21669SOL     OW67013   8.831   7.879   9.531 -0.5181  0.7571 -0.7675
21669SOL    HW167014   8.921   7.874   9.498  0.0736 -0.8789  0.9336
21669SOL    HW267015   8.780   7.828   9.468  0.7465 -3.1332  1.0932
21670SOL     OW67016   8.109   7.294   6.909 -0.3579 -0.5362 -0.4126
21670SOL    HW167017   8.144   7.312   6.997 -0.1420  0.8991 -0.7632
21670SOL    HW267018   8.118   7.200   6.899  1.5204 -0.4875  0.3347
21671SOL     OW67019   5.197   3.957  10.000 -0.0389 -0.1036  0.3417
21671SOL    HW167020   5.227   4.031  10.054  1.5185 -0.0616 -0.5295
21671SOL    HW267021   5.255   3.958   9.924 -0.3644 -1.8854  0.0316
21672SOL     OW67022   4.197   6.052   1.295  0.4664 -0.3540  0.0679
21672SOL    HW167023   4.292   6.063   1.297  0.5311 -0.6727 -0.7558
21672SOL    HW267024   4.176   6.041   1.202 -0.4854  0.6753  0.1391
21673SOL     OW67025   9.906   3.963   0.799  0.2904  0.6869 -0.1229
21673SOL    HW167026   9.834   3.913   0.837  1.9023 -1.2408  0.6023
21673SOL    HW267027   9.981   3.945   0.857  1.7586  1.2118 -1.7601
21674SOL     OW67028   3.795   7.857   2.584 -0.2214  0.5720  0.1918
21674SOL    HW167029   3.719   7.913   2.604 -0.7410 -0.0501  0.0015
21674SOL    HW267030   3.798   7.856   2.488 -1.1047 -0.8625  0.1420
21675SOL     OW67031   3.656   3.013   3.470 -0.3173 -0.0207  0.4148
21675SOL    HW167032   3.752   3.014   3.476 -0.2115  1.2123 -0.9169
21675SOL    HW267033   3.632   3.105   3.459 -1.5667 -0.4196 -0.3963
21676SOL     OW67034   5.794   1.989   6.037  0.5093  0.6646 -0.3665
21676SOL    HW167035   5.872   1.995   6.092  1.4149  0.9305 -1.6357
21676SOL    HW267036   5.794   1.898   6.006 -1.8616 -0.5596  2.6141
21677SOL     OW67037   7.964   8.144   4.631  1.3201  1.1121 -1.1372
21677SOL    HW167038   7.910   8.068   4.655  1.1740  1.3850 -0.5865
21677SOL    HW267039   8.015   8.114   4.556 -0.4400  1.1979 -2.4458
21678SOL     OW67040   2.435   8.617  10.734 -0.4856  0.1971  0.0761
21678SOL    HW167041   2.474   8.697  10.699  1.2070  0.0175  1.3821
21678SOL    HW267042   2.458   8.618  10.827 -2.3343 -0.7378  0.5900
21679SOL     OW67043   5.980   4.255   4.453  0.0441 -0.1780  0.0382
21679SOL    HW167044   6.002   4.271   4.545 -3.6435 -0.2239  1.1122
21679SOL    HW267045   6.005   4.335   4.408  1.6681 -0.0373  1.1138
21680SOL     OW67046   3.374   2.661   0.246 -0.5074 -0.6423 -0.1635
21680SOL    HW167047   3.385   2.599   0.174 -1.1350  0.2992 -1.0962
21680SOL    HW267048   3.333   2.738   0.206  0.1272  0.3311  0.9907
21681SOL     OW67049   5.971   4.226   4.952  0.4120  0.0319 -0.3292
21681SOL    HW167050   5.996   4.265   5.036  1.1635 -1.2903  0.0770
21681SOL    HW267051   5.896   4.279   4.923  1.1511  1.5193  0.3799
21682SOL     OW67052   9.126  10.450   6.086 -0.1180  0.3639 -0.6305
21682SOL    HW167053   9.180  10.426   6.161  1.2019  2.1975 -0.9381
21682SOL    HW267054   9.048  10.491   6.124 -0.8305 -1.3140 -0.2182
21683SOL     OW67055   5.781   2.992   1.601 -0.1518 -0.8676  0.0460
21683SOL    HW167056   5.734   2.985   1.518 -1.4184 -3.5990  0.8626
21683SOL    HW267057   5.852   2.928   1.593  0.6941 -0.0077  0.5109
21684SOL     OW67058   1.704   5.640   7.362 -0.2445  0.0452 -0.1004
21684SOL    HW167059   1.649   5.563   7.367  0.4094 -1.1158 -5.0505
21684SOL    HW267060   1.792   5.606   7.343  0.7654  1.9625  0.8253
21685SOL     OW67061   4.229   3.203   5.771 -0.7338 -0.0918 -0.3807
21685SOL    HW167062   4.189   3.251   5.699 -0.7360 -0.4070 -0.5915
21685SOL    HW267063   4.319   3.190   5.744 -0.7869 -0.3878 -0.4156
21686SOL     OW67064   9.625  10.632   9.513  0.4814  0.4741 -0.3556
21686SOL    HW167065   9.546  10.685   9.529  0.8792  1.3419 -1.1777
21686SOL    HW267066   9.692  10.673   9.567  0.4420 -0.1176  0.1532
21687SOL     OW67067   3.440   0.284   0.624  0.2812  0.5973 -0.1129
21687SOL    HW167068   3.414   0.375   0.612  0.0881  0.7128  1.0685
21687SOL    HW267069   3.358   0.239   0.643  0.1240 -0.1461 -2.2270
21688SOL     OW67070   7.791   3.828   6.302  0.8203 -0.9325  0.4920
21688SOL    HW167071   7.762   3.744   6.264 -2.0658  0.3309 -0.4208
21688SOL    HW267072   7.764   3.823   6.393 -0.0143 -0.7628  0.2660
21689SOL     OW67073   9.045   5.736   2.532 -0.2576 -0.7356 -0.0868
21689SOL    HW167074   8.988   5.661   2.518  0.9791 -2.0750  1.5120
21689SOL    HW267075   9.113   5.728   2.465 -0.9237 -0.1840 -0.8390
21690SOL     OW67076   6.479   7.973   4.335 -0.2640 -0.0943 -0.9652
21690SOL    HW167077   6.509   7.948   4.247 -0.6966  0.1465 -1.1888
21690SOL    HW267078   6.474   7.891   4.383  1.7208 -0.0430 -0.5927
21691SOL     OW67079  10.024   2.321   4.964 -0.8634  0.0178 -0.3776
21691SOL    HW167080   9.958   2.346   5.029  0.7069 -0.1051  1.3421
21691SOL    HW267081  10.074   2.401   4.948  0.8339 -0.6795  1.1286
21692SOL     OW67082   3.513  10.444   1.523 -0.4582 -0.2540  0.1631
21692SOL    HW167083   3.450  10.373   1.509  0.1663 -0.6575 -0.6543
21692SOL    HW267084   3.463  10.524   1.502 -1.8481 -0.1855  3.1992
21693SOL     OW67085   3.763   2.484   0.348 -0.3794 -0.0645  0.3827
21693SOL    HW167086   3.704   2.526   0.410 -2.5706  1.3648 -2.4327
21693SOL    HW267087   3.828   2.551   0.326  0.7764 -0.7697  1.4823
21694SOL     OW67088   0.170   1.867   0.908 -0.3136  0.1307 -0.0115
21694SOL    HW167089   0.198   1.794   0.853  0.3284  0.6607 -0.3883
21694SOL    HW267090   0.144   1.935   0.847 -0.9451  0.2159  0.3424
21695SOL     OW67091   7.422   8.435   6.370  0.0890  0.1000 -0.6585
21695SOL    HW167092   7.333   8.415   6.399  0.5889 -0.0471  0.8673
21695SOL    HW267093   7.455   8.353   6.335  0.1509 -0.2754  0.2460
21696SOL     OW67094   5.238   3.961   3.329  0.5224 -0.2719 -0.7722
21696SOL    HW167095   5.281   3.895   3.384 -0.3967 -0.0734  0.2259
21696SOL    HW267096   5.221   4.034   3.389  1.5972  0.9344 -1.8801
21697SOL     OW67097   7.333   7.474  10.684 -0.1709  0.1449  0.8027
21697SOL    HW167098   7.260   7.486  10.744 -0.6623  0.3611  0.1713
21697SOL    HW267099   7.370   7.562  10.674 -0.6294  0.2719  0.1265
21698SOL     OW67100   5.670   2.840   0.206  0.3340 -0.5372 -0.0438
21698SOL    HW167101   5.581   2.870   0.225  0.8377  0.8992  0.1667
21698SOL    HW267102   5.703   2.808   0.290 -1.0236 -4.1679 -0.6986
21699SOL     OW67103  10.130   0.983   7.998 -0.3363 -0.0303  0.4493
21699SOL    HW167104  10.120   0.906   7.942 -1.2917  0.7503 -0.5168
21699SOL    HW267105  10.076   1.050   7.956 -0.3577  0.8669  1.8357
21700SOL     OW67106   8.227   3.784   7.733 -0.1627 -0.3469 -0.6421
21700SOL    HW167107   8.148   3.748   7.774 -0.0030  0.8441  0.8114
21700SOL    HW267108   8.194   3.842   7.665 -0.5940  0.4284  0.1966
21701SOL     OW67109   0.536   1.989   1.534  0.2259 -0.3008 -0.2063
21701SOL    HW167110   0.585   2.023   1.609 -1.1237  1.4330 -0.0345
21701SOL    HW267111   0.531   2.063   1.473  0.0906 -1.2565 -1.3901
21702SOL     OW67112   8.667   1.613   3.352 -0.2850  0.0792  0.3669
21702SOL    HW167113   8.689   1.520   3.359 -0.7727 -0.1256 -0.6381
21702SOL    HW267114   8.633   1.623   3.263  0.5215  1.3832  0.1807
21703SOL     OW67115   1.428   6.338   3.001  0.5103 -0.1746  0.3090
21703SOL    HW167116   1.407   6.256   3.045 -0.0110 -0.9842 -1.3275
21703SOL    HW267117   1.505   6.372   3.046  1.2017 -1.9687  0.5337
21704SOL     OW67118   5.274  10.868   1.725  0.5581 -0.2916 -0.0408
21704SOL    HW167119   5.281  10.931   1.796  0.2762 -0.8971  0.5268
21704SOL    HW267120   5.290  10.783   1.765 -0.5114 -0.7350 -0.5079
21705SOL     OW67121   9.864  10.391   8.801  0.5459 -0.0734  0.1130
21705SOL    HW167122   9.922  10.349   8.865  0.2694  0.9866  1.0943
21705SOL    HW267123   9.899  10.480   8.792 -0.7717  0.5177  0.5652
21706SOL     OW67124   1.746  10.764   8.813 -0.2696  0.1457  0.2422
21706SOL    HW167125   1.797  10.842   8.835 -2.0236  1.2262  0.7088
21706SOL    HW267126   1.806  10.709   8.765  0.7460  2.3158 -1.1512
21707SOL     OW67127   1.347   7.712   3.073 -0.1769 -0.3931 -0.2159
21707SOL    HW167128   1.333   7.807   3.073 -0.7985 -0.4657  1.1663
21707SOL    HW267129   1.424   7.699   3.017  0.3398  0.9899  0.1502
21708SOL     OW67130   6.234  10.511   1.633 -0.4076 -0.1282 -0.2654
21708SOL    HW167131   6.191  10.596   1.640 -2.9787 -1.2797 -0.7685
21708SOL    HW267132   6.321  10.531   1.598 -1.0041  2.2461 -0.5959
21709SOL     OW67133   1.175   3.697   6.920 -0.4503 -0.1841  0.7211
21709SOL    HW167134   1.250   3.752   6.898 -1.5727  1.4882  0.8682
21709SOL    HW267135   1.098   3.751   6.899 -1.6737 -2.4703 -1.0635
21710SOL     OW67136   0.943   5.602   6.190  0.1738 -0.5641  0.6170
21710SOL    HW167137   0.883   5.551   6.244 -1.3661  0.9300  0.4125
21710SOL    HW267138   0.891   5.678   6.162  1.9459  0.4047 -0.2026
21711SOL     OW67139   3.149   4.565   2.990  0.1234  0.0244 -0.1973
21711SOL    HW167140   3.197   4.499   2.941  0.9917  0.2118  0.3843
21711SOL    HW267141   3.213   4.633   3.009 -0.9136  1.4349 -1.4426
21712SOL     OW67142   2.525   4.935   0.890 -0.2855 -0.0941  0.7785
21712SOL    HW167143   2.570   5.016   0.867  1.8639 -0.9202  1.8292
21712SOL    HW267144   2.464   4.920   0.818  0.3570  1.6563 -0.1772
21713SOL     OW67145   3.385   6.231   3.556 -0.2948 -0.3060  0.4019
21713SOL    HW167146   3.473   6.260   3.533 -0.7393 -0.4488 -1.6664
21713SOL    HW267147   3.393   6.135   3.564 -0.3713 -0.3727 -0.3165
21714SOL     OW67148   9.484   5.816   3.502  0.1149  0.0869  0.1307
21714SOL    HW167149   9.404   5.867   3.517  0.6791  0.9601  0.2623
21714SOL    HW267150   9.551   5.861   3.553  0.5732 -0.9953  0.5214
21715SOL     OW67151   5.920   1.580   7.440  0.0369  0.2500 -0.2347
21715SOL    HW167152   5.992   1.529   7.477  0.5031 -0.2731 -1.7883
21715SOL    HW267153   5.874   1.615   7.516  1.0281 -0.6576  0.8227
21716SOL     OW67154  10.929   6.688   2.703  0.0545  0.1020  0.1175
21716SOL    HW167155  10.955   6.777   2.726  1.8658 -0.2102 -0.5591
21716SOL    HW267156  10.936   6.639   2.785  0.9382  0.1852  0.0960
21717SOL     OW67157  10.066   1.844   1.531  0.2104  0.3460  0.3095
21717SOL    HW167158   9.995   1.867   1.472  0.5294 -0.6524 -0.4864
21717SOL    HW267159  10.087   1.926   1.576  0.1568  1.2218 -1.1878
21718SOL     OW67160   4.140   7.849   9.703  0.0394 -0.1088  0.0052
21718SOL    HW167161   4.118   7.913   9.770 -1.6477  1.2539 -1.7486
21718SOL    HW267162   4.230   7.871   9.677 -0.5543  1.6996 -0.6702
21719SOL     OW67163   9.373   3.408   0.661  0.3501  0.3626  0.0774
21719SOL    HW167164   9.296   3.463   0.677 -0.2224  0.5952 -2.8651
21719SOL    HW267165   9.414   3.447   0.583  0.4688 -2.7873 -1.5887
21720SOL     OW67166   5.028   0.425   8.204 -0.2201 -0.6974  0.7683
21720SOL    HW167167   5.085   0.501   8.220 -0.3133 -0.4150 -0.1781
21720SOL    HW267168   5.040   0.370   8.281 -0.9095  0.7337  1.9508
21721SOL     OW67169   2.070   4.932   0.496  0.3532  0.1940 -0.0070
21721SOL    HW167170   2.005   4.969   0.436 -0.6632 -0.2749  0.7739
21721SOL    HW267171   2.143   4.994   0.493 -0.9861  1.9017  0.6695
21722SOL     OW67172   0.696   5.668   2.694  0.1404 -0.2682  0.4043
21722SOL    HW167173   0.649   5.594   2.733 -0.2961 -0.0075  0.3785
21722SOL    HW267174   0.641   5.695   2.620  0.3262  0.0443  0.3794
21723SOL     OW67175   1.682   5.304   6.235 -0.5658  0.0452  0.5682
21723SOL    HW167176   1.708   5.393   6.212 -0.1543  0.2577  1.7733
21723SOL    HW267177   1.706   5.251   6.159 -0.7721  0.9510 -0.1441
21724SOL     OW67178   1.431   9.660   9.672 -0.0429 -0.3753  0.3923
21724SOL    HW167179   1.413   9.746   9.633  1.5772 -1.2127 -2.5934
21724SOL    HW267180   1.501   9.677   9.735 -0.3349  0.6216  0.4657
21725SOL     OW67181   4.995   5.183   0.430  0.4457  0.1117 -0.7269
21725SOL    HW167182   5.063   5.140   0.379 -0.6675 -1.1234 -1.2332
21725SOL    HW267183   5.042   5.227   0.500  1.6888 -2.2145  0.0349
21726SOL     OW67184   3.168  10.807   5.928 -0.4407  0.2890 -0.2045
21726SOL    HW167185   3.228  10.873   5.962 -0.3711  0.5437 -0.8228
21726SOL    HW267186   3.222  10.752   5.871 -0.5875 -0.0648 -0.0113
21727SOL     OW67187   4.341   9.984   9.868  0.0490  0.4644 -0.7920
21727SOL    HW167188   4.384  10.042   9.806  0.2865  1.7029  0.4740
21727SOL    HW267189   4.313   9.909   9.816 -1.1523  2.1339 -2.7038
21728SOL     OW67190   8.510   2.699   6.599 -0.2470  0.9505 -0.2229
21728SOL    HW167191   8.445   2.658   6.543  0.8818  0.9996 -1.6127
21728SOL    HW267192   8.550   2.627   6.647 -0.0754  0.7028 -0.7301
21729SOL     OW67193   1.641   6.126   5.411  0.1406 -0.0210  0.5980
21729SOL    HW167194   1.665   6.186   5.340 -0.3799  0.4948  0.8467
21729SOL    HW267195   1.721   6.117   5.463 -0.2653  2.0639  1.6949
21730SOL     OW67196  10.355   3.891   1.350  0.2526 -0.1768 -0.0838
21730SOL    HW167197  10.402   3.973   1.336  2.1152 -0.4234  3.5981
21730SOL    HW267198  10.398   3.851   1.425 -3.9856 -1.9265  1.7449
21731SOL     OW67199   8.628   3.742   5.601 -0.2329 -0.1322 -0.1353
21731SOL    HW167200   8.607   3.661   5.556  1.7670 -2.0500  2.1269
21731SOL    HW267201   8.580   3.737   5.684  2.6135 -0.8454  1.6023
21732SOL     OW67202   4.309   6.563   0.865  0.4680 -0.3823  0.6622
21732SOL    HW167203   4.250   6.493   0.834 -2.4524  1.6385  1.2715
21732SOL    HW267204   4.306   6.557   0.960 -0.1467  0.7844  0.7339
21733SOL     OW67205   8.721   2.821  10.001 -0.2000  0.1428 -0.4112
21733SOL    HW167206   8.656   2.767  10.045  0.4987 -0.3430  0.0469
21733SOL    HW267207   8.670   2.880   9.945 -1.0124 -0.3918 -0.2463
21734SOL     OW67208   1.891   2.523   8.361 -0.0311  0.8206 -0.2543
21734SOL    HW167209   1.822   2.567   8.312  0.5795  1.0883 -0.8929
21734SOL    HW267210   1.912   2.445   8.310  0.6324  1.1200 -0.4518
21735SOL     OW67211   6.729   1.716   4.868  0.2304  0.1937  0.9881
21735SOL    HW167212   6.798   1.652   4.851  2.0548  2.4780 -1.0393
21735SOL    HW267213   6.737   1.735   4.962  2.5749  0.5147  0.7896
21736SOL     OW67214   4.315   5.434   2.158 -0.6133  0.8775 -0.0430
21736SOL    HW167215   4.259   5.474   2.224 -0.8413 -0.4605  0.5978
21736SOL    HW267216   4.404   5.453   2.188 -0.7071 -0.0410  0.8967
21737SOL     OW67217   3.034   9.700   8.529 -0.7214 -0.0417  0.1993
21737SOL    HW167218   3.044   9.607   8.551  0.5258  0.5108  2.2041
21737SOL    HW267219   3.100   9.716   8.462  0.2928 -0.2469  1.1126
21738SOL     OW67220   9.398   6.873   4.763 -0.7800 -0.8448  0.1537
21738SOL    HW167221   9.403   6.968   4.774 -3.3896 -0.6301  0.1673
21738SOL    HW267222   9.489   6.844   4.760  0.0826  1.6201  0.3599
21739SOL     OW67223   5.608   8.325   3.761  0.5302  0.5785  0.1918
21739SOL    HW167224   5.649   8.386   3.821  2.3009 -0.7505  0.4091
21739SOL    HW267225   5.669   8.318   3.688 -0.1555 -0.1090 -0.3344
21740SOL     OW67226   9.541   9.096   8.987 -0.0773  0.0210 -0.1339
21740SOL    HW167227   9.541   9.078   9.081 -1.4041 -0.1039 -0.1441
21740SOL    HW267228   9.482   9.170   8.977  1.1011  0.9144 -0.7326
21741SOL     OW67229   3.775   5.465   6.881  0.0459 -0.1653 -0.0643
21741SOL    HW167230   3.685   5.492   6.900 -1.2702 -1.3885 -3.7825
21741SOL    HW267231   3.778   5.373   6.909  1.2492  0.6256  2.8454
21742SOL     OW67232   2.585   1.262   1.714  0.2636  0.3737  0.2016
21742SOL    HW167233   2.533   1.335   1.680 -0.6528 -0.4465 -0.1895
21742SOL    HW267234   2.659   1.256   1.654 -1.0905 -0.7487 -1.4438
21743SOL     OW67235   5.268   3.862   5.894 -0.4533  0.6260  0.4205
21743SOL    HW167236   5.336   3.801   5.864  2.5651  3.9015 -0.0944
21743SOL    HW267237   5.249   3.835   5.984  3.5908  0.9574  1.5815
21744SOL     OW67238   3.097   9.814   4.660  0.2302  0.6155 -0.2986
21744SOL    HW167239   3.142   9.759   4.724  0.5640  0.7078 -0.4527
21744SOL    HW267240   3.006   9.785   4.663 -0.0010  1.3801  1.0451
21745SOL     OW67241   8.051  10.728   6.312 -0.1174  0.4434 -0.2937
21745SOL    HW167242   8.031  10.652   6.366  0.6830 -0.3836 -1.1067
21745SOL    HW267243   8.035  10.804   6.369 -1.9323 -0.2698  0.2070
21746SOL     OW67244   9.433   3.260   6.142 -0.3052  0.3703 -0.5455
21746SOL    HW167245   9.508   3.208   6.115  1.9652  3.6169 -1.1700
21746SOL    HW267246   9.406   3.306   6.062 -1.1470  1.3388  0.2560
21747SOL     OW67247   9.872   9.585   4.904  0.4989  0.3012  0.3451
21747SOL    HW167248   9.787   9.625   4.926  0.6270  1.5328 -1.2059
21747SOL    HW267249   9.936   9.638   4.951  0.5041  0.3299  0.3062
21748SOL     OW67250   5.581   4.410  10.073  0.1646  0.5315 -0.3236
21748SOL    HW167251   5.655   4.371  10.119  0.8412  0.3929 -1.4848
21748SOL    HW267252   5.591   4.504  10.086 -0.4057  0.4503  0.8920
21749SOL     OW67253   9.448   8.154   8.120 -0.2573  0.3963 -0.2890
21749SOL    HW167254   9.397   8.106   8.055  0.6661 -0.9068 -0.1026
21749SOL    HW267255   9.402   8.237   8.131 -1.4621 -0.1189 -1.2300
21750SOL     OW67256   8.117   3.950   7.141  0.6965  0.1521 -0.1573
21750SOL    HW167257   8.205   3.967   7.176  1.3400  1.6278 -2.2551
21750SOL    HW267258   8.074   4.035   7.143 -0.3831 -0.3851  0.0352
21751SOL     OW67259   7.594  10.114   6.656 -0.5561  0.2398  0.1641
21751SOL    HW167260   7.623  10.045   6.597 -0.7834  0.0158  0.3145
21751SOL    HW267261   7.548  10.069   6.726 -2.6592  0.6619 -0.8472
21752SOL     OW67262   2.051   0.398   7.049 -0.0847 -0.0806 -0.1770
21752SOL    HW167263   2.078   0.431   6.963 -0.9516  2.2735  0.3827
21752SOL    HW267264   1.983   0.459   7.078 -1.2850 -2.0112  1.3198
21753SOL     OW67265   3.866   7.071   6.261 -0.3999 -0.2383 -0.2294
21753SOL    HW167266   3.811   7.149   6.261  0.1659  0.2615  2.4715
21753SOL    HW267267   3.955   7.105   6.257 -0.1394 -0.6811  1.1996
21754SOL     OW67268   0.664   3.064   7.422  0.4666  0.0909 -0.2227
21754SOL    HW167269   0.723   3.036   7.352  1.1283  1.9131 -0.4612
21754SOL    HW267270   0.667   3.160   7.418  0.2532  0.2428  2.0897
21755SOL     OW67271   0.521  10.541   9.033  0.2758 -0.7786 -0.0557
21755SOL    HW167272   0.557  10.604   9.095 -2.3269 -0.1815  1.0007
21755SOL    HW267273   0.468  10.482   9.087 -1.4055 -0.7567 -1.5988
21756SOL     OW67274   9.349   4.388   6.201  0.0401 -0.0759 -1.0059
21756SOL    HW167275   9.346   4.385   6.296 -0.2402  0.6468 -0.9880
21756SOL    HW267276   9.439   4.364   6.179  0.0363 -0.4955 -0.5766
21757SOL     OW67277   7.305   3.584   3.609  0.2152  0.4494  0.4427
21757SOL    HW167278   7.267   3.640   3.677 -3.1622 -0.5641 -0.4336
21757SOL    HW267279   7.278   3.496   3.632 -1.0847  0.0836 -2.1809
21758SOL     OW67280   7.570  10.288   1.942  0.2866  0.1856 -0.3165
21758SOL    HW167281   7.519  10.233   2.001  0.4446  1.0581  0.6681
21758SOL    HW267282   7.569  10.374   1.984  0.6837  0.7501 -1.4306
21759SOL     OW67283   7.085   2.902   5.039 -0.2421 -0.1594 -0.2957
21759SOL    HW167284   7.087   2.898   5.135  0.5992  0.6206 -0.2585
21759SOL    HW267285   6.995   2.928   5.018 -0.6945 -1.2593  0.2292
21760SOL     OW67286  10.349   2.174  10.381  0.6438 -0.0425  0.0336
21760SOL    HW167287  10.309   2.216  10.304 -1.5449 -2.1839 -0.1206
21760SOL    HW267288  10.395   2.098  10.345  1.3304  0.0626  0.6695
21761SOL     OW67289   8.229   5.751   6.358  0.1712  0.4647 -0.2518
21761SOL    HW167290   8.164   5.685   6.334 -1.8988  2.5498 -0.7750
21761SOL    HW267291   8.233   5.808   6.282  0.9600  1.6321  0.6441
21762SOL     OW67292   2.271  10.604  11.080  0.3690  0.1285 -0.5122
21762SOL    HW167293   2.308  10.608  10.992 -1.1338 -2.8998 -1.4123
21762SOL    HW267294   2.206  10.674  11.081  0.9329  0.7012 -1.4988
21763SOL     OW67295   4.432   2.808   1.799  0.3699  0.9664  0.2356
21763SOL    HW167296   4.359   2.748   1.781  0.0617  0.5577  2.5023
21763SOL    HW267297   4.403   2.893   1.766  0.1652  0.2151 -1.6169
21764SOL     OW67298   7.205   1.737   2.332  0.4458 -0.5122  0.1255
21764SOL    HW167299   7.245   1.675   2.392  0.7659 -0.2328  0.2054
21764SOL    HW267300   7.265   1.812   2.331  0.0563 -0.1970  0.0473
21765SOL     OW67301   3.204  11.087   5.817 -0.1255  0.7342 -0.4032
21765SOL    HW167302   3.125  11.034   5.809 -0.7251  1.9025 -4.3219
21765SOL    HW267303   3.174  11.169   5.858 -0.3357  0.1908  0.5575
21766SOL     OW67304   8.583   3.998   8.981 -0.2095  0.4392  0.0069
21766SOL    HW167305   8.592   4.089   9.009  0.3141  0.3652  0.0884
21766SOL    HW267306   8.549   4.003   8.892 -3.3598  0.6640  1.0924
21767SOL     OW67307   6.827   6.874   0.421  0.0560  0.0563  0.1181
21767SOL    HW167308   6.882   6.950   0.403  1.4420 -0.8588  0.2882
21767SOL    HW267309   6.739   6.909   0.432  0.6312  1.5974 -0.0072
21768SOL     OW67310   8.917   5.230   2.016  0.5173 -0.6661 -0.7335
21768SOL    HW167311   8.853   5.165   1.988  0.1679 -0.1341 -1.1986
21768SOL    HW267312   8.896   5.308   1.964  0.8791 -0.1604 -0.1297
21769SOL     OW67313   7.061   5.521   7.186  0.2713  0.4563 -0.2989
21769SOL    HW167314   7.143   5.484   7.154 -0.9308 -2.1259 -0.6608
21769SOL    HW267315   7.008   5.533   7.107 -1.0774 -1.6838  0.1906
21770SOL     OW67316   7.574   7.724   9.017  0.6148  0.1691  0.1251
21770SOL    HW167317   7.479   7.725   9.032  0.6611  1.2482  0.4163
21770SOL    HW267318   7.592   7.809   8.977  1.0313 -1.1611 -2.7926
21771SOL     OW67319   9.026   3.552   7.933  0.5603  0.1349  0.0972
21771SOL    HW167320   8.972   3.498   7.992  0.7291 -1.4443 -1.1314
21771SOL    HW267321   9.077   3.608   7.992  0.2088 -0.8915  1.4219
21772SOL     OW67322   0.579   6.386  11.037 -0.1577  0.3749  0.7866
21772SOL    HW167323   0.486   6.400  11.016 -0.1454  2.6360  1.9165
21772SOL    HW267324   0.596   6.447  11.109  2.3079  0.2552  0.3700
21773SOL     OW67325   6.212  10.367   7.935 -0.8188  1.0038 -0.1306
21773SOL    HW167326   6.118  10.383   7.935 -1.1768 -0.8254 -1.0068
21773SOL    HW267327   6.222  10.281   7.977  0.5663  1.5937  0.8302
21774SOL     OW67328   0.715   5.422   9.684 -0.5790 -1.1245 -0.6300
21774SOL    HW167329   0.751   5.375   9.610  0.8121  0.9914 -1.3817
21774SOL    HW267330   0.779   5.490   9.704 -2.1397  0.0350  0.8117
21775SOL     OW67331   5.907  10.932   0.359  0.5505 -0.8014  0.2909
21775SOL    HW167332   5.836  10.868   0.352 -1.2080  1.0202  0.6235
21775SOL    HW267333   5.920  10.943   0.453  0.8624 -0.7017  0.2352
21776SOL     OW67334   0.345   2.536   7.107  0.2999  0.4977  0.6109
21776SOL    HW167335   0.399   2.488   7.170  0.8526 -1.1080 -1.0135
21776SOL    HW267336   0.369   2.628   7.120  1.7243  0.0337  1.5099
21777SOL     OW67337  10.498   2.056   4.048 -0.0210 -0.4846 -0.2394
21777SOL    HW167338  10.588   2.071   4.077 -0.4062  0.0220  0.7649
21777SOL    HW267339  10.505   2.042   3.954  0.9652  0.9486 -0.4229
21778SOL     OW67340   8.553   1.867   0.242 -0.0386  0.1702  0.5352
21778SOL    HW167341   8.473   1.906   0.277  1.2270  1.4172  2.2257
21778SOL    HW267342   8.568   1.913   0.159 -1.4806 -0.6809 -0.2373
21779SOL     OW67343   8.211   7.274   5.328 -0.5608  0.6013 -0.0937
21779SOL    HW167344   8.116   7.285   5.317 -0.4895  0.7593 -0.5793
21779SOL    HW267345   8.224   7.180   5.327 -0.7324  0.5739  0.1459
21780SOL     OW67346   2.125   4.443   3.186  0.6424 -0.6659 -0.0758
21780SOL    HW167347   2.029   4.447   3.187  0.5706 -1.3949 -1.4538
21780SOL    HW267348   2.145   4.353   3.210  0.9564 -0.6737 -0.3680
21781SOL     OW67349   6.403   1.644   6.770  0.0100 -0.3481 -0.1948
21781SOL    HW167350   6.408   1.552   6.742 -3.5114 -1.7390  2.8566
21781SOL    HW267351   6.416   1.640   6.865 -0.2292  2.3627  0.0202
21782SOL     OW67352   7.115   5.602  10.684 -0.3547  0.2073  0.6382
21782SOL    HW167353   7.149   5.547  10.613 -0.5649  1.0632 -0.1512
21782SOL    HW267354   7.180   5.594  10.754 -0.3820 -1.0294  0.5450
21783SOL     OW67355   7.614   6.558   0.469 -0.2136 -0.2782 -0.1323
21783SOL    HW167356   7.646   6.475   0.504 -1.3114 -0.2648  0.9778
21783SOL    HW267357   7.593   6.611   0.546 -0.0588  0.8259 -0.8233
21784SOL     OW67358   3.768  10.699   7.557 -0.5210  0.0006  0.8304
21784SOL    HW167359   3.746  10.721   7.648  0.5681 -2.3146  1.7165
21784SOL    HW267360   3.863  10.696   7.555 -0.5376 -0.2989 -0.3153
21785SOL     OW67361   9.230   3.704   0.459  0.2050  0.0752  0.5774
21785SOL    HW167362   9.198   3.695   0.369 -0.4806 -1.0580  0.9035
21785SOL    HW267363   9.157   3.744   0.506  1.8053  4.0928 -0.0115
21786SOL     OW67364  10.509   3.146   4.136 -0.5140 -0.2916 -0.2134
21786SOL    HW167365  10.589   3.188   4.168 -0.8909 -1.5751  2.8068
21786SOL    HW267366  10.438   3.201   4.170 -0.9788 -0.0725 -1.4703
21787SOL     OW67367   6.408   2.293  10.096 -0.6004  0.4070 -0.4385
21787SOL    HW167368   6.414   2.371  10.151  1.3495  1.9076 -2.6057
21787SOL    HW267369   6.476   2.235  10.128 -0.7938  0.4055 -0.0282
21788SOL     OW67370   7.432   7.315   1.233 -0.3430 -0.3073  0.5049
21788SOL    HW167371   7.403   7.250   1.170 -2.2694 -0.1689  1.1843
21788SOL    HW267372   7.524   7.331   1.211 -1.1081  0.3236 -2.7580
21789SOL     OW67373   3.962   9.856   4.547  0.0826  0.0494  0.3315
21789SOL    HW167374   4.026   9.786   4.563 -1.9805 -1.6269  1.9178
21789SOL    HW267375   4.010   9.937   4.564  1.7944 -1.1134  1.4192
21790SOL     OW67376   2.551   4.813   8.903 -0.7577  0.8183  0.3856
21790SOL    HW167377   2.617   4.753   8.937 -1.7730  0.1920  1.3305
21790SOL    HW267378   2.599   4.869   8.842  0.6995  0.5843  1.2622
21791SOL     OW67379   4.562  10.327   0.670  0.9188 -0.5524  0.0710
21791SOL    HW167380   4.626  10.267   0.708  1.8307  0.6839  0.5896
21791SOL    HW267381   4.580  10.411   0.714 -2.4867 -0.5806  1.8811
21792SOL     OW67382   7.455   7.395   8.771  0.6867 -0.9325  0.4550
21792SOL    HW167383   7.396   7.468   8.791  1.9253  0.1439  0.2615
21792SOL    HW267384   7.471   7.402   8.677 -0.1712 -2.2492  0.1652
21793SOL     OW67385   3.160   1.674   3.693 -0.1750  0.1598 -0.6151
21793SOL    HW167386   3.082   1.652   3.641  0.1586 -2.2757 -0.2001
21793SOL    HW267387   3.175   1.597   3.747  1.6938  1.1691  0.3916
21794SOL     OW67388   6.412   9.697   6.870  0.1849 -0.6926 -0.8249
21794SOL    HW167389   6.492   9.729   6.828 -0.2455 -0.5463 -1.5549
21794SOL    HW267390   6.439   9.618   6.916  0.7648 -0.6090 -1.0087
21795SOL     OW67391   1.724   7.093   0.413 -0.7759 -0.0540  0.1701
21795SOL    HW167392   1.667   7.159   0.454 -1.8858 -1.4938  1.0604
21795SOL    HW267393   1.728   7.119   0.321 -0.3521  1.8068  0.6719
21796SOL     OW67394   8.030   0.771   0.070 -0.0146  0.1773  0.9562
21796SOL    HW167395   7.962   0.810   0.127 -0.3718  0.1299  0.5646
21796SOL    HW267396   8.076   0.847   0.034 -0.8104  0.2606  0.0717
21797SOL     OW67397   2.823   0.351  10.458 -0.4047 -0.3226 -0.0720
21797SOL    HW167398   2.785   0.270  10.492 -2.5594  1.8060  3.2696
21797SOL    HW267399   2.908   0.357  10.500 -1.2975  0.2466  1.7621
21798SOL     OW67400   5.497   9.051   5.396 -0.0691  0.2013 -0.2611
21798SOL    HW167401   5.410   9.086   5.412 -0.8215 -1.4452 -0.5432
21798SOL    HW267402   5.556   9.113   5.438 -1.3938  1.1014  0.3416
21799SOL     OW67403   7.223   2.780   7.072  0.2824  0.7347  0.0913
21799SOL    HW167404   7.214   2.874   7.057  1.2230  0.9614  0.8646
21799SOL    HW267405   7.151   2.741   7.023 -0.9738  1.9480  0.9178
21800SOL     OW67406   6.045   8.472   0.875  0.1826  0.2320  0.4681
21800SOL    HW167407   6.080   8.559   0.895 -0.9289  1.0171 -0.7886
21800SOL    HW267408   5.952   8.478   0.898 -0.5410  0.3446 -2.1541
21801SOL     OW67409   5.502   3.347   1.152  0.0420  0.2540  0.4791
21801SOL    HW167410   5.558   3.354   1.229 -1.1435  0.4073  1.3561
21801SOL    HW267411   5.500   3.254   1.132 -0.7521  0.0334  1.5030
21802SOL     OW67412   2.324   4.665   4.183 -0.0259  0.1502  0.6715
21802SOL    HW167413   2.282   4.579   4.177  1.5679 -0.7166  1.1891
21802SOL    HW267414   2.414   4.645   4.210  0.2946  2.0118  1.0978
21803SOL     OW67415   8.190   6.032   3.766 -0.1728  0.2770 -0.0199
21803SOL    HW167416   8.181   6.115   3.813 -0.8658  0.1780  0.0303
21803SOL    HW267417   8.282   6.029   3.741  0.2102  0.3616  1.2858
21804SOL     OW67418   6.502   2.214   7.675  0.6451 -0.0038 -0.2139
21804SOL    HW167419   6.577   2.163   7.704  0.9945  1.2578  1.2563
21804SOL    HW267420   6.498   2.288   7.736 -0.6019  1.0315 -1.4701
21805SOL     OW67421   7.344   6.471   7.644  0.5357  0.6827  0.3654
21805SOL    HW167422   7.280   6.528   7.686 -0.4192 -0.1394  0.0831
21805SOL    HW267423   7.427   6.493   7.685 -0.2265  0.4947  2.1071
21806SOL     OW67424   8.055  10.898  10.591 -0.5832 -0.7279  0.2490
21806SOL    HW167425   8.123  10.831  10.601 -2.1718 -2.2907  1.2959
21806SOL    HW267426   8.103  10.978  10.572  1.5271 -1.8148  0.6275
21807SOL     OW67427   5.430   9.832   1.799 -0.3948  0.1116  0.4294
21807SOL    HW167428   5.410   9.911   1.849  0.5764 -0.7570  2.2948
21807SOL    HW267429   5.348   9.784   1.796 -0.4283  0.0872  1.4002
21808SOL     OW67430   1.284   1.931   4.923 -0.1212  0.0424 -0.0722
21808SOL    HW167431   1.288   1.855   4.981 -1.6450 -3.2773 -3.8749
21808SOL    HW267432   1.374   1.963   4.918  0.4347 -0.9851  2.1665
21809SOL     OW67433   6.183   5.344  10.197 -0.1541  0.2550  0.4293
21809SOL    HW167434   6.135   5.348  10.280  0.7705  1.7190  0.9145
21809SOL    HW267435   6.269   5.381  10.216 -0.4040  2.0250 -1.4954
21810SOL     OW67436   4.050   7.239   1.075  0.3742 -0.9482 -0.0026
21810SOL    HW167437   3.988   7.297   1.032  0.3731  0.4378  1.7386
21810SOL    HW267438   4.120   7.226   1.011  0.5566  1.2966 -0.3409
21811SOL     OW67439   5.759   1.836   8.276 -0.1995 -0.0749 -0.9364
21811SOL    HW167440   5.675   1.882   8.279 -1.2789 -1.9598  1.3935
21811SOL    HW267441   5.737   1.747   8.251  1.6241  0.1038 -3.6253
21812SOL     OW67442   3.611   7.483   8.878 -0.3242 -0.1803 -0.0796
21812SOL    HW167443   3.550   7.419   8.843 -0.4491  0.2227 -0.6055
21812SOL    HW267444   3.697   7.453   8.850 -0.2410 -0.9172  0.9206
21813SOL     OW67445  10.682   5.340   1.522  0.4559 -0.1742 -0.0878
21813SOL    HW167446  10.592   5.358   1.493  0.4575  2.4434  1.2628
21813SOL    HW267447  10.720   5.427   1.535  2.3958 -1.2303  1.7351
21814SOL     OW67448   9.753  10.226   2.810  0.1340  0.1333  0.6276
21814SOL    HW167449   9.735  10.183   2.893  1.0262  0.9558  1.2829
21814SOL    HW267450   9.674  10.276   2.791 -0.5381 -1.0123  0.3454
21815SOL     OW67451   9.142   9.095  11.028 -0.2769 -0.2621  0.0909
21815SOL    HW167452   9.172   9.177  11.069 -0.1626 -0.3522  0.1882
21815SOL    HW267453   9.050   9.111  11.008 -1.0532 -1.0724  2.6564
21816SOL     OW67454   4.066   3.812   5.805  0.4040  0.7294  0.5188
21816SOL    HW167455   4.076   3.738   5.745 -0.9040  0.2222  0.8925
21816SOL    HW267456   4.005   3.871   5.761  0.0732  0.7445  0.9901
21817SOL     OW67457   5.337   8.532  11.037  0.1174  0.2618 -0.1199
21817SOL    HW167458   5.334   8.437  11.023  0.7987 -0.2776  2.7033
21817SOL    HW267459   5.431   8.551  11.047 -0.0832  1.0728  0.2657
21818SOL     OW67460   2.750   6.424   2.196 -0.8570  0.0011 -0.1183
21818SOL    HW167461   2.733   6.417   2.290  0.5839  0.1342  0.1672
21818SOL    HW267462   2.749   6.333   2.164  0.5735 -0.2138  0.3961
21819SOL     OW67463   0.190   8.319   7.947 -0.4612 -0.3912  0.0805
21819SOL    HW167464   0.223   8.302   7.859  0.0285 -0.3011  0.2436
21819SOL    HW267465   0.134   8.244   7.966  0.5427 -1.1180  0.2355
21820SOL     OW67466   8.898   4.122   9.841 -0.2223  0.2254  0.0352
21820SOL    HW167467   8.959   4.115   9.914  0.0954 -3.4754 -0.3906
21820SOL    HW267468   8.824   4.173   9.876  1.7252  2.2286  1.4797
21821SOL     OW67469   7.051   6.063   5.331  0.1345  0.0461 -0.1782
21821SOL    HW167470   7.042   6.151   5.294  0.0277 -0.6560 -1.9151
21821SOL    HW267471   7.144   6.042   5.319  0.4325  0.3675  1.3597
21822SOL     OW67472  10.439  10.182   1.418  0.3704  0.0924 -0.0222
21822SOL    HW167473  10.368  10.232   1.378  0.5765  0.3469 -0.0669
21822SOL    HW267474  10.494  10.247   1.460 -0.3069 -0.2347  1.4469
21823SOL     OW67475   8.883   2.229   7.078  0.0102 -0.0710 -0.1225
21823SOL    HW167476   8.939   2.181   7.139 -0.6509 -2.4322 -1.2373
21823SOL    HW267477   8.943   2.263   7.012  0.3621 -0.7721 -0.1740
21824SOL     OW67478  10.223   3.928   2.651 -0.0596  0.1717 -0.7179
21824SOL    HW167479  10.299   3.961   2.602 -0.2115 -1.5125 -2.2060
21824SOL    HW267480  10.162   3.900   2.583 -2.1276  1.6462  0.4485
21825SOL     OW67481   8.985   2.878   9.452  0.4819 -1.1800 -0.2622
21825SOL    HW167482   9.062   2.902   9.504  1.1566 -1.0384 -1.2931
21825SOL    HW267483   8.928   2.955   9.456  0.9380 -0.8236 -0.4552
21826SOL     OW67484   5.996  10.922   2.343 -0.3462 -0.5731 -0.4165
21826SOL    HW167485   5.958  11.007   2.360  0.6818 -0.7059  3.3118
21826SOL    HW267486   5.921  10.862   2.337 -0.9522  0.1156  0.2118
21827SOL     OW67487   8.979   0.328   8.237  0.6834 -0.0334  0.1476
21827SOL    HW167488   8.936   0.412   8.250  0.6093 -0.3169  2.0518
21827SOL    HW267489   8.921   0.279   8.179  0.3927  0.9636 -0.4198
21828SOL     OW67490   0.298  10.713   6.855 -0.1211  0.7173  0.0003
21828SOL    HW167491   0.325  10.800   6.824  2.1297  0.1174  0.0534
21828SOL    HW267492   0.335  10.707   6.943 -1.0709  0.0416  0.3653
21829SOL     OW67493  11.079   3.306   9.885 -0.2869  0.8478  0.2483
21829SOL    HW167494  10.989   3.341   9.884 -0.8551 -0.5497 -0.6079
21829SOL    HW267495  11.117   3.334   9.802  0.2312  1.7986  0.7951
21830SOL     OW67496   2.791   4.178   6.601  0.9949 -0.1896 -0.1389
21830SOL    HW167497   2.732   4.103   6.593  2.2400 -1.1064 -1.3948
21830SOL    HW267498   2.801   4.192   6.695  1.1904 -1.9953  0.1419
21831SOL     OW67499   8.983   8.060   7.864 -0.4483  0.5338  0.2469
21831SOL    HW167500   8.993   7.967   7.883 -1.2354  0.6955  1.5491
21831SOL    HW267501   8.900   8.066   7.816  0.6236  0.3519 -1.7514
21832SOL     OW67502   9.424   5.321   1.349 -0.1314 -0.0852  0.6236
21832SOL    HW167503   9.366   5.273   1.407  0.6673  1.5937  2.9706
21832SOL    HW267504   9.511   5.311   1.388  0.9605 -1.0596 -1.8056
21833SOL     OW67505   2.169   7.020   6.739 -0.3230  0.1367  0.6553
21833SOL    HW167506   2.211   6.967   6.671  0.6699  0.2316  1.1792
21833SOL    HW267507   2.141   7.100   6.693  2.5073  1.3008  0.7758
21834SOL     OW67508   0.210   4.306   0.064  0.2389  0.2954 -0.7022
21834SOL    HW167509   0.209   4.239   0.133 -0.6394 -0.7803 -1.7134
21834SOL    HW267510   0.275   4.275   0.001  1.1523  1.3523 -0.3096
21835SOL     OW67511   6.758   0.747   2.229  0.5039  0.2209 -0.3230
21835SOL    HW167512   6.671   0.758   2.267 -0.0685 -0.2939 -1.4296
21835SOL    HW267513   6.747   0.678   2.163  2.2759 -1.7051  1.2230
21836SOL     OW67514  11.048   2.714   0.424  0.2435 -0.5574 -0.9078
21836SOL    HW167515  11.112   2.785   0.416 -0.2538 -0.0906 -0.7217
21836SOL    HW267516  11.002   2.713   0.340 -0.3234 -0.1097 -0.6045
21837SOL     OW67517   4.356   5.173   7.988  0.1000 -0.0575  0.3103
21837SOL    HW167518   4.327   5.262   8.008 -1.1015 -0.4256  0.3190
21837SOL    HW267519   4.451   5.178   7.984 -0.0022  1.4624 -0.8347
21838SOL     OW67520   1.634   3.877   5.678 -0.2674 -0.2836 -0.0621
21838SOL    HW167521   1.549   3.918   5.697 -0.4930 -1.6456  2.2428
21838SOL    HW267522   1.681   3.942   5.626 -3.0324  0.1465 -2.2546
21839SOL     OW67523   5.495   5.498   3.382  0.0265  0.2137  0.1021
21839SOL    HW167524   5.502   5.570   3.445 -0.9339 -0.2797  0.7976
21839SOL    HW267525   5.583   5.459   3.381 -0.2234 -0.5322  2.1073
21840SOL     OW67526  10.124   0.800   0.028 -0.0175  0.3392  1.0598
21840SOL    HW167527  10.135   0.866  -0.041 -3.9245 -1.1273 -1.2900
21840SOL    HW267528  10.069   0.843   0.094  0.9412  0.6713  1.6698
21841SOL     OW67529   1.508   9.618   6.472  0.1242 -0.0080  0.7383
21841SOL    HW167530   1.418   9.595   6.451  0.2680  0.1486 -0.0632
21841SOL    HW267531   1.501   9.699   6.523 -0.1736  0.1713  0.4140
21842SOL     OW67532   6.750   2.372   5.321  0.2407 -0.6858  0.5554
21842SOL    HW167533   6.772   2.308   5.254 -0.1172  0.1583 -0.4028
21842SOL    HW267534   6.715   2.447   5.272  0.6668  0.2489  1.6275
21843SOL     OW67535   0.010  10.040   0.889  0.3260 -0.1433  0.1075
21843SOL    HW167536   0.033   9.980   0.819  0.2492  0.0765 -0.1066
21843SOL    HW267537  -0.008   9.983   0.964  0.3162 -0.3838 -0.0752
21844SOL     OW67538   3.796   6.695   4.717 -0.4976 -0.3327 -0.9109
21844SOL    HW167539   3.707   6.727   4.705 -0.6284 -1.2252 -2.5313
21844SOL    HW267540   3.807   6.690   4.812 -2.3877 -0.7617 -0.6808
21845SOL     OW67541   0.492   6.754   3.163  0.4603 -0.4908  0.2445
21845SOL    HW167542   0.525   6.711   3.084 -1.9063 -2.0537  0.0179
21845SOL    HW267543   0.439   6.826   3.130 -0.3539 -1.0127  0.4057
21846SOL     OW67544   5.122   5.000   0.246 -0.1212 -0.1895  0.2079
21846SOL    HW167545   5.084   4.912   0.253  2.1473 -1.2992 -0.5316
21846SOL    HW267546   5.168   5.000   0.162  1.2732  1.1504  0.9210
21847SOL     OW67547   9.048   4.352   6.301  1.2107  0.0079  0.0436
21847SOL    HW167548   9.023   4.426   6.356 -1.6815 -0.6112 -0.2951
21847SOL    HW267549   9.085   4.392   6.222 -0.3713  1.1352 -0.1599
21848SOL     OW67550   4.566   0.288  10.645 -0.7394 -0.3048 -0.8249
21848SOL    HW167551   4.523   0.325  10.723 -0.2447  1.0922 -1.1827
21848SOL    HW267552   4.509   0.217  10.618 -1.3084 -0.3450  0.3885
21849SOL     OW67553   0.591   3.802   0.942  0.3538  0.2425 -0.2986
21849SOL    HW167554   0.585   3.831   1.033 -0.3980  2.1280 -0.8992
21849SOL    HW267555   0.629   3.876   0.895  0.7626 -0.7039 -1.5355
21850SOL     OW67556   4.091   0.294   4.528  0.3967 -0.1284 -0.0284
21850SOL    HW167557   4.152   0.315   4.599  0.9435 -1.5140 -0.0599
21850SOL    HW267558   4.020   0.245   4.570  0.2697 -0.1825 -0.2997
21851SOL     OW67559   4.465   5.365   8.384  0.1124  0.4230 -0.3394
21851SOL    HW167560   4.464   5.278   8.346 -1.6749 -0.1218  0.8146
21851SOL    HW267561   4.548   5.370   8.431  1.5469  0.4764 -2.7745
21852SOL     OW67562   8.098  10.465   9.327  0.5118 -0.6050  0.3157
21852SOL    HW167563   8.131  10.468   9.238 -1.6742 -1.2017 -0.5941
21852SOL    HW267564   8.050  10.547   9.338  1.4555 -0.1658  1.2496
21853SOL     OW67565   7.957   6.780   6.142 -0.3221 -0.5384 -0.5792
21853SOL    HW167566   8.039   6.828   6.153  0.3096 -1.8614  0.9029
21853SOL    HW267567   7.956   6.718   6.215 -2.2627 -1.1056 -1.0392
21854SOL     OW67568   1.447   3.898   2.501 -0.1933  0.2422 -0.5183
21854SOL    HW167569   1.490   3.922   2.583 -1.2451  2.8603 -0.6588
21854SOL    HW267570   1.507   3.835   2.460  2.0216  1.4703  0.6680
21855SOL     OW67571   1.405   7.337   2.608  0.1877  0.5294 -0.4342
21855SOL    HW167572   1.377   7.308   2.521 -3.7944  1.3341  0.4004
21855SOL    HW267573   1.429   7.256   2.653 -3.2997 -0.7774 -0.5957
21856SOL     OW67574   5.068   5.183   5.934  0.5601 -0.3353  0.4967
21856SOL    HW167575   5.115   5.169   5.852  0.7870  2.7452 -0.0134
21856SOL    HW267576   5.133   5.166   6.002  2.1788  2.5175 -0.1700
21857SOL     OW67577   7.687   4.282   7.546 -0.4329 -0.6375  0.4223
21857SOL    HW167578   7.657   4.307   7.633  0.9135 -0.1977  0.7978
21857SOL    HW267579   7.780   4.262   7.558 -0.6156 -2.2393 -0.6057
21858SOL     OW67580   4.805   9.795   4.707 -0.3160  0.2747 -0.2420
21858SOL    HW167581   4.837   9.866   4.762 -1.1959  0.3224  0.2316
21858SOL    HW267582   4.881   9.767   4.656  0.1822  1.1436  0.0114
21859SOL     OW67583   9.573   7.143   9.643 -0.0525 -1.0709  0.7644
21859SOL    HW167584   9.574   7.171   9.551 -0.8073  0.1678  1.1052
21859SOL    HW267585   9.492   7.091   9.651 -0.5862 -0.2250  0.9764
21860SOL     OW67586   3.566   6.740   1.953  0.1976  0.2029  0.9485
21860SOL    HW167587   3.535   6.658   1.913  1.9790  0.4033 -1.0078
21860SOL    HW267588   3.514   6.749   2.033  0.5823 -3.3371  1.7545
21861SOL     OW67589   6.832   0.756   8.764 -0.3440  0.1372 -0.4246
21861SOL    HW167590   6.799   0.792   8.682  0.4808 -0.5226 -1.0720
21861SOL    HW267591   6.925   0.781   8.765 -0.3146  0.0097  0.2280
21862SOL     OW67592   2.335   7.036   3.769 -0.2658  0.2591 -0.0473
21862SOL    HW167593   2.380   6.955   3.747 -0.4588  0.1461 -0.0246
21862SOL    HW267594   2.381   7.104   3.719 -1.1546 -0.0860 -1.3739
21863SOL     OW67595   4.114   0.850   6.591  0.3561 -0.1405  0.0121
21863SOL    HW167596   4.118   0.855   6.496 -0.0733  1.1035  0.0400
21863SOL    HW267597   4.205   0.853   6.620  0.4324  2.1420 -0.2882
21864SOL     OW67598   8.493   1.288   6.794  0.2560  0.0837 -0.3757
21864SOL    HW167599   8.498   1.287   6.890  0.6112  0.5795 -0.3880
21864SOL    HW267600   8.409   1.330   6.775  0.2782  0.1712 -0.2834
21865SOL     OW67601  10.117   1.126   9.220 -0.4040  0.9255  0.7639
21865SOL    HW167602  10.037   1.087   9.256 -0.3984 -0.1330 -0.3156
21865SOL    HW267603  10.124   1.211   9.265 -1.0145  0.1739  2.3676
21866SOL     OW67604   2.505   9.870   2.223  0.3636  0.5002  0.9188
21866SOL    HW167605   2.453   9.939   2.182 -0.8203 -0.4891  0.7104
21866SOL    HW267606   2.486   9.791   2.171  0.5900 -0.2929  2.0125
21867SOL     OW67607   7.293   5.285   9.824  0.3638 -0.4044 -0.2413
21867SOL    HW167608   7.237   5.227   9.875  0.5913  2.0601  3.1067
21867SOL    HW267609   7.284   5.253   9.734 -2.8054 -2.9059  0.7615
21868SOL     OW67610   8.825   0.705   0.890  0.0853  0.5242  0.1580
21868SOL    HW167611   8.783   0.727   0.807  2.0927 -2.0113 -1.7004
21868SOL    HW267612   8.894   0.770   0.900  1.6952 -0.7645 -1.7808
21869SOL     OW67613   3.889   7.996  10.176 -0.1788  0.4533  0.9032
21869SOL    HW167614   3.863   7.980  10.085  2.0307 -3.9785  0.7444
21869SOL    HW267615   3.971   8.044  10.169 -0.8434  1.5861  0.6870
21870SOL     OW67616   6.395   6.542   9.263  0.2932  0.2421  0.6702
21870SOL    HW167617   6.353   6.567   9.345 -2.1368  0.0521 -0.4104
21870SOL    HW267618   6.323   6.534   9.201  1.8304 -1.4718 -1.0392
21871SOL     OW67619   9.564   5.423   4.619  0.3530 -0.0797 -0.3219
21871SOL    HW167620   9.577   5.482   4.546 -1.0896  0.1086 -0.4550
21871SOL    HW267621   9.512   5.473   4.682 -0.9327 -1.1808 -0.4548
21872SOL     OW67622   7.233   2.267   3.360 -0.3179  0.5593  0.0858
21872SOL    HW167623   7.246   2.349   3.313  1.5058  0.2439 -0.0391
21872SOL    HW267624   7.213   2.203   3.291  2.5357  0.0586 -0.3963
21873SOL     OW67625   8.738   8.713   0.802  0.0652 -0.6664 -0.2839
21873SOL    HW167626   8.736   8.686   0.894  1.5880  1.5951  0.5082
21873SOL    HW267627   8.647   8.712   0.774 -0.6287  0.0791  1.7512
21874SOL     OW67628   5.272   3.980   0.609 -1.1756 -0.3774  0.4151
21874SOL    HW167629   5.265   4.067   0.570  0.8350 -0.1965  0.3446
21874SOL    HW267630   5.240   3.991   0.699  0.6021  0.8967  0.9549
21875SOL     OW67631   1.507   0.287   7.445  0.1917  0.1223  0.0673
21875SOL    HW167632   1.588   0.327   7.415  0.4473  1.5284  2.3765
21875SOL    HW267633   1.535   0.215   7.502 -0.2015 -0.0325  0.0725
21876SOL     OW67634   9.493   4.286   3.645  0.2160 -0.6087 -0.8448
21876SOL    HW167635   9.585   4.306   3.665 -0.0351  0.6416 -0.8459
21876SOL    HW267636   9.477   4.202   3.687  1.2120 -0.5836 -0.3859
21877SOL     OW67637   2.931   9.242   9.160  0.3161  0.1338 -0.3033
21877SOL    HW167638   2.857   9.185   9.182 -2.3052  2.5307 -2.1923
21877SOL    HW267639   2.910   9.326   9.201  2.2983  0.7555 -0.4552
21878SOL     OW67640   5.714  10.017  10.723 -0.5660  0.5654  0.3642
21878SOL    HW167641   5.696   9.983  10.635  0.2807 -3.1545  1.4406
21878SOL    HW267642   5.761  10.099  10.708  1.5398 -1.0090 -2.7668
21879SOL     OW67643   2.870   4.757   0.321  0.2551  0.3290 -0.1211
21879SOL    HW167644   2.882   4.663   0.336  1.0086  0.4234 -0.1254
21879SOL    HW267645   2.852   4.765   0.227  3.1221  0.4431 -0.7388
21880SOL     OW67646   8.167   4.141   1.288  0.3057 -0.2920  0.0173
21880SOL    HW167647   8.210   4.059   1.313  1.1754  0.2471  0.3319
21880SOL    HW267648   8.081   4.137   1.331  1.7727  0.6513  3.4035
21881SOL     OW67649   1.472   0.322  10.063  0.3943 -0.0080  0.3452
21881SOL    HW167650   1.447   0.374  10.139 -0.1513 -1.2562  1.0508
21881SOL    HW267651   1.433   0.369   9.989  1.2435  1.4167  0.7663
21882SOL     OW67652   2.218   7.807   4.353  0.2382 -0.1561  0.2827
21882SOL    HW167653   2.238   7.900   4.342 -0.8338  0.4063  2.4647
21882SOL    HW267654   2.303   7.763   4.346  0.6870  0.8901 -1.3623
21883SOL     OW67655   0.391   4.861   0.590 -0.3104  0.3012 -0.1639
21883SOL    HW167656   0.425   4.841   0.502 -1.2652  0.4516 -0.5783
21883SOL    HW267657   0.302   4.827   0.589  0.5001 -2.0746  1.6471
21884SOL     OW67658   3.564   6.713   8.313  0.6047  0.5365 -0.0266
21884SOL    HW167659   3.603   6.668   8.238 -1.5470  0.1615 -1.0292
21884SOL    HW267660   3.547   6.644   8.376  1.2761  0.6466  0.2714
21885SOL     OW67661   5.219   1.799  10.893 -0.6539 -0.8314 -0.7087
21885SOL    HW167662   5.154   1.749  10.844 -1.3556 -1.3667  0.6989
21885SOL    HW267663   5.185   1.889  10.894 -0.7147 -0.8506 -1.0631
21886SOL     OW67664   4.453   5.619   8.191 -0.1644  0.2528 -0.1512
21886SOL    HW167665   4.448   5.540   8.244  1.9075 -0.7979 -1.3870
21886SOL    HW267666   4.370   5.621   8.143 -1.0049 -0.1243  1.2279
21887SOL     OW67667   8.130   3.267   5.661 -0.1105  0.1703  0.2568
21887SOL    HW167668   8.040   3.296   5.678 -0.6245 -0.4693 -1.2349
21887SOL    HW267669   8.184   3.324   5.717 -1.4760 -0.1379  1.9827
21888SOL     OW67670   1.272   0.383   4.072  0.6027  0.2466  0.1914
21888SOL    HW167671   1.335   0.430   4.017 -0.2840  1.5973  0.2807
21888SOL    HW267672   1.263   0.437   4.151  0.4426 -0.6981  0.8444
21889SOL     OW67673   7.486   9.180   4.220  0.4924 -0.0563  0.1818
21889SOL    HW167674   7.424   9.126   4.268 -0.1912 -0.2705 -0.9071
21889SOL    HW267675   7.447   9.190   4.133  1.8362  0.0606 -0.4326
21890SOL     OW67676   3.633   5.196   2.560 -0.2181 -0.1731 -0.0231
21890SOL    HW167677   3.569   5.244   2.507 -1.0886 -0.8235  0.4123
21890SOL    HW267678   3.653   5.118   2.508  0.5175  0.2120 -0.3282
21891SOL     OW67679   5.722   7.503  10.423  0.3048 -0.2281  0.5328
21891SOL    HW167680   5.706   7.464  10.509  0.0070  0.9887  1.0466
21891SOL    HW267681   5.754   7.430  10.370  0.8998 -0.9216  1.7840
21892SOL     OW67682   0.705   8.545   1.636 -0.1909  0.2205 -0.2935
21892SOL    HW167683   0.776   8.489   1.667 -0.6826  0.4784  1.3940
21892SOL    HW267684   0.694   8.520   1.545  0.7365 -1.2326 -0.0525
21893SOL     OW67685   0.991  10.077   3.111  0.2968  0.1304 -0.0431
21893SOL    HW167686   0.987  10.057   3.205  0.7786  0.8016  0.1349
21893SOL    HW267687   1.030  10.165   3.108 -0.0741  0.2716 -0.8562
21894SOL     OW67688   8.550   8.190  10.372  0.3149  0.2547 -0.1595
21894SOL    HW167689   8.457   8.172  10.360  0.2060  0.5617  0.1886
21894SOL    HW267690   8.575   8.238  10.293 -0.6272  3.1113  1.1358
21895SOL     OW67691   5.713   0.818   2.182  0.3480  0.3098 -0.4876
21895SOL    HW167692   5.621   0.834   2.160  0.2397  1.0722  0.4737
21895SOL    HW267693   5.747   0.769   2.107 -0.0549  2.5691 -2.2621
21896SOL     OW67694   4.617   2.614   6.790 -0.3686  0.3525  0.0607
21896SOL    HW167695   4.602   2.708   6.774 -0.6370  0.1964 -0.6578
21896SOL    HW267696   4.532   2.582   6.820 -1.1710 -0.2451 -2.6138
21897SOL     OW67697   2.627   6.496   6.845  0.0419 -0.5610 -0.1804
21897SOL    HW167698   2.650   6.512   6.937 -0.9468 -1.2889  0.2157
21897SOL    HW267699   2.610   6.583   6.809 -1.6679 -0.3855  0.9261
21898SOL     OW67700   6.180   0.389   5.205 -0.2333  0.3154 -0.1024
21898SOL    HW167701   6.271   0.397   5.235 -0.1626  1.9456 -0.6505
21898SOL    HW267702   6.187   0.358   5.115 -0.1874  0.7408 -0.2502
21899SOL     OW67703   2.559  10.997   1.019  0.2914  0.7245  0.1886
21899SOL    HW167704   2.507  10.920   1.043  0.5535  0.6029  0.3735
21899SOL    HW267705   2.511  11.037   0.946  1.9916 -1.7150 -2.5094
21900SOL     OW67706   7.632   7.615   9.615 -0.7649 -0.1777  0.2017
21900SOL    HW167707   7.614   7.658   9.699  0.6128 -1.1517  1.0389
21900SOL    HW267708   7.679   7.681   9.564 -2.0030  0.5777 -0.0108
21901SOL     OW67709   2.985   4.821   4.156 -0.5131  0.6268 -0.3591
21901SOL    HW167710   2.914   4.872   4.195 -0.6735 -0.2789  0.5590
21901SOL    HW267711   2.965   4.730   4.178  1.4773  0.4243  0.8605
21902SOL     OW67712   2.490   4.491   2.957 -0.7244  0.2218 -0.0234
21902SOL    HW167713   2.395   4.486   2.969 -1.1088 -0.6159 -2.6147
21902SOL    HW267714   2.501   4.541   2.876  1.0000 -0.2721 -0.1368
21903SOL     OW67715   3.776   3.310   2.010 -0.4207  0.1333  0.1846
21903SOL    HW167716   3.696   3.293   1.961 -0.2643  1.8817 -0.7734
21903SOL    HW267717   3.844   3.315   1.943  0.7725 -2.5244  1.0784
21904SOL     OW67718  10.893   8.060   2.426 -0.1406  0.1361 -0.1355
21904SOL    HW167719  10.976   8.108   2.431 -0.3765  0.4619  0.8978
21904SOL    HW267720  10.888   8.030   2.335  1.5254 -0.6244 -0.0071
21905SOL     OW67721   4.552   2.659   8.290 -0.2486 -0.4685 -0.4744
21905SOL    HW167722   4.547   2.634   8.198  1.1489 -0.1259 -0.6655
21905SOL    HW267723   4.528   2.580   8.338 -2.0922 -0.3440 -1.1188
21906SOL     OW67724   5.243   5.558   3.983 -0.0226  0.4559  1.1480
21906SOL    HW167725   5.336   5.577   3.969 -0.0193  1.2503  2.0928
21906SOL    HW267726   5.201   5.644   3.978 -0.8561  0.0081 -0.1803
21907SOL     OW67727   2.685   3.456  10.230 -0.3719  0.4224  0.9232
21907SOL    HW167728   2.767   3.506  10.223 -0.8810  1.0304 -1.9865
21907SOL    HW267729   2.699   3.378  10.177 -2.1909  1.4063 -1.1728
21908SOL     OW67730   6.687  10.708   9.871  0.1034 -0.0849  0.4992
21908SOL    HW167731   6.777  10.675   9.874 -0.4844 -1.6986  1.4149
21908SOL    HW267732   6.654  10.696   9.960 -0.9313  0.8219  0.2596
21909SOL     OW67733  10.776  11.013   0.710  0.5868  0.0313 -0.7875
21909SOL    HW167734  10.698  11.066   0.692  0.6839  0.3571 -0.2595
21909SOL    HW267735  10.816  11.000   0.624  1.3358  2.0276 -0.7996
21910SOL     OW67736  11.054   2.153   6.499  0.4683 -0.2957  0.1273
21910SOL    HW167737  10.976   2.124   6.452  1.2486 -0.4643 -1.1019
21910SOL    HW267738  11.107   2.074   6.509  1.4573  0.1967 -0.9960
21911SOL     OW67739   9.162   5.909   5.816  0.0069  0.0558 -0.5468
21911SOL    HW167740   9.104   5.854   5.869  0.1511 -1.3326 -1.7432
21911SOL    HW267741   9.250   5.884   5.843  0.1456 -1.9581 -2.5279
21912SOL     OW67742   6.811   9.300   5.532  0.3293 -0.1215 -0.4638
21912SOL    HW167743   6.876   9.298   5.602  0.6267 -0.8323 -0.7436
21912SOL    HW267744   6.797   9.393   5.514  0.3911  0.0598  0.4009
21913SOL     OW67745   0.034   0.815   4.836 -0.2177 -0.2502 -0.0788
21913SOL    HW167746  -0.010   0.797   4.919  0.3411 -1.3570 -0.0002
21913SOL    HW267747  -0.034   0.801   4.770 -0.3432 -0.6198  0.1213
21914SOL     OW67748   9.211   7.079   9.416  0.0491 -0.4857 -0.4296
21914SOL    HW167749   9.145   7.129   9.368 -0.5316 -0.9090 -0.0849
21914SOL    HW267750   9.219   6.997   9.368  0.3894 -0.4051 -0.5147
21915SOL     OW67751   9.441   7.491   3.071 -0.2811 -0.0223 -0.0536
21915SOL    HW167752   9.391   7.413   3.097  0.2234 -0.1553  0.5382
21915SOL    HW267753   9.521   7.456   3.032  0.1141  0.1925  0.5448
21916SOL     OW67754   2.410   5.823  10.241  0.0904  0.8411 -0.1401
21916SOL    HW167755   2.345   5.784  10.183 -0.2152 -0.6982  1.1949
21916SOL    HW267756   2.494   5.805  10.198 -0.1069 -0.6142  0.0417
21917SOL     OW67757   8.799   2.924   5.728  0.2852 -0.2243  0.3451
21917SOL    HW167758   8.865   2.920   5.659 -1.7050 -0.7385 -1.6343
21917SOL    HW267759   8.728   2.977   5.692 -1.2325 -1.2867  1.6059
21918SOL     OW67760  10.476   6.607  10.558 -0.2848 -0.0441  0.3878
21918SOL    HW167761  10.543   6.600  10.626 -0.6889 -2.3118  0.6208
21918SOL    HW267762  10.421   6.680  10.585  1.3086  1.0325  0.8682
21919SOL     OW67763   4.591   1.073   9.392 -0.7804  0.8190 -0.2018
21919SOL    HW167764   4.599   1.136   9.463 -3.6569  0.9054  0.1884
21919SOL    HW267765   4.603   0.988   9.434 -1.7223  0.9114  0.2963
21920SOL     OW67766   2.208   5.295   3.254 -0.5891  0.4042 -0.1662
21920SOL    HW167767   2.146   5.331   3.317  0.6339  3.8200 -0.6812
21920SOL    HW267768   2.155   5.280   3.175 -1.1123  1.8878 -0.1458
21921SOL     OW67769   8.985   2.681   2.335 -0.4754 -0.0832 -0.3240
21921SOL    HW167770   8.942   2.726   2.408  0.5557  2.7482 -1.3128
21921SOL    HW267771   8.937   2.599   2.326 -3.4708  1.3958  0.7549
21922SOL     OW67772  10.902   3.590   7.797 -0.7033  0.2428 -0.3617
21922SOL    HW167773  10.823   3.539   7.808  0.0947 -0.7395  1.1026
21922SOL    HW267774  10.968   3.527   7.769 -0.5821  1.1875 -2.3735
21923SOL     OW67775   0.258   4.940   8.830 -0.0864  0.0688 -0.2168
21923SOL    HW167776   0.313   4.864   8.807  0.7356  0.0264  1.6773
21923SOL    HW267777   0.318   5.014   8.827  0.5089 -0.1231  2.9714
21924SOL     OW67778   7.544   0.852   2.428  0.1057  0.3183 -0.4539
21924SOL    HW167779   7.468   0.797   2.412 -0.4831  0.1410  2.4245
21924SOL    HW267780   7.606   0.829   2.358 -1.6223 -1.0632 -1.6169
21925SOL     OW67781   4.341   1.583   3.427 -0.2669 -0.3619 -0.0015
21925SOL    HW167782   4.322   1.604   3.518 -0.3457 -1.7563  0.3336
21925SOL    HW267783   4.420   1.632   3.406 -0.8764  0.8500  0.4587
21926SOL     OW67784   8.441   1.944   3.717  0.1131 -0.3166  0.0824
21926SOL    HW167785   8.515   1.996   3.747 -0.6197  1.9211 -1.7484
21926SOL    HW267786   8.477   1.884   3.652  0.5764 -0.5483  0.5427
21927SOL     OW67787   7.775   7.067   9.635 -0.0570 -0.0694  0.4812
21927SOL    HW167788   7.860   7.081   9.676  0.1214  2.3826 -0.5879
21927SOL    HW267789   7.711   7.095   9.701  0.1026  0.8050  0.2750
21928SOL     OW67790   3.225   0.505   7.272 -0.1744  0.4372 -0.4076
21928SOL    HW167791   3.309   0.529   7.234 -0.6729  3.1131 -0.0233
21928SOL    HW267792   3.239   0.418   7.308  2.2627  0.5856 -0.8326
21929SOL     OW67793   9.524   0.316   3.936 -0.1287  0.3394  0.2635
21929SOL    HW167794   9.487   0.236   3.899 -0.0338  0.3929  0.0467
21929SOL    HW267795   9.456   0.382   3.922 -0.5971  0.0893  1.3107
21930SOL     OW67796   5.953   9.839   9.198 -0.4104 -0.1324 -0.3030
21930SOL    HW167797   5.964   9.913   9.259  0.0670 -0.3515 -0.1169
21930SOL    HW267798   6.037   9.794   9.201 -0.9269 -1.0897  0.1237
21931SOL     OW67799   1.879  10.803   3.360 -0.5207 -0.2029 -1.1318
21931SOL    HW167800   1.846  10.839   3.443 -2.5664  0.5349 -2.1887
21931SOL    HW267801   1.896  10.711   3.379 -0.5141  0.0594  0.2238
21932SOL     OW67802   5.248   5.031   6.061  0.5103 -0.5955 -0.3569
21932SOL    HW167803   5.277   4.985   5.982 -0.0454 -0.0601 -0.8792
21932SOL    HW267804   5.170   4.982   6.089 -1.0672  0.9162 -1.8370
21933SOL     OW67805   9.188   7.925   5.041  0.0536 -0.0695  0.7112
21933SOL    HW167806   9.227   7.963   4.962 -1.3152  1.2418  0.6233
21933SOL    HW267807   9.255   7.935   5.108  0.4448  0.7655  0.2104
21934SOL     OW67808   9.068   8.695  10.509 -0.2651 -0.1868  0.6607
21934SOL    HW167809   9.107   8.655  10.588  0.5796 -0.9092 -0.0944
21934SOL    HW267810   9.143   8.709  10.451 -1.0196 -0.6661 -0.4442
21935SOL     OW67811  10.920   3.925   2.397 -0.0828  0.2099 -0.5349
21935SOL    HW167812  10.953   3.882   2.318 -1.4322  0.8923 -1.5125
21935SOL    HW267813  10.828   3.944   2.378 -0.2209  1.1362  0.8840
21936SOL     OW67814   4.430   8.158   2.270 -0.8179 -0.7461 -0.3414
21936SOL    HW167815   4.449   8.179   2.361 -0.0497  0.2911 -0.7206
21936SOL    HW267816   4.417   8.063   2.269  0.7209 -1.0032  0.5919
21937SOL     OW67817   3.796   5.218   9.380  0.2389  0.0398 -0.8855
21937SOL    HW167818   3.758   5.306   9.369  1.4555  0.4752 -1.8635
21937SOL    HW267819   3.749   5.164   9.317 -0.0624  0.1340 -0.7450
21938SOL     OW67820   2.139  10.052  10.294 -0.0062  0.6746 -0.2106
21938SOL    HW167821   2.063  10.032  10.348  2.1073 -1.3661  2.2743
21938SOL    HW267822   2.158   9.971  10.246  0.6349  1.1405 -0.7731
21939SOL     OW67823   4.926   0.510   3.349  0.4037  0.7684 -0.2401
21939SOL    HW167824   4.899   0.598   3.324  0.5088  0.4383 -1.5558
21939SOL    HW267825   4.983   0.482   3.278  0.1784 -0.4588  0.0545
21940SOL     OW67826   0.824   1.961   4.144  0.0549  0.4217 -0.0309
21940SOL    HW167827   0.744   1.911   4.123  0.9205 -1.7934  1.5367
21940SOL    HW267828   0.796   2.052   4.145 -2.4011 -0.2569  0.1489
21941SOL     OW67829  10.055   7.695   6.498 -0.2590  0.4864 -0.2842
21941SOL    HW167830   9.967   7.731   6.498 -0.2941  0.4052 -0.4628
21941SOL    HW267831  10.096   7.730   6.577 -0.3257  0.8290 -0.4009
21942SOL     OW67832   4.774   1.060   0.541  0.1069  0.4681  0.3805
21942SOL    HW167833   4.811   0.971   0.536  0.4322  0.5345  1.3387
21942SOL    HW267834   4.810   1.096   0.622 -1.0626  1.0077  0.6767
21943SOL     OW67835   1.834   1.283   2.826 -0.0801  0.3791 -0.0639
21943SOL    HW167836   1.817   1.350   2.760  0.6847  0.8712  0.2328
21943SOL    HW267837   1.759   1.288   2.885  1.1747  2.8135  1.4735
21944SOL     OW67838   4.051   2.689   3.803 -0.1424  1.1895  0.5409
21944SOL    HW167839   4.053   2.612   3.746  0.1205  1.0735  0.7036
21944SOL    HW267840   4.060   2.763   3.743 -0.4404  1.0976  0.3796
21945SOL     OW67841   8.422   8.454   2.541  0.2034  0.2941  0.1961
21945SOL    HW167842   8.345   8.403   2.517  0.4802  0.4528 -1.0792
21945SOL    HW267843   8.393   8.545   2.534  0.3643  0.3482  0.2325
21946SOL     OW67844   1.549   0.129   1.939  0.4656 -0.8514 -0.0578
21946SOL    HW167845   1.630   0.157   1.896  0.5433  0.7226  1.0272
21946SOL    HW267846   1.568   0.134   2.032 -0.4367 -1.9214  0.2108
21947SOL     OW67847   7.445   7.469   5.942 -0.4358  0.0765 -0.3322
21947SOL    HW167848   7.512   7.528   5.909 -0.8733 -0.4883 -2.3570
21947SOL    HW267849   7.391   7.448   5.865 -2.2302 -0.4022  0.9936
21948SOL     OW67850   7.026   7.668   7.537  0.5349 -0.3212  0.0906
21948SOL    HW167851   7.007   7.748   7.587  0.3922 -1.6483  2.3064
21948SOL    HW267852   7.052   7.699   7.450  0.6592  2.1249  0.9293
21949SOL     OW67853  10.255   3.636   6.481 -0.6552 -0.4269  0.4752
21949SOL    HW167854  10.225   3.726   6.465  1.0268  0.5055  2.1295
21949SOL    HW267855  10.245   3.624   6.575  2.5640 -0.5387  0.9447
21950SOL     OW67856   3.304   8.767   0.055 -0.5053 -0.4930  0.1923
21950SOL    HW167857   3.380   8.806   0.099 -0.9094  0.0842  0.3914
21950SOL    HW267858   3.339   8.690   0.011  0.6758  0.9715 -1.6040
21951SOL     OW67859   6.959   6.605  10.553 -0.0187 -0.2230  0.3492
21951SOL    HW167860   6.897   6.563  10.613 -1.0052  1.4335  0.5749
21951SOL    HW267861   6.905   6.668  10.504  0.8920 -1.0256 -1.8001
21952SOL     OW67862   7.759   6.723   0.292 -0.5293  0.3866  0.1834
21952SOL    HW167863   7.848   6.719   0.327  0.4259 -0.5764 -2.1569
21952SOL    HW267864   7.709   6.662   0.346  0.5373 -0.0611  0.6859
21953SOL     OW67865   2.004   1.524   3.172  0.2986 -0.0864  0.2174
21953SOL    HW167866   2.061   1.457   3.134  1.0393  1.4139 -1.4868
21953SOL    HW267867   2.016   1.516   3.266  2.2249 -0.7559 -0.0460
21954SOL     OW67868   4.445   9.760   3.712  0.2073 -0.5031 -0.7474
21954SOL    HW167869   4.352   9.757   3.736  0.2613  0.7817 -0.3316
21954SOL    HW267870   4.491   9.730   3.790  0.2273  0.6960 -0.2872
21955SOL     OW67871   7.978   1.118   5.302 -0.1378  0.6251 -0.5815
21955SOL    HW167872   7.938   1.032   5.311  0.8383  0.1775 -0.4738
21955SOL    HW267873   8.061   1.111   5.348 -0.7990  2.1365  0.9684
21956SOL     OW67874   9.632   6.725   4.296  0.0502  0.0766  0.6824
21956SOL    HW167875   9.686   6.791   4.338 -1.5126  1.6290  0.3840
21956SOL    HW267876   9.673   6.642   4.318  2.0230  1.1225  1.1725
21957SOL     OW67877   6.070   8.561   5.082 -0.1649 -0.6862 -0.0744
21957SOL    HW167878   6.115   8.622   5.140  0.3150  0.4020 -1.5228
21957SOL    HW267879   5.980   8.560   5.114  0.1957 -0.4834  0.9729
21958SOL     OW67880   4.550   1.809   4.470  0.1367 -0.3047  0.7147
21958SOL    HW167881   4.607   1.805   4.547  0.5266  0.1743  0.4552
21958SOL    HW267882   4.477   1.864   4.498 -0.3142 -1.0962  1.1176
21959SOL     OW67883   5.633  10.345   3.188 -0.1148  0.5848  0.2148
21959SOL    HW167884   5.571  10.280   3.156 -0.5762  0.7483  0.7585
21959SOL    HW267885   5.617  10.422   3.134 -0.5244  0.6884  0.4790
21960SOL     OW67886   7.350  11.047   3.548  0.2775 -0.0832 -0.6092
21960SOL    HW167887   7.430  11.057   3.599 -0.4840 -0.3623  0.6763
21960SOL    HW267888   7.351  11.122   3.488  1.1870  0.2538 -0.1963
21961SOL     OW67889   0.594  10.263   2.588  0.0401  0.4630  0.0819
21961SOL    HW167890   0.643  10.296   2.512 -0.8727  1.0827 -0.2669
21961SOL    HW267891   0.515  10.223   2.550 -0.7905  1.4300  0.7188
21962SOL     OW67892  10.453   8.312  10.940  0.0678  0.0803  0.2990
21962SOL    HW167893  10.362   8.286  10.926  0.0445 -1.0003  2.1816
21962SOL    HW267894  10.473   8.369  10.866 -3.1379  2.9741  1.3938
21963SOL     OW67895   2.564   0.598   4.153 -0.9917  0.2067  0.1298
21963SOL    HW167896   2.627   0.540   4.110 -1.7368 -1.5293  1.2829
21963SOL    HW267897   2.485   0.591   4.098 -0.8088  0.8738 -0.2340
21964SOL     OW67898   4.541   2.856   2.878 -0.1585  0.1061  0.4919
21964SOL    HW167899   4.626   2.827   2.912  0.7621 -1.4023 -2.6584
21964SOL    HW267900   4.476   2.805   2.926  0.9654 -1.2366  0.6445
21965SOL     OW67901   1.879   1.858   0.410  0.9223 -0.7094 -0.5192
21965SOL    HW167902   1.852   1.804   0.335  1.3287 -1.3115 -0.2316
21965SOL    HW267903   1.959   1.817   0.442  0.4463 -0.7809  0.5993
21966SOL     OW67904   6.359   7.366   1.128  0.0087 -0.2467  0.1858
21966SOL    HW167905   6.273   7.399   1.155  0.1616 -0.0808  0.4782
21966SOL    HW267906   6.340   7.283   1.084 -0.3433  0.0377 -0.2049
21967SOL     OW67907   3.686   5.341  10.481  0.0571  0.1597  0.2706
21967SOL    HW167908   3.750   5.293  10.535  1.2818  1.1126 -0.2800
21967SOL    HW267909   3.722   5.337  10.393 -0.0001  1.7430  0.1478
21968SOL     OW67910   9.972  10.239   3.035 -0.6312  0.4629 -0.0671
21968SOL    HW167911   9.930  10.224   2.950  0.7326 -0.1996 -0.6480
21968SOL    HW267912  10.048  10.181   3.035 -1.1521 -0.3307  2.0342
21969SOL     OW67913   6.119   1.543   1.647  0.4226  0.0773  0.5029
21969SOL    HW167914   6.047   1.505   1.596 -0.3647  1.0567  0.8362
21969SOL    HW267915   6.122   1.635   1.619  0.8085  0.3157  1.3016
21970SOL     OW67916  10.689   0.611   6.762 -0.1278  0.1546 -0.0709
21970SOL    HW167917  10.756   0.556   6.804  0.0863  0.2582 -0.2715
21970SOL    HW267918  10.723   0.627   6.674 -0.5668 -0.0467 -0.2802
21971SOL     OW67919   0.196   8.961   7.886 -0.1342 -0.3694 -0.1835
21971SOL    HW167920   0.150   8.895   7.939  0.6426 -0.8653 -0.1068
21971SOL    HW267921   0.180   8.935   7.796  2.5684 -2.4654 -0.1933
21972SOL     OW67922   8.435   5.531   2.589 -0.6075 -0.0519  0.5696
21972SOL    HW167923   8.367   5.495   2.646 -2.0376  1.5099 -0.1009
21972SOL    HW267924   8.400   5.522   2.500  0.3540  0.1611  0.1573
21973SOL     OW67925   0.175   1.332   0.739  0.3348  0.0383 -0.2989
21973SOL    HW167926   0.164   1.249   0.785  0.8686  0.7500  1.1562
21973SOL    HW267927   0.156   1.311   0.647 -1.6225 -1.2120  0.3375
21974SOL     OW67928   6.976   0.523   7.706  0.4016  0.2529 -0.4911
21974SOL    HW167929   6.992   0.614   7.679 -0.4198  0.3925 -0.5376
21974SOL    HW267930   7.005   0.470   7.632 -0.3422  0.5557 -1.0170
21975SOL     OW67931   2.758   0.198   4.827 -0.4702  0.4595 -0.7877
21975SOL    HW167932   2.851   0.177   4.830 -0.5226  0.0759 -1.5463
21975SOL    HW267933   2.745   0.261   4.898  0.1505 -0.3023  0.0130
21976SOL     OW67934   1.879   9.899   7.587 -0.4225  0.1278  0.0893
21976SOL    HW167935   1.913   9.865   7.504 -0.4282 -1.2588  0.6265
21976SOL    HW267936   1.801   9.847   7.605  0.4827 -0.7461  1.7500
21977SOL     OW67937   3.059   8.920   5.388 -0.0117  0.1453 -0.3954
21977SOL    HW167938   3.120   8.865   5.437 -1.2848 -0.5788  0.4225
21977SOL    HW267939   3.047   8.997   5.444  0.5584  0.5421 -0.8105
21978SOL     OW67940   3.952   6.591   0.292  0.5696  0.4480  0.0331
21978SOL    HW167941   4.015   6.642   0.242  3.4290  0.5505  3.3151
21978SOL    HW267942   3.876   6.648   0.302  1.9796  2.4251  0.0506
21979SOL     OW67943   2.217   4.797   0.974 -0.3905  0.2953 -0.0047
21979SOL    HW167944   2.131   4.761   0.995 -0.3895 -0.6229 -1.4513
21979SOL    HW267945   2.255   4.735   0.912  0.9110  1.1953 -0.1521
21980SOL     OW67946   8.641   5.923   0.568  0.0104 -0.4127  0.3492
21980SOL    HW167947   8.577   5.992   0.586  0.6630  0.0335  0.9857
21980SOL    HW267948   8.653   5.926   0.473 -0.0011  0.3147  0.3689
21981SOL     OW67949   5.130   8.273   1.515  0.0698 -1.0387 -0.2939
21981SOL    HW167950   5.040   8.284   1.544  0.4263  1.2242  0.1798
21981SOL    HW267951   5.131   8.306   1.425  0.3455 -1.3878 -0.4202
21982SOL     OW67952   9.729   0.217   4.504  1.0430  0.3649 -0.4299
21982SOL    HW167953   9.779   0.298   4.502  0.0575  1.0528  0.8986
21982SOL    HW267954   9.654   0.233   4.446  0.4412  0.7099  0.4241
21983SOL     OW67955   0.989   4.220   7.320  0.3519 -0.2945 -0.1219
21983SOL    HW167956   0.913   4.239   7.265  0.9860  0.8049 -0.6488
21983SOL    HW267957   0.989   4.290   7.386 -1.6297 -2.7258  2.7324
21984SOL     OW67958   7.802   2.290   9.998 -0.0709  0.4908 -0.2426
21984SOL    HW167959   7.770   2.315   9.911  1.4812  0.2813 -0.9031
21984SOL    HW267960   7.817   2.196   9.992 -0.3773  0.3934  0.4125
21985SOL     OW67961  10.329   3.301   2.657 -0.0447 -0.9579  0.4793
21985SOL    HW167962  10.405   3.309   2.714  0.5913  1.1431 -0.5535
21985SOL    HW267963  10.258   3.272   2.716  0.2723  2.2390  2.6974
21986SOL     OW67964   3.999   9.554   4.939  0.3687  0.3905  0.3907
21986SOL    HW167965   4.069   9.616   4.918  1.4727 -0.9902 -0.2212
21986SOL    HW267966   4.040   9.493   5.001 -0.7953  0.4457  1.2449
21987SOL     OW67967   9.408   4.239   0.248  0.6934  0.0399  0.4294
21987SOL    HW167968   9.373   4.172   0.306 -0.4563  0.3850  0.1477
21987SOL    HW267969   9.443   4.306   0.307 -1.9212  1.1757  0.8167
21988SOL     OW67970  10.293   8.255   4.642 -0.0355 -0.3291  1.0743
21988SOL    HW167971  10.210   8.245   4.689 -0.0846 -2.1779  0.6921
21988SOL    HW267972  10.350   8.188   4.680  0.4499 -0.7763 -0.3708
21989SOL     OW67973   3.148   0.311   6.763  0.5054 -0.3695 -0.5621
21989SOL    HW167974   3.239   0.282   6.766 -0.1753 -2.6249  0.3744
21989SOL    HW267975   3.099   0.234   6.737 -1.2183  0.6725 -0.5577
21990SOL     OW67976   6.855   2.117   8.721  0.0099  0.1359 -0.0868
21990SOL    HW167977   6.950   2.113   8.716  0.1477 -0.3411  2.1687
21990SOL    HW267978   6.836   2.210   8.735  0.1157  0.2539 -0.6943
21991SOL     OW67979   4.286   8.079   7.390  0.0003  0.1859 -0.0506
21991SOL    HW167980   4.316   8.128   7.314 -0.6471  0.9844  0.1968
21991SOL    HW267981   4.367   8.051   7.434  0.4028 -1.2337 -1.6024
21992SOL     OW67982   7.440   0.701   5.376 -0.2612 -0.0499 -0.0559
21992SOL    HW167983   7.428   0.795   5.362  0.1722 -0.0486 -0.4285
21992SOL    HW267984   7.475   0.694   5.465 -0.6540  0.1151  0.1124
21993SOL     OW67985  10.337   5.219   7.589 -0.5511  0.3538 -0.2470
21993SOL    HW167986  10.398   5.145   7.594 -0.2832  0.3133 -2.7027
21993SOL    HW267987  10.393   5.297   7.588 -0.8604  0.8572  3.6214
21994SOL     OW67988   7.455   9.331   0.698 -0.0240  0.0631  0.6253
21994SOL    HW167989   7.532   9.343   0.754  0.2842  1.1239 -0.0021
21994SOL    HW267990   7.390   9.290   0.755  0.7764 -0.2458  1.3448
21995SOL     OW67991   4.317   2.236   4.413 -0.1974 -0.2285 -0.5778
21995SOL    HW167992   4.290   2.326   4.431  0.0042  0.3026 -2.6950
21995SOL    HW267993   4.410   2.242   4.390  0.0509 -1.1188  0.1121
21996SOL     OW67994   4.455   7.986   1.483 -0.1920 -0.3052 -0.0454
21996SOL    HW167995   4.497   7.974   1.397 -2.4703 -0.0181 -1.2818
21996SOL    HW267996   4.512   8.046   1.529 -0.7193  2.6147 -2.8470
21997SOL     OW67997   8.927   1.455  10.901  0.0185  0.0796  0.9955
21997SOL    HW167998   8.857   1.449  10.966 -1.6954  1.1393 -0.6377
21997SOL    HW267999   8.960   1.366  10.892  0.2092 -0.1055  3.1789
21998SOL     OW68000   4.041   8.361   5.948  0.3607 -0.5487 -0.3701
21998SOL    HW168001   4.032   8.271   5.915  0.6780 -0.4996 -0.5996
21998SOL    HW268002   4.111   8.356   6.013  0.5190 -0.4295 -0.5310
21999SOL     OW68003   1.137   8.226   8.478  0.3414  0.3487  0.3259
21999SOL    HW168004   1.182   8.155   8.525  1.1383 -0.0526 -0.9898
21999SOL    HW268005   1.121   8.293   8.545 -0.5896 -1.1174  1.6399
22000SOL     OW68006   8.293   1.463   2.963 -0.0554 -0.3272 -0.1069
22000SOL    HW168007   8.319   1.523   3.033  2.9399 -2.5638  0.9382
22000SOL    HW268008   8.372   1.454   2.909 -0.3304 -3.2027 -0.2157
22001SOL     OW68009   4.573   8.291   5.143 -0.3495 -0.1464 -0.3594
22001SOL    HW168010   4.516   8.215   5.154 -0.8038  0.1367 -0.7468
22001SOL    HW268011   4.581   8.302   5.048 -1.7714  1.3838 -0.3343
22002SOL     OW68012   5.089   3.577   1.042  0.0164  0.5564 -0.6902
22002SOL    HW168013   5.116   3.585   0.950 -0.7021  1.2753 -0.8441
22002SOL    HW268014   5.169   3.549   1.087  0.2747 -0.2115 -1.5881
22003SOL     OW68015   8.433   3.105   3.306  0.2923 -0.2514  0.5636
22003SOL    HW168016   8.514   3.110   3.358 -0.0917 -0.2012  1.1600
22003SOL    HW268017   8.464   3.089   3.217  1.0164  0.9351  0.5831
22004SOL     OW68018   7.343   9.721  10.862  0.2937  0.3320 -0.4644
22004SOL    HW168019   7.387   9.679  10.936  2.5946  1.9539 -0.8003
22004SOL    HW268020   7.251   9.722  10.886  0.8638  0.0336  1.9844
22005SOL     OW68021   9.249   7.913   8.716  0.1528  0.6205 -0.1321
22005SOL    HW168022   9.243   7.863   8.797  0.7387 -0.9322 -1.0033
22005SOL    HW268023   9.293   7.994   8.741  1.4334 -0.3507  0.8958
22006SOL     OW68024   3.946   9.571   8.834  0.0075 -0.3076 -0.4629
22006SOL    HW168025   3.856   9.587   8.863 -0.1350  0.0968 -1.1109
22006SOL    HW268026   3.957   9.626   8.757  0.9609 -0.0241 -0.1400
22007SOL     OW68027   7.856   1.059   3.568  0.1917 -0.2329 -0.1262
22007SOL    HW168028   7.810   1.038   3.487  1.2347  1.6542 -1.2859
22007SOL    HW268029   7.830   0.991   3.629 -0.1352 -2.1025 -2.2358
22008SOL     OW68030   5.117   4.751  10.008 -0.3856 -0.0055 -0.1613
22008SOL    HW168031   5.112   4.793  10.093 -0.4746 -1.9026  0.8199
22008SOL    HW268032   5.061   4.674  10.016  2.3431 -2.2147 -0.7005
22009SOL     OW68033   5.701   0.005   0.807 -0.4163  0.5909 -0.1137
22009SOL    HW168034   5.645  -0.013   0.883  0.0069 -0.5590 -0.0473
22009SOL    HW268035   5.770  -0.061   0.813  1.5097  2.5587  0.3347
22010SOL     OW68036   1.660   5.272  10.743 -0.3312 -0.5234 -0.1576
22010SOL    HW168037   1.741   5.257  10.790  0.1156  1.6592 -0.1332
22010SOL    HW268038   1.667   5.361  10.710 -2.3396 -0.5928 -0.9459
22011SOL     OW68039   9.293   1.188   3.836 -0.1479  0.6415 -0.2265
22011SOL    HW168040   9.227   1.124   3.809 -0.2145  0.2366  0.8485
22011SOL    HW268041   9.355   1.190   3.763 -0.0669 -0.7704 -0.2397
22012SOL     OW68042  10.544  10.709   0.729 -0.3784  0.5417 -0.1143
22012SOL    HW168043  10.568  10.772   0.661  1.0643 -0.1328 -0.2697
22012SOL    HW268044  10.472  10.659   0.691  1.5506 -1.0314 -1.9855
22013SOL     OW68045   9.360   8.988   2.016  0.0272  0.3049  0.1079
22013SOL    HW168046   9.417   8.988   2.093  0.6100  2.3494 -0.2782
22013SOL    HW268047   9.282   8.939   2.044 -0.4354  2.2685  2.5490
22014SOL     OW68048   9.437   3.166  10.843 -0.3641  0.4130  0.3639
22014SOL    HW168049   9.374   3.178  10.914 -0.4582 -3.2491  1.0788
22014SOL    HW268050   9.500   3.103  10.878  2.5619  2.3431 -1.0902
22015SOL     OW68051   4.551   8.713  11.063  0.2602 -0.5147 -0.4343
22015SOL    HW168052   4.548   8.685  11.154 -0.6249 -1.6868 -0.8001
22015SOL    HW268053   4.635   8.759  11.054 -0.0812  0.5060  1.2021
22016SOL     OW68054   6.038   8.407  10.872 -0.1083 -0.0695  0.0975
22016SOL    HW168055   6.046   8.330  10.929  0.6056  0.3592  0.5830
22016SOL    HW268056   6.003   8.372  10.790 -0.7165 -0.7624  0.6420
22017SOL     OW68057   3.443   0.489   6.466  0.4999  0.2839 -0.1247
22017SOL    HW168058   3.508   0.427   6.433 -0.2054 -0.7950  0.4575
22017SOL    HW268059   3.430   0.551   6.394  2.9989  1.2329  0.1447
22018SOL     OW68060   4.906   1.659   9.897 -0.3458  0.0893  0.0486
22018SOL    HW168061   4.870   1.747   9.907  0.2242  0.3740 -0.3386
22018SOL    HW268062   4.853   1.619   9.828 -0.1263  0.3975 -0.3051
22019SOL     OW68063   9.454   3.535  11.080 -0.0251  0.1173  0.4849
22019SOL    HW168064   9.384   3.470  11.088  0.2761 -0.0940  1.6679
22019SOL    HW268065   9.409   3.618  11.067 -0.4473 -0.1912 -0.0486
22020SOL     OW68066   8.044   5.858   0.124 -0.1150 -0.4024  0.4192
22020SOL    HW168067   7.994   5.904   0.192  0.4207 -0.0421  0.5679
22020SOL    HW268068   8.017   5.899   0.042  0.9606  0.7437  0.6153
22021SOL     OW68069   7.772   4.193   8.684 -0.0261  0.1899  0.4853
22021SOL    HW168070   7.790   4.148   8.601  1.3486  0.7871  0.4341
22021SOL    HW268071   7.853   4.186   8.733  0.5184  3.1288  0.2074
22022SOL     OW68072   6.865   4.386   9.319 -0.0299 -0.1340 -0.2417
22022SOL    HW168073   6.896   4.451   9.382  2.6150  0.3130 -1.8456
22022SOL    HW268074   6.906   4.304   9.347 -0.9303 -0.4968  0.0522
22023SOL     OW68075   3.958  10.180   5.844  0.0937  0.0543  0.3966
22023SOL    HW168076   4.033  10.155   5.898  0.0985 -0.9966 -0.0561
22023SOL    HW268077   3.916  10.096   5.822 -0.9406  0.5968  0.2598
22024SOL     OW68078   6.173   2.435   9.042 -0.6464  0.8051 -0.3164
22024SOL    HW168079   6.137   2.354   9.077 -2.0565  0.4431 -2.4262
22024SOL    HW268080   6.267   2.418   9.033 -0.7305 -0.1182  0.4322
22025SOL     OW68081   0.487   9.646  10.359  0.4362  0.3466  0.1219
22025SOL    HW168082   0.477   9.685  10.446 -1.0188 -1.3159  0.7570
22025SOL    HW268083   0.582   9.640  10.346  0.6855  2.2006  0.8249
22026SOL     OW68084   1.823   3.790   4.482  0.1933  0.1049 -0.5018
22026SOL    HW168085   1.865   3.717   4.437 -2.4376 -1.1508 -1.1149
22026SOL    HW268086   1.798   3.755   4.568 -3.8018 -0.9556 -1.8493
22027SOL     OW68087   7.343  10.425   8.651 -0.1810 -0.3290  0.5499
22027SOL    HW168088   7.282  10.381   8.592  3.4008 -1.7102 -2.4433
22027SOL    HW268089   7.334  10.518   8.630 -0.2495 -0.6471 -0.9020
22028SOL     OW68090   7.363   1.877   5.052  0.3025 -0.6270  0.0626
22028SOL    HW168091   7.271   1.891   5.031  0.6185 -0.7809 -1.6130
22028SOL    HW268092   7.399   1.966   5.063 -0.4397 -0.6020  2.8500
22029SOL     OW68093   4.557   7.639   1.752  0.2431  0.2049  0.2532
22029SOL    HW168094   4.633   7.583   1.770  1.1836  1.1191 -0.7314
22029SOL    HW268095   4.505   7.634   1.832  0.0773 -2.3622  0.0582
22030SOL     OW68096   0.589   1.347   6.013 -0.2255  0.4859  0.2742
22030SOL    HW168097   0.602   1.263   5.969 -0.4926  0.4922  0.1798
22030SOL    HW268098   0.497   1.346   6.040 -0.2461  0.7761  0.2153
22031SOL     OW68099   2.517   1.617   2.376  0.0961  0.3127  0.2504
22031SOL    HW168100   2.461   1.682   2.334 -1.0826 -0.1990  0.9748
22031SOL    HW268101   2.556   1.664   2.451 -0.7443  0.2009  0.7666
22032SOL     OW68102   0.321  10.191   8.331  0.3381  0.0931 -0.0828
22032SOL    HW168103   0.386  10.248   8.372  0.6587 -0.6614  0.4799
22032SOL    HW268104   0.339  10.198   8.238  0.5979  0.6383  0.0028
22033SOL     OW68105  10.725   4.424   6.918 -0.0985  0.5028  0.2006
22033SOL    HW168106  10.687   4.342   6.947  0.0743  0.6821  0.9574
22033SOL    HW268107  10.808   4.430   6.965  0.0393  0.9554 -0.0910
22034SOL     OW68108   4.875   8.701  10.202 -0.1473 -0.0919  0.0294
22034SOL    HW168109   4.967   8.727  10.196  0.1742 -0.9285  1.0064
22034SOL    HW268110   4.871   8.619  10.152 -1.4810  2.3863 -4.4458
22035SOL     OW68111   3.721   4.911   7.019  0.3183 -0.3857 -0.5145
22035SOL    HW168112   3.702   4.928   6.927 -2.6822  0.4553  0.1575
22035SOL    HW268113   3.703   4.994   7.063 -2.6799 -1.8346  1.3108
22036SOL     OW68114   0.129  10.375   7.871  0.2791  0.6572 -0.3414
22036SOL    HW168115   0.109  10.328   7.952 -0.6047  1.5648 -0.0119
22036SOL    HW268116   0.143  10.306   7.806  1.7209 -0.1011  0.7276
22037SOL     OW68117   4.122   8.988   4.436 -0.1803 -0.3883 -0.7346
22037SOL    HW168118   4.093   8.988   4.527  1.0296 -3.9725 -0.2055
22037SOL    HW268119   4.181   9.064   4.430 -0.0173 -0.2584  1.5430
22038SOL     OW68120   9.490   5.267   7.307 -0.9067  0.1043  0.4563
22038SOL    HW168121   9.551   5.292   7.376 -0.4335  0.5852 -0.1182
22038SOL    HW268122   9.524   5.185   7.273 -0.0231  0.8217 -0.4751
22039SOL     OW68123   9.936   8.065   7.777 -0.2096  0.2007  0.1158
22039SOL    HW168124   9.952   8.062   7.871 -0.3676  0.5113  0.1509
22039SOL    HW268125   9.934   8.158   7.755 -0.1743  0.1312 -0.1962
22040SOL     OW68126   1.569   2.952   9.420 -0.6098 -0.0484  0.9818
22040SOL    HW168127   1.590   2.860   9.404 -1.7046 -0.3589  1.2452
22040SOL    HW268128   1.620   3.000   9.355 -1.5989 -0.9908 -0.5572
22041SOL     OW68129   4.778   3.555   5.046 -0.7217  0.8592  0.1284
22041SOL    HW168130   4.732   3.627   5.004 -1.2880  1.3717  1.5764
22041SOL    HW268131   4.782   3.579   5.138  1.3513  0.2382  0.2551
22042SOL     OW68132   6.216   1.889   6.913  0.1602  0.0047  0.0148
22042SOL    HW168133   6.235   1.853   6.827 -3.2439 -0.0285 -0.8953
22042SOL    HW268134   6.233   1.982   6.905 -4.6738  1.0123 -2.5912
22043SOL     OW68135   8.730   0.945  10.029 -0.3082 -0.0874 -0.0722
22043SOL    HW168136   8.723   1.004  10.104  0.0993  1.4509 -1.1918
22043SOL    HW268137   8.658   0.969   9.972  1.0795  0.8521 -1.5291
22044SOL     OW68138   3.281   2.802   5.526  0.4982  0.0800 -0.0414
22044SOL    HW168139   3.337   2.874   5.556 -0.2473  0.0592  1.4768
22044SOL    HW268140   3.216   2.845   5.470 -0.2045  0.6910  1.1988
22045SOL     OW68141   3.544   2.083   6.736 -0.3279  0.2874  0.0942
22045SOL    HW168142   3.569   2.112   6.824  0.3898 -1.0247  0.3576
22045SOL    HW268143   3.537   2.163   6.685 -1.2864  1.1318  1.4679
22046SOL     OW68144   7.472   7.023  11.099  0.0615  0.1889 -0.5323
22046SOL    HW168145   7.457   7.056  11.188 -2.0436 -0.9338 -0.4322
22046SOL    HW268146   7.463   6.928  11.106  0.9817 -0.0256 -1.7719
22047SOL     OW68147   2.034   9.509   7.499  0.2994 -0.3887  0.5145
22047SOL    HW168148   2.125   9.489   7.479  0.2923 -0.0061  0.0780
22047SOL    HW268149   2.011   9.579   7.438  0.6593  1.7421  2.7002
22048SOL     OW68150   6.766   8.546   0.669 -0.1417 -0.0891  0.4074
22048SOL    HW168151   6.805   8.527   0.584  0.2839  0.2278  0.5270
22048SOL    HW268152   6.702   8.616   0.651  2.2696  2.3971  0.8183
22049SOL     OW68153   2.331   5.792   6.006  0.2669  0.4206  0.3567
22049SOL    HW168154   2.238   5.813   5.997 -0.4507 -1.9626  1.2575
22049SOL    HW268155   2.355   5.749   5.924  1.0439  2.3239 -0.4777
22050SOL     OW68156  10.933   3.674   0.970  0.8608 -0.2755 -0.2238
22050SOL    HW168157  10.980   3.747   0.931  0.2883 -0.5203 -1.4365
22050SOL    HW268158  10.891   3.630   0.895 -1.8261  0.3338  0.8296
22051SOL     OW68159   2.980   2.678  11.037  0.4555 -0.3769 -0.1061
22051SOL    HW168160   2.904   2.641  10.992  2.3565 -3.2336 -1.2848
22051SOL    HW268161   2.997   2.617  11.109  1.1839  0.6444  0.6254
22052SOL     OW68162  10.686   2.975   0.454 -0.1045  0.2465  0.0538
22052SOL    HW168163  10.605   2.972   0.505  0.3914  0.8112  0.8918
22052SOL    HW268164  10.732   2.895   0.477 -0.9219 -0.6692 -1.3144
22053SOL     OW68165   7.424   7.614   6.632  0.4204  0.2550 -0.4005
22053SOL    HW168166   7.344   7.581   6.591 -0.5350  1.3081  0.5447
22053SOL    HW268167   7.394   7.687   6.687  2.0298  0.6383  0.0063
22054SOL     OW68168   7.884   4.659   3.734 -0.0943 -0.5419 -0.2038
22054SOL    HW168169   7.817   4.725   3.720 -0.4224 -1.1932 -1.9872
22054SOL    HW268170   7.880   4.639   3.828 -1.0338  0.8280  0.0640
22055SOL     OW68171   3.133   1.607   6.686 -0.5350 -0.3406 -0.0073
22055SOL    HW168172   3.132   1.696   6.651 -0.4058 -0.9164 -1.5283
22055SOL    HW268173   3.044   1.592   6.717 -0.9263 -0.1690 -1.0367
22056SOL     OW68174   7.412  10.975   4.550  0.0582  0.1154  0.3713
22056SOL    HW168175   7.483  11.009   4.494 -0.6612  1.8502  0.4343
22056SOL    HW268176   7.332  11.000   4.503 -0.5247 -0.6767  0.9375
22057SOL     OW68177   4.105   2.798   4.212 -0.5484  0.4395 -0.5856
22057SOL    HW168178   4.134   2.861   4.278  0.5248 -0.1516 -0.4762
22057SOL    HW268179   4.067   2.726   4.262  0.2306  0.0088 -0.6099
22058SOL     OW68180  10.233   7.517   4.940  0.3048 -0.3209  0.1727
22058SOL    HW168181  10.321   7.552   4.953  0.7717 -0.7333 -1.5616
22058SOL    HW268182  10.235   7.430   4.979  1.1970 -0.9614 -1.2082
22059SOL     OW68183   3.952   5.815   2.591 -0.2329  0.2136  0.2200
22059SOL    HW168184   4.035   5.775   2.617 -0.6712  0.8429  2.8393
22059SOL    HW268185   3.955   5.903   2.627 -1.5509  0.6852 -0.7242
22060SOL     OW68186   0.384   6.315   0.695 -0.3553 -0.0762 -0.1647
22060SOL    HW168187   0.386   6.249   0.765 -0.2150 -2.4456 -2.2652
22060SOL    HW268188   0.315   6.376   0.721 -2.8325 -2.9043  0.3491
22061SOL     OW68189   3.988   2.646   0.378 -0.4435  0.2415 -0.1521
22061SOL    HW168190   4.023   2.732   0.401 -0.6473 -0.1176  1.6174
22061SOL    HW268191   4.040   2.585   0.429  0.8350 -0.8799 -2.6406
22062SOL     OW68192   6.607   6.343   8.908  0.2850  0.2486 -0.1832
22062SOL    HW168193   6.680   6.287   8.933  0.8121  1.1636  0.3653
22062SOL    HW268194   6.580   6.310   8.822 -0.9875 -2.3988  1.1201
22063SOL     OW68195   9.351   7.018   2.879  0.4816 -0.3562 -0.1998
22063SOL    HW168196   9.304   7.065   2.810 -0.2350  0.1165  0.5880
22063SOL    HW268197   9.411   6.961   2.832  0.5759  0.5303 -1.2064
22064SOL     OW68198   6.483   4.455   1.185  0.4244 -0.2510 -0.2578
22064SOL    HW168199   6.401   4.458   1.233  0.0598  0.7699 -0.9178
22064SOL    HW268200   6.526   4.538   1.205  0.6451 -0.1681 -1.0424
22065SOL     OW68201   5.430   1.577   4.183  0.2895 -0.2970  0.0175
22065SOL    HW168202   5.335   1.589   4.170  0.2817 -0.7133 -0.3296
22065SOL    HW268203   5.462   1.665   4.203  0.1933  0.3418 -2.2874
22066SOL     OW68204   9.476   9.288   4.822 -0.6007  0.4978 -0.4708
22066SOL    HW168205   9.528   9.366   4.801 -1.2131  0.9827 -0.2185
22066SOL    HW268206   9.448   9.301   4.912 -0.1724 -0.3287 -0.2128
22067SOL     OW68207   7.790   8.963   3.741  0.0719 -0.0069 -0.0564
22067SOL    HW168208   7.754   8.996   3.659 -1.5688 -0.7853  0.3062
22067SOL    HW268209   7.816   8.874   3.721  2.9516  0.8561 -0.5968
22068SOL     OW68210   2.919   3.522   3.979  0.3828 -0.5634  0.2738
22068SOL    HW168211   2.985   3.474   3.929  0.3251 -2.5887  2.0232
22068SOL    HW268212   2.882   3.458   4.040 -0.6680  1.3817  1.8283
22069SOL     OW68213   2.291   0.959   7.444  0.5487  0.2632  0.4658
22069SOL    HW168214   2.266   1.051   7.453  0.4589  0.2859 -0.0116
22069SOL    HW268215   2.257   0.932   7.359 -0.2756 -0.4967  1.0164
22070SOL     OW68216   5.199   2.999   5.867 -0.3005  0.2777  0.6775
22070SOL    HW168217   5.194   2.943   5.790  0.3469 -0.5289  1.2125
22070SOL    HW268218   5.112   3.040   5.872 -0.3845  0.2698 -0.4156
22071SOL     OW68219   9.031   8.682   1.323 -0.4326  0.4056 -0.2177
22071SOL    HW168220   9.055   8.623   1.251 -1.0194  0.3799 -0.3925
22071SOL    HW268221   9.115   8.706   1.362  0.0616  1.8130 -1.9882
22072SOL     OW68222   4.868  10.033   1.551  0.5981  0.2429  0.4064
22072SOL    HW168223   4.915   9.982   1.617 -2.0667  0.5295  2.7463
22072SOL    HW268224   4.829   9.968   1.493  2.1209 -0.0548 -0.3298
22073SOL     OW68225   6.721   1.570   3.111 -0.4822  0.1240 -0.1353
22073SOL    HW168226   6.796   1.566   3.171 -0.6124  0.8628  0.0768
22073SOL    HW268227   6.737   1.648   3.058 -0.7328 -0.1286 -0.5861
22074SOL     OW68228   0.935   6.168   5.038  0.1359  0.0636  0.4497
22074SOL    HW168229   0.900   6.090   4.994 -2.6018  1.0624  0.6241
22074SOL    HW268230   0.857   6.218   5.064  1.7427  1.9884  1.9669
22075SOL     OW68231   0.175   8.695   1.096 -0.2978  0.5036 -0.1318
22075SOL    HW168232   0.135   8.618   1.137 -0.1123  0.9382  0.9089
22075SOL    HW268233   0.210   8.663   1.013  0.2707 -0.6616  0.5386
22076SOL     OW68234   5.830  10.017   3.733 -0.5728  0.6721 -0.5504
22076SOL    HW168235   5.822   9.957   3.659 -0.7289 -0.5203  0.3927
22076SOL    HW268236   5.743  10.019   3.772 -0.3574  0.8349 -0.0672
22077SOL     OW68237   6.221   9.912   0.992 -0.2552  0.0120 -0.7442
22077SOL    HW168238   6.164   9.835   0.994  1.0594 -1.0101  1.3191
22077SOL    HW268239   6.180   9.974   1.052  0.0575 -0.1495 -0.3623
22078SOL     OW68240   9.714   4.244   7.474  0.7675  0.2301  0.3269
22078SOL    HW168241   9.646   4.208   7.531  0.1759  0.4748 -0.2137
22078SOL    HW268242   9.666   4.281   7.400  1.4480  1.0284  0.2705
22079SOL     OW68243   4.245   1.645   6.744 -0.3498 -0.7661 -0.0651
22079SOL    HW168244   4.230   1.723   6.691  2.5096  0.5335  0.8536
22079SOL    HW268245   4.157   1.616   6.770 -1.5274  1.8089 -0.8914
22080SOL     OW68246   1.611   6.234  10.413  0.5443  0.8297 -0.2780
22080SOL    HW168247   1.697   6.259  10.449 -0.5126  1.9002  1.6569
22080SOL    HW268248   1.589   6.152  10.458  0.3750  0.7650 -0.4781
22081SOL     OW68249   2.898   0.110   9.701  0.4960  0.2598  0.6587
22081SOL    HW168250   2.940   0.186   9.660  1.5940 -0.1060  1.0811
22081SOL    HW268251   2.897   0.043   9.633  0.9352  0.1488  0.7617
22082SOL     OW68252  10.710   3.166   9.283 -0.6648  0.1830  0.3734
22082SOL    HW168253  10.721   3.092   9.342  2.7785 -1.1232 -1.5749
22082SOL    HW268254  10.702   3.126   9.196 -0.3179  2.0684 -0.5833
22083SOL     OW68255   8.642  10.468   2.162  0.4752 -0.0406  0.3511
22083SOL    HW168256   8.689  10.392   2.128  0.7245  0.3124 -0.1029
22083SOL    HW268257   8.550  10.439   2.166  0.4240 -0.0749 -0.6947
22084SOL     OW68258   8.909   4.667   6.340 -0.5463  0.0952 -0.2607
22084SOL    HW168259   8.965   4.712   6.277 -0.3458  0.5987  0.2605
22084SOL    HW268260   8.821   4.673   6.304 -0.7212  2.0141  0.3671
22085SOL     OW68261   1.211   5.454   7.869  0.0318  0.6949  0.5373
22085SOL    HW168262   1.131   5.478   7.916  0.4034  0.1871  1.4776
22085SOL    HW268263   1.278   5.514   7.903  0.5699 -0.4521  1.5838
22086SOL     OW68264   5.002   3.525   3.814  0.6961  0.5296 -0.8675
22086SOL    HW168265   4.975   3.594   3.754  0.5456  2.7259  1.5668
22086SOL    HW268266   5.056   3.569   3.880 -0.9867 -1.2516  1.9063
22087SOL     OW68267   0.210   6.946   5.169  0.3976 -0.1672 -0.2190
22087SOL    HW168268   0.143   6.878   5.177 -0.0732  0.3668  0.4469
22087SOL    HW268269   0.191   7.007   5.240  1.9681 -0.3297  0.3662
22088SOL     OW68270   6.904   1.590   4.644 -0.3550 -0.6206 -0.0430
22088SOL    HW168271   6.964   1.529   4.600 -0.4687 -1.4269  0.8771
22088SOL    HW268272   6.946   1.675   4.635  1.0171 -1.1799  0.6667
22089SOL     OW68273  10.303   7.667   5.451  0.1310 -0.0207 -0.3675
22089SOL    HW168274  10.218   7.624   5.462 -0.0491  0.4278  0.0308
22089SOL    HW268275  10.329   7.646   5.362 -0.4565 -0.0684 -0.5328
22090SOL     OW68276   2.103   3.233   7.386  0.0104  0.1884  0.5551
22090SOL    HW168277   2.182   3.181   7.369  0.7640  0.4820  2.8260
22090SOL    HW268278   2.045   3.213   7.312  1.5538 -1.3139 -0.3283
22091SOL     OW68279   9.470   9.040   7.235 -0.0871 -0.0583  0.3863
22091SOL    HW168280   9.508   9.124   7.259 -0.3193  0.4165 -0.8123
22091SOL    HW268281   9.481   8.985   7.312 -0.2349  1.1713  1.3106
22092SOL     OW68282   1.099   8.227   3.048 -0.5077 -0.3598 -0.0333
22092SOL    HW168283   1.119   8.189   2.962  2.5679  0.2786  0.3082
22092SOL    HW268284   1.064   8.153   3.099  2.5679 -2.1402 -0.2824
22093SOL     OW68285   2.968   5.813  10.270 -0.2414 -0.1738 -0.0369
22093SOL    HW168286   2.926   5.895  10.244 -0.0433 -0.3587 -1.0095
22093SOL    HW268287   3.042   5.839  10.325  1.4171  0.5407 -2.4198
22094SOL     OW68288   4.893   7.669   2.390  0.1591 -0.0843 -0.4507
22094SOL    HW168289   4.844   7.711   2.321 -0.5136  0.5438  0.3859
22094SOL    HW268290   4.828   7.620   2.440  0.6147 -0.4646 -0.2139
22095SOL     OW68291   4.627   8.373   0.761 -0.0482 -0.0974 -0.0587
22095SOL    HW168292   4.612   8.467   0.769  1.4004  0.1309  0.1168
22095SOL    HW268293   4.652   8.345   0.850  4.5069  0.3252 -0.9816
22096SOL     OW68294   8.726   1.240   9.893  0.5430  0.2439  0.5292
22096SOL    HW168295   8.744   1.146   9.888  1.1714  0.4172 -0.8723
22096SOL    HW268296   8.636   1.249   9.861  0.7743  0.1924 -0.1561
22097SOL     OW68297   7.613   1.544  10.135 -0.4387 -0.2375  0.9051
22097SOL    HW168298   7.635   1.469  10.190  0.7744 -1.1661 -0.7296
22097SOL    HW268299   7.537   1.515  10.085  1.4679 -1.4808 -1.5238
22098SOL     OW68300   4.556  10.703   0.284  0.1325  0.3161  0.3743
22098SOL    HW168301   4.565  10.763   0.358 -0.2062  0.9572 -0.0904
22098SOL    HW268302   4.625  10.731   0.223  0.2360 -0.0327  0.3291
22099SOL     OW68303   2.088   7.027   2.333  0.2207  0.3687  0.2069
22099SOL    HW168304   2.036   7.044   2.254  1.9786  1.2487 -0.8298
22099SOL    HW268305   2.162   6.975   2.301  1.6717  1.8794  0.9844
22100SOL     OW68306   7.042   6.946   5.705  0.8891  0.6116  0.0593
22100SOL    HW168307   7.077   6.925   5.791  0.0281  0.6267  0.4241
22100SOL    HW268308   7.117   6.941   5.646  1.0955 -1.6044  0.4368
22101SOL     OW68309   5.305   3.067   9.733  0.3938 -0.0697 -0.6794
22101SOL    HW168310   5.305   3.154   9.772 -2.7394  0.3987 -1.4475
22101SOL    HW268311   5.390   3.061   9.689  1.1805  2.0909  0.3657
22102SOL     OW68312   9.883  10.162   7.921  0.0087 -0.0833  0.2179
22102SOL    HW168313   9.814  10.163   7.855 -1.4190 -1.4029  1.6127
22102SOL    HW268314   9.961  10.131   7.874 -0.7838 -0.2655 -1.0050
22103SOL     OW68315   6.274   8.751   5.210  0.2425  1.1995  0.0265
22103SOL    HW168316   6.299   8.829   5.259  0.3145  2.4526 -1.8835
22103SOL    HW268317   6.318   8.761   5.125  1.4848 -1.6588  0.2026
22104SOL     OW68318   5.205   7.136   0.699 -0.2310  0.0212  0.5019
22104SOL    HW168319   5.213   7.223   0.740 -1.4223  0.9343 -1.1186
22104SOL    HW268320   5.158   7.084   0.764 -1.5414  1.2505  0.5819
22105SOL     OW68321   2.940   2.796   6.476 -0.4195  0.0623  0.0523
22105SOL    HW168322   2.952   2.758   6.563  1.4916  0.2844 -0.0598
22105SOL    HW268323   2.866   2.855   6.485 -0.2066  0.1321  1.5700
22106SOL     OW68324   9.592   8.952   3.914  0.0628 -0.6119 -0.0596
22106SOL    HW168325   9.673   9.002   3.901  0.5144 -1.6248 -1.2257
22106SOL    HW268326   9.557   8.986   3.997  1.3441  0.2793  0.1483
22107SOL     OW68327  10.140   3.863   9.459  0.5280 -0.0503 -0.1858
22107SOL    HW168328  10.207   3.864   9.528 -0.1840 -2.8837  0.6923
22107SOL    HW268329  10.186   3.892   9.381  2.1542  0.4241  0.8951
22108SOL     OW68330   0.064   3.424   4.173 -1.1045 -0.3548 -0.0987
22108SOL    HW168331   0.043   3.434   4.080 -0.6390 -0.8351 -0.2629
22108SOL    HW268332   0.063   3.513   4.208  0.9084  0.0989 -1.0557
22109SOL     OW68333   5.929   1.430   0.514  0.3602 -0.3834  0.0140
22109SOL    HW168334   5.896   1.517   0.491  0.6139  0.0748  1.2956
22109SOL    HW268335   5.964   1.395   0.432 -0.4923  0.3782 -0.6957
22110SOL     OW68336  10.203   6.593   0.219  0.5169  0.6502 -0.5856
22110SOL    HW168337  10.136   6.532   0.250  0.5287 -0.4415 -2.5490
22110SOL    HW268338  10.161   6.640   0.148  1.5230  0.6672 -1.1881
22111SOL     OW68339   9.450   0.490   9.928 -0.6336 -0.2419 -0.1907
22111SOL    HW168340   9.504   0.477  10.006  1.7092  0.8845 -1.5392
22111SOL    HW268341   9.379   0.547   9.958 -0.6572 -1.0473  1.4313
22112SOL     OW68342   6.121   4.649   9.202 -0.8006  0.6809  0.2467
22112SOL    HW168343   6.041   4.672   9.250 -1.0080 -0.1638  0.3195
22112SOL    HW268344   6.093   4.641   9.111 -0.4270  2.1795 -0.0155
22113SOL     OW68345   0.130   4.997   7.753  0.1360  0.3059  0.3044
22113SOL    HW168346   0.035   4.989   7.737  0.0959  0.0303  0.6730
22113SOL    HW268347   0.160   5.057   7.685 -0.0712 -0.6542 -0.6837
22114SOL     OW68348   4.286   5.111   7.240  0.9186 -0.1812  0.2557
22114SOL    HW168349   4.364   5.056   7.237  0.4346 -0.9327  1.0522
22114SOL    HW268350   4.214   5.049   7.253  0.2993  0.5997  0.5748
22115SOL     OW68351   7.961   0.500   3.973  0.4023 -1.0975  0.7413
22115SOL    HW168352   7.967   0.452   3.891  0.0238 -1.0592  0.6856
22115SOL    HW268353   8.014   0.578   3.960 -2.1494  0.5288 -0.6380
22116SOL     OW68354   5.722   0.510   0.604  0.5810  0.8883 -0.5475
22116SOL    HW168355   5.645   0.464   0.572  0.4880  1.1489 -0.6989
22116SOL    HW268356   5.734   0.477   0.693 -0.5497  1.8779  0.0113
22117SOL     OW68357   8.786   9.631   8.065 -0.2096  0.6656 -0.2396
22117SOL    HW168358   8.861   9.626   8.124  0.0415  0.0841 -0.5982
22117SOL    HW268359   8.749   9.718   8.080  0.0305  0.6398  0.5512
22118SOL     OW68360   9.152   3.963   6.744 -0.2997 -0.1042 -0.0800
22118SOL    HW168361   9.183   4.038   6.795  0.4999 -0.2868 -0.2705
22118SOL    HW268362   9.150   3.891   6.807 -1.8732  0.2386  0.3031
22119SOL     OW68363   3.791   4.709   2.365  0.1029 -0.2541  0.3190
22119SOL    HW168364   3.757   4.624   2.338 -1.4018  0.9993 -2.0408
22119SOL    HW268365   3.716   4.754   2.403  0.3854  0.7357 -0.2770
22120SOL     OW68366   7.546   3.026   9.470  0.1383 -0.3846  0.7218
22120SOL    HW168367   7.571   2.939   9.436  0.9951 -0.0460  0.4528
22120SOL    HW268368   7.610   3.086   9.431  0.6358  0.1442  2.2675
22121SOL     OW68369   4.902   7.317   4.950  0.3706 -0.0191  0.4579
22121SOL    HW168370   4.899   7.260   4.873  0.3759  0.1088  0.3634
22121SOL    HW268371   4.824   7.371   4.944  1.3055  1.3035 -0.4757
22122SOL     OW68372   0.048   7.625   8.098  0.3141 -0.4048  0.6904
22122SOL    HW168373   0.137   7.632   8.063 -0.1988 -1.3864 -0.9533
22122SOL    HW268374  -0.001   7.693   8.051  0.0797 -0.2620  1.1445
22123SOL     OW68375   6.158   5.690   1.603 -0.2917 -0.1672  1.1002
22123SOL    HW168376   6.106   5.615   1.632 -0.7429 -0.0096  0.7091
22123SOL    HW268377   6.110   5.725   1.528  0.5442 -0.2200  0.5224
22124SOL     OW68378   1.601   7.490   8.235  0.6224 -0.0176 -0.8931
22124SOL    HW168379   1.522   7.472   8.284 -0.0075 -3.1747 -2.7920
22124SOL    HW268380   1.670   7.494   8.301 -0.9795  3.2713  0.8583
22125SOL     OW68381   8.636   0.856   5.576  0.0459 -0.1811 -1.0512
22125SOL    HW168382   8.657   0.940   5.615 -1.4141 -0.2740  0.0013
22125SOL    HW268383   8.679   0.791   5.632  2.2660 -0.1661 -2.5821
22126SOL     OW68384   5.153  10.111   2.518  0.2879  0.3232  0.1144
22126SOL    HW168385   5.170  10.024   2.554  1.9538 -0.2235 -1.8728
22126SOL    HW268386   5.233  10.160   2.534  0.2979  0.6997 -1.0394
22127SOL     OW68387   2.333   3.224   9.135 -0.4904 -0.0773 -0.1528
22127SOL    HW168388   2.264   3.159   9.149  0.0462 -0.7114 -0.3498
22127SOL    HW268389   2.403   3.174   9.092  0.2027  0.4823  0.3137
22128SOL     OW68390   2.734   7.501   5.428  0.7429  0.3578 -0.3898
22128SOL    HW168391   2.779   7.417   5.436  0.0401  0.0605  0.6642
22128SOL    HW268392   2.688   7.512   5.511  0.0116  1.3099 -0.8922
22129SOL     OW68393   0.308   0.242   9.046 -0.3617  0.2082  0.2979
22129SOL    HW168394   0.315   0.155   9.006  0.5183  0.7072 -0.6649
22129SOL    HW268395   0.394   0.257   9.085 -1.2181 -0.3108  2.5623
22130SOL     OW68396   4.714  10.773   7.701 -0.5859  0.1105  0.1094
22130SOL    HW168397   4.699  10.691   7.748 -0.8533 -0.0197 -0.1957
22130SOL    HW268398   4.640  10.828   7.727 -0.3540  0.2919  0.3894
22131SOL     OW68399   6.443   0.750   6.607  0.2878  0.0504 -0.2738
22131SOL    HW168400   6.450   0.729   6.513  1.2511  1.4472 -0.5439
22131SOL    HW268401   6.532   0.738   6.641  0.3016  1.1302  0.0997
22132SOL     OW68402   3.500   8.973   3.153 -0.5409 -0.0464 -0.2029
22132SOL    HW168403   3.550   8.891   3.152 -0.7751 -0.2015 -1.4523
22132SOL    HW268404   3.550   9.031   3.212  0.4930 -0.5711 -0.5296
22133SOL     OW68405   7.450   0.775   3.329 -0.1657  0.3396  0.1175
22133SOL    HW168406   7.356   0.772   3.348 -0.2464  0.6739 -0.2141
22133SOL    HW268407   7.485   0.841   3.389 -0.0667 -0.0788  0.5303
22134SOL     OW68408   1.369   4.186   0.189  0.3358 -0.1887  0.5945
22134SOL    HW168409   1.389   4.249   0.258 -1.0390  0.1691  0.6966
22134SOL    HW268410   1.380   4.235   0.108 -0.8707  0.2541  0.6782
22135SOL     OW68411   2.786   4.445   5.306 -0.3565 -0.1362  0.0291
22135SOL    HW168412   2.718   4.441   5.373  1.2027  0.9352  1.7515
22135SOL    HW268413   2.866   4.418   5.351  0.7555  0.6677 -1.3961
22136SOL     OW68414   0.386  10.914   6.675  0.1929 -0.2371  0.9041
22136SOL    HW168415   0.442  10.991   6.669 -1.5731  1.1309  1.1007
22136SOL    HW268416   0.400  10.868   6.593  1.1751  0.3551  0.7188
22137SOL     OW68417   9.557   3.657   2.885 -0.3627 -0.0375  0.4497
22137SOL    HW168418   9.538   3.567   2.910  0.6185 -0.4167 -0.1341
22137SOL    HW268419   9.574   3.702   2.968 -3.6306  0.3461  1.0489
22138SOL     OW68420   4.634   1.658   6.227  0.2443 -0.6469 -0.3234
22138SOL    HW168421   4.570   1.723   6.257 -1.0481 -0.9069 -2.2765
22138SOL    HW268422   4.592   1.574   6.241 -0.7096 -0.7673 -3.1641
22139SOL     OW68423   5.072   4.296   5.415  0.9315  0.0144  0.2001
22139SOL    HW168424   5.063   4.321   5.323 -0.6056  0.2373  0.3826
22139SOL    HW268425   5.125   4.216   5.413  0.5706 -0.2141 -0.9124
22140SOL     OW68426   7.253   3.399   7.059  0.1011  0.0036 -0.0002
22140SOL    HW168427   7.324   3.425   7.117  0.6117  0.5682 -0.8533
22140SOL    HW268428   7.231   3.478   7.010  0.2127 -0.6162 -1.1073
22141SOL     OW68429   3.423   6.504   1.494 -0.2909  0.2415 -0.2717
22141SOL    HW168430   3.469   6.578   1.454  0.5890  0.4630  1.1076
22141SOL    HW268431   3.438   6.513   1.588 -0.6623 -1.3608 -0.0207
22142SOL     OW68432   7.638   8.265  10.566 -0.5452  0.0447 -0.1626
22142SOL    HW168433   7.597   8.248  10.481 -1.5529  0.8625  0.1402
22142SOL    HW268434   7.594   8.343  10.599  2.5503  2.2310 -0.6742
22143SOL     OW68435   7.960   2.408   3.896  0.3433  0.1159  0.0245
22143SOL    HW168436   7.995   2.424   3.809 -0.8545  0.8724 -0.3465
22143SOL    HW268437   8.009   2.333   3.929  2.5243  1.3420 -0.3005
22144SOL     OW68438   0.386   1.806   9.153 -0.3925  0.0318 -0.3700
22144SOL    HW168439   0.333   1.794   9.074  1.3725  0.9535 -1.7369
22144SOL    HW268440   0.473   1.827   9.121  0.2422  1.0063  1.8402
22145SOL     OW68441  10.847   5.339  10.746  0.0728  0.0170  0.6805
22145SOL    HW168442  10.758   5.370  10.728  0.6164  3.4219  2.7750
22145SOL    HW268443  10.842   5.304  10.835  0.9590  1.3031  1.2725
22146SOL     OW68444   7.304   1.906   3.322  0.0840 -0.7508  0.2627
22146SOL    HW168445   7.326   1.964   3.250  0.7429 -0.2213  0.8647
22146SOL    HW268446   7.290   1.965   3.397  1.0991 -1.3615  0.9623
22147SOL     OW68447   8.940   0.735   4.126 -0.3215 -0.2071 -0.3197
22147SOL    HW168448   8.900   0.691   4.051 -0.5919 -0.5268  0.0106
22147SOL    HW268449   8.890   0.704   4.202 -0.5244  0.6642 -0.0831
22148SOL     OW68450   4.602   5.546   1.922  0.0359 -0.7336  0.1324
22148SOL    HW168451   4.547   5.511   1.853  0.7980 -1.0990 -0.3022
22148SOL    HW268452   4.629   5.632   1.891  0.1743 -0.7952  0.0775
22149SOL     OW68453   0.536   2.657   6.692  0.6474 -0.2971 -0.2840
22149SOL    HW168454   0.519   2.704   6.774  0.1831 -0.6421 -0.1831
22149SOL    HW268455   0.547   2.727   6.627 -2.2026 -0.0176 -0.5782
22150SOL     OW68456   2.038   0.767   5.084  0.4721  0.4666 -0.5163
22150SOL    HW168457   1.991   0.804   5.160 -0.8803  0.2246 -1.2092
22150SOL    HW268458   2.096   0.701   5.122  0.8751  1.3507  0.4555
22151SOL     OW68459  10.939   5.173   8.758  0.1566 -0.3886 -0.5100
22151SOL    HW168460  10.872   5.120   8.802 -1.1078 -0.3294 -2.2835
22151SOL    HW268461  10.894   5.254   8.736  2.1844  1.7711  2.5806
22152SOL     OW68462   7.155   8.895   4.673 -0.0687  0.8768  0.1733
22152SOL    HW168463   7.245   8.923   4.689  0.0252  0.8632 -0.3135
22152SOL    HW268464   7.136   8.926   4.584 -0.4152  0.5584  0.1346
22153SOL     OW68465   2.255   8.722   6.754 -0.3736  0.1041 -0.4186
22153SOL    HW168466   2.178   8.664   6.762 -0.7079  0.4330 -1.1947
22153SOL    HW268467   2.223   8.798   6.706  0.0554  0.9663  0.6299
22154SOL     OW68468   0.715   5.528   7.719 -0.6280  0.4170 -0.4226
22154SOL    HW168469   0.738   5.538   7.627  0.8055 -1.4314 -0.3465
22154SOL    HW268470   0.703   5.617   7.751  1.1279  1.2472 -1.8603
22155SOL     OW68471   2.148   0.036   5.169  0.5290  0.4282 -0.4468
22155SOL    HW168472   2.176   0.084   5.248 -0.3969  2.2228 -1.1483
22155SOL    HW268473   2.104  -0.042   5.203  1.2707  0.5170  0.7778
22156SOL     OW68474   8.932   6.879   3.293 -0.7083  0.2759  0.1669
22156SOL    HW168475   8.862   6.942   3.309  0.5886  2.1844 -1.3020
22156SOL    HW268476   8.960   6.894   3.203  2.3186  0.3834  0.9967
22157SOL     OW68477  10.810   9.115  10.215 -0.4512  0.3243 -0.7204
22157SOL    HW168478  10.886   9.063  10.243  0.2679  1.3374 -0.7381
22157SOL    HW268479  10.753   9.052  10.172  0.1056 -0.5734 -0.1921
22158SOL     OW68480   5.026   9.681   2.296 -0.2596 -0.3359 -0.5912
22158SOL    HW168481   5.002   9.589   2.308  0.1322 -0.6184 -1.8132
22158SOL    HW268482   4.943   9.728   2.307 -0.4235 -0.8001  0.2854
22159SOL     OW68483  10.783   7.803   2.119 -0.5744 -0.2963  0.3189
22159SOL    HW168484  10.821   7.817   2.033  0.4557 -2.2008  0.3977
22159SOL    HW268485  10.850   7.834   2.180 -0.3839 -0.9091  0.4312
22160SOL     OW68486   2.703   9.415   5.358 -0.2555  0.6441 -0.0816
22160SOL    HW168487   2.780   9.387   5.310  1.0612  2.2937  0.9629
22160SOL    HW268488   2.657   9.474   5.298  0.5340  1.4543  0.0981
22161SOL     OW68489  10.456   6.542   6.799  0.3917  0.0018 -0.1522
22161SOL    HW168490  10.545   6.513   6.816  0.3361  0.3739  0.7888
22161SOL    HW268491  10.402   6.465   6.816  0.6444 -0.7328 -2.3470
22162SOL     OW68492   4.482   0.465   0.717 -0.0467 -0.7464  0.0666
22162SOL    HW168493   4.434   0.544   0.742  0.4840 -0.0108 -1.1686
22162SOL    HW268494   4.417   0.411   0.673 -0.1616 -0.5177 -0.0483
22163SOL     OW68495   9.171  10.080   3.518 -0.4144 -0.1897 -0.4546
22163SOL    HW168496   9.079  10.080   3.543  0.4137  0.2461  3.3059
22163SOL    HW268497   9.198  10.171   3.525  0.7191 -0.5758  0.6648
22164SOL     OW68498   9.888   4.540   4.423 -0.5253  0.0611  0.0742
22164SOL    HW168499   9.820   4.556   4.357 -1.2348  0.5787  0.9187
22164SOL    HW268500   9.872   4.451   4.453  0.4035 -0.5419 -1.1240
22165SOL     OW68501  10.207   2.337   2.331 -0.3105  0.3562 -0.4289
22165SOL    HW168502  10.121   2.370   2.359 -0.2933  1.4992 -1.6440
22165SOL    HW268503  10.260   2.339   2.411 -0.4320  3.0119 -0.3224
22166SOL     OW68504   8.402   4.610   2.204 -0.4768 -0.1522  0.6953
22166SOL    HW168505   8.350   4.564   2.138  1.4416 -1.0104 -0.3105
22166SOL    HW268506   8.367   4.579   2.287 -0.9577 -1.4579  0.0461
22167SOL     OW68507  10.574   2.586   3.947  0.2759 -0.4354 -0.7302
22167SOL    HW168508  10.498   2.630   3.908 -0.8927  0.0260  1.8037
22167SOL    HW268509  10.633   2.657   3.971  0.7858 -0.6697 -1.2947
22168SOL     OW68510   9.822   8.082   8.282  0.2356 -0.0104  0.1657
22168SOL    HW168511   9.808   8.052   8.371  0.7080  0.5782  0.4434
22168SOL    HW268512   9.735   8.109   8.252 -0.2525 -1.8446 -0.1848
22169SOL     OW68513   0.578   5.164   9.079 -0.3006 -0.4540  0.1925
22169SOL    HW168514   0.667   5.140   9.054  0.3680  2.1490 -0.2492
22169SOL    HW268515   0.580   5.260   9.084 -3.1985 -0.2763 -0.3398
22170SOL     OW68516   9.123  10.615   8.505 -1.2971 -0.6203  0.6401
22170SOL    HW168517   9.211  10.653   8.507 -2.1297  1.6595 -1.0360
22170SOL    HW268518   9.116  10.567   8.587  1.4943 -0.9130  0.8166
22171SOL     OW68519   1.294  10.015   1.374  0.6426  0.4058  0.1281
22171SOL    HW168520   1.327  10.023   1.464  3.5682 -0.6257 -0.7326
22171SOL    HW268521   1.373  10.011   1.320 -1.0062 -0.1833 -2.4067
22172SOL     OW68522   3.587   8.975  10.927  0.5167  0.5521 -0.3830
22172SOL    HW168523   3.651   9.018  10.871  1.3974  0.1215  0.2690
22172SOL    HW268524   3.528   8.929  10.867  2.4665 -1.3775 -0.9383
22173SOL     OW68525   4.156   4.208   5.202 -0.0247  0.7617 -0.4322
22173SOL    HW168526   4.191   4.217   5.113  0.5876 -1.8675 -0.5291
22173SOL    HW268527   4.178   4.119   5.228 -2.8734  0.4176  1.2188
22174SOL     OW68528   4.833   6.500   5.031  0.4249  0.1880  0.2220
22174SOL    HW168529   4.828   6.594   5.012  0.6389 -0.0208 -0.9314
22174SOL    HW268530   4.809   6.494   5.124 -3.0824  1.0516 -0.4851
22175SOL     OW68531   5.672   4.951   4.867  0.6166 -0.1064 -0.1389
22175SOL    HW168532   5.688   5.038   4.830  1.2070  0.0971  0.5785
22175SOL    HW268533   5.577   4.947   4.878  0.6715  0.8944  0.8662
22176SOL     OW68534   5.442   0.568   2.165  0.3395  0.1301 -0.0650
22176SOL    HW168535   5.380   0.532   2.228  0.0763  0.3258 -0.2119
22176SOL    HW268536   5.419   0.528   2.081  1.1436 -0.6817  0.0825
22177SOL     OW68537   5.851   1.341   5.017 -0.3888 -0.4607  0.1417
22177SOL    HW168538   5.928   1.370   4.969 -0.7033  0.4341  0.1533
22177SOL    HW268539   5.838   1.408   5.084 -2.1381  0.3378 -0.9126
22178SOL     OW68540   5.387   7.282  10.937 -0.4560  0.7014 -0.3281
22178SOL    HW168541   5.360   7.261  10.847  0.3521  3.0712 -1.2022
22178SOL    HW268542   5.311   7.323  10.976 -1.5778 -2.2541  0.9355
22179SOL     OW68543   8.692   8.467   5.995 -0.0314 -0.1326 -0.0396
22179SOL    HW168544   8.777   8.422   5.996  1.0111  1.7562  0.5065
22179SOL    HW268545   8.632   8.406   6.038  0.6705 -2.1442 -1.7653
22180SOL     OW68546   5.516   6.766   4.009  0.9700  0.1707  0.0128
22180SOL    HW168547   5.500   6.710   4.085  0.8866 -0.9930 -0.8521
22180SOL    HW268548   5.542   6.706   3.939 -0.5976  1.0304 -1.3731
22181SOL     OW68549   5.312   1.699   7.741  0.2167  0.1475 -0.0991
22181SOL    HW168550   5.263   1.656   7.811 -0.6115  1.0820 -0.0881
22181SOL    HW268551   5.400   1.663   7.748  0.0608 -0.0160  1.2036
22182SOL     OW68552   8.394   0.393  10.023 -0.3396  0.9145  0.2232
22182SOL    HW168553   8.353   0.398   9.936  2.9566  4.3926 -1.4284
22182SOL    HW268554   8.407   0.484  10.048  1.0116 -0.0163  3.3149
22183SOL     OW68555   2.617   2.110   4.430  0.2183  0.1162 -0.0168
22183SOL    HW168556   2.567   2.161   4.366 -0.1832 -1.0987 -0.6951
22183SOL    HW268557   2.700   2.092   4.387 -0.4066 -1.5077 -0.6175
22184SOL     OW68558   4.784  10.495   1.681 -0.0856  0.2266  0.4660
22184SOL    HW168559   4.770  10.478   1.774 -0.7995 -0.9262  0.1744
22184SOL    HW268560   4.709  10.548   1.654 -1.2812 -1.5890  0.0285
22185SOL     OW68561   3.111   9.365   4.955  0.5213 -0.3440 -0.1593
22185SOL    HW168562   3.085   9.347   4.864 -0.9470 -0.5517  0.2743
22185SOL    HW268563   3.176   9.297   4.975 -2.3273 -3.1804  0.3059
22186SOL     OW68564   3.157   0.867   8.275 -0.0676 -0.3403  0.0318
22186SOL    HW168565   3.197   0.785   8.247 -1.1285 -2.2362  3.3769
22186SOL    HW268566   3.066   0.843   8.294 -0.6773  1.8779  0.1468
22187SOL     OW68567   0.613   8.745   2.260  0.3015  0.2038  1.0383
22187SOL    HW168568   0.530   8.698   2.250  0.4843 -0.0819  0.8485
22187SOL    HW268569   0.587   8.835   2.278 -0.0495  0.1890  0.6264
22188SOL     OW68570  10.848   9.049   2.484  0.8402 -0.3249  0.5603
22188SOL    HW168571  10.857   9.105   2.406  1.8453 -3.8889 -2.1262
22188SOL    HW268572  10.756   9.023   2.483  0.0621  1.9988  2.5161
22189SOL     OW68573   0.603   5.795   4.903 -0.0366  0.4045 -0.5349
22189SOL    HW168574   0.537   5.840   4.851 -0.0504  1.7539  0.5788
22189SOL    HW268575   0.554   5.733   4.957 -0.2408  0.4623 -0.6544
22190SOL     OW68576   8.388   1.546   6.992  0.5358  0.4998 -0.1928
22190SOL    HW168577   8.297   1.531   7.017  0.3010  0.0900 -1.2453
22190SOL    HW268578   8.438   1.496   7.057 -0.0598 -0.5486 -0.5038
22191SOL     OW68579   2.519   7.595   4.806  0.1618  0.0611  0.2328
22191SOL    HW168580   2.454   7.656   4.773  2.3443  2.5396  0.1690
22191SOL    HW268581   2.533   7.533   4.734 -0.2131  1.1321 -0.7989
22192SOL     OW68582   5.811   4.458   4.877 -0.1974  0.3006  0.6728
22192SOL    HW168583   5.764   4.455   4.793 -1.7386 -2.1227  1.5214
22192SOL    HW268584   5.897   4.495   4.855 -0.4915 -0.3944 -1.9888
22193SOL     OW68585   4.528   4.333  10.794  0.6702 -0.6750  0.1300
22193SOL    HW168586   4.495   4.368  10.876 -0.1231  1.1121 -0.8797
22193SOL    HW268587   4.455   4.283  10.758 -0.0337  0.8891 -0.7499
22194SOL     OW68588   6.940   0.148  10.260 -0.7166 -0.0106 -0.1104
22194SOL    HW168589   6.961   0.210  10.190 -2.1277 -1.4768 -1.9606
22194SOL    HW268590   7.023   0.105  10.280 -0.4077 -0.1243 -1.5058
22195SOL     OW68591  10.327   1.472   6.548  1.0361 -0.2254 -0.5910
22195SOL    HW168592  10.312   1.461   6.455  1.5588  0.5465 -0.7756
22195SOL    HW268593  10.358   1.386   6.578  0.2060 -0.6685 -0.9814
22196SOL     OW68594   5.434   3.127   6.207 -0.7073 -0.2446  0.0500
22196SOL    HW168595   5.524   3.100   6.189 -0.8955 -1.1733  0.4589
22196SOL    HW268596   5.391   3.123   6.121 -0.0196  1.6419 -0.4280
22197SOL     OW68597   8.832   2.891   5.297 -0.3040  0.2749 -0.2377
22197SOL    HW168598   8.857   2.844   5.217 -0.6901  0.9377 -0.7540
22197SOL    HW268599   8.796   2.823   5.354 -2.0820  0.1125 -1.4787
22198SOL     OW68600   1.254  10.106   3.285 -0.2534  0.0864  0.8672
22198SOL    HW168601   1.233  10.027   3.236 -1.4117  1.5989 -1.2664
22198SOL    HW268602   1.186  10.112   3.352 -0.8637 -0.1543  0.2815
22199SOL     OW68603   8.334   9.102   7.084 -0.3443 -0.5928 -0.9558
22199SOL    HW168604   8.336   9.167   7.014 -1.0820 -0.4667 -0.8672
22199SOL    HW268605   8.243   9.102   7.114 -0.3983 -1.8191 -1.0942
22200SOL     OW68606   4.295   4.082   4.704  0.4661  0.1985  0.1184
22200SOL    HW168607   4.276   4.159   4.651  0.4575  0.0597 -0.0793
22200SOL    HW268608   4.389   4.068   4.694  0.4072 -0.0274 -0.1293
22201SOL     OW68609   1.344   0.222   3.562 -0.2179 -0.1497 -0.2939
22201SOL    HW168610   1.257   0.248   3.531  0.7468  0.2114 -2.8921
22201SOL    HW268611   1.336   0.128   3.581 -1.1441 -0.1321 -0.5485
22202SOL     OW68612   8.987   1.828   0.469 -0.4982  0.5344 -0.3339
22202SOL    HW168613   8.993   1.760   0.402 -1.2497  1.3209 -1.2206
22202SOL    HW268614   8.943   1.784   0.542 -0.4671 -0.0929 -0.6790
22203SOL     OW68615   3.744   4.518   8.013 -0.5857 -0.4037 -0.9932
22203SOL    HW168616   3.653   4.506   8.042 -0.7025 -1.8682 -1.8374
22203SOL    HW268617   3.796   4.512   8.093 -1.1497 -0.7282 -0.6430
22204SOL     OW68618   5.332  10.283   3.910  0.2019 -0.8748  0.1922
22204SOL    HW168619   5.335  10.241   3.996  0.5236 -1.3312 -0.0379
22204SOL    HW268620   5.294  10.369   3.926  0.7783 -0.7426  0.8741
22205SOL     OW68621   6.846   5.413   1.657  0.1070 -0.0556  0.4389
22205SOL    HW168622   6.889   5.493   1.626 -0.9572 -0.5097 -2.4897
22205SOL    HW268623   6.890   5.342   1.610  0.2154 -1.1302  2.0807
22206SOL     OW68624   5.029   4.719   2.005 -0.1152  0.0046  0.2461
22206SOL    HW168625   5.114   4.687   1.973 -0.4447  1.2115 -2.0567
22206SOL    HW268626   5.018   4.804   1.963 -1.4012  1.0089  2.4414
22207SOL     OW68627   1.004   0.736   3.988 -0.4150 -0.3698  0.0734
22207SOL    HW168628   0.961   0.757   4.070 -0.8282  2.1980 -0.7194
22207SOL    HW268629   0.984   0.643   3.973 -1.7585 -0.4308  1.9882
22208SOL     OW68630   0.104   2.076   2.999  0.9284  0.4343 -0.2337
22208SOL    HW168631   0.162   2.146   2.969  2.1108  0.0561  1.0354
22208SOL    HW268632   0.163   2.012   3.039 -0.2401 -0.7428 -0.3374
22209SOL     OW68633   4.041   2.613   2.964 -0.3702  0.5013 -0.0127
22209SOL    HW168634   4.032   2.529   2.919  1.6514 -0.5189  1.3196
22209SOL    HW268635   3.997   2.601   3.048 -0.4024  0.8939  0.0291
22210SOL     OW68636   5.923   8.165   5.609  0.0706  0.2294  0.6448
22210SOL    HW168637   5.867   8.176   5.533 -0.1556  0.0527  0.7851
22210SOL    HW268638   5.871   8.194   5.683 -0.4041 -1.3470  0.9696
22211SOL     OW68639   8.925   6.387   7.769 -0.4691 -0.5603  0.1909
22211SOL    HW168640   9.014   6.361   7.746 -0.1358  0.8122 -0.1460
22211SOL    HW268641   8.872   6.356   7.696 -0.5644 -2.9048  1.1796
22212SOL     OW68642  10.226   0.348   7.015 -0.2242  0.1284  0.3693
22212SOL    HW168643  10.186   0.276   6.967 -1.7994  1.2705 -0.1084
22212SOL    HW268644  10.162   0.419   7.010  1.4213  1.7029  0.4845
22213SOL     OW68645   7.564   6.182   8.710  0.4821 -0.5868  0.1025
22213SOL    HW168646   7.571   6.272   8.678 -0.4738 -0.5552 -0.0353
22213SOL    HW268647   7.639   6.138   8.669  2.7751  0.7733  2.5264
22214SOL     OW68648   9.791   4.332   6.722  0.1053  0.3747  0.1177
22214SOL    HW168649   9.820   4.285   6.800 -0.5531 -0.9260 -0.3898
22214SOL    HW268650   9.857   4.400   6.709  0.8384 -0.1119  1.1507
22215SOL     OW68651   9.639   2.509   5.942  0.1329  0.0921  0.6282
22215SOL    HW168652   9.573   2.441   5.951 -0.3588  0.6507  1.3290
22215SOL    HW268653   9.594   2.582   5.900  0.7398 -0.1032 -0.4141
22216SOL     OW68654   2.870   9.964   2.663 -0.3592 -0.3096  0.6420
22216SOL    HW168655   2.904  10.042   2.619 -0.0721 -0.1197  1.2025
22216SOL    HW268656   2.905   9.891   2.612  0.3028 -0.0998  0.7944
22217SOL     OW68657   2.387   6.402   0.676  0.3325 -0.2409  0.0796
22217SOL    HW168658   2.423   6.491   0.686 -0.7072  0.3892 -1.4050
22217SOL    HW268659   2.422   6.354   0.751  1.8836  1.0975  0.2779
22218SOL     OW68660   4.588   3.690   4.156 -0.1683 -0.0748 -0.0005
22218SOL    HW168661   4.608   3.598   4.138  0.3339 -0.3725  1.8841
22218SOL    HW268662   4.642   3.739   4.095 -0.5500 -1.0171 -1.1368
22219SOL     OW68663   2.539   0.661   9.095  0.7431 -0.2572  0.4472
22219SOL    HW168664   2.564   0.749   9.122  0.5765  1.3522 -3.8155
22219SOL    HW268665   2.451   0.649   9.131  0.3710  1.7934  0.3431
22220SOL     OW68666   5.332   8.536   8.515  0.2018 -0.2113  0.8061
22220SOL    HW168667   5.371   8.457   8.475  0.3698  0.5961 -0.7071
22220SOL    HW268668   5.254   8.552   8.463  0.9620  1.4562  0.1131
22221SOL     OW68669   6.485   5.899   2.140  0.1008 -0.2666 -0.4900
22221SOL    HW168670   6.395   5.924   2.163  0.0115 -1.6644  0.8526
22221SOL    HW268671   6.485   5.895   2.044 -1.3488 -0.5104 -0.5018
22222SOL     OW68672   9.475  10.937   1.200 -0.2919  0.3785  0.2556
22222SOL    HW168673   9.406  10.974   1.256 -0.7621  1.4907 -0.9930
22222SOL    HW268674   9.494  10.852   1.239 -1.2451  0.7243  1.5633
22223SOL     OW68675   4.159   7.025   3.599 -0.1550 -0.3152 -0.1324
22223SOL    HW168676   4.069   7.035   3.570  0.0440  1.7919 -0.1984
22223SOL    HW268677   4.212   7.036   3.520  0.1853 -0.9670 -0.0029
22224SOL     OW68678   6.649   0.475   8.040 -0.9983 -0.1866 -0.2570
22224SOL    HW168679   6.692   0.554   8.007 -0.0451 -1.0448 -1.1358
22224SOL    HW268680   6.719   0.409   8.041 -1.6978 -0.9358  0.7816
22225SOL     OW68681   5.092   5.404   4.405 -0.5395 -0.0508  0.5182
22225SOL    HW168682   5.079   5.333   4.342  1.1418  1.8908 -2.2493
22225SOL    HW268683   5.187   5.415   4.409 -0.7495  2.6874 -0.0374
22226SOL     OW68684   8.147   8.848   3.643  0.7397 -0.0395 -0.3631
22226SOL    HW168685   8.081   8.783   3.664 -0.8812  0.8798 -2.2165
22226SOL    HW268686   8.231   8.802   3.652 -0.3154 -2.3134 -1.3380
22227SOL     OW68687   8.421   6.168  10.263 -0.3606 -0.5011 -0.3325
22227SOL    HW168688   8.395   6.090  10.214 -3.0098 -0.6168  1.0663
22227SOL    HW268689   8.421   6.140  10.355 -0.9497  1.0204  0.1615
22228SOL     OW68690   8.940  10.269   3.524  0.0100 -0.3827  0.3513
22228SOL    HW168691   8.863  10.216   3.503  1.1630 -1.8676 -0.3897
22228SOL    HW268692   8.920  10.308   3.609 -1.7642 -0.2891 -0.0727
22229SOL     OW68693   7.523   1.242   5.811 -0.1922  1.2382 -0.0088
22229SOL    HW168694   7.465   1.231   5.887  0.7872 -0.7930  0.5357
22229SOL    HW268695   7.465   1.269   5.740 -1.9439 -1.1149  0.3965
22230SOL     OW68696   1.668   6.710  10.002  0.3704  0.4026 -0.3730
22230SOL    HW168697   1.746   6.655   9.999 -0.9201 -1.5854  0.5409
22230SOL    HW268698   1.652   6.735   9.911  0.3096 -1.8234 -1.0340
22231SOL     OW68699   8.120   2.449   0.456  0.4652  1.1961  0.3851
22231SOL    HW168700   8.190   2.383   0.454  0.9813  1.6951  1.4640
22231SOL    HW268701   8.154   2.522   0.405 -0.6775  0.1579 -2.0907
22232SOL     OW68702   8.959   4.617   1.418  0.3849  0.0547  0.0055
22232SOL    HW168703   8.907   4.657   1.489  0.2639  0.6004 -0.3788
22232SOL    HW268704   8.904   4.545   1.386  0.2753  0.0429  0.2169
22233SOL     OW68705   9.427   8.069   5.166  0.5519 -0.0809  0.8589
22233SOL    HW168706   9.373   8.083   5.243  1.3247  0.4056  1.3297
22233SOL    HW268707   9.517   8.072   5.200  0.8718 -2.1484  0.3355
22234SOL     OW68708   3.026   3.413   3.553  0.3946 -0.0031 -0.1983
22234SOL    HW168709   3.042   3.382   3.643  0.1426 -1.5908 -0.6655
22234SOL    HW268710   3.112   3.410   3.512  0.6991  1.6875  0.2294
22235SOL     OW68711   8.595   1.528   7.904 -0.8042  0.0722 -0.1582
22235SOL    HW168712   8.565   1.527   7.995  2.0512 -0.7524  0.8913
22235SOL    HW268713   8.515   1.536   7.853 -2.5075  0.8330  2.4089
22236SOL     OW68714   8.361   5.393   0.544 -0.1819  0.0744 -0.2981
22236SOL    HW168715   8.345   5.404   0.451 -2.4108  0.8821  0.1126
22236SOL    HW268716   8.281   5.352   0.578  0.2326  0.5601  1.3960
22237SOL     OW68717   7.413   9.541   3.055 -0.3142 -0.3178 -0.3885
22237SOL    HW168718   7.401   9.457   3.098 -0.3178  0.6361  1.5851
22237SOL    HW268719   7.436   9.601   3.126  0.0184  1.2786 -1.7858
22238SOL     OW68720   4.686   3.343   7.079 -0.0718 -0.5315  0.0514
22238SOL    HW168721   4.680   3.417   7.140 -0.2842  0.6318 -1.3239
22238SOL    HW268722   4.679   3.383   6.992 -1.2978 -2.3003 -0.7165
22239SOL     OW68723   7.479   5.978   9.547 -0.6911 -0.4667 -0.2925
22239SOL    HW168724   7.544   5.957   9.615  1.3143 -1.4675 -2.3859
22239SOL    HW268725   7.489   5.908   9.482 -1.4964  1.2411 -2.3545
22240SOL     OW68726   5.595   2.693   8.426 -0.3192  0.2858  0.1522
22240SOL    HW168727   5.689   2.687   8.408 -0.2311  0.2992  0.6063
22240SOL    HW268728   5.590   2.737   8.511 -0.7237 -0.0037  0.2794
22241SOL     OW68729   7.144   4.378   2.149 -0.2117  0.8513 -0.1282
22241SOL    HW168730   7.117   4.465   2.178 -3.0387 -0.7448  2.6461
22241SOL    HW268731   7.067   4.323   2.163  1.3220 -2.0721 -2.1190
22242SOL     OW68732   1.818   1.064   6.862  0.2050  0.0684  0.2165
22242SOL    HW168733   1.766   1.006   6.919 -0.8484  1.7148  0.9939
22242SOL    HW268734   1.752   1.115   6.815  1.1014 -0.1872 -1.3871
22243SOL     OW68735   7.752   5.395   1.407  0.3224 -0.6828  0.3980
22243SOL    HW168736   7.713   5.338   1.473 -3.7929  1.7388  0.3939
22243SOL    HW268737   7.748   5.483   1.445  2.9903  0.1670 -1.0117
22244SOL     OW68738   5.002   1.735   3.206 -0.0692 -0.1902 -0.0130
22244SOL    HW168739   4.984   1.829   3.217 -2.5487 -0.5110 -0.7373
22244SOL    HW268740   4.986   1.697   3.292  0.5713 -0.0247  0.1871
22245SOL     OW68741   3.934   7.147   1.392 -0.1128 -0.5727 -0.2467
22245SOL    HW168742   3.967   7.072   1.441  1.4162 -0.4461 -1.0430
22245SOL    HW268743   4.011   7.200   1.374 -1.0034  0.5955 -0.7220
22246SOL     OW68744   4.009   1.862   6.789 -0.1537 -0.6623  0.0919
22246SOL    HW168745   3.951   1.865   6.713  1.1162 -1.5869 -0.9733
22246SOL    HW268746   4.085   1.914   6.763  0.5547 -1.4741  0.4625
22247SOL     OW68747   8.611   3.563   6.057  0.4710  1.2038 -0.0568
22247SOL    HW168748   8.526   3.572   6.014  0.6364 -1.3474 -1.0938
22247SOL    HW268749   8.592   3.516   6.139  0.7561  1.6019  0.2419
22248SOL     OW68750   3.255  10.631   0.088  0.1898 -0.0535  0.0227
22248SOL    HW168751   3.342  10.671   0.094 -0.3497  1.1809  0.0381
22248SOL    HW268752   3.271  10.538   0.075  1.5150  0.2677 -0.7411
22249SOL     OW68753   9.918   2.497   7.765 -0.2550 -0.5420 -0.0396
22249SOL    HW168754   9.973   2.564   7.806 -1.4934 -0.5985  1.8596
22249SOL    HW268755   9.979   2.442   7.717  0.9556  1.1508 -0.5234
22250SOL     OW68756   4.350   4.721   3.712 -0.3342 -0.0155  0.3595
22250SOL    HW168757   4.354   4.807   3.753  0.0910 -0.1816  0.6692
22250SOL    HW268758   4.370   4.737   3.620 -2.7410  0.5804 -0.1433
22251SOL     OW68759   2.309   5.771   0.686  0.0995  0.0146 -0.0097
22251SOL    HW168760   2.398   5.762   0.652 -0.9363  0.1343 -3.0863
22251SOL    HW268761   2.301   5.701   0.750  1.5283 -1.9630 -1.8326
22252SOL     OW68762   9.196   1.572   2.608  0.0028 -0.0419  0.4490
22252SOL    HW168763   9.251   1.588   2.685  0.7301 -0.2378 -0.0130
22252SOL    HW268764   9.110   1.607   2.632  1.1524  3.6144 -0.0815
22253SOL     OW68765   1.958   7.688   9.393  0.1930  0.1328  0.2271
22253SOL    HW168766   1.871   7.661   9.425  0.7339 -1.6420  0.3149
22253SOL    HW268767   1.948   7.693   9.298  0.5272 -2.5403 -0.0488
22254SOL     OW68768   6.498   3.173   2.714  0.5071 -0.0495  0.1265
22254SOL    HW168769   6.542   3.198   2.632  0.5304  0.1076  0.1868
22254SOL    HW268770   6.437   3.104   2.688  0.2754  0.2323 -0.0812
22255SOL     OW68771   3.232   2.034   6.758  0.1709 -0.2219 -0.4803
22255SOL    HW168772   3.322   2.068   6.766  0.7475 -1.5681 -0.9879
22255SOL    HW268773   3.193   2.048   6.844  1.3192 -0.8251  0.1610
22256SOL     OW68774   4.697   9.721   3.600 -0.0581  0.3549  0.8390
22256SOL    HW168775   4.608   9.734   3.632 -0.0334  1.5704  0.4313
22256SOL    HW268776   4.702   9.773   3.520 -0.1028 -2.5367 -1.2003
22257SOL     OW68777   6.390   3.328   4.190  0.0794 -0.1490  0.2102
22257SOL    HW168778   6.466   3.365   4.145 -0.8815  0.4342 -0.9621
22257SOL    HW268779   6.370   3.248   4.141  0.3224 -0.6550  0.9207
22258SOL     OW68780   9.536  10.010   1.940 -0.0467  0.2167 -0.3860
22258SOL    HW168781   9.544  10.066   2.017 -0.3164  2.3547 -1.7995
22258SOL    HW268782   9.446  10.025   1.910  0.0231 -0.6628 -1.0702
22259SOL     OW68783   6.477   4.060   8.006  0.3131 -0.2148  0.2116
22259SOL    HW168784   6.534   4.119   8.056  0.0831  0.6575 -0.5342
22259SOL    HW268785   6.443   3.998   8.071 -2.5583  2.7958  1.8624
22260SOL     OW68786   1.688   2.210  10.875 -0.0853 -0.0175 -0.1454
22260SOL    HW168787   1.670   2.301  10.854  0.7718  0.1570 -0.1490
22260SOL    HW268788   1.774   2.211  10.916 -0.4962 -0.7025  0.7824
22261SOL     OW68789   8.885   6.506   1.831  0.0447  0.7305  0.2218
22261SOL    HW168790   8.840   6.528   1.750  2.0453 -1.6971 -1.7371
22261SOL    HW268791   8.964   6.560   1.831  1.8120 -1.6615 -1.3886
22262SOL     OW68792   2.566   6.068   8.338  0.6247 -1.0456  0.0502
22262SOL    HW168793   2.564   6.066   8.434  1.3736  1.8535  0.2183
22262SOL    HW268794   2.619   6.144   8.317 -4.5667  2.4042 -2.5836
22263SOL     OW68795   6.640   0.900   7.224 -0.0957 -0.7497 -0.0421
22263SOL    HW168796   6.641   0.855   7.139  0.3971  0.3023 -0.6255
22263SOL    HW268797   6.562   0.955   7.221 -0.2334 -0.9232  0.3117
22264SOL     OW68798   7.951   1.185   2.684  0.1003 -0.2255 -0.4076
22264SOL    HW168799   7.977   1.270   2.649 -1.1776  0.2060 -0.3638
22264SOL    HW268800   8.033   1.137   2.693  1.0410  1.5059  0.9682
22265SOL     OW68801   1.601  10.040   7.895  0.1945 -0.1115 -0.3246
22265SOL    HW168802   1.621  10.128   7.926  1.6823 -0.4021 -0.3911
22265SOL    HW268803   1.545  10.054   7.818 -1.3340  0.6819  0.8645
22266SOL     OW68804   3.826   7.021   4.086  0.4678 -0.1324  0.0416
22266SOL    HW168805   3.912   7.017   4.126 -0.4350 -0.9595  2.0247
22266SOL    HW268806   3.768   7.053   4.155 -0.9787 -0.4507 -0.9628
22267SOL     OW68807   7.774   3.916   4.355  0.1107 -0.2935  0.3006
22267SOL    HW168808   7.690   3.902   4.400  0.3787 -2.1275  0.3056
22267SOL    HW268809   7.753   3.973   4.281 -1.0639 -0.4180  0.5249
22268SOL     OW68810   5.889   5.353   9.953  0.1674 -0.0026  0.0537
22268SOL    HW168811   5.871   5.295  10.027 -0.0546 -0.3111 -0.2356
22268SOL    HW268812   5.924   5.432   9.993 -2.0655  0.7378  0.6967
22269SOL     OW68813   7.738   7.074   5.546 -0.1403  0.0391 -0.3327
22269SOL    HW168814   7.702   6.990   5.519 -2.0588 -0.0641  2.1555
22269SOL    HW268815   7.694   7.138   5.491 -0.7271 -0.4233 -0.4130
22270SOL     OW68816   2.061   1.063   9.748  0.3582 -0.0585 -0.1108
22270SOL    HW168817   2.044   1.155   9.770 -2.0348 -0.6262  0.7278
22270SOL    HW268818   2.077   1.064   9.654  2.9285  1.4759  0.2533
22271SOL     OW68819   8.262   3.090   6.556  0.3081 -0.4634  0.0887
22271SOL    HW168820   8.301   3.168   6.517  0.7277 -1.0417 -0.6562
22271SOL    HW268821   8.334   3.047   6.602  0.3346 -1.0250 -0.4783
22272SOL     OW68822   9.260   9.563   2.282  0.1113  0.2014  0.1058
22272SOL    HW168823   9.234   9.479   2.319  0.0317  0.0225 -0.3521
22272SOL    HW268824   9.184   9.620   2.297 -0.3805 -0.1937 -0.8163
22273SOL     OW68825   0.551   4.065   7.557  0.2561 -0.3830 -0.4795
22273SOL    HW168826   0.528   4.155   7.531  1.4393  0.2184  0.4531
22273SOL    HW268827   0.623   4.042   7.499 -1.2715 -1.5055 -2.0363
22274SOL     OW68828   7.286   0.975   8.185 -0.0193  0.2903  0.2256
22274SOL    HW168829   7.246   0.897   8.223  0.8902  0.3571  1.3621
22274SOL    HW268830   7.216   1.016   8.135 -0.0874 -2.1847 -1.9225
22275SOL     OW68831   1.025   6.307   7.193  0.2357 -0.0173  0.0061
22275SOL    HW168832   0.996   6.381   7.246 -0.3849  0.4940 -1.0375
22275SOL    HW268833   0.955   6.242   7.203  0.3327 -0.1034  0.1506
22276SOL     OW68834   0.658   1.444  10.267  0.4534 -0.0667 -0.0546
22276SOL    HW168835   0.611   1.381  10.213 -1.5074  0.1989  1.2661
22276SOL    HW268836   0.740   1.399  10.290  0.3512 -1.0063 -1.4228
22277SOL     OW68837   4.100   0.681   1.923 -0.4481  0.3932 -0.0844
22277SOL    HW168838   4.139   0.761   1.886 -0.6775  0.7278  0.3869
22277SOL    HW268839   4.174   0.632   1.957 -0.4635  1.3344  1.4046
22278SOL     OW68840   3.404   5.316   2.467 -0.5278  0.1433 -0.4984
22278SOL    HW168841   3.379   5.225   2.483  0.5590  0.1448  1.6509
22278SOL    HW268842   3.329   5.367   2.496 -0.9245 -0.0478 -1.1815
22279SOL     OW68843  10.249   4.779   6.631  0.5025  0.0434  0.0341
22279SOL    HW168844  10.242   4.816   6.543  0.5947 -1.0388 -0.4485
22279SOL    HW268845  10.343   4.764   6.644  0.2891 -2.7907 -1.0177
22280SOL     OW68846   9.323   8.407   8.100  0.8462 -0.2770 -0.0617
22280SOL    HW168847   9.373   8.467   8.044 -0.8213  0.0494 -1.2574
22280SOL    HW268848   9.234   8.442   8.099  0.3549 -1.3967  1.2460
22281SOL     OW68849   9.391   1.219  10.275 -0.1605  0.5807 -0.4971
22281SOL    HW168850   9.393   1.311  10.301 -0.4162  0.0593  1.4866
22281SOL    HW268851   9.454   1.176  10.332  1.1967 -0.2730 -2.4989
22282SOL     OW68852   8.355  10.110   3.831 -0.4062  0.4665  0.5452
22282SOL    HW168853   8.336  10.034   3.887 -1.0673 -0.2693 -0.6410
22282SOL    HW268854   8.403  10.170   3.888 -1.4501 -0.0527  2.0276
22283SOL     OW68855   9.749   2.359   4.680 -0.1619 -0.4439  0.8234
22283SOL    HW168856   9.828   2.304   4.681 -0.1471 -0.4470 -0.1721
22283SOL    HW268857   9.759   2.416   4.756  0.7703 -0.4831  0.7365
22284SOL     OW68858   3.589   7.143   6.299 -0.2592  0.4056 -0.5051
22284SOL    HW168859   3.526   7.167   6.231 -0.8163 -0.5993 -0.3673
22284SOL    HW268860   3.626   7.226   6.328 -2.7208  1.2362  0.5554
22285SOL     OW68861   0.026   9.984   5.637 -0.1786  0.8121 -0.4093
22285SOL    HW168862   0.010  10.070   5.674 -0.7027  0.4153  0.3045
22285SOL    HW268863   0.116   9.989   5.603  0.1796  1.3104  0.5728
22286SOL     OW68864  11.042   4.912   3.983 -0.2154  0.4631 -0.2438
22286SOL    HW168865  11.109   4.973   4.015  1.2275 -2.0432  1.9424
22286SOL    HW268866  11.070   4.889   3.894  1.9739 -0.5456  0.6320
22287SOL     OW68867   8.677   2.180   5.631  0.3750  0.5029 -0.4781
22287SOL    HW168868   8.648   2.111   5.691  0.8496 -0.1673 -1.0091
22287SOL    HW268869   8.598   2.232   5.614 -0.1240 -0.2764 -0.5627
22288SOL     OW68870  10.619   3.346  10.249 -0.9490 -0.1340 -0.1390
22288SOL    HW168871  10.646   3.438  10.247  5.6013 -1.5975  0.9963
22288SOL    HW268872  10.612   3.321  10.156  3.6511  0.2800 -0.8010
22289SOL     OW68873  11.029   1.393   0.258  0.0858  0.3866  0.0535
22289SOL    HW168874  11.036   1.329   0.187 -0.5640 -1.1406  1.2828
22289SOL    HW268875  10.997   1.342   0.333 -3.0295  2.5933  0.4394
22290SOL     OW68876   8.151  10.862   9.734  0.2138 -0.3642  0.7973
22290SOL    HW168877   8.126  10.893   9.647 -2.9599 -1.0406  1.3329
22290SOL    HW268878   8.184  10.940   9.779  3.1909 -0.2518 -1.2804
22291SOL     OW68879   7.702  10.172   3.842 -0.1814  0.5585 -0.4424
22291SOL    HW168880   7.760  10.141   3.772 -1.0657  0.2053 -1.0385
22291SOL    HW268881   7.659  10.092   3.874  2.2124  0.2521  2.4610
22292SOL     OW68882   8.471   3.456   8.770  0.3470  0.3713  0.9160
22292SOL    HW168883   8.546   3.513   8.755  1.0958 -0.3098  1.8882
22292SOL    HW268884   8.498   3.399   8.842  0.3977 -2.5346 -1.2295
22293SOL     OW68885  10.289   6.195  10.683  0.5772 -0.1310 -0.7763
22293SOL    HW168886  10.273   6.142  10.761  1.0903 -0.6736 -1.0360
22293SOL    HW268887  10.320   6.133  10.617  0.2158  0.3336 -1.3954
22294SOL     OW68888   5.506   3.293   0.062 -0.0810  0.0722 -1.0741
22294SOL    HW168889   5.576   3.230   0.080 -0.7322 -0.0463  1.2809
22294SOL    HW268890   5.444   3.246   0.007  0.4661 -0.6375 -1.0927
22295SOL     OW68891   3.562   7.851   1.628  0.4101 -0.2150  0.4652
22295SOL    HW168892   3.520   7.874   1.711 -1.3095  0.4428 -0.5480
22295SOL    HW268893   3.605   7.767   1.645  0.2046 -0.0366  2.0355
22296SOL     OW68894   2.404   8.292   0.835 -0.3205 -0.1195  0.6373
22296SOL    HW168895   2.398   8.345   0.756 -0.9542 -0.2593  0.5803
22296SOL    HW268896   2.463   8.340   0.893  0.7125 -0.3667 -0.1832
22297SOL     OW68897   3.573   9.500   9.784  0.3881 -0.0480  0.5824
22297SOL    HW168898   3.539   9.418   9.748  0.8093 -1.4060  3.0557
22297SOL    HW268899   3.495   9.557   9.792  0.1612  0.0119 -1.5304
22298SOL     OW68900   0.961   7.658   6.919  0.2982 -0.6439  0.2754
22298SOL    HW168901   1.020   7.715   6.969 -0.0831 -1.5482  1.8393
22298SOL    HW268902   0.913   7.609   6.986 -0.5697 -1.6067 -0.9975
22299SOL     OW68903   8.046   4.845   1.370 -0.5338  0.2124 -0.1202
22299SOL    HW168904   8.119   4.908   1.362 -0.7389  0.1546 -3.5080
22299SOL    HW268905   8.087   4.767   1.409  1.1723  0.3225 -1.5529
22300SOL     OW68906   1.258   6.649   7.708 -0.0200  0.3453 -0.2734
22300SOL    HW168907   1.214   6.566   7.690  1.4074 -0.4451 -0.3370
22300SOL    HW268908   1.190   6.706   7.742 -1.1849 -0.6259 -0.8969
22301SOL     OW68909   7.329   1.774   9.105  0.0801 -0.3471  0.0379
22301SOL    HW168910   7.372   1.700   9.062  1.5158  1.1426 -1.2206
22301SOL    HW268911   7.267   1.806   9.040  0.2590  0.2274  0.1525
22302SOL     OW68912  10.848   8.845   0.067 -0.6236 -0.1697  0.5845
22302SOL    HW168913  10.870   8.782   0.136 -2.3404 -2.5611 -0.8913
22302SOL    HW268914  10.902   8.819  -0.007  0.6810  1.9339  0.7182
22303SOL     OW68915   9.345   7.064  10.349  0.3692 -0.1675  0.0939
22303SOL    HW168916   9.342   7.159  10.364  1.6236  0.0499 -0.8523
22303SOL    HW268917   9.408   7.053  10.278  0.2892 -1.7237  0.2273
22304SOL     OW68918   6.201   9.516   1.249 -0.1105  0.3440  0.0519
22304SOL    HW168919   6.292   9.522   1.221 -0.3769  0.1768 -0.9016
22304SOL    HW268920   6.150   9.535   1.170 -0.9039 -1.2112  0.1285
22305SOL     OW68921   2.345   4.823   9.203  0.3018  0.2228  0.1853
22305SOL    HW168922   2.420   4.774   9.240  0.2164  1.0276  1.5137
22305SOL    HW268923   2.343   4.798   9.111  1.0459 -1.2793  0.5369
22306SOL     OW68924  10.353   6.113   9.065 -0.3767 -0.5730 -0.2880
22306SOL    HW168925  10.339   6.201   9.030  1.1710  0.0733  0.6483
22306SOL    HW268926  10.429   6.080   9.018  0.6511 -0.3699  1.1843
22307SOL     OW68927   4.137   4.299   1.649  0.2859  0.8470 -0.0464
22307SOL    HW168928   4.178   4.367   1.596  0.1007  1.7442  0.9169
22307SOL    HW268929   4.175   4.310   1.736  0.8661 -0.8305 -0.0480
22308SOL     OW68930   1.899  10.090   7.234 -0.3555 -0.1860  0.3809
22308SOL    HW168931   1.978  10.094   7.180 -1.4152  0.5190 -1.1774
22308SOL    HW268932   1.905  10.167   7.290  0.2730 -0.3888  0.6100
22309SOL     OW68933   3.346   1.911   5.886  0.1374 -0.0901  0.6337
22309SOL    HW168934   3.354   1.960   5.968 -1.0923  0.5873  0.3706
22309SOL    HW268935   3.259   1.932   5.854 -0.8309 -3.0998  0.9301
22310SOL     OW68936   4.969   5.911   8.761  0.0117 -0.1331  0.3228
22310SOL    HW168937   5.030   5.843   8.788  1.8226  1.1587 -0.3439
22310SOL    HW268938   4.966   5.904   8.666 -0.7943 -0.0906  0.3379
22311SOL     OW68939   8.887   2.505  11.093  0.7112  0.3910 -0.0783
22311SOL    HW168940   8.865   2.586  11.047 -0.2924 -0.2258 -0.7310
22311SOL    HW268941   8.902   2.532  11.184  0.0730  1.2725 -0.2172
22312SOL     OW68942   3.938   3.471   2.665  0.6526  0.9309 -0.0690
22312SOL    HW168943   3.907   3.559   2.647 -0.1136  1.5146  3.4417
22312SOL    HW268944   4.033   3.481   2.675  0.7822  1.0029 -1.2199
22313SOL     OW68945  10.521   2.764   0.251 -0.8688 -0.8183  0.6737
22313SOL    HW168946  10.537   2.687   0.197  0.1781  0.3424 -0.7788
22313SOL    HW268947  10.573   2.749   0.330  0.7043 -0.8896 -0.3328
22314SOL     OW68948   3.931   6.854   6.112  0.2367 -0.1188 -0.3953
22314SOL    HW168949   3.934   6.762   6.138  0.6226 -0.0315 -0.1423
22314SOL    HW268950   3.880   6.897   6.180  0.7106 -0.0058 -0.1093
22315SOL     OW68951   6.782   0.286   4.961  0.0896  0.5356  0.1522
22315SOL    HW168952   6.779   0.191   4.975 -0.9684  0.4914 -0.2770
22315SOL    HW268953   6.763   0.297   4.868 -0.3697  1.1930  0.3163
22316SOL     OW68954   9.448   7.384   0.426 -0.2097 -0.0613  0.6596
22316SOL    HW168955   9.454   7.439   0.504  0.9457  0.2473  0.3708
22316SOL    HW268956   9.471   7.441   0.354  0.9700 -0.9003  0.3465
22317SOL     OW68957  10.017   8.145   2.206  0.3740 -0.0674  0.1778
22317SOL    HW168958  10.054   8.212   2.149  0.3380  0.0940  0.3383
22317SOL    HW268959   9.922   8.156   2.197  0.3675  0.0392  0.3546
22318SOL     OW68960   5.339   0.164   1.867 -0.2425 -0.1280  0.2577
22318SOL    HW168961   5.397   0.106   1.816  0.1094 -1.6193  2.2280
22318SOL    HW268962   5.395   0.198   1.937 -0.6663  2.0401 -0.3704
22319SOL     OW68963   0.801   1.885   2.889  0.4223  0.0435  0.0873
22319SOL    HW168964   0.892   1.911   2.877  0.4539 -0.3113 -0.4715
22319SOL    HW268965   0.750   1.953   2.846  0.3566  0.8436  1.3582
22320SOL     OW68966   2.483   6.229  10.999  0.0205  0.0019 -0.1318
22320SOL    HW168967   2.551   6.206  10.934  1.3190  2.4940  0.2180
22320SOL    HW268968   2.532   6.255  11.076 -1.4735 -0.8383  1.1495
22321SOL     OW68969   7.838   9.955   0.294  0.3175  0.2639  0.2721
22321SOL    HW168970   7.839   9.903   0.375  1.9145 -0.6208 -0.2791
22321SOL    HW268971   7.827   9.890   0.224  0.1681  0.9039 -0.3050
22322SOL     OW68972   8.309   6.255   9.877 -0.2883  0.6322 -0.2219
22322SOL    HW168973   8.303   6.233   9.970 -1.6340  3.2073  0.4154
22322SOL    HW268974   8.399   6.285   9.865 -0.0012 -0.0682  0.1530
22323SOL     OW68975   4.360   0.576   8.870 -0.4603 -0.1262  0.1074
22323SOL    HW168976   4.283   0.601   8.920 -2.7917 -1.5343 -2.5020
22323SOL    HW268977   4.391   0.496   8.914 -0.6819  0.2406  0.9642
22324SOL     OW68978  10.851   2.122   7.458  0.1634  0.2417  0.0052
22324SOL    HW168979  10.802   2.134   7.376  0.9754  0.5815 -0.4437
22324SOL    HW268980  10.934   2.168   7.443 -0.5331  2.2315  1.8369
22325SOL     OW68981   4.010   4.068   1.541 -0.4477 -0.5371 -0.0990
22325SOL    HW168982   4.094   4.049   1.582  0.7311  0.1710 -2.0311
22325SOL    HW268983   4.025   4.151   1.495 -2.1712 -0.4692 -0.5855
22326SOL     OW68984   6.070  10.348   5.183 -0.3167  0.1964 -0.3167
22326SOL    HW168985   6.041  10.306   5.264  0.9257 -0.4347 -0.1734
22326SOL    HW268986   6.060  10.281   5.117 -0.2560  0.3452 -0.4780
22327SOL     OW68987   9.213  10.813  10.759  0.6055  0.4082  0.3065
22327SOL    HW168988   9.261  10.741  10.718  0.0622  0.1681  0.0945
22327SOL    HW268989   9.123  10.804  10.729  0.3593  0.6988  0.9208
22328SOL     OW68990   5.936   5.772   2.422  0.0681 -0.2692  0.3341
22328SOL    HW168991   6.031   5.759   2.431  0.1562 -0.2007 -0.4224
22328SOL    HW268992   5.927   5.865   2.400 -0.1854 -0.2471  0.5334
22329SOL     OW68993   2.916   4.882   5.430  0.1925 -0.1708  0.5973
22329SOL    HW168994   2.979   4.953   5.440  0.3115  0.2417 -2.3875
22329SOL    HW268995   2.881   4.892   5.342 -2.4900 -1.6986  1.3561
22330SOL     OW68996   7.224   4.279   8.524 -0.7176 -0.2411  0.5554
22330SOL    HW168997   7.318   4.265   8.514 -0.7991  0.0659 -0.7391
22330SOL    HW268998   7.183   4.211   8.471 -1.2112  0.0767  0.5175
22331SOL     OW68999   6.110   4.261   1.907 -0.5677  0.0626  0.1963
22331SOL    HW169000   6.191   4.291   1.949  0.2775  0.7982 -1.8114
22331SOL    HW269001   6.078   4.191   1.963  0.1813  1.3308  2.3084
22332SOL     OW69002   7.806   6.487   8.839  0.5325  0.5105 -0.4734
22332SOL    HW169003   7.850   6.425   8.781  1.6424  1.7148 -0.9606
22332SOL    HW269004   7.727   6.441   8.867  0.3803 -0.4326 -2.2864
22333SOL     OW69005   3.244   7.208   9.443 -0.3767  0.4877 -0.2195
22333SOL    HW169006   3.306   7.219   9.516 -0.5226  1.4608 -0.2286
22333SOL    HW269007   3.178   7.275   9.458  0.3872  1.7260 -2.0658
22334SOL     OW69008   1.501   0.703   4.949  0.3156 -0.3414 -0.0721
22334SOL    HW169009   1.573   0.653   4.909  1.2103 -0.5910  1.7224
22334SOL    HW269010   1.440   0.636   4.980  0.4954 -0.2500  0.4988
22335SOL     OW69011   9.791   9.919   1.857 -0.5053  0.3179 -0.7192
22335SOL    HW169012   9.707   9.961   1.838 -0.3615  0.5330 -0.8780
22335SOL    HW269013   9.824   9.966   1.934 -1.6703 -1.3629  0.8723
22336SOL     OW69014   2.196   3.711   4.229  0.3894  0.7308  0.3592
22336SOL    HW169015   2.108   3.704   4.264  0.1846 -1.1048 -0.3992
22336SOL    HW269016   2.183   3.723   4.135  0.8732 -1.5034 -0.0647
22337SOL     OW69017   7.049   3.669   1.537 -0.3373  0.1682 -0.7103
22337SOL    HW169018   7.124   3.627   1.580 -0.2892  0.6925 -0.2747
22337SOL    HW269019   7.082   3.692   1.450  0.3622  1.3635 -0.1571
22338SOL     OW69020   1.775  11.065   0.766  0.3944  0.4158  0.1635
22338SOL    HW169021   1.843  11.019   0.718 -1.2729 -1.3553 -0.6612
22338SOL    HW269022   1.772  11.022   0.851  0.4979  0.6797  0.3006
22339SOL     OW69023   6.810   5.892   1.760  0.4012  0.2473 -0.6811
22339SOL    HW169024   6.824   5.950   1.835 -0.3658  1.2275 -1.2821
22339SOL    HW269025   6.797   5.806   1.799 -1.6236  1.0072  0.4562
22340SOL     OW69026   5.608  10.591   1.262  0.4625 -0.6446 -0.2542
22340SOL    HW169027   5.630  10.665   1.205 -1.6822  0.0455 -0.2878
22340SOL    HW269028   5.610  10.627   1.350 -1.4973 -0.2200 -0.3304
22341SOL     OW69029   1.838   9.431   6.347  0.4689 -0.8576 -0.0334
22341SOL    HW169030   1.878   9.447   6.262  2.1169 -0.3459  0.7911
22341SOL    HW269031   1.847   9.514   6.394  0.7517 -1.4867  1.0732
22342SOL     OW69032   7.344   3.891   9.069  0.4503  0.6431 -0.1864
22342SOL    HW169033   7.254   3.921   9.063  0.7968  2.7375  2.6300
22342SOL    HW269034   7.396   3.967   9.042  1.3921 -0.0674 -0.4395
22343SOL     OW69035   1.842  10.493   1.471  0.0139 -0.3136  0.3336
22343SOL    HW169036   1.818  10.576   1.512  0.3443 -0.3510  0.6047
22343SOL    HW269037   1.764  10.468   1.422 -0.4317 -0.3236  1.0223
22344SOL     OW69038   2.932   7.714   4.824  0.0414  0.0450 -0.0899
22344SOL    HW169039   2.900   7.731   4.735 -1.2510  1.0024  0.5212
22344SOL    HW269040   2.874   7.765   4.880  1.9004  0.8565  1.1981
22345SOL     OW69041   5.391   7.133   3.263 -0.0925  0.5235  0.2424
22345SOL    HW169042   5.349   7.215   3.237  0.2852  0.6398 -0.0163
22345SOL    HW269043   5.440   7.155   3.342  2.4061  1.3240 -1.4016
22346SOL     OW69044   0.561   6.054   4.763  0.5282  0.5689 -0.5135
22346SOL    HW169045   0.625   6.016   4.823  0.0128  2.1434  1.1238
22346SOL    HW269046   0.612   6.115   4.710  0.5454  1.2469  0.2615
22347SOL     OW69047   6.584   2.452   2.742  0.4652 -0.1821 -0.1430
22347SOL    HW169048   6.531   2.381   2.704  1.3621 -1.4800  0.9424
22347SOL    HW269049   6.598   2.425   2.833 -1.3142  2.6611  1.0912
22348SOL     OW69050   8.951   8.121   9.801  0.5265  0.0247  0.3485
22348SOL    HW169051   9.042   8.144   9.785 -0.1919  2.8304 -0.2573
22348SOL    HW269052   8.910   8.124   9.714 -0.6200  1.4170  0.8945
22349SOL     OW69053   0.948   9.845   0.598 -0.4547 -0.1356  0.5652
22349SOL    HW169054   0.925   9.798   0.678  0.6535  0.4736  1.2727
22349SOL    HW269055   1.032   9.807   0.572  0.5705  1.5337  1.2709
22350SOL     OW69056   6.216   5.129   4.853  0.9354  0.2655  0.7312
22350SOL    HW169057   6.259   5.140   4.769 -1.6397 -0.4777 -0.8048
22350SOL    HW269058   6.177   5.041   4.849  0.8478  0.1545  2.7671
22351SOL     OW69059   1.587   1.641   3.529 -0.2839 -0.4974 -0.0994
22351SOL    HW169060   1.668   1.637   3.479  1.2543 -2.5009  2.2995
22351SOL    HW269061   1.565   1.734   3.532  1.0332 -0.0516 -2.1044
22352SOL     OW69062  10.656   4.079   0.211  0.4543  0.1494  0.2256
22352SOL    HW169063  10.649   3.993   0.169  0.6221  0.5108 -0.5706
22352SOL    HW269064  10.567   4.102   0.235 -0.1974  1.3214 -2.8454
22353SOL     OW69065   1.788  10.974   0.500  0.5427 -0.2669 -0.2227
22353SOL    HW169066   1.863  10.979   0.442  1.2230  0.7748  0.7184
22353SOL    HW269067   1.800  11.046   0.562 -1.4254  0.1634 -0.2849
22354SOL     OW69068   2.606   1.480   5.617  0.1708  1.1887  0.2745
22354SOL    HW169069   2.662   1.558   5.614  0.1170  1.2132 -1.9198
22354SOL    HW269070   2.554   1.486   5.537 -2.4418  0.7464  1.8251
22355SOL     OW69071   5.787  10.789   2.256 -0.4829  0.1491  0.0783
22355SOL    HW169072   5.785  10.694   2.266  0.9217  0.2088  1.3115
22355SOL    HW269073   5.757  10.804   2.166 -0.7315 -1.4476 -0.1394
22356SOL     OW69074   8.592   3.114   0.276 -0.3482 -0.8192  0.0632
22356SOL    HW169075   8.669   3.156   0.314 -0.3393 -1.3481  0.6417
22356SOL    HW269076   8.535   3.096   0.351 -2.2753  1.9776 -0.5689
22357SOL     OW69077   8.694   4.884   8.036  0.6480 -0.0124 -0.5362
22357SOL    HW169078   8.713   4.919   8.123  2.5533 -1.6230 -0.2531
22357SOL    HW269079   8.745   4.940   7.977 -2.2443  2.4424 -0.9801
22358SOL     OW69080   8.010   3.519   9.013 -0.3505 -0.5068 -1.0251
22358SOL    HW169081   7.973   3.435   9.038  0.4155  0.0172  2.2967
22358SOL    HW269082   8.096   3.499   8.977 -0.8973 -1.2250 -1.9610
22359SOL     OW69083   7.245   0.499   2.426  0.5175  0.0299  0.0673
22359SOL    HW169084   7.304   0.437   2.383  1.2216 -0.7331  2.0019
22359SOL    HW269085   7.276   0.585   2.398  0.9985 -0.4271 -0.8604
22360SOL     OW69086   4.840   4.936   2.618 -0.0918  0.4040  0.4413
22360SOL    HW169087   4.925   4.895   2.632 -0.2353 -0.6188 -1.3384
22360SOL    HW269088   4.782   4.895   2.682  0.2461 -0.6894  0.0765
22361SOL     OW69089  10.916   9.256   3.632  0.1723 -0.3662 -0.4073
22361SOL    HW169090  10.831   9.293   3.654 -0.6847 -2.9727  1.0991
22361SOL    HW269091  10.942   9.302   3.552 -2.4439  0.8078 -0.6826
22362SOL     OW69092   4.453   7.435   6.082 -0.3033 -0.4220 -0.1532
22362SOL    HW169093   4.476   7.436   5.989 -0.3921  1.9167 -0.2192
22362SOL    HW269094   4.406   7.353   6.094  1.0906 -1.5466 -1.7917
22363SOL     OW69095   0.481   1.977   2.773 -0.8440 -0.1527  0.1634
22363SOL    HW169096   0.453   1.968   2.682 -0.6389 -0.4768  0.1331
22363SOL    HW269097   0.533   2.057   2.774 -1.0647 -0.0063  0.0490
22364SOL     OW69098   3.612   7.457   7.598 -0.3023  0.2532 -0.5183
22364SOL    HW169099   3.692   7.448   7.649 -0.1249  0.4616 -0.7570
22364SOL    HW269100   3.627   7.404   7.520  0.0068  1.0946 -1.0429
22365SOL     OW69101   0.525   1.724   1.679 -0.4285 -0.2758  0.2880
22365SOL    HW169102   0.467   1.756   1.748 -1.1165 -0.7079 -0.0697
22365SOL    HW269103   0.535   1.798   1.619 -1.4095 -0.4765 -0.1503
22366SOL     OW69104   9.634   7.415   6.969  0.3000  1.4920  0.6017
22366SOL    HW169105   9.590   7.428   6.885 -0.6097 -0.5038  0.6924
22366SOL    HW269106   9.703   7.351   6.949 -1.2133 -0.5940  1.6629
22367SOL     OW69107   0.452   0.174   8.801 -0.0426 -0.4495 -0.6105
22367SOL    HW169108   0.425   0.266   8.793  0.2630 -0.5286 -3.8241
22367SOL    HW269109   0.370   0.126   8.817 -0.2997  0.3095  0.3889
22368SOL     OW69110   3.491   7.755   7.452  0.0002 -0.2866 -0.7913
22368SOL    HW169111   3.489   7.759   7.548 -0.1362 -4.2114 -0.4703
22368SOL    HW269112   3.573   7.711   7.432 -0.0406  0.3539 -2.4920
22369SOL     OW69113   7.752   7.525   7.502 -0.0977 -0.7677 -1.0503
22369SOL    HW169114   7.697   7.603   7.507  0.1777 -0.4959 -2.0437
22369SOL    HW269115   7.728   7.484   7.419  3.1299  0.8867 -2.9994
22370SOL     OW69116   4.798   4.102   1.083 -0.3090  0.6621 -0.8617
22370SOL    HW169117   4.729   4.063   1.030 -0.8640  1.8817 -1.0811
22370SOL    HW269118   4.752   4.157   1.146  0.3068 -1.2000  1.3485
22371SOL     OW69119   7.634   5.945   5.990 -0.1266 -0.0280 -0.2102
22371SOL    HW169120   7.544   5.913   5.998 -1.0209  1.3080 -3.3227
22371SOL    HW269121   7.646   6.002   6.065 -1.8187 -0.3902  0.3728
22372SOL     OW69122   2.810   6.946   0.864  0.1422 -0.3368  0.3579
22372SOL    HW169123   2.773   6.879   0.922 -1.7980 -1.0549 -1.5881
22372SOL    HW269124   2.770   7.028   0.893  0.7517 -0.3528  1.2843
22373SOL     OW69125   3.195   0.716   7.818  0.0789  0.6425 -0.1983
22373SOL    HW169126   3.267   0.684   7.872 -0.2679  0.4873  0.1817
22373SOL    HW269127   3.228   0.712   7.728 -0.5831 -2.6938 -0.4159
22374SOL     OW69128  10.314   4.925   7.345  0.5912 -0.0229 -0.5065
22374SOL    HW169129  10.258   4.874   7.286  1.1982 -2.1296  0.6047
22374SOL    HW269130  10.255   4.990   7.383 -0.3312 -0.1054 -1.7374
22375SOL     OW69131   3.397   7.556   5.973 -0.1741  0.3655 -0.3365
22375SOL    HW169132   3.442   7.485   5.927  2.4096  0.3452  1.9888
22375SOL    HW269133   3.364   7.612   5.902  0.4896 -1.4595 -2.2139
22376SOL     OW69134   8.641   3.232   2.548 -0.5737  0.0819  0.1569
22376SOL    HW169135   8.588   3.300   2.506  0.7132  1.2907  0.4197
22376SOL    HW269136   8.615   3.151   2.504 -0.3237  1.0941 -1.9616
22377SOL     OW69137   4.415   6.597   3.122  0.5043  0.4643  0.0881
22377SOL    HW169138   4.487   6.548   3.080 -0.0470  0.1417 -0.4970
22377SOL    HW269139   4.458   6.673   3.161  1.0372  0.7953 -1.1003
22378SOL     OW69140   6.845   8.206   1.786 -0.0249  0.0092  0.6623
22378SOL    HW169141   6.801   8.288   1.763 -1.6127 -0.8504  0.5075
22378SOL    HW269142   6.921   8.233   1.836 -1.4574  1.5308  2.1314
22379SOL     OW69143   8.995   6.942   8.568 -0.2245 -0.1118 -0.2028
22379SOL    HW169144   8.903   6.922   8.585 -0.8608  2.0255 -0.8275
22379SOL    HW269145   9.005   7.034   8.593  1.4511  0.0509 -1.3000
22380SOL     OW69146   8.859   7.660   5.389  0.2964 -0.8892 -0.4509
22380SOL    HW169147   8.890   7.669   5.299  0.2033  3.0392 -0.2585
22380SOL    HW269148   8.916   7.718   5.439 -3.0174  1.3543  1.0249
22381SOL     OW69149   9.419   7.837   8.527 -0.0560  0.1005 -0.4978
22381SOL    HW169150   9.350   7.841   8.594  0.5848 -1.4151  0.2827
22381SOL    HW269151   9.432   7.928   8.501 -2.8174  0.4116 -1.1764
22382SOL     OW69152   2.238   5.554   1.329  0.3192  0.1632  0.4285
22382SOL    HW169153   2.312   5.523   1.277 -2.1416 -1.4088 -2.4156
22382SOL    HW269154   2.182   5.599   1.267 -2.1665 -0.5835  1.9998
22383SOL     OW69155   4.021   5.769   6.165 -0.1840  0.4825  0.2971
22383SOL    HW169156   3.957   5.811   6.223 -2.2224 -0.8135 -0.9273
22383SOL    HW269157   4.056   5.696   6.216 -0.1812  0.7824  0.7273
22384SOL     OW69158   9.299   4.840   1.781  0.3487  0.1382  0.1069
22384SOL    HW169159   9.257   4.812   1.700  1.8168  0.4896 -0.8058
22384SOL    HW269160   9.262   4.783   1.848 -0.5104 -0.5065 -0.8858
22385SOL     OW69161   1.198   7.489  10.467 -0.0516  0.5729 -0.7954
22385SOL    HW169162   1.191   7.431  10.391  3.4234  0.7061 -1.3758
22385SOL    HW269163   1.151   7.443  10.536 -0.5854 -1.0987 -2.1947
22386SOL     OW69164   8.383  10.031   3.341 -0.1900  0.0080 -0.2417
22386SOL    HW169165   8.346   9.945   3.362 -0.6227  0.6186  1.7232
22386SOL    HW269166   8.459  10.039   3.399  0.6894  0.3909 -1.4185
22387SOL     OW69167   0.046   3.359   9.139 -0.3002  0.2330  0.4402
22387SOL    HW169168   0.018   3.423   9.205 -0.4206  0.2243  0.3972
22387SOL    HW269169  -0.032   3.342   9.088  0.1937  1.5939 -0.8572
22388SOL     OW69170   8.046   8.506   4.076 -0.2725 -0.8034 -0.2672
22388SOL    HW169171   7.950   8.507   4.074 -0.3327  1.0312  0.9005
22388SOL    HW269172   8.068   8.468   4.161  0.1257 -2.8687 -1.2344
22389SOL     OW69173   1.786   4.811   1.769  0.1982 -0.1276  0.5648
22389SOL    HW169174   1.696   4.784   1.788  0.4017 -0.1995  1.4442
22389SOL    HW269175   1.840   4.744   1.809  0.6688  0.5573  1.0912
22390SOL     OW69176  10.630   7.699   2.537 -0.2323  0.3089  0.2722
22390SOL    HW169177  10.632   7.744   2.453  0.3050  0.5930  0.4344
22390SOL    HW269178  10.714   7.655   2.544 -0.9631 -1.2112 -0.1324
22391SOL     OW69179   8.372   6.972   6.760 -0.3466  0.2476  0.2706
22391SOL    HW169180   8.428   7.011   6.694  0.0688 -0.6345  0.0817
22391SOL    HW269181   8.375   6.878   6.741  0.2247 -0.0899  1.8763
22392SOL     OW69182   7.296   8.912   4.115 -0.1402 -0.4156 -0.7940
22392SOL    HW169183   7.371   8.940   4.062  1.0150 -0.8540  0.5549
22392SOL    HW269184   7.304   8.817   4.118 -0.5712 -0.4383 -0.3544
22393SOL     OW69185   5.152   1.587   7.467 -0.0828  0.0458 -0.1508
22393SOL    HW169186   5.102   1.599   7.386  0.5370  0.0441 -0.5398
22393SOL    HW269187   5.183   1.675   7.489 -1.1864  0.2492  0.7202
22394SOL     OW69188   8.261   4.843   9.045 -0.1206  0.3714  0.0938
22394SOL    HW169189   8.217   4.772   9.092 -0.4619 -0.2709 -1.1292
22394SOL    HW269190   8.208   4.855   8.966  1.3103  0.2768 -0.9323
22395SOL     OW69191   3.554   5.358   9.503 -0.3747  0.2811  0.4877
22395SOL    HW169192   3.525   5.311   9.425 -0.4646  1.9615 -0.5407
22395SOL    HW269193   3.606   5.294   9.551  1.3576 -0.2708 -1.9292
22396SOL     OW69194   0.139   3.804   6.880  0.2352 -0.3867 -0.0464
22396SOL    HW169195   0.227   3.842   6.873  0.1971  0.0822  1.4566
22396SOL    HW269196   0.154   3.716   6.916  0.0619  0.0484  1.1374
22397SOL     OW69197   4.758   1.209   8.113 -0.3237  0.1302  0.3493
22397SOL    HW169198   4.725   1.124   8.083 -0.8588  0.6176 -0.5056
22397SOL    HW269199   4.689   1.271   8.088 -0.1609  0.7571  1.4024
22398SOL     OW69200   5.385   4.418   4.473  0.9877 -0.8589 -0.2617
22398SOL    HW169201   5.451   4.419   4.403  0.3047 -2.2662 -0.9778
22398SOL    HW269202   5.343   4.332   4.464 -1.0128  0.0392  0.1126
22399SOL     OW69203   0.082   7.497   4.166  0.0459  0.6269 -0.5050
22399SOL    HW169204   0.002   7.443   4.163  0.9132 -0.8126  0.8230
22399SOL    HW269205   0.059   7.576   4.118 -1.9966  0.0010 -0.6569
22400SOL     OW69206   5.042   3.755   1.901 -0.4772  0.6164 -0.2951
22400SOL    HW169207   5.069   3.772   1.992 -1.5329  1.5209 -0.1249
22400SOL    HW269208   5.022   3.661   1.900  0.0748  0.4800  0.2540
22401SOL     OW69209   8.384  10.730   9.735  0.0065  0.3082  0.5280
22401SOL    HW169210   8.301  10.775   9.746 -0.3726 -0.3036  0.2687
22401SOL    HW269211   8.433  10.783   9.672 -1.5162 -1.0147 -1.9162
22402SOL     OW69212   6.968   9.783   1.924 -0.0943 -0.4599  0.1891
22402SOL    HW169213   6.963   9.829   1.840 -0.7291 -0.0201  0.4566
22402SOL    HW269214   6.963   9.690   1.901 -2.0196 -0.3132 -0.1709
22403SOL     OW69215   5.715  10.950  10.672 -0.1044 -0.3776 -0.7151
22403SOL    HW169216   5.726  11.041  10.644 -0.2152  0.2101  1.0322
22403SOL    HW269217   5.773  10.941  10.748  0.0253 -1.8193 -0.9524
22404SOL     OW69218   6.635   8.619   9.609  0.3682 -0.0240  0.4549
22404SOL    HW169219   6.596   8.704   9.630 -0.0894  0.0833 -0.7796
22404SOL    HW269220   6.628   8.569   9.691  1.7670  1.5114  1.5881
22405SOL     OW69221   3.738   2.145   4.879  0.2925 -0.1282 -0.1641
22405SOL    HW169222   3.674   2.213   4.858  0.2993 -0.2409 -0.5391
22405SOL    HW269223   3.707   2.068   4.832  1.2299  0.0664 -1.1302
22406SOL     OW69224  10.695   3.396   4.992 -0.5361 -0.3727 -0.3734
22406SOL    HW169225  10.753   3.374   4.919 -0.0787 -0.5431  0.0362
22406SOL    HW269226  10.701   3.321   5.051 -1.0037 -0.2924 -0.2214
22407SOL     OW69227  10.449   4.250   3.438 -0.0275  0.4164 -0.1515
22407SOL    HW169228  10.378   4.189   3.460  0.8691 -0.1368  1.2992
22407SOL    HW269229  10.493   4.266   3.521  2.2586 -0.1416 -1.1834
22408SOL     OW69230   3.179   5.454   1.134 -0.0518  0.6813  0.0462
22408SOL    HW169231   3.166   5.514   1.207 -2.8703  1.2479 -0.7878
22408SOL    HW269232   3.203   5.511   1.060 -1.4957  0.6995 -0.4454
22409SOL     OW69233   2.449  10.519   7.103 -0.0851  0.4628 -0.3115
22409SOL    HW169234   2.544  10.508   7.098  0.0798  1.7384 -0.1353
22409SOL    HW269235   2.427  10.495   7.193 -0.5044 -3.6121 -1.2754
22410SOL     OW69236   1.289   6.326   4.926  0.2616 -0.4291 -0.5279
22410SOL    HW169237   1.336   6.389   4.871  0.5992 -1.3851 -1.3813
22410SOL    HW269238   1.266   6.375   5.005  0.0596  0.8903 -1.3751
22411SOL     OW69239  10.520   8.784   5.288 -0.4825 -0.4012  0.2286
22411SOL    HW169240  10.437   8.832   5.287  0.6639  1.7009  0.2818
22411SOL    HW269241  10.586   8.850   5.266  1.3925 -1.5762  1.9994
22412SOL     OW69242   4.585   8.378   9.709  0.1278  0.6977  1.0717
22412SOL    HW169243   4.599   8.464   9.749 -0.0145  1.2963 -0.1114
22412SOL    HW269244   4.531   8.331   9.772  0.7203  1.2476  2.0150
22413SOL     OW69245   0.880   2.199   0.927 -0.3836 -0.0288 -0.0625
22413SOL    HW169246   0.964   2.153   0.929 -1.6246 -2.4730 -0.6290
22413SOL    HW269247   0.876   2.244   1.012  1.1176 -0.5461  0.3201
22414SOL     OW69248   2.221  10.751   7.753 -0.1131 -0.7171  0.6736
22414SOL    HW169249   2.174  10.713   7.679 -1.9316  1.6287  0.4996
22414SOL    HW269250   2.293  10.800   7.713 -0.3497 -0.4842  0.5236
22415SOL     OW69251   5.845   3.422   5.084 -0.0514  0.0036  0.5024
22415SOL    HW169252   5.894   3.340   5.094  0.1178 -0.0285 -0.4945
22415SOL    HW269253   5.912   3.491   5.086 -0.2047  0.1339  1.4489
22416SOL     OW69254   4.301   9.879   4.642  0.3315 -0.2186 -0.2471
22416SOL    HW169255   4.394   9.865   4.659  0.3072  0.0213  0.0963
22416SOL    HW269256   4.271   9.934   4.714 -0.1961 -0.7440 -0.0498
22417SOL     OW69257   5.872   0.892   0.474  0.1842  0.0978  0.1866
22417SOL    HW169258   5.960   0.860   0.492 -0.1725 -0.9836  0.0927
22417SOL    HW269259   5.823   0.876   0.555  0.1763  1.0972  0.3879
22418SOL     OW69260   4.835   5.570   5.412 -0.6810 -0.3401 -0.1343
22418SOL    HW169261   4.767   5.575   5.479  0.3793  1.7321  0.9077
22418SOL    HW269262   4.907   5.622   5.448 -0.2108  1.2357 -3.0321
22419SOL     OW69263   9.815  10.607   0.315  0.3469 -0.4842  1.0317
22419SOL    HW169264   9.731  10.652   0.317  1.0938  1.1586 -0.7107
22419SOL    HW269265   9.869  10.654   0.378  0.1281 -1.2026  1.7665
22420SOL     OW69266   4.467   8.331   8.996  0.4462 -0.0161 -0.4380
22420SOL    HW169267   4.416   8.412   8.997  1.4663  0.6769 -1.2971
22420SOL    HW269268   4.406   8.264   8.968 -0.4457  0.4422  0.3759
22421SOL     OW69269   4.579   5.249   2.019 -0.0767 -0.2534  0.3048
22421SOL    HW169270   4.549   5.277   2.106 -1.1357  0.6079 -0.3225
22421SOL    HW269271   4.609   5.329   1.977  0.1772 -0.6273 -0.2397
22422SOL     OW69272   4.453   3.052   2.371  0.0445 -0.7920  0.1811
22422SOL    HW169273   4.438   3.052   2.276  1.0018 -0.9020  0.0270
22422SOL    HW269274   4.388   3.114   2.405  0.5720  0.2844 -0.6891
22423SOL     OW69275   4.767   5.205   0.950 -0.1866  0.2419 -0.2601
22423SOL    HW169276   4.857   5.177   0.962 -0.1241  0.8143  0.6664
22423SOL    HW269277   4.729   5.203   1.038 -0.9274  0.4982 -0.5670
22424SOL     OW69278   8.573   0.122   7.623 -0.0134  0.2139 -0.2576
22424SOL    HW169279   8.570   0.208   7.665 -0.6341  0.5978 -1.0726
22424SOL    HW269280   8.607   0.140   7.535  1.3554 -0.5896  0.0801
22425SOL     OW69281   8.113   9.267   4.947  0.1709 -0.3863 -0.7336
22425SOL    HW169282   8.183   9.320   4.909 -0.2201 -0.3226 -1.3736
22425SOL    HW269283   8.055   9.330   4.989  1.1542 -0.5320  0.9299
22426SOL     OW69284   6.135   2.561   0.698 -0.2421 -0.0750  0.2971
22426SOL    HW169285   6.133   2.650   0.665  0.0997 -0.1603  0.0394
22426SOL    HW269286   6.053   2.522   0.668 -0.6249  0.3040  0.8444
22427SOL     OW69287   9.552   4.776   0.290  0.7330 -0.2643  0.2229
22427SOL    HW169288   9.493   4.743   0.358 -0.8554  1.8805 -0.0079
22427SOL    HW269289   9.638   4.778   0.332 -0.0050 -0.0881  1.7955
22428SOL     OW69290   5.700   5.302   9.386  0.2274  0.3445  0.1095
22428SOL    HW169291   5.781   5.349   9.405 -0.1867  0.4909  1.6540
22428SOL    HW269292   5.680   5.256   9.468 -2.2886  1.8911  0.4492
22429SOL     OW69293   8.947  10.739  10.214  0.3656 -0.1429  0.0486
22429SOL    HW169294   8.923  10.709  10.127  1.3840 -0.2421 -0.2040
22429SOL    HW269295   8.905  10.825  10.222 -1.4259 -1.0004  0.2600
22430SOL     OW69296   4.951   0.909   2.708  0.0528  0.5473 -0.8974
22430SOL    HW169297   4.948   0.960   2.789  0.7601 -0.5185 -0.1758
22430SOL    HW269298   4.938   0.974   2.638  0.7185  1.6711 -0.0064
22431SOL     OW69299   7.104   0.486  11.027  0.1122 -0.1903  0.0324
22431SOL    HW169300   7.185   0.519  10.988 -0.4331  0.6247 -0.4365
22431SOL    HW269301   7.117   0.391  11.031  1.5291 -0.0006  0.9819
22432SOL     OW69302   7.120   8.991   6.418  0.6482  0.8487 -0.3571
22432SOL    HW169303   7.185   9.002   6.487  2.2224  1.0667 -1.7972
22432SOL    HW269304   7.087   9.079   6.402  1.8366  1.1514 -1.2838
22433SOL     OW69305   1.396   5.345   7.660  0.2380  0.5072  0.1537
22433SOL    HW169306   1.313   5.369   7.701  0.5324 -0.4844  1.3908
22433SOL    HW269307   1.431   5.275   7.715  1.4423  0.2433 -0.8920
22434SOL     OW69308   1.680   9.839   7.076 -0.0826  0.4011  0.0929
22434SOL    HW169309   1.764   9.873   7.108  0.8303  0.4508 -2.1598
22434SOL    HW269310   1.661   9.765   7.133  1.1373  0.8049  1.0911
22435SOL     OW69311   3.217   1.540  10.021  0.4261  0.1608  0.1063
22435SOL    HW169312   3.219   1.601   9.947 -2.5622 -1.0389 -1.1276
22435SOL    HW269313   3.285   1.572  10.080  0.4212  3.3879 -1.4237
22436SOL     OW69314   7.750   1.359   0.886 -0.7117 -0.1960  0.4987
22436SOL    HW169315   7.714   1.293   0.945 -0.0893  0.1331  1.2538
22436SOL    HW269316   7.729   1.326   0.798 -0.9688 -1.0679  0.8744
22437SOL     OW69317   2.073   1.645   6.987 -0.1535  0.1972 -0.6700
22437SOL    HW169318   2.132   1.637   7.061  1.6608 -1.7373 -2.1803
22437SOL    HW269319   2.118   1.702   6.925  0.2306 -1.2980 -1.8424
22438SOL     OW69320   2.427   2.909   9.696 -0.3396  0.6674  0.3159
22438SOL    HW169321   2.390   2.961   9.767 -2.1430 -0.7103  0.4571
22438SOL    HW269322   2.414   2.964   9.618  0.2419  1.5282  0.8074
22439SOL     OW69323   0.209   1.066   4.817  0.8588 -0.5227  0.2032
22439SOL    HW169324   0.133   1.007   4.813  1.8873 -1.8159 -1.1820
22439SOL    HW269325   0.264   1.029   4.885 -0.1387  0.9961  1.9404
22440SOL     OW69326   7.855   2.893   9.830 -0.9749  0.1908 -0.2735
22440SOL    HW169327   7.800   2.858   9.900 -0.6314 -0.8698 -0.5079
22440SOL    HW269328   7.804   2.964   9.792 -0.5714  1.7989  1.9764
22441SOL     OW69329  10.084   0.229   9.154  0.1529  0.1785  0.1486
22441SOL    HW169330  10.154   0.204   9.093  0.5066  1.6000 -0.0715
22441SOL    HW269331  10.012   0.258   9.098 -0.4030 -0.7342  0.3831
22442SOL     OW69332   5.994   5.830   5.676  0.2502  0.1050  0.0807
22442SOL    HW169333   5.931   5.902   5.677  0.4534  0.2984 -0.3859
22442SOL    HW269334   6.021   5.823   5.584  0.1984 -0.5985  0.1114
22443SOL     OW69335   7.146   3.358   3.690 -0.2048 -0.4235 -0.3445
22443SOL    HW169336   7.063   3.405   3.699 -0.3159  0.3614 -3.9501
22443SOL    HW269337   7.134   3.278   3.741 -2.1560  0.7994  1.3042
22444SOL     OW69338   3.627   0.334   3.594 -0.0301  0.2432 -0.8875
22444SOL    HW169339   3.668   0.419   3.614  0.4158  0.2205 -1.6428
22444SOL    HW269340   3.645   0.280   3.671  1.2211  0.3027 -1.1043
22445SOL     OW69341   5.869   7.494   0.104  0.3548 -0.0391  0.1551
22445SOL    HW169342   5.885   7.491   0.198  1.0010  2.3314  0.1793
22445SOL    HW269343   5.953   7.472   0.064  0.3678  0.0454  0.1364
22446SOL     OW69344   8.490   5.010  10.184 -0.0798 -0.1328  0.4638
22446SOL    HW169345   8.409   4.978  10.145  1.2519 -1.5412 -1.3133
22446SOL    HW269346   8.520   5.078  10.124  0.9424 -0.8700  0.1164
22447SOL     OW69347  10.819   3.755   2.730  0.1509  0.0668 -0.4414
22447SOL    HW169348  10.837   3.698   2.656  2.2043 -0.0902  0.1284
22447SOL    HW269349  10.890   3.739   2.792 -0.4542  1.5827  0.7341
22448SOL     OW69350   0.578  10.644   9.288  0.0382  0.2237  0.0899
22448SOL    HW169351   0.576  10.738   9.272  0.5107  0.2121 -0.0595
22448SOL    HW269352   0.671  10.624   9.303 -0.1431 -0.1058  0.8166
22449SOL     OW69353   8.132   2.824   2.312 -0.2847 -0.2861 -0.5706
22449SOL    HW169354   8.130   2.748   2.370 -2.5227  1.3368  1.6917
22449SOL    HW269355   8.044   2.830   2.277 -0.4808  1.7632  0.1022
22450SOL     OW69356  11.100   5.456   3.313 -0.2169  0.1050 -0.1640
22450SOL    HW169357  11.135   5.412   3.236 -0.2876  0.4382 -0.3878
22450SOL    HW269358  11.169   5.449   3.379  0.4457  1.1151 -0.7237
22451SOL     OW69359   1.236   1.690   5.075 -0.0010 -0.7468  0.5182
22451SOL    HW169360   1.157   1.647   5.108 -0.0486 -0.8230  0.3074
22451SOL    HW269361   1.272   1.736   5.151 -0.3028 -0.6299  0.5927
22452SOL     OW69362  10.945   3.232   0.973 -0.4809 -0.2525 -0.3586
22452SOL    HW169363  10.872   3.294   0.977 -2.5110 -2.5687  1.0105
22452SOL    HW269364  10.931   3.183   0.892 -0.3909 -0.6707 -0.1218
22453SOL     OW69365   6.126   4.833   4.933  0.3073  0.4634 -0.1939
22453SOL    HW169366   6.179   4.829   5.013 -0.3409 -1.5412  0.2090
22453SOL    HW269367   6.036   4.823   4.964  0.0691 -0.6323 -1.1708
22454SOL     OW69368   0.237   8.719   4.233 -0.5155 -0.0514  0.2206
22454SOL    HW169369   0.184   8.639   4.226  0.8558 -0.8355 -2.4547
22454SOL    HW269370   0.327   8.688   4.235  0.1766  1.4083 -3.0714
22455SOL     OW69371  11.090   2.694   7.807 -0.7262  0.2183  0.5260
22455SOL    HW169372  11.088   2.789   7.795 -0.9599  0.3847  1.7729
22455SOL    HW269373  11.080   2.659   7.719 -2.0901  1.3544  0.1828
22456SOL     OW69374   0.914   7.288  10.374  0.1842  0.2778 -0.3585
22456SOL    HW169375   0.840   7.229  10.391  1.3734 -0.8777  1.0989
22456SOL    HW269376   0.891   7.368  10.421 -0.1721 -0.0658  0.0678
22457SOL     OW69377   8.016   5.752   9.256  0.8101 -0.2729  0.4178
22457SOL    HW169378   7.945   5.737   9.193 -0.5171  1.8221  1.2739
22457SOL    HW269379   8.060   5.831   9.224  0.5400  0.4364  1.7143
22458SOL     OW69380   3.532   7.819  10.914  0.7100  0.2679  0.0731
22458SOL    HW169381   3.482   7.748  10.875  1.4993 -1.8643  2.6684
22458SOL    HW269382   3.624   7.795  10.899  1.0167  1.6245 -0.4061
22459SOL     OW69383  10.785   9.581   9.634 -0.4303  0.2215  0.9967
22459SOL    HW169384  10.787   9.671   9.668  0.0717  1.0850 -1.1147
22459SOL    HW269385  10.857   9.579   9.570 -0.7843 -1.5340  0.6183
22460SOL     OW69386   0.561   0.127   1.276  0.3084 -0.5572  0.5729
22460SOL    HW169387   0.477   0.165   1.300  0.2948  0.0524 -0.4143
22460SOL    HW269388   0.620   0.152   1.348  0.0148  0.3299  0.5112
22461SOL     OW69389   2.533   6.483   5.573 -0.0628 -0.2518  0.0086
22461SOL    HW169390   2.558   6.391   5.573  0.3511 -0.1670  1.4193
22461SOL    HW269391   2.464   6.490   5.639  0.2433  0.5114  0.2649
22462SOL     OW69392   0.658   0.408   3.792  0.4474  0.1152  0.7876
22462SOL    HW169393   0.571   0.415   3.831  0.0922  1.2945 -0.1657
22462SOL    HW269394   0.698   0.332   3.835 -0.7120  0.0985  1.8727
22463SOL     OW69395   8.528   9.911   5.982  0.6715  0.4204 -0.0307
22463SOL    HW169396   8.560   9.826   5.952 -0.2292  0.6771 -1.9404
22463SOL    HW269397   8.545   9.912   6.076  2.3584 -1.1108 -0.2621
22464SOL     OW69398   7.782   9.902   1.139 -0.1955 -0.1447  0.9648
22464SOL    HW169399   7.858   9.956   1.117  0.9053 -1.2424  1.9612
22464SOL    HW269400   7.750   9.869   1.055  1.8070 -1.4672  0.6692
22465SOL     OW69401   8.606   8.114   3.846 -0.4580 -0.5735 -0.1173
22465SOL    HW169402   8.526   8.150   3.809 -0.4490 -2.1929 -1.8769
22465SOL    HW269403   8.580   8.029   3.882  0.5844 -1.5633 -1.5750
22466SOL     OW69404   5.793  10.594   5.003 -1.0622  0.9213 -0.0398
22466SOL    HW169405   5.780  10.668   4.943 -0.4492  0.5324 -0.6624
22466SOL    HW269406   5.885  10.598   5.027 -0.6712 -0.4565 -1.1921
22467SOL     OW69407   9.008   0.204   7.344 -0.3358 -0.2468 -0.7256
22467SOL    HW169408   9.006   0.161   7.258  2.3942 -1.6160 -0.2126
22467SOL    HW269409   9.089   0.255   7.344 -0.8936  0.6990  0.6368
22468SOL     OW69410   5.187   8.788  10.229  0.0255  0.2367  0.3683
22468SOL    HW169411   5.248   8.746  10.290 -0.2979  1.5175  1.6385
22468SOL    HW269412   5.198   8.882  10.245 -2.1171  0.5225  0.5200
22469SOL     OW69413   3.957   6.256  10.297  0.0329  0.5756 -0.2646
22469SOL    HW169414   3.864   6.237  10.284 -0.0512  1.0951 -0.4590
22469SOL    HW269415   4.003   6.188  10.248 -0.2169 -0.3444  0.7217
22470SOL     OW69416   5.431   8.882   2.732 -0.0012  0.3712 -0.2705
22470SOL    HW169417   5.387   8.957   2.692  0.6376  0.0831 -1.5723
22470SOL    HW269418   5.404   8.807   2.679 -0.2639 -0.2595  0.7291
22471SOL     OW69419   7.080   2.696   7.611 -0.5522 -0.2194  0.0247
22471SOL    HW169420   7.108   2.734   7.528 -2.5574  3.3451  0.7490
22471SOL    HW269421   7.015   2.630   7.587 -0.4878  0.1676 -1.2919
22472SOL     OW69422   3.844   2.542   3.627  0.4437 -0.1837 -0.1016
22472SOL    HW169423   3.776   2.603   3.598 -2.0902 -2.0283  1.5350
22472SOL    HW269424   3.883   2.509   3.546 -2.2011 -0.7114 -1.2741
22473SOL     OW69425   9.257   1.799   8.590  0.0094 -0.0636 -0.5262
22473SOL    HW169426   9.305   1.882   8.586  0.6137 -0.1904  2.2543
22473SOL    HW269427   9.174   1.822   8.631 -0.5813 -0.5728 -1.4062
22474SOL     OW69428   3.943   2.515   4.720  0.5173  0.9731  0.0091
22474SOL    HW169429   3.899   2.515   4.805  1.0647  0.4443  0.2942
22474SOL    HW269430   3.935   2.605   4.689  1.9359  1.6279  1.4509
22475SOL     OW69431   6.735  10.511   1.599 -0.0849 -0.0165  0.7289
22475SOL    HW169432   6.780  10.475   1.675 -0.5104  2.7690  2.4290
22475SOL    HW269433   6.790  10.584   1.571 -1.9789  1.5845  1.0025
22476SOL     OW69434   0.446   7.211   4.467  0.3238  0.2211  0.2823
22476SOL    HW169435   0.484   7.232   4.552 -2.0646  0.0061  1.4937
22476SOL    HW269436   0.422   7.295   4.429 -2.2690  0.2015  1.6979
22477SOL     OW69437   2.556   9.501   9.490 -0.0207  0.0765 -0.0190
22477SOL    HW169438   2.468   9.504   9.527  0.4628  0.8371  1.1586
22477SOL    HW269439   2.603   9.439   9.546 -0.0829 -1.1436 -1.3006
22478SOL     OW69440  10.668   6.872   0.151  0.3976  0.2175  0.3644
22478SOL    HW169441  10.614   6.939   0.192  1.0454  1.1601 -0.2531
22478SOL    HW269442  10.606   6.806   0.120 -0.2367  0.4194  1.1811
22479SOL     OW69443   0.085   8.215   4.190 -0.0101 -0.2208 -0.0628
22479SOL    HW169444   0.007   8.190   4.140 -0.2886  0.5377 -0.0146
22479SOL    HW269445   0.148   8.242   4.123 -0.1309  0.0919 -0.0557
22480SOL     OW69446   7.152   4.382   9.394  0.3915 -0.3089  0.0061
22480SOL    HW169447   7.167   4.474   9.375  2.0601 -0.4038  0.6996
22480SOL    HW269448   7.231   4.354   9.441 -0.6352 -1.7617  0.9437
22481SOL     OW69449   8.146   2.147   1.207  0.1216 -0.8299 -0.0988
22481SOL    HW169450   8.166   2.085   1.277 -0.2450  0.2920  1.0385
22481SOL    HW269451   8.217   2.135   1.144  0.2458 -2.1454  0.2612
22482SOL     OW69452   9.545   5.490   2.199  0.6051 -0.5010 -0.6096
22482SOL    HW169453   9.595   5.554   2.249 -0.2664  0.2435 -0.6645
22482SOL    HW269454   9.473   5.540   2.161 -0.2466 -1.5523 -0.4474
22483SOL     OW69455  10.516   6.352  10.663 -0.7012  0.5139  0.2751
22483SOL    HW169456  10.487   6.443  10.659 -2.5975 -0.0321  0.5945
22483SOL    HW269457  10.436   6.301  10.650  0.1062 -1.1113  1.3665
22484SOL     OW69458   8.809   8.293   0.456  0.1330 -0.8724 -0.1040
22484SOL    HW169459   8.792   8.200   0.441 -2.5753 -0.3379 -0.9139
22484SOL    HW269460   8.899   8.296   0.487  0.4391 -3.7171 -0.4328
22485SOL     OW69461   2.882   9.494   8.162  0.0696 -0.6360 -0.0035
22485SOL    HW169462   2.812   9.559   8.156  0.2674 -0.1885  1.9934
22485SOL    HW269463   2.945   9.520   8.095 -1.4340 -0.8065 -1.5587
22486SOL     OW69464   7.745   9.445  10.020  0.1433  0.1120 -0.6151
22486SOL    HW169465   7.735   9.520  10.078  0.1328  1.2115 -1.9884
22486SOL    HW269466   7.671   9.388  10.042 -0.7754  1.2657 -0.6351
22487SOL     OW69467   5.853   7.077   3.389  0.1769 -0.0062  0.1206
22487SOL    HW169468   5.853   7.129   3.309  1.5673 -1.6841 -1.0469
22487SOL    HW269469   5.846   7.141   3.460  1.0635  1.7002 -1.2745
22488SOL     OW69470   5.180   4.069   2.098 -0.1330  0.0293 -0.3440
22488SOL    HW169471   5.148   3.986   2.134  0.1385 -0.2903 -0.8213
22488SOL    HW269472   5.127   4.136   2.140  0.7890 -0.2527  1.3612
22489SOL     OW69473   2.326  10.783   0.306 -0.1001 -0.0369 -0.4934
22489SOL    HW169474   2.254  10.812   0.250 -0.5820  1.5247  0.8286
22489SOL    HW269475   2.389  10.855   0.303  1.3559 -1.2860 -1.4519
22490SOL     OW69476   9.402   1.625   0.153  0.1634  0.2665  0.1082
22490SOL    HW169477   9.333   1.604   0.216 -0.6433  0.6780 -0.6182
22490SOL    HW269478   9.461   1.549   0.156  0.2751  0.3811  1.5184
22491SOL     OW69479   0.037   3.417   5.229 -0.6209  0.2800 -0.2158
22491SOL    HW169480   0.064   3.326   5.225 -0.8657  0.2066 -0.2266
22491SOL    HW269481   0.100   3.464   5.174  0.9381  0.4742  1.5987
22492SOL     OW69482   3.882   1.372   5.518 -0.8261 -1.0370 -0.3259
22492SOL    HW169483   3.806   1.388   5.461 -0.8216  1.4961  0.2979
22492SOL    HW269484   3.847   1.374   5.607 -0.2164 -1.1437 -0.0768
22493SOL     OW69485   9.559   4.354   0.067 -0.0812  0.1025  0.1079
22493SOL    HW169486   9.571   4.448   0.077 -1.4725  0.1379  2.1096
22493SOL    HW269487   9.507   4.328   0.143  1.1896 -2.4786  0.2284
22494SOL     OW69488   1.743   0.416   8.762  0.6683  0.3991 -0.6923
22494SOL    HW169489   1.649   0.422   8.774  0.4537 -0.7564 -1.6138
22494SOL    HW269490   1.776   0.381   8.844  0.1683 -0.1418 -0.7194
22495SOL     OW69491   7.576   9.786   1.695  0.0077  0.0364 -0.4097
22495SOL    HW169492   7.594   9.736   1.615  1.2110 -1.8637  0.9598
22495SOL    HW269493   7.655   9.775   1.748 -1.4143 -0.2335  1.7685
22496SOL     OW69494   1.376   3.579   7.956 -0.1557  0.1866  0.3513
22496SOL    HW169495   1.381   3.484   7.941  0.9576  0.5429 -2.0265
22496SOL    HW269496   1.464   3.604   7.981 -0.6033  0.5485  1.6552
22497SOL     OW69497  10.064   5.808   3.726 -0.0242  0.8768 -0.6193
22497SOL    HW169498  10.007   5.733   3.743 -0.1913  0.9284 -0.9565
22497SOL    HW269499  10.082   5.843   3.813 -0.5065  0.8592 -0.5082
22498SOL     OW69500   5.028   3.942  10.490 -0.0362 -0.1313 -0.1264
22498SOL    HW169501   4.980   4.024  10.497  0.6053  0.2172  0.2594
22498SOL    HW269502   5.113   3.967  10.454 -0.0332 -0.7021 -0.5331
22499SOL     OW69503   3.316   8.538   1.048 -0.0690  0.5243  0.5062
22499SOL    HW169504   3.264   8.467   1.087 -1.2976  1.9846  1.6806
22499SOL    HW269505   3.256   8.579   0.985  1.3881 -0.8379 -1.8986
22500SOL     OW69506   3.755   2.413   1.565  0.3768 -0.3358  0.1540
22500SOL    HW169507   3.772   2.467   1.488 -0.3215 -1.7988 -1.0852
22500SOL    HW269508   3.662   2.424   1.583  0.6199  0.3417  1.1011
22501SOL     OW69509   9.500   6.191   9.007  0.1176  0.2064 -0.3497
22501SOL    HW169510   9.573   6.141   8.971  0.5112  1.9237 -2.0600
22501SOL    HW269511   9.541   6.255   9.065 -0.3160 -0.7931  1.1157
22502SOL     OW69512   6.630   1.296   2.855  1.0661 -0.3318 -0.7543
22502SOL    HW169513   6.692   1.297   2.782  0.6302 -0.5611 -1.1323
22502SOL    HW269514   6.680   1.262   2.929  0.5909 -3.6430 -1.8134
22503SOL     OW69515   6.718   7.135   1.899 -0.1892  0.2249  0.1288
22503SOL    HW169516   6.702   7.164   1.989 -1.2888  1.0679 -0.3208
22503SOL    HW269517   6.661   7.060   1.888  0.7042 -0.5196  0.4433
22504SOL     OW69518   4.477   3.997   1.334  0.3970 -0.4400 -0.4802
22504SOL    HW169519   4.471   3.958   1.421  3.8942 -1.1444 -0.4038
22504SOL    HW269520   4.525   3.932   1.282  2.7211  1.9253 -1.5143
22505SOL     OW69521   2.960   8.990   1.770 -0.3239 -0.1842  0.5638
22505SOL    HW169522   2.975   8.953   1.857 -1.2786  0.4301  0.9997
22505SOL    HW269523   2.941   9.082   1.786 -1.2176 -0.2216 -0.2357
22506SOL     OW69524   8.606   5.365   6.390 -0.0672  0.1492  0.6031
22506SOL    HW169525   8.605   5.341   6.298 -0.3693 -0.4615  0.7588
22506SOL    HW269526   8.606   5.460   6.390  0.8424  0.1666 -0.0331
22507SOL     OW69527   1.329   3.290   0.638 -0.1033  0.4955 -0.1088
22507SOL    HW169528   1.380   3.361   0.677  0.6544  0.3326 -0.7590
22507SOL    HW269529   1.285   3.248   0.712  2.2254 -0.5485  0.7876
22508SOL     OW69530   4.885   2.698   7.461  0.0911 -0.1046 -0.1854
22508SOL    HW169531   4.836   2.756   7.519  2.6101 -0.5041  2.5596
22508SOL    HW269532   4.900   2.750   7.382  0.2795  2.1655  1.2593
22509SOL     OW69533   2.350   7.409   8.033 -0.1169  0.3475  0.8317
22509SOL    HW169534   2.333   7.339   8.096 -0.4617  2.0821  2.7394
22509SOL    HW269535   2.434   7.446   8.058  0.5411  0.0540 -0.7718
22510SOL     OW69536   6.413   8.857   7.762 -0.2146 -0.4875  0.3776
22510SOL    HW169537   6.441   8.886   7.676 -0.4556  1.3839  0.8801
22510SOL    HW269538   6.338   8.912   7.783 -0.8920 -1.7079  1.3029
22511SOL     OW69539   3.836   6.848   0.929 -0.3354  0.1276 -0.5855
22511SOL    HW169540   3.888   6.775   0.894  1.0560  0.5704  0.5039
22511SOL    HW269541   3.828   6.829   1.022  0.9532  1.8856 -0.0853
22512SOL     OW69542  10.535   2.625   8.331  0.2439  0.4006  0.5696
22512SOL    HW169543  10.589   2.682   8.277 -0.0522  0.1344 -0.0251
22512SOL    HW269544  10.571   2.632   8.419  2.0834 -0.7720 -0.0349
22513SOL     OW69545   4.744   1.050   8.829 -0.2925 -0.7580 -0.1291
22513SOL    HW169546   4.758   0.963   8.790 -0.3642 -1.5232  1.4689
22513SOL    HW269547   4.831   1.077   8.860 -0.3328 -0.4164 -0.3118
22514SOL     OW69548   9.507   8.119   6.733  0.5023 -0.3982 -0.2348
22514SOL    HW169549   9.557   8.177   6.675 -0.7633 -1.2088 -2.2350
22514SOL    HW269550   9.419   8.155   6.733  0.6884  0.2703  2.2361
22515SOL     OW69551   7.664   5.589   0.555 -0.0410  0.5906  0.1666
22515SOL    HW169552   7.661   5.501   0.519  0.1468  0.1633  1.1771
22515SOL    HW269553   7.747   5.625   0.524  0.2437  0.1327  0.4080
22516SOL     OW69554   1.880   7.880   8.053 -0.8453 -0.4190 -0.2997
22516SOL    HW169555   1.908   7.954   8.107 -1.6867 -0.0296 -0.3680
22516SOL    HW269556   1.952   7.865   7.992 -1.2457  1.3172 -1.2691
22517SOL     OW69557   9.095   2.645   2.051 -0.0001 -0.9575  0.2998
22517SOL    HW169558   9.062   2.641   2.141 -0.5663 -0.4794  0.1251
22517SOL    HW269559   9.057   2.568   2.009  0.3318 -1.2270  0.4858
22518SOL     OW69560  10.251   3.086  10.822  0.3233  0.0772 -0.3207
22518SOL    HW169561  10.208   3.003  10.800  0.6083 -1.0063  2.7211
22518SOL    HW269562  10.332   3.085  10.771 -0.0422 -1.1491 -0.9223
22519SOL     OW69563   0.981   1.186   3.997  0.1106 -0.3873  0.2072
22519SOL    HW169564   1.040   1.173   3.923  0.3402  0.9272  0.1280
22519SOL    HW269565   0.966   1.281   3.999 -3.2533 -0.7583 -0.7443
22520SOL     OW69566   3.655   6.987   7.135 -0.0056  0.8401 -0.8631
22520SOL    HW169567   3.683   7.028   7.217 -1.1001  1.6718 -0.8838
22520SOL    HW269568   3.655   7.058   7.071 -0.7539  0.5508 -1.1947
22521SOL     OW69569   2.704  10.257   2.666  0.2753 -0.2320  0.8793
22521SOL    HW169570   2.637  10.200   2.627  0.2404  1.0834 -1.1464
22521SOL    HW269571   2.787  10.217   2.640  0.2516  0.2151  0.0951
22522SOL     OW69572   4.109   5.158   8.399  0.4087  0.2482  0.0314
22522SOL    HW169573   4.073   5.163   8.310 -1.6028  0.2195  0.7799
22522SOL    HW269574   4.128   5.066   8.412  1.8976  0.4085 -0.7636
22523SOL     OW69575  11.000   9.116   9.429  0.0655  0.3048  0.4746
22523SOL    HW169576  11.080   9.164   9.409 -0.3484  0.7917 -0.0570
22523SOL    HW269577  10.998   9.045   9.364 -0.8812  1.4225 -0.7755
22524SOL     OW69578   6.129   7.435  10.446 -0.5284  0.1039  0.1942
22524SOL    HW169579   6.094   7.346  10.452  1.0815 -0.5145  0.6942
22524SOL    HW269580   6.160   7.443  10.356  0.6011 -0.3352  0.5415
22525SOL     OW69581   5.420   4.641  10.329  0.3507  0.4749  0.0753
22525SOL    HW169582   5.354   4.702  10.363 -0.7519  0.3885 -1.7597
22525SOL    HW269583   5.455   4.598  10.407  0.1697  2.4445  1.3083
22526SOL     OW69584   0.176   6.360   1.987  0.0348  0.3142 -0.2568
22526SOL    HW169585   0.126   6.295   1.937 -0.1187  1.7526 -2.0856
22526SOL    HW269586   0.268   6.340   1.966 -0.0494  1.3163 -1.7392
22527SOL     OW69587   4.728   6.648   5.260 -0.3913 -0.6811  0.0024
22527SOL    HW169588   4.707   6.610   5.346  0.3983  1.3255  1.1624
22527SOL    HW269589   4.797   6.712   5.279 -0.7034  0.3175 -2.0325
22528SOL     OW69590  10.915   6.096   7.140 -0.0289 -0.1414  0.7485
22528SOL    HW169591  10.936   6.153   7.213  0.2284  0.2062  0.4079
22528SOL    HW269592  10.905   6.155   7.065  0.8300 -0.5892  0.2691
22529SOL     OW69593   2.590  10.247   7.417  0.0121  0.1721 -0.5751
22529SOL    HW169594   2.653  10.314   7.444 -1.5877  1.9034 -0.9376
22529SOL    HW269595   2.566  10.204   7.499  1.1385 -0.0623 -0.3468
22530SOL     OW69596   5.159   2.183   8.194 -0.0645  0.2744 -0.0340
22530SOL    HW169597   5.147   2.276   8.175 -0.3724  0.4340  0.8748
22530SOL    HW269598   5.254   2.172   8.198 -0.0034  1.0268  1.9082
22531SOL     OW69599   5.973   9.948   4.007 -0.6483  0.4626  0.7104
22531SOL    HW169600   5.928   9.872   4.044 -0.7008  1.1512  2.1302
22531SOL    HW269601   5.974   9.932   3.913  0.2466 -1.8030  1.0393
22532SOL     OW69602   5.870   5.961   4.562  0.3036 -0.1508 -0.5480
22532SOL    HW169603   5.867   5.988   4.653 -3.0840  0.2202 -0.6360
22532SOL    HW269604   5.897   6.039   4.514 -0.2447  0.3761 -0.0226
22533SOL     OW69605   3.393   2.041   9.559 -0.0645 -0.3201  0.3197
22533SOL    HW169606   3.412   2.120   9.609 -0.2099 -0.5484  0.7464
22533SOL    HW269607   3.347   1.984   9.621  0.7141 -1.0452  0.2630
22534SOL     OW69608   5.468   9.209   9.817  0.4235  0.4543  0.1072
22534SOL    HW169609   5.552   9.221   9.860 -0.1812  1.8801  0.9724
22534SOL    HW269610   5.410   9.273   9.859 -1.6720 -1.8745  1.0051
22535SOL     OW69611   6.942  10.771   2.318  0.2077 -0.1419  0.6492
22535SOL    HW169612   6.943  10.685   2.361  1.0463  0.6376  2.3112
22535SOL    HW269613   7.030  10.806   2.334  0.5409  0.2632 -1.6940
22536SOL     OW69614   2.355   6.089   4.055 -0.1807  0.0013 -0.1618
22536SOL    HW169615   2.320   6.012   4.101 -1.7558  1.6091  1.4561
22536SOL    HW269616   2.386   6.146   4.125 -1.6211  2.0577 -1.1312
22537SOL     OW69617   2.384   0.960   2.844 -1.0750  0.1251  0.6928
22537SOL    HW169618   2.311   0.985   2.900 -1.1360  0.0904  0.6304
22537SOL    HW269619   2.383   0.864   2.844 -0.0581  0.0948  1.9426
22538SOL     OW69620   8.643  10.139  10.353 -0.1994  0.1623 -0.3037
22538SOL    HW169621   8.712  10.077  10.333 -1.8571 -1.6647 -0.6896
22538SOL    HW269622   8.592  10.097  10.422 -0.5972  1.7329  0.4099
22539SOL     OW69623   7.303   4.945  11.046  0.1202 -0.3948 -0.9247
22539SOL    HW169624   7.370   5.007  11.075 -1.5047  1.5585 -1.1082
22539SOL    HW269625   7.320   4.866  11.097  1.3191  0.7342  0.5297
22540SOL     OW69626   2.839   2.053  10.731  0.0423  0.0277  0.0495
22540SOL    HW169627   2.853   1.958  10.736  1.3720  0.2444  1.0979
22540SOL    HW269628   2.926   2.091  10.742 -0.2591  1.3752 -1.7073
22541SOL     OW69629   7.976   6.486   5.820 -0.3929  0.3484 -0.3663
22541SOL    HW169630   7.978   6.391   5.833 -2.1868  0.1886 -1.0315
22541SOL    HW269631   7.910   6.517   5.882 -0.1402  1.1071 -0.4725
22542SOL     OW69632   3.557   9.622   8.419 -0.1240  0.1266  0.2711
22542SOL    HW169633   3.566   9.535   8.382  0.6464  0.2910  0.0698
22542SOL    HW269634   3.581   9.682   8.348 -1.5929  0.5547  0.0839
22543SOL     OW69635   9.302   5.479   6.387  0.3388 -0.1953 -0.0648
22543SOL    HW169636   9.347   5.562   6.371  1.4976 -0.3621  1.9391
22543SOL    HW269637   9.351   5.415   6.335 -1.1872  0.4416 -2.4454
22544SOL     OW69638   3.237   2.400  10.165 -0.5704 -1.0097  0.0102
22544SOL    HW169639   3.151   2.388  10.206  0.3526 -0.7421  2.2085
22544SOL    HW269640   3.265   2.311  10.142 -1.6180 -1.0511 -1.1726
22545SOL     OW69641   2.576   9.519   3.774 -0.4355 -0.2666  0.6438
22545SOL    HW169642   2.636   9.541   3.703 -0.7853  2.5939  1.1135
22545SOL    HW269643   2.489   9.532   3.736 -0.6454 -0.0327  1.2000
22546SOL     OW69644   1.882   3.412   5.988  0.3105  0.3156 -0.3198
22546SOL    HW169645   1.901   3.485   6.047 -0.5083 -0.5368  1.0592
22546SOL    HW269646   1.860   3.454   5.904 -0.0594  1.6546  0.4201
22547SOL     OW69647   1.424  10.492   4.339  0.2270  0.3484 -0.4972
22547SOL    HW169648   1.441  10.566   4.280  0.9582  1.1486  0.6697
22547SOL    HW269649   1.366  10.435   4.289 -2.0076  2.6365 -0.7808
22548SOL     OW69650   0.475   0.742   4.307  0.0048  0.8162 -0.0962
22548SOL    HW169651   0.548   0.799   4.332 -1.1510  1.4329  2.0442
22548SOL    HW269652   0.415   0.800   4.259 -0.1196  0.8382  0.0885
22549SOL     OW69653   4.374   7.193   8.581  0.1858  0.0990  0.4751
22549SOL    HW169654   4.303   7.151   8.533 -0.2093 -0.2441  1.3347
22549SOL    HW269655   4.341   7.202   8.670  1.1667  0.0648  0.8588
22550SOL     OW69656   9.177   9.509  10.367  0.2107  0.5235 -0.5600
22550SOL    HW169657   9.218   9.515  10.281 -1.2675  1.3841 -1.2537
22550SOL    HW269658   9.162   9.415  10.380  3.5270 -0.0130  0.3673
22551SOL     OW69659   8.851   4.515   8.449  0.6497 -0.4740 -0.2105
22551SOL    HW169660   8.853   4.483   8.359 -1.5924 -2.0446  0.2147
22551SOL    HW269661   8.828   4.608   8.441 -1.5437 -1.0469 -1.2494
22552SOL     OW69662   2.867  10.932   8.194  0.7665  0.0608  0.1505
22552SOL    HW169663   2.783  10.979   8.195  0.4402 -0.5198  0.7107
22552SOL    HW269664   2.911  10.959   8.275  0.2764 -1.1161  0.8230
22553SOL     OW69665   6.500   0.130   4.046  0.0525 -0.2771 -0.4434
22553SOL    HW169666   6.503   0.035   4.060  0.1009 -0.2039  0.0570
22553SOL    HW269667   6.414   0.145   4.006 -1.0270 -0.2577  1.7179
22554SOL     OW69668   4.342   3.309   2.535  0.0268  0.0091 -0.0540
22554SOL    HW169669   4.351   3.333   2.627  0.2481 -2.3364  0.5995
22554SOL    HW269670   4.387   3.378   2.487 -1.1196  1.9062  1.4806
22555SOL     OW69671   9.860   8.397  10.028 -0.0235  0.0045 -0.0991
22555SOL    HW169672   9.883   8.485  10.060 -2.3798 -0.0982  2.1710
22555SOL    HW269673   9.839   8.348  10.107  0.6179 -2.4824 -1.3780
22556SOL     OW69674   3.137   7.838   5.226 -0.3530  0.4156  0.2722
22556SOL    HW169675   3.061   7.854   5.282 -0.4589 -0.3639  0.3605
22556SOL    HW269676   3.118   7.755   5.183  0.4294  0.2410  0.2556
22557SOL     OW69677   2.356   2.561   6.564  0.4337 -0.1831 -0.0955
22557SOL    HW169678   2.382   2.511   6.487  2.1214 -0.7653  0.7972
22557SOL    HW269679   2.350   2.495   6.634 -0.5996  0.3975  0.3870
22558SOL     OW69680   6.915   3.439   4.473 -0.6019  0.2573 -0.1852
22558SOL    HW169681   6.888   3.506   4.536  0.8088 -0.8328  1.6580
22558SOL    HW269682   6.995   3.475   4.434 -1.5315  0.9794 -1.4998
22559SOL     OW69683   8.046   2.620   6.779 -0.4288 -0.5180  0.1974
22559SOL    HW169684   7.957   2.655   6.766 -1.7158 -2.4146  2.8850
22559SOL    HW269685   8.099   2.697   6.797 -1.2636  0.7521 -2.2246
22560SOL     OW69686   3.867   0.235   6.926 -0.0185  0.3968 -0.6218
22560SOL    HW169687   3.940   0.223   6.866  0.3539  0.1902 -0.1331
22560SOL    HW269688   3.892   0.186   7.005 -0.7918  0.1102 -0.5413
22561SOL     OW69689   0.704   2.350   8.979  0.5356 -0.2798 -0.4349
22561SOL    HW169690   0.662   2.433   8.957  0.1485 -0.1457  0.7341
22561SOL    HW269691   0.770   2.373   9.045  3.7791 -0.1992 -3.3628
22562SOL     OW69692  10.768   3.538   1.523  0.1502 -0.0249 -0.0329
22562SOL    HW169693  10.775   3.569   1.433  4.1359  0.0114  0.1076
22562SOL    HW269694  10.765   3.618   1.577  1.2707  0.0483 -0.0502
22563SOL     OW69695   9.915   7.572   2.776 -0.2188  0.0438 -0.1022
22563SOL    HW169696  10.002   7.609   2.762  0.9244 -2.1567  0.5800
22563SOL    HW269697   9.870   7.582   2.693  0.7041  1.1957 -0.4836
22564SOL     OW69698   5.200   2.071   4.649 -0.1037 -0.2409 -0.0400
22564SOL    HW169699   5.253   2.129   4.703  0.2909  1.1391 -1.8040
22564SOL    HW269700   5.262   2.004   4.618  0.2269  0.3202 -0.6302
22565SOL     OW69701   8.270   4.426   7.852 -0.8043 -0.7942  0.8289
22565SOL    HW169702   8.205   4.494   7.869 -1.7038 -1.0165 -1.4558
22565SOL    HW269703   8.341   4.470   7.806 -1.5275 -1.3947 -0.9349
22566SOL     OW69704   7.170   3.728   6.084 -1.0204 -0.3485 -0.1677
22566SOL    HW169705   7.192   3.754   5.994  0.8503 -3.2336 -0.6877
22566SOL    HW269706   7.190   3.805   6.136 -3.5821  1.9405 -2.2871
22567SOL     OW69707   5.003   8.484   9.118 -0.3589 -0.0586 -0.2305
22567SOL    HW169708   5.064   8.470   9.190 -1.0520  1.0373  0.6112
22567SOL    HW269709   4.922   8.513   9.161 -0.6575  1.0283 -1.4664
22568SOL     OW69710   6.468   4.923   3.116 -0.2811 -0.1435 -0.2607
22568SOL    HW169711   6.435   4.851   3.062 -1.0993 -0.4231  0.5836
22568SOL    HW269712   6.472   4.887   3.204  0.2451  0.5518  0.0085
22569SOL     OW69713   4.674   9.181   7.290  0.6396 -0.2047  0.3452
22569SOL    HW169714   4.752   9.142   7.251 -1.0357 -0.5703 -2.9322
22569SOL    HW269715   4.623   9.106   7.322  1.1202 -0.0390  1.5398
22570SOL     OW69716   2.235   9.526   0.883 -0.0840  0.5093 -0.7134
22570SOL    HW169717   2.310   9.533   0.824 -1.9949 -2.0875 -3.8240
22570SOL    HW269718   2.161   9.555   0.829 -1.6884  0.2010  1.2325
22571SOL     OW69719   6.689   0.719  10.165 -0.0199  0.3205  0.3734
22571SOL    HW169720   6.727   0.632  10.179  1.1677  0.9353  1.0999
22571SOL    HW269721   6.613   0.703  10.110  0.5874 -1.0969 -0.0959
22572SOL     OW69722  10.672   0.158   8.489 -0.7372  0.2260 -0.1185
22572SOL    HW169723  10.687   0.232   8.431  0.1296  0.6026  0.5558
22572SOL    HW269724  10.743   0.096   8.469 -0.7352  0.1298  0.1729
22573SOL     OW69725   3.789   1.312   2.698  0.3627 -0.2850  0.0287
22573SOL    HW169726   3.756   1.246   2.759  2.0111 -1.1380  0.0616
22573SOL    HW269727   3.733   1.388   2.713  0.8714 -0.3332  2.8704
22574SOL     OW69728   6.416  10.820   4.642 -0.2560 -0.2137  0.8077
22574SOL    HW169729   6.380  10.740   4.680  1.4226 -1.3941  0.0436
22574SOL    HW269730   6.428  10.799   4.549 -0.5986  1.2544  0.4006
22575SOL     OW69731   2.575   3.467   4.904  0.7109 -0.2870 -0.6028
22575SOL    HW169732   2.486   3.449   4.876  0.9833 -1.2511 -0.8957
22575SOL    HW269733   2.576   3.561   4.923 -0.0412 -0.0283 -1.7547
22576SOL     OW69734   8.909   8.433   4.252 -0.6335  0.4870 -0.1168
22576SOL    HW169735   8.815   8.419   4.262 -0.8932  2.5375  0.9260
22576SOL    HW269736   8.950   8.367   4.308 -1.5736  1.2282  1.5181
22577SOL     OW69737   2.359   7.587   3.813 -0.7446 -0.2524  0.5339
22577SOL    HW169738   2.290   7.600   3.878  0.1361 -1.3054  1.7270
22577SOL    HW269739   2.424   7.533   3.858 -0.4933 -1.7290 -1.4953
22578SOL     OW69740   8.562   8.220   1.156 -0.7601  0.2398  0.6226
22578SOL    HW169741   8.633   8.178   1.205 -1.3425  1.0412  2.2326
22578SOL    HW269742   8.517   8.148   1.112  1.7363 -0.1977 -1.5130
22579SOL     OW69743   2.843  10.588   4.495 -0.1231 -0.1013  0.3542
22579SOL    HW169744   2.880  10.656   4.552 -0.3053  0.0021  0.3494
22579SOL    HW269745   2.869  10.506   4.537  2.4930 -0.1394 -1.0881
22580SOL     OW69746   8.821   6.483   6.321  0.0189  0.5442 -0.2715
22580SOL    HW169747   8.787   6.403   6.281 -0.1346  0.1406  0.6458
22580SOL    HW269748   8.895   6.454   6.374  0.8310  1.2095 -1.0102
22581SOL     OW69749  10.547   8.731   9.252  0.1455 -0.7139  0.3213
22581SOL    HW169750  10.568   8.747   9.344 -0.6335  1.2722  0.2004
22581SOL    HW269751  10.586   8.645   9.233 -2.6205 -2.8664  3.3871
22582SOL     OW69752   7.163   8.990   5.319  0.0143 -0.0438 -0.3108
22582SOL    HW169753   7.139   8.984   5.226  0.7451 -0.9115 -0.4452
22582SOL    HW269754   7.222   9.066   5.323  0.6020 -0.4703 -0.6952
22583SOL     OW69755   2.870   0.349   5.298 -0.1041  0.0226 -0.4120
22583SOL    HW169756   2.928   0.421   5.319  0.0320  0.0560 -0.9014
22583SOL    HW269757   2.898   0.319   5.212 -0.4088 -0.3633 -0.3815
22584SOL     OW69758  10.677   2.028   8.235 -0.2243  0.4057 -0.3868
22584SOL    HW169759  10.667   2.098   8.300  2.7202 -0.6778  1.4357
22584SOL    HW269760  10.605   1.968   8.252 -0.3345  0.8750  0.9454
22585SOL     OW69761   6.796   9.979   2.850  0.0353 -0.7862 -0.6378
22585SOL    HW169762   6.843   9.930   2.783 -1.2376 -0.5174 -1.7812
22585SOL    HW269763   6.704   9.965   2.830 -0.3840 -0.6845  1.0740
22586SOL     OW69764  10.693   2.614   0.942  0.9310 -0.3538  0.5009
22586SOL    HW169765  10.672   2.639   1.032  0.6438  0.6470  0.1718
22586SOL    HW269766  10.788   2.611   0.939  0.9410 -1.8253  1.1951
22587SOL     OW69767   2.539   0.957   8.266 -1.0768 -0.2588 -0.5381
22587SOL    HW169768   2.507   0.874   8.232 -1.4111  0.1289 -1.1963
22587SOL    HW269769   2.460   1.004   8.293 -0.8130 -0.6075  0.9325
22588SOL     OW69770   2.078   5.379   2.480  0.2751  0.4458 -0.9252
22588SOL    HW169771   2.131   5.450   2.516 -0.7955  2.2802 -2.7699
22588SOL    HW269772   2.139   5.306   2.468  1.5377  1.2252  0.4389
22589SOL     OW69773   0.206  10.207  10.084  0.0754  0.5891  0.2831
22589SOL    HW169774   0.156  10.130  10.059  1.1683  0.6916 -2.5550
22589SOL    HW269775   0.286  10.202  10.033  0.0220  3.7933 -0.3654
22590SOL     OW69776   3.909  10.174   1.280 -0.7046  0.2184 -0.1702
22590SOL    HW169777   3.939  10.152   1.368 -1.4524 -1.4226 -0.2792
22590SOL    HW269778   3.988  10.174   1.226 -0.6329 -2.6265 -0.1969
22591SOL     OW69779   5.769   7.670   2.336 -0.0427  0.1181 -0.0712
22591SOL    HW169780   5.752   7.577   2.345 -0.7206  0.0730 -1.5920
22591SOL    HW269781   5.683   7.711   2.327  0.2062  0.9826  1.1167
22592SOL     OW69782   3.517   3.315   9.152  0.1523 -0.0468  0.5561
22592SOL    HW169783   3.477   3.384   9.204 -0.5349  0.9483 -1.2070
22592SOL    HW269784   3.507   3.344   9.062  1.6812 -1.4976 -0.1360
22593SOL     OW69785   6.091   9.682   8.486  0.2595  0.2552 -0.4579
22593SOL    HW169786   6.028   9.610   8.480  0.5149 -0.0377  0.2402
22593SOL    HW269787   6.122   9.680   8.576  1.5518  0.1593 -0.8774
22594SOL     OW69788   7.196   2.635   1.481  0.3381  0.0927 -0.4762
22594SOL    HW169789   7.108   2.635   1.442 -0.3442 -0.5061  0.9653
22594SOL    HW269790   7.186   2.582   1.560  1.9701  0.1783 -0.1887
22595SOL     OW69791   0.268  10.811   0.724 -0.6138  0.1635 -0.7753
22595SOL    HW169792   0.242  10.719   0.728 -2.0526  0.5685  0.5514
22595SOL    HW269793   0.363  10.810   0.733 -0.6801 -1.1622  0.0938
22596SOL     OW69794   6.072   9.300   3.673  0.1484 -0.2792 -0.2945
22596SOL    HW169795   6.159   9.322   3.707  0.4954  1.2070 -1.9960
22596SOL    HW269796   6.034   9.244   3.741  2.4426 -1.0547  0.4525
22597SOL     OW69797  10.770   9.932   8.133  0.2752  0.1629  0.9995
22597SOL    HW169798  10.858   9.919   8.168  0.2585 -0.4668  0.8316
22597SOL    HW269799  10.773   9.890   8.047 -0.2658 -0.1082  1.1094
22598SOL     OW69800   4.504   1.921   7.801 -0.5316  0.7651  0.1940
22598SOL    HW169801   4.462   1.842   7.767 -1.0137 -0.3571  3.1139
22598SOL    HW269802   4.591   1.920   7.761 -0.0086 -2.0667  1.1469
22599SOL     OW69803   5.292   7.351   2.787  0.8241 -0.1349 -0.6025
22599SOL    HW169804   5.277   7.437   2.826 -1.4154 -0.4040 -0.7664
22599SOL    HW269805   5.326   7.297   2.860 -2.2732 -0.3436  0.8371
22600SOL     OW69806   3.654  10.766   6.340 -0.2090 -0.8745 -0.4430
22600SOL    HW169807   3.643  10.686   6.392  0.7990  0.4283  1.9333
22600SOL    HW269808   3.584  10.824   6.370 -0.3442 -0.5040 -1.4417
22601SOL     OW69809   4.877   5.559   8.639 -0.7362  0.1233  0.1562
22601SOL    HW169810   4.873   5.556   8.734 -1.1501  0.5364  0.1571
22601SOL    HW269811   4.788   5.539   8.610 -0.4328 -0.8021 -0.1709
22602SOL     OW69812   4.678   5.963   4.737 -0.4242  0.1354  0.5487
22602SOL    HW169813   4.631   5.892   4.781  1.6770 -1.4776  0.3561
22602SOL    HW269814   4.755   5.979   4.791 -0.0404  1.1521 -0.2656
22603SOL     OW69815  10.752   7.908   0.599  0.1281  0.8025  0.2130
22603SOL    HW169816  10.707   7.864   0.527  1.8874 -0.0348 -0.4267
22603SOL    HW269817  10.683   7.928   0.662 -1.3692  1.0553 -1.4436
22604SOL     OW69818   5.475   0.823   9.195 -0.0835  0.0647  0.3432
22604SOL    HW169819   5.567   0.847   9.179 -0.1297  1.4661  1.8835
22604SOL    HW269820   5.426   0.903   9.174 -1.0791 -0.9164 -1.2545
22605SOL     OW69821   6.101   6.406   2.583  0.0390  0.3340 -0.4552
22605SOL    HW169822   6.009   6.422   2.561  0.4654  0.5825 -2.2615
22605SOL    HW269823   6.141   6.493   2.584  0.7377  0.0918 -2.2854
22606SOL     OW69824   4.626   7.909  10.749 -0.1379  0.5504  0.3866
22606SOL    HW169825   4.555   7.946  10.696 -1.4945 -1.3754  0.7454
22606SOL    HW269826   4.599   7.926  10.839 -0.4509 -0.6965  0.5361
22607SOL     OW69827   5.978   8.523   9.030  0.0549  0.1008 -0.4810
22607SOL    HW169828   5.971   8.440   9.077  1.1549 -0.0011 -0.4669
22607SOL    HW269829   5.892   8.534   8.989 -0.3388 -0.6877  0.0948
22608SOL     OW69830   4.313   0.723   0.748 -0.3323 -0.4159 -0.1280
22608SOL    HW169831   4.264   0.751   0.825  0.1431  0.1800 -0.0299
22608SOL    HW269832   4.373   0.796   0.730 -0.7721 -0.3298 -1.3539
22609SOL     OW69833   5.361   6.847   7.206  0.5575  0.0857  0.2133
22609SOL    HW169834   5.356   6.800   7.290 -1.1510 -0.6018 -0.2417
22609SOL    HW269835   5.312   6.792   7.145  0.4878  1.3298 -0.8838
22610SOL     OW69836   2.969   8.569   5.386 -0.3557  0.0474  0.2932
22610SOL    HW169837   3.048   8.522   5.415  0.1058 -1.6196 -3.1447
22610SOL    HW269838   3.002   8.634   5.324 -1.4470  1.8516  1.5263
22611SOL     OW69839   3.474  10.835  10.316 -0.7974 -0.7645  0.1145
22611SOL    HW169840   3.528  10.780  10.260 -0.1321  0.1104 -0.1302
22611SOL    HW269841   3.530  10.910  10.337 -1.6861 -0.1759  0.4252
22612SOL     OW69842   8.342   7.369   1.093 -0.0613 -0.1839  0.0931
22612SOL    HW169843   8.285   7.294   1.073  0.2205  0.1607 -2.3910
22612SOL    HW269844   8.286   7.445   1.079  1.0221  0.1873 -3.0654
22613SOL     OW69845   6.256   9.857   6.256  0.7062  0.1014 -0.2995
22613SOL    HW169846   6.190   9.790   6.275 -0.0672  0.2054 -2.4186
22613SOL    HW269847   6.218   9.939   6.288  0.8715 -0.1831  0.6538
22614SOL     OW69848  10.325   1.952   7.840 -0.5875 -0.0632  0.2077
22614SOL    HW169849  10.243   1.996   7.821 -0.1700  0.5076 -0.3245
22614SOL    HW269850  10.370   2.009   7.902 -0.0506  0.2794 -0.4747
22615SOL     OW69851  10.597  10.405  10.234  1.0376 -0.0573 -0.3031
22615SOL    HW169852  10.513  10.359  10.230  1.1012 -0.1080 -1.7961
22615SOL    HW269853  10.592  10.459  10.312  0.7433 -2.1822  1.2475
22616SOL     OW69854   3.859   2.805   5.577 -0.4587  0.7505  0.2863
22616SOL    HW169855   3.844   2.711   5.589 -1.3355  0.6135 -1.4595
22616SOL    HW269856   3.844   2.844   5.663 -2.7813 -0.3995  0.4806
22617SOL     OW69857   0.674   6.840  10.407  0.0464 -0.4015  0.2436
22617SOL    HW169858   0.683   6.926  10.448  0.5259  0.0381 -0.7476
22617SOL    HW269859   0.585   6.812  10.429  0.0711  0.0957  1.0270
22618SOL     OW69860   6.620  10.825   2.341  0.7869  0.1621 -0.4357
22618SOL    HW169861   6.697  10.853   2.391  0.3181 -0.6643  0.7935
22618SOL    HW269862   6.648  10.746   2.296  1.2650  1.0064 -1.6700
22619SOL     OW69863   6.654   3.966   6.463  0.3983 -0.2492 -0.5964
22619SOL    HW169864   6.611   4.018   6.395 -2.8736 -1.8017  0.1020
22619SOL    HW269865   6.618   3.999   6.545 -0.4900 -2.4300 -0.0435
22620SOL     OW69866   2.815   0.816   2.198 -0.0831 -0.3751 -0.0734
22620SOL    HW169867   2.788   0.898   2.240  2.8021 -0.3792  2.0542
22620SOL    HW269868   2.732   0.772   2.177 -1.7034  2.0200  0.8167
22621SOL     OW69869   2.821  10.280  11.095  0.4425 -0.4092 -0.0209
22621SOL    HW169870   2.807  10.356  11.152 -0.2526 -0.2952 -0.3381
22621SOL    HW269871   2.907  10.296  11.055 -0.0381  0.6255 -0.6992
22622SOL     OW69872   0.275   9.879   8.832  0.3448 -0.1208  0.1329
22622SOL    HW169873   0.301   9.917   8.916  0.7086  1.3837 -0.6163
22622SOL    HW269874   0.191   9.838   8.849  0.4870  0.0283  1.2631
22623SOL     OW69875   9.321   8.224  10.456  0.1038 -0.8038 -0.1121
22623SOL    HW169876   9.322   8.151  10.393 -1.4613 -1.1277  0.2012
22623SOL    HW269877   9.392   8.281  10.428  1.7433 -2.7151 -0.0524
22624SOL     OW69878   7.268  10.875   3.335 -0.0304  0.1458  0.2922
22624SOL    HW169879   7.278  10.930   3.413 -1.7213 -1.0722  1.4335
22624SOL    HW269880   7.308  10.792   3.359 -0.4323 -0.1911 -0.1825
22625SOL     OW69881   1.606   9.722   1.457  0.1409  0.4326 -0.4373
22625SOL    HW169882   1.541   9.664   1.496  1.8218 -1.4421 -0.2870
22625SOL    HW269883   1.615   9.692   1.367 -0.7281  2.1046 -1.1290
22626SOL     OW69884   7.165   0.677   1.028  0.5107  0.2432 -0.2568
22626SOL    HW169885   7.256   0.648   1.032  0.1876 -1.0190 -1.2898
22626SOL    HW269886   7.120   0.607   0.981 -0.9258  1.0316 -0.1090
22627SOL     OW69887   1.676   3.132   0.242  0.2237 -0.0034 -0.2090
22627SOL    HW169888   1.750   3.073   0.253 -0.2736 -0.8887 -1.3546
22627SOL    HW269889   1.690   3.201   0.307  1.5474 -0.6428  0.2209
22628SOL     OW69890  10.009   1.051   1.077  0.3963 -0.4895 -0.0747
22628SOL    HW169891  10.068   0.978   1.060  0.9768  0.0235 -0.3472
22628SOL    HW269892  10.066   1.128   1.075 -0.3028  0.0292 -0.4364
22629SOL     OW69893   4.846   7.974   4.769 -0.1972  0.1448 -0.1049
22629SOL    HW169894   4.852   8.070   4.763 -0.6228  0.1095 -1.2268
22629SOL    HW269895   4.850   7.944   4.679 -1.5814 -0.8112  0.1246
22630SOL     OW69896   6.133  10.920   0.174 -0.1210 -0.6774 -0.5979
22630SOL    HW169897   6.044  10.937   0.204  0.2610 -1.4726  1.1387
22630SOL    HW269898   6.158  10.839   0.219  2.1123  0.4895  0.4122
22631SOL     OW69899  10.229   8.303   1.735 -0.0996  0.2253  0.4336
22631SOL    HW169900  10.211   8.361   1.661 -0.8379 -0.6524 -0.0823
22631SOL    HW269901  10.301   8.346   1.781 -1.4091  2.2207  0.7765
22632SOL     OW69902   6.125   5.221   8.329 -0.1209 -0.0025  0.4010
22632SOL    HW169903   6.188   5.175   8.274 -0.9626  0.0211 -0.6127
22632SOL    HW269904   6.043   5.173   8.316 -0.0459 -0.8960  2.7661
22633SOL     OW69905   5.665   7.483  10.937 -0.1619  0.8614  0.2109
22633SOL    HW169906   5.694   7.500  11.026  3.0736  1.0469 -0.7447
22633SOL    HW269907   5.606   7.408  10.945  0.7041  0.3305  2.4294
22634SOL     OW69908   1.103   4.628   3.366 -0.0583 -0.2462  0.1874
22634SOL    HW169909   1.057   4.660   3.443 -1.9634 -1.5381 -0.3555
22634SOL    HW269910   1.107   4.533   3.378  0.8410 -0.3408 -0.6877
22635SOL     OW69911   5.793   7.646   0.913  0.5368  0.3689 -0.4842
22635SOL    HW169912   5.868   7.602   0.873 -0.0624  0.1270 -1.3808
22635SOL    HW269913   5.812   7.739   0.903 -0.5807  0.3687 -3.3794
22636SOL     OW69914   9.238   6.778   1.373  0.0983 -0.2167  0.2698
22636SOL    HW169915   9.263   6.732   1.292  2.5521 -1.8086  1.7668
22636SOL    HW269916   9.322   6.795   1.416 -1.1167  1.0752  2.2431
22637SOL     OW69917   6.151   6.500   8.782 -0.1967 -0.4742  0.5718
22637SOL    HW169918   6.099   6.420   8.774  1.5496 -1.5932 -0.1164
22637SOL    HW269919   6.137   6.546   8.699  0.4803 -1.1461  0.0743
22638SOL     OW69920   6.777   9.041   7.090 -0.1530  0.0806  0.3362
22638SOL    HW169921   6.750   8.961   7.134 -3.4543  0.4928 -0.6479
22638SOL    HW269922   6.745   9.032   7.001  1.6639  1.4602 -0.5176
22639SOL     OW69923   4.714   5.466  10.312  0.1378 -0.2722  0.1079
22639SOL    HW169924   4.715   5.510  10.226  0.8252 -0.4651  0.0128
22639SOL    HW269925   4.627   5.426  10.317  0.3720 -0.9332 -0.8457
22640SOL     OW69926   0.144   1.323  10.186  0.6564 -0.5578  0.2048
22640SOL    HW169927   0.169   1.267  10.112  0.6057  0.0688 -0.2925
22640SOL    HW269928   0.189   1.284  10.262  2.6606  0.1530 -0.5450
22641SOL     OW69929   6.461  10.411   9.013  1.1444 -0.4194  0.3326
22641SOL    HW169930   6.398  10.446   9.075  2.1417  0.1690  1.0481
22641SOL    HW269931   6.420  10.424   8.927  1.3600  2.3900  0.5553
22642SOL     OW69932   1.912  10.973   8.729 -0.1245  0.1239  0.1394
22642SOL    HW169933   1.994  10.996   8.773 -1.3377  0.2320  2.4631
22642SOL    HW269934   1.904  11.038   8.659  0.1197  2.2998  2.0201
22643SOL     OW69935   3.697   7.956   8.198  0.1659  0.4575  0.6868
22643SOL    HW169936   3.612   7.958   8.154  1.0683 -0.4952 -1.2117
22643SOL    HW269937   3.723   8.048   8.205  0.0838  0.6448 -1.0431
22644SOL     OW69938   9.457   8.245   4.973  0.2318  0.5271  0.4552
22644SOL    HW169939   9.429   8.182   5.039  0.0669  1.2489  1.0814
22644SOL    HW269940   9.405   8.324   4.991 -1.3483  0.1026 -1.7989
22645SOL     OW69941   2.053  10.756   9.467 -0.2169  0.6568 -0.4980
22645SOL    HW169942   2.107  10.762   9.388 -1.4084  2.5207 -1.2564
22645SOL    HW269943   2.000  10.836   9.466 -0.4144  0.6521  2.1100
22646SOL     OW69944   6.294   0.098  10.189  0.5594 -1.0046 -0.1680
22646SOL    HW169945   6.294   0.004  10.177 -1.9130 -1.0221 -0.4122
22646SOL    HW269946   6.337   0.111  10.274 -0.6319 -2.5097  0.7148
22647SOL     OW69947   6.505   5.348   9.100  0.5182 -0.3262  0.1370
22647SOL    HW169948   6.411   5.341   9.083  0.6577 -0.7663 -0.4842
22647SOL    HW269949   6.521   5.442   9.109  0.0976 -0.2200 -0.1855
22648SOL     OW69950   5.474   3.202  10.285 -0.4184  0.6144 -0.6120
22648SOL    HW169951   5.484   3.135  10.353  0.1611  0.2050 -1.0882
22648SOL    HW269952   5.391   3.182  10.243 -0.5707  0.6032 -0.3047
22649SOL     OW69953   2.791   7.245  10.499 -0.3521 -0.3122  0.0233
22649SOL    HW169954   2.739   7.264  10.578  0.2753  0.6670  0.2133
22649SOL    HW269955   2.769   7.317  10.439 -1.4765 -1.4974 -1.0493
22650SOL     OW69956  10.950   2.520   8.123 -0.0379 -0.4489 -0.3383
22650SOL    HW169957  10.901   2.598   8.098 -2.9021 -1.7359  0.7314
22650SOL    HW269958  10.931   2.457   8.054  0.0265 -1.0002  0.1413
22651SOL     OW69959   3.144   7.124   0.119  0.3078 -0.0118  0.1494
22651SOL    HW169960   3.076   7.137   0.054  1.1116  2.1113 -0.3452
22651SOL    HW269961   3.108   7.058   0.179 -1.5989  0.0670 -0.8419
22652SOL     OW69962   9.957   2.171   9.372 -0.1843 -0.1733 -0.3844
22652SOL    HW169963   9.924   2.260   9.374 -1.1223 -0.5208  1.0631
22652SOL    HW269964   9.972   2.152   9.279 -2.9359  0.4220 -1.0238
22653SOL     OW69965   8.995   7.692   5.126  0.4680  0.2355  0.2021
22653SOL    HW169966   8.963   7.677   5.038  1.6294  0.0463 -0.2052
22653SOL    HW269967   9.008   7.787   5.131 -1.5002  0.5080  0.8703
22654SOL     OW69968   5.148   9.190   3.188 -0.7744 -0.5904  0.1082
22654SOL    HW169969   5.149   9.286   3.197  1.3221 -0.0078 -3.8544
22654SOL    HW269970   5.240   9.165   3.196 -0.7807 -1.6857 -2.3016
22655SOL     OW69971   2.757  10.859   5.340  0.1293 -0.6279 -0.5724
22655SOL    HW169972   2.682  10.858   5.281 -1.4473  1.0400  1.2461
22655SOL    HW269973   2.829  10.893   5.287 -0.4895 -1.7629 -2.2242
22656SOL     OW69974   4.819   3.647   0.704  0.5751 -0.7900 -0.3075
22656SOL    HW169975   4.737   3.609   0.735  1.1843 -1.4578  0.5258
22656SOL    HW269976   4.796   3.736   0.676 -0.5191 -1.1413 -0.5551
22657SOL     OW69977   9.576   3.808   2.618 -0.6036 -0.5943 -0.3770
22657SOL    HW169978   9.535   3.770   2.696 -0.8918 -0.7127 -0.5840
22657SOL    HW269979   9.518   3.879   2.592  0.6946  1.0117  0.8817
22658SOL     OW69980   3.468   2.006   6.121  0.1082  0.2655 -0.3912
22658SOL    HW169981   3.424   1.923   6.142  0.4330 -0.1645 -1.3339
22658SOL    HW269982   3.555   1.979   6.091 -0.8058  0.6591 -3.7139
22659SOL     OW69983   6.044   8.077   8.487  0.4757  0.4133  0.5518
22659SOL    HW169984   6.026   8.024   8.409  0.3026  0.4423  0.5712
22659SOL    HW269985   5.963   8.072   8.539 -0.4550  2.6359 -0.5614
22660SOL     OW69986   6.250   8.374   1.405 -0.3438 -0.4661 -0.0031
22660SOL    HW169987   6.234   8.439   1.474  1.0318  0.2200 -0.2922
22660SOL    HW269988   6.162   8.345   1.379 -0.9778  0.8991  0.5018
22661SOL     OW69989   7.592   3.259   2.641 -0.1415  0.2173 -0.7465
22661SOL    HW169990   7.636   3.342   2.658  0.6139 -0.4699  0.9374
22661SOL    HW269991   7.532   3.277   2.569 -0.7558  2.4739  0.2476
22662SOL     OW69992   0.015   0.788   2.238  0.2827  0.2825  0.3423
22662SOL    HW169993  -0.032   0.713   2.275  1.4084 -1.2784 -1.2334
22662SOL    HW269994  -0.004   0.860   2.299  0.6530 -1.6845  2.9972
22663SOL     OW69995   5.577   9.564   8.064  0.4128  0.1899 -0.1449
22663SOL    HW169996   5.527   9.613   7.999  0.3106 -0.5189 -0.6169
22663SOL    HW269997   5.533   9.479   8.069  1.0621 -0.1449  0.0492
22664SOL     OW69998   0.468   3.657   0.065  0.6977  0.0278  0.1909
22664SOL    HW169999   0.424   3.572   0.062  0.3663  0.1965  0.2933
22664SOL    HW270000   0.516   3.661  -0.018 -2.1004  1.2322 -1.5372
22665SOL     OW70001   4.658   1.066   5.782  0.1115  0.1661  0.4031
22665SOL    HW170002   4.611   1.147   5.760 -1.0115 -0.5820 -0.0185
22665SOL    HW270003   4.591   0.998   5.783  1.1278 -0.8741  0.2022
22666SOL     OW70004   7.004  10.496   8.078 -0.2195 -0.2351  0.4172
22666SOL    HW170005   6.988  10.492   7.984  1.7142  1.1523 -0.0403
22666SOL    HW270006   7.100  10.492   8.086 -0.3911 -1.9033  2.4430
22667SOL     OW70007  10.839   6.204   2.243 -0.0706  0.2542  0.1519
22667SOL    HW170008  10.830   6.124   2.191 -2.0819 -1.3990  2.7708
22667SOL    HW270009  10.804   6.180   2.329 -1.4657  4.1829  0.8645
22668SOL     OW70010   8.486   4.541   1.893  0.1099  0.1065 -0.0172
22668SOL    HW170011   8.442   4.486   1.959 -0.8244  0.0835 -0.6446
22668SOL    HW270012   8.490   4.486   1.815  1.6563 -0.0421  0.1254
22669SOL     OW70013   8.847   4.551   7.254  0.0441 -0.3697 -0.3559
22669SOL    HW170014   8.782   4.526   7.188  0.6543  0.9222 -1.5059
22669SOL    HW270015   8.928   4.561   7.204 -0.0482  3.4295 -0.0179
22670SOL     OW70016   2.381   6.389   7.907 -0.3182  0.0234  0.0720
22670SOL    HW170017   2.457   6.426   7.861  1.5331 -1.8668  1.3993
22670SOL    HW270018   2.335   6.339   7.839 -0.9998  1.9853 -0.9768
22671SOL     OW70019   9.255   8.548   7.368 -0.0806  0.2077 -0.0435
22671SOL    HW170020   9.233   8.577   7.456 -1.9108  0.4528 -0.5578
22671SOL    HW270021   9.262   8.453   7.375 -1.5085  0.1012  0.1159
22672SOL     OW70022   9.882   1.379   8.800 -0.3293 -0.1749  0.0983
22672SOL    HW170023   9.793   1.380   8.836 -1.2450  0.8623 -2.0201
22672SOL    HW270024   9.880   1.443   8.730  1.9815 -0.5091 -0.3468
22673SOL     OW70025   3.568   2.658   0.448 -0.3630 -0.1254  0.4107
22673SOL    HW170026   3.519   2.694   0.374  1.3032  0.3072 -0.5355
22673SOL    HW270027   3.588   2.734   0.503 -3.0288 -0.6465  2.2812
22674SOL     OW70028   6.138   3.708   0.976  0.8693  0.5613  0.2073
22674SOL    HW170029   6.106   3.720   1.066 -1.2590 -1.6133 -0.1395
22674SOL    HW270030   6.196   3.632   0.981  0.3168  0.0934 -0.3100
22675SOL     OW70031   0.660   9.839   4.148  0.1006 -0.0537 -0.2325
22675SOL    HW170032   0.737   9.852   4.203 -0.8663  1.9094  0.7813
22675SOL    HW270033   0.589   9.821   4.210 -0.6415  0.2685 -0.9740
22676SOL     OW70034   5.173   0.250  10.710  0.1583 -1.0384  0.3503
22676SOL    HW170035   5.225   0.195  10.769  1.2453 -2.5818 -1.8841
22676SOL    HW270036   5.142   0.190  10.642 -0.7378  0.6959 -0.8511
22677SOL     OW70037  10.390   1.624   1.423  0.0422 -0.6417  0.1432
22677SOL    HW170038  10.470   1.579   1.396  0.0509 -0.7269  0.3051
22677SOL    HW270039  10.323   1.556   1.422  0.0641 -0.6689  0.4281
22678SOL     OW70040   1.020   5.513   4.112  0.6363 -0.5177 -0.8910
22678SOL    HW170041   0.955   5.443   4.115 -0.5874  0.5984 -0.1000
22678SOL    HW270042   1.071   5.503   4.193 -2.0307  1.6914  1.2638
22679SOL     OW70043   4.858   5.863   2.002  0.3810  0.1971 -0.3629
22679SOL    HW170044   4.846   5.954   2.030 -1.8547  0.1708 -1.0511
22679SOL    HW270045   4.856   5.813   2.084  0.4571  0.6553 -0.0745
22680SOL     OW70046   5.165   9.287   8.894  0.7248  0.2514 -0.2637
22680SOL    HW170047   5.156   9.238   8.812 -0.6185  0.5743 -0.3280
22680SOL    HW270048   5.115   9.368   8.879  2.9703  1.7477 -0.2097
22681SOL     OW70049   4.752   5.601   8.286 -0.8393 -0.1972 -0.0319
22681SOL    HW170050   4.685   5.592   8.353 -0.9126  0.3058 -0.0391
22681SOL    HW270051   4.794   5.514   8.283  1.4359  0.6057  3.0441
22682SOL     OW70052   9.508   4.510   6.733 -0.2883 -0.3511  0.3121
22682SOL    HW170053   9.578   4.483   6.792  0.2810  0.6781  0.1327
22682SOL    HW270054   9.490   4.433   6.679  0.2202 -0.8359  0.8255
22683SOL     OW70055   4.983   7.672   1.078 -0.2772  0.3496  0.1477
22683SOL    HW170056   4.995   7.606   1.011  0.0342 -0.3942  0.9166
22683SOL    HW270057   4.986   7.624   1.161 -0.6044  1.2449  0.7024
22684SOL     OW70058   9.976   6.359   3.359 -0.2995 -0.0152  0.4143
22684SOL    HW170059   9.882   6.376   3.353 -0.4348 -0.3883  1.2986
22684SOL    HW270060  10.017   6.438   3.324 -0.9276 -0.3021 -1.0784
22685SOL     OW70061  10.163   6.695   9.776 -0.2320 -0.1958 -0.6402
22685SOL    HW170062  10.095   6.696   9.708 -0.8263 -0.2313 -0.0589
22685SOL    HW270063  10.239   6.658   9.733  0.0483  1.6915 -1.8993
22686SOL     OW70064   2.572   5.529   2.144 -0.0286  0.1263  0.2761
22686SOL    HW170065   2.643   5.512   2.206  0.9404  1.4773 -0.4023
22686SOL    HW270066   2.548   5.620   2.159  0.4312  0.5755 -1.4826
22687SOL     OW70067   4.263   6.874  10.560 -0.3377 -0.3732  0.4915
22687SOL    HW170068   4.268   6.789  10.516  1.8285 -0.5385  0.9397
22687SOL    HW270069   4.182   6.870  10.611 -0.8867 -1.6775 -0.4370
22688SOL     OW70070   5.098   9.876   1.003  0.1546  0.1454 -0.0377
22688SOL    HW170071   5.135   9.850   0.918 -0.4819  1.3924 -0.7197
22688SOL    HW270072   5.171   9.866   1.064  0.6916 -0.5489 -0.7690
22689SOL     OW70073   8.076   9.579   2.199 -0.4125  0.0496 -0.5925
22689SOL    HW170074   8.086   9.548   2.109  1.7522 -4.7631  0.9700
22689SOL    HW270075   8.165   9.605   2.225 -1.0712  1.7017  0.1133
22690SOL     OW70076   1.808   3.950   1.207 -0.1139  0.3585  0.4546
22690SOL    HW170077   1.866   3.936   1.132 -1.9066  1.6359 -1.2701
22690SOL    HW270078   1.858   3.919   1.282  2.5780  0.9268 -0.9870
22691SOL     OW70079   9.053  10.365   8.954  0.1753 -0.3329  0.3681
22691SOL    HW170080   9.099  10.281   8.966  0.5953 -0.2771 -0.6828
22691SOL    HW270081   8.970  10.353   8.999 -0.2635 -1.7534 -0.7249
22692SOL     OW70082   5.973   1.330   6.342  0.6421  0.0276 -0.8702
22692SOL    HW170083   5.988   1.390   6.270  1.6876  0.6097 -0.1942
22692SOL    HW270084   6.012   1.247   6.313  1.5236  0.4025 -0.7791
22693SOL     OW70085   3.590   3.443   3.213  1.1678  0.3986 -0.1271
22693SOL    HW170086   3.585   3.377   3.282 -1.2342  0.6503  0.0514
22693SOL    HW270087   3.633   3.398   3.140  3.5790  0.0728  1.3855
22694SOL     OW70088   7.194   7.400   2.792 -0.0343 -0.4761  0.5639
22694SOL    HW170089   7.279   7.443   2.778 -0.4356 -0.0507 -0.7248
22694SOL    HW270090   7.131   7.472   2.798 -0.8322 -0.7738 -2.3857
22695SOL     OW70091   9.909   6.626   1.872 -0.3738 -0.0342 -0.3598
22695SOL    HW170092   9.890   6.680   1.949  0.2453  0.8008 -0.7647
22695SOL    HW270093   9.946   6.688   1.809  1.3894 -1.1196 -0.4549
22696SOL     OW70094   0.408   8.059   5.057 -0.4618  0.4386 -0.2815
22696SOL    HW170095   0.325   8.019   5.032 -1.1134  1.1776  0.6440
22696SOL    HW270096   0.395   8.153   5.044 -0.4014  0.7289  1.5133
22697SOL     OW70097   2.933   0.586   2.312  0.7095 -0.5308  0.4708
22697SOL    HW170098   2.868   0.652   2.338  1.9371  0.9938 -0.2177
22697SOL    HW270099   3.004   0.596   2.375  0.5005 -1.9440  0.9894
22698SOL     OW70100   0.917   2.255   6.998 -0.2752  0.0604 -1.0486
22698SOL    HW170101   1.008   2.261   6.968  1.0482 -3.9949  1.3393
22698SOL    HW270102   0.920   2.283   7.090 -1.2089 -0.9825 -0.6766
22699SOL     OW70103   3.710   6.969  10.831 -1.2674 -0.0222  0.6805
22699SOL    HW170104   3.718   7.059  10.798  2.7829 -1.3741 -3.0808
22699SOL    HW270105   3.789   6.957  10.885 -1.2861 -1.5383  0.4019
22700SOL     OW70106   2.643   1.676   4.293 -0.2311  0.0739  0.3908
22700SOL    HW170107   2.638   1.591   4.249 -1.3057  0.5382 -0.4330
22700SOL    HW270108   2.660   1.738   4.222 -1.1095  0.7394  0.7477
22701SOL     OW70109   5.859   1.228   5.638 -0.9404  0.5902 -0.1439
22701SOL    HW170110   5.952   1.210   5.624 -1.2220 -1.4381  0.3010
22701SOL    HW270111   5.837   1.183   5.720 -2.3360  0.9200 -0.3053
22702SOL     OW70112   7.688   3.321   3.043  0.2869 -0.3111  0.0793
22702SOL    HW170113   7.626   3.255   3.014 -1.3183  0.8899  0.6621
22702SOL    HW270114   7.755   3.322   2.975  0.2258 -2.3419 -0.0498
22703SOL     OW70115   1.844   4.929   9.654 -0.7665  0.2907 -0.3897
22703SOL    HW170116   1.764   4.905   9.606 -1.3607  0.4903  0.4861
22703SOL    HW270117   1.824   5.014   9.692 -0.3853  0.0414  0.3829
22704SOL     OW70118   1.242   3.834   8.041  0.2651 -0.1587  0.2696
22704SOL    HW170119   1.315   3.865   8.094 -0.1778 -1.2335  1.5691
22704SOL    HW270120   1.282   3.778   7.975  0.7684  0.6680 -0.1361
22705SOL     OW70121   9.165   6.423  10.009  0.1615  0.0205 -1.2369
22705SOL    HW170122   9.170   6.380   9.923 -2.4909  0.8910 -1.9007
22705SOL    HW270123   9.114   6.502   9.993  0.0818  0.4836  1.0620
22706SOL     OW70124   5.523   1.642   2.514  0.4944  0.2377 -0.3576
22706SOL    HW170125   5.549   1.563   2.563 -1.0080  1.2884  2.3060
22706SOL    HW270126   5.606   1.688   2.499  1.0514 -0.1179  1.3165
22707SOL     OW70127   4.103   1.377   8.397  0.0750  0.5705  0.3631
22707SOL    HW170128   4.140   1.376   8.485 -0.0274 -1.7491  0.4434
22707SOL    HW270129   4.168   1.332   8.343 -0.9943 -0.3295 -0.2107
22708SOL     OW70130   2.255   4.164   8.442 -0.2538 -0.9747  0.0273
22708SOL    HW170131   2.231   4.256   8.432 -2.0135 -1.1519  1.9442
22708SOL    HW270132   2.203   4.118   8.375  0.0224 -0.6576 -0.4062
22709SOL     OW70133   8.840   1.034   6.185 -0.2792 -0.1764 -0.4251
22709SOL    HW170134   8.792   1.117   6.180 -0.2572 -0.1743 -0.6009
22709SOL    HW270135   8.772   0.967   6.175 -0.1423 -0.1622 -1.5089
22710SOL     OW70136   8.036   8.518   8.784 -0.6658 -0.0457 -0.3561
22710SOL    HW170137   8.032   8.568   8.703  0.1060 -1.5844 -1.3955
22710SOL    HW270138   7.946   8.517   8.816 -0.9713  0.6429 -1.1706
22711SOL     OW70139   2.710   5.836   7.070 -0.0192  0.3825  0.1256
22711SOL    HW170140   2.687   5.885   7.149  0.4449  1.0565 -0.1495
22711SOL    HW270141   2.749   5.755   7.103  1.6912  1.3631  0.6263
22712SOL     OW70142  10.967   2.650   7.092 -0.5275  0.1287 -0.0568
22712SOL    HW170143  10.971   2.728   7.148  0.7097  0.2215 -0.2540
22712SOL    HW270144  11.004   2.580   7.146  2.1373  0.5284 -1.2214
22713SOL     OW70145   8.938  10.646   8.270 -0.3427 -0.3732  0.6273
22713SOL    HW170146   8.998  10.580   8.236 -0.3637  0.1302 -0.4102
22713SOL    HW270147   8.968  10.662   8.360  0.1507 -1.1959  0.6179
22714SOL     OW70148   5.127   9.513   0.306 -0.0301 -0.1139 -0.2855
22714SOL    HW170149   5.069   9.584   0.333 -0.5351 -0.8809  0.7291
22714SOL    HW270150   5.215   9.545   0.324 -0.2583  0.2201  0.2654
22715SOL     OW70151   1.387   2.911   1.801  0.9200 -0.1826  0.1806
22715SOL    HW170152   1.328   2.970   1.755 -0.9180 -1.2417  1.0499
22715SOL    HW270153   1.446   2.878   1.733  0.6045  1.0013 -0.7016
22716SOL     OW70154   0.694   2.378   6.588 -0.2133 -0.4100  0.9892
22716SOL    HW170155   0.654   2.296   6.561 -1.2180  0.1455  0.7425
22716SOL    HW270156   0.688   2.378   6.684 -1.4433 -0.0337  0.9265
22717SOL     OW70157   6.933   5.089   3.018 -0.3740 -0.5223  0.0099
22717SOL    HW170158   6.891   5.152   2.959 -0.5853 -0.2738  0.4228
22717SOL    HW270159   6.861   5.051   3.068 -0.1189 -0.1415  0.6780
22718SOL     OW70160   1.055   5.284  10.599  0.7215 -0.0807 -0.4799
22718SOL    HW170161   0.993   5.224  10.557  1.4259 -0.9006 -0.3723
22718SOL    HW270162   1.133   5.231  10.615  1.1743  0.7335  0.0945
22719SOL     OW70163   7.457   0.295   1.930 -0.7327  0.0857 -0.3644
22719SOL    HW170164   7.490   0.307   2.019 -2.5719 -3.3709  0.9732
22719SOL    HW270165   7.419   0.379   1.906  1.8676  1.7877  1.1163
22720SOL     OW70166   6.913   6.252  10.418  0.0631  0.2387  0.3743
22720SOL    HW170167   6.919   6.168  10.464  1.6816  0.7294  1.1131
22720SOL    HW270168   6.934   6.231  10.327  0.2218 -0.1975  0.5092
22721SOL     OW70169  10.968   0.386   1.383  0.5580  0.6318 -0.9290
22721SOL    HW170170  10.887   0.432   1.403  1.0107  0.4105  1.8306
22721SOL    HW270171  10.961   0.303   1.429  2.3507  0.6257 -0.5927
22722SOL     OW70172  10.380   7.051   3.829  0.2390  0.3535 -0.3512
22722SOL    HW170173  10.370   7.144   3.852  0.3466 -0.0581  1.4930
22722SOL    HW270174  10.475   7.037   3.829  0.2352  0.3048 -0.9342
22723SOL     OW70175   0.759   6.408   3.614  0.6956 -0.0221  0.1464
22723SOL    HW170176   0.796   6.474   3.673  2.1424 -1.1545  0.5708
22723SOL    HW270177   0.788   6.324   3.651  0.1973 -0.8312 -1.2277
22724SOL     OW70178   3.725   3.231   4.282 -0.5973 -0.2299 -0.3328
22724SOL    HW170179   3.689   3.180   4.209 -1.3649 -0.8705  0.4672
22724SOL    HW270180   3.687   3.191   4.360  1.0591 -0.2807  0.5090
22725SOL     OW70181   3.631   2.051   0.815  0.4237 -0.0287  0.3891
22725SOL    HW170182   3.707   1.993   0.813 -0.2967 -1.0107  0.8532
22725SOL    HW270183   3.640   2.105   0.736  1.6130 -0.0989  0.4571
22726SOL     OW70184   5.383   1.655   8.102 -0.2615  0.4839 -0.1106
22726SOL    HW170185   5.449   1.602   8.148 -0.8318  0.9971  1.3579
22726SOL    HW270186   5.404   1.745   8.126 -0.7974  0.7412 -0.5867
22727SOL     OW70187   5.851   2.109   2.019 -0.0395 -0.2273  0.1451
22727SOL    HW170188   5.843   2.147   1.931 -3.2135 -1.2634 -0.1552
22727SOL    HW270189   5.899   2.175   2.069 -0.8736  1.8503 -1.6083
22728SOL     OW70190   3.575   6.842   6.243 -0.3568  0.5342 -0.3006
22728SOL    HW170191   3.653   6.794   6.268 -0.1639  0.2191 -1.4282
22728SOL    HW270192   3.564   6.908   6.312 -0.2434 -0.6725  0.9022
22729SOL     OW70193   4.754   3.525   2.733 -0.5328 -0.0091  0.3498
22729SOL    HW170194   4.668   3.564   2.753 -1.8266 -3.5080  2.4698
22729SOL    HW270195   4.756   3.520   2.638 -1.4013  2.5744  0.0982
22730SOL     OW70196   8.243   2.845  10.331 -0.0584  0.4486 -0.3330
22730SOL    HW170197   8.316   2.903  10.309 -0.7622  1.8268  0.7177
22730SOL    HW270198   8.220   2.803  10.249  2.2757 -0.4991 -0.5828
22731SOL     OW70199   1.551   3.797   9.512  0.2709 -0.0287  0.1773
22731SOL    HW170200   1.611   3.745   9.565  1.9816  1.0149 -0.6223
22731SOL    HW270201   1.569   3.770   9.422 -1.6109 -0.7996 -0.0118
22732SOL     OW70202   7.445   5.749   8.940 -0.0157  0.6726 -0.3539
22732SOL    HW170203   7.440   5.664   8.984  1.4897  0.6312 -0.1998
22732SOL    HW270204   7.427   5.730   8.848  1.4470 -0.0277 -0.5185
22733SOL     OW70205   2.505   0.816  10.369 -0.3454 -0.1894  0.0365
22733SOL    HW170206   2.457   0.793  10.289  0.4929  0.3911 -0.6432
22733SOL    HW270207   2.489   0.909  10.380 -0.4373 -0.2635  0.5465
22734SOL     OW70208  10.808   0.085   0.913  0.3063  0.3555  0.1340
22734SOL    HW170209  10.813   0.178   0.891 -1.6762  1.0543  2.2658
22734SOL    HW270210  10.799   0.041   0.828  1.0745  2.0895 -0.9054
22735SOL     OW70211   2.460   1.507   1.608  0.7404  0.5856 -0.2090
22735SOL    HW170212   2.397   1.517   1.536  2.0984  4.3628 -1.1578
22735SOL    HW270213   2.433   1.573   1.672  1.7944 -0.0342  0.9023
22736SOL     OW70214  11.091   0.349   6.627 -0.0528  0.5997  0.5005
22736SOL    HW170215  11.061   0.439   6.636 -0.4376  0.5676 -0.3531
22736SOL    HW270216  11.149   0.335   6.702  0.8375  1.8767  0.0667
22737SOL     OW70217   9.827   2.333   6.596 -0.4844 -0.2517 -0.2445
22737SOL    HW170218   9.792   2.333   6.507 -0.3373  1.9982 -0.3540
22737SOL    HW270219   9.863   2.245   6.607 -1.8260 -1.0504 -1.8604
22738SOL     OW70220   8.837   1.089   8.126  0.2993 -0.2088 -0.0997
22738SOL    HW170221   8.844   1.160   8.063  1.6070 -1.0023 -0.9076
22738SOL    HW270222   8.858   1.010   8.076  0.5699 -0.9682  1.1460
22739SOL     OW70223   1.386   0.130  11.011  0.1027 -0.3219  0.7438
22739SOL    HW170224   1.319   0.085  10.960 -0.3169 -0.8545  1.7385
22739SOL    HW270225   1.351   0.131  11.101  1.3441 -0.4647  1.2454
22740SOL     OW70226   7.085   1.380   4.558  0.0131  0.2056 -0.4543
22740SOL    HW170227   7.166   1.351   4.599 -0.1158 -0.3085 -0.5550
22740SOL    HW270228   7.114   1.420   4.476  0.0693 -1.5509 -1.3507
22741SOL     OW70229   9.728   6.297   7.140 -0.6645 -0.0583 -0.0547
22741SOL    HW170230   9.823   6.311   7.145 -0.7531  0.4222  0.4515
22741SOL    HW270231   9.692   6.385   7.133 -1.1184 -0.1769  0.7172
22742SOL     OW70232   5.403  11.031   5.778  0.2729 -0.1411  0.4062
22742SOL    HW170233   5.405  11.005   5.870  0.6929  1.8888  1.0228
22742SOL    HW270234   5.493  11.058   5.759  0.2790 -0.8935 -0.7331
22743SOL     OW70235   8.404   7.159   6.510  0.0575 -0.5877 -0.1591
22743SOL    HW170236   8.427   7.201   6.427 -1.4339 -2.0145 -1.3664
22743SOL    HW270237   8.442   7.072   6.505 -2.1532 -1.6144 -0.5408
22744SOL     OW70238   0.461   3.868   1.534  0.5087 -0.5423 -0.7190
22744SOL    HW170239   0.372   3.832   1.526 -0.4359  1.8465 -2.0164
22744SOL    HW270240   0.475   3.877   1.628 -0.0576 -2.1737 -0.4455
22745SOL     OW70241   6.692   7.587  10.311  0.2900  0.1263 -0.0422
22745SOL    HW170242   6.668   7.662  10.366  0.1625  0.7246 -0.8870
22745SOL    HW270243   6.775   7.556  10.347  0.5152  0.8920  0.1134
22746SOL     OW70244   0.748   4.246   7.177 -0.0448  0.2372 -0.1521
22746SOL    HW170245   0.667   4.288   7.207  0.7057  1.8666 -0.3203
22746SOL    HW270246   0.718   4.181   7.114 -1.3601 -0.5795  1.2291
22747SOL     OW70247   9.706  10.772  10.147  0.7212 -0.1788  0.6836
22747SOL    HW170248   9.725  10.679  10.154  1.2566  0.0423  3.1216
22747SOL    HW270249   9.613  10.777  10.125  0.6964 -1.2800  0.5239
22748SOL     OW70250   4.833   3.427   8.950  0.2865  0.3666 -0.6797
22748SOL    HW170251   4.764   3.458   8.891 -1.7137 -2.1379  0.1396
22748SOL    HW270252   4.798   3.440   9.038  0.9542 -0.6970 -0.2344
22749SOL     OW70253   4.952   2.695   7.885 -0.8570 -0.1347 -0.7662
22749SOL    HW170254   4.889   2.657   7.824 -2.3193 -1.3766  1.3849
22749SOL    HW270255   4.922   2.785   7.898 -1.2198 -0.2253 -0.9787
22750SOL     OW70256   6.931   9.590   8.942 -0.3336  0.0090 -0.4514
22750SOL    HW170257   6.897   9.680   8.938 -1.3838 -0.2720  1.1588
22750SOL    HW270258   7.026   9.600   8.932 -0.1602  1.5781  1.9073
22751SOL     OW70259   9.481   9.878   1.054  0.1937 -0.0943  0.5103
22751SOL    HW170260   9.513   9.788   1.053  0.3493 -0.0478 -0.6261
22751SOL    HW270261   9.539   9.924   0.993 -0.6494  0.4941  0.1353
22752SOL     OW70262   1.253   1.746   1.828  0.1433  0.0516  0.0986
22752SOL    HW170263   1.312   1.811   1.868 -0.9789  1.9876 -1.2056
22752SOL    HW270264   1.194   1.721   1.898  0.2137  0.9361  0.4906
22753SOL     OW70265   6.356  10.329   2.539  0.0101  0.5101 -0.3711
22753SOL    HW170266   6.284  10.322   2.476  0.3998  1.3493 -0.9308
22753SOL    HW270267   6.421  10.383   2.495  0.8785 -0.0231  0.2312
22754SOL     OW70268   5.021   8.028   0.785  0.2446  0.5691 -0.0678
22754SOL    HW170269   5.045   7.976   0.709 -1.2105  1.0094 -0.8545
22754SOL    HW270270   5.058   8.114   0.769 -1.7111  1.2497 -1.2840
22755SOL     OW70271   0.299  10.486   6.594 -0.0493 -0.0730 -0.1466
22755SOL    HW170272   0.259  10.552   6.538  0.4719 -0.2740 -0.7750
22755SOL    HW270273   0.374  10.530   6.633 -0.8063  0.2746  0.9557
22756SOL     OW70274  10.561  10.779   2.333  0.1779 -0.0797 -0.9173
22756SOL    HW170275  10.504  10.710   2.300  0.7156 -0.8931 -0.1889
22756SOL    HW270276  10.523  10.804   2.417 -0.5235  1.1599 -1.5817
22757SOL     OW70277   1.768   4.699   4.221 -0.4533 -0.7591 -0.0968
22757SOL    HW170278   1.790   4.637   4.290  1.2703 -1.2874 -1.0745
22757SOL    HW270279   1.784   4.785   4.259  0.4443 -1.0434  0.1793
22758SOL     OW70280   8.713   7.391   5.094  0.7099  0.0537  0.7461
22758SOL    HW170281   8.633   7.344   5.118  0.6052  0.8774  2.0563
22758SOL    HW270282   8.764   7.396   5.175  3.0263 -2.1270 -0.4280
22759SOL     OW70283   9.095   7.836  11.065  1.4121 -0.2783  0.2550
22759SOL    HW170284   9.031   7.903  11.041  1.7531  1.5951  3.8735
22759SOL    HW270285   9.046   7.773  11.116  2.0104  0.0458  1.2629
22760SOL     OW70286  10.742   7.433  10.277 -0.2725  0.3302  0.8501
22760SOL    HW170287  10.727   7.342  10.300 -1.3790  0.4862  0.8443
22760SOL    HW270288  10.801   7.431  10.203 -0.0798 -0.3704  1.0241
22761SOL     OW70289   8.014   4.684   5.686  0.1823 -0.1422 -0.0364
22761SOL    HW170290   7.998   4.769   5.644 -0.4792 -0.3394 -0.1881
22761SOL    HW270291   8.020   4.622   5.613  3.1988  0.1097 -0.1473
22762SOL     OW70292   4.177   5.328   5.032 -0.2222  0.4895  0.2187
22762SOL    HW170293   4.263   5.320   5.073  0.3016  0.7368 -0.7951
22762SOL    HW270294   4.119   5.357   5.103  0.3640 -0.4078  1.0844
22763SOL     OW70295   8.103   7.128   5.854  0.0848 -0.1140 -0.1677
22763SOL    HW170296   8.193   7.095   5.850  0.3528  0.5306  0.4062
22763SOL    HW270297   8.052   7.065   5.802  0.3926 -2.0957  1.7834
22764SOL     OW70298   6.599   7.715   8.884 -0.4224  0.6806 -0.1366
22764SOL    HW170299   6.645   7.678   8.960  0.3240  0.4685 -0.6826
22764SOL    HW270300   6.592   7.808   8.904 -0.4082  0.5938  0.2829
22765SOL     OW70301   2.977   0.793   0.889  0.1942 -0.2571  0.0910
22765SOL    HW170302   2.911   0.784   0.820  0.0709  1.2685 -0.0380
22765SOL    HW270303   2.930   0.835   0.961  0.6091 -0.7490  0.6530
22766SOL     OW70304   4.661   6.599   4.518 -0.1103  0.9780  0.3400
22766SOL    HW170305   4.685   6.622   4.427  1.1945 -0.8626  0.1581
22766SOL    HW270306   4.582   6.546   4.510 -1.1628  2.4504  0.4921
22767SOL     OW70307   1.074   3.259  10.033 -0.1875 -0.4964  0.2464
22767SOL    HW170308   1.073   3.217  10.118  1.8988  0.3869  0.7806
22767SOL    HW270309   1.151   3.223   9.989 -0.8244 -0.4076 -1.0128
22768SOL     OW70310   7.748   0.597   4.121  0.9492 -0.4119  0.9026
22768SOL    HW170311   7.810   0.537   4.079 -1.3512 -1.3879 -1.3882
22768SOL    HW270312   7.747   0.674   4.064  1.6563  0.5755  2.1715
22769SOL     OW70313   6.734   6.458  10.368 -0.0358  0.2610 -0.3883
22769SOL    HW170314   6.812   6.404  10.386  1.4444  1.1660 -3.4935
22769SOL    HW270315   6.755   6.544  10.404 -1.6569 -0.5323  2.9116
22770SOL     OW70316  10.047   8.174   8.674  0.5815  0.1114 -0.0736
22770SOL    HW170317  10.032   8.268   8.668  0.3111  0.0866  0.1661
22770SOL    HW270318   9.968   8.134   8.638  1.0265 -0.0316 -0.9324
22771SOL     OW70319   0.333   3.331   9.204  0.5210 -0.3868  1.0717
22771SOL    HW170320   0.244   3.333   9.169  1.4142 -0.8629 -1.4175
22771SOL    HW270321   0.338   3.248   9.251  0.1850 -1.2859 -0.4130
22772SOL     OW70322   8.554   1.401   1.342  0.1187 -0.3009  0.0487
22772SOL    HW170323   8.650   1.402   1.341  0.1640  2.0196 -1.0889
22772SOL    HW270324   8.531   1.410   1.434  1.0353  0.0678  0.2527
22773SOL     OW70325   2.489   7.072   8.110  0.3705 -0.4029  0.4485
22773SOL    HW170326   2.406   7.100   8.148 -0.2930  1.6767 -2.2124
22773SOL    HW270327   2.465   7.007   8.044  1.0329 -0.9216  0.7032
22774SOL     OW70328   2.522   9.715   2.943 -0.1933  1.0749  0.0107
22774SOL    HW170329   2.543   9.787   3.003  0.2674  1.2746 -0.3809
22774SOL    HW270330   2.601   9.661   2.941 -0.5240  0.5679  0.2753
22775SOL     OW70331   1.738   6.439   3.487 -0.2155  0.1962  0.1339
22775SOL    HW170332   1.685   6.366   3.457  2.3141 -2.0485  0.7224
22775SOL    HW270333   1.690   6.475   3.562 -1.3565 -1.0701  0.0431
22776SOL     OW70334   9.848  10.789   8.027 -0.5152  0.1840 -0.0892
22776SOL    HW170335   9.942  10.802   8.030  0.1584 -3.3708 -0.8735
22776SOL    HW270336   9.834  10.738   7.947 -2.8772 -0.7686  0.8453
22777SOL     OW70337   2.156   9.719   4.533  0.0126 -0.8262 -0.4862
22777SOL    HW170338   2.223   9.671   4.583  0.5183  0.4985  0.1576
22777SOL    HW270339   2.142   9.666   4.455 -0.0574 -2.4493  0.5681
22778SOL     OW70340   2.547   8.765   8.259 -0.3668 -0.7986  0.2406
22778SOL    HW170341   2.515   8.846   8.299 -2.7902 -1.6151  0.1019
22778SOL    HW270342   2.478   8.739   8.197  0.8590 -2.3844 -0.5462
22779SOL     OW70343   9.240   9.059   1.218 -0.2486  0.0524 -0.8460
22779SOL    HW170344   9.152   9.091   1.200  0.6814  2.5218 -1.5099
22779SOL    HW270345   9.266   9.014   1.138 -0.3464  0.7613 -1.2880
22780SOL     OW70346   3.073  10.104  10.060 -0.1937 -0.4011  0.2767
22780SOL    HW170347   3.072  10.148   9.975  0.2973  0.2642  0.6011
22780SOL    HW270348   3.165  10.080  10.073 -0.1063  0.2741  0.9930
22781SOL     OW70349   4.161   7.144   9.842 -0.7614  0.3492 -0.3849
22781SOL    HW170350   4.157   7.238   9.861 -1.4340 -0.2357  2.9438
22781SOL    HW270351   4.069   7.118   9.834 -0.6828 -0.3711  0.9055
22782SOL     OW70352   0.519   1.647   9.657  0.0558 -0.3519  0.4636
22782SOL    HW170353   0.532   1.570   9.601 -1.6471  0.5225 -1.1941
22782SOL    HW270354   0.552   1.619   9.743  0.4096 -2.5813 -0.3360
22783SOL     OW70355   9.512   4.015   7.590  0.3468 -0.0307  0.4057
22783SOL    HW170356   9.490   4.016   7.683 -0.6265 -1.1795  0.2182
22783SOL    HW270357   9.584   3.952   7.583  0.2014 -0.1929  0.3490
22784SOL     OW70358   5.148   4.489   8.482  0.0893  0.9875  0.4324
22784SOL    HW170359   5.206   4.444   8.543  0.4359  0.8017 -0.0289
22784SOL    HW270360   5.063   4.487   8.525 -0.4027 -1.9532 -0.4308
22785SOL     OW70361   4.491   8.744   8.257 -0.0048  0.9240 -0.0598
22785SOL    HW170362   4.505   8.827   8.303 -0.5434  0.7850  0.3779
22785SOL    HW270363   4.566   8.735   8.199  0.0728  1.7060 -0.0928
22786SOL     OW70364   6.498   1.301   1.664  0.2826 -0.1742 -0.0196
22786SOL    HW170365   6.502   1.392   1.633  3.6344 -0.3260 -0.4076
22786SOL    HW270366   6.500   1.248   1.584 -2.4656 -0.7166  0.1585
22787SOL     OW70367   8.634   9.535   8.415  0.0948 -0.0496  0.0566
22787SOL    HW170368   8.680   9.482   8.350  1.2155 -0.0258  0.7844
22787SOL    HW270369   8.612   9.474   8.485 -0.4328  0.0599 -0.0147
22788SOL     OW70370   8.781   7.835   1.032 -0.9981  0.0289  0.1834
22788SOL    HW170371   8.712   7.900   1.016 -1.2264  0.6678  3.1443
22788SOL    HW270372   8.833   7.872   1.103  0.9415 -1.5759 -0.2919
22789SOL     OW70373   2.679   8.771   3.565 -0.2430  0.0354 -0.1383
22789SOL    HW170374   2.706   8.744   3.653  0.4695  1.6022  0.1541
22789SOL    HW270375   2.597   8.723   3.549 -0.2425 -0.4657  1.2636
22790SOL     OW70376   9.548   2.662  10.560  0.3784  0.5862  0.5401
22790SOL    HW170377   9.582   2.749  10.581  0.1785  0.2896  2.1872
22790SOL    HW270378   9.507   2.632  10.641 -1.8036 -0.0070 -0.7053
22791SOL     OW70379   0.147   3.921   1.345 -0.1502 -0.0095  0.3437
22791SOL    HW170380   0.093   3.937   1.268  0.4961 -0.9981 -0.3383
22791SOL    HW270381   0.085   3.895   1.414 -0.6843  0.4398  0.0375
22792SOL     OW70382   5.354   8.552   2.374 -0.9287  0.1845 -0.6831
22792SOL    HW170383   5.380   8.460   2.379  3.6858  1.1624 -2.0044
22792SOL    HW270384   5.329   8.564   2.282 -2.5492  0.1325 -0.2839
22793SOL     OW70385   5.762   8.072   4.518 -0.1410 -0.2377 -0.2038
22793SOL    HW170386   5.726   7.991   4.554  0.2510 -0.2909  0.0793
22793SOL    HW270387   5.855   8.068   4.539  0.1729 -0.4421 -1.5330
22794SOL     OW70388   0.793   9.943   3.294  0.2330 -0.2835 -0.5611
22794SOL    HW170389   0.858   9.995   3.341 -0.7501  1.0596 -0.6153
22794SOL    HW270390   0.721  10.004   3.278 -0.6217 -1.4595 -1.3734
22795SOL     OW70391   8.565   1.112   8.344  0.6063  0.3535 -0.8729
22795SOL    HW170392   8.625   1.180   8.374  1.8066 -0.3741 -1.5312
22795SOL    HW270393   8.622   1.039   8.318 -0.5117 -0.0623 -2.3014
22796SOL     OW70394   0.924   2.971   7.696 -0.1565  0.0140 -0.6093
22796SOL    HW170395   0.968   2.889   7.671  0.0439  0.4262 -1.6432
22796SOL    HW270396   0.938   3.030   7.622 -0.5894  0.8821 -0.0199
22797SOL     OW70397   0.665   5.382   1.391  0.0761  0.1916  0.1094
22797SOL    HW170398   0.730   5.357   1.325 -0.6852 -1.9668  0.0933
22797SOL    HW270399   0.714   5.387   1.473  0.7825  1.6297 -0.3576
22798SOL     OW70400   3.134   4.366   6.829  0.3457  0.7441 -0.0284
22798SOL    HW170401   3.162   4.374   6.920 -1.5839  1.6987  0.5372
22798SOL    HW270402   3.125   4.456   6.798 -0.2648  0.4540 -0.7356
22799SOL     OW70403   0.921   0.710   8.295 -0.4824 -0.1602 -0.0018
22799SOL    HW170404   0.941   0.704   8.388 -0.1900 -3.4154 -0.1518
22799SOL    HW270405   0.969   0.637   8.255 -2.7131 -0.5411 -2.2705
22800SOL     OW70406   7.238   2.683   4.752 -0.4477  0.8273 -0.4200
22800SOL    HW170407   7.189   2.615   4.706 -0.8451  0.4129  0.5910
22800SOL    HW270408   7.223   2.666   4.845  3.8130 -1.0720  0.1604
22801SOL     OW70409   9.935   9.187   5.349 -0.4103  0.0385 -0.3455
22801SOL    HW170410   9.995   9.131   5.299 -0.4469 -0.8251  0.5570
22801SOL    HW270411   9.991   9.254   5.388 -0.4358  1.0357 -1.8981
22802SOL     OW70412   0.284   2.156   8.483 -0.1776 -0.4461  0.4264
22802SOL    HW170413   0.228   2.233   8.477  0.1132 -0.3254 -1.1264
22802SOL    HW270414   0.361   2.178   8.432 -0.9614 -2.4869 -1.8276
22803SOL     OW70415   3.859   1.549   4.559 -0.2723 -0.0577 -0.0615
22803SOL    HW170416   3.773   1.534   4.519  0.5492 -1.5272 -1.3786
22803SOL    HW270417   3.883   1.464   4.596  1.6252 -0.3538 -1.8166
22804SOL     OW70418   2.660   0.675   4.715 -0.1618 -0.5229  0.3450
22804SOL    HW170419   2.699   0.759   4.738 -0.4084 -0.6524  1.3164
22804SOL    HW270420   2.620   0.644   4.797 -1.7974 -0.6674 -0.4642
22805SOL     OW70421  10.482   1.787   0.698  0.0627  0.7010  0.1483
22805SOL    HW170422  10.429   1.754   0.771  0.8858 -0.7811  0.1078
22805SOL    HW270423  10.565   1.814   0.739  0.3558  0.2928 -0.1666
22806SOL     OW70424   6.068   9.547   9.084  0.0632  0.0516 -0.2087
22806SOL    HW170425   5.995   9.488   9.102 -0.5186  0.4501 -1.1306
22806SOL    HW270426   6.066   9.558   8.988  2.3308 -1.1850 -0.4595
22807SOL     OW70427   3.972   4.342   3.344 -0.0140 -0.5509 -0.4377
22807SOL    HW170428   4.067   4.348   3.334  0.1462 -0.4638  0.9330
22807SOL    HW270429   3.943   4.298   3.264  0.6871  2.7625 -2.7260
22808SOL     OW70430   6.080   2.198   4.553  0.3615  0.6971 -0.3979
22808SOL    HW170431   6.166   2.163   4.577  0.4822  0.3362 -1.3278
22808SOL    HW270432   6.023   2.121   4.551  0.0274  0.9200  0.1028
22809SOL     OW70433  10.347   2.186   6.602 -0.1726 -0.2156  0.5076
22809SOL    HW170434  10.311   2.273   6.583 -1.3956 -0.6328  0.7937
22809SOL    HW270435  10.427   2.203   6.652  1.0619  0.7920 -1.6841
22810SOL     OW70436   8.751   3.050   8.352  0.1943  0.1982 -1.0163
22810SOL    HW170437   8.709   3.136   8.355 -0.2782  0.0366 -2.3966
22810SOL    HW270438   8.789   3.039   8.439 -2.4929  0.4249  0.2927
22811SOL     OW70439   8.089   7.032  10.401 -0.0558 -0.0278  0.4130
22811SOL    HW170440   8.075   6.944  10.366  1.1063  0.6767 -2.0010
22811SOL    HW270441   8.165   7.022  10.458 -0.2405 -0.6676  0.5626
22812SOL     OW70442  11.069   1.206   2.893 -0.4489 -0.3070 -0.4020
22812SOL    HW170443  11.007   1.245   2.954  0.3931  1.1724 -0.4527
22812SOL    HW270444  11.145   1.264   2.896 -0.0181 -0.7339 -2.1471
22813SOL     OW70445   1.566   5.559  10.818  0.4337 -0.3479 -0.1105
22813SOL    HW170446   1.508   5.633  10.833 -2.1065 -2.5591  2.2797
22813SOL    HW270447   1.567   5.547  10.723 -1.5791  0.9049 -0.3446
22814SOL     OW70448   8.609   8.788   0.458 -0.0254  0.7553  0.9574
22814SOL    HW170449   8.694   8.817   0.491  1.4329 -1.2899 -0.6917
22814SOL    HW270450   8.599   8.699   0.493 -0.7727  0.4195 -0.0603
22815SOL     OW70451  10.294   9.982   0.926 -0.1436  0.4950 -0.1356
22815SOL    HW170452  10.218   9.956   0.977  0.3034  0.7009  0.6551
22815SOL    HW270453  10.297   9.921   0.852 -0.7447  0.1379  0.1361
22816SOL     OW70454   2.502   0.606   0.479 -0.5517 -0.5003  0.4425
22816SOL    HW170455   2.559   0.552   0.534  1.2632  0.9996  0.1389
22816SOL    HW270456   2.495   0.558   0.397  0.2487 -0.7342  0.5049
22817SOL     OW70457   3.712   0.192  11.046  0.4612  0.1110  0.2730
22817SOL    HW170458   3.717   0.115  10.990  1.7899  1.9994 -2.4822
22817SOL    HW270459   3.623   0.225  11.035  0.0145 -0.7696  1.1483
22818SOL     OW70460   6.665   1.432   5.654 -0.4019 -0.4666 -0.0417
22818SOL    HW170461   6.754   1.453   5.625 -1.3401  0.2634 -2.6377
22818SOL    HW270462   6.664   1.455   5.747  2.2989 -1.2099  0.2354
22819SOL     OW70463   4.338   7.507   8.307 -0.2435  0.0539 -0.1003
22819SOL    HW170464   4.343   7.588   8.257 -0.3192  1.5051  2.1310
22819SOL    HW270465   4.284   7.528   8.383  0.9965 -1.6344  1.3540
22820SOL     OW70466   2.774   4.622   1.622  0.0755 -0.5843  0.4316
22820SOL    HW170467   2.679   4.636   1.619  0.1881  0.0820 -0.2835
22820SOL    HW270468   2.808   4.672   1.548  0.8551 -2.0605 -0.2490
22821SOL     OW70469   5.719   8.147   2.062  0.0922 -0.0510  0.2124
22821SOL    HW170470   5.746   8.056   2.054 -1.2817 -0.4632  0.0012
22821SOL    HW270471   5.705   8.160   2.155 -0.1558 -0.1991  0.1970
22822SOL     OW70472   9.923   4.824   3.762 -0.5927 -0.1825  0.5402
22822SOL    HW170473   9.973   4.902   3.735 -1.1822  0.0948  0.2443
22822SOL    HW270474   9.835   4.839   3.727 -0.9279 -0.5957  1.2059
22823SOL     OW70475   3.888   5.815  10.692  0.3055 -0.1562  0.9181
22823SOL    HW170476   3.894   5.865  10.773 -2.4120  0.7455  0.6721
22823SOL    HW270477   3.894   5.724  10.719 -1.9719  0.0542  2.4043
22824SOL     OW70478   9.394   1.448   4.200  0.2470  0.2259  0.3359
22824SOL    HW170479   9.395   1.363   4.245  0.4626 -0.0872 -0.2550
22824SOL    HW270480   9.322   1.441   4.137 -0.3342  0.8191  0.9108
22825SOL     OW70481   7.162  10.636   6.973 -0.3591  0.2001 -0.4935
22825SOL    HW170482   7.202  10.570   6.915 -0.1667 -0.2075  0.0883
22825SOL    HW270483   7.198  10.719   6.943  1.4619 -0.2015  0.4052
22826SOL     OW70484   5.512   9.892   8.985 -0.0013 -0.1711 -0.2946
22826SOL    HW170485   5.438   9.938   8.945  1.2080  0.8188 -1.4500
22826SOL    HW270486   5.537   9.947   9.059 -0.1817 -0.3347 -0.1076
22827SOL     OW70487   6.931   0.748   3.414  0.4187  0.5481 -0.8314
22827SOL    HW170488   6.872   0.821   3.431 -0.3962 -0.4209  0.7419
22827SOL    HW270489   6.874   0.671   3.412  1.5521 -0.3876  0.4996
22828SOL     OW70490   5.679   6.522   9.536  0.3224  0.8150 -0.1246
22828SOL    HW170491   5.655   6.586   9.469  0.5094 -0.6738 -1.6731
22828SOL    HW270492   5.601   6.468   9.547  0.9657 -0.2653 -0.7142
22829SOL     OW70493   8.803   1.121   6.465  0.3346  0.1031 -0.0125
22829SOL    HW170494   8.843   1.090   6.384  0.6573 -0.5833  0.4021
22829SOL    HW270495   8.783   1.041   6.514  0.9040  0.5310  0.9511
22830SOL     OW70496   4.110   1.128   6.870 -0.0088  0.9189  0.6594
22830SOL    HW170497   4.180   1.113   6.806  0.9356 -0.1649  1.8867
22830SOL    HW270498   4.141   1.202   6.922 -0.6303  1.5984  0.0774
22831SOL     OW70499   1.004   8.609   2.152 -0.2291  0.7073 -0.6699
22831SOL    HW170500   0.990   8.636   2.243 -1.0226  1.8929 -1.1148
22831SOL    HW270501   1.078   8.662   2.123  0.2262  0.0992 -0.6264
22832SOL     OW70502   5.188   7.385   2.529  0.0083 -0.4667 -0.1091
22832SOL    HW170503   5.137   7.459   2.561  0.7673 -0.3362  0.8094
22832SOL    HW270504   5.229   7.348   2.607 -1.1736 -2.5034 -0.3746
22833SOL     OW70505   0.062   4.439   4.763 -0.1109  0.0950  0.8551
22833SOL    HW170506   0.131   4.504   4.750  0.2392  0.4514  3.8627
22833SOL    HW270507  -0.019   4.486   4.739  0.4548  0.1812 -1.1168
22834SOL     OW70508   1.244  10.319   0.828  0.3844 -0.5956  0.5725
22834SOL    HW170509   1.292  10.324   0.745 -2.5076  1.5242 -1.1739
22834SOL    HW270510   1.275  10.394   0.879  1.1541 -1.0787  0.8234
22835SOL     OW70511   5.539   5.951   6.916 -0.1224 -0.1394  0.9110
22835SOL    HW170512   5.541   5.912   7.003  0.8954 -3.9007 -0.6416
22835SOL    HW270513   5.622   5.926   6.875 -0.8600  0.8770 -1.4176
22836SOL     OW70514   6.370   2.297   1.902  0.6852  0.4503 -0.0466
22836SOL    HW170515   6.421   2.366   1.859  1.6051  0.0716  0.4016
22836SOL    HW270516   6.367   2.323   1.994  0.7638  0.0613  0.0688
22837SOL     OW70517   2.996   6.013   7.583 -0.3966 -0.4241 -0.3784
22837SOL    HW170518   2.978   6.048   7.670 -2.2100 -0.4571 -0.6988
22837SOL    HW270519   2.968   6.082   7.523 -0.1443 -0.8085 -0.9478
22838SOL     OW70520   6.399   8.071   3.517 -0.4375 -0.1416 -0.5226
22838SOL    HW170521   6.383   8.129   3.442 -0.1828  0.0765 -0.4104
22838SOL    HW270522   6.474   8.110   3.562 -0.9856  0.0935  0.2086
22839SOL     OW70523  11.006  10.214   1.742  0.0797  0.6834  0.4287
22839SOL    HW170524  11.092  10.254   1.732  1.0415 -1.3545  0.0478
22839SOL    HW270525  10.948  10.270   1.691  1.6929  0.6341 -1.6098
22840SOL     OW70526   0.449   4.284   0.575 -1.0104  0.7237  0.0847
22840SOL    HW170527   0.542   4.307   0.569 -0.4074 -1.7418 -1.2791
22840SOL    HW270528   0.406   4.346   0.517  0.5562 -1.3522 -3.6281
22841SOL     OW70529   4.562   4.020   4.814  0.0175 -0.7134  0.2111
22841SOL    HW170530   4.634   4.081   4.834 -0.0486 -0.1920 -1.0193
22841SOL    HW270531   4.579   3.993   4.724 -0.1417 -2.3011  0.6338
22842SOL     OW70532   3.977   3.027   9.283  0.5704 -0.8072 -0.1610
22842SOL    HW170533   3.881   3.026   9.288  0.5914  0.2412  0.7645
22842SOL    HW270534   3.995   3.039   9.189 -0.2736  1.3859 -0.1146
22843SOL     OW70535   3.468   6.659   7.722  0.3702  0.1500  0.2678
22843SOL    HW170536   3.501   6.578   7.759 -2.2944 -0.1555  2.2265
22843SOL    HW270537   3.519   6.728   7.765  1.0452 -0.4040  0.3590
22844SOL     OW70538  10.600   2.103  10.032 -0.3466 -0.2084 -0.2946
22844SOL    HW170539  10.540   2.123   9.961 -1.3605  0.6073  0.7549
22844SOL    HW270540  10.652   2.183  10.043 -0.0690 -0.3941 -0.2496
22845SOL     OW70541   5.253   3.978   2.906 -0.5556  0.2234  0.3504
22845SOL    HW170542   5.251   4.046   2.974  1.4155  1.3892 -0.6417
22845SOL    HW270543   5.256   4.027   2.824 -0.0297 -1.0817 -0.4439
22846SOL     OW70544   5.241   3.511  10.720 -0.2363  0.0098 -0.5516
22846SOL    HW170545   5.191   3.556  10.651 -0.0197  1.7285  0.3542
22846SOL    HW270546   5.332   3.513  10.689  0.0766  2.0089  0.3175
22847SOL     OW70547   2.667   3.261   5.016 -0.0915 -0.2646 -0.1800
22847SOL    HW170548   2.623   3.342   4.990 -0.5833 -0.1145  1.0422
22847SOL    HW270549   2.602   3.192   5.003 -0.2052 -0.2426  0.2688
22848SOL     OW70550   7.555   9.584   7.055  0.6370  0.8207 -0.1078
22848SOL    HW170551   7.531   9.625   6.972  2.4204  2.8701  0.2940
22848SOL    HW270552   7.590   9.499   7.030 -0.6317  0.6006 -1.2588
22849SOL     OW70553   5.834   6.067   5.747  0.4588  0.3441 -0.4483
22849SOL    HW170554   5.836   6.034   5.836  1.1304 -0.4921 -0.7604
22849SOL    HW270555   5.840   6.162   5.756  0.4428  0.2667  0.3958
22850SOL     OW70556  11.093   9.857   1.101 -0.2813 -0.4006  0.5227
22850SOL    HW170557  11.066   9.868   1.192  0.3648 -0.8851  0.7818
22850SOL    HW270558  11.177   9.812   1.106 -0.5030 -0.9324 -0.3353
22851SOL     OW70559   5.748   7.268   3.202  0.0012  0.3286  0.6539
22851SOL    HW170560   5.694   7.296   3.275 -0.2531  1.2567  0.1238
22851SOL    HW270561   5.836   7.297   3.223  0.0842 -0.1326  0.9634
22852SOL     OW70562   3.231   5.951   7.199 -0.1938  0.0892  0.0416
22852SOL    HW170563   3.275   5.913   7.124 -1.6299  1.5303 -1.6209
22852SOL    HW270564   3.152   5.899   7.210 -0.1514  0.0868  0.3749
22853SOL     OW70565  10.304   7.627   2.084 -0.2935  0.0514  0.4127
22853SOL    HW170566  10.255   7.683   2.024 -1.5958 -2.0081 -0.5485
22853SOL    HW270567  10.240   7.562   2.115  0.7518  0.0194  2.7507
22854SOL     OW70568   3.247   8.001   5.486  0.2849  0.4642  0.3468
22854SOL    HW170569   3.322   8.042   5.529  0.5424 -1.2679  1.6909
22854SOL    HW270570   3.283   7.919   5.451 -0.3881  0.9014 -1.4619
22855SOL     OW70571   2.470   3.672   2.255 -0.2651  1.0585  0.0695
22855SOL    HW170572   2.497   3.671   2.163  0.9638  0.2877  0.4152
22855SOL    HW270573   2.391   3.618   2.258 -0.1066  0.7949 -0.4774
22856SOL     OW70574   2.275   7.242   0.317  0.6514 -0.5124  0.8064
22856SOL    HW170575   2.343   7.299   0.282  1.6457 -0.6889  2.3015
22856SOL    HW270576   2.193   7.279   0.286  1.4056 -1.7755 -3.2988
22857SOL     OW70577   8.012   2.474   3.012  0.2123 -0.8825 -0.3643
22857SOL    HW170578   8.048   2.561   2.999 -1.9116  0.1255  0.1414
22857SOL    HW270579   8.045   2.423   2.938  2.2323  0.0529 -0.1801
22858SOL     OW70580   8.289   2.789   1.439  0.2648  0.2706  0.2131
22858SOL    HW170581   8.331   2.711   1.401 -0.9039 -0.4131  0.3044
22858SOL    HW270582   8.203   2.792   1.397 -0.7795 -0.0728  2.2231
22859SOL     OW70583   5.973   9.244   8.558  0.2442  0.5046  0.0305
22859SOL    HW170584   6.003   9.153   8.548  2.0929  1.1712 -1.0376
22859SOL    HW270585   6.032   9.281   8.624  0.0304  1.1379 -0.1282
22860SOL     OW70586   7.634  10.370   2.700  0.4501  0.1400 -0.2807
22860SOL    HW170587   7.709  10.420   2.668  0.2698 -0.3030 -1.4037
22860SOL    HW270588   7.559  10.428   2.688  0.1705 -0.5194 -2.0083
22861SOL     OW70589   7.993   4.360   7.307 -0.1644 -0.4548 -0.3338
22861SOL    HW170590   8.071   4.414   7.310  0.2331 -1.0271 -0.2540
22861SOL    HW270591   8.008   4.299   7.234  0.2243 -1.6880  0.7270
22862SOL     OW70592   1.147   1.135   9.925  0.3294  0.0281  0.3129
22862SOL    HW170593   1.199   1.060   9.895 -1.4898 -0.4524 -1.8517
22862SOL    HW270594   1.199   1.172   9.997  2.4499 -1.8460 -0.1294
22863SOL     OW70595   4.686   5.194  10.274  0.5075  0.0700  0.0685
22863SOL    HW170596   4.760   5.155  10.319 -0.9209 -0.6742  1.9123
22863SOL    HW270597   4.680   5.282  10.309  0.8000  0.3090 -0.4643
22864SOL     OW70598   6.286   6.653   0.223  0.2780 -0.4425 -0.3210
22864SOL    HW170599   6.334   6.697   0.152  0.0069  2.6586  1.2362
22864SOL    HW270600   6.194   6.663   0.198  0.2351 -0.7209 -0.2714
22865SOL     OW70601   7.222   2.741  10.102  0.5858  0.3613 -0.1500
22865SOL    HW170602   7.235   2.835  10.110 -2.6568  0.9413 -0.3699
22865SOL    HW270603   7.217   2.725  10.008 -0.7908  0.3332 -0.0869
22866SOL     OW70604   7.894   1.682   8.937 -0.7108  0.3598 -0.0585
22866SOL    HW170605   7.979   1.693   8.896 -0.0768  0.5702  1.2742
22866SOL    HW270606   7.833   1.671   8.864  0.5905 -0.8178 -1.0063
22867SOL     OW70607   9.177  10.875   5.527 -0.2098  0.0182  0.2628
22867SOL    HW170608   9.158  10.968   5.517  0.5755  0.2244  0.5485
22867SOL    HW270609   9.092  10.834   5.536 -0.5584  0.7509  0.4220
22868SOL     OW70610  10.034   6.206   9.493  0.6796 -0.4380 -0.4597
22868SOL    HW170611  10.062   6.177   9.406  0.3342 -0.1630 -0.6641
22868SOL    HW270612   9.938   6.208   9.488  0.7036  2.1259 -0.9200
22869SOL     OW70613   3.795   1.990   3.557 -0.1274 -0.0214 -0.0481
22869SOL    HW170614   3.710   2.023   3.587  0.5927  0.7933  1.1672
22869SOL    HW270615   3.832   2.063   3.507  0.3924  0.1135  0.5187
22870SOL     OW70616  10.779   7.488   7.284  0.4605  0.2139  0.4035
22870SOL    HW170617  10.721   7.422   7.322  1.7689 -1.7032 -0.7457
22870SOL    HW270618  10.867   7.460   7.310  1.0197  2.4903  1.2779
22871SOL     OW70619   8.761   4.784   1.896  0.1643 -0.2168  0.5713
22871SOL    HW170620   8.691   4.720   1.897  1.5418 -1.9239 -1.8022
22871SOL    HW270621   8.841   4.733   1.909  1.3197  0.9197 -1.4482
22872SOL     OW70622   3.710   6.034   7.341  0.0224  0.2457 -0.2688
22872SOL    HW170623   3.730   6.030   7.247 -1.1722 -0.0730 -0.5185
22872SOL    HW270624   3.731   5.946   7.373  0.9994  0.5266 -0.1061
22873SOL     OW70625   8.195   4.541   8.277 -0.0510  0.8901  0.3405
22873SOL    HW170626   8.290   4.552   8.272 -0.0341  2.2831  2.3890
22873SOL    HW270627   8.183   4.460   8.326  0.0392  0.2363 -0.6885
22874SOL     OW70628   7.196   7.797   0.012 -0.6291  0.3524 -0.1301
22874SOL    HW170629   7.264   7.769  -0.049  2.6512  2.0820  2.3730
22874SOL    HW270630   7.179   7.888  -0.012  0.4959  0.9639  1.2049
22875SOL     OW70631   3.598   9.997   3.809 -0.2495 -0.7769 -0.0348
22875SOL    HW170632   3.603   9.977   3.716 -2.3785  1.1799 -0.6531
22875SOL    HW270633   3.617   9.913   3.853 -0.0595 -1.9357 -2.2110
22876SOL     OW70634  10.294   3.199   8.867  0.9832 -0.1250  0.2934
22876SOL    HW170635  10.277   3.164   8.955  0.5075 -0.2373  0.1602
22876SOL    HW270636  10.358   3.139   8.830  2.7852  1.0846  1.3146
22877SOL     OW70637   5.176  10.409  10.069  0.2599  1.3069 -0.0839
22877SOL    HW170638   5.177  10.466   9.992 -0.3624  0.9740 -0.3442
22877SOL    HW270639   5.104  10.442  10.122  0.2848  1.1401  0.0558
22878SOL     OW70640   4.638   3.881   0.421  0.1150  0.0727  0.1398
22878SOL    HW170641   4.559   3.865   0.472 -0.4818  1.0844 -0.4406
22878SOL    HW270642   4.689   3.942   0.474  0.6008 -0.7194  0.5963
22879SOL     OW70643   0.690   8.410   9.045 -0.1595 -0.0957  0.1454
22879SOL    HW170644   0.678   8.317   9.030 -0.3491  0.2600 -2.1805
22879SOL    HW270645   0.603   8.448   9.034  0.1121  0.4895 -0.0254
22880SOL     OW70646   9.921   4.404   4.965 -0.0984  0.1895  0.2911
22880SOL    HW170647   9.878   4.475   4.918  1.5969 -0.5576 -2.6134
22880SOL    HW270648   9.856   4.333   4.965 -0.8428  0.8530  0.9095
22881SOL     OW70649   8.154   4.074   8.961  0.1857  0.0982 -0.5993
22881SOL    HW170650   8.165   3.980   8.952  1.4901  0.0876  0.7887
22881SOL    HW270651   8.130   4.087   9.053  0.3847  1.1448 -0.6777
22882SOL     OW70652   9.321   2.225   7.619 -0.2677  0.4090 -0.3618
22882SOL    HW170653   9.259   2.298   7.621 -1.0758 -0.2762  1.3748
22882SOL    HW270654   9.276   2.154   7.665  1.4149 -0.4532  0.0279
22883SOL     OW70655   9.058   0.561   9.193 -1.0010 -0.3186 -0.0855
22883SOL    HW170656   9.011   0.625   9.245  0.3134  2.2638 -1.8506
22883SOL    HW270657   9.145   0.557   9.232 -1.2710 -1.6643  0.4497
22884SOL     OW70658   5.011   8.338   8.673 -0.2552 -0.0970  0.2337
22884SOL    HW170659   4.953   8.413   8.661 -2.1477 -1.5128  0.0333
22884SOL    HW270660   4.963   8.279   8.730  1.5480 -0.8213  1.1022
22885SOL     OW70661   9.616  10.089   2.301 -0.2065  0.0402  0.8840
22885SOL    HW170662   9.624  10.001   2.265 -0.2621 -0.0190  1.0166
22885SOL    HW270663   9.522  10.105   2.305 -0.2117  0.8909 -1.0737
22886SOL     OW70664   7.726   3.860   7.039 -0.4365 -0.2894 -0.1789
22886SOL    HW170665   7.734   3.767   7.062  0.7854 -0.7064 -2.0583
22886SOL    HW270666   7.648   3.864   6.984 -1.6001  0.1751  1.4400
22887SOL     OW70667   2.650   1.665   5.933 -0.0233 -0.3647  0.0927
22887SOL    HW170668   2.565   1.622   5.930 -0.2896  0.1834 -0.4461
22887SOL    HW270669   2.706   1.612   5.877  0.1988 -1.1482  1.0313
22888SOL     OW70670   6.211   0.924   8.856 -0.0299 -0.0846  0.1087
22888SOL    HW170671   6.124   0.889   8.839  0.0148 -0.6635  1.0280
22888SOL    HW270672   6.205   1.016   8.831 -0.3873 -0.5134 -1.5425
22889SOL     OW70673   4.608   0.649   1.654  0.0414  0.1511 -0.2873
22889SOL    HW170674   4.603   0.743   1.671 -3.0225 -0.0965  0.6885
22889SOL    HW270675   4.669   0.616   1.720 -0.6847  1.1551  0.9150
22890SOL     OW70676   8.768   2.982   2.721 -0.0421  0.4424 -0.3427
22890SOL    HW170677   8.822   2.951   2.649  0.7711 -2.0219  1.1708
22890SOL    HW270678   8.831   3.010   2.788 -0.6246 -0.7729  0.7651
22891SOL     OW70679   9.266   5.336   9.615 -0.0769  0.7080  0.0853
22891SOL    HW170680   9.296   5.426   9.613  1.5622  0.2381  1.1436
22891SOL    HW270681   9.217   5.329   9.697 -1.3844  0.9455 -0.6458
22892SOL     OW70682  10.497   1.052   9.551  0.1849 -0.8979  0.0422
22892SOL    HW170683  10.474   1.024   9.640  1.4622 -2.1389  0.0317
22892SOL    HW270684  10.421   1.028   9.498 -1.8139  2.3884  1.1286
22893SOL     OW70685  11.029   8.062   1.751  0.3452  0.6945  0.7088
22893SOL    HW170686  11.053   8.116   1.676  0.8583  2.5661  2.1244
22893SOL    HW270687  10.961   8.113   1.796 -2.2669 -1.8038 -0.0774
22894SOL     OW70688   0.325   5.839   0.783  0.0979 -0.3236 -0.1355
22894SOL    HW170689   0.382   5.765   0.765  1.3129  1.0047 -2.0480
22894SOL    HW270690   0.238   5.800   0.796  1.0566 -2.2130  1.0071
22895SOL     OW70691   8.273   8.830   1.749 -0.1728 -0.7740 -0.1320
22895SOL    HW170692   8.257   8.913   1.793  2.5084 -0.3814  0.2971
22895SOL    HW270693   8.226   8.765   1.802  1.7870 -0.1354  2.6444
22896SOL     OW70694   1.490   1.292   3.754  0.1195 -0.1827  0.3033
22896SOL    HW170695   1.445   1.210   3.776 -0.4464 -0.1191 -0.5495
22896SOL    HW270696   1.494   1.340   3.836  0.2950 -0.9928  0.7744
22897SOL     OW70697   4.487   0.870   2.530 -0.2899 -0.2933 -0.0275
22897SOL    HW170698   4.514   0.915   2.611 -0.5602 -0.3190  0.0768
22897SOL    HW270699   4.570   0.840   2.491 -0.0246  1.0973 -0.5770
22898SOL     OW70700   4.039   0.510   6.829  0.4875 -0.1742  0.2785
22898SOL    HW170701   4.019   0.458   6.751  1.5425 -0.1041 -0.0577
22898SOL    HW270702   4.030   0.448   6.902  0.2882 -0.4442  0.0271
22899SOL     OW70703  10.277   6.357   4.609 -0.1937 -0.0993  0.4714
22899SOL    HW170704  10.367   6.332   4.633 -0.5099 -0.5615  1.1984
22899SOL    HW270705  10.287   6.443   4.569  0.7038 -0.5790 -0.3964
22900SOL     OW70706   6.015   7.292  10.759  0.3760 -0.2011 -0.2621
22900SOL    HW170707   5.993   7.282  10.852  1.4438 -2.1048 -0.1749
22900SOL    HW270708   5.932   7.315  10.717 -0.7255 -2.0280  0.7777
22901SOL     OW70709  10.134   5.782   5.515 -0.3486 -0.7665  0.1482
22901SOL    HW170710  10.182   5.864   5.504 -2.5036  0.3680 -1.7590
22901SOL    HW270711  10.042   5.808   5.522 -1.1626 -3.0060 -0.9802
22902SOL     OW70712   2.553   4.379   7.435  0.1555 -0.3186  0.0198
22902SOL    HW170713   2.586   4.369   7.345 -0.6539 -1.0338 -0.2102
22902SOL    HW270714   2.541   4.289   7.466  0.6076 -0.0830  0.9221
22903SOL     OW70715   6.578   1.384   7.674 -0.4876  0.5347 -0.3747
22903SOL    HW170716   6.641   1.369   7.604  1.4081  3.1793  0.6224
22903SOL    HW270717   6.497   1.407   7.629  1.3088  4.7257 -1.9124
22904SOL     OW70718   5.065   0.821   2.386  0.3059  0.1179 -0.6265
22904SOL    HW170719   4.994   0.795   2.445 -1.0774  0.4211 -2.1046
22904SOL    HW270720   5.069   0.916   2.394 -0.1471  0.1954 -1.3108
22905SOL     OW70721   5.815   8.832   6.797  0.4143 -0.1885  0.6629
22905SOL    HW170722   5.799   8.836   6.891  0.6794  1.3161  0.6691
22905SOL    HW270723   5.865   8.912   6.778 -0.6737  0.1516 -0.9471
22906SOL     OW70724   3.358   7.167   9.781 -0.3548 -0.0940 -0.6540
22906SOL    HW170725   3.319   7.244   9.738 -0.0840  0.2361 -0.3198
22906SOL    HW270726   3.452   7.183   9.779 -0.3868  1.3812  2.5734
22907SOL     OW70727   7.758   9.777   5.421  0.6955  0.3476  0.4821
22907SOL    HW170728   7.734   9.852   5.367 -0.3689  1.4056  2.3184
22907SOL    HW270729   7.674   9.738   5.447  1.1019 -3.6240 -3.0242
22908SOL     OW70730   4.835   4.811  10.483 -0.2239  0.4105  0.5047
22908SOL    HW170731   4.773   4.882  10.467 -0.2310  0.0269 -1.3611
22908SOL    HW270732   4.912   4.835  10.432 -0.7570 -1.5883 -1.3799
22909SOL     OW70733   1.924   3.125   5.062 -0.6546 -0.2458  0.3505
22909SOL    HW170734   2.008   3.117   5.107 -0.2985 -2.5101 -0.5452
22909SOL    HW270735   1.946   3.130   4.969 -1.4657  1.5798  0.2167
22910SOL     OW70736   4.062   4.157   8.114  0.5292 -0.5715 -0.1301
22910SOL    HW170737   4.117   4.232   8.137 -0.5260 -0.2077  1.2844
22910SOL    HW270738   3.996   4.153   8.182 -0.0414 -2.2018 -0.7296
22911SOL     OW70739   7.009   6.850   7.011 -0.8000 -0.3574  0.2376
22911SOL    HW170740   6.987   6.758   7.019 -1.2987 -0.2323  0.3956
22911SOL    HW270741   7.050   6.873   7.094  1.1474 -0.8941 -0.5248
22912SOL     OW70742   8.865   4.143   8.079  0.3502  0.4127  0.1650
22912SOL    HW170743   8.940   4.155   8.138  1.5227  3.1391 -1.6847
22912SOL    HW270744   8.882   4.060   8.036  2.3331  0.9117 -0.1277
22913SOL     OW70745   0.271   5.703   8.223  0.0924 -0.7255 -0.0661
22913SOL    HW170746   0.183   5.717   8.257  0.4959 -1.7230  1.5126
22913SOL    HW270747   0.276   5.609   8.205  1.2001 -0.9040  1.0358
22914SOL     OW70748   4.802  10.853   9.441  0.1693  0.0705  0.1361
22914SOL    HW170749   4.740  10.926   9.442 -0.5909 -0.5572 -0.1260
22914SOL    HW270750   4.884  10.892   9.410 -0.6253  0.5122 -1.5510
22915SOL     OW70751   9.244   5.825   7.461  0.6204 -0.2740  0.0289
22915SOL    HW170752   9.211   5.736   7.448 -2.1295  0.4132  1.5160
22915SOL    HW270753   9.274   5.852   7.374 -1.0194 -1.7062 -1.0481
22916SOL     OW70754  10.631   0.353   7.405 -0.5578 -0.5013 -0.3955
22916SOL    HW170755  10.604   0.301   7.481 -0.3294  0.2231  0.1965
22916SOL    HW270756  10.565   0.423   7.398  0.3380  0.4355  0.1945
22917SOL     OW70757   5.346   9.687   3.607 -0.0428  0.1855 -0.7661
22917SOL    HW170758   5.303   9.766   3.641  0.7721  0.4223 -0.2645
22917SOL    HW270759   5.346   9.627   3.682 -0.3600 -0.1713 -1.0508
22918SOL     OW70760   6.222   3.970   6.335 -0.0196  0.0102  0.1156
22918SOL    HW170761   6.170   4.048   6.315 -0.9121  0.0937  2.5429
22918SOL    HW270762   6.223   3.921   6.253 -1.6509  1.2976 -0.7377
22919SOL     OW70763   2.652   6.718   3.999  0.0350 -0.0213 -0.0783
22919SOL    HW170764   2.652   6.810   3.972 -0.5884  0.0677  0.2077
22919SOL    HW270765   2.733   6.708   4.049 -1.1198  1.0710  2.1760
22920SOL     OW70766   5.765   1.177   7.786  0.8692 -1.0534  0.6315
22920SOL    HW170767   5.730   1.093   7.817  2.9018 -2.3189 -0.3401
22920SOL    HW270768   5.778   1.166   7.692  0.7480  0.5394  0.3850
22921SOL     OW70769   0.315  10.957  10.806  0.3902  0.1121  1.0117
22921SOL    HW170770   0.390  10.982  10.860  1.2926 -0.5387  0.1055
22921SOL    HW270771   0.352  10.941  10.720 -1.3592  3.9570 -0.7098
22922SOL     OW70772  10.656   4.310   9.623 -0.2652 -0.3252 -0.7658
22922SOL    HW170773  10.683   4.226   9.659 -0.4262  0.6143  1.7584
22922SOL    HW270774  10.560   4.308   9.628 -0.3475 -0.5238 -2.0857
22923SOL     OW70775   9.466   9.215   4.554 -0.3985  0.2489  0.6300
22923SOL    HW170776   9.452   9.209   4.649  1.6457 -0.3768  0.9451
22923SOL    HW270777   9.400   9.277   4.524 -1.0297  0.5490  2.4831
22924SOL     OW70778   9.240   7.424   1.630 -0.1798 -0.1925  0.1192
22924SOL    HW170779   9.238   7.373   1.710  2.7257 -1.1959 -0.3086
22924SOL    HW270780   9.169   7.388   1.576  0.1744 -2.0597  0.8269
22925SOL     OW70781   6.525   6.433   7.691 -0.6039 -0.1978  0.5208
22925SOL    HW170782   6.608   6.388   7.705  0.3479  1.0185 -0.8545
22925SOL    HW270783   6.549   6.525   7.687 -1.3787  0.0109 -3.3941
22926SOL     OW70784   7.367  10.365   0.005 -0.4074  0.3000  0.0890
22926SOL    HW170785   7.394  10.275   0.022 -2.0837 -0.6164 -1.7564
22926SOL    HW270786   7.442  10.404  -0.041 -0.2975 -0.6611 -0.5709
22927SOL     OW70787   2.302   5.390   0.679 -0.0450  0.2834 -0.0932
22927SOL    HW170788   2.227   5.408   0.736  1.3262  0.1207  1.8655
22927SOL    HW270789   2.298   5.296   0.664 -1.0148  0.4843 -1.1907
22928SOL     OW70790   2.494   0.646   4.960  0.5576 -0.0616 -0.0261
22928SOL    HW170791   2.409   0.686   4.942  0.9866  0.9699  0.1538
22928SOL    HW270792   2.491   0.623   5.053  0.4487 -0.1094 -0.0414
22929SOL     OW70793  10.547   3.169   9.736 -0.1680 -0.4846 -0.0450
22929SOL    HW170794  10.641   3.177   9.722 -0.5340  0.0356 -2.6851
22929SOL    HW270795  10.528   3.076   9.720 -0.6579  0.1885 -4.3592
22930SOL     OW70796   4.888  10.383   5.240  0.6754 -0.3957 -0.4350
22930SOL    HW170797   4.810  10.416   5.195  0.3083 -0.2026  0.3330
22930SOL    HW270798   4.859  10.367   5.330  1.7170  0.3953  0.0557
22931SOL     OW70799   9.107   7.920   7.553  0.7017 -0.0458 -0.1882
22931SOL    HW170800   9.012   7.920   7.538  0.7582  0.3018 -0.5597
22931SOL    HW270801   9.126   7.833   7.587 -0.0578  0.5406  1.8741
22932SOL     OW70802   2.924   9.603  10.193 -0.0584  0.0118 -0.3669
22932SOL    HW170803   2.903   9.692  10.167 -0.0431  0.2954  0.5449
22932SOL    HW270804   2.912   9.551  10.114  1.0532  0.9862 -1.2050
22933SOL     OW70805   1.767   1.931   9.453 -0.2805 -0.0308 -0.3159
22933SOL    HW170806   1.836   1.909   9.515  1.6250  0.8047 -2.0125
22933SOL    HW270807   1.712   1.995   9.499  0.2705 -0.4328  0.9386
22934SOL     OW70808  11.036   5.631   1.613 -0.3752 -0.9855  0.7023
22934SOL    HW170809  11.081   5.553   1.579 -0.9457 -1.3177  0.7066
22934SOL    HW270810  11.107   5.684   1.650  0.0385 -1.4362  0.5767
22935SOL     OW70811   6.169   2.646   9.826  0.2007 -0.6452  0.1811
22935SOL    HW170812   6.177   2.579   9.894  2.4347  0.1948  0.8328
22935SOL    HW270813   6.224   2.614   9.754  0.6962  0.1240  0.2060
22936SOL     OW70814   5.152  10.361   0.877 -0.3624 -0.2436 -0.1073
22936SOL    HW170815   5.213  10.399   0.814 -1.9320  2.0933 -0.3607
22936SOL    HW270816   5.207  10.313   0.938  1.7492  1.7542 -0.3187
22937SOL     OW70817   6.916   3.668   6.088 -0.0018  0.8490  0.0534
22937SOL    HW170818   6.901   3.594   6.146 -1.8982  1.0627 -0.1121
22937SOL    HW270819   6.990   3.715   6.127  0.8592 -0.7930  0.4674
22938SOL     OW70820   3.225   3.114   3.680 -0.1962  0.6978 -0.1454
22938SOL    HW170821   3.156   3.112   3.614 -0.6727  0.3700  0.3561
22938SOL    HW270822   3.283   3.042   3.658  0.1531  1.1527 -0.7387
22939SOL     OW70823   4.665  10.608   9.996  0.3158  0.0372 -0.1872
22939SOL    HW170824   4.683  10.527   9.949  1.8445  0.0252  0.3725
22939SOL    HW270825   4.716  10.601  10.077  1.2783  1.9609 -0.5660
22940SOL     OW70826  10.547   3.581   3.054  0.2213 -0.0003  0.7608
22940SOL    HW170827  10.616   3.609   3.114 -0.0778  0.3202  0.9614
22940SOL    HW270828  10.479   3.649   3.062  1.6240  2.0405 -2.4990
22941SOL     OW70829   2.998   2.122   8.830  0.4358  0.0298 -0.0020
22941SOL    HW170830   3.070   2.180   8.806  0.6288 -0.1672  0.1051
22941SOL    HW270831   3.035   2.063   8.896  0.2660 -0.2785 -0.1789
22942SOL     OW70832   1.830   1.373   9.639 -0.3209  0.0781  0.1404
22942SOL    HW170833   1.872   1.455   9.666 -0.9009 -0.3314  2.4679
22942SOL    HW270834   1.744   1.400   9.606  0.2581  0.5646 -1.0246
22943SOL     OW70835   3.321   6.931   4.479  0.2103  0.1813 -0.0855
22943SOL    HW170836   3.266   6.862   4.442  0.9706 -0.1824 -0.5390
22943SOL    HW270837   3.265   7.009   4.478  0.5012  0.4395 -2.9200
22944SOL     OW70838   6.451   6.107  10.771 -0.2672  0.1258  0.2856
22944SOL    HW170839   6.494   6.077  10.691 -1.5099 -3.0994  0.6801
22944SOL    HW270840   6.503   6.067  10.842 -0.4166  1.2005  1.0166
22945SOL     OW70841   2.290   4.509   9.183 -0.5627  0.2391  0.4446
22945SOL    HW170842   2.330   4.548   9.261 -0.7246  0.1311  0.5836
22945SOL    HW270843   2.295   4.577   9.116 -0.3307  0.2969  0.5208
22946SOL     OW70844   5.433   9.623   8.584 -0.0376  0.1594 -0.5664
22946SOL    HW170845   5.482   9.560   8.637 -0.7863  1.2577  1.5756
22946SOL    HW270846   5.450   9.598   8.494  1.2961 -1.8503  0.1843
22947SOL     OW70847   1.988   5.394   9.096 -0.1484 -0.8607 -0.1470
22947SOL    HW170848   2.065   5.450   9.091 -1.9151  1.7482 -0.0106
22947SOL    HW270849   1.974   5.364   9.006  0.4269 -0.5193 -0.3518
22948SOL     OW70850   1.619   7.626   2.440 -0.2779  0.1550 -0.2114
22948SOL    HW170851   1.679   7.579   2.383 -1.6770 -2.7128  0.4836
22948SOL    HW270852   1.558   7.559   2.472 -0.6668  1.8892  3.2373
22949SOL     OW70853   2.614   6.829   8.529 -0.0081 -0.5914  0.3742
22949SOL    HW170854   2.643   6.738   8.533 -2.1484 -1.3355  0.5673
22949SOL    HW270855   2.603   6.847   8.436 -1.1627 -1.1101  0.3962
22950SOL     OW70856   6.047   9.355   4.889 -0.1479 -0.0695 -0.3113
22950SOL    HW170857   6.105   9.414   4.842 -1.3526 -0.3718 -2.3365
22950SOL    HW270858   5.962   9.399   4.887 -0.4938 -0.6730  0.5184
22951SOL     OW70859   1.861   7.074   4.458 -0.0483  0.1873  0.3630
22951SOL    HW170860   1.766   7.075   4.471 -0.3493  4.4794 -0.5881
22951SOL    HW270861   1.880   7.158   4.417  4.1283 -0.8624 -0.2847
22952SOL     OW70862   8.813  10.265   7.110 -0.5025 -0.2279 -0.0621
22952SOL    HW170863   8.800  10.359   7.102  0.1103 -0.0725  0.6701
22952SOL    HW270864   8.770  10.228   7.033 -4.4986  0.2876  1.6531
22953SOL     OW70865   1.293   6.518   6.342  0.1975 -0.4273  0.0779
22953SOL    HW170866   1.364   6.571   6.305  0.3825  0.1537  1.2163
22953SOL    HW270867   1.213   6.554   6.303  0.1878  1.6964  1.8918
22954SOL     OW70868   4.925   8.934   3.993  0.2542 -0.4924 -0.7046
22954SOL    HW170869   4.980   8.864   3.957  0.4585  0.4141 -2.2470
22954SOL    HW270870   4.853   8.943   3.930 -0.2443  0.0957 -0.0677
22955SOL     OW70871   4.579   4.139   2.233 -0.1696 -0.4766 -0.4532
22955SOL    HW170872   4.628   4.107   2.308 -0.2022 -0.7607 -0.5505
22955SOL    HW270873   4.624   4.102   2.157  1.6819  2.1652 -0.7905
22956SOL     OW70874   7.288   3.324   9.897  0.3493 -0.4418 -0.4254
22956SOL    HW170875   7.354   3.288   9.956  1.2272  0.2756 -0.9406
22956SOL    HW270876   7.338   3.353   9.821 -0.6904 -0.8500 -1.2941
22957SOL     OW70877   3.704   3.668   5.177 -0.9112 -0.0948  0.4475
22957SOL    HW170878   3.608   3.676   5.179 -1.1698 -2.3994  2.2169
22957SOL    HW270879   3.731   3.687   5.267  0.5984  2.6738 -0.5127
22958SOL     OW70880   7.507   3.352   0.345 -0.5120 -0.3134 -0.2614
22958SOL    HW170881   7.502   3.446   0.327 -0.5653 -0.2735 -0.0423
22958SOL    HW270882   7.447   3.339   0.418 -0.0908 -0.4252  0.0663
22959SOL     OW70883   4.337   2.079  10.798  0.2093  0.5406 -0.3779
22959SOL    HW170884   4.432   2.074  10.808  0.2632 -0.4916 -1.2677
22959SOL    HW270885   4.321   2.166  10.762  0.9980  0.0417 -2.0183
22960SOL     OW70886   8.438   5.756   9.462  0.0189 -0.0818  0.3708
22960SOL    HW170887   8.439   5.828   9.400  1.1818 -1.4604 -1.3104
22960SOL    HW270888   8.413   5.796   9.545 -2.3805  1.6987 -1.0950
22961SOL     OW70889   2.291   7.589   2.891 -0.0567 -0.2932  0.4171
22961SOL    HW170890   2.360   7.631   2.941  0.3812  1.9107 -1.8410
22961SOL    HW270891   2.211   7.635   2.915 -0.6582 -2.1050  2.1900
22962SOL     OW70892   1.682   5.922   3.350  0.2725 -0.3485  0.7295
22962SOL    HW170893   1.624   5.926   3.274  0.3542  2.6892  0.7377
22962SOL    HW270894   1.768   5.901   3.312 -0.0414 -0.8012  0.2441
22963SOL     OW70895   4.300   1.179   9.436  0.1400 -0.1735  0.2285
22963SOL    HW170896   4.344   1.179   9.521 -0.2720  0.1045  0.4475
22963SOL    HW270897   4.239   1.253   9.441  1.2921  0.8836 -0.9339
22964SOL     OW70898  10.776   7.593   8.274 -0.0872  0.7696  0.6304
22964SOL    HW170899  10.712   7.639   8.220 -0.5095  2.2788  2.2916
22964SOL    HW270900  10.810   7.661   8.333 -0.1148 -0.8841  2.6526
22965SOL     OW70901   9.429   2.850   6.553  0.8034  0.4268 -0.4207
22965SOL    HW170902   9.409   2.783   6.488  1.5849  0.3051 -0.5559
22965SOL    HW270903   9.477   2.802   6.622 -0.2580  0.4944  0.3871
22966SOL     OW70904   8.473   4.457   7.592  0.1860 -0.2677  0.3004
22966SOL    HW170905   8.380   4.475   7.581 -0.0953 -1.2711  0.8748
22966SOL    HW270906   8.508   4.457   7.503 -0.9229 -2.5654 -0.2321
22967SOL     OW70907   3.266   9.627   7.003  0.0123 -0.2007 -0.5873
22967SOL    HW170908   3.306   9.619   7.089 -1.8430  1.5778  0.5387
22967SOL    HW270909   3.271   9.720   6.982 -3.4054  0.1979 -0.3050
22968SOL     OW70910  10.165   5.774   3.391  0.5566  0.2392  0.0480
22968SOL    HW170911  10.234   5.763   3.325  1.1823  1.1615  0.5225
22968SOL    HW270912  10.207   5.753   3.474 -0.0289 -0.2024  0.2403
22969SOL     OW70913   8.077   9.412   7.866  0.0177 -0.7296 -0.1424
22969SOL    HW170914   8.056   9.422   7.773  0.8038 -0.7962 -0.3375
22969SOL    HW270915   7.993   9.395   7.908 -0.7411  1.7916 -0.4739
22970SOL     OW70916  10.436   0.405  11.068 -0.0610 -0.3253  0.5931
22970SOL    HW170917  10.510   0.452  11.029 -0.2437 -0.2520  0.3249
22970SOL    HW270918  10.409   0.343  10.999 -0.2371 -0.3627  0.6954
22971SOL     OW70919   7.958   3.511   6.579 -0.4654 -0.2447 -0.4232
22971SOL    HW170920   8.008   3.592   6.576  1.2463 -1.3021 -1.5475
22971SOL    HW270921   7.998   3.461   6.650 -1.5151 -0.1392  0.2679
22972SOL     OW70922   5.830   3.762   6.193  0.1732  0.0450  0.2999
22972SOL    HW170923   5.892   3.832   6.177  0.5940 -0.2828  0.4724
22972SOL    HW270924   5.775   3.759   6.115  0.8225 -0.1284 -0.1497
22973SOL     OW70925  10.823   0.454   4.878  0.1961  0.2741 -0.5856
22973SOL    HW170926  10.908   0.420   4.907 -1.1380 -2.1835  0.7670
22973SOL    HW270927  10.797   0.516   4.946 -0.0420 -0.6145  0.1441
22974SOL     OW70928   9.400   4.231   5.013 -0.0815  0.3733  1.0853
22974SOL    HW170929   9.416   4.258   5.103 -1.3040  1.4961  1.0019
22974SOL    HW270930   9.311   4.261   4.994 -0.4179 -1.1823 -0.0106
22975SOL     OW70931   5.265   5.550   7.069  0.8054 -0.3471 -0.4423
22975SOL    HW170932   5.219   5.467   7.053  0.0706  0.4049 -2.7700
22975SOL    HW270933   5.356   5.531   7.049  0.5986 -0.5567 -1.2257
22976SOL     OW70934   8.284   9.855   8.055 -0.5482  0.5734  0.4451
22976SOL    HW170935   8.333   9.865   7.974  2.4749  0.2121  2.0750
22976SOL    HW270936   8.223   9.784   8.038  2.7798 -2.3367 -0.4450
22977SOL     OW70937   4.709   0.653   0.619 -0.5760 -0.0629 -0.0477
22977SOL    HW170938   4.634   0.621   0.669  1.1414  0.3529  3.0953
22977SOL    HW270939   4.769   0.579   0.615  0.6070  0.7445  1.3892
22978SOL     OW70940   9.823   2.997   0.566  0.8947  0.0206  0.0284
22978SOL    HW170941   9.819   2.951   0.482  0.7299  1.0253 -0.5365
22978SOL    HW270942   9.743   2.971   0.612  1.8914 -2.0021  0.6835
22979SOL     OW70943   0.893  10.748   1.334  0.0894 -0.1681 -0.1648
22979SOL    HW170944   0.817  10.804   1.353  0.0481 -0.5676  0.9353
22979SOL    HW270945   0.882  10.723   1.242 -0.3814  0.8749 -0.4095
22980SOL     OW70946   6.763   1.422   2.162  0.0478 -0.3765  0.6442
22980SOL    HW170947   6.788   1.334   2.135  1.1536 -0.7141  2.5834
22980SOL    HW270948   6.679   1.410   2.206 -1.3433  0.0547 -1.7143
22981SOL     OW70949   8.522   9.603  10.088 -0.4927 -0.1035 -0.1503
22981SOL    HW170950   8.574   9.664  10.035 -0.9593  1.4980  1.1564
22981SOL    HW270951   8.507   9.529  10.031  2.3532 -0.1934 -0.9521
22982SOL     OW70952   5.595  10.169   3.806 -0.1167 -0.4200  0.4897
22982SOL    HW170953   5.560  10.081   3.795 -0.6828 -0.0099 -1.3509
22982SOL    HW270954   5.521  10.220   3.839 -0.1071 -0.4059  0.4901
22983SOL     OW70955   0.884   1.675  10.164  0.0731 -0.3211  0.6728
22983SOL    HW170956   0.944   1.652  10.235 -1.2974 -1.3570  1.5537
22983SOL    HW270957   0.841   1.592  10.141 -1.1030  0.4007  0.1833
22984SOL     OW70958   9.339   5.602   9.632 -0.6407 -0.0136 -0.3351
22984SOL    HW170959   9.420   5.616   9.682  0.0087 -1.6180 -0.8655
22984SOL    HW270960   9.303   5.690   9.620  1.4215  0.8494 -0.7309
22985SOL     OW70961   9.078   4.937   5.435 -0.1704 -0.0235  0.1704
22985SOL    HW170962   9.034   5.011   5.476 -0.7762  0.0272 -0.5442
22985SOL    HW270963   9.013   4.867   5.434  0.2533 -0.4260  0.4398
22986SOL     OW70964   2.365   9.303   5.402 -0.1404  0.2636  0.0453
22986SOL    HW170965   2.288   9.345   5.439  0.0917  1.5728 -0.9008
22986SOL    HW270966   2.439   9.352   5.439  0.0794  2.7137 -3.2334
22987SOL     OW70967  10.461   8.979   7.252 -0.0356  0.4525 -0.9531
22987SOL    HW170968  10.421   8.927   7.182  1.1186  0.8956 -1.9938
22987SOL    HW270969  10.550   8.994   7.221 -0.0377  2.1797 -0.2054
22988SOL     OW70970   5.946   6.065   7.338  0.7378 -0.2052  0.0227
22988SOL    HW170971   5.925   6.053   7.430 -1.7111  0.6175 -0.3605
22988SOL    HW270972   5.937   5.978   7.299 -0.0306 -0.2262  0.2407
22989SOL     OW70973   6.640  10.661  10.923 -0.2838 -0.1407  0.2853
22989SOL    HW170974   6.633  10.570  10.951 -1.7682  1.3531  6.1129
22989SOL    HW270975   6.734  10.679  10.922  0.1732 -1.9201 -2.7618
22990SOL     OW70976  10.843   5.434   2.161  0.2547  0.2565  0.1397
22990SOL    HW170977  10.857   5.408   2.070 -0.9016  1.4029 -0.3913
22990SOL    HW270978  10.907   5.383   2.211  1.0303 -0.2486 -1.3278
22991SOL     OW70979   8.611   9.673   5.560  0.5864 -0.6349 -0.6114
22991SOL    HW170980   8.653   9.668   5.646 -0.3438  0.6315 -0.0454
22991SOL    HW270981   8.569   9.588   5.549  1.0780 -0.9654 -0.0178
22992SOL     OW70982  10.271   2.280  10.140 -0.2707  0.0439 -0.5041
22992SOL    HW170983  10.334   2.300  10.070  1.2765  3.5615  1.6047
22992SOL    HW270984  10.208   2.352  10.136 -1.9791 -1.3691 -0.1402
22993SOL     OW70985   2.552   9.907   0.076  0.4252 -0.0272  0.2383
22993SOL    HW170986   2.482   9.851   0.043  1.9709 -1.9858  0.0817
22993SOL    HW270987   2.532   9.916   0.170  0.1290 -0.8385  0.2647
22994SOL     OW70988   5.342   6.720   1.220 -0.6755  0.1451 -0.1401
22994SOL    HW170989   5.422   6.703   1.170 -0.2558 -1.6865  1.0681
22994SOL    HW270990   5.351   6.811   1.248 -0.4206  0.8894 -2.4035
22995SOL     OW70991   1.313   9.002   0.991 -0.4344  0.4169  0.0342
22995SOL    HW170992   1.401   9.013   0.955  0.3637  0.9014  2.0146
22995SOL    HW270993   1.277   9.090   0.993 -0.2759  0.4666  0.8694
22996SOL     OW70994   2.017   5.380   5.972 -0.1543 -0.3544 -0.0561
22996SOL    HW170995   2.074   5.320   5.923 -2.5492 -1.5486 -1.5997
22996SOL    HW270996   1.997   5.333   6.053  1.2045  0.1961  0.6300
22997SOL     OW70997   7.122   8.335   8.931 -0.3537 -0.2274  0.1988
22997SOL    HW170998   7.096   8.394   8.860 -2.4129 -1.3264 -0.0326
22997SOL    HW270999   7.161   8.392   8.997  0.6433  0.9507 -1.3435
22998SOL     OW71000   7.942   1.691   3.577 -0.7086  0.0994 -0.0615
22998SOL    HW171001   7.964   1.670   3.486  3.2369 -2.2719  1.2006
22998SOL    HW271002   8.007   1.756   3.603  0.8077 -2.0556  1.9909
22999SOL     OW71003   2.081   3.074   8.906 -0.1010  0.6827 -0.3959
22999SOL    HW171004   2.141   3.143   8.875 -1.4576  2.1151  0.0488
22999SOL    HW271005   2.004   3.121   8.936 -0.4232 -0.9389  1.5069
23000SOL     OW71006   5.936   6.899   8.312  0.0244 -0.0054 -0.0414
23000SOL    HW171007   5.952   6.805   8.298 -0.6451 -0.1785  0.3014
23000SOL    HW271008   5.906   6.904   8.403  0.5318  0.6071  0.0951
23001SOL     OW71009   4.670   2.762   1.658  0.1499  0.9660 -0.0508
23001SOL    HW171010   4.649   2.836   1.602 -1.6177  1.3635  1.0577
23001SOL    HW271011   4.601   2.762   1.725  0.5221 -1.2402  0.4086
23002SOL     OW71012   0.629   8.077   3.105  0.2273 -0.1140 -0.0938
23002SOL    HW171013   0.639   8.036   3.019  1.2893 -0.0164 -0.0281
23002SOL    HW271014   0.702   8.043   3.156 -1.1698 -1.2412  1.2223
23003SOL     OW71015   2.408   3.365   0.610 -0.0690  0.0429  0.1264
23003SOL    HW171016   2.460   3.285   0.616 -2.1057 -1.3812 -0.0803
23003SOL    HW271017   2.461   3.425   0.557  1.1232 -1.4844 -0.4744
23004SOL     OW71018   9.090   0.512   1.724 -0.3670 -0.0051  0.4102
23004SOL    HW171019   9.047   0.475   1.801 -1.5051  0.7913  0.2011
23004SOL    HW271020   9.029   0.580   1.694 -0.2276 -0.6588 -1.5182
23005SOL     OW71021   7.292   2.520   8.174 -0.2475  0.0300 -0.2772
23005SOL    HW171022   7.284   2.580   8.248 -1.9723 -0.2716 -0.1723
23005SOL    HW271023   7.369   2.466   8.195  1.0422  1.8164 -0.1429
23006SOL     OW71024   2.385   7.825  10.827 -0.4681 -0.4689 -0.0013
23006SOL    HW171025   2.363   7.827  10.920  0.8617 -2.5096  0.4445
23006SOL    HW271026   2.479   7.843  10.825 -0.3985 -0.8815 -0.8987
23007SOL     OW71027   0.518   4.293   3.396  0.2028  0.6176  0.5328
23007SOL    HW171028   0.520   4.261   3.305  0.2356 -0.8612  1.0305
23007SOL    HW271029   0.584   4.362   3.399 -0.3915  1.2856 -0.7702
23008SOL     OW71030   7.898  10.078   2.002  0.8211  0.0415 -0.1091
23008SOL    HW171031   7.985  10.108   1.974  0.0993  0.1241 -2.4427
23008SOL    HW271032   7.843  10.156   1.999  0.3065 -0.3202 -0.2980
23009SOL     OW71033   6.908   5.661   5.776 -0.1088  0.5581  0.1263
23009SOL    HW171034   6.870   5.581   5.813 -0.0274  0.0982 -0.7505
23009SOL    HW271035   6.843   5.728   5.794 -2.0239 -0.4432 -2.4177
23010SOL     OW71036   7.716   1.363   4.300  0.2936 -0.0763  0.5352
23010SOL    HW171037   7.776   1.383   4.227 -1.7052 -1.7121 -1.7420
23010SOL    HW271038   7.637   1.331   4.257 -0.0893 -3.7681  3.4510
23011SOL     OW71039   6.473   2.039   0.454  0.2489  0.5169 -0.2964
23011SOL    HW171040   6.553   2.036   0.506 -1.0601  3.1115  2.1604
23011SOL    HW271041   6.402   2.035   0.519 -1.5285  2.0646 -2.0114
23012SOL     OW71042   1.176   6.024  10.742 -0.3047 -0.5144 -0.3432
23012SOL    HW171043   1.106   5.974  10.701  0.2983 -0.4809 -1.4532
23012SOL    HW271044   1.177   6.108  10.696 -0.5813  0.1002  0.7529
23013SOL     OW71045  10.634   8.084   1.292 -0.1936  0.0852  0.4422
23013SOL    HW171046  10.668   8.144   1.226  1.3393 -1.8502 -0.6295
23013SOL    HW271047  10.542   8.072   1.268  0.1414  0.0091 -0.9035
23014SOL     OW71048   6.762   8.974   8.037 -0.3454  0.5729  0.4435
23014SOL    HW171049   6.780   9.016   7.953 -1.2008  0.4129  0.1735
23014SOL    HW271050   6.718   9.041   8.088 -0.3527  0.4815  0.5569
23015SOL     OW71051   1.684   9.800   9.205 -0.0966  0.0961  0.0021
23015SOL    HW171052   1.776   9.804   9.180 -0.1136 -2.0598 -0.6660
23015SOL    HW271053   1.683   9.749   9.286 -0.6742  0.5744  0.3090
23016SOL     OW71054   6.059   3.428   1.857 -0.1582  0.4960 -0.1544
23016SOL    HW171055   6.032   3.471   1.938 -0.8251 -2.4948  1.3791
23016SOL    HW271056   5.988   3.367   1.837  0.6532  0.1287 -2.1810
23017SOL     OW71057   6.827   7.840   8.083  0.4736 -0.3734  0.3760
23017SOL    HW171058   6.828   7.862   8.176 -0.3044 -0.9644  0.5328
23017SOL    HW271059   6.775   7.910   8.042  1.3886  0.2681  0.2666
23018SOL     OW71060   7.945   9.507   6.230 -0.9383 -0.3749 -0.0800
23018SOL    HW171061   8.014   9.469   6.285  1.3561  0.3965 -2.2157
23018SOL    HW271062   7.927   9.592   6.270 -2.3528 -1.4592  1.7521
23019SOL     OW71063   2.492   5.771   3.908 -0.0366 -0.4897  0.3153
23019SOL    HW171064   2.471   5.723   3.827  0.6219 -1.7661  0.8631
23019SOL    HW271065   2.459   5.859   3.893  0.0900 -0.6905 -1.3633
23020SOL     OW71066   5.281   9.900   4.315 -0.1314  0.6078 -0.0907
23020SOL    HW171067   5.313   9.963   4.249  0.4884 -1.3145 -1.7406
23020SOL    HW271068   5.360   9.860   4.349 -0.5428 -1.6667 -1.5983
23021SOL     OW71069   1.854   7.803   3.609 -0.3927  0.2727  1.0884
23021SOL    HW171070   1.903   7.881   3.635  0.3358  0.0034  0.5605
23021SOL    HW271071   1.880   7.736   3.671  2.4538 -0.7753 -1.0175
23022SOL     OW71072   4.650   8.105   1.983  0.0943 -0.2461  0.2303
23022SOL    HW171073   4.666   8.106   2.077  0.4207  0.2170  0.1747
23022SOL    HW271074   4.722   8.157   1.946  0.0773 -0.5895 -0.2894
23023SOL     OW71075   0.572   4.758   6.264 -0.4268  0.3316 -1.0125
23023SOL    HW171076   0.612   4.682   6.222  1.1449  0.0653  0.8531
23023SOL    HW271077   0.645   4.817   6.282 -0.9597  0.2634  1.6502
23024SOL     OW71078   0.734   8.266   2.038  0.3661  0.5722  0.6839
23024SOL    HW171079   0.767   8.322   1.967  1.0196 -0.8670 -0.1932
23024SOL    HW271080   0.661   8.218   1.999 -0.2216  0.8315  1.4436
23025SOL     OW71081   8.332   5.224   6.764 -0.3437  0.1541 -0.4368
23025SOL    HW171082   8.425   5.232   6.784 -0.0858 -0.7853 -1.1597
23025SOL    HW271083   8.313   5.299   6.707 -0.3092  0.9784  0.6184
23026SOL     OW71084   6.154   3.729   6.603 -0.2057  0.0558  0.8286
23026SOL    HW171085   6.105   3.798   6.559  0.1779 -1.2747 -1.8831
23026SOL    HW271086   6.218   3.776   6.657  0.2353  1.8391 -1.1417
23027SOL     OW71087  10.116   9.493  10.492 -0.2412 -0.7167  0.2815
23027SOL    HW171088  10.180   9.545  10.541 -1.8035  2.3896 -0.7392
23027SOL    HW271089  10.103   9.541  10.410 -1.2216 -3.2141 -1.1452
23028SOL     OW71090   4.318   2.744   2.995  0.3186  0.1126 -0.1396
23028SOL    HW171091   4.312   2.653   3.022 -1.2676  0.9994  2.8745
23028SOL    HW271092   4.228   2.769   2.973  0.3414  1.5238  1.2692
23029SOL     OW71093   7.586   0.940   8.501 -0.6653  0.3004  0.3728
23029SOL    HW171094   7.601   0.975   8.589 -0.9296  1.3051  0.0225
23029SOL    HW271095   7.558   1.015   8.449  0.7838  0.0002 -0.9147
23030SOL     OW71096   9.549   8.634  10.398 -0.2967  0.0175  0.0190
23030SOL    HW171097   9.489   8.688  10.449  0.6236  1.1113 -0.0209
23030SOL    HW271098   9.577   8.565  10.459 -0.8724  0.0367  0.3113
23031SOL     OW71099   1.845   8.048   7.601  0.8626 -0.3404 -0.8181
23031SOL    HW171100   1.762   8.017   7.637  1.7770 -1.6474  0.2620
23031SOL    HW271101   1.848   8.141   7.625 -0.4465 -0.1681 -1.2273
23032SOL     OW71102   9.496   2.890   4.687 -0.0341 -0.1968 -0.3950
23032SOL    HW171103   9.499   2.940   4.769 -1.5064 -0.3302 -0.2247
23032SOL    HW271104   9.540   2.946   4.623  0.1643  0.3953  0.2457
23033SOL     OW71105   2.474   1.562   0.749 -0.0567 -0.3100 -0.5197
23033SOL    HW171106   2.382   1.585   0.732 -0.2345 -0.1870  0.5276
23033SOL    HW271107   2.473   1.524   0.837  0.3434 -3.6988 -1.8364
23034SOL     OW71108   7.354   0.016   2.464  0.0763  0.4142  0.0671
23034SOL    HW171109   7.263   0.041   2.451  0.0030  0.9899  1.4997
23034SOL    HW271110   7.404   0.082   2.416 -0.2410 -0.5742 -1.7238
23035SOL     OW71111   7.731   8.708   1.618  0.3554  0.4814  0.0177
23035SOL    HW171112   7.687   8.690   1.701 -0.2080 -0.5576 -0.4970
23035SOL    HW271113   7.730   8.803   1.611  2.0524  0.7278  2.0878
23036SOL     OW71114   1.411   7.139   3.347  0.0569 -0.2314 -0.2005
23036SOL    HW171115   1.495   7.093   3.339  0.0143 -0.2424 -0.6097
23036SOL    HW271116   1.434   7.232   3.341  0.0584 -0.2274 -0.1374
23037SOL     OW71117   9.091   4.066   1.393  0.3181  0.1884 -0.0169
23037SOL    HW171118   9.117   4.158   1.402  0.3876  0.6388 -3.3126
23037SOL    HW271119   8.999   4.070   1.365  0.0914 -0.7869  0.5652
23038SOL     OW71120   4.441   4.993   8.611 -0.2756 -0.5964 -0.0616
23038SOL    HW171121   4.468   5.076   8.651 -0.2902 -0.3965 -0.4563
23038SOL    HW271122   4.507   4.976   8.544 -0.0527 -1.1135  0.2970
23039SOL     OW71123   1.468   7.611   9.206  0.0146  0.0509  0.0554
23039SOL    HW171124   1.399   7.674   9.227 -0.5391 -0.5181 -0.0266
23039SOL    HW271125   1.485   7.625   9.113  0.1382  0.3132  0.1152
23040SOL     OW71126   1.940   5.786   9.751  0.1436  0.1040  0.3014
23040SOL    HW171127   1.848   5.759   9.758 -0.2893  1.3314 -0.4144
23040SOL    HW271128   1.981   5.715   9.701 -0.4815 -0.2781  0.3113
23041SOL     OW71129   4.238   7.377   5.518 -0.0281 -0.1336 -0.1509
23041SOL    HW171130   4.217   7.288   5.546  2.0074 -0.8476 -0.7712
23041SOL    HW271131   4.179   7.394   5.445 -0.7134 -0.8085  0.2356
23042SOL     OW71132   1.647   4.300   2.501 -0.0445  0.6792 -0.4193
23042SOL    HW171133   1.665   4.326   2.592  1.8515  0.3432 -0.6505
23042SOL    HW271134   1.552   4.289   2.498 -0.2339  1.3988  1.3294
23043SOL     OW71135  10.029   4.958   2.833  0.2895  0.2534 -0.0634
23043SOL    HW171136   9.955   5.018   2.839 -1.0550 -1.3843  0.5972
23043SOL    HW271137  10.016   4.897   2.906  1.7900 -0.6385 -0.5026
23044SOL     OW71138   3.876   4.794   0.236  0.4281 -0.3678  0.2608
23044SOL    HW171139   3.822   4.728   0.192  1.0464 -0.5802 -0.1919
23044SOL    HW271140   3.841   4.878   0.206 -1.1356 -0.4187  1.7395
23045SOL     OW71141   3.667  10.452   5.939  0.8884 -0.5667  0.4658
23045SOL    HW171142   3.598  10.390   5.964 -1.2926  1.2380 -0.6686
23045SOL    HW271143   3.701  10.485   6.022  0.6976 -1.8122  1.0576
23046SOL     OW71144   4.903   4.187  10.509 -0.1230 -0.3774 -0.5058
23046SOL    HW171145   4.941   4.273  10.525  1.6726 -1.7403  3.9530
23046SOL    HW271146   4.811   4.196  10.535  0.2255  0.0805  0.6211
23047SOL     OW71147   2.652   5.473   4.751  0.4774 -0.7661  0.4009
23047SOL    HW171148   2.558   5.458   4.742  0.2501  1.0874 -0.9803
23047SOL    HW271149   2.659   5.567   4.768  2.1480 -0.5132 -1.3844
23048SOL     OW71150   7.310   9.772   7.976 -0.4774  0.8295  0.0242
23048SOL    HW171151   7.267   9.686   7.982  0.8814  0.1110 -0.1919
23048SOL    HW271152   7.383   9.758   7.915  2.7680  0.8304  3.5555
23049SOL     OW71153   1.773   4.261   8.711 -0.4123  0.0670 -0.5777
23049SOL    HW171154   1.818   4.239   8.629  0.2219  1.4593 -0.6368
23049SOL    HW271155   1.757   4.355   8.704 -1.0595  0.0480  0.5626
23050SOL     OW71156   4.260   5.257   0.942  0.1825 -0.8845 -0.7051
23050SOL    HW171157   4.272   5.350   0.958 -0.4598 -0.7725 -0.8556
23050SOL    HW271158   4.218   5.252   0.856 -0.0651 -1.2924 -0.5676
23051SOL     OW71159   1.145   4.630   1.242 -0.2096 -0.4081 -0.7147
23051SOL    HW171160   1.140   4.573   1.165 -1.1380  1.2512 -1.9435
23051SOL    HW271161   1.063   4.612   1.290  0.6562 -1.9083  0.2953
23052SOL     OW71162   5.102   6.715   9.817  0.0620  0.1498  0.6046
23052SOL    HW171163   5.188   6.757   9.809 -1.0000  2.6176  1.2568
23052SOL    HW271164   5.106   6.669   9.900  0.6672  0.4614  0.7553
23053SOL     OW71165   2.726   2.340   3.633  0.2231 -0.6960 -0.2616
23053SOL    HW171166   2.698   2.414   3.579 -2.2631 -1.4697 -0.1643
23053SOL    HW271167   2.777   2.285   3.574  0.4317  0.1238 -0.8674
23054SOL     OW71168   7.772   2.533   8.958 -0.7509  0.0215 -0.2463
23054SOL    HW171169   7.741   2.537   8.867 -2.5892  0.3636  0.3573
23054SOL    HW271170   7.833   2.606   8.966  0.1532 -0.5622 -1.4266
23055SOL     OW71171   0.467   5.651  11.101 -0.0330 -0.4302 -0.0700
23055SOL    HW171172   0.485   5.587  11.170 -0.9612  0.7210  1.3241
23055SOL    HW271173   0.371   5.651  11.094 -0.4036  2.9572  2.3000
23056SOL     OW71174   3.637   1.899   6.998  0.2017 -0.1982  0.6247
23056SOL    HW171175   3.617   1.992   7.006 -0.5927 -0.3857  1.0183
23056SOL    HW271176   3.568   1.856   7.050  0.5314 -1.0006  0.4094
23057SOL     OW71177   4.108   4.002   9.699  0.6452 -0.2256  0.0630
23057SOL    HW171178   4.126   3.910   9.713 -0.1015 -0.3312  0.3975
23057SOL    HW271179   4.190   4.047   9.720  0.0943 -0.5152  3.2548
23058SOL     OW71180   5.920   8.047  10.512  0.1184  0.4126  0.2983
23058SOL    HW171181   5.992   8.014  10.566  0.0082 -0.1480  0.1059
23058SOL    HW271182   5.895   7.973  10.458 -0.0625  0.8430 -0.2171
23059SOL     OW71183   3.088   2.129   4.554 -0.4793  0.4652 -0.5275
23059SOL    HW171184   3.093   2.045   4.509 -2.6223 -0.2231  0.3780
23059SOL    HW271185   3.059   2.107   4.642 -1.5565  2.1663 -0.4109
23060SOL     OW71186   9.420   7.258   8.678  0.5585  0.4261  0.0046
23060SOL    HW171187   9.348   7.315   8.650  1.5485  1.4199 -0.6299
23060SOL    HW271188   9.415   7.259   8.773 -0.7013 -0.1174 -0.0316
23061SOL     OW71189   9.765  11.067   7.201  0.2224  0.2396  0.0449
23061SOL    HW171190   9.723  11.096   7.120  0.0015  0.1667  0.1321
23061SOL    HW271191   9.699  11.082   7.268  0.1162 -0.4238  0.0955
23062SOL     OW71192   0.515   9.271   3.647 -0.1046 -0.1427 -0.3831
23062SOL    HW171193   0.434   9.311   3.679  0.4845  1.3786 -0.7042
23062SOL    HW271194   0.554   9.230   3.724 -0.8430 -0.3040 -0.0903
23063SOL     OW71195   6.276   7.778   5.802  0.1084  0.9206 -0.3383
23063SOL    HW171196   6.351   7.797   5.744  0.3474 -0.2433 -0.4498
23063SOL    HW271197   6.315   7.770   5.889 -0.1223  1.8114 -0.1478
23064SOL     OW71198   4.219   5.836   8.521 -0.5644  0.5830  0.5011
23064SOL    HW171199   4.224   5.743   8.543  0.3484  0.4036 -0.3872
23064SOL    HW271200   4.130   5.861   8.545 -0.8919 -0.5746  0.5702
23065SOL     OW71201   6.732   2.820   0.967 -0.3953  0.7424 -0.2124
23065SOL    HW171202   6.669   2.753   0.942 -0.0198 -0.0064  0.8314
23065SOL    HW271203   6.810   2.802   0.913  0.4597 -0.9511  1.4779
23066SOL     OW71204   9.020   5.109   9.640  0.4933 -0.5310  0.5761
23066SOL    HW171205   9.043   5.186   9.691  0.2471 -0.3669  0.4450
23066SOL    HW271206   9.098   5.088   9.590 -0.8418  2.8373 -3.5072
23067SOL     OW71207   2.212   8.651   2.781  0.1732 -0.3094  0.0069
23067SOL    HW171208   2.151   8.721   2.805  0.6030  0.0204  0.1347
23067SOL    HW271209   2.158   8.572   2.784 -0.6706  0.1553 -1.4799
23068SOL     OW71210   8.611   6.433   0.901 -0.5116 -0.6987 -0.2073
23068SOL    HW171211   8.676   6.425   0.831 -0.5786  1.2792 -0.5514
23068SOL    HW271212   8.654   6.489   0.966 -1.8129  0.5895 -0.4106
23069SOL     OW71213   4.264   7.261   7.813 -0.0361 -0.1764 -0.1179
23069SOL    HW171214   4.226   7.220   7.736 -0.5939 -0.4610  0.3022
23069SOL    HW271215   4.305   7.190   7.861 -0.4972 -0.1586  0.3149
23070SOL     OW71216   4.194   6.908   8.652  0.1537 -0.1946 -0.1126
23070SOL    HW171217   4.253   6.843   8.689  0.1685 -0.5677 -0.7821
23070SOL    HW271218   4.210   6.987   8.703  0.8871 -0.4264  0.0222
23071SOL     OW71219  10.099   0.835  10.356  0.0332 -0.4548  0.5339
23071SOL    HW171220  10.118   0.898  10.287  0.4669 -0.5698  0.5460
23071SOL    HW271221  10.048   0.884  10.420  1.5898  0.2900  1.2443
23072SOL     OW71222   4.500   6.416   8.429 -0.3780 -0.0606 -0.0253
23072SOL    HW171223   4.528   6.335   8.387 -0.2508 -0.0312  0.0034
23072SOL    HW271224   4.441   6.457   8.366  0.6170  0.4921 -0.6098
23073SOL     OW71225   0.944   2.917   1.741 -0.2213  0.6516  0.3545
23073SOL    HW171226   0.895   2.896   1.662 -0.8744  1.6012  0.4960
23073SOL    HW271227   0.909   3.001   1.770 -1.1119 -0.3784  2.5375
23074SOL     OW71228   7.972   8.925   0.999  0.8099 -0.0561  1.0353
23074SOL    HW171229   8.054   8.922   0.949  1.3188  1.7165  1.6867
23074SOL    HW271230   7.968   8.840   1.044  2.7338  0.1357  1.6564
23075SOL     OW71231   0.760  10.649   6.838 -0.6782 -0.2146 -0.3956
23075SOL    HW171232   0.755  10.696   6.755  0.1537  0.0229 -0.3173
23075SOL    HW271233   0.723  10.709   6.903 -2.1586 -0.7410 -0.7164
23076SOL     OW71234   7.855   3.498   6.229 -0.1261  0.9986  0.4732
23076SOL    HW171235   7.800   3.420   6.224  4.2576 -2.4597 -0.5289
23076SOL    HW271236   7.832   3.548   6.151  0.1050 -1.9246 -1.6600
23077SOL     OW71237  10.643   3.238   6.118 -0.0640 -0.2496 -0.6300
23077SOL    HW171238  10.623   3.312   6.176  1.7054 -0.8625  0.8738
23077SOL    HW271239  10.602   3.261   6.034  1.2289  2.9045 -0.5239
23078SOL     OW71240   8.737   6.294   1.351  0.2663  0.4792 -0.4118
23078SOL    HW171241   8.784   6.366   1.307 -0.5859  0.9489 -0.5711
23078SOL    HW271242   8.806   6.247   1.399  1.1887  0.0730 -2.0500
23079SOL     OW71243   7.573   6.370   9.526  0.4578  0.0057  0.7226
23079SOL    HW171244   7.634   6.440   9.550  1.2297 -0.2699 -0.3657
23079SOL    HW271245   7.535   6.398   9.443  0.1663 -0.4895  0.6854
23080SOL     OW71246   6.168   8.731   0.829 -0.2228 -0.6651 -0.0562
23080SOL    HW171247   6.170   8.714   0.735 -0.8138 -0.1499 -0.1711
23080SOL    HW271248   6.241   8.791   0.845 -0.7671  0.0865 -0.3669
23081SOL     OW71249   7.464   1.682   2.637 -0.3299  0.8281  0.0456
23081SOL    HW171250   7.422   1.724   2.712 -1.7288  1.6147 -1.1347
23081SOL    HW271251   7.540   1.637   2.675 -0.3476  2.1202  1.7673
23082SOL     OW71252   4.779   7.815   6.347 -0.2190 -0.2554  0.4096
23082SOL    HW171253   4.862   7.788   6.309 -0.8784 -1.5228 -0.2156
23082SOL    HW271254   4.794   7.813   6.441  0.8944  1.0849  0.2856
23083SOL     OW71255   9.212   0.841   9.337  0.3148 -0.1070 -0.5751
23083SOL    HW171256   9.273   0.843   9.263  0.1675  0.3911 -0.6882
23083SOL    HW271257   9.265   0.812   9.411  0.7744  0.6370 -0.6001
23084SOL     OW71258   9.325  10.977   6.348 -0.0901 -1.3354  0.2082
23084SOL    HW171259   9.317  10.882   6.354 -1.4572 -1.2474  0.1145
23084SOL    HW271260   9.248  11.005   6.299 -0.7285 -0.0118  1.8542
23085SOL     OW71261  10.333   0.300   5.892 -0.4165 -0.4738 -0.1684
23085SOL    HW171262  10.371   0.341   5.814 -2.5299  2.0506  0.0112
23085SOL    HW271263  10.324   0.371   5.955  2.2419 -2.6087  2.9685
23086SOL     OW71264  10.903   4.771   6.082  0.3527  0.2393  0.4513
23086SOL    HW171265  10.959   4.755   6.158  0.7953  0.1703  0.1139
23086SOL    HW271266  10.852   4.848   6.105  2.2797  1.7631 -0.1544
23087SOL     OW71267   4.101   8.627   3.731  0.1339 -0.4378 -0.0157
23087SOL    HW171268   4.018   8.592   3.763  0.0359  0.0936  0.3210
23087SOL    HW271269   4.165   8.606   3.799  0.2746 -0.8362 -0.2694
23088SOL     OW71270   5.767  10.549   0.830 -0.0337 -0.2648  0.2095
23088SOL    HW171271   5.812  10.509   0.755 -0.3523  1.6232 -1.0694
23088SOL    HW271272   5.699  10.486   0.853 -0.3344 -0.6427 -1.5321
23089SOL     OW71273   0.128  10.911   5.355  0.0499  0.0461  0.1919
23089SOL    HW171274   0.033  10.922   5.362 -0.2831 -1.0551 -1.7554
23089SOL    HW271275   0.149  10.839   5.415 -0.4235 -0.0493  0.2435
23090SOL     OW71276   2.564   4.328   5.420 -0.0918  0.3577  0.2322
23090SOL    HW171277   2.548   4.253   5.362  1.1208  0.7114 -0.6141
23090SOL    HW271278   2.572   4.289   5.507 -0.9800 -0.3100  0.0327
23091SOL     OW71279   9.714   8.899   5.417 -0.0197  0.3378  0.4180
23091SOL    HW171280   9.790   8.934   5.464  1.2891 -2.2246  0.3956
23091SOL    HW271281   9.672   8.841   5.481 -0.1300 -0.6395 -0.5203
23092SOL     OW71282   2.893   2.940  10.132  0.1722 -0.2576 -0.7803
23092SOL    HW171283   2.890   3.019  10.079 -1.3780 -0.4887 -1.1002
23092SOL    HW271284   2.918   2.970  10.219  0.5078  0.4461 -1.1110
23093SOL     OW71285   9.288   2.099   8.783  0.9099 -0.4994  0.6112
23093SOL    HW171286   9.249   2.107   8.696  1.6655  0.5761  0.3531
23093SOL    HW271287   9.245   2.166   8.836 -0.2982 -1.8230  1.3899
23094SOL     OW71288   5.680   6.106   3.713  0.7614 -0.2841 -1.2377
23094SOL    HW171289   5.704   6.128   3.803  0.9635 -2.3669 -0.7303
23094SOL    HW271290   5.755   6.057   3.679 -0.9196 -3.2510 -1.0314
23095SOL     OW71291   5.616   6.807   7.557  0.2153  0.0790  0.2751
23095SOL    HW171292   5.666   6.731   7.529 -1.6195 -1.1342  0.1491
23095SOL    HW271293   5.593   6.852   7.476 -0.6455 -0.5261  0.1729
23096SOL     OW71294  10.401   2.864   6.156 -0.0689 -0.0553 -0.2459
23096SOL    HW171295  10.431   2.861   6.065 -0.4806 -1.2178 -0.3663
23096SOL    HW271296  10.480   2.882   6.207 -0.0064  1.6427 -0.8971
23097SOL     OW71297   6.660   0.519   1.134  0.2773 -0.2915  0.9221
23097SOL    HW171298   6.639   0.587   1.198 -2.2727 -0.4972  0.4059
23097SOL    HW271299   6.638   0.557   1.049 -0.9760 -1.6116  0.6052
23098SOL     OW71300   1.781   0.732   2.232  0.2260  0.4989  0.3073
23098SOL    HW171301   1.793   0.786   2.311  0.5367  3.3353 -1.5184
23098SOL    HW271302   1.745   0.793   2.167 -2.2202 -2.2766 -1.1484
23099SOL     OW71303   4.317   4.608   5.085  0.4625 -0.4987  0.2868
23099SOL    HW171304   4.362   4.538   5.037  3.8912  2.0866 -0.6338
23099SOL    HW271305   4.352   4.602   5.174  0.3664 -0.2813  0.3406
23100SOL     OW71306   8.159   4.245   1.684 -0.3420  0.1903 -0.5728
23100SOL    HW171307   8.077   4.197   1.667 -1.8722  2.9846 -1.7815
23100SOL    HW271308   8.163   4.251   1.779 -0.9513 -0.9391 -0.4538
23101SOL     OW71309   6.999  10.894   8.920 -0.2935  0.1344  0.3428
23101SOL    HW171310   6.985  10.801   8.935 -1.7929  0.1742 -0.5713
23101SOL    HW271311   6.996  10.933   9.008  0.8344 -0.7163  0.7717
23102SOL     OW71312   9.560   0.490   1.095 -1.5346  0.6002 -0.8750
23102SOL    HW171313   9.533   0.499   1.187 -0.9056  1.6021 -0.7644
23102SOL    HW271314   9.578   0.397   1.084 -3.1044  0.2133 -0.4190
23103SOL     OW71315   7.980   0.371   9.444 -0.0719 -0.4002  0.4386
23103SOL    HW171316   7.886   0.361   9.460 -0.2142 -0.8031 -0.5913
23103SOL    HW271317   8.019   0.291   9.477 -0.0397 -0.0735  1.2079
23104SOL     OW71318   7.850  10.813   1.263  0.7887 -0.3135 -0.4850
23104SOL    HW171319   7.834  10.857   1.180  0.3903 -0.9735 -0.7656
23104SOL    HW271320   7.843  10.882   1.329  2.0457  0.3976 -1.0646
23105SOL     OW71321  10.663  10.516   9.307 -0.3839 -0.6650 -0.6012
23105SOL    HW171322  10.698  10.434   9.339 -2.0924 -0.7846  1.1639
23105SOL    HW271323  10.667  10.575   9.383 -1.3233  0.1415 -1.1523
23106SOL     OW71324   3.139   9.452   0.316 -0.3788  0.2019 -0.0599
23106SOL    HW171325   3.192   9.435   0.394  0.0508 -0.9919 -0.5830
23106SOL    HW271326   3.089   9.531   0.337  1.5275  1.3167  0.4856
23107SOL     OW71327  10.348   3.108   8.409 -0.0890  0.3003 -0.6598
23107SOL    HW171328  10.382   3.135   8.324 -0.6950 -0.6963 -1.2315
23107SOL    HW271329  10.408   3.039   8.438 -1.4562 -1.3512 -1.5990
23108SOL     OW71330   8.741   2.853   1.415  0.0897 -0.2437 -0.2886
23108SOL    HW171331   8.770   2.941   1.391 -1.1274 -0.2215 -1.8084
23108SOL    HW271332   8.789   2.834   1.496  0.1410  1.9278  0.2624
23109SOL     OW71333   5.709   5.980   8.346  0.0836  0.7061 -0.3163
23109SOL    HW171334   5.754   5.899   8.322  2.4563  1.5118  0.9714
23109SOL    HW271335   5.740   6.044   8.282  1.3497  1.4021  0.9212
23110SOL     OW71336   4.705   4.645   8.293 -0.0325 -0.6682  0.5135
23110SOL    HW171337   4.658   4.672   8.215  1.0872 -0.2189 -0.0384
23110SOL    HW271338   4.658   4.687   8.365 -0.3131 -0.0166 -0.0414
23111SOL     OW71339   4.460   9.901   7.742 -0.5363 -0.4738  0.4532
23111SOL    HW171340   4.546   9.867   7.717  0.0736  1.4285 -0.2151
23111SOL    HW271341   4.473   9.936   7.830 -0.5253  0.0975  0.2294
23112SOL     OW71342   2.326   1.710  10.490 -0.0373 -0.1248 -0.3765
23112SOL    HW171343   2.346   1.709  10.396  0.3852 -0.5393 -0.2829
23112SOL    HW271344   2.391   1.769  10.527 -0.7451  0.7315 -0.4554
23113SOL     OW71345   5.731   8.806   5.420  0.1727 -0.3846  0.2780
23113SOL    HW171346   5.640   8.802   5.389  0.5356 -1.4659 -0.7210
23113SOL    HW271347   5.726   8.782   5.512 -0.7046  0.9528  0.6071
23114SOL     OW71348   7.207   5.550   3.943 -0.3171  0.4199  0.1801
23114SOL    HW171349   7.246   5.618   3.998  2.7317  1.5800 -3.0355
23114SOL    HW271350   7.241   5.468   3.978  1.0046  1.0642  0.4498
23115SOL     OW71351   3.602   0.528   8.699 -0.3094 -0.4552  0.2823
23115SOL    HW171352   3.657   0.450   8.708  1.5664  0.3204 -2.8786
23115SOL    HW271353   3.522   0.496   8.655  1.3248 -0.5022 -2.9982
23116SOL     OW71354  10.936  10.305   6.947  0.3230  0.1481  0.1463
23116SOL    HW171355  10.920  10.248   6.871  1.3593 -1.2486  0.9160
23116SOL    HW271356  10.972  10.385   6.910  0.8383 -0.5193 -0.8556
23117SOL     OW71357   1.243   8.920   2.736 -0.0288 -0.6688  0.0424
23117SOL    HW171358   1.220   8.927   2.829  0.6613 -2.3410  0.3635
23117SOL    HW271359   1.327   8.874   2.735  1.8596  2.4400 -1.2603
23118SOL     OW71360   7.312   8.316  10.612 -0.8057 -0.4061  0.2735
23118SOL    HW171361   7.361   8.377  10.555  0.2388 -1.4775 -0.0156
23118SOL    HW271362   7.242   8.284  10.556 -0.1516 -0.9808 -0.2454
23119SOL     OW71363   8.025   5.764  10.232 -0.3879 -0.0767 -1.0006
23119SOL    HW171364   8.082   5.764  10.309 -1.0368 -0.0561 -0.5196
23119SOL    HW271365   7.942   5.730  10.263 -0.6684 -0.0356 -1.6884
23120SOL     OW71366   6.601  10.965   4.099 -0.1323 -0.0173 -1.2716
23120SOL    HW171367   6.592  10.872   4.077  2.3242 -1.2286  1.9312
23120SOL    HW271368   6.672  10.996   4.043 -0.9161 -0.0541 -2.3060
23121SOL     OW71369   7.430  10.032  10.701 -0.7668 -0.0874  0.1363
23121SOL    HW171370   7.465  10.111  10.660 -0.7768  1.4316  2.7827
23121SOL    HW271371   7.505   9.973  10.709  0.2871  1.3804  1.8077
23122SOL     OW71372   5.015   0.813   6.996 -0.1515 -0.7234  0.3296
23122SOL    HW171373   4.980   0.785   7.081  2.1320 -2.3112  0.8442
23122SOL    HW271374   5.000   0.737   6.939 -0.4771 -0.1618 -0.3420
23123SOL     OW71375   5.490  10.455   0.847  0.2998 -0.3753 -0.6946
23123SOL    HW171376   5.470  10.492   0.761 -1.2889 -1.6094 -0.8769
23123SOL    HW271377   5.471  10.526   0.908  2.1909  0.7901 -1.3392
23124SOL     OW71378   9.733   6.447   8.126  0.0514  0.3264 -0.3485
23124SOL    HW171379   9.746   6.449   8.031 -2.3088  1.6479 -0.7227
23124SOL    HW271380   9.686   6.528   8.146  1.3045  0.5407  2.1141
23125SOL     OW71381   5.390   3.319   0.688  0.3678 -0.1514  0.5058
23125SOL    HW171382   5.363   3.390   0.630  0.4937 -0.7927 -0.3610
23125SOL    HW271383   5.322   3.316   0.756 -3.1772 -3.0776 -2.7102
23126SOL     OW71384   9.948   1.817   5.578  0.2745  0.0938  0.1585
23126SOL    HW171385   9.859   1.807   5.611  0.5815 -1.3154  0.6154
23126SOL    HW271386   9.994   1.738   5.606  1.5796  0.6179 -0.3869
23127SOL     OW71387   8.238   7.896   4.110  0.1827 -0.1130 -0.0054
23127SOL    HW171388   8.245   7.849   4.193 -0.5737 -2.6994 -1.2731
23127SOL    HW271389   8.311   7.957   4.111  1.5158 -1.6007  1.6649
23128SOL     OW71390   0.472   5.570   8.734 -0.0199  0.7046  0.5163
23128SOL    HW171391   0.445   5.478   8.736 -1.0609  0.9007 -1.7757
23128SOL    HW271392   0.568   5.567   8.744 -0.2308 -0.3714  3.2355
23129SOL     OW71393   0.069   5.764   6.839 -0.6575  0.1157  0.5759
23129SOL    HW171394   0.164   5.753   6.845 -0.6133 -0.7860 -1.0290
23129SOL    HW271395   0.047   5.827   6.907  1.2830  1.4250  0.0675
23130SOL     OW71396   4.118   5.935   0.706 -0.2286 -0.1520 -0.2563
23130SOL    HW171397   4.165   5.985   0.640 -3.4464  0.2206 -2.5240
23130SOL    HW271398   4.168   5.948   0.786  2.9247  0.8451 -2.1998
23131SOL     OW71399   0.044   9.244   8.874 -0.0953 -0.0920  0.5671
23131SOL    HW171400   0.139   9.257   8.869 -0.2935  1.0957 -1.0476
23131SOL    HW271401   0.007   9.329   8.849 -1.5584 -1.1053 -0.9319
23132SOL     OW71402   8.422   8.807   3.907  0.4199  0.1331 -0.2626
23132SOL    HW171403   8.342   8.756   3.918  0.1391 -0.6494 -4.3184
23132SOL    HW271404   8.492   8.746   3.931 -0.0687  0.1023  1.2069
23133SOL     OW71405   9.640   5.921   2.054 -0.0086  0.3921  0.0162
23133SOL    HW171406   9.580   5.870   2.108 -0.1561  0.3531 -0.1818
23133SOL    HW271407   9.583   5.977   2.002  0.1675  1.0410  0.5110
23134SOL     OW71408  10.170   5.973  10.157 -0.0772 -0.0904 -0.5017
23134SOL    HW171409  10.109   5.961  10.229 -0.2897 -0.0570 -0.6730
23134SOL    HW271410  10.120   5.949  10.079 -0.2226  0.9899 -0.7570
23135SOL     OW71411   1.293   1.810   3.681  0.4679  0.5763 -0.5987
23135SOL    HW171412   1.305   1.736   3.740  1.3437 -0.8677 -2.4587
23135SOL    HW271413   1.381   1.827   3.645 -0.3272 -0.1671 -3.1587
23136SOL     OW71414   5.589   5.385   1.728  0.2307 -0.5710  0.4530
23136SOL    HW171415   5.529   5.336   1.785 -0.3139 -1.3042 -0.7060
23136SOL    HW271416   5.649   5.428   1.788 -1.3490  0.0588  1.6641
23137SOL     OW71417   4.027   2.089   8.579 -0.2129 -0.0109  0.2338
23137SOL    HW171418   4.111   2.072   8.536 -1.1647  0.6492 -1.9875
23137SOL    HW271419   3.967   2.111   8.508 -2.2138 -0.1362  1.7989
23138SOL     OW71420   5.783   9.043   2.519 -0.1972 -0.0553  0.5133
23138SOL    HW171421   5.797   9.131   2.555  3.2632  0.0492 -0.6833
23138SOL    HW271422   5.736   9.057   2.437 -1.9081  0.3630  1.5166
23139SOL     OW71423   8.649   4.547   5.936  0.1811 -0.1249 -0.1071
23139SOL    HW171424   8.689   4.460   5.940 -1.6341 -0.9754  0.6946
23139SOL    HW271425   8.688   4.594   6.011  2.1020  0.2442 -1.2611
23140SOL     OW71426   3.309   4.704   9.772 -0.1407  0.4214 -0.3445
23140SOL    HW171427   3.397   4.738   9.756  0.0891 -0.2046 -0.4235
23140SOL    HW271428   3.257   4.736   9.698 -0.1027  1.2066 -0.0443
23141SOL     OW71429   2.586   5.509   8.683  0.1222 -0.0462 -0.0783
23141SOL    HW171430   2.590   5.596   8.643  0.2383 -0.0630 -0.1043
23141SOL    HW271431   2.533   5.457   8.623  1.2884 -0.4017 -0.8386
23142SOL     OW71432   2.975   3.559   9.703 -0.4770  0.3245  0.1457
23142SOL    HW171433   2.945   3.648   9.686  1.2091  1.1156  1.0308
23142SOL    HW271434   3.025   3.535   9.626 -1.4612 -0.1267 -0.3682
23143SOL     OW71435   7.534   3.321   7.540 -0.0532  0.1242  0.0088
23143SOL    HW171436   7.588   3.247   7.567  1.1308  0.6103 -0.9067
23143SOL    HW271437   7.485   3.345   7.619 -0.3805 -1.5329  0.3514
23144SOL     OW71438   5.490   2.132   3.354 -0.0084  0.2744  0.6078
23144SOL    HW171439   5.460   2.107   3.266  2.7798 -2.2392  0.2109
23144SOL    HW271440   5.495   2.228   3.351 -2.0643  0.4040 -1.1863
23145SOL     OW71441   0.470   4.347  10.366 -0.1120 -0.4433  0.3196
23145SOL    HW171442   0.409   4.407  10.408 -1.4232 -2.2779  1.2042
23145SOL    HW271443   0.546   4.401  10.344 -0.1051  1.0404  3.4334
23146SOL     OW71444   0.894   3.992   4.948  0.1245  0.1376 -0.1403
23146SOL    HW171445   0.990   3.997   4.956  0.1431 -1.2723  0.8411
23146SOL    HW271446   0.868   4.082   4.927  1.7531  0.3155 -1.7030
23147SOL     OW71447   9.049   1.798   6.021  0.0484 -0.3875 -0.0127
23147SOL    HW171448   8.959   1.773   6.040 -0.0746 -0.1290 -0.2546
23147SOL    HW271449   9.089   1.718   5.985  0.0267 -0.6121  0.4568
23148SOL     OW71450   6.245   3.484   2.977  0.5656 -0.0872 -0.5130
23148SOL    HW171451   6.215   3.441   3.057  0.7325 -0.1800 -0.5002
23148SOL    HW271452   6.339   3.470   2.976  0.4462 -0.9351 -1.2344
23149SOL     OW71453   4.547   4.648  10.911 -0.2909 -0.0979  0.2192
23149SOL    HW171454   4.522   4.680  10.824 -1.2911  0.9359  0.8580
23149SOL    HW271455   4.643   4.650  10.910 -0.1862 -2.0709 -1.5403
23150SOL     OW71456   1.744   2.804   6.193 -1.2472 -0.2356  0.2529
23150SOL    HW171457   1.748   2.824   6.100  0.4057  1.2990  0.5951
23150SOL    HW271458   1.811   2.737   6.206  0.3701  1.3576  0.6650
23151SOL     OW71459   8.466   2.976   6.694  0.1991  0.5541 -0.1963
23151SOL    HW171460   8.437   2.974   6.785  0.8985  1.9995  0.0914
23151SOL    HW271461   8.474   2.884   6.669  0.4670  0.1244  1.3596
23152SOL     OW71462   7.778   9.959   7.902 -0.0836 -0.2947  0.9551
23152SOL    HW171463   7.714   9.908   7.951  0.1358 -0.3872  1.1477
23152SOL    HW271464   7.845   9.983   7.966 -0.7848  1.2661  1.1279
23153SOL     OW71465   3.932   6.125   0.305  0.5034  0.0349 -0.1804
23153SOL    HW171466   4.021   6.157   0.289  0.0628  2.6555  1.9138
23153SOL    HW271467   3.876   6.187   0.260 -0.3271 -0.7958 -0.3156
23154SOL     OW71468   9.684   2.534   1.290 -1.0388 -0.1101  0.4959
23154SOL    HW171469   9.612   2.563   1.346  0.5939  0.4133  2.4310
23154SOL    HW271470   9.733   2.471   1.343  1.0774  1.0614  0.0640
23155SOL     OW71471   2.498   1.903   6.429 -0.5865 -0.1380  0.5562
23155SOL    HW171472   2.412   1.905   6.388 -0.6989  0.5458  0.8170
23155SOL    HW271473   2.557   1.940   6.364 -0.5335 -0.3422  0.4865
23156SOL     OW71474   4.793   8.802   2.185 -0.4508 -0.4407 -0.7944
23156SOL    HW171475   4.882   8.788   2.219 -0.0019  2.7188 -0.3282
23156SOL    HW271476   4.806   8.831   2.095 -0.5139  3.7294  0.3256
23157SOL     OW71477  10.775   7.285   1.588  0.1171 -0.3995 -0.4317
23157SOL    HW171478  10.728   7.204   1.606  0.9681 -0.9393 -0.5500
23157SOL    HW271479  10.708   7.353   1.591 -0.3586 -0.8935  1.2266
23158SOL     OW71480   3.228   3.078  11.015  0.1037 -0.5031 -0.5684
23158SOL    HW171481   3.222   3.045  11.105 -2.3224 -1.2194 -0.9025
23158SOL    HW271482   3.309   3.041  10.980  0.2272 -1.5896  0.8058
23159SOL     OW71483   6.192   2.206  10.743 -0.2815  0.1570  0.0547
23159SOL    HW171484   6.156   2.169  10.662  1.3624 -0.3763 -0.4732
23159SOL    HW271485   6.237   2.132  10.784  1.9140  1.2147 -0.3375
23160SOL     OW71486   8.980   1.113   7.011  0.0120  0.2284  0.1359
23160SOL    HW171487   8.983   1.207   6.990  0.4453 -0.2194 -2.1488
23160SOL    HW271488   8.896   1.100   7.054 -0.0925  1.6555  0.4106
23161SOL     OW71489   0.624   7.232   7.633  0.5449 -0.1125 -0.1537
23161SOL    HW171490   0.705   7.185   7.651  1.0887  1.4669  1.8931
23161SOL    HW271491   0.652   7.314   7.592 -0.0826  0.0968 -0.1794
23162SOL     OW71492   0.618   5.552  10.422  0.2692  0.2259 -0.7510
23162SOL    HW171493   0.580   5.602  10.494 -3.3809 -1.2936 -1.3460
23162SOL    HW271494   0.641   5.467  10.461 -1.9473 -0.6917 -1.2349
23163SOL     OW71495   4.874  10.292   1.485  0.4593 -0.2958  0.0284
23163SOL    HW171496   4.875  10.198   1.501  0.4764 -0.8726 -2.7479
23163SOL    HW271497   4.878  10.332   1.572 -3.2090 -2.7816  1.5770
23164SOL     OW71498   5.690   8.546   8.585  0.1536 -0.1899 -0.6807
23164SOL    HW171499   5.678   8.525   8.492  2.4677  1.0382 -1.3463
23164SOL    HW271500   5.760   8.487   8.614  0.0410  0.0239  0.0394
23165SOL     OW71501   2.317   9.737   1.549  0.7334  0.5877 -0.4193
23165SOL    HW171502   2.385   9.793   1.584 -0.7071  1.3937  1.2302
23165SOL    HW271503   2.235   9.778   1.576 -0.4015 -1.7224 -0.0524
23166SOL     OW71504  10.999   4.191   1.409 -0.0102  0.5791 -0.7421
23166SOL    HW171505  11.019   4.285   1.404 -1.6918  0.9603 -1.0781
23166SOL    HW271506  10.997   4.162   1.318 -0.8724  0.5555 -0.7226
23167SOL     OW71507   6.101   2.407   2.442  0.2805 -0.0200 -0.1659
23167SOL    HW171508   6.051   2.353   2.381  1.6806 -1.7081  0.0999
23167SOL    HW271509   6.140   2.475   2.387  2.0931 -1.9245 -1.4000
23168SOL     OW71510  10.156   7.263   9.323 -0.5046 -0.5636 -0.0372
23168SOL    HW171511  10.154   7.349   9.282 -3.8991 -1.4556 -2.0959
23168SOL    HW271512  10.109   7.273   9.405 -2.1246 -0.6623 -0.9204
23169SOL     OW71513   8.611   0.824   2.483  0.6279 -0.1185  0.2220
23169SOL    HW171514   8.667   0.821   2.560  0.2356 -0.5471  0.5014
23169SOL    HW271515   8.546   0.756   2.498  1.5257 -1.3819 -1.2552
23170SOL     OW71516   8.132   1.307   4.526  0.1883 -0.6229  0.0518
23170SOL    HW171517   8.135   1.279   4.434 -1.3276  0.5533 -0.4017
23170SOL    HW271518   8.207   1.366   4.535 -2.5206  3.6727 -2.1048
23171SOL     OW71519  10.543   8.532   6.941  0.1491 -0.2742 -0.7657
23171SOL    HW171520  10.457   8.507   6.974  1.3878 -2.1096  1.3256
23171SOL    HW271521  10.531   8.542   6.847 -2.2028 -1.0333 -0.6016
23172SOL     OW71522   0.621   9.659   0.799 -0.0519 -0.0091  0.3528
23172SOL    HW171523   0.619   9.630   0.890  0.2174 -2.1739 -0.2791
23172SOL    HW271524   0.701   9.619   0.763 -1.4071 -1.2596 -1.4352
23173SOL     OW71525   3.530  10.411   7.647  0.0393 -0.0171 -0.2673
23173SOL    HW171526   3.534  10.497   7.606  1.5035  0.4972  0.8966
23173SOL    HW271527   3.607  10.407   7.703  0.9220 -2.7119 -1.4877
23174SOL     OW71528   0.720   6.338   5.400 -0.4293  0.2540 -0.3012
23174SOL    HW171529   0.669   6.338   5.481  1.3608  0.7839  0.8652
23174SOL    HW271530   0.719   6.429   5.370  1.3442  0.6514  0.7488
23175SOL     OW71531   4.451   2.384   1.269  0.4203  0.0055 -0.4137
23175SOL    HW171532   4.450   2.301   1.223 -0.0535  0.3013 -0.9416
23175SOL    HW271533   4.492   2.364   1.354 -0.1549 -0.8694 -0.3321
23176SOL     OW71534   1.070  10.730   4.625  0.4408  0.2589 -0.3472
23176SOL    HW171535   1.065  10.636   4.605  0.2224  0.1732  0.1029
23176SOL    HW271536   1.097  10.770   4.542 -1.4460  0.0307 -1.1205
23177SOL     OW71537   1.639   9.594   4.486 -0.4084 -0.1781 -0.5517
23177SOL    HW171538   1.585   9.593   4.407 -0.8714  0.1920 -0.2433
23177SOL    HW271539   1.656   9.501   4.505 -0.9275 -0.2937 -0.6508
23178SOL     OW71540   3.631   4.528   8.921 -0.0498 -0.3315 -0.4253
23178SOL    HW171541   3.538   4.530   8.946 -0.1601 -0.3460 -0.8322
23178SOL    HW271542   3.631   4.545   8.827  0.4653  1.2628 -0.1811
23179SOL     OW71543  10.322   6.054   2.264 -1.0865  0.4414  0.1063
23179SOL    HW171544  10.320   5.974   2.212  0.3733  0.6751 -0.3656
23179SOL    HW271545  10.232   6.086   2.263 -1.7504 -1.3032  0.5096
23180SOL     OW71546   5.631   7.907   1.793 -0.2455 -0.1963  0.1969
23180SOL    HW171547   5.694   7.910   1.720 -1.3970  1.2388 -0.7958
23180SOL    HW271548   5.633   7.816   1.823  3.8861  0.1539  1.6810
23181SOL     OW71549   2.893   8.970   3.550  0.5662  0.1288  0.2306
23181SOL    HW171550   2.902   8.905   3.620  1.2592 -0.4268 -0.3579
23181SOL    HW271551   2.800   8.991   3.548 -0.0489 -2.3249 -0.8485
23182SOL     OW71552   3.805   6.007   5.996  0.3605  0.0334  0.0612
23182SOL    HW171553   3.758   6.010   5.913  1.2694  1.0391 -0.4493
23182SOL    HW271554   3.773   5.928   6.039  1.3369 -1.6676 -2.1365
23183SOL     OW71555   6.079   1.134   5.976  0.2383 -0.0380 -0.1072
23183SOL    HW171556   6.116   1.134   5.887  1.1186  0.9110  0.2485
23183SOL    HW271557   5.985   1.147   5.962  0.1513 -1.3019 -0.9588
23184SOL     OW71558   7.484   8.878   8.225 -0.6013 -0.1607 -0.4148
23184SOL    HW171559   7.442   8.808   8.175 -2.6446 -0.5895  1.7343
23184SOL    HW271560   7.517   8.835   8.304 -3.0140  1.3664  1.5651
23185SOL     OW71561   0.557   6.020   3.806 -0.8448 -0.8206  0.0260
23185SOL    HW171562   0.508   6.023   3.724 -1.3859 -1.2081  0.3223
23185SOL    HW271563   0.642   6.058   3.786 -0.7849 -1.3888 -0.8427
23186SOL     OW71564   8.662   3.689   6.860 -0.0225 -0.3628 -0.2476
23186SOL    HW171565   8.742   3.637   6.848  0.3675  0.2222 -0.1977
23186SOL    HW271566   8.597   3.625   6.890  0.7109 -0.6685  0.7725
23187SOL     OW71567   1.787   3.570   0.381  0.0651 -0.4675  0.1741
23187SOL    HW171568   1.703   3.599   0.346  0.5503 -0.6601 -1.2099
23187SOL    HW271569   1.821   3.645   0.428  0.3167  0.5444 -1.5339
23188SOL     OW71570   0.423   3.189   3.912  0.3545 -0.4139  0.7852
23188SOL    HW171571   0.379   3.246   3.975 -3.4446 -0.6342 -1.3311
23188SOL    HW271572   0.380   3.208   3.829  2.8483 -2.4411 -1.1314
23189SOL     OW71573   4.240   5.687   4.921 -0.3833  0.5627 -0.5417
23189SOL    HW171574   4.161   5.741   4.922  0.0953  1.2724 -0.3895
23189SOL    HW271575   4.239   5.643   5.007 -1.8373 -1.2846 -1.4301
23190SOL     OW71576   3.010   0.336   0.199  0.7124  0.0533  0.2829
23190SOL    HW171577   3.081   0.276   0.181 -0.0546 -0.8259  0.1280
23190SOL    HW271578   2.975   0.360   0.113 -1.9670 -2.9664  0.3215
23191SOL     OW71579   6.843   3.069   1.792  0.6452 -0.0074 -0.9697
23191SOL    HW171580   6.821   3.146   1.844 -0.7423 -0.6914 -0.5015
23191SOL    HW271581   6.938   3.059   1.804  0.5138  0.4003  0.6848
23192SOL     OW71582   2.978   6.375   0.544 -0.2887  0.5873 -0.2590
23192SOL    HW171583   2.882   6.384   0.549 -0.4696 -0.7618 -0.8149
23192SOL    HW271584   3.006   6.448   0.489 -1.0377  0.8349 -0.3265
23193SOL     OW71585   4.627   1.520  10.790  0.3000 -0.1693  0.3076
23193SOL    HW171586   4.587   1.601  10.758 -1.1425 -0.2655  1.7136
23193SOL    HW271587   4.564   1.486  10.855  1.4064 -1.8106  0.5921
23194SOL     OW71588   1.623   3.723   3.839 -1.0906  0.3785  0.3546
23194SOL    HW171589   1.586   3.664   3.904 -0.8099 -0.0542  0.1292
23194SOL    HW271590   1.717   3.727   3.859 -1.3584  2.2267  1.5194
23195SOL     OW71591   9.255   3.600   7.117 -0.1455  0.3401  0.2111
23195SOL    HW171592   9.254   3.506   7.099 -0.5065  0.6815 -1.9042
23195SOL    HW271593   9.174   3.617   7.164  0.6957 -0.6098  2.1115
23196SOL     OW71594   3.843   1.671  10.235  0.5677  0.1085  0.2410
23196SOL    HW171595   3.799   1.599  10.190  0.2151  0.8706 -0.6622
23196SOL    HW271596   3.790   1.686  10.313  0.3778 -0.3046  0.1946
23197SOL     OW71597   6.223   0.274   0.858 -0.5585 -0.7938 -0.6897
23197SOL    HW171598   6.232   0.189   0.816 -1.7233 -1.7982  0.9934
23197SOL    HW271599   6.138   0.307   0.829  0.1854  0.1518 -1.8861
23198SOL     OW71600   6.787   6.816   1.123  0.3162  0.1149 -0.3338
23198SOL    HW171601   6.852   6.824   1.193  0.5432  0.0029 -0.5276
23198SOL    HW271602   6.703   6.807   1.168  0.4465  0.1675 -0.0790
23199SOL     OW71603   5.467  10.920   0.555  0.1554 -0.8260  0.5272
23199SOL    HW171604   5.382  10.908   0.596 -0.4921 -1.5173 -0.9524
23199SOL    HW271605   5.496  11.006   0.584 -2.1389  0.4887 -0.7637
23200SOL     OW71606   4.051   5.850   5.620  0.5532 -0.2873 -0.5818
23200SOL    HW171607   4.039   5.758   5.644 -1.1218  0.3910  1.4127
23200SOL    HW271608   4.048   5.850   5.524 -2.0559 -2.0279 -0.5875
23201SOL     OW71609   0.361  10.954   3.985 -0.2613 -0.0514 -0.1942
23201SOL    HW171610   0.425  10.939   3.916 -0.8103  0.2126 -0.7707
23201SOL    HW271611   0.323  10.867   4.002 -0.1366 -0.1134 -0.2355
23202SOL     OW71612   3.146   5.915   2.420  0.6413  0.0687 -0.2238
23202SOL    HW171613   3.061   5.935   2.381  0.5694  0.0407 -0.0846
23202SOL    HW271614   3.126   5.900   2.513  0.6560 -0.8480 -0.3544
23203SOL     OW71615   4.255   3.895   2.533  0.1619  0.4575  0.0326
23203SOL    HW171616   4.299   3.823   2.488  2.3414  0.7402  1.5449
23203SOL    HW271617   4.247   3.964   2.468  1.4680  0.1742 -0.4502
23204SOL     OW71618   5.821   1.279   1.799  0.4711  0.4503 -0.4027
23204SOL    HW171619   5.741   1.320   1.832  0.5313  0.5169 -0.3395
23204SOL    HW271620   5.795   1.240   1.715  0.0512 -0.6148  0.1986
23205SOL     OW71621   1.534   6.817   2.577  0.2865  0.2887  0.2515
23205SOL    HW171622   1.468   6.811   2.508  0.3814 -0.7658  0.2286
23205SOL    HW271623   1.514   6.744   2.636  0.5132  0.8783  1.0734
23206SOL     OW71624   8.250   6.139   6.628 -0.2602  0.2427  0.2012
23206SOL    HW171625   8.246   6.142   6.532 -0.3537  1.5287  0.2264
23206SOL    HW271626   8.158   6.129   6.655 -0.1210 -1.4811  0.1534
23207SOL     OW71627   3.947   4.389   9.411 -0.1755  0.5845 -0.1941
23207SOL    HW171628   3.964   4.457   9.476  2.1826 -1.2160  1.2585
23207SOL    HW271629   3.866   4.348   9.440 -1.1485  2.1256 -0.5903
23208SOL     OW71630   7.468   0.598   4.844 -0.1790  0.3254  0.4900
23208SOL    HW171631   7.492   0.681   4.884  1.5676  0.1894 -0.1868
23208SOL    HW271632   7.529   0.588   4.771  0.5347 -2.1418  1.3258
23209SOL     OW71633   5.130   6.681   0.824  0.1376 -0.3527 -0.2339
23209SOL    HW171634   5.121   6.586   0.826  0.5675 -0.3972  1.6731
23209SOL    HW271635   5.058   6.713   0.877  2.0939  0.1016  2.3836
23210SOL     OW71636   5.087   4.240   8.266  0.0107  0.2237  0.4567
23210SOL    HW171637   5.028   4.205   8.333 -0.3139  0.8977  0.5327
23210SOL    HW271638   5.151   4.292   8.314 -0.3561  0.8933  0.2422
23211SOL     OW71639   3.169   2.115   3.869 -0.0278  0.5910 -0.2048
23211SOL    HW171640   3.205   2.055   3.804 -0.6059  0.3429 -0.2964
23211SOL    HW271641   3.157   2.062   3.947  0.5018  0.8485  0.0539
23212SOL     OW71642   5.105   2.703   2.999 -0.5210  0.7081 -0.1512
23212SOL    HW171643   5.064   2.687   2.914  2.7603  2.7898 -2.3455
23212SOL    HW271644   5.058   2.777   3.036 -2.0405 -0.2800 -0.0388
23213SOL     OW71645   6.066   0.917   7.450  0.5317 -0.6214 -0.5659
23213SOL    HW171646   6.008   0.927   7.374 -0.4414  0.8703  0.3389
23213SOL    HW271647   6.151   0.948   7.419  0.4933 -1.3625 -1.4497
23214SOL     OW71648   0.132   4.928   9.794  0.2859  0.6320  0.4368
23214SOL    HW171649   0.087   4.934   9.710  1.4487 -1.9152 -0.4967
23214SOL    HW271650   0.225   4.923   9.771  0.7430  1.2247  1.9946
23215SOL     OW71651   0.703   7.996   2.850  0.2086  0.3748  0.1571
23215SOL    HW171652   0.757   8.057   2.800  0.4369  0.3916  0.4149
23215SOL    HW271653   0.766   7.934   2.886  0.0445  0.3457  0.3957
23216SOL     OW71654   7.064   1.622   2.105  0.6865  0.0333 -0.4437
23216SOL    HW171655   7.019   1.701   2.074 -1.6585 -0.4794  1.3887
23216SOL    HW271656   7.100   1.647   2.190 -0.2427 -0.8952  0.2362
23217SOL     OW71657   5.012   5.078   0.932 -0.0515  0.8160 -0.5660
23217SOL    HW171658   5.106   5.084   0.915  0.2800 -0.5029  0.6014
23217SOL    HW271659   5.006   5.039   1.020 -1.6867  0.9412 -0.5943
23218SOL     OW71660   9.043  10.393   2.396 -0.0558 -0.4431  0.3518
23218SOL    HW171661   8.999  10.457   2.339 -0.8687 -0.3535  1.0683
23218SOL    HW271662   9.059  10.440   2.478  0.1885 -0.8831  0.5634
23219SOL     OW71663   4.847   9.410   9.262  0.2006  0.2493  0.1483
23219SOL    HW171664   4.794   9.386   9.338  1.8370 -0.6745  1.0679
23219SOL    HW271665   4.923   9.455   9.300  2.0277 -1.9034 -0.6744
23220SOL     OW71666   7.826  10.633   7.872 -0.5427  0.1966 -0.4388
23220SOL    HW171667   7.894  10.618   7.806 -0.1080  0.8811 -0.1555
23220SOL    HW271668   7.873  10.633   7.955 -0.4818  2.8906 -0.3766
23221SOL     OW71669   8.358  10.595   8.191 -0.0709  0.9196 -0.0967
23221SOL    HW171670   8.324  10.517   8.147  1.6202  0.3342 -0.4259
23221SOL    HW271671   8.385  10.564   8.277  2.1472  0.6983 -0.7993
23222SOL     OW71672   5.165   0.389   0.733 -0.1446  0.1424 -0.4134
23222SOL    HW171673   5.107   0.464   0.730  0.2381  0.4237 -0.9332
23222SOL    HW271674   5.108   0.313   0.721 -0.4000  0.4226 -1.0012
23223SOL     OW71675   8.376   9.886   5.070  0.4054  0.0631  0.3155
23223SOL    HW171676   8.368   9.896   5.165  1.9088  1.7994  0.3126
23223SOL    HW271677   8.450   9.826   5.060 -1.0905 -1.8623  0.2017
23224SOL     OW71678  10.588   8.428   2.603  0.8049 -0.2453 -0.4355
23224SOL    HW171679  10.497   8.445   2.575  0.7106  1.2147  0.6340
23224SOL    HW271680  10.641   8.478   2.540  0.7007  1.1775  0.5575
23225SOL     OW71681   5.048   2.197   3.233 -0.5275  0.1369 -0.7047
23225SOL    HW171682   5.127   2.168   3.187  1.9316 -1.9252  4.1004
23225SOL    HW271683   5.077   2.272   3.285 -1.6280 -0.7142  1.2394
23226SOL     OW71684  10.855   8.785   1.921  0.4988 -0.3898 -0.2420
23226SOL    HW171685  10.837   8.780   2.015  0.8731 -0.3304 -0.1649
23226SOL    HW271686  10.891   8.699   1.899 -3.2043 -1.9288 -1.1439
23227SOL     OW71687   6.321   6.448  10.893  0.0788 -0.0523 -0.1105
23227SOL    HW171688   6.226   6.451  10.905  0.1288  2.6708  0.2799
23227SOL    HW271689   6.335   6.475  10.802  0.4933  1.0621  0.2626
23228SOL     OW71690   9.165   6.070   7.529  0.1343  0.7367 -0.6153
23228SOL    HW171691   9.076   6.082   7.494 -0.6177  0.2791  1.0408
23228SOL    HW271692   9.185   5.978   7.511 -0.3030  0.4679  0.2256
23229SOL     OW71693   8.861   9.163   5.665 -0.8707 -0.0144 -0.4240
23229SOL    HW171694   8.819   9.223   5.604 -1.2887 -0.2380 -0.3585
23229SOL    HW271695   8.839   9.076   5.632 -0.1060 -0.1421 -0.6347
23230SOL     OW71696   1.136   2.551   8.436 -0.1090  0.4990  0.0671
23230SOL    HW171697   1.055   2.534   8.389 -0.3950  0.0834  0.6960
23230SOL    HW271698   1.195   2.588   8.370 -0.6871  0.4673 -0.4755
23231SOL     OW71699   0.033   3.078   4.553  0.1068 -0.3798 -0.0414
23231SOL    HW171700   0.078   3.122   4.625  3.2878 -1.4523 -1.1828
23231SOL    HW271701  -0.043   3.037   4.594  1.3166 -0.2526  2.5593
23232SOL     OW71702   5.372   3.480   8.701  0.8920  0.1236  0.1124
23232SOL    HW171703   5.296   3.427   8.727  0.6942 -0.0773 -0.8198
23232SOL    HW271704   5.402   3.439   8.619  0.4290  1.7403 -0.9030
23233SOL     OW71705   2.265   3.869   4.470  0.5270  0.5509  0.3160
23233SOL    HW171706   2.291   3.800   4.410  2.7229  1.0615  0.5933
23233SOL    HW271707   2.260   3.948   4.416  0.3157  0.5966  0.4016
23234SOL     OW71708   7.191   1.989   2.903  0.1100 -0.8547 -0.4429
23234SOL    HW171709   7.205   1.895   2.914  1.9374 -0.4597  1.2419
23234SOL    HW271710   7.107   1.996   2.859  0.1348 -3.2826 -1.0152
23235SOL     OW71711   4.893   6.498   1.503  0.2387 -0.1451  0.0105
23235SOL    HW171712   4.870   6.414   1.541 -1.4872 -0.8913 -2.4580
23235SOL    HW271713   4.818   6.522   1.449  1.7207  1.7388 -1.3583
23236SOL     OW71714   0.964   1.559   1.704  0.3442 -0.2099 -0.5441
23236SOL    HW171715   1.012   1.505   1.641  2.7964  3.1202 -1.8635
23236SOL    HW271716   1.016   1.557   1.783  1.3394  1.3201 -1.1130
23237SOL     OW71717   3.832   8.261   1.275  1.1433  0.2207  0.1119
23237SOL    HW171718   3.777   8.252   1.353  1.6445  2.3922  0.8039
23237SOL    HW271719   3.797   8.339   1.230  0.1516 -1.5848 -2.5079
23238SOL     OW71720   4.310  10.373   3.558 -0.8428  0.3525 -0.1528
23238SOL    HW171721   4.223  10.374   3.517 -0.0114 -1.4512 -2.1609
23238SOL    HW271722   4.292  10.386   3.651 -3.1288  1.4175 -0.6673
23239SOL     OW71723   8.592   8.178  10.073  0.0737  0.1560 -0.2410
23239SOL    HW171724   8.572   8.267  10.044 -1.1110 -0.0196 -0.0213
23239SOL    HW271725   8.520   8.125  10.039  0.5068 -0.6389  0.0532
23240SOL     OW71726   2.733   6.242   0.330  0.1063 -0.3264  0.0730
23240SOL    HW171727   2.697   6.160   0.363  0.9968 -0.7403  0.0325
23240SOL    HW271728   2.816   6.218   0.291  0.4830  0.6319  0.2596
23241SOL     OW71729   1.668   5.922   1.010  0.4901  0.0499  0.3757
23241SOL    HW171730   1.580   5.885   1.001  0.3417  0.8065 -2.0946
23241SOL    HW271731   1.653   6.014   1.031  0.7030  0.1585  0.0476
23242SOL     OW71732   6.582   4.484   1.725 -0.2257  0.1650 -0.9253
23242SOL    HW171733   6.541   4.410   1.769 -0.1992 -0.1004 -1.3424
23242SOL    HW271734   6.670   4.453   1.705 -0.4711  0.0246 -1.8105
23243SOL     OW71735  10.442   4.472   4.686  0.1548 -0.0684 -0.0623
23243SOL    HW171736  10.359   4.504   4.721  0.2392  1.5825 -1.2925
23243SOL    HW271737  10.447   4.507   4.598  0.8201 -2.5914 -1.1347
23244SOL     OW71738   6.380   8.834  10.104  0.0391  0.1872 -0.1424
23244SOL    HW171739   6.338   8.885  10.035 -1.4995  0.7687  1.1756
23244SOL    HW271740   6.468   8.870  10.110 -0.0147  0.5562 -1.3634
23245SOL     OW71741   0.194   5.654   7.368  0.3845  0.4352 -0.0371
23245SOL    HW171742   0.209   5.745   7.395 -0.0508  0.3561  0.4705
23245SOL    HW271743   0.263   5.604   7.412 -0.5695  0.2484  1.2875
23246SOL     OW71744   8.732   9.889   2.211 -0.1047 -0.4435 -0.2478
23246SOL    HW171745   8.795   9.818   2.223  0.3386 -0.0736 -0.3716
23246SOL    HW271746   8.769   9.962   2.261 -0.9303 -0.5157  0.4967
23247SOL     OW71747  10.335   1.477   5.450  0.0100 -0.3780 -0.0022
23247SOL    HW171748  10.364   1.492   5.360  0.4768  0.1823  0.2343
23247SOL    HW271749  10.240   1.491   5.446  0.1872  0.9556 -0.1621
23248SOL     OW71750  10.453   9.024  11.036  0.1186 -0.4054 -0.5636
23248SOL    HW171751  10.455   8.931  11.060  0.2489 -0.2244  0.1553
23248SOL    HW271752  10.544   9.051  11.037  0.0603 -0.2097 -0.4994
23249SOL     OW71753   9.534   3.989   0.418 -0.3135  0.0314 -0.1769
23249SOL    HW171754   9.442   4.013   0.404  0.0649  0.8392 -1.5555
23249SOL    HW271755   9.566   4.052   0.483 -1.1182 -1.2791  1.5574
23250SOL     OW71756   5.857   1.159   1.216 -0.0294 -0.7072  0.5088
23250SOL    HW171757   5.817   1.140   1.301 -0.5622 -0.5233  0.3054
23250SOL    HW271758   5.782   1.165   1.156  0.1549  1.4338  0.4488
23251SOL     OW71759   7.357   2.776  10.836  0.0298 -0.6703  0.3448
23251SOL    HW171760   7.412   2.779  10.758 -2.2296  1.0222 -1.3310
23251SOL    HW271761   7.360   2.865  10.871  0.8284 -1.3516  2.1390
23252SOL     OW71762   2.714   0.310   0.237 -0.0275  0.7065 -0.0803
23252SOL    HW171763   2.805   0.340   0.244 -0.5374  2.2446  0.2224
23252SOL    HW271764   2.707   0.239   0.300  1.2618 -0.2313 -0.9383
23253SOL     OW71765   7.311   2.517   4.472 -0.0934 -0.0799 -0.5954
23253SOL    HW171766   7.269   2.494   4.554 -1.0290  0.8763 -0.7861
23253SOL    HW271767   7.400   2.484   4.481 -0.1634  0.0413  0.8198
23254SOL     OW71768   9.965   2.717   9.474  0.1428  0.2172  0.0044
23254SOL    HW171769   9.958   2.803   9.515 -1.2026  0.8977 -1.5275
23254SOL    HW271770  10.038   2.725   9.413  0.8229 -0.1509  0.7499
23255SOL     OW71771  10.481   5.552   0.436 -0.3065  0.6065 -0.3424
23255SOL    HW171772  10.448   5.572   0.524  0.9375 -2.2560  0.9091
23255SOL    HW271773  10.565   5.509   0.451 -0.5158 -0.9006 -2.8871
23256SOL     OW71774   5.011   0.987   1.751  0.1511 -0.2658 -0.5081
23256SOL    HW171775   5.022   1.056   1.816  0.6343 -0.3518 -0.4981
23256SOL    HW271776   4.929   0.943   1.776  0.4841 -0.4806  0.2111
23257SOL     OW71777   4.692   7.770   3.934  0.0141 -0.4244 -0.1511
23257SOL    HW171778   4.678   7.698   3.996  3.3300  0.0322  1.3414
23257SOL    HW271779   4.723   7.726   3.854 -0.6760 -0.7891 -0.2290
23258SOL     OW71780   4.122   5.978   8.950  0.6630  0.4296 -0.3680
23258SOL    HW171781   4.138   6.069   8.924  1.7172  0.7713  1.3006
23258SOL    HW271782   4.202   5.952   8.996  0.4290 -1.3968 -0.9220
23259SOL     OW71783   3.095   6.257   4.516 -0.0559 -0.3070 -0.6031
23259SOL    HW171784   3.101   6.202   4.595 -0.7303 -0.1039 -0.4029
23259SOL    HW271785   3.102   6.194   4.444  0.5461 -0.4980 -0.3890
23260SOL     OW71786  10.687   0.456   7.137 -0.6796  0.1868 -1.0815
23260SOL    HW171787  10.623   0.404   7.090  0.2323 -1.8230 -0.2042
23260SOL    HW271788  10.705   0.406   7.217  0.6814  1.5569 -0.4731
23261SOL     OW71789   5.712   9.051  10.739  0.0341 -0.0439 -0.1761
23261SOL    HW171790   5.779   9.065  10.672  0.7789 -1.3771  0.2526
23261SOL    HW271791   5.689   8.958  10.732  0.4389 -0.3267  1.6829
23262SOL     OW71792   9.334   7.605   0.301  0.0294 -0.1592 -0.3706
23262SOL    HW171793   9.287   7.522   0.313  0.2743 -0.0703  1.6527
23262SOL    HW271794   9.345   7.613   0.207  0.5893 -2.7674 -0.6167
23263SOL     OW71795   7.428   5.792   1.880  0.1307 -0.5442  0.3663
23263SOL    HW171796   7.361   5.847   1.922  0.0083 -0.3927 -0.0282
23263SOL    HW271797   7.409   5.704   1.913  0.0198 -0.4300  0.6143
23264SOL     OW71798   5.629  10.553   3.001 -0.3950 -0.0949 -0.4012
23264SOL    HW171799   5.645  10.492   2.929 -2.0546 -2.4909  1.0743
23264SOL    HW271800   5.583  10.627   2.962  1.0212 -0.0906 -2.1604
23265SOL     OW71801  10.361  10.134   5.196  0.0759 -0.3493 -0.8131
23265SOL    HW171802  10.274  10.157   5.161 -0.1181 -0.4566 -0.4016
23265SOL    HW271803  10.422  10.183   5.141 -0.3045  0.7033 -0.3120
23266SOL     OW71804   7.763   4.444   6.892 -0.0783 -0.0712 -0.2717
23266SOL    HW171805   7.784   4.418   6.802  0.0100  1.2554 -0.6469
23266SOL    HW271806   7.839   4.493   6.922 -1.3731  2.3675 -0.6788
23267SOL     OW71807   3.648   0.244   0.862  0.0882  0.0907 -0.1904
23267SOL    HW171808   3.620   0.272   0.949  1.5731  0.8977  0.0621
23267SOL    HW271809   3.570   0.253   0.807 -0.4542  1.1045  0.7168
23268SOL     OW71810   2.220   8.262   7.691 -0.5002  0.0843  0.4872
23268SOL    HW171811   2.303   8.290   7.729 -1.1937  1.1223  1.2960
23268SOL    HW271812   2.154   8.309   7.742 -1.5253  0.3988 -1.0805
23269SOL     OW71813   9.955   5.666   6.637 -0.1248 -0.5258  0.3789
23269SOL    HW171814   9.978   5.702   6.551  0.7274 -1.3307  0.2561
23269SOL    HW271815  10.020   5.703   6.697 -0.1249 -0.7279  0.5058
23270SOL     OW71816   1.284   4.755   5.830 -0.5218  0.5650 -0.1613
23270SOL    HW171817   1.214   4.790   5.774  0.0580  1.6677 -0.2236
23270SOL    HW271818   1.252   4.669   5.857 -0.5682 -0.3274 -2.6997
23271SOL     OW71819   1.647   5.370   2.970 -0.2787 -0.3851 -0.1357
23271SOL    HW171820   1.741   5.384   2.983 -0.3211 -0.7676  0.6811
23271SOL    HW271821   1.620   5.441   2.912  0.4303  0.0037 -0.0064
23272SOL     OW71822   3.913   9.302   7.355 -0.5654  0.4347 -0.4655
23272SOL    HW171823   3.956   9.273   7.436 -1.0509 -2.3735 -1.0858
23272SOL    HW271824   3.828   9.335   7.385  0.0502  1.3925  0.3103
23273SOL     OW71825   6.526   3.873  10.656 -0.2513  0.3064  0.4429
23273SOL    HW171826   6.498   3.912  10.573 -1.4992 -0.5126  0.4673
23273SOL    HW271827   6.449   3.878  10.713 -0.7701 -2.9434  0.1731
23274SOL     OW71828   7.034   6.680   0.417 -0.1383 -0.1769 -0.4753
23274SOL    HW171829   6.949   6.724   0.422 -0.9066 -1.1078 -3.3285
23274SOL    HW271830   7.013   6.588   0.434  0.2582 -0.4210 -1.2714
23275SOL     OW71831   4.154   6.135  10.944 -0.2381 -0.3302  0.3608
23275SOL    HW171832   4.211   6.060  10.962  1.9436  0.5067 -2.3093
23275SOL    HW271833   4.144   6.179  11.028  2.1872 -1.1538  1.1568
23276SOL     OW71834   8.157   0.937   2.421  0.1755 -0.2291  0.3070
23276SOL    HW171835   8.096   0.901   2.356 -0.3650 -1.6663  1.5485
23276SOL    HW271836   8.103   0.992   2.477  0.0374 -1.2522  1.2181
23277SOL     OW71837   9.920   2.418   2.299  0.1478 -0.3401  0.4155
23277SOL    HW171838   9.833   2.446   2.274  1.3365  1.7383 -1.7345
23277SOL    HW271839   9.975   2.495   2.288  2.3085 -1.5799  1.6634
23278SOL     OW71840   2.363   7.562   0.612  0.0287  0.4262  0.0030
23278SOL    HW171841   2.390   7.473   0.588  0.1334  0.3964  0.2186
23278SOL    HW271842   2.416   7.582   0.690 -1.5620 -0.1590  1.2833
23279SOL     OW71843   6.953   4.544   4.071 -0.6125 -0.0318 -0.2056
23279SOL    HW171844   6.960   4.637   4.051  1.4165 -0.0696  0.1425
23279SOL    HW271845   6.863   4.532   4.099 -0.7688  1.9267  0.2496
23280SOL     OW71846   4.845   7.895  10.043 -0.3113 -0.1720  0.2176
23280SOL    HW171847   4.816   7.984  10.022 -2.6642 -1.1162 -0.8054
23280SOL    HW271848   4.796   7.872  10.122  0.2412 -0.5920  0.4452
23281SOL     OW71849   0.719   4.719   6.797  0.2805 -0.7565 -0.2166
23281SOL    HW171850   0.729   4.650   6.863 -0.9980 -2.1698 -1.4385
23281SOL    HW271851   0.625   4.727   6.785  0.3724  1.5566  0.1885
23282SOL     OW71852   4.021   8.503   4.136  0.3612  0.2392  0.1925
23282SOL    HW171853   3.957   8.433   4.139  1.4617 -0.9425 -1.8331
23282SOL    HW271854   4.096   8.466   4.089  1.4227  2.4232  0.0094
23283SOL     OW71855   6.465   9.923   9.578 -0.2773 -0.5338 -0.1782
23283SOL    HW171856   6.517   9.983   9.525 -2.3902  0.1477 -1.5980
23283SOL    HW271857   6.411   9.981   9.633  0.9261 -1.2203  1.8338
23284SOL     OW71858  10.990   8.199   9.080  0.7936  0.6029 -0.5248
23284SOL    HW171859  11.038   8.120   9.105  2.4502  1.5439 -0.6094
23284SOL    HW271860  10.898   8.177   9.096  1.3565 -0.7272  1.1613
23285SOL     OW71861   3.693   3.015   5.402  0.0007 -0.0437 -0.8204
23285SOL    HW171862   3.601   3.010   5.373 -0.2445 -3.2530  0.1347
23285SOL    HW271863   3.688   3.046   5.492  0.2337  2.9584 -1.7091
23286SOL     OW71864   3.556   1.270   6.086  0.1610 -0.3995  0.1277
23286SOL    HW171865   3.491   1.231   6.145  0.3376 -1.3267 -0.2609
23286SOL    HW271866   3.562   1.361   6.113  0.3685 -0.8440  1.6641
23287SOL     OW71867   4.266   1.629   7.646 -0.0801 -0.1118 -0.7838
23287SOL    HW171868   4.181   1.593   7.670 -1.4777  3.1009 -0.4339
23287SOL    HW271869   4.306   1.656   7.729 -0.4957  1.8599 -1.1552
23288SOL     OW71870   7.860   4.271  10.546 -0.2540  1.1383  0.2738
23288SOL    HW171871   7.803   4.257  10.470  1.4959  0.5245 -1.0027
23288SOL    HW271872   7.810   4.236  10.620 -1.2619  0.0171 -0.8784
23289SOL     OW71873   7.565   0.236  10.111  0.0011 -0.2632  0.5409
23289SOL    HW171874   7.509   0.313  10.098  1.3012  0.3645 -2.0526
23289SOL    HW271875   7.650   0.272  10.137  1.3853 -0.4294 -3.1383
23290SOL     OW71876   0.029   0.950   9.884 -0.1124 -0.1722 -0.1328
23290SOL    HW171877  -0.028   0.920   9.813 -0.1124  2.2788 -1.2665
23290SOL    HW271878   0.024   0.880   9.949  0.9662 -3.2204 -3.0365
23291SOL     OW71879   8.997   9.822   8.252  0.3673 -0.5541 -0.4687
23291SOL    HW171880   8.981   9.731   8.278 -0.6258 -0.5589 -1.0436
23291SOL    HW271881   9.038   9.862   8.329  0.4195 -1.3803 -0.0573
23292SOL     OW71882   6.996   1.054   8.173 -0.0858 -0.8590  0.0441
23292SOL    HW171883   7.041   1.127   8.131  0.0963 -1.5273 -0.9570
23292SOL    HW271884   6.908   1.087   8.191  0.7197  0.4508  1.9826
23293SOL     OW71885   0.587   8.557   1.107 -0.2991  0.5476  0.2506
23293SOL    HW171886   0.507   8.517   1.073 -0.5151  1.3891 -0.2435
23293SOL    HW271887   0.651   8.544   1.037 -0.1042  0.2362  0.4805
23294SOL     OW71888   0.391  10.262   0.024 -0.1395  0.2280 -0.0832
23294SOL    HW171889   0.331  10.240   0.094  0.0548  0.1686  0.0637
23294SOL    HW271890   0.334  10.294  -0.047 -0.4134 -0.6528 -0.2681
23295SOL     OW71891   8.048   3.654  10.176 -0.4327  0.3383 -0.2114
23295SOL    HW171892   7.985   3.634  10.107 -0.9103 -0.2833  0.3975
23295SOL    HW271893   7.996   3.654  10.257 -0.5350  4.0606 -0.1005
23296SOL     OW71894   6.624   4.695   1.171  0.7511  0.1751 -0.1427
23296SOL    HW171895   6.632   4.751   1.248  0.6790  0.9286 -0.6643
23296SOL    HW271896   6.612   4.756   1.098 -5.9487 -0.3601 -0.1125
23297SOL     OW71897   3.288   3.440   3.390  0.2533 -0.3240  0.2677
23297SOL    HW171898   3.286   3.531   3.420 -1.4330 -1.1865  3.1885
23297SOL    HW271899   3.228   3.437   3.316 -0.2613  0.7983  0.6215
23298SOL     OW71900  10.015   8.755   9.967  0.1171 -0.0519 -0.2625
23298SOL    HW171901  10.089   8.736  10.026  0.3099  2.9396  0.6000
23298SOL    HW271902   9.938   8.723  10.014  0.4720  0.5953  0.7884
23299SOL     OW71903   5.875   4.028   1.170 -0.8480  0.1383  0.9032
23299SOL    HW171904   5.845   4.004   1.082  0.8473 -0.2499  0.4088
23299SOL    HW271905   5.814   4.097   1.197 -1.0075  0.7407 -0.8433
23300SOL     OW71906   5.970  10.657   1.353 -0.4093  0.1553 -0.6822
23300SOL    HW171907   6.045  10.711   1.376  1.7969 -2.2189 -1.7335
23300SOL    HW271908   5.976  10.648   1.258  0.8764 -3.7839 -0.3982
23301SOL     OW71909   5.596   2.823   4.994  0.6295  0.3037  0.8640
23301SOL    HW171910   5.640   2.807   4.910 -1.9684 -0.3934 -0.4880
23301SOL    HW271911   5.584   2.918   4.996 -0.3252  0.2330 -0.1815
23302SOL     OW71912   2.904   1.798   5.567 -0.2148 -0.5412 -0.0546
23302SOL    HW171913   2.887   1.704   5.558 -1.5117 -0.3832  0.5969
23302SOL    HW271914   2.926   1.809   5.659  1.1122 -0.3655 -0.3766
23303SOL     OW71915   5.500   2.094   0.779 -0.5613  0.7466 -0.0951
23303SOL    HW171916   5.453   2.177   0.790 -1.8180  0.2643 -1.4738
23303SOL    HW271917   5.516   2.088   0.685  3.5114  1.4773  0.3553
23304SOL     OW71918   9.093   4.734   2.086 -0.7836  0.7277 -0.5809
23304SOL    HW171919   9.095   4.826   2.058 -2.0213  0.4089 -1.8284
23304SOL    HW271920   9.061   4.736   2.176  1.0776  1.6237  0.1291
23305SOL     OW71921  10.237   3.541   9.029 -0.1866  0.2101  0.0096
23305SOL    HW171922  10.170   3.477   9.009 -2.0311  1.7650  0.8860
23305SOL    HW271923  10.203   3.624   8.996  0.2251  1.4483  2.3895
23306SOL     OW71924   3.980   8.763   6.564 -0.0284 -0.1218 -0.0790
23306SOL    HW171925   3.949   8.743   6.652 -1.5704 -0.4366 -0.6663
23306SOL    HW271926   4.075   8.773   6.574 -0.1396 -0.4052  1.5572
23307SOL     OW71927   4.042   0.058   9.794  0.0669 -0.2773  0.4933
23307SOL    HW171928   4.103   0.109   9.740  1.6230 -3.6865 -1.2707
23307SOL    HW271929   4.094   0.027   9.867 -0.5268 -0.3643  0.8834
23308SOL     OW71930   0.909   0.199  10.455 -0.1216  0.3188 -0.4318
23308SOL    HW171931   0.881   0.269  10.395 -1.3647 -1.8812 -2.5762
23308SOL    HW271932   0.926   0.124  10.398  1.4234 -1.1053  1.7694
23309SOL     OW71933   8.517   4.397   3.680 -0.1863 -0.3043  0.0852
23309SOL    HW171934   8.465   4.437   3.751 -1.1608 -0.6227 -0.4267
23309SOL    HW271935   8.553   4.318   3.720 -0.3634 -0.2532  0.3549
23310SOL     OW71936   7.407   2.075   8.905  0.2375 -0.0412  0.0997
23310SOL    HW171937   7.487   2.032   8.876  0.7629 -0.2656  1.7844
23310SOL    HW271938   7.432   2.167   8.917  0.1593 -0.0468  0.3096
23311SOL     OW71939   4.628   2.457   5.173  0.5832 -0.0784 -0.6484
23311SOL    HW171940   4.633   2.500   5.088 -2.0646  0.3063 -0.6912
23311SOL    HW271941   4.534   2.452   5.192  0.9596 -2.5534  1.0444
23312SOL     OW71942   7.717   4.265   0.526  0.6496  0.4410  0.7191
23312SOL    HW171943   7.686   4.321   0.597 -1.0593 -0.8991  1.0817
23312SOL    HW271944   7.642   4.256   0.468  0.9866 -1.1715  0.5000
23313SOL     OW71945   4.807   6.411   7.695 -0.4639  0.2507  0.1446
23313SOL    HW171946   4.759   6.395   7.776 -1.4671  0.7733 -0.3373
23313SOL    HW271947   4.863   6.486   7.714  0.0657 -0.2597  0.6547
23314SOL     OW71948   0.242  10.936   1.415 -0.2225  0.0054  0.2893
23314SOL    HW171949   0.281  10.872   1.354 -0.5171 -0.3206  0.4393
23314SOL    HW271950   0.151  10.908   1.423 -1.3361  2.3524 -2.2595
23315SOL     OW71951   6.758   0.055  11.100 -0.9344 -0.1507  0.7633
23315SOL    HW171952   6.766   0.135  11.153 -1.7393  0.0699  0.5683
23315SOL    HW271953   6.756  -0.016  11.165 -0.2467 -0.0130  0.9403
23316SOL     OW71954   6.285   5.081   9.109 -1.0888 -0.9293 -0.5088
23316SOL    HW171955   6.300   5.011   9.173 -1.1405 -0.7464 -0.2952
23316SOL    HW271956   6.241   5.037   9.036  0.0740 -1.3869 -0.9555
23317SOL     OW71957  10.420   1.710   7.768  0.4819 -0.8353 -0.6701
23317SOL    HW171958  10.346   1.650   7.775  0.1071 -0.2513  0.6307
23317SOL    HW271959  10.380   1.797   7.765  1.1075 -0.5340 -0.2769
23318SOL     OW71960   1.477   9.676   7.208 -0.0714 -0.1114 -0.4626
23318SOL    HW171961   1.536   9.633   7.270  1.9960 -0.1810 -2.3462
23318SOL    HW271962   1.484   9.624   7.128 -2.3173  0.2204 -0.9392
23319SOL     OW71963   4.238   8.815   6.931 -0.2331  0.3989 -0.6433
23319SOL    HW171964   4.160   8.763   6.949 -1.8006  2.7610 -0.1701
23319SOL    HW271965   4.304   8.751   6.905 -1.3569 -2.0280  1.9516
23320SOL     OW71966   8.118   3.072   0.938  0.0204  0.0609 -0.0190
23320SOL    HW171967   8.151   2.982   0.934  0.1098  0.0853  0.1604
23320SOL    HW271968   8.179   3.117   0.996 -0.1370  0.1883  0.0483
23321SOL     OW71969   0.421   1.162   2.710  0.1379 -0.2652 -0.7017
23321SOL    HW171970   0.402   1.081   2.757 -0.7522 -0.3956 -1.2778
23321SOL    HW271971   0.491   1.203   2.762 -2.0589  0.5342  1.8540
23322SOL     OW71972  10.795   3.051   8.749  0.0994 -0.5325 -0.0947
23322SOL    HW171973  10.863   3.118   8.735 -1.3524  1.0670  0.2800
23322SOL    HW271974  10.804   2.993   8.673  0.6828  0.7170 -1.0269
23323SOL     OW71975   5.386   3.275   6.425 -0.2543 -0.2761  0.3231
23323SOL    HW171976   5.401   3.242   6.336 -1.7885 -0.1100 -0.0324
23323SOL    HW271977   5.434   3.357   6.429  0.3685 -0.6116 -0.1295
23324SOL     OW71978   8.156   0.545   9.615 -0.6849 -0.1600 -0.0050
23324SOL    HW171979   8.085   0.495   9.574 -1.0360  1.0800 -0.9787
23324SOL    HW271980   8.115   0.629   9.639 -0.3849 -0.6698  2.5708
23325SOL     OW71981   7.918   8.314  10.472 -0.0181  0.1797 -0.4671
23325SOL    HW171982   7.839   8.274  10.509 -0.1409  0.4813 -0.4022
23325SOL    HW271983   7.948   8.251  10.407  0.2831 -0.4326  0.2426
23326SOL     OW71984   4.011   5.433   1.947 -0.3409  0.5115 -0.7810
23326SOL    HW171985   4.067   5.363   1.981 -0.3576  0.2690 -1.2458
23326SOL    HW271986   3.942   5.388   1.898 -1.8982  0.6999  1.0916
23327SOL     OW71987   4.887   9.157   1.460 -0.1349 -0.3345 -0.7596
23327SOL    HW171988   4.836   9.232   1.428  1.0091 -0.1633 -2.3248
23327SOL    HW271989   4.978   9.187   1.455  0.1995 -0.9682  1.0449
23328SOL     OW71990   5.521   5.285  10.975  0.3894  0.5314 -0.4073
23328SOL    HW171991   5.512   5.192  10.997  1.9630  0.4300 -0.1070
23328SOL    HW271992   5.451   5.328  11.025 -0.3237 -0.4613 -0.5103
23329SOL     OW71993   1.207   1.571  11.098 -0.4010 -0.5585 -0.5168
23329SOL    HW171994   1.239   1.521  11.173  0.5102  0.5521 -0.1285
23329SOL    HW271995   1.264   1.546  11.026 -0.1141 -0.2774 -0.3879
23330SOL     OW71996   3.161  10.251  10.758 -0.3853 -0.5502  0.8674
23330SOL    HW171997   3.205  10.220  10.837  0.1989 -2.5691 -0.1675
23330SOL    HW271998   3.190  10.190  10.690 -2.0252  0.2389 -0.5975
23331SOL     OW71999   4.982   8.449   4.448  0.6008 -0.0380  0.2571
23331SOL    HW172000   4.991   8.389   4.374 -1.4778 -0.2300  0.1074
23331SOL    HW272001   4.925   8.404   4.510 -0.8807  1.6744  0.2284
23332SOL     OW72002   9.697   6.210  10.641 -0.1014  0.0028 -0.1381
23332SOL    HW172003   9.640   6.271  10.687 -0.5685 -2.1530  2.4433
23332SOL    HW272004   9.765   6.189  10.705  0.7219 -1.2203 -1.3668
23333SOL     OW72005   4.727   2.815   9.208 -1.3001 -0.2781 -0.1676
23333SOL    HW172006   4.699   2.890   9.260  0.4549 -0.6055  1.3760
23333SOL    HW272007   4.742   2.745   9.272  0.9703 -0.6948 -1.0438
23334SOL     OW72008   4.152   6.718   7.482 -0.1675  0.3467  0.1711
23334SOL    HW172009   4.080   6.685   7.428  0.5853 -0.2611 -0.4922
23334SOL    HW272010   4.189   6.639   7.522  3.5888 -0.2474 -3.7720
23335SOL     OW72011   7.733  10.617   7.201  0.1556  0.4221  0.4165
23335SOL    HW172012   7.772  10.567   7.273 -2.2474 -0.8898  0.9210
23335SOL    HW272013   7.705  10.699   7.242 -0.7177 -0.0954  0.8973
23336SOL     OW72014   9.936   2.819   1.085  0.9996 -0.0831  0.3275
23336SOL    HW172015   9.916   2.840   0.994  3.2127 -0.3534 -0.2598
23336SOL    HW272016   9.858   2.847   1.133 -0.1226  0.2895 -1.5973
23337SOL     OW72017   7.921   8.685   7.516  0.3973  0.0723  0.1796
23337SOL    HW172018   7.873   8.708   7.437 -0.4696  0.2784  0.7504
23337SOL    HW272019   8.010   8.664   7.485  0.2870  0.8870 -0.7460
23338SOL     OW72020   6.275   0.694   5.451 -1.0648  0.5024  0.4814
23338SOL    HW172021   6.344   0.637   5.417 -1.0297  0.8670 -0.0863
23338SOL    HW272022   6.202   0.636   5.471 -1.2584  0.3135 -0.6867
23339SOL     OW72023   3.942   7.693   0.254 -0.4108 -0.5309  0.2680
23339SOL    HW172024   3.932   7.782   0.222  0.5245  0.5530  2.7140
23339SOL    HW272025   3.869   7.680   0.314 -0.0597 -1.0729  0.5955
23340SOL     OW72026  10.343   9.576   2.042 -0.5923  0.0180 -0.0312
23340SOL    HW172027  10.437   9.593   2.046 -0.2425 -1.7660 -0.2286
23340SOL    HW272028  10.303   9.660   2.065  1.0381  0.6290  0.7129
23341SOL     OW72029   6.314   7.047   0.466  0.3436 -0.1862  0.1576
23341SOL    HW172030   6.234   7.009   0.503 -0.0376  0.0933 -0.3637
23341SOL    HW272031   6.312   7.138   0.495  1.2892 -0.5519  1.4628
23342SOL     OW72032  10.203   7.595   3.504  0.4576  0.2710  0.1672
23342SOL    HW172033  10.240   7.507   3.498  3.4149  1.2132  2.2613
23342SOL    HW272034  10.111   7.580   3.527  0.9383 -2.2839  0.7838
23343SOL     OW72035   9.191   5.241   0.160 -0.2245  0.2303 -0.1077
23343SOL    HW172036   9.184   5.274   0.249  1.9223  0.3176  0.0676
23343SOL    HW272037   9.278   5.202   0.155  1.2109  3.3273 -3.1664
23344SOL     OW72038   1.982   3.135  10.219 -0.2594 -0.0121  0.7634
23344SOL    HW172039   2.021   3.048  10.226  0.0916 -0.1484 -1.8603
23344SOL    HW272040   1.997   3.161  10.129 -1.1126  2.4458  1.2459
23345SOL     OW72041   9.745   3.279   4.085  0.1131 -0.1771 -0.1453
23345SOL    HW172042   9.796   3.199   4.097  1.9074  0.7374 -1.2164
23345SOL    HW272043   9.712   3.299   4.173 -2.3182 -3.2260 -0.1827
23346SOL     OW72044   5.903   4.388   0.367  0.4595  0.0623 -0.9417
23346SOL    HW172045   5.945   4.472   0.386  3.0714 -1.3642  0.1706
23346SOL    HW272046   5.866   4.360   0.450  1.5101 -0.8316 -0.7528
23347SOL     OW72047   7.525   4.241   7.770 -0.8442  0.2025  0.6886
23347SOL    HW172048   7.463   4.313   7.782  2.5719  3.6371 -0.5059
23347SOL    HW272049   7.508   4.209   7.682  0.6274  2.9824 -0.7298
23348SOL     OW72050   8.203   5.386   6.958 -0.1999  1.1692 -0.4531
23348SOL    HW172051   8.133   5.322   6.941 -0.6054  0.9285  1.7862
23348SOL    HW272052   8.270   5.366   6.893 -1.5791  0.4492 -1.7258
23349SOL     OW72053   6.659   2.989   3.139 -0.2971  0.0735 -0.2828
23349SOL    HW172054   6.601   3.033   3.202  0.9021  0.0932  0.8704
23349SOL    HW272055   6.668   3.051   3.067 -3.6297 -0.9154 -1.7354
23350SOL     OW72056   8.244   8.245   6.382 -0.4085 -0.1860 -0.1545
23350SOL    HW172057   8.257   8.338   6.398 -0.0562  0.0382 -1.6129
23350SOL    HW272058   8.313   8.202   6.433 -0.7117  0.3250  0.6996
23351SOL     OW72059   5.194   0.816   2.723 -0.0607  0.4056 -0.2901
23351SOL    HW172060   5.100   0.830   2.716 -0.4960 -1.4538  1.0995
23351SOL    HW272061   5.233   0.893   2.682 -2.1691  2.0444  0.5864
23352SOL     OW72062   7.093   4.140   4.668  0.7687 -0.0440 -0.3109
23352SOL    HW172063   6.999   4.150   4.655  0.5914 -0.9289  0.1709
23352SOL    HW272064   7.133   4.211   4.617 -0.1125 -0.1965 -1.2456
23353SOL     OW72065   4.369   0.835   7.340  0.5055  0.2162  0.4978
23353SOL    HW172066   4.390   0.879   7.258 -2.9885  2.5319  0.5898
23353SOL    HW272067   4.321   0.757   7.314 -1.4888  1.4647  0.1907
23354SOL     OW72068  11.018  10.287   8.792 -0.0332 -0.4828 -0.1360
23354SOL    HW172069  10.985  10.324   8.710  0.7128 -0.3633 -0.3912
23354SOL    HW272070  11.100  10.245   8.768  0.7585  0.4878  0.7301
23355SOL     OW72071   4.469   6.617   7.720 -0.3006  0.6912  0.3364
23355SOL    HW172072   4.396   6.573   7.678 -0.6431 -0.4241  2.0118
23355SOL    HW272073   4.430   6.667   7.792  0.6198 -0.7321  1.9028
23356SOL     OW72074   8.612  10.607   8.138 -0.2835 -0.3691 -0.3186
23356SOL    HW172075   8.517  10.598   8.141 -0.1333 -2.1702  1.6208
23356SOL    HW272076   8.630  10.651   8.055 -2.8459  0.9366 -0.2685
23357SOL     OW72077   9.262   8.339   1.722  0.8273 -0.8567  0.0732
23357SOL    HW172078   9.335   8.363   1.780  2.9252  0.6645 -2.8884
23357SOL    HW272079   9.295   8.264   1.673 -0.4618 -1.4206  0.0274
23358SOL     OW72080   5.152   5.705   6.298  0.4500  0.1239  0.0867
23358SOL    HW172081   5.069   5.666   6.326  2.3797 -2.4501  2.8188
23358SOL    HW272082   5.182   5.649   6.226 -0.0634  1.0106 -0.8508
23359SOL     OW72083   7.928   9.606   0.202 -0.4491  0.2249  0.2530
23359SOL    HW172084   7.990   9.646   0.263  0.4123 -2.6818  1.4619
23359SOL    HW272085   7.963   9.519   0.185 -2.1459 -0.0877 -2.2726
23360SOL     OW72086   1.605   3.295   2.571 -0.1156  0.1792 -0.1457
23360SOL    HW172087   1.531   3.348   2.543  0.3509  1.2555  0.6009
23360SOL    HW272088   1.682   3.340   2.536  0.2604 -0.3406 -0.0202
23361SOL     OW72089   5.405   2.418   1.882  0.1658 -0.2138 -0.1110
23361SOL    HW172090   5.407   2.342   1.941  1.1495  0.1077  0.2802
23361SOL    HW272091   5.472   2.477   1.915  0.2363  0.3059 -1.1218
23362SOL     OW72092   8.534   0.856   2.026  0.6467  0.2048 -1.0891
23362SOL    HW172093   8.511   0.793   2.095  2.3368  1.0323  0.3283
23362SOL    HW272094   8.463   0.921   2.029 -0.0107 -0.4957 -1.0915
23363SOL     OW72095   0.632   2.692   4.969  0.3209  0.5133 -0.0251
23363SOL    HW172096   0.590   2.648   5.043  0.4502  2.7115  1.4485
23363SOL    HW272097   0.581   2.771   4.955  1.1669  0.8675 -1.3585
23364SOL     OW72098   9.694   8.687   8.902  0.6970 -0.0601 -0.2170
23364SOL    HW172099   9.657   8.663   8.987 -1.5992  0.0161 -1.1251
23364SOL    HW272100   9.781   8.720   8.922 -0.5731  2.0363  2.3850
23365SOL     OW72101   3.282   8.532   9.373 -0.0595 -0.1537  0.5899
23365SOL    HW172102   3.266   8.604   9.312 -0.1992 -0.1764  0.6002
23365SOL    HW272103   3.295   8.455   9.317  1.1527  0.0753  0.5351
23366SOL     OW72104   2.069   6.711   6.571  0.2157 -0.4604 -0.0020
23366SOL    HW172105   1.995   6.742   6.623  0.6716 -0.2270  0.5146
23366SOL    HW272106   2.142   6.706   6.632  0.6821 -0.5021 -0.5452
23367SOL     OW72107  10.060   0.475   8.631 -0.2531  0.2918 -0.6144
23367SOL    HW172108   9.974   0.516   8.629  0.8779  2.9305 -0.2635
23367SOL    HW272109  10.077   0.450   8.541 -1.9412 -1.6614 -0.4519
23368SOL     OW72110   3.434   2.510   6.723 -0.4273 -0.4845 -0.2065
23368SOL    HW172111   3.465   2.467   6.643 -2.3827 -1.0091 -0.7529
23368SOL    HW272112   3.435   2.603   6.701  0.3864 -0.5104 -0.3186
23369SOL     OW72113   0.789   9.256   1.977 -0.6978 -0.4431  0.3918
23369SOL    HW172114   0.855   9.236   1.910 -1.0493  1.5396 -0.6004
23369SOL    HW272115   0.705   9.246   1.933 -0.9224  1.3464  0.3769
23370SOL     OW72116   0.908   3.469   0.585 -0.2268 -0.7536  0.0430
23370SOL    HW172117   0.859   3.547   0.609 -0.1542 -0.2543 -1.3205
23370SOL    HW272118   0.884   3.452   0.494 -0.4972 -2.5337  0.4050
23371SOL     OW72119   6.845   5.489   7.715  0.3957 -0.2788  0.1389
23371SOL    HW172120   6.862   5.470   7.807  1.1687 -0.5949 -0.0568
23371SOL    HW272121   6.907   5.559   7.693 -0.8966  0.9555  0.2659
23372SOL     OW72122   5.901   1.707   2.039  1.3882  0.1884  0.2410
23372SOL    HW172123   5.907   1.671   1.950 -1.7416 -0.6442  0.2375
23372SOL    HW272124   5.832   1.773   2.033  1.5666  0.5611  1.9312
23373SOL     OW72125   3.201   7.900   3.251  0.0553 -0.1435  0.4880
23373SOL    HW172126   3.119   7.865   3.216 -0.0909  0.8683 -0.2175
23373SOL    HW272127   3.174   7.970   3.310  0.4157  0.5780 -0.1841
23374SOL     OW72128   5.885   7.467   1.475  0.1180  0.2863  0.7264
23374SOL    HW172129   5.942   7.461   1.398  0.5059  1.5886  0.8887
23374SOL    HW272130   5.859   7.376   1.492  0.5018 -0.0988 -0.5761
23375SOL     OW72131   3.975   3.057   3.427 -0.8054 -0.4801  0.3019
23375SOL    HW172132   3.950   3.025   3.340  0.1133  1.3645 -0.6783
23375SOL    HW272133   3.934   3.143   3.434  0.2983  0.0044  1.1117
23376SOL     OW72134   6.241   3.597   1.393  0.5761  0.4791  0.2330
23376SOL    HW172135   6.151   3.604   1.423  0.7148 -0.0265  0.7806
23376SOL    HW272136   6.292   3.652   1.453  0.4524  1.9601 -0.9640
23377SOL     OW72137   2.045   3.257   1.977  0.6647  0.1967  0.7652
23377SOL    HW172138   2.042   3.276   1.883  1.4654  2.2954  1.1322
23377SOL    HW272139   2.039   3.161   1.981  2.4626 -0.1124 -1.5289
23378SOL     OW72140   3.161   1.338   0.460 -0.4822  0.3290  0.5733
23378SOL    HW172141   3.254   1.330   0.438  0.1837  0.9134  2.8529
23378SOL    HW272142   3.138   1.427   0.436 -0.3587  0.2912  0.3126
23379SOL     OW72143   3.513   4.024   6.020 -0.6183  0.2432  0.9515
23379SOL    HW172144   3.508   4.111   6.058  0.7550  0.8394 -0.1187
23379SOL    HW272145   3.600   3.991   6.045 -0.5170 -0.1835  0.0876
23380SOL     OW72146   9.439   3.972  10.908  0.3568 -0.7116 -0.0435
23380SOL    HW172147   9.481   3.945  10.989 -0.1497 -0.6766  0.2310
23380SOL    HW272148   9.476   4.059  10.890 -1.3240  0.3827  1.4644
23381SOL     OW72149   9.731   3.228   8.907 -0.7044  0.5638 -1.2150
23381SOL    HW172150   9.729   3.149   8.962  0.2586  0.2003 -1.6855
23381SOL    HW272151   9.640   3.257   8.905 -0.5543  1.7565  2.2355
23382SOL     OW72152   4.002  10.057   7.325  0.0642 -0.0099 -0.2334
23382SOL    HW172153   4.057  10.092   7.254  0.4405 -1.7612 -0.8623
23382SOL    HW272154   4.065  10.028   7.391 -0.1692 -0.6056 -0.2695
23383SOL     OW72155   1.404   3.573   1.926 -0.1982  0.0481 -0.1256
23383SOL    HW172156   1.450   3.599   2.005 -0.7941 -0.0948  0.2773
23383SOL    HW272157   1.399   3.654   1.874  0.2563  0.1265 -0.0491
23384SOL     OW72158   8.177   2.964  10.648  0.0408 -0.4451 -0.4997
23384SOL    HW172159   8.232   3.032  10.687 -0.0151  0.8672 -2.5314
23384SOL    HW272160   8.221   2.882  10.669  1.6236  0.4258 -0.2764
23385SOL     OW72161   4.754  10.764  10.507 -0.2069 -0.1425  0.2060
23385SOL    HW172162   4.847  10.763  10.526 -0.3366 -1.2208  0.8597
23385SOL    HW272163   4.747  10.799  10.418  0.7660  0.5203  0.3841
23386SOL     OW72164   2.096   1.767   2.518  0.2540 -0.2580 -0.4761
23386SOL    HW172165   2.162   1.698   2.526  1.6862  1.2926  3.0974
23386SOL    HW272166   2.137   1.833   2.462  1.2545  0.1001  0.6396
23387SOL     OW72167   2.230   1.084   6.166 -0.4287  0.7211 -0.2232
23387SOL    HW172168   2.250   1.054   6.078  0.7969 -1.0598  0.5970
23387SOL    HW272169   2.303   1.053   6.219 -0.1390  3.4225  1.1272
23388SOL     OW72170   3.977   2.189   9.614 -0.0109 -0.0692  0.1369
23388SOL    HW172171   4.062   2.144   9.618 -0.0080 -0.0407  0.4395
23388SOL    HW272172   3.998   2.276   9.580 -0.2543 -0.8675 -2.1790
23389SOL     OW72173   3.393   3.535   6.942 -0.3240 -0.4927  0.3950
23389SOL    HW172174   3.404   3.548   7.036  0.0183 -0.5535  0.3656
23389SOL    HW272175   3.308   3.573   6.922  1.1427  3.0701  0.0707
23390SOL     OW72176  10.296  10.898   6.294  0.6872 -0.6713 -0.3229
23390SOL    HW172177  10.281  10.990   6.318  0.7401  0.0394 -2.7214
23390SOL    HW272178  10.218  10.852   6.325 -1.0180  0.8485 -2.0780
23391SOL     OW72179  10.510   2.305   3.880 -0.6772 -0.0038  0.5103
23391SOL    HW172180  10.518   2.397   3.902  1.2393 -0.0007  0.0037
23391SOL    HW272181  10.600   2.275   3.870 -1.1120 -0.5184 -5.0955
23392SOL     OW72182   9.782   7.089   8.037  0.0008 -0.3983  0.0357
23392SOL    HW172183   9.746   7.174   8.012  2.9653  0.8615 -0.2957
23392SOL    HW272184   9.831   7.106   8.117  1.7307 -1.5090 -0.7375
23393SOL     OW72185   6.392   4.371  10.122  0.3303  0.5352 -0.1338
23393SOL    HW172186   6.437   4.445  10.164 -0.8442  1.1822  0.0524
23393SOL    HW272187   6.452   4.297  10.133  0.5157  0.9044  1.8454
23394SOL     OW72188   6.703   5.659   6.324  0.3682 -0.5463 -0.0607
23394SOL    HW172189   6.779   5.669   6.382  1.1187 -1.2859 -0.8915
23394SOL    HW272190   6.683   5.748   6.296 -1.7667  0.2925  3.4184
23395SOL     OW72191   0.180   0.007   2.203 -0.5062 -0.2201  0.5802
23395SOL    HW172192   0.148  -0.064   2.259 -1.4394  0.3773  0.8321
23395SOL    HW272193   0.104   0.064   2.191  0.6018  1.6306  1.7607
23396SOL     OW72194   7.276   1.255   1.495  0.4470 -0.4092  0.5180
23396SOL    HW172195   7.370   1.258   1.513  0.3771  0.7667  0.7536
23396SOL    HW272196   7.243   1.189   1.556  0.9183  0.1788  1.4392
23397SOL     OW72197   5.642   1.911   5.126  0.0537 -0.2314 -0.0322
23397SOL    HW172198   5.580   1.967   5.171  0.2486 -0.0417  0.0006
23397SOL    HW272199   5.594   1.878   5.050 -0.6201 -1.3639  0.8378
23398SOL     OW72200   6.842   0.156   6.552  0.3965 -0.7157 -0.1704
23398SOL    HW172201   6.896   0.195   6.483 -1.9082  0.7408 -1.2661
23398SOL    HW272202   6.808   0.075   6.514  0.3721 -0.7110 -0.1587
23399SOL     OW72203   8.123   6.830   3.470  0.2039  0.5272 -0.1728
23399SOL    HW172204   8.111   6.747   3.516  0.7082  1.0019  0.8504
23399SOL    HW272205   8.053   6.886   3.502  1.1739  1.1988  0.8653
23400SOL     OW72206   0.975   1.574   1.331  0.0049  0.2908 -0.3290
23400SOL    HW172207   0.945   1.617   1.252  0.9973 -0.2695 -1.0370
23400SOL    HW272208   1.036   1.636   1.372  0.5131  0.0609 -0.7198
23401SOL     OW72209   3.510   8.598   5.174  0.2116  0.8879  0.3659
23401SOL    HW172210   3.502   8.503   5.166 -1.1723  1.1764 -3.4415
23401SOL    HW272211   3.427   8.626   5.213  0.2659  0.6405  0.6657
23402SOL     OW72212   0.913   3.866   8.085  0.0193  0.4979 -0.1488
23402SOL    HW172213   0.934   3.783   8.128  2.0601  0.5540 -0.9201
23402SOL    HW272214   0.854   3.910   8.146  1.0547 -0.3772  1.5788
23403SOL     OW72215   8.831   8.199   4.006  0.2668 -0.0625 -0.2897
23403SOL    HW172216   8.889   8.269   3.976  0.9967  0.0356  1.2489
23403SOL    HW272217   8.769   8.188   3.934  1.1533  0.9952 -1.2788
23404SOL     OW72218   2.150   8.678   5.047 -0.3451  0.6297  0.0115
23404SOL    HW172219   2.162   8.591   5.009 -0.1277  0.3013  0.7965
23404SOL    HW272220   2.108   8.661   5.131 -1.4989  1.3945 -0.3907
23405SOL     OW72221   0.213   9.772   8.225  0.2166 -0.1052 -0.3244
23405SOL    HW172222   0.222   9.860   8.189 -1.2970 -0.6708 -2.2517
23405SOL    HW272223   0.127   9.771   8.266  0.1922 -0.7052 -0.3780
23406SOL     OW72224   6.397   2.353   8.882  0.2728  0.3556  0.3594
23406SOL    HW172225   6.463   2.419   8.862  0.9490  0.5796  2.8799
23406SOL    HW272226   6.320   2.380   8.832  1.5712  1.0261 -1.3649
23407SOL     OW72227   6.032   0.514   2.759 -0.2814 -0.1298  0.1489
23407SOL    HW172228   6.011   0.423   2.737 -1.8960  0.8966 -3.3358
23407SOL    HW272229   5.947   0.555   2.775  0.2854  1.0738  0.1783
23408SOL     OW72230   7.184   5.285   8.211  0.1279  0.3226 -0.4245
23408SOL    HW172231   7.268   5.239   8.213 -0.4477 -0.8214 -1.3538
23408SOL    HW272232   7.203   5.366   8.163  0.6290 -0.0921 -0.9531
23409SOL     OW72233   4.396   5.528   1.074  0.5224  0.4727 -0.5001
23409SOL    HW172234   4.447   5.502   0.997  1.5449 -0.0744  0.3271
23409SOL    HW272235   4.428   5.615   1.096  1.1353  0.1371  0.0078
23410SOL     OW72236   9.955   3.475   3.444  0.1359 -0.4186  0.2959
23410SOL    HW172237   9.951   3.451   3.351 -0.4033 -0.1893  0.2526
23410SOL    HW272238   9.979   3.395   3.489  0.5160 -0.5050 -0.0536
23411SOL     OW72239   0.427  10.163   7.683  0.3100 -0.0144 -0.1318
23411SOL    HW172240   0.434  10.165   7.779 -0.8627  1.1850 -0.0365
23411SOL    HW272241   0.432  10.254   7.657 -0.2652 -0.2576 -1.1413
23412SOL     OW72242   3.518  10.387   9.935 -0.0506  0.3471 -0.5081
23412SOL    HW172243   3.578  10.333   9.986  1.8773  2.2488 -0.6360
23412SOL    HW272244   3.478  10.326   9.873  1.0444 -1.1552  0.1919
23413SOL     OW72245   8.680   0.503   5.292 -0.4052  0.1844 -0.1158
23413SOL    HW172246   8.606   0.552   5.256 -2.1378 -0.6368  2.0407
23413SOL    HW272247   8.640   0.446   5.358  2.1714 -0.3672  1.0781
23414SOL     OW72248   6.572   0.052   6.663  0.5837  0.3678 -0.5939
23414SOL    HW172249   6.524   0.030   6.584  1.3002  0.0687 -0.9505
23414SOL    HW272250   6.636  -0.018   6.673  0.1914  0.1289  0.5238
23415SOL     OW72251   2.700   2.580   7.225  0.2488  0.4504  0.7901
23415SOL    HW172252   2.620   2.531   7.241  1.3660 -1.1467  1.9227
23415SOL    HW272253   2.695   2.656   7.283  0.0943 -0.3230  1.8163
23416SOL     OW72254   2.987   8.565   0.067 -0.4031  0.0556 -0.3751
23416SOL    HW172255   2.926   8.492   0.060  0.9024 -1.0020 -1.2245
23416SOL    HW272256   2.937   8.635   0.109 -1.7875 -1.2028  0.1282
23417SOL     OW72257   6.372   2.944   3.511 -0.6325  0.3993 -0.2376
23417SOL    HW172258   6.315   2.961   3.586 -0.0412  0.6116  0.1674
23417SOL    HW272259   6.326   2.877   3.461  0.2045 -1.8219  1.7476
23418SOL     OW72260   2.998   3.424   1.248  0.2033  0.7323 -0.5639
23418SOL    HW172261   3.052   3.347   1.267 -2.6598 -1.1762  0.4802
23418SOL    HW272262   2.950   3.400   1.169  0.8089  2.3645 -1.4546
23419SOL     OW72263   0.279   8.220   0.325  0.5370 -0.6789 -0.2500
23419SOL    HW172264   0.309   8.156   0.260  0.7857  0.8985 -1.7291
23419SOL    HW272265   0.218   8.276   0.278 -0.9868 -0.8006  1.4616
23420SOL     OW72266   7.397   6.038   0.221 -0.2634  0.1310 -0.6192
23420SOL    HW172267   7.304   6.015   0.221 -0.3521  0.1274  1.9295
23420SOL    HW272268   7.407   6.098   0.295  2.1893 -2.1483  1.1394
23421SOL     OW72269   8.592   1.493   0.621  0.0570  0.0001 -0.0161
23421SOL    HW172270   8.497   1.499   0.612 -0.0938  1.1677  1.7280
23421SOL    HW272271   8.623   1.583   0.615  1.3163 -0.5227 -2.4801
23422SOL     OW72272   4.278   2.976   5.336 -0.9733  0.5429  0.2889
23422SOL    HW172273   4.202   2.988   5.279 -1.4579 -4.6794 -0.7409
23422SOL    HW272274   4.241   2.961   5.423 -0.7994  1.5442  0.5417
23423SOL     OW72275   4.364   7.900  10.542  0.3858 -0.2132  0.3911
23423SOL    HW172276   4.323   7.966  10.597  0.3531 -1.3390  1.7757
23423SOL    HW272277   4.297   7.833  10.531  0.1902  0.2322 -1.5503
23424SOL     OW72278   9.072   6.821  10.512  0.0033 -0.1960 -0.3544
23424SOL    HW172279   9.099   6.745  10.461 -1.2744  1.0799 -3.1411
23424SOL    HW272280   8.981   6.803  10.536  0.4880 -0.6379  1.3317
23425SOL     OW72281   4.560   5.028   9.594 -0.5664 -0.1034  0.0683
23425SOL    HW172282   4.493   4.960   9.601 -1.3763  0.8177  2.7291
23425SOL    HW272283   4.612   5.004   9.517 -2.1740 -2.4509 -0.3794
23426SOL     OW72284   5.689   8.836   2.787 -0.3801  0.7800 -0.4321
23426SOL    HW172285   5.760   8.832   2.723  1.6314  0.6110  1.6516
23426SOL    HW272286   5.616   8.874   2.740  0.5098 -0.6660 -3.1962
23427SOL     OW72287   2.609  10.558   3.415 -0.0879  0.3280 -0.5481
23427SOL    HW172288   2.520  10.531   3.437 -0.5125  1.0162 -1.3896
23427SOL    HW272289   2.640  10.491   3.353  0.5555 -0.7534  0.8704
23428SOL     OW72290   8.628   3.521   3.365 -0.0889 -0.4645 -0.4906
23428SOL    HW172291   8.629   3.544   3.458  0.9500 -2.9197  0.1869
23428SOL    HW272292   8.718   3.535   3.336  0.4860 -3.0485 -0.1481
23429SOL     OW72293   7.887  10.054   5.479  0.0852  0.6223  0.7175
23429SOL    HW172294   7.888  10.129   5.419  1.0896  0.7656  0.8951
23429SOL    HW272295   7.879   9.978   5.421 -3.1169  0.9000  0.6360
23430SOL     OW72296   5.648   0.832   1.109  0.2980  0.3311  0.0933
23430SOL    HW172297   5.628   0.756   1.165  0.4234  0.5425  0.4291
23430SOL    HW272298   5.578   0.832   1.043  0.7324 -0.5424 -0.3960
23431SOL     OW72299   2.943   8.307   3.990 -0.3753 -0.2774  0.5462
23431SOL    HW172300   2.861   8.258   3.986 -0.2340 -0.4969  0.2273
23431SOL    HW272301   2.931   8.369   4.061 -0.3264 -1.2185  1.4002
23432SOL     OW72302   7.624   9.764   5.791  0.5495 -0.6612 -0.6790
23432SOL    HW172303   7.588   9.736   5.707 -1.5811 -0.6846  0.1710
23432SOL    HW272304   7.634   9.682   5.841  0.1325 -0.5075 -0.3298
23433SOL     OW72305   2.539   1.846   0.533 -0.1179 -0.0757  0.9372
23433SOL    HW172306   2.545   1.913   0.601  1.6676 -2.7946  3.7669
23433SOL    HW272307   2.460   1.796   0.554 -1.6277  1.1908 -1.3409
23434SOL     OW72308   2.125   8.720   7.438  0.0381  0.6741  0.3723
23434SOL    HW172309   2.083   8.636   7.458 -0.8966  0.7179 -1.2692
23434SOL    HW272310   2.219   8.699   7.434 -0.2153 -0.3660 -0.3593
23435SOL     OW72311   0.674   9.343   6.613  0.0725  0.3779  0.1591
23435SOL    HW172312   0.644   9.322   6.525 -2.2446  0.8348  0.7502
23435SOL    HW272313   0.642   9.432   6.628  1.4020  0.7254  1.0695
23436SOL     OW72314   2.682  11.084  11.080 -0.0464  0.2782 -0.5378
23436SOL    HW172315   2.608  11.138  11.107 -0.3140  0.2667 -1.2115
23436SOL    HW272316   2.658  11.053  10.993  1.1521  1.0257 -1.1658
23437SOL     OW72317   0.475   8.290   7.118 -0.0943 -0.0457  0.7467
23437SOL    HW172318   0.435   8.282   7.204  0.0102  0.9608  0.9077
23437SOL    HW272319   0.407   8.332   7.065  0.1901  0.2437  0.6080
23438SOL     OW72320   8.795   2.723  10.956  0.4186 -0.1858 -0.3381
23438SOL    HW172321   8.838   2.799  10.918  2.2835 -1.6714 -1.3631
23438SOL    HW272322   8.703   2.732  10.929  0.1221  2.5953  1.1556
23439SOL     OW72323  10.200   9.204   2.379  0.1380  0.1121  0.2852
23439SOL    HW172324  10.179   9.269   2.311  1.2621 -0.0551 -0.2524
23439SOL    HW272325  10.140   9.224   2.451  0.2695  1.5808  0.0268
23440SOL     OW72326   8.030   3.889  10.692  0.4638 -0.2765 -0.3917
23440SOL    HW172327   8.120   3.911  10.717  0.9644 -1.5396 -0.9901
23440SOL    HW272328   8.037   3.802  10.653 -0.7628  0.2985 -1.9816
23441SOL     OW72329   2.121   7.257   2.067  0.8032  0.4728 -0.2553
23441SOL    HW172330   2.209   7.221   2.058  1.7395  2.3087  0.9336
23441SOL    HW272331   2.123   7.307   2.149 -0.6431  2.4436 -1.3356
23442SOL     OW72332   5.031   6.092   7.723 -0.0437  0.6211  0.4882
23442SOL    HW172333   5.031   6.018   7.662 -1.2130  2.1873 -1.5812
23442SOL    HW272334   5.123   6.103   7.747  0.3755 -0.4615 -0.4995
23443SOL     OW72335   7.635   3.726   4.950  0.6952 -0.0713  0.2919
23443SOL    HW172336   7.640   3.684   5.036 -0.1333  0.2168  0.4866
23443SOL    HW272337   7.692   3.802   4.957 -2.5439  2.4448  2.0622
23444SOL     OW72338   2.900   6.549   3.441  0.2827 -0.2751 -0.3758
23444SOL    HW172339   2.911   6.629   3.491  1.5942 -0.7258  0.1137
23444SOL    HW272340   2.957   6.560   3.365  0.1595 -0.5880 -0.5170
23445SOL     OW72341   3.003   6.167   1.132  0.2222  0.0523 -0.6162
23445SOL    HW172342   3.030   6.191   1.043 -1.9654  1.0174 -1.1058
23445SOL    HW272343   3.051   6.227   1.189  1.5040 -0.4430 -1.1347
23446SOL     OW72344   1.031   3.663   4.570 -0.0597 -0.1617 -0.1609
23446SOL    HW172345   1.000   3.750   4.546 -0.8455 -0.4287 -0.1604
23446SOL    HW272346   0.992   3.647   4.656 -1.7196 -1.3474 -1.0584
23447SOL     OW72347   5.017   9.196  10.266 -0.1259 -0.2504  0.4112
23447SOL    HW172348   5.070   9.231  10.339  1.4544  0.6760 -1.0954
23447SOL    HW272349   4.998   9.106  10.292 -0.1204  0.2207  2.2239
23448SOL     OW72350  10.021   7.169   9.952  0.2717  0.2206 -0.8464
23448SOL    HW172351  10.096   7.227   9.959 -0.0644  0.6170 -0.4176
23448SOL    HW272352  10.028   7.128   9.866  0.5841  0.7951 -1.0905
23449SOL     OW72353   8.161   9.084   6.663 -0.1054 -0.1778 -0.4980
23449SOL    HW172354   8.173   9.039   6.746  0.1434 -0.3027 -0.6022
23449SOL    HW272355   8.246   9.078   6.619 -0.0428  0.4519 -0.4833
23450SOL     OW72356   3.157   6.397   8.788 -0.0293  0.3426 -0.0976
23450SOL    HW172357   3.232   6.456   8.790  0.6190 -0.4535  1.9231
23450SOL    HW272358   3.080   6.454   8.785  0.5994  1.1624 -2.7429
23451SOL     OW72359   9.309  10.281   9.027  0.2500  0.0049 -0.1496
23451SOL    HW172360   9.320  10.256   8.935 -0.0462  0.5578 -0.3377
23451SOL    HW272361   9.364  10.219   9.075  0.0723 -0.5620 -0.6644
23452SOL     OW72362   1.231   9.840   1.732 -0.4379 -0.0603  0.0063
23452SOL    HW172363   1.251   9.916   1.787 -1.7558  1.0144 -0.9199
23452SOL    HW272364   1.136   9.845   1.719 -0.2976 -0.8723 -1.4842
23453SOL     OW72365   8.531   6.166   5.716  0.2906 -0.1592  0.0751
23453SOL    HW172366   8.516   6.230   5.647 -1.3172 -1.0241 -0.4455
23453SOL    HW272367   8.544   6.218   5.795  0.1512  0.8285 -0.5336
23454SOL     OW72368   0.342  10.472   6.232 -0.3435 -0.1731 -0.9898
23454SOL    HW172369   0.290  10.393   6.246  0.6395 -0.7514 -0.5102
23454SOL    HW272370   0.430  10.448   6.260 -0.1707  1.3204 -0.1632
23455SOL     OW72371   2.542   1.972   2.186  0.8867  0.1989 -0.5495
23455SOL    HW172372   2.504   2.049   2.145 -0.9971  0.1536  0.9828
23455SOL    HW272373   2.616   2.006   2.236 -0.0276  1.0806  0.2563
23456SOL     OW72374   7.993   9.394   1.017  0.9104  0.3018 -0.8064
23456SOL    HW172375   8.059   9.326   1.032  1.4636  0.6707 -1.5719
23456SOL    HW272376   8.034   9.475   1.048 -0.5781  0.0220  2.3091
23457SOL     OW72377   7.527   4.417  10.174 -0.1852 -0.0172 -0.4662
23457SOL    HW172378   7.434   4.434  10.184  0.0109  1.4486 -0.8106
23457SOL    HW272379   7.545   4.434  10.081 -0.0723 -3.1462 -1.1263
23458SOL     OW72380   2.427   5.118   7.156  0.1867 -0.0169 -0.1506
23458SOL    HW172381   2.478   5.055   7.105  0.2180 -0.3041  0.2305
23458SOL    HW272382   2.337   5.088   7.147  0.1544  0.1274 -0.3114
23459SOL     OW72383   6.001   4.280   9.063  0.7299  0.1385  0.3655
23459SOL    HW172384   6.079   4.320   9.099  1.1467 -1.1239  0.9197
23459SOL    HW272385   5.931   4.303   9.123  0.7200  1.0398  0.0169
23460SOL     OW72386   5.086   5.414   4.686  0.2747 -0.7516 -0.4539
23460SOL    HW172387   5.114   5.500   4.655  0.9204 -0.2553  1.3940
23460SOL    HW272388   5.095   5.357   4.609  3.1621  0.0988 -0.8871
23461SOL     OW72389   8.173  10.794  10.185 -0.0786 -0.2927  0.3201
23461SOL    HW172390   8.123  10.871  10.213  2.2855  1.1391  0.9157
23461SOL    HW272391   8.210  10.759  10.266 -0.4843 -1.6185 -0.0478
23462SOL     OW72392   2.481   1.047   6.986 -0.1068  0.0937  0.0486
23462SOL    HW172393   2.555   0.994   6.958 -0.4169 -0.4151  0.1729
23462SOL    HW272394   2.466   1.021   7.077  0.5167  1.3020  0.5186
23463SOL     OW72395   0.212   8.566   0.867  0.1577  0.2424  0.1619
23463SOL    HW172396   0.305   8.544   0.859  0.4713  1.5655  0.0218
23463SOL    HW272397   0.183   8.579   0.777 -0.9524 -3.0489 -0.1046
23464SOL     OW72398   5.669   4.466   4.588 -0.0284 -0.2788 -0.0655
23464SOL    HW172399   5.597   4.516   4.550  1.3484  1.0028 -1.1004
23464SOL    HW272400   5.648   4.375   4.568 -1.3103  0.0730 -0.4208
23465SOL     OW72401   6.178   0.164   9.899  0.0160  0.4145  0.0837
23465SOL    HW172402   6.161   0.177   9.992 -0.8808 -0.7837  0.1138
23465SOL    HW272403   6.236   0.236   9.875  2.3325 -0.5921  2.1304
23466SOL     OW72404  10.113   3.260   9.431 -0.4282 -0.0849  0.6694
23466SOL    HW172405  10.185   3.266   9.368 -1.5944  0.0818 -0.6979
23466SOL    HW272406  10.154   3.228   9.512  1.6175  2.3353  0.7020
23467SOL     OW72407   5.277   8.810   4.799  0.3697  0.4689  0.2330
23467SOL    HW172408   5.209   8.755   4.760 -1.0385  0.9067  1.9177
23467SOL    HW272409   5.355   8.755   4.801 -1.2178 -1.9231  2.7116
23468SOL     OW72410   7.277   2.541   1.873  0.2753  0.0874 -0.2166
23468SOL    HW172411   7.363   2.565   1.839  0.0941  0.0870 -0.6900
23468SOL    HW272412   7.242   2.622   1.910  0.3837  0.1436 -0.2370
23469SOL     OW72413   6.213   4.243  10.636  0.2987 -0.4662 -0.4788
23469SOL    HW172414   6.234   4.149  10.635  1.2502 -0.3690  2.4048
23469SOL    HW272415   6.118   4.246  10.627  0.2243 -1.7239 -0.3472
23470SOL     OW72416   9.541   7.325   3.568 -0.1419 -0.1306  0.1880
23470SOL    HW172417   9.631   7.322   3.534 -0.0404  0.4706  0.3839
23470SOL    HW272418   9.492   7.265   3.512 -0.1004  1.2608 -1.4096
23471SOL     OW72419   2.159   6.652   8.047  0.0146 -0.2127  0.2696
23471SOL    HW172420   2.152   6.600   7.967 -0.0365 -1.1253  0.8517
23471SOL    HW272421   2.158   6.587   8.118 -1.3987  0.6456  1.0915
23472SOL     OW72422   1.483   4.812   2.846  0.1951  0.1445  0.1932
23472SOL    HW172423   1.571   4.839   2.871 -1.1002  3.2433  1.9247
23472SOL    HW272424   1.442   4.892   2.813 -2.3680 -0.8835  0.6564
23473SOL     OW72425   5.033   0.349  10.975  0.6778  0.2893 -0.5101
23473SOL    HW172426   5.066   0.315  10.891  0.0836  0.4699 -0.8254
23473SOL    HW272427   5.004   0.438  10.954 -0.2085  0.0621 -0.3034
23474SOL     OW72428   4.191   6.956   9.655  0.7884  0.3717  0.2123
23474SOL    HW172429   4.188   7.022   9.723  0.3469 -1.2899  1.8822
23474SOL    HW272430   4.130   6.987   9.588  0.7252  1.7169  0.8708
23475SOL     OW72431   5.835   3.947   4.867  0.3683 -0.1130  0.7338
23475SOL    HW172432   5.825   4.042   4.863  0.6492 -0.0925 -3.1888
23475SOL    HW272433   5.746   3.914   4.880 -0.0776  0.6940 -0.1211
23476SOL     OW72434  10.786   9.144   6.361  0.0626 -0.2476 -0.5102
23476SOL    HW172435  10.803   9.169   6.452 -0.7599  1.1857 -0.7263
23476SOL    HW272436  10.737   9.062   6.368  0.3660 -0.3733  0.3269
23477SOL     OW72437   1.537  10.421  10.904  0.1552  0.4618 -0.2616
23477SOL    HW172438   1.567  10.338  10.867 -0.8949 -0.1235  0.1286
23477SOL    HW272439   1.461  10.445  10.851 -1.9361 -0.8512  1.9157
23478SOL     OW72440   7.324   3.749   9.478 -0.1561 -0.6557 -0.1241
23478SOL    HW172441   7.257   3.757   9.546 -2.2497 -2.5085 -1.8375
23478SOL    HW272442   7.280   3.705   9.406  2.2757  0.2516 -2.3088
23479SOL     OW72443   4.561   8.963  10.151 -0.0047 -0.3460 -0.3513
23479SOL    HW172444   4.553   9.040  10.207  1.6653 -1.3160  1.3131
23479SOL    HW272445   4.623   8.988  10.083  0.0456 -0.0238 -0.1856
23480SOL     OW72446   5.936   6.634   8.211  1.0195 -0.2886 -0.0551
23480SOL    HW172447   5.928   6.687   8.132 -2.4148 -1.4751 -0.6411
23480SOL    HW272448   6.031   6.621   8.221  1.7578  2.4044 -2.1771
23481SOL     OW72449   7.066   2.852   1.844 -0.5998  0.1048 -0.1890
23481SOL    HW172450   7.009   2.810   1.908 -1.9739  0.6798 -0.9997
23481SOL    HW272451   7.065   2.793   1.768 -0.6419  0.4397 -0.4533
23482SOL     OW72452   2.363   2.501   4.494  0.1920  0.2939  0.2474
23482SOL    HW172453   2.329   2.446   4.564 -1.0439 -0.8821 -1.2046
23482SOL    HW272454   2.378   2.586   4.535  0.6794 -0.6789  2.1916
23483SOL     OW72455   9.282   3.049   0.513  0.4431  0.1320  0.2488
23483SOL    HW172456   9.273   3.072   0.606 -0.9062  1.2395 -0.1243
23483SOL    HW272457   9.203   3.083   0.472  0.9461 -0.4801 -1.3006
23484SOL     OW72458   4.405   8.041   0.319 -0.3047 -0.0570  0.1324
23484SOL    HW172459   4.312   8.025   0.338 -0.6740  2.5837  0.9910
23484SOL    HW272460   4.442   8.070   0.403  0.7041  1.1911 -0.6972
23485SOL     OW72461   8.510   3.005  10.692 -0.9565  0.0609 -0.1430
23485SOL    HW172462   8.553   3.045  10.767  1.3090  0.8848 -1.7847
23485SOL    HW272463   8.509   3.072  10.624 -1.4468 -1.1487 -1.4054
23486SOL     OW72464   3.131   8.768   3.474  0.1532 -0.7261 -0.3033
23486SOL    HW172465   3.226   8.784   3.480 -0.0548  0.7429 -0.5094
23486SOL    HW272466   3.097   8.799   3.558 -0.2702 -0.1200 -0.6886
23487SOL     OW72467   3.747   7.914   4.823 -1.0755  0.5179 -0.5011
23487SOL    HW172468   3.693   7.835   4.817  0.6677 -0.6818 -1.4672
23487SOL    HW272469   3.787   7.908   4.910 -0.4819 -0.0296 -0.7969
23488SOL     OW72470   4.539   1.537   3.058  0.0762 -0.2528 -0.1492
23488SOL    HW172471   4.537   1.486   3.139 -1.3439 -0.0420 -0.0123
23488SOL    HW272472   4.447   1.542   3.032  0.4034  0.6274 -1.1784
23489SOL     OW72473   3.827   0.579   7.423 -0.2472 -0.3097 -0.4415
23489SOL    HW172474   3.914   0.589   7.463 -0.0995  1.0468 -1.0341
23489SOL    HW272475   3.836   0.503   7.365  0.7015  0.1012 -0.8556
23490SOL     OW72476   6.254   0.167   0.046  0.1918  0.6436  0.7754
23490SOL    HW172477   6.341   0.162   0.085  1.2303 -1.5909 -1.4692
23490SOL    HW272478   6.270   0.180  -0.048 -1.7010 -1.9043 -0.0331
23491SOL     OW72479   6.091   4.730   8.307  0.5842 -0.7183  0.3815
23491SOL    HW172480   6.059   4.746   8.218 -2.0054 -1.8993  0.9877
23491SOL    HW272481   6.103   4.817   8.345  1.5746 -0.2043 -1.0374
23492SOL     OW72482  10.443   1.873   0.416 -0.2518 -0.1928 -0.3620
23492SOL    HW172483  10.498   1.950   0.403  0.3123 -0.3613  0.9068
23492SOL    HW272484  10.410   1.882   0.506 -1.1212 -0.8410 -0.6026
23493SOL     OW72485  10.843   7.688   3.819  0.0627 -0.3027  0.4270
23493SOL    HW172486  10.815   7.660   3.732  2.2011 -0.5785 -0.2465
23493SOL    HW272487  10.830   7.782   3.820 -2.3625 -0.5944  0.7953
23494SOL     OW72488   2.502   6.778   2.260 -0.1427  0.2372  0.3599
23494SOL    HW172489   2.462   6.864   2.243 -1.9981 -0.5124  0.7181
23494SOL    HW272490   2.451   6.717   2.207  1.6510 -0.5967 -0.5022
23495SOL     OW72491   0.532   1.077   8.676 -1.2807  0.0815 -0.1855
23495SOL    HW172492   0.470   1.074   8.749 -1.3345 -0.2717 -0.2435
23495SOL    HW272493   0.581   1.158   8.690  0.4116 -1.1737  1.6473
23496SOL     OW72494   1.851   2.021   4.297 -0.3488  0.0881  0.5342
23496SOL    HW172495   1.882   2.009   4.387  0.4868  1.8407  0.5173
23496SOL    HW272496   1.811   2.108   4.297 -1.4576 -0.3933 -0.5048
23497SOL     OW72497   6.323   5.544   5.432 -0.2982  0.3515 -0.8376
23497SOL    HW172498   6.385   5.472   5.435 -0.7273  0.0154  1.5602
23497SOL    HW272499   6.374   5.619   5.402  1.0081 -0.1817 -0.0193
23498SOL     OW72500   7.058   2.068  10.719 -0.5104  0.1734 -0.4368
23498SOL    HW172501   7.014   2.116  10.649  0.6240  0.8635 -0.7028
23498SOL    HW272502   7.097   2.136  10.774 -0.5487 -0.3952  0.3185
23499SOL     OW72503   2.117   6.935   6.162 -0.4954  0.3711  0.7614
23499SOL    HW172504   2.075   6.945   6.248  0.2405 -0.7477  1.2925
23499SOL    HW272505   2.071   6.862   6.121  0.7317 -0.7286  1.2632
23500SOL     OW72506   8.632   6.044   7.332  0.7211  0.1693  0.1505
23500SOL    HW172507   8.562   6.063   7.269  0.8825 -2.4297 -0.9476
23500SOL    HW272508   8.612   6.099   7.408  0.1566  2.9617 -1.8560
23501SOL     OW72509   0.471   2.109   5.423  0.4287 -0.7145  0.0740
23501SOL    HW172510   0.432   2.035   5.469  3.0218 -0.9228  2.1578
23501SOL    HW272511   0.513   2.071   5.347 -1.8596 -0.6987 -1.2878
23502SOL     OW72512   6.120   8.065   2.870 -0.2701  0.7168  0.1203
23502SOL    HW172513   6.168   8.012   2.934  1.4159  0.6847 -1.0981
23502SOL    HW272514   6.069   8.001   2.820 -0.2196  0.5446  0.2849
23503SOL     OW72515   6.721   4.026   0.043 -0.1972  0.0383  0.5620
23503SOL    HW172516   6.803   4.069   0.018 -1.0660  1.3914 -0.0563
23503SOL    HW272517   6.654   4.094   0.035 -1.4765 -1.1767  0.5036
23504SOL     OW72518  11.095   4.629   1.185 -0.1914 -0.6010  0.6284
23504SOL    HW172519  11.071   4.701   1.127  0.4285 -0.0526  1.0432
23504SOL    HW272520  11.118   4.557   1.125 -3.4626 -1.4297  0.1891
23505SOL     OW72521   7.626   5.783   2.430  0.0828 -0.0345 -0.7490
23505SOL    HW172522   7.580   5.815   2.508 -0.6135 -2.6957  0.0273
23505SOL    HW272523   7.598   5.842   2.360 -3.0370 -0.3431  0.0999
23506SOL     OW72524   6.565   7.982   2.628 -0.0346 -0.2672 -0.1470
23506SOL    HW172525   6.539   8.064   2.586 -0.8580 -0.3414  0.1970
23506SOL    HW272526   6.616   8.010   2.704 -1.2671 -0.0158  0.6155
23507SOL     OW72527   7.435   2.379   0.336 -0.5655  0.7444  0.5213
23507SOL    HW172528   7.412   2.370   0.244 -0.2219  1.8249  0.3168
23507SOL    HW272529   7.355   2.357   0.384 -0.5554 -0.5079  0.0079
23508SOL     OW72530   3.495   0.999   7.005 -0.1901  0.1591  0.8403
23508SOL    HW172531   3.576   1.005   7.055  1.4330 -0.9671 -1.4961
23508SOL    HW272532   3.474   1.089   6.981  1.2088  0.3555  0.2704
23509SOL     OW72533   1.402   2.985   0.675  0.1454 -0.1813  0.1267
23509SOL    HW172534   1.429   3.013   0.762 -0.3911 -0.8204  0.5150
23509SOL    HW272535   1.477   2.936   0.641  0.6055  0.6290 -0.0473
23510SOL     OW72536   8.088   3.982   6.857 -0.0813  0.1288  0.1336
23510SOL    HW172537   8.155   3.959   6.792  2.3522  0.6866  2.2957
23510SOL    HW272538   8.104   3.924   6.931 -2.2330  0.0933  0.6409
23511SOL     OW72539   0.589   8.660   6.466  0.0058 -0.1341 -0.2987
23511SOL    HW172540   0.633   8.744   6.457 -1.3531  0.5083 -1.5318
23511SOL    HW272541   0.659   8.595   6.461  1.1196  0.8971  1.0361
23512SOL     OW72542   2.607   5.100   0.121  0.3794 -0.0705  0.1952
23512SOL    HW172543   2.619   5.148   0.203 -0.0019 -0.4177  0.4642
23512SOL    HW272544   2.530   5.140   0.081  0.7941  0.3546 -0.1875
23513SOL     OW72545   1.956   5.551   5.186 -0.1718  0.0121 -0.2864
23513SOL    HW172546   2.027   5.559   5.123  0.8311 -1.9931  0.4825
23513SOL    HW272547   1.956   5.458   5.210 -0.6893  0.6118  2.4030
23514SOL     OW72548   2.401   2.199   6.763 -0.0063  0.2953  0.0519
23514SOL    HW172549   2.419   2.105   6.767 -1.4862 -0.0566 -0.8824
23514SOL    HW272550   2.486   2.238   6.741  0.5580 -0.8435  0.1001
23515SOL     OW72551   7.306  11.003  10.844 -0.1254 -0.0351 -0.8562
23515SOL    HW172552   7.326  11.096  10.833 -0.4467  0.2216  0.5266
23515SOL    HW272553   7.300  10.991  10.939 -0.4060 -1.4007 -1.0299
23516SOL     OW72554   3.544   3.766   9.323 -0.3431 -0.3198  0.7327
23516SOL    HW172555   3.481   3.805   9.262  0.0696  0.4348  0.7790
23516SOL    HW272556   3.621   3.747   9.269 -1.3682 -3.4683  0.1155
23517SOL     OW72557   2.555  10.040  10.241  0.1416 -0.2423  0.1784
23517SOL    HW172558   2.588  10.059  10.154  0.1463  1.2541  0.4856
23517SOL    HW272559   2.604   9.962  10.268  0.9671 -0.0568 -0.7036
23518SOL     OW72560   3.190   8.991  10.304 -0.3182  0.2127  0.2925
23518SOL    HW172561   3.259   9.034  10.356 -1.0381  2.7232 -0.6890
23518SOL    HW272562   3.222   8.996  10.214 -1.7487  1.4827 -0.1837
23519SOL     OW72563   4.347   0.665   3.405 -0.2258 -0.3133 -0.6551
23519SOL    HW172564   4.379   0.699   3.488 -0.5240  0.6801 -0.9373
23519SOL    HW272565   4.414   0.691   3.341 -1.4734  1.6836 -1.2324
23520SOL     OW72566  10.919  10.182   9.604 -0.3378  0.2622  0.1218
23520SOL    HW172567  10.890  10.260   9.557  1.5095  0.1637 -1.3162
23520SOL    HW272568  10.963  10.216   9.682 -0.6127  0.5860  0.1375
23521SOL     OW72569   9.896  10.319  10.768  0.6029 -0.8243 -0.3419
23521SOL    HW172570   9.894  10.310  10.864 -0.8802  0.8614 -0.1643
23521SOL    HW272571   9.969  10.378  10.751 -0.6400  0.8894  0.0120
23522SOL     OW72572   4.733   0.774   5.840 -0.2623 -0.2330 -0.0840
23522SOL    HW172573   4.646   0.807   5.819 -0.3923 -0.0785  0.6854
23522SOL    HW272574   4.719   0.681   5.858  0.0991 -0.7477 -2.2213
23523SOL     OW72575   6.456   6.741   0.614  0.3731 -0.4514 -0.1059
23523SOL    HW172576   6.483   6.827   0.582  0.4179  0.0669  1.2466
23523SOL    HW272577   6.528   6.712   0.669  0.5886 -1.6111 -0.9560
23524SOL     OW72578   9.479   8.950  10.776 -0.5905 -0.5603 -0.2004
23524SOL    HW172579   9.482   9.032  10.727 -2.5994 -0.0210  0.4931
23524SOL    HW272580   9.531   8.967  10.855  0.5924 -0.6230 -0.9419
23525SOL     OW72581   9.325   0.439   2.029 -0.6784 -0.2392 -0.0638
23525SOL    HW172582   9.314   0.525   1.989  1.0885  0.9176  1.7516
23525SOL    HW272583   9.417   0.436   2.055 -1.6405 -0.7532  4.0038
23526SOL     OW72584   0.123   8.459   1.917 -0.1148  0.5349  0.8342
23526SOL    HW172585   0.210   8.437   1.882 -0.2439 -1.3232  1.5523
23526SOL    HW272586   0.137   8.539   1.968  1.5365 -0.5241  2.1730
23527SOL     OW72587   1.729   9.246   6.593 -0.7086 -0.3655 -0.0417
23527SOL    HW172588   1.687   9.202   6.519 -0.2949 -0.6486 -0.1119
23527SOL    HW272589   1.739   9.337   6.565 -1.0106 -0.3633 -0.1377
23528SOL     OW72590   5.204   4.273   4.284  0.4526 -0.1423  0.4630
23528SOL    HW172591   5.164   4.334   4.346  0.4894 -1.4227  1.8075
23528SOL    HW272592   5.143   4.270   4.211  0.1336  1.0027  0.6624
23529SOL     OW72593  10.171   5.088   1.724 -0.2153 -0.5452  0.2337
23529SOL    HW172594  10.174   5.072   1.630 -1.4642  0.2487  0.0307
23529SOL    HW272595  10.103   5.154   1.735 -0.3342 -0.8698  1.7295
23530SOL     OW72596   7.008   1.672   0.562 -0.9205 -0.3706 -0.1815
23530SOL    HW172597   6.958   1.610   0.616 -0.2270  0.3642  1.3556
23530SOL    HW272598   6.953   1.686   0.485 -3.5526  1.0387  1.7870
23531SOL     OW72599   4.122   9.111   0.604  0.3047  0.4090  0.2029
23531SOL    HW172600   4.098   9.160   0.683 -0.2723  0.2047  0.1553
23531SOL    HW272601   4.120   9.177   0.534 -2.1711  0.0324 -0.1759
23532SOL     OW72602   3.963   3.557  10.962  0.2384 -0.6087  0.2742
23532SOL    HW172603   3.981   3.493  11.031 -0.5720 -1.8279 -0.6010
23532SOL    HW272604   4.049   3.573  10.922  0.6969  0.0371  1.4776
23533SOL     OW72605   0.791   7.282   3.347  0.6984  0.1939 -0.0110
23533SOL    HW172606   0.804   7.377   3.343 -1.3751  0.4982 -0.9061
23533SOL    HW272607   0.833   7.249   3.268  1.6614  0.3045  0.4375
23534SOL     OW72608   3.873   4.122   8.333 -0.0173 -0.2462  0.3843
23534SOL    HW172609   3.803   4.112   8.398 -0.4592 -0.1840 -0.0847
23534SOL    HW272610   3.938   4.177   8.377 -0.8869  0.8578  0.3187
23535SOL     OW72611   6.895   5.680   8.932 -0.5184  0.7250  0.3307
23535SOL    HW172612   6.942   5.738   8.872  0.0739  0.8634  0.9154
23535SOL    HW272613   6.896   5.726   9.016 -1.0879  0.4037  0.5136
23536SOL     OW72614   1.900   5.889   4.953  0.0002 -0.3921 -0.3165
23536SOL    HW172615   1.879   5.802   4.919 -1.5864 -0.0082 -0.3651
23536SOL    HW272616   1.876   5.884   5.046  1.0008 -0.3363 -0.0345
23537SOL     OW72617   7.241   3.842   2.763 -0.0720  0.2768  0.3328
23537SOL    HW172618   7.220   3.770   2.822  1.1653 -0.6413 -0.3097
23537SOL    HW272619   7.186   3.827   2.686 -1.0122  0.9577  0.8567
23538SOL     OW72620   5.193   6.376   2.406  0.3569 -0.1637 -1.0189
23538SOL    HW172621   5.243   6.421   2.338 -0.6949  1.3800 -0.8227
23538SOL    HW272622   5.196   6.435   2.481 -0.2749 -0.8673 -0.4186
23539SOL     OW72623   8.966   1.076   1.094  0.2724 -0.3869  0.3370
23539SOL    HW172624   9.041   1.099   1.149  0.8661  1.6781 -1.1812
23539SOL    HW272625   8.923   1.160   1.077 -0.2424 -1.0309 -1.7862
23540SOL     OW72626   8.803  10.777   8.844  0.7317  0.7554 -0.1152
23540SOL    HW172627   8.814  10.715   8.916 -2.6520  0.2733  0.1883
23540SOL    HW272628   8.806  10.863   8.885  0.7702  0.5694  0.2746
23541SOL     OW72629   1.200   4.172   8.760 -0.5740 -0.5314  0.6034
23541SOL    HW172630   1.260   4.118   8.811  0.3069 -2.5435 -2.3112
23541SOL    HW272631   1.114   4.132   8.771 -0.2552 -1.4167 -0.0309
23542SOL     OW72632   9.002   3.615   9.709  0.2877 -0.3318  0.6558
23542SOL    HW172633   8.997   3.555   9.634 -3.0464 -0.6374  0.9755
23542SOL    HW272634   9.029   3.698   9.671  1.0721 -1.0555 -0.4473
23543SOL     OW72635   3.280   3.428   6.477 -0.3079 -0.2350  0.2544
23543SOL    HW172636   3.229   3.356   6.514  1.1581 -1.1528  0.5907
23543SOL    HW272637   3.361   3.427   6.527  0.0528  1.1703 -0.2706
23544SOL     OW72638   9.129   4.899   5.166  0.4224  0.0805 -0.2531
23544SOL    HW172639   9.138   4.981   5.117  1.6853  0.6465  0.8800
23544SOL    HW272640   9.113   4.926   5.256  0.1600 -0.9307  0.0204
23545SOL     OW72641   5.442  10.430   8.181  0.2534 -0.7264 -0.8631
23545SOL    HW172642   5.474  10.370   8.114  1.7804 -0.8078 -0.0963
23545SOL    HW272643   5.438  10.378   8.261  1.9458  0.2327 -0.1042
23546SOL     OW72644   1.863   4.004   8.279  0.2998 -0.0815  0.1954
23546SOL    HW172645   1.849   4.066   8.207  3.1085  1.3250  0.7168
23546SOL    HW272646   1.788   3.945   8.274 -1.5387  2.1864 -1.5451
23547SOL     OW72647   0.106   4.315   0.705 -0.5416 -1.0341  0.2080
23547SOL    HW172648   0.042   4.353   0.766  1.4480  2.8917  0.1778
23547SOL    HW272649   0.083   4.351   0.620  2.0227  1.1983  0.3338
23548SOL     OW72650   6.650   1.700   0.280 -1.3780  0.4010  0.1657
23548SOL    HW172651   6.563   1.682   0.314 -0.2886  0.3972  3.2165
23548SOL    HW272652   6.689   1.761   0.343  0.7101  0.7279 -1.3082
23549SOL     OW72653   4.472   7.567   0.148  0.0704  0.0266  0.5052
23549SOL    HW172654   4.562   7.554   0.179  0.1181  0.3369  0.4973
23549SOL    HW272655   4.424   7.494   0.185  0.2999 -0.0690  0.6195
23550SOL     OW72656   2.242   3.253  11.087  0.2043  0.0579 -0.8088
23550SOL    HW172657   2.233   3.169  11.043 -2.0612 -0.9548  1.3335
23550SOL    HW272658   2.157   3.267  11.129  2.0779  0.8025  3.2625
23551SOL     OW72659   7.576   0.184   3.801 -0.5158  0.5340  0.4953
23551SOL    HW172660   7.483   0.193   3.822 -0.2672  1.1721  1.3706
23551SOL    HW272661   7.609   0.121   3.864 -0.3362  0.3763  0.2427
23552SOL     OW72662   8.236   3.949   0.568 -0.3945  0.5137  0.4783
23552SOL    HW172663   8.169   3.995   0.618 -0.7569 -0.0470  0.5267
23552SOL    HW272664   8.188   3.880   0.522  0.3957 -1.2074  2.0963
23553SOL     OW72665   6.128   6.624   6.100  0.1301 -0.2613  0.5622
23553SOL    HW172666   6.179   6.642   6.021  0.3229 -0.0029  0.7431
23553SOL    HW272667   6.194   6.605   6.167  0.1351  1.9302  1.2859
23554SOL     OW72668   5.058   6.975   8.432  0.2911 -0.0680  0.2983
23554SOL    HW172669   5.142   7.007   8.398 -0.0699 -1.0936 -1.6784
23554SOL    HW272670   5.065   6.880   8.426 -1.2560 -0.1490 -0.5292
23555SOL     OW72671   1.900  10.359   5.251 -0.6197  0.6047  0.5969
23555SOL    HW172672   1.804  10.353   5.256 -0.6143 -1.9618 -0.7551
23555SOL    HW272673   1.921  10.341   5.159  1.1236  3.6583  0.2401
23556SOL     OW72674   8.524   0.504   7.611 -0.0006  0.1269  0.5142
23556SOL    HW172675   8.495   0.435   7.671 -0.6534  1.6457  2.0542
23556SOL    HW272676   8.617   0.486   7.598  0.0133 -0.6254  1.4807
23557SOL     OW72677   1.885   6.734   1.522 -0.1837  0.5508 -0.4230
23557SOL    HW172678   1.922   6.704   1.604  2.5113  1.0376 -1.3711
23557SOL    HW272679   1.868   6.654   1.472 -1.7006  0.2636  0.4906
23558SOL     OW72680   6.762   0.959   1.764  0.2323 -0.0175 -0.4070
23558SOL    HW172681   6.815   0.954   1.684 -0.1719  1.4295 -0.8024
23558SOL    HW272682   6.672   0.951   1.733 -0.0631  2.5123 -0.3939
23559SOL     OW72683   6.291   2.637   1.828 -0.0431 -0.0436 -0.3947
23559SOL    HW172684   6.264   2.704   1.891  1.7343  1.4126 -1.1115
23559SOL    HW272685   6.212   2.584   1.816 -0.4046 -0.6169  3.2426
23560SOL     OW72686   9.629   0.201   9.756 -0.0224  0.2067  0.7779
23560SOL    HW172687   9.717   0.216   9.721  1.0188 -3.3502  1.4526
23560SOL    HW272688   9.573   0.198   9.678  1.0417 -0.6376  0.0100
23561SOL     OW72689   9.263   1.980   7.403  0.7020 -0.2846 -0.2428
23561SOL    HW172690   9.344   2.027   7.385  1.0764 -0.2123  1.4468
23561SOL    HW272691   9.291   1.892   7.428  0.2387 -0.3673 -0.0043
23562SOL     OW72692  10.007   9.578   0.009  0.5132  0.1751  0.7969
23562SOL    HW172693   9.988   9.520  -0.065  0.0746  0.7354  0.4616
23562SOL    HW272694   9.950   9.547   0.079 -0.3146  0.7069  0.3631
23563SOL     OW72695  10.699   8.372  10.315 -0.2384  0.2211  0.1332
23563SOL    HW172696  10.635   8.312  10.278 -0.3673  1.3463 -1.5935
23563SOL    HW272697  10.757   8.393  10.241  0.6605  1.0848  1.0547
23564SOL     OW72698   9.253   0.327   7.406  0.4552 -0.4270 -0.5131
23564SOL    HW172699   9.235   0.408   7.357  2.3303  0.9582  0.9571
23564SOL    HW272700   9.347   0.313   7.396  0.6468 -0.8744  1.4821
23565SOL     OW72701  10.975  11.096   7.500  0.0260  0.0750 -0.9208
23565SOL    HW172702  10.966  11.036   7.426  0.9205 -0.4964 -0.5902
23565SOL    HW272703  10.897  11.080   7.553  0.4064 -1.0617 -0.6659
23566SOL     OW72704   3.817   8.351   0.655  0.3052  0.4698 -0.4588
23566SOL    HW172705   3.857   8.393   0.579  2.0297  0.8221  0.5974
23566SOL    HW272706   3.773   8.422   0.702  4.1586  1.5492  1.9322
23567SOL     OW72707   5.681   1.276   6.383 -0.2620 -0.6609  0.3272
23567SOL    HW172708   5.770   1.310   6.388 -0.2720 -0.8053  2.0297
23567SOL    HW272709   5.680   1.223   6.304  0.8872  0.0843 -0.2199
23568SOL     OW72710   0.498   1.217   0.846  0.4918  0.1539 -0.5212
23568SOL    HW172711   0.467   1.252   0.930 -0.7603 -1.3711 -0.3088
23568SOL    HW272712   0.419   1.207   0.793  0.8703 -1.6389 -0.8134
23569SOL     OW72713  10.287   1.023   9.392  0.7417  0.5638 -0.0162
23569SOL    HW172714  10.253   1.081   9.460 -0.9872 -0.4340  0.0128
23569SOL    HW272715  10.240   1.048   9.312 -0.4824 -1.1262  0.1170
23570SOL     OW72716   9.251   1.988  10.917  0.0486  0.2019  0.2198
23570SOL    HW172717   9.181   1.964  10.856  1.3385  2.1184 -2.2168
23570SOL    HW272718   9.283   1.904  10.951 -2.3270 -0.7946  0.2186
23571SOL     OW72719   0.340  10.896   1.673 -0.2023  0.0510 -0.1232
23571SOL    HW172720   0.301  10.866   1.591 -0.5388  0.8328 -0.2587
23571SOL    HW272721   0.435  10.888   1.659 -0.2682 -0.1891 -0.4414
23572SOL     OW72722   2.760   9.194   4.217 -0.3403  0.1940 -0.2720
23572SOL    HW172723   2.679   9.216   4.170  0.4376  0.4284 -1.5300
23572SOL    HW272724   2.794   9.278   4.247 -0.6513  0.0774  0.4188
23573SOL     OW72725   3.597   6.410  10.950  0.2028 -0.8067  0.4836
23573SOL    HW172726   3.528   6.425  10.885  1.1432  1.1654 -0.1408
23573SOL    HW272727   3.579   6.322  10.984 -2.9179 -0.2165  0.7297
23574SOL     OW72728   5.118   9.685   4.217 -0.4231 -0.3313 -0.3714
23574SOL    HW172729   5.165   9.617   4.169  0.1462 -0.7304  0.7428
23574SOL    HW272730   5.184   9.751   4.237 -0.3189 -0.8532  1.1233
23575SOL     OW72731   9.423   1.141   4.076  0.1759 -0.2428  0.8212
23575SOL    HW172732   9.344   1.102   4.115  0.5175 -2.1729 -0.3104
23575SOL    HW272733   9.391   1.182   3.995  0.1921 -0.1404  0.8659
23576SOL     OW72734   8.926  10.099  10.973 -0.7812 -0.2584  0.1608
23576SOL    HW172735   8.838  10.131  10.992 -1.0380 -1.0837  0.3724
23576SOL    HW272736   8.971  10.175  10.935 -1.6601  0.0966 -0.2017
23577SOL     OW72737   1.175   5.485   2.099 -0.1013  0.0874 -0.0849
23577SOL    HW172738   1.149   5.482   2.007  1.1880  0.0379 -0.4650
23577SOL    HW272739   1.159   5.397   2.132 -3.3398  0.7931  0.5823
23578SOL     OW72740   1.677   9.716  10.982 -0.8955 -0.2011  0.9799
23578SOL    HW172741   1.657   9.803  10.946  3.0882 -0.0980 -1.6376
23578SOL    HW272742   1.721   9.734  11.065 -0.1143  0.3495  0.4665
23579SOL     OW72743   3.667  10.594   1.891 -0.6398 -0.5060 -0.1362
23579SOL    HW172744   3.755  10.571   1.921 -0.7028 -0.9065 -0.2546
23579SOL    HW272745   3.632  10.513   1.854 -1.1466 -0.4064  0.1192
23580SOL     OW72746   1.451   2.573   0.272 -0.0565  0.3384 -0.2454
23580SOL    HW172747   1.395   2.498   0.292  0.6841  0.0212  0.7194
23580SOL    HW272748   1.410   2.614   0.196 -1.5989  0.1172  0.4363
23581SOL     OW72749   0.660  10.822  10.306 -1.0705  0.0567 -0.2484
23581SOL    HW172750   0.606  10.744  10.321  1.2707 -1.5925  0.1932
23581SOL    HW272751   0.598  10.889  10.279 -3.1281 -2.1652 -1.4594
23582SOL     OW72752   0.119  10.508  10.059 -0.3961 -0.1992 -0.5282
23582SOL    HW172753   0.127  10.424  10.103  0.4486  0.6496  0.9938
23582SOL    HW272754   0.196  10.513  10.002  0.1803  0.0407  0.2647
23583SOL     OW72755   3.688   3.812   7.587  0.0400 -0.2125  0.3032
23583SOL    HW172756   3.613   3.753   7.585  0.2351 -0.4475 -0.2992
23583SOL    HW272757   3.750   3.775   7.523 -1.1720  2.3969 -2.6654
23584SOL     OW72758   9.058   9.294   3.168  0.0763 -0.1058 -0.0380
23584SOL    HW172759   8.969   9.278   3.198 -0.1774 -1.6048 -1.4478
23584SOL    HW272760   9.113   9.258   3.238 -0.3703  0.9712  0.9166
23585SOL     OW72761   9.440   3.564   4.332 -0.3002  0.5977 -0.5833
23585SOL    HW172762   9.403   3.507   4.264  0.9364  0.8449 -1.4896
23585SOL    HW272763   9.507   3.510   4.375  2.9538  2.0944 -3.3242
23586SOL     OW72764   7.555   6.466  10.541 -0.5385  0.1128  0.0844
23586SOL    HW172765   7.571   6.398  10.475 -1.2069  2.5925 -2.8535
23586SOL    HW272766   7.642   6.492  10.571 -0.2684 -1.8802  1.1943
23587SOL     OW72767   1.688   0.956   7.518 -0.4955  0.3678 -0.1127
23587SOL    HW172768   1.682   0.943   7.612 -1.4643  2.8055  0.2360
23587SOL    HW272769   1.598   0.969   7.489 -0.1394  0.4952 -1.2391
23588SOL     OW72770   6.270   9.813   8.985  0.0419 -0.3650 -0.3324
23588SOL    HW172771   6.234   9.795   9.072 -1.1273  0.4247 -0.6157
23588SOL    HW272772   6.289   9.907   8.986 -0.3427 -0.2730 -1.0478
23589SOL     OW72773   8.188   2.409   6.550  0.3372  0.4330 -0.5535
23589SOL    HW172774   8.282   2.426   6.550  0.4765 -0.3057 -0.5359
23589SOL    HW272775   8.174   2.355   6.628  0.0060  0.0065 -0.9050
23590SOL     OW72776   2.791   4.686   8.901 -0.0592  0.2901  0.4472
23590SOL    HW172777   2.866   4.655   8.952  0.3455 -3.5177 -2.0488
23590SOL    HW272778   2.829   4.746   8.836  0.9078 -1.4768 -0.6885
23591SOL     OW72779  10.453   8.980   2.586  0.0522  0.1766  0.1023
23591SOL    HW172780  10.536   8.939   2.609 -0.3321 -1.3684 -1.0804
23591SOL    HW272781  10.406   8.989   2.670  0.2995 -1.5314  0.4574
23592SOL     OW72782   7.094   3.382   4.040  0.8333 -0.1959  0.5643
23592SOL    HW172783   7.107   3.290   4.017  2.2887  0.0730  0.2178
23592SOL    HW272784   7.051   3.420   3.964  2.5629 -0.0528 -0.3836
23593SOL     OW72785   8.410   4.156   0.314 -0.0441 -0.5612  0.0631
23593SOL    HW172786   8.406   4.103   0.235 -1.5259  0.7223 -0.7791
23593SOL    HW272787   8.387   4.096   0.385  0.9901 -1.6479 -0.4797
23594SOL     OW72788   1.405   7.526   6.703 -0.6370 -0.0405  0.5287
23594SOL    HW172789   1.454   7.606   6.687 -3.3947  1.3296 -2.0590
23594SOL    HW272790   1.347   7.547   6.776 -1.2533  0.3054 -0.0514
23595SOL     OW72791   0.849   2.505   4.894 -0.0629  0.2788  0.1421
23595SOL    HW172792   0.771   2.557   4.916  0.7672  1.6920 -0.0994
23595SOL    HW272793   0.921   2.555   4.932  0.9904  0.4714 -1.9625
23596SOL     OW72794   7.771   9.264   4.846  0.0853  0.0721 -0.0726
23596SOL    HW172795   7.817   9.291   4.925  4.0318 -0.6263 -1.8639
23596SOL    HW272796   7.783   9.337   4.785 -2.4995  0.4204 -0.2606
23597SOL     OW72797   0.062   6.278   7.169  0.3924  0.2186 -0.6119
23597SOL    HW172798   0.104   6.360   7.194  2.0913 -0.7833 -0.0260
23597SOL    HW272799   0.046   6.233   7.252 -0.7882  0.0635 -0.9073
23598SOL     OW72800   2.313   8.692   0.902 -0.5448  0.3236 -0.8177
23598SOL    HW172801   2.361   8.678   0.984 -0.7171 -0.2684 -0.8125
23598SOL    HW272802   2.235   8.638   0.911 -2.6194  3.2085  0.2919
23599SOL     OW72803   3.681  10.927   8.872 -0.4579  0.0985  0.0599
23599SOL    HW172804   3.743  10.940   8.943 -1.7463 -0.4634  1.3498
23599SOL    HW272805   3.710  10.846   8.829 -0.7947 -0.6797  1.2420
23600SOL     OW72806   7.587   9.705   1.407 -0.5106 -0.2254  0.2459
23600SOL    HW172807   7.534   9.650   1.350 -0.4997 -1.1235  1.0694
23600SOL    HW272808   7.610   9.781   1.353 -1.5854 -0.4130 -0.5072
23601SOL     OW72809   1.240   8.885   5.120  0.5214 -0.1950  0.1665
23601SOL    HW172810   1.303   8.952   5.147 -0.6305  1.7931 -1.8076
23601SOL    HW272811   1.155   8.928   5.122 -0.7595 -2.5508  1.8439
23602SOL     OW72812   4.088   3.386   0.665 -0.2683 -0.0334 -0.2673
23602SOL    HW172813   4.145   3.376   0.589 -0.6635  2.7138 -1.0253
23602SOL    HW272814   4.017   3.323   0.650 -0.3247  0.4252 -2.2020
23603SOL     OW72815   6.566   8.012   8.856  0.3020 -0.0665  0.1751
23603SOL    HW172816   6.516   8.035   8.934 -0.2221 -0.4338 -0.0467
23603SOL    HW272817   6.507   8.033   8.783  1.2916  1.5945 -0.2065
23604SOL     OW72818   6.825   4.150   3.533  0.1341 -0.3548 -0.2791
23604SOL    HW172819   6.892   4.169   3.599  0.2948 -0.1232 -0.5088
23604SOL    HW272820   6.796   4.061   3.553 -1.6754  0.5789  1.7549
23605SOL     OW72821   1.051   2.494   8.176  0.3795  0.2615  0.8845
23605SOL    HW172822   1.138   2.513   8.142  0.3419 -0.3739  0.4117
23605SOL    HW272823   1.030   2.408   8.141 -1.0557  1.0148 -0.2797
23606SOL     OW72824   9.135   2.196  10.083 -0.1778  0.0340  1.1015
23606SOL    HW172825   9.054   2.243  10.101 -1.5247 -1.9951  0.7814
23606SOL    HW272826   9.146   2.138  10.158  0.2047 -0.6749  0.5070
23607SOL     OW72827   7.798   1.757  10.206 -0.1560  0.2192 -0.2224
23607SOL    HW172828   7.737   1.684  10.204 -1.5346  1.2277  1.8112
23607SOL    HW272829   7.876   1.722  10.249  0.9298 -1.1166 -2.9778
23608SOL     OW72830   2.816   5.238   0.009 -0.3743  0.3374 -0.0251
23608SOL    HW172831   2.784   5.202  -0.074  2.3730  0.9845 -1.5160
23608SOL    HW272832   2.830   5.162   0.065 -0.4854 -0.3189 -0.8675
23609SOL     OW72833   7.436   7.476   0.054 -0.1004 -0.1231  0.4184
23609SOL    HW172834   7.356   7.490   0.106 -1.0499  0.0862 -1.0292
23609SOL    HW272835   7.413   7.404  -0.006  1.3378 -1.1087  0.9978
23610SOL     OW72836   0.616   3.584   0.752 -0.3998  0.1056  0.3131
23610SOL    HW172837   0.689   3.549   0.803  0.5805  0.2800 -0.9196
23610SOL    HW272838   0.583   3.657   0.805 -0.0005 -0.2747  1.1101
23611SOL     OW72839   7.261  10.151   3.942 -0.4166  0.1482 -0.4199
23611SOL    HW172840   7.325  10.187   3.880  0.4047 -1.1367 -0.3436
23611SOL    HW272841   7.283  10.192   4.026 -0.4122  0.5500 -0.6144
23612SOL     OW72842   1.319   6.086   6.687 -0.5243  0.1482  0.7844
23612SOL    HW172843   1.294   6.144   6.616 -0.5419  0.7983  1.3084
23612SOL    HW272844   1.345   6.005   6.644 -0.3548  0.5948  0.0274
23613SOL     OW72845   2.184   8.353   5.017 -0.2577 -0.1030  0.1583
23613SOL    HW172846   2.130   8.376   4.942 -0.4073  1.2082  0.6402
23613SOL    HW272847   2.124   8.307   5.077 -1.0672  1.8805  0.9653
23614SOL     OW72848   6.057   0.829   4.468 -0.0195 -0.0816  0.1773
23614SOL    HW172849   5.986   0.786   4.421 -0.9816  2.6746 -1.1024
23614SOL    HW272850   6.013   0.886   4.531  0.9623  1.6509 -0.6053
23615SOL     OW72851   5.294   5.985   6.848 -0.1860  0.6217 -0.3515
23615SOL    HW172852   5.387   6.001   6.861 -0.0286 -0.5987  0.1466
23615SOL    HW272853   5.251   6.033   6.919  0.1159  0.6264 -0.1722
23616SOL     OW72854   0.487   7.626   5.830  0.4148  0.1320  0.7844
23616SOL    HW172855   0.532   7.655   5.910  0.7826 -0.4622  0.8034
23616SOL    HW272856   0.449   7.541   5.854  0.3188  0.0671  0.4014
23617SOL     OW72857   4.130   5.682   9.872 -0.2437 -0.1567  0.1660
23617SOL    HW172858   4.204   5.641   9.916 -1.7746 -3.0290  0.3194
23617SOL    HW272859   4.064   5.694   9.940  0.2724  3.3004  0.2493
23618SOL     OW72860   4.032  10.762   4.736  0.5823 -0.2418  0.8085
23618SOL    HW172861   3.977  10.817   4.791  1.4250  0.4567  0.9766
23618SOL    HW272862   4.032  10.806   4.651 -2.3561 -2.3542 -0.4696
23619SOL     OW72863   5.548   5.888   5.624 -0.5098  0.7568 -0.1141
23619SOL    HW172864   5.504   5.958   5.672 -0.5940  0.2059  0.6248
23619SOL    HW272865   5.570   5.927   5.539 -0.6969  1.6253  0.2292
23620SOL     OW72866   2.492   5.137   1.506  0.1873 -0.4717 -0.1264
23620SOL    HW172867   2.437   5.101   1.436 -3.3859 -0.2112  2.2711
23620SOL    HW272868   2.467   5.229   1.511  3.7897  0.7624 -1.3193
23621SOL     OW72869   2.121   2.019   1.442  0.6734  0.4193 -0.2169
23621SOL    HW172870   2.089   2.085   1.380 -0.0518  0.0383 -0.2599
23621SOL    HW272871   2.188   2.064   1.492 -0.0509  1.3001 -0.0132
23622SOL     OW72872   0.549   9.728  10.932 -0.6641 -0.2581  0.2446
23622SOL    HW172873   0.605   9.696  10.862  0.4631 -0.7881  1.3498
23622SOL    HW272874   0.599   9.798  10.974 -0.7264 -0.8655  1.3663
23623SOL     OW72875   3.658   1.459   4.952 -0.1410 -0.6266  0.1248
23623SOL    HW172876   3.605   1.380   4.965 -3.1409  1.0574 -0.8985
23623SOL    HW272877   3.694   1.479   5.039  1.1300 -3.3009  0.3017
23624SOL     OW72878   8.978   3.808  10.306  0.1700  0.6186 -0.0158
23624SOL    HW172879   9.021   3.793  10.222 -1.4860 -1.3126 -0.6057
23624SOL    HW272880   8.885   3.798  10.287 -0.3094  1.1843  1.8636
23625SOL     OW72881   9.319  10.087  10.583 -0.2030  0.2865  0.4440
23625SOL    HW172882   9.380  10.023  10.546 -2.7180 -0.2598 -3.3606
23625SOL    HW272883   9.348  10.171  10.547 -0.8874  0.1898 -0.3866
23626SOL     OW72884   8.868   3.039   6.270  0.9092 -0.3789  0.3856
23626SOL    HW172885   8.811   2.977   6.314 -0.1509  0.6800  0.5591
23626SOL    HW272886   8.879   3.110   6.333  0.2779  0.6382 -0.6058
23627SOL     OW72887   1.391   0.479   1.517 -0.5311  0.4181  0.2260
23627SOL    HW172888   1.332   0.530   1.462  0.7450  0.9210 -0.7334
23627SOL    HW272889   1.388   0.390   1.480  1.6702  1.1193 -1.9334
23628SOL     OW72890   6.832   7.520  10.080  0.1319 -0.4086 -0.2674
23628SOL    HW172891   6.827   7.425  10.072  1.0204 -0.7326  2.0603
23628SOL    HW272892   6.804   7.538  10.169  4.6395  0.8973  1.1858
23629SOL     OW72893   2.121  10.999   1.606  0.2443 -0.4152  0.3525
23629SOL    HW172894   2.067  11.040   1.673  0.5281 -1.7383  1.4319
23629SOL    HW272895   2.207  11.039   1.617 -0.2855  1.2232 -0.9483
23630SOL     OW72896   6.082   6.893   6.183  0.0540  0.1151 -0.1758
23630SOL    HW172897   6.108   6.880   6.274  0.6931  0.7332 -0.2622
23630SOL    HW272898   6.082   6.805   6.145 -0.4787 -0.1782  0.4823
23631SOL     OW72899   2.698   3.741   1.185  0.7938 -0.1390 -0.5159
23631SOL    HW172900   2.645   3.819   1.194 -0.8647 -1.1511 -1.0198
23631SOL    HW272901   2.774   3.756   1.241  0.8242  2.0473 -1.0535
23632SOL     OW72902   4.939  11.009   1.951 -0.8042 -0.0032 -0.1654
23632SOL    HW172903   4.956  11.101   1.929 -0.6730  0.3306  1.2032
23632SOL    HW272904   4.888  10.975   1.878 -1.4063  1.3440 -0.3990
23633SOL     OW72905   5.978  11.025   5.085  0.7541  0.4399  0.4767
23633SOL    HW172906   5.989  11.110   5.043 -1.1643 -0.2308 -1.5302
23633SOL    HW272907   5.889  10.999   5.064  0.9958 -1.6830  1.8259
23634SOL     OW72908   3.768   5.308   2.178 -0.3341 -0.7526  0.0168
23634SOL    HW172909   3.780   5.313   2.083 -1.3215  0.8930 -0.0673
23634SOL    HW272910   3.696   5.369   2.196  0.9999  0.3302  2.0278
23635SOL     OW72911   1.383   4.853  10.432 -0.6969  0.2293 -0.4537
23635SOL    HW172912   1.401   4.764  10.462  1.0082  0.2460 -1.3105
23635SOL    HW272913   1.458   4.904  10.462 -1.3860  1.2799 -0.4462
23636SOL     OW72914   3.769   7.638   0.429  0.7081  0.0620  0.2404
23636SOL    HW172915   3.762   7.697   0.504  0.0395 -0.8871  0.9423
23636SOL    HW272916   3.695   7.577   0.439  0.1322  0.3821 -1.5950
23637SOL     OW72917   4.813   4.401   0.874 -0.5939  0.1668  0.0774
23637SOL    HW172918   4.725   4.378   0.842 -0.1308  0.1110 -1.1980
23637SOL    HW272919   4.839   4.476   0.821  0.7807 -0.8267 -0.6905
23638SOL     OW72920  10.605   6.451  10.350  0.5652  0.6627  0.4509
23638SOL    HW172921  10.577   6.464  10.440 -1.3885  3.3339 -0.4239
23638SOL    HW272922  10.549   6.381  10.317  0.0261  0.9293  0.7975
23639SOL     OW72923   2.970  10.230   7.595  0.7242  0.1118 -0.2800
23639SOL    HW172924   3.044  10.232   7.656  1.4565 -0.0640 -1.1578
23639SOL    HW272925   2.905  10.174   7.638  0.1962  1.9550  1.4944
23640SOL     OW72926   9.245   4.390   4.155 -0.3165 -0.0367 -0.1447
23640SOL    HW172927   9.313   4.324   4.172 -0.3340 -0.1941 -0.6568
23640SOL    HW272928   9.245   4.445   4.233  2.5040  1.8155 -1.2921
23641SOL     OW72929   4.218   4.750  10.072 -0.5043  0.1747 -0.1136
23641SOL    HW172930   4.260   4.679  10.024 -1.7581 -0.0873 -0.8801
23641SOL    HW272931   4.258   4.830  10.038 -1.8285  0.0409 -2.1484
23642SOL     OW72932   3.617   1.584   1.319  0.2475  0.3464 -0.3364
23642SOL    HW172933   3.571   1.665   1.338  0.8297  0.1147  2.4863
23642SOL    HW272934   3.703   1.595   1.359  0.2917 -1.7080  0.2573
23643SOL     OW72935   0.630   7.710   9.316 -0.7321 -0.2459  0.4130
23643SOL    HW172936   0.600   7.801   9.311 -1.5293 -0.5789 -1.9727
23643SOL    HW272937   0.712   7.714   9.366 -0.4861  1.8439 -0.0814
23644SOL     OW72938   0.204   9.958   4.842  0.4064  0.4938 -0.0195
23644SOL    HW172939   0.149   9.883   4.865  1.1917  0.0928  0.5794
23644SOL    HW272940   0.191  10.020   4.914  0.5652  0.4927  0.0101
23645SOL     OW72941   5.919   2.530   7.595  0.1629 -0.1202 -0.2112
23645SOL    HW172942   5.863   2.573   7.660 -2.1455 -2.4342 -0.5259
23645SOL    HW272943   5.890   2.439   7.595  0.1294 -0.2822 -4.3732
23646SOL     OW72944   8.729   0.861   6.517  0.1699  0.0107 -0.0334
23646SOL    HW172945   8.816   0.836   6.547  0.5490  2.1533  0.7647
23646SOL    HW272946   8.670   0.835   6.588  0.2540 -0.5370 -0.1552
23647SOL     OW72947   8.783   3.550   2.304  0.1409  0.0076  0.0838
23647SOL    HW172948   8.876   3.560   2.324  0.7419 -2.9327 -0.7951
23647SOL    HW272949   8.776   3.562   2.209 -0.3436 -0.0171  0.1096
23648SOL     OW72950   3.236   5.488  10.624  0.2160  0.2911  0.1488
23648SOL    HW172951   3.205   5.425  10.560  0.0073  1.2639 -0.7426
23648SOL    HW272952   3.330   5.474  10.628 -0.0255 -1.2020  1.2350
23649SOL     OW72953   2.409   7.196   9.472  0.2314  0.1525 -0.0423
23649SOL    HW172954   2.375   7.126   9.527  0.5103  1.9622  2.6208
23649SOL    HW272955   2.503   7.180   9.469  0.5647  1.2518  2.0761
23650SOL     OW72956  10.913   1.792   8.485 -0.1940 -0.0664 -0.2941
23650SOL    HW172957  10.876   1.880   8.485  2.0138  0.9533  1.3303
23650SOL    HW272958  10.866   1.746   8.554  0.3468  0.6787  0.5933
23651SOL     OW72959   3.171   1.133   7.578 -0.1460 -0.2067 -1.0745
23651SOL    HW172960   3.114   1.057   7.590  1.3935 -1.3246 -0.4980
23651SOL    HW272961   3.222   1.113   7.500 -0.3349  0.6634 -1.4366
23652SOL     OW72962   1.580  10.758   4.845  0.0829  0.7659  0.3017
23652SOL    HW172963   1.561  10.691   4.911 -0.3339  1.1462  0.5752
23652SOL    HW272964   1.542  10.724   4.764  1.1582 -0.0068  0.0964
23653SOL     OW72965   9.774  10.193   5.495 -0.6881 -0.9099 -0.7419
23653SOL    HW172966   9.693  10.152   5.526  0.0240 -0.7442  1.4966
23653SOL    HW272967   9.830  10.195   5.572  1.3461 -0.7280 -2.1657
23654SOL     OW72968   5.687   2.289   6.155  0.5620 -0.2470  0.9356
23654SOL    HW172969   5.646   2.250   6.232 -0.9908 -0.4544  0.0511
23654SOL    HW272970   5.734   2.216   6.114 -2.4339 -1.3744 -0.7795
23655SOL     OW72971   0.565   2.216   1.364  0.4571 -0.2979  0.1915
23655SOL    HW172972   0.523   2.287   1.413  1.8699 -2.0356  4.4189
23655SOL    HW272973   0.659   2.235   1.369  0.7282 -1.2789 -0.6965
23656SOL     OW72974   9.096  10.449   2.653  0.4139  0.4721  0.1248
23656SOL    HW172975   9.158  10.486   2.715  3.1719 -1.9753 -0.9231
23656SOL    HW272976   9.146  10.383   2.605 -3.3676 -2.8701  0.2271
23657SOL     OW72977   5.219   1.297   4.674 -0.1400  0.1439 -0.4489
23657SOL    HW172978   5.276   1.329   4.604 -0.7684 -0.1053 -1.0778
23657SOL    HW272979   5.134   1.337   4.657 -0.2808  0.1387  0.2128
23658SOL     OW72980   7.100   3.514   9.813  0.3602 -0.4015  0.2615
23658SOL    HW172981   7.131   3.439   9.863 -0.6749 -0.8419  0.2611
23658SOL    HW272982   7.080   3.479   9.726  0.3531 -0.0184  0.1035
23659SOL     OW72983   6.160   2.707  10.182 -0.1725  0.2450 -0.3227
23659SOL    HW172984   6.237   2.656  10.158  0.8762  1.9415 -0.7518
23659SOL    HW272985   6.193   2.771  10.246 -1.2467  0.8710 -0.3679
23660SOL     OW72986   2.124   6.525  11.025  0.0248  0.7011 -0.1831
23660SOL    HW172987   2.072   6.583  10.969  0.9080  0.2174 -1.5813
23660SOL    HW272988   2.114   6.438  10.986 -0.0049  0.1854  0.9306
23661SOL     OW72989  10.621   4.801   6.056 -0.1636  0.5908  0.4277
23661SOL    HW172990  10.620   4.785   5.962 -2.2470  0.4935  0.4158
23661SOL    HW272991  10.635   4.714   6.095 -3.0555 -0.0680  0.2142
23662SOL     OW72992   6.752   9.886   7.243 -0.7171  0.7265 -0.0215
23662SOL    HW172993   6.738   9.951   7.174 -2.8993 -0.4296 -0.7850
23662SOL    HW272994   6.686   9.819   7.226 -0.3830 -0.3204  2.3832
23663SOL     OW72995   9.003   9.505   6.471  0.2695 -0.0753 -0.7640
23663SOL    HW172996   9.033   9.540   6.555  0.6005 -0.1997 -0.8261
23663SOL    HW272997   8.934   9.565   6.443 -1.0808 -1.0105  0.4197
23664SOL     OW72998  10.659   7.800   4.707 -0.2438 -0.4571 -0.4294
23664SOL    HW172999  10.589   7.858   4.677 -0.0448  0.6131  1.0224
23664SOL    HW273000  10.662   7.730   4.642 -2.5757 -0.4838 -0.5931
23665SOL     OW73001  10.700   2.275   3.547 -0.0709  0.4673  0.2829
23665SOL    HW173002  10.725   2.275   3.639  1.6864  2.6736 -0.1046
23665SOL    HW273003  10.780   2.300   3.500 -0.5360 -1.8983 -1.9991
23666SOL     OW73004  10.327   9.776   5.905 -0.6017 -0.3777 -0.5651
23666SOL    HW173005  10.309   9.704   5.965  0.0490  2.0819  2.8721
23666SOL    HW273006  10.412   9.755   5.867 -0.9620 -1.9425 -0.5801
23667SOL     OW73007   2.280   4.279   5.094  0.1688 -0.3533  0.2944
23667SOL    HW173008   2.352   4.308   5.038 -0.2258 -0.9520 -0.5365
23667SOL    HW273009   2.205   4.333   5.068  0.7861  1.8293  2.6597
23668SOL     OW73010   1.076   0.869   5.489 -0.0928 -0.5770 -0.1635
23668SOL    HW173011   1.010   0.807   5.456  2.8788 -2.5483 -2.9169
23668SOL    HW273012   1.024   0.944   5.521 -3.6278 -1.8578 -2.3311
23669SOL     OW73013   3.856   0.103   1.206 -0.1674 -0.3099  0.3242
23669SOL    HW173014   3.763   0.106   1.184  0.1253 -0.3848 -1.0343
23669SOL    HW273015   3.901   0.110   1.122  1.0330 -1.8195  0.7742
23670SOL     OW73016   0.185  10.463   9.312  0.0731 -0.5192 -0.1618
23670SOL    HW173017   0.174  10.546   9.266  0.5046 -0.4806 -0.1933
23670SOL    HW273018   0.096  10.427   9.318 -0.4821  0.9868  1.8210
23671SOL     OW73019   2.509   3.516  10.042  0.9960 -0.7899 -1.1112
23671SOL    HW173020   2.579   3.522  10.107 -1.0124  0.4188  1.0764
23671SOL    HW273021   2.518   3.596   9.991  0.3558  0.1309  0.1564
23672SOL     OW73022   3.202   7.290   3.104  0.3778 -0.3966 -0.6274
23672SOL    HW173023   3.278   7.248   3.144  1.4101  0.8094 -1.2270
23672SOL    HW273024   3.142   7.219   3.084  0.6657 -1.2249  1.2619
23673SOL     OW73025   0.269   4.410   3.522 -0.6335  0.8702 -0.3928
23673SOL    HW173026   0.316   4.362   3.590 -0.8990  1.6776  0.3647
23673SOL    HW273027   0.312   4.383   3.440  0.0842  0.3669  0.1385
23674SOL     OW73028   2.928   9.287   3.509 -0.1934 -0.5802  0.1375
23674SOL    HW173029   2.851   9.233   3.490 -1.0206  0.9448 -1.0495
23674SOL    HW273030   2.970   9.299   3.424  0.6263 -0.3237  0.5720
23675SOL     OW73031   3.789   9.581   5.726  0.1076  0.2189 -0.9600
23675SOL    HW173032   3.811   9.495   5.690 -0.3957  0.3210 -1.5087
23675SOL    HW273033   3.862   9.637   5.700  0.9604 -0.2608  0.2755
23676SOL     OW73034   2.031   0.743   5.376 -0.6590 -0.0510  0.0724
23676SOL    HW173035   2.033   0.826   5.424 -0.6519  0.1883 -0.3419
23676SOL    HW273036   2.109   0.696   5.406 -0.8529 -0.0620  0.5749
23677SOL     OW73037   2.102   2.298  10.437  0.6171  0.5520  0.4475
23677SOL    HW173038   2.121   2.361  10.367 -1.2754 -0.0243 -0.6365
23677SOL    HW273039   2.183   2.247  10.445  0.8221  0.4930 -1.4913
23678SOL     OW73040   8.342   8.503   8.750 -1.1457 -0.5994  0.4623
23678SOL    HW173041   8.294   8.560   8.690 -2.2559 -0.2497  1.6374
23678SOL    HW273042   8.367   8.561   8.822  2.1501 -0.4646 -0.6105
23679SOL     OW73043   3.354   5.950   1.676  0.1351 -0.7088 -0.4580
23679SOL    HW173044   3.323   5.860   1.666  3.6570 -1.9888 -1.6064
23679SOL    HW273045   3.351   5.986   1.587  1.0795 -0.6311 -0.4727
23680SOL     OW73046  10.181   1.949   0.622 -0.5183  0.3170  0.0593
23680SOL    HW173047  10.192   1.991   0.708 -0.2410  0.5444 -0.0875
23680SOL    HW273048  10.166   2.022   0.562 -1.3734  0.1206  0.0112
23681SOL     OW73049   8.248   6.371   9.525  0.5874  0.1210  0.4378
23681SOL    HW173050   8.183   6.329   9.470  1.2973 -0.2792 -0.1165
23681SOL    HW273051   8.238   6.464   9.508 -0.4167  0.1220  1.0163
23682SOL     OW73052   8.928  10.270   1.157  0.8082  0.0483  0.3441
23682SOL    HW173053   8.863  10.202   1.143  1.8873 -0.5796 -2.3125
23682SOL    HW273054   8.915  10.331   1.084  1.7435  1.1123  1.0316
23683SOL     OW73055   3.263   5.711   2.921  0.3033 -0.8056  0.2644
23683SOL    HW173056   3.276   5.649   2.992 -3.2749 -1.1609  0.7889
23683SOL    HW273057   3.323   5.681   2.852  0.9978 -2.8656  1.6651
23684SOL     OW73058   0.705   0.705   1.462 -0.2146  0.2313  0.6100
23684SOL    HW173059   0.707   0.745   1.549 -2.6988 -0.1383  0.9315
23684SOL    HW273060   0.771   0.636   1.466 -2.0047 -1.5583  3.2322
23685SOL     OW73061   9.267   7.162   6.488 -0.1514  0.0009 -0.2406
23685SOL    HW173062   9.201   7.228   6.465 -3.4569 -1.7359  3.1553
23685SOL    HW273063   9.313   7.199   6.563 -1.4301 -1.0667  1.1291
23686SOL     OW73064   7.819   4.917  10.525  0.4736 -1.2316 -0.2769
23686SOL    HW173065   7.737   4.879  10.494  0.8412 -0.9948 -1.5994
23686SOL    HW273066   7.864   4.944  10.445  0.3239  1.8424  0.5583
23687SOL     OW73067   1.177   4.185   6.236 -0.2650 -0.4217 -0.1540
23687SOL    HW173068   1.230   4.232   6.300 -0.0203 -1.4783  0.4425
23687SOL    HW273069   1.087   4.197   6.266 -0.1278 -1.2413  0.6456
23688SOL     OW73070   6.242   9.026   5.278  0.2648 -0.3102 -0.3996
23688SOL    HW173071   6.324   9.011   5.231  0.4288  1.1258 -0.6142
23688SOL    HW273072   6.243   9.119   5.300 -0.5959 -0.6000  0.9846
23689SOL     OW73073   7.562   2.959  10.331  0.5469  0.0296  0.3808
23689SOL    HW173074   7.492   3.024  10.321  0.4282 -0.1555 -0.0482
23689SOL    HW273075   7.610   2.963  10.248  2.2118  1.4714  1.3725
23690SOL     OW73076   1.172   8.335   5.758  0.9595  0.1031 -0.0723
23690SOL    HW173077   1.213   8.256   5.724 -0.6564 -0.5052 -0.7348
23690SOL    HW273078   1.202   8.405   5.701  1.2834 -0.2767 -0.3729
23691SOL     OW73079   0.301   8.358   7.304  0.3815 -0.1513 -0.3709
23691SOL    HW173080   0.332   8.442   7.339  0.4470  0.9616 -2.8479
23691SOL    HW273081   0.224   8.337   7.356 -0.2101  1.9670 -0.2955
23692SOL     OW73082   3.383   5.165   0.696  0.1802 -0.5878 -0.2526
23692SOL    HW173083   3.305   5.184   0.644  0.1630 -0.7976 -0.3054
23692SOL    HW273084   3.352   5.161   0.786  0.5480  1.8086  0.0328
23693SOL     OW73085   6.332   3.020   5.691  0.1129  0.7564 -0.1689
23693SOL    HW173086   6.400   3.005   5.756 -0.1258 -1.1075 -0.2976
23693SOL    HW273087   6.308   3.112   5.702  0.0950  0.5056  2.3626
23694SOL     OW73088  10.418   3.257   0.225  0.2076  0.6205  0.2881
23694SOL    HW173089  10.510   3.272   0.203  0.6248 -0.6438  1.0179
23694SOL    HW273090  10.420   3.187   0.290 -1.2740  0.6588  0.4236
23695SOL     OW73091  10.171   6.204   9.724  0.7284  0.3606 -0.7797
23695SOL    HW173092  10.128   6.191   9.640  1.0493 -2.9266 -0.5795
23695SOL    HW273093  10.256   6.161   9.715  1.0021  0.4263  1.0185
23696SOL     OW73094   4.468   0.318   0.007  0.6724 -0.3394 -0.3159
23696SOL    HW173095   4.505   0.320  -0.081  0.1925  3.5382 -0.5973
23696SOL    HW273096   4.386   0.368   0.000  0.1589 -0.7032  2.1554
23697SOL     OW73097   8.730   3.252   0.028  0.0730 -0.2495  0.5228
23697SOL    HW173098   8.734   3.342   0.059 -2.4829  0.0031  0.3132
23697SOL    HW273099   8.639   3.225   0.042  0.2146 -2.0451 -1.4269
23698SOL     OW73100   1.615   8.922  10.495  0.0555  0.1820 -0.4371
23698SOL    HW173101   1.587   8.959  10.579  0.3000  0.5142 -0.5013
23698SOL    HW273102   1.573   8.979  10.429  0.0632  0.0695 -0.5388
23699SOL     OW73103   7.787   0.548   8.528  0.4711  0.4958 -0.6783
23699SOL    HW173104   7.720   0.568   8.593  0.8447 -0.1494 -0.0749
23699SOL    HW273105   7.863   0.600   8.554  1.6196 -1.8973  1.1959
23700SOL     OW73106   7.748   8.172   0.961 -0.4301  0.0501  0.0694
23700SOL    HW173107   7.712   8.204   0.879  0.7627  3.0936  0.6099
23700SOL    HW273108   7.738   8.245   1.022  0.9077 -1.2477  1.9472
23701SOL     OW73109   2.529   2.108  11.079 -0.2994 -0.0246 -0.5968
23701SOL    HW173110   2.498   2.032  11.129 -0.2315  0.4723  0.2089
23701SOL    HW273111   2.484   2.100  10.995  0.5376 -1.5532 -0.9458
23702SOL     OW73112   5.678   7.675   3.560 -0.2328  0.2380  0.1443
23702SOL    HW173113   5.606   7.737   3.569  0.0026  0.6900 -0.9990
23702SOL    HW273114   5.729   7.706   3.485  1.8738  0.6432  1.6303
23703SOL     OW73115   2.280   6.743   4.470 -0.5513 -0.3147  0.6882
23703SOL    HW173116   2.217   6.811   4.446  0.1537  0.9048  2.0963
23703SOL    HW273117   2.230   6.662   4.470 -1.0197 -0.1504 -2.8317
23704SOL     OW73118  10.477   0.333   3.342  0.0382 -0.6326 -0.5900
23704SOL    HW173119  10.465   0.238   3.345  0.8888 -0.7846 -1.6122
23704SOL    HW273120  10.508   0.355   3.430 -0.7035 -1.2137 -0.1714
23705SOL     OW73121   8.026   1.660   3.029 -0.3216 -0.1838 -0.2256
23705SOL    HW173122   7.950   1.622   2.984  0.0685 -0.1079 -0.9687
23705SOL    HW273123   8.003   1.657   3.122 -1.4484  0.3147 -0.4707
23706SOL     OW73124   8.805   9.071   4.836 -0.5147  0.1116 -0.3457
23706SOL    HW173125   8.731   9.059   4.775 -2.2060  2.9933  0.9478
23706SOL    HW273126   8.789   9.007   4.905 -0.7063 -0.5615 -0.9899
23707SOL     OW73127   6.012   7.919   9.402 -0.5331  0.3406  1.1784
23707SOL    HW173128   6.001   7.830   9.369 -0.5076 -0.3897  2.9984
23707SOL    HW273129   6.100   7.920   9.440 -0.7283  0.9866  1.6386
23708SOL     OW73130  10.473   1.317   9.372 -0.1163  0.1287  0.5798
23708SOL    HW173131  10.511   1.252   9.430  0.6295 -1.1347 -1.2259
23708SOL    HW273132  10.487   1.282   9.284  1.5644  3.3439 -0.6006
23709SOL     OW73133   7.071   7.510   3.109  0.3714 -0.8553  0.3531
23709SOL    HW173134   7.158   7.549   3.114  0.8463 -1.8401 -0.0096
23709SOL    HW273135   7.024   7.547   3.185  0.4159  1.2548 -0.5654
23710SOL     OW73136   7.752   1.310   2.305  0.2077  0.1030  0.0650
23710SOL    HW173137   7.841   1.277   2.317  0.5550  1.6960  2.7231
23710SOL    HW273138   7.695   1.237   2.330  0.7226 -0.8949 -1.5639
23711SOL     OW73139   1.530  10.859   7.246 -0.0762 -1.0947 -0.0596
23711SOL    HW173140   1.501  10.769   7.264 -1.0152 -0.6957  0.4635
23711SOL    HW273141   1.517  10.870   7.152  0.1373 -1.5328 -0.1445
23712SOL     OW73142   9.186   3.349   4.465 -0.5723 -0.0749 -0.6188
23712SOL    HW173143   9.171   3.413   4.395 -1.2633 -1.0616 -1.4159
23712SOL    HW273144   9.217   3.271   4.419 -0.0728 -0.4364  0.2998
23713SOL     OW73145   9.158   8.253  10.713 -0.3282  0.4826  0.1066
23713SOL    HW173146   9.234   8.224  10.764 -2.6788 -3.1488  1.9511
23713SOL    HW273147   9.180   8.229  10.622  0.1397 -2.2338  0.8378
23714SOL     OW73148   8.472   2.778   8.792 -0.3890  0.3358  0.3323
23714SOL    HW173149   8.544   2.731   8.833 -1.1599 -1.2667 -0.0601
23714SOL    HW273150   8.396   2.759   8.848 -0.7066  1.1949  0.2091
23715SOL     OW73151   7.321  10.487   4.459 -0.3275  1.9005  0.1231
23715SOL    HW173152   7.347  10.572   4.423 -2.7497  2.1078 -1.3547
23715SOL    HW273153   7.238  10.504   4.504 -1.5090  0.1919 -1.2558
23716SOL     OW73154   3.609   5.940   2.558  0.6918 -0.3983  0.4091
23716SOL    HW173155   3.633   5.866   2.614  0.3805 -0.5557  0.3352
23716SOL    HW273156   3.602   5.902   2.470 -1.3267 -0.6841  0.6471
23717SOL     OW73157   9.295   3.976   7.316  0.2007  0.2577 -0.0344
23717SOL    HW173158   9.323   4.052   7.367 -0.3396  0.0581  0.5769
23717SOL    HW273159   9.360   3.909   7.336  1.4578  0.9388 -1.6290
23718SOL     OW73160   2.635   3.675   0.017 -0.1147  0.0096 -0.0562
23718SOL    HW173161   2.624   3.686  -0.078 -1.0598 -2.6611 -0.3401
23718SOL    HW273162   2.566   3.730   0.054  0.3529  1.2014 -0.8783
23719SOL     OW73163   0.821   4.392   1.175 -0.0083  0.3979 -0.3502
23719SOL    HW173164   0.826   4.306   1.217 -0.0677  0.5770  0.0268
23719SOL    HW273165   0.913   4.416   1.161 -0.0101 -0.5465 -2.1659
23720SOL     OW73166   9.941   6.797  10.492  0.4897  0.0488  0.2939
23720SOL    HW173167   9.865   6.815  10.547 -0.8868 -3.3250 -0.2391
23720SOL    HW273168   9.981   6.720  10.532  1.4603 -0.4139 -1.4978
23721SOL     OW73169   9.509   1.153   8.554 -0.1881  0.1957  0.0487
23721SOL    HW173170   9.471   1.151   8.466 -0.4037  2.3277  0.0275
23721SOL    HW273171   9.539   1.064   8.570 -2.1650 -0.7962 -1.2890
23722SOL     OW73172   9.408   9.049   0.041 -0.6581 -0.6348  0.4001
23722SOL    HW173173   9.327   9.001   0.027 -1.7357  0.3975  2.6081
23722SOL    HW273174   9.391   9.103   0.118  1.7895  0.3949  0.3110
23723SOL     OW73175   9.856   8.551  10.466 -0.6948 -0.2534 -0.3422
23723SOL    HW173176   9.812   8.589  10.542 -2.3454 -0.5277 -1.1133
23723SOL    HW273177   9.786   8.506  10.418  0.8753 -2.8424 -0.3723
23724SOL     OW73178   4.475   5.546   5.481  0.2400 -0.0198 -0.0389
23724SOL    HW173179   4.533   5.543   5.556 -0.5750 -0.3947  0.5982
23724SOL    HW273180   4.432   5.631   5.486 -0.0568 -0.1755  0.1155
23725SOL     OW73181   4.802   4.156   4.897  0.1488  0.1747  0.0123
23725SOL    HW173182   4.773   4.106   4.974  1.4850  0.3713  0.6779
23725SOL    HW273183   4.888   4.120   4.876  1.6238  2.7322  1.1086
23726SOL     OW73184   3.226   6.946   9.371 -0.6506  0.6112 -0.1627
23726SOL    HW173185   3.238   7.032   9.412 -1.8339  0.2500  1.0077
23726SOL    HW273186   3.132   6.943   9.352 -0.3585  0.1937 -1.6426
23727SOL     OW73187   1.935   9.157   3.228  0.2937 -0.6164  0.3358
23727SOL    HW173188   1.929   9.071   3.188 -0.0231 -0.7254  0.6202
23727SOL    HW273189   2.023   9.160   3.267  0.3846 -0.7257  0.1407
23728SOL     OW73190   4.678   1.728   2.738  0.0576 -0.2206 -0.3395
23728SOL    HW173191   4.652   1.818   2.759  0.6304  0.2519 -1.5935
23728SOL    HW273192   4.743   1.706   2.805 -0.4040  0.1288  0.2391
23729SOL     OW73193   8.235   6.090   5.185  0.5743  0.6181  0.1959
23729SOL    HW173194   8.246   6.155   5.116  0.3629  1.7390  1.1850
23729SOL    HW273195   8.148   6.053   5.169  0.0512  1.6664  0.4790
23730SOL     OW73196   2.704   8.495   2.826 -0.3015 -0.4599 -0.1230
23730SOL    HW173197   2.676   8.404   2.814 -1.3442 -0.4233  1.6664
23730SOL    HW273198   2.799   8.491   2.823 -0.3350 -1.2230 -2.3680
23731SOL     OW73199   8.089   4.450   5.845 -0.4326  0.0128  0.5974
23731SOL    HW173200   8.166   4.406   5.882 -0.8690  0.3094  1.9150
23731SOL    HW273201   8.068   4.400   5.766 -0.3119 -1.5283  1.5039
23732SOL     OW73202   7.911  10.160   5.079 -0.3346 -0.0498  0.3165
23732SOL    HW173203   7.929  10.235   5.134  0.3282  0.7611 -0.9477
23732SOL    HW273204   7.816  10.159   5.069 -0.2528  2.4721 -2.0196
23733SOL     OW73205   5.819   2.405   6.751 -0.1837 -0.7998 -0.1490
23733SOL    HW173206   5.756   2.337   6.774  0.2122 -1.2024 -0.2400
23733SOL    HW273207   5.809   2.416   6.656  1.4743 -2.5191 -0.5813
23734SOL     OW73208   4.299   3.328   2.889 -0.1830 -0.1155  0.4045
23734SOL    HW173209   4.338   3.265   2.950  0.2655 -1.0217 -0.7826
23734SOL    HW273210   4.209   3.297   2.877 -0.6632  0.7649  1.5086
23735SOL     OW73211   4.833   3.919   4.707  0.3094 -0.8653  0.5568
23735SOL    HW173212   4.896   3.956   4.769 -0.3843  1.1631  0.1321
23735SOL    HW273213   4.873   3.930   4.621  0.4447 -1.9281  0.4627
23736SOL     OW73214   8.615   5.924   9.848  0.0389 -0.3084 -0.4707
23736SOL    HW173215   8.608   6.003   9.900 -0.0549 -0.7183  0.1460
23736SOL    HW273216   8.534   5.876   9.864  0.5878 -1.0796  0.0895
23737SOL     OW73217   0.186  10.316   8.702 -0.6506  0.1720  0.1674
23737SOL    HW173218   0.274  10.280   8.690 -0.7352  0.5516 -1.8208
23737SOL    HW273219   0.164  10.354   8.618 -1.5503  2.7475  1.4687
23738SOL     OW73220   0.971  10.302   3.656  0.1307  0.0559 -0.0140
23738SOL    HW173221   0.974  10.396   3.642 -0.3769  0.4387  2.0482
23738SOL    HW273222   1.051  10.282   3.705 -0.0769 -0.4632  0.1285
23739SOL     OW73223   1.525   4.964   1.458 -0.2303  0.0309  0.6223
23739SOL    HW173224   1.478   5.045   1.437  0.5535  0.4851  0.5660
23739SOL    HW273225   1.479   4.896   1.410  0.0654  0.6891 -0.6513
23740SOL     OW73226   1.439   1.340   0.992 -0.0015  0.0933 -0.7037
23740SOL    HW173227   1.387   1.360   0.914  1.0321  0.8044 -1.2395
23740SOL    HW273228   1.394   1.266   1.033 -0.6940 -0.1419 -1.8450
23741SOL     OW73229   1.821   9.801   4.410  0.5073 -0.0439 -0.7074
23741SOL    HW173230   1.763   9.736   4.448  0.7951  0.5109  0.7388
23741SOL    HW273231   1.795   9.805   4.317  0.3791 -2.0491 -0.7877
23742SOL     OW73232   0.042   9.176  10.212  0.7641  0.5515 -0.1003
23742SOL    HW173233   0.119   9.228  10.238 -0.0554  0.3725  3.1124
23742SOL    HW273234   0.077   9.090  10.192  1.5329  0.7362  0.4010
23743SOL     OW73235   6.026   2.744   1.445  0.3461 -0.0570  0.6592
23743SOL    HW173236   6.111   2.782   1.423 -0.0668  1.0442  0.8697
23743SOL    HW273237   6.024   2.661   1.397  2.3408 -1.1058  2.2377
23744SOL     OW73238   7.899   6.665   3.614  0.3224  0.7757 -0.2238
23744SOL    HW173239   7.967   6.663   3.681 -0.7289  0.5536  0.8785
23744SOL    HW273240   7.849   6.585   3.628 -1.3132  1.8275  0.2551
23745SOL     OW73241   1.100  10.349   4.195  0.7939 -0.3716 -0.3634
23745SOL    HW173242   1.095  10.256   4.217 -0.6246 -0.0733  0.7745
23745SOL    HW273243   1.127  10.391   4.277 -0.2423  0.3584 -0.3818
23746SOL     OW73244   8.782   5.667   6.244 -0.3771 -0.0500  0.1943
23746SOL    HW173245   8.784   5.639   6.336 -0.1803  0.0703  0.2262
23746SOL    HW273246   8.699   5.632   6.211  0.3572 -1.5808 -0.0713
23747SOL     OW73247   8.147   7.229   6.484  0.3678 -0.3820 -0.2827
23747SOL    HW173248   8.109   7.184   6.560  0.7795  2.6029  1.8544
23747SOL    HW273249   8.239   7.203   6.485  0.2576 -0.7750 -0.0862
23748SOL     OW73250   8.395  10.472   3.045 -1.1425  0.3071  0.0861
23748SOL    HW173251   8.402  10.378   3.063 -1.5717 -0.0996 -1.6239
23748SOL    HW273252   8.301  10.490   3.050 -1.1628  0.4113 -0.5764
23749SOL     OW73253   5.070  10.085   2.250 -0.2829 -0.2549  0.5438
23749SOL    HW173254   5.100  10.096   2.341  0.1594  1.0090  0.2623
23749SOL    HW273255   5.107  10.160   2.203 -0.5954 -0.8370 -0.6679
23750SOL     OW73256   8.516   0.494   4.852  0.1116 -0.1614 -0.1599
23750SOL    HW173257   8.603   0.487   4.892  0.8636  0.1488 -1.6475
23750SOL    HW273258   8.496   0.587   4.855  2.0960  0.6228 -4.1272
23751SOL     OW73259   8.636   3.554   5.377  0.3287  0.9113  0.3657
23751SOL    HW173260   8.659   3.476   5.428  0.5563  1.3327  0.9221
23751SOL    HW273261   8.718   3.582   5.337  0.4279  1.3601  0.8695
23752SOL     OW73262   4.146   7.433   9.074  0.1805  0.1899  0.3189
23752SOL    HW173263   4.121   7.364   9.135  0.7362 -0.7543 -0.4771
23752SOL    HW273264   4.137   7.514   9.123 -0.2969 -0.4662  1.3417
23753SOL     OW73265   1.352   3.466   2.487 -0.3385  0.5660 -0.3642
23753SOL    HW173266   1.272   3.513   2.465 -1.0887 -1.7068 -3.2520
23753SOL    HW273267   1.384   3.434   2.403  3.3598  0.9046  0.7598
23754SOL     OW73268   7.772   3.390   0.958 -0.5557 -0.8970 -0.1965
23754SOL    HW173269   7.828   3.460   0.990 -1.1461 -0.5055  0.0133
23754SOL    HW273270   7.785   3.318   1.020 -1.3394 -0.3101  0.6785
23755SOL     OW73271   4.718   4.920   4.603  0.3827 -0.2014  0.1827
23755SOL    HW173272   4.671   4.954   4.526  0.6132  0.7699  0.4660
23755SOL    HW273273   4.801   4.968   4.604 -0.5108  1.4726  2.2879
23756SOL     OW73274   4.598   4.819   0.481 -0.5217 -0.1560  0.0242
23756SOL    HW173275   4.649   4.847   0.557  1.1432 -1.4340 -0.5652
23756SOL    HW273276   4.620   4.883   0.413  0.5317 -0.8443 -0.3011
23757SOL     OW73277   2.776   7.642   1.720 -0.2676 -0.0471 -0.2505
23757SOL    HW173278   2.835   7.714   1.702 -0.7372  0.1241 -1.1376
23757SOL    HW273279   2.780   7.586   1.642  0.6332 -1.3746  0.6922
23758SOL     OW73280   0.860   2.877  11.025 -0.2491  0.0711 -0.1176
23758SOL    HW173281   0.926   2.810  11.008 -0.2127  0.1247 -0.1860
23758SOL    HW273282   0.780   2.827  11.041  0.2800 -0.1329  2.3520
23759SOL     OW73283   2.017   6.646   1.760  0.4901  0.0715  0.5285
23759SOL    HW173284   2.035   6.682   1.847  0.2201 -0.3551  0.7657
23759SOL    HW273285   1.969   6.565   1.777  0.6243 -0.1270 -0.0135
23760SOL     OW73286   8.815  10.158   9.491  0.0713 -0.2807  1.0087
23760SOL    HW173287   8.887  10.184   9.434 -1.1690 -0.4514 -0.7309
23760SOL    HW273288   8.812  10.062   9.483  0.4136 -0.3846  2.0522
23761SOL     OW73289   0.307   9.348   7.131 -0.2844  0.1910 -0.7234
23761SOL    HW173290   0.369   9.289   7.088 -0.4112 -3.2043  3.1880
23761SOL    HW273291   0.362   9.418   7.167  0.9321 -1.1723  0.1618
23762SOL     OW73292   7.047  10.752   6.260  0.7461  0.3469 -0.0523
23762SOL    HW173293   7.042  10.848   6.256 -0.9573  0.5282  3.2199
23762SOL    HW273294   6.957  10.723   6.250  1.1223 -0.8512 -0.0234
23763SOL     OW73295   8.555   8.566   3.689 -0.7132 -0.3359 -0.2393
23763SOL    HW173296   8.594   8.511   3.621 -0.0311  1.2299 -1.1694
23763SOL    HW273297   8.611   8.553   3.766 -1.6882 -2.3783  0.1900
23764SOL     OW73298   6.422   4.071  10.951  0.4657  0.1555  0.0903
23764SOL    HW173299   6.351   4.108  11.004 -0.0692  0.1386 -0.6106
23764SOL    HW273300   6.379   4.005  10.896  0.9921  0.2927 -0.4854
23765SOL     OW73301  10.640   5.907  10.539 -0.0698  0.7826  0.1794
23765SOL    HW173302  10.674   5.996  10.552 -0.3520  0.8086  0.7662
23765SOL    HW273303  10.719   5.852  10.536  0.0364  0.8284  1.6406
23766SOL     OW73304   6.322   2.145   6.932 -0.5178  0.3690 -0.3500
23766SOL    HW173305   6.379   2.144   6.855 -0.1232 -0.3219 -0.0657
23766SOL    HW273306   6.380   2.173   7.003 -0.7423  0.4693 -0.2067
23767SOL     OW73307   2.345   5.593   0.447  0.2706 -0.1014 -0.1228
23767SOL    HW173308   2.422   5.650   0.452  0.2721 -0.1765  1.0040
23767SOL    HW273309   2.320   5.579   0.539 -1.7179  0.7909 -0.4821
23768SOL     OW73310   3.985   0.241   1.411  0.1444 -0.3901 -0.3208
23768SOL    HW173311   4.037   0.316   1.380  1.5315 -0.7831  0.9580
23768SOL    HW273312   3.939   0.210   1.333 -2.0633  2.9591 -0.5769
23769SOL     OW73313   1.627   0.794   2.835 -0.2579  0.3217  0.0278
23769SOL    HW173314   1.634   0.889   2.847  0.7978  0.5019 -1.6417
23769SOL    HW273315   1.580   0.763   2.912  0.6803  2.0062  1.3378
23770SOL     OW73316   8.833   5.056  10.099  0.5163 -0.5324  0.2181
23770SOL    HW173317   8.792   5.013  10.024  0.7340 -2.4072  1.1030
23770SOL    HW273318   8.776   5.130  10.119  0.5902  0.1724 -1.9170
23771SOL     OW73319   8.931   9.980   2.420 -0.7174 -0.2448  0.2162
23771SOL    HW173320   8.988  10.028   2.359 -0.9290 -1.6042 -1.0894
23771SOL    HW273321   8.954  10.015   2.506  1.3097  0.0297 -0.3877
23772SOL     OW73322   8.429   5.240   3.710  0.4517 -0.9852  0.6430
23772SOL    HW173323   8.418   5.253   3.804  4.1381  1.4808  0.9508
23772SOL    HW273324   8.457   5.149   3.701 -2.7815 -2.2229  1.4030
23773SOL     OW73325   5.825   1.217  10.982  0.5552 -0.3059  0.0387
23773SOL    HW173326   5.911   1.258  10.976 -0.2709  1.4719 -0.3323
23773SOL    HW273327   5.784   1.235  10.898 -0.8068  0.4300  0.8103
23774SOL     OW73328   7.103   2.936   2.387 -0.2993 -0.2228 -0.3155
23774SOL    HW173329   7.087   2.999   2.457  1.6648  0.6209 -0.5659
23774SOL    HW273330   7.138   2.859   2.431 -1.2186 -0.5622 -0.1637
23775SOL     OW73331  10.630   4.351   8.706  0.2158 -0.2269 -0.3177
23775SOL    HW173332  10.562   4.285   8.692 -0.9156  0.7905  0.0794
23775SOL    HW273333  10.683   4.317   8.778  0.9570 -1.6436 -1.4974
23776SOL     OW73334   3.737   9.590   1.952 -0.2073 -0.0363 -0.6166
23776SOL    HW173335   3.679   9.526   1.991  0.2542 -1.7554 -2.5714
23776SOL    HW273336   3.802   9.609   2.020  0.5576 -2.8754 -0.4411
23777SOL     OW73337   5.292   5.329   3.860  0.0159 -0.2513  0.6068
23777SOL    HW173338   5.385   5.326   3.884  0.0307  2.3970  1.1919
23777SOL    HW273339   5.258   5.407   3.904 -1.3397  1.6527 -3.3038
23778SOL     OW73340   9.274   6.399   8.681  0.0705  0.0559 -0.4510
23778SOL    HW173341   9.345   6.441   8.633  0.3238  1.8750  1.3568
23778SOL    HW273342   9.195   6.421   8.630  0.5452  0.0191 -1.2209
23779SOL     OW73343   2.400   4.136   4.820  0.9345  0.1196  0.0274
23779SOL    HW173344   2.337   4.088   4.765 -2.3383  0.2362  3.2749
23779SOL    HW273345   2.419   4.215   4.771 -1.4804  0.0384 -1.2065
23780SOL     OW73346   1.944   8.884   3.251  0.1536  0.0714 -0.0017
23780SOL    HW173347   1.853   8.856   3.262  0.0105  0.8099  0.7922
23780SOL    HW273348   1.993   8.802   3.238 -0.3536 -0.5217  1.5449
23781SOL     OW73349   0.894   5.609   6.816  0.5919 -0.3034 -0.0981
23781SOL    HW173350   0.945   5.532   6.792  1.3202 -0.2250  1.0904
23781SOL    HW273351   0.944   5.683   6.781  1.3594 -0.2236  1.1061
23782SOL     OW73352  10.684   3.613   8.154 -0.5860 -0.1475  0.0709
23782SOL    HW173353  10.745   3.686   8.146  1.1742 -1.6120 -0.5387
23782SOL    HW273354  10.633   3.633   8.233  0.1682  1.4812  0.1859
23783SOL     OW73355   0.322   8.278   5.630  0.6886 -0.1428 -0.9875
23783SOL    HW173356   0.415   8.295   5.644  0.6818 -1.4425  1.0497
23783SOL    HW273357   0.277   8.344   5.682  0.4893 -0.0994 -1.2142
23784SOL     OW73358   6.422   2.306   4.278 -0.4805 -0.2646  0.6319
23784SOL    HW173359   6.477   2.275   4.205 -0.9968 -0.0747  0.1570
23784SOL    HW273360   6.338   2.262   4.265 -0.2950 -0.9461  1.6504
23785SOL     OW73361   0.411  10.035   6.391 -0.1381  0.4816  0.6958
23785SOL    HW173362   0.400   9.949   6.349  2.3921  0.3280  0.1574
23785SOL    HW273363   0.410  10.016   6.485  3.8406 -0.8720  0.6740
23786SOL     OW73364  10.895   7.247  10.095  0.0001 -0.0614 -0.0709
23786SOL    HW173365  10.957   7.181  10.065  0.1593 -0.1185  0.3828
23786SOL    HW273366  10.921   7.327  10.050  0.1752 -0.1688 -0.1612
23787SOL     OW73367   7.199   5.754   7.977 -0.2813  0.1882  0.4097
23787SOL    HW173368   7.159   5.721   8.057  3.1205 -1.1916  1.7425
23787SOL    HW273369   7.126   5.764   7.915 -2.6066 -1.8325  2.6185
23788SOL     OW73370   0.176   0.073   8.674 -0.5422  0.6435 -0.8442
23788SOL    HW173371   0.131   0.060   8.758 -0.5824  1.7233 -0.6889
23788SOL    HW273372   0.116   0.036   8.609 -0.1795 -0.8799 -0.3501
23789SOL     OW73373   6.220  10.318   3.173 -0.3493 -0.2021  0.1484
23789SOL    HW173374   6.205  10.358   3.259  0.2365  0.2070  0.0639
23789SOL    HW273375   6.282  10.376   3.130  0.4422 -1.1312 -0.0172
23790SOL     OW73376   0.410   5.144   3.224  0.4608 -0.5374  0.1886
23790SOL    HW173377   0.484   5.109   3.275  0.4655 -0.9151 -0.0761
23790SOL    HW273378   0.449   5.214   3.171 -0.1047  2.1514  3.0495
23791SOL     OW73379   2.126   4.055   9.769 -0.2836  0.9864  0.0053
23791SOL    HW173380   2.044   4.007   9.764  0.0609  0.5318 -2.2094
23791SOL    HW273381   2.138   4.092   9.682  2.7010 -0.4461 -0.3203
23792SOL     OW73382   2.505   5.572   7.640 -0.0565 -0.8294 -0.0073
23792SOL    HW173383   2.487   5.494   7.692  0.6371  0.3907  2.2232
23792SOL    HW273384   2.441   5.636   7.670 -0.2287 -0.3443 -1.3560
23793SOL     OW73385   5.174  10.392   5.658  0.2131 -0.1079  0.1561
23793SOL    HW173386   5.169  10.365   5.750  2.6721 -2.4117 -0.2586
23793SOL    HW273387   5.092  10.363   5.620 -0.7614  0.6879  1.5520
23794SOL     OW73388  10.830   2.677  10.512 -0.0100 -0.2154 -0.0316
23794SOL    HW173389  10.890   2.615  10.470 -0.6426 -1.2504  0.5634
23794SOL    HW273390  10.752   2.676  10.456 -0.5279 -0.9624  0.6882
23795SOL     OW73391   8.368   6.252   0.911  0.0594  0.6306  0.4568
23795SOL    HW173392   8.406   6.225   0.994 -1.2016 -1.3950  0.4412
23795SOL    HW273393   8.430   6.316   0.876  1.1581  0.7222  2.4344
23796SOL     OW73394   6.427   0.620   3.309  0.0098  0.1833 -0.2886
23796SOL    HW173395   6.467   0.536   3.286 -0.5504 -0.7468  1.9357
23796SOL    HW273396   6.333   0.604   3.308 -0.0854 -0.1176  2.9171
23797SOL     OW73397   3.946   4.334   2.459 -0.0362 -0.0646 -0.1362
23797SOL    HW173398   3.977   4.287   2.381  1.5898  0.7226 -0.0128
23797SOL    HW273399   3.980   4.423   2.448 -1.7482  0.6856  0.3831
23798SOL     OW73400   8.034   2.068   6.614  0.7353  0.0719  0.2051
23798SOL    HW173401   7.985   2.057   6.696  0.5994  0.2978  0.1537
23798SOL    HW273402   8.124   2.043   6.637  0.9264  1.1472  0.7002
23799SOL     OW73403   5.715   9.764   8.478  0.3598 -0.3262 -0.5170
23799SOL    HW173404   5.679   9.695   8.533  1.3057 -0.7116 -0.3611
23799SOL    HW273405   5.671   9.752   8.394 -0.6164 -0.1393 -0.0430
23800SOL     OW73406   7.283   2.846   6.195 -0.4822 -0.4231  0.2845
23800SOL    HW173407   7.220   2.798   6.250 -1.1903  0.2343  0.0619
23800SOL    HW273408   7.347   2.779   6.170  1.4385 -0.2879  4.0245
23801SOL     OW73409   1.789   6.256   7.330  0.1597  0.1739 -0.1653
23801SOL    HW173410   1.851   6.328   7.339 -1.8138  2.0002 -0.4404
23801SOL    HW273411   1.712   6.284   7.378 -0.5162 -2.0106  0.1506
23802SOL     OW73412   0.908   6.553   9.380  0.1793  0.7608  0.6475
23802SOL    HW173413   0.887   6.618   9.313  0.2844 -0.9143 -1.1138
23802SOL    HW273414   0.889   6.596   9.463 -1.4433  2.4080 -0.5046
23803SOL     OW73415   0.449   6.804   8.518 -0.3279  0.6305  0.1554
23803SOL    HW173416   0.356   6.827   8.516 -0.6874 -0.4142 -3.9480
23803SOL    HW273417   0.459   6.755   8.600 -4.1117 -1.6804 -0.5104
23804SOL     OW73418   4.364   4.868   4.976 -0.0020 -0.1796 -0.0322
23804SOL    HW173419   4.439   4.835   4.927 -1.6854 -1.8737 -1.6240
23804SOL    HW273420   4.355   4.808   5.050 -1.3325 -1.6864 -1.3410
23805SOL     OW73421   1.119  10.392  10.915  0.2568 -0.4228 -0.0013
23805SOL    HW173422   1.066  10.313  10.904 -3.0826  1.7067 -0.7345
23805SOL    HW273423   1.188  10.366  10.976 -0.5710 -3.9050 -0.3436
23806SOL     OW73424   7.677   0.731   1.021 -0.4197 -0.4333 -0.1250
23806SOL    HW173425   7.635   0.814   1.044 -1.4645 -0.4420 -1.8527
23806SOL    HW273426   7.754   0.727   1.078  0.3002  2.2624 -0.7694
23807SOL     OW73427  10.515   3.948   9.530 -0.1157 -0.3051  0.0476
23807SOL    HW173428  10.602   3.909   9.532  0.2076  0.3477 -0.5972
23807SOL    HW273429  10.504   3.977   9.439 -1.0105 -0.3900  0.1165
23808SOL     OW73430   3.371   3.263  10.358 -0.1002  0.1429  0.4235
23808SOL    HW173431   3.306   3.299  10.298 -2.2199  0.7403  2.8858
23808SOL    HW273432   3.320   3.211  10.421  2.2903 -2.6911  0.2253
23809SOL     OW73433   3.652   7.031   3.301  0.4937  0.2778  0.0744
23809SOL    HW173434   3.669   6.995   3.388  1.0301 -0.3732 -0.2904
23809SOL    HW273435   3.737   7.066   3.273  0.3315  0.4535 -0.2011
23810SOL     OW73436   1.345   6.723   0.503  0.5842  0.1404 -0.6627
23810SOL    HW173437   1.391   6.641   0.517  2.6811  1.2325 -0.6677
23810SOL    HW273438   1.367   6.748   0.413  0.9352  1.2438 -0.2950
23811SOL     OW73439   8.037   4.570  10.589  0.3506 -0.1012 -0.3231
23811SOL    HW173440   8.016   4.483  10.555  0.2233  0.7698 -2.6796
23811SOL    HW273441   8.131   4.580  10.570  0.4366  0.1558  0.2330
23812SOL     OW73442   2.863   5.463   5.841 -0.0538  0.1018  0.7788
23812SOL    HW173443   2.856   5.460   5.937 -0.7628 -0.5688  0.7238
23812SOL    HW273444   2.848   5.373   5.814 -1.4304  0.5403 -0.0383
23813SOL     OW73445   9.115   4.428   9.684  0.0157  0.6915  0.2633
23813SOL    HW173446   9.086   4.349   9.639 -0.9796  0.6586  0.9232
23813SOL    HW273447   9.069   4.499   9.641 -1.1821  0.6320  1.3588
23814SOL     OW73448   6.367   3.682   0.074  0.4404  0.6234 -0.4836
23814SOL    HW173449   6.290   3.679   0.131  0.1076  0.5714 -0.9333
23814SOL    HW273450   6.434   3.725   0.127  0.3169  0.0346  0.1682
23815SOL     OW73451   7.812  10.276   3.154 -0.1491  0.1375 -0.5384
23815SOL    HW173452   7.764  10.240   3.228 -1.2252 -0.6272 -1.5707
23815SOL    HW273453   7.875  10.208   3.130  0.5024  0.5623 -0.0735
23816SOL     OW73454   2.184   1.471   5.770 -0.0410  0.2577 -0.0367
23816SOL    HW173455   2.206   1.521   5.692  0.2870 -0.2179 -0.2554
23816SOL    HW273456   2.100   1.507   5.800 -0.7804 -0.3577 -1.3016
23817SOL     OW73457   0.380   1.013   1.287  0.2133 -0.3511 -0.3157
23817SOL    HW173458   0.463   0.970   1.266 -0.0819 -0.0095 -2.4154
23817SOL    HW273459   0.313   0.950   1.262 -0.2033 -0.5476  1.1871
23818SOL     OW73460   4.535   4.409   4.484  0.1446 -0.2349 -0.2278
23818SOL    HW173461   4.449   4.401   4.525 -0.3934  1.1892 -1.0097
23818SOL    HW273462   4.519   4.455   4.402  1.4281 -1.5143 -1.2473
23819SOL     OW73463   6.311   3.439   7.232  0.0412 -1.0081  0.3156
23819SOL    HW173464   6.405   3.447   7.246 -0.0568  0.8420  0.1438
23819SOL    HW273465   6.271   3.479   7.309 -0.6062 -1.3592  0.1747
23820SOL     OW73466   5.440   0.853   2.957  0.2483 -0.1218  0.6517
23820SOL    HW173467   5.451   0.814   2.870  1.1222 -0.3256  0.8366
23820SOL    HW273468   5.347   0.870   2.965  0.2723  0.7909 -0.7191
23821SOL     OW73469   2.169   6.475   9.633 -0.5140  0.0532  0.1192
23821SOL    HW173470   2.146   6.395   9.680  0.6174  0.0122  0.6226
23821SOL    HW273471   2.177   6.447   9.542  3.4826 -1.2917  0.6946
23822SOL     OW73472   1.913   5.035   3.524  0.8877  0.0632 -0.4167
23822SOL    HW173473   1.820   5.011   3.520  0.8029  0.4848 -1.5194
23822SOL    HW273474   1.915   5.119   3.569  1.0277 -1.1585  2.0118
23823SOL     OW73475   1.955   7.490   6.511 -0.0752  0.3463  0.2014
23823SOL    HW173476   2.012   7.552   6.466  1.8891 -1.0172  0.6711
23823SOL    HW273477   1.883   7.475   6.450  1.8333 -0.4672 -1.9922
23824SOL     OW73478   2.607   6.944   6.324  0.7594  0.1914  0.2277
23824SOL    HW173479   2.554   6.898   6.390 -0.6678 -1.8106 -2.1583
23824SOL    HW273480   2.610   6.885   6.249  1.3514  2.7968 -1.9805
23825SOL     OW73481   4.730  10.976   7.960 -0.4109 -0.8341  0.0410
23825SOL    HW173482   4.728  11.022   7.876 -1.5095 -2.5258 -0.9083
23825SOL    HW273483   4.683  11.035   8.019 -1.4267 -0.5117 -1.0391
23826SOL     OW73484   5.727   0.781   5.771  0.7830  0.6364 -0.2810
23826SOL    HW173485   5.802   0.835   5.747  0.3843  1.5439  0.4401
23826SOL    HW273486   5.752   0.693   5.745  2.8762  0.6031  1.5383
23827SOL     OW73487   1.787   8.379  10.846  0.0186  0.6414  0.3446
23827SOL    HW173488   1.875   8.397  10.814  0.7098 -1.3383  0.9850
23827SOL    HW273489   1.785   8.420  10.933  1.5015 -1.8521  1.7003
23828SOL     OW73490   5.863   0.581   1.646 -0.2539  0.0509  0.7544
23828SOL    HW173491   5.931   0.558   1.710  1.3137  1.6099 -0.2536
23828SOL    HW273492   5.872   0.516   1.577 -0.2840 -0.1819  0.9675
23829SOL     OW73493  10.832   1.031   0.942 -0.0107  0.0907 -0.0802
23829SOL    HW173494  10.891   0.976   0.994  0.5606 -0.9344 -1.6855
23829SOL    HW273495  10.759   1.050   0.999  0.1601 -1.7326  0.8095
23830SOL     OW73496   0.954   3.069  10.853  0.0549 -1.3218  0.2533
23830SOL    HW173497   0.934   3.036  10.941 -2.0873 -0.8435  0.0137
23830SOL    HW273498   0.997   2.996  10.809  1.3823 -1.4884  1.7552
23831SOL     OW73499   0.384   7.630   7.376  0.3262 -0.1215 -0.1909
23831SOL    HW173500   0.349   7.654   7.290 -1.0488 -0.3339  0.2911
23831SOL    HW273501   0.307   7.610   7.429  1.0949  0.7412  1.3210
23832SOL     OW73502   4.874   0.968   9.577 -0.6557 -0.0102 -0.8810
23832SOL    HW173503   4.830   1.044   9.539  0.8020  0.6653 -1.3068
23832SOL    HW273504   4.890   0.992   9.668 -0.8452 -0.0993 -0.8250
23833SOL     OW73505   1.547   2.417   8.847 -0.1567 -0.6192  0.1165
23833SOL    HW173506   1.637   2.396   8.823 -0.1329 -0.7410  0.3045
23833SOL    HW273507   1.527   2.356   8.918 -0.6256 -1.0582 -0.3935
23834SOL     OW73508   0.219   9.635   7.983 -0.2894 -0.0767  0.0085
23834SOL    HW173509   0.178   9.688   8.052 -1.0092 -0.9096  0.2482
23834SOL    HW273510   0.312   9.656   7.988 -0.4710  0.6134  0.5793
23835SOL     OW73511  10.668   3.566   7.161 -0.3876  0.1104 -0.0859
23835SOL    HW173512  10.728   3.565   7.086  1.7548 -0.4662  1.5190
23835SOL    HW273513  10.609   3.493   7.145  1.2423 -1.2280 -0.3759
23836SOL     OW73514   6.054   6.997   2.078 -0.4399 -0.2568 -0.8680
23836SOL    HW173515   5.998   7.073   2.091  0.8784  0.1685  4.3704
23836SOL    HW273516   6.135   7.032   2.041  0.0376  0.9549  1.2030
23837SOL     OW73517   6.629   9.259   0.976  0.4962  0.3799 -0.3789
23837SOL    HW173518   6.541   9.289   0.951 -0.0454  0.4744  1.4868
23837SOL    HW273519   6.616   9.170   1.007  1.4404 -0.3745 -2.0159
23838SOL     OW73520   2.287   0.342   6.311 -0.5356 -0.2832 -0.0991
23838SOL    HW173521   2.272   0.419   6.255 -3.3754 -0.0756  0.7753
23838SOL    HW273522   2.331   0.279   6.254  2.5708  2.1302 -0.6494
23839SOL     OW73523   2.766   4.856   0.071 -0.3154  0.4651 -0.1775
23839SOL    HW173524   2.691   4.915   0.078 -1.3405 -0.7332 -0.6073
23839SOL    HW273525   2.800   4.871  -0.018 -0.2208  0.8001 -0.0864
23840SOL     OW73526   5.912  11.007  10.103 -0.5663  0.0057 -0.3099
23840SOL    HW173527   5.850  10.934  10.099 -1.1993  0.5483 -0.6228
23840SOL    HW273528   5.967  10.996  10.025 -1.2307  0.3501 -0.8409
23841SOL     OW73529  10.361   8.394   2.840 -0.4054  0.1537  0.5774
23841SOL    HW173530  10.438   8.362   2.792 -1.0244  0.3699 -0.5980
23841SOL    HW273531  10.291   8.334   2.814 -0.9171  0.7183  0.6361
23842SOL     OW73532   2.098   5.497   8.078 -0.9723 -0.9385  0.4025
23842SOL    HW173533   2.152   5.435   8.029 -0.9734 -3.1804  2.9800
23842SOL    HW273534   2.018   5.447   8.100 -2.3824  1.0256 -0.0388
23843SOL     OW73535   2.068   0.862   9.934  0.4149  0.4104 -0.2486
23843SOL    HW173536   2.034   0.884   9.847  0.7167 -0.1250 -0.5036
23843SOL    HW273537   2.115   0.941   9.962 -0.7246  1.0352 -0.0419
23844SOL     OW73538   6.136   9.846  10.057 -0.4986  0.0864  0.7386
23844SOL    HW173539   6.056   9.825  10.105 -0.2737 -2.8901  0.0397
23844SOL    HW273540   6.106   9.868   9.969 -0.5856 -2.2169  0.1307
23845SOL     OW73541   8.682   3.213   7.174 -0.4867 -0.2013 -0.0574
23845SOL    HW173542   8.724   3.250   7.252 -1.9629  2.4395 -0.4263
23845SOL    HW273543   8.714   3.123   7.171  0.8727  0.0839  2.6821
23846SOL     OW73544   1.280   2.401   5.589  0.2093 -0.6928 -0.8810
23846SOL    HW173545   1.232   2.394   5.507 -0.2669 -0.0457 -0.6610
23846SOL    HW273546   1.244   2.331   5.644  1.7066 -2.2617 -1.7775
23847SOL     OW73547   5.413   2.704   7.684 -0.0344  0.6287  0.0521
23847SOL    HW173548   5.379   2.653   7.611 -0.8435  0.2614  0.6754
23847SOL    HW273549   5.397   2.795   7.658 -0.7902  0.4869 -0.0173
23848SOL     OW73550   1.584   9.827   9.797  0.3903 -0.2571 -0.1191
23848SOL    HW173551   1.493   9.859   9.798  0.8919  1.1949  0.9405
23848SOL    HW273552   1.605   9.810   9.888  1.6518  0.8034 -0.1914
23849SOL     OW73553   4.292   6.959   9.137 -0.2895 -0.1586  0.1721
23849SOL    HW173554   4.335   6.874   9.143 -0.1484 -0.0321  1.0324
23849SOL    HW273555   4.219   6.944   9.077 -1.2954 -1.3225  1.6427
23850SOL     OW73556   2.411   0.011   9.039 -0.4434  0.0517 -0.3672
23850SOL    HW173557   2.318  -0.004   9.058 -0.5419 -0.3395 -1.1226
23850SOL    HW273558   2.452   0.017   9.125 -1.3748  1.6569  0.0136
23851SOL     OW73559   6.809   4.511   1.069  0.4061 -0.7003  0.6404
23851SOL    HW173560   6.749   4.551   1.132  0.7046  1.0578 -0.1533
23851SOL    HW273561   6.752   4.469   1.004  0.0956 -1.9828  1.6866
23852SOL     OW73562   2.840   3.971   8.285 -0.6748  0.0424  0.1358
23852SOL    HW173563   2.919   3.953   8.335 -1.3222 -2.2550  0.4180
23852SOL    HW273564   2.792   4.034   8.339  0.1316  0.0914  0.8194
23853SOL     OW73565   1.614   9.378   2.305 -0.2430 -0.5176 -0.1396
23853SOL    HW173566   1.637   9.356   2.395  1.1369 -1.1080 -0.6034
23853SOL    HW273567   1.604   9.473   2.305 -2.1428 -0.6666  1.0184
23854SOL     OW73568   6.000   3.566   5.517 -0.0076  0.4571 -0.1987
23854SOL    HW173569   5.912   3.578   5.482 -0.4789  0.9131  1.0851
23854SOL    HW273570   6.052   3.538   5.442 -1.4893 -1.0295 -0.7282
23855SOL     OW73571   6.124   2.485  10.726  0.2179  0.4293  0.4804
23855SOL    HW173572   6.152   2.394  10.718  1.4449  0.9294 -1.4535
23855SOL    HW273573   6.044   2.490  10.674  0.2253  0.4901  0.4758
23856SOL     OW73574   8.894   0.777   7.474 -0.5917 -0.2346 -0.5511
23856SOL    HW173575   8.897   0.684   7.453  1.9464  0.2642 -3.0161
23856SOL    HW273576   8.940   0.785   7.557  2.2103 -0.9491 -1.9165
23857SOL     OW73577   4.731   3.707   9.369 -0.1609 -0.0198  0.1898
23857SOL    HW173578   4.723   3.731   9.461  3.1619 -0.2345  0.6524
23857SOL    HW273579   4.720   3.789   9.321 -0.7001  0.3062  0.8633
23858SOL     OW73580   4.683  10.103   9.664 -0.4323 -0.9092 -0.6107
23858SOL    HW173581   4.644  10.189   9.678  0.7853 -0.5457  0.6515
23858SOL    HW273582   4.698  10.068   9.752  2.9407 -0.6330 -0.9629
23859SOL     OW73583   3.094   2.600   1.068 -0.6509 -0.4178  0.5339
23859SOL    HW173584   3.079   2.515   1.109 -0.1841  0.1276  1.8759
23859SOL    HW273585   3.135   2.653   1.136 -1.1794  0.9740 -0.1848
23860SOL     OW73586   4.682  10.236   3.236  0.6147 -0.1053  0.3573
23860SOL    HW173587   4.679  10.325   3.200 -0.9217 -0.7127 -1.1238
23860SOL    HW273588   4.591  10.215   3.258  0.8530 -1.5383  0.0991
23861SOL     OW73589  10.028   5.411   4.988  0.3857 -0.1952  0.0147
23861SOL    HW173590  10.089   5.431   4.917  0.5582 -1.5737 -0.2435
23861SOL    HW273591  10.084   5.386   5.061  0.2230  1.4997  0.7668
23862SOL     OW73592   3.219   6.854   2.397 -0.6636  0.3046 -0.4404
23862SOL    HW173593   3.211   6.908   2.476 -0.6264  2.7212 -1.9724
23862SOL    HW273594   3.139   6.870   2.348  0.9664  2.2028 -2.7413
23863SOL     OW73595   7.433   5.941  11.080 -0.4326  0.6133 -0.3681
23863SOL    HW173596   7.353   5.987  11.056 -1.1299 -0.3221  0.1036
23863SOL    HW273597   7.439   5.949  11.175 -1.4805 -1.6365 -0.0469
23864SOL     OW73598   9.628   2.119  10.856  0.1267 -0.6899 -0.2183
23864SOL    HW173599   9.539   2.150  10.841  0.7319  1.3478  0.0405
23864SOL    HW273600   9.635   2.039  10.804 -1.5572 -0.3762 -0.9920
23865SOL     OW73601   1.771   5.154   5.693 -0.2172 -0.2610  0.2920
23865SOL    HW173602   1.782   5.110   5.778 -2.0103  0.1612  0.8014
23865SOL    HW273603   1.738   5.086   5.635  0.6266 -0.4539  0.0239
23866SOL     OW73604   3.499   4.175   8.823 -0.1764  0.3439 -0.3077
23866SOL    HW173605   3.530   4.099   8.774  0.2850  1.1368 -1.2900
23866SOL    HW273606   3.513   4.249   8.764  0.4450  1.3516  1.0366
23867SOL     OW73607   1.991   5.423   3.392  0.1110 -0.3165 -0.4373
23867SOL    HW173608   1.902   5.400   3.365 -0.2679  0.9173 -0.2630
23867SOL    HW273609   2.006   5.369   3.470 -1.8359  1.9437  1.6688
23868SOL     OW73610   2.596   1.442   3.634  0.3282 -0.7351 -0.0058
23868SOL    HW173611   2.560   1.525   3.603 -0.4471 -1.6826 -1.7792
23868SOL    HW273612   2.667   1.422   3.573 -1.4224 -2.7930 -1.5569
23869SOL     OW73613   7.277   5.676  10.046 -0.1031 -0.8478 -0.5355
23869SOL    HW173614   7.283   5.753   9.989  1.2115  1.1786  2.1361
23869SOL    HW273615   7.185   5.674  10.075  0.3077  1.1656  1.1152
23870SOL     OW73616   5.283   8.185   5.177 -0.2896 -0.3778  0.1978
23870SOL    HW173617   5.214   8.171   5.112  0.9278  0.0594 -1.2479
23870SOL    HW273618   5.351   8.234   5.129  1.1761 -1.1153  1.4623
23871SOL     OW73619   3.313  10.389   9.488  0.3180  0.7094 -0.1908
23871SOL    HW173620   3.351  10.460   9.540 -2.8915  1.2831  1.6695
23871SOL    HW273621   3.238  10.430   9.444 -1.3964 -1.3749  0.6193
23872SOL     OW73622   0.556   8.495   8.233 -0.2055 -0.3607 -0.2910
23872SOL    HW173623   0.555   8.487   8.328 -1.8514 -2.2048 -0.3939
23872SOL    HW273624   0.465   8.479   8.207  0.6215 -2.1987 -2.3026
23873SOL     OW73625   2.420   9.139   4.935  0.0450  0.1499  0.3753
23873SOL    HW173626   2.389   9.049   4.927  1.6917 -0.4096  0.0335
23873SOL    HW273627   2.384   9.183   4.858 -1.3449 -0.0081  0.8967
23874SOL     OW73628   5.842   0.022   5.879  0.0143  0.0415  0.2800
23874SOL    HW173629   5.927   0.036   5.919  0.6794 -2.7593  0.0517
23874SOL    HW273630   5.781   0.017   5.953  0.5541 -0.8964  0.6784
23875SOL     OW73631   5.724  11.065   7.202 -0.4699 -0.7295  0.4944
23875SOL    HW173632   5.709  11.157   7.181  0.0323 -0.4758  1.1987
23875SOL    HW273633   5.817  11.051   7.184 -0.5201 -1.0776  0.4836
23876SOL     OW73634   3.010   9.951   7.905  0.7920  0.3153 -0.0307
23876SOL    HW173635   2.970   9.931   7.989 -1.8560  1.1662 -1.0029
23876SOL    HW273636   3.027   9.865   7.866 -0.4694 -0.0774  0.2635
23877SOL     OW73637   5.399   3.319   9.844  0.3022 -0.3300 -0.4366
23877SOL    HW173638   5.473   3.286   9.793 -1.3110 -3.9404 -0.7185
23877SOL    HW273639   5.439   3.350   9.926  2.3317  0.3207 -1.5883
23878SOL     OW73640   8.059  10.806   4.152  0.0523 -0.0465 -0.4740
23878SOL    HW173641   7.987  10.785   4.093 -0.0183 -1.0520 -0.0489
23878SOL    HW273642   8.047  10.747   4.226  0.8387  0.3532 -0.0181
23879SOL     OW73643   6.976   9.491   7.388  0.3286 -0.0277  0.0939
23879SOL    HW173644   7.029   9.482   7.467  2.3615 -0.7915 -1.3042
23879SOL    HW273645   6.953   9.401   7.363 -1.4523  0.2623  0.4933
23880SOL     OW73646   9.149   6.653   5.025 -0.6690 -0.0392  0.4647
23880SOL    HW173647   9.235   6.625   4.992 -1.2167 -0.3982 -0.6981
23880SOL    HW273648   9.125   6.726   4.968 -0.2762  1.3635  2.0333
23881SOL     OW73649   3.941   1.697   2.882  0.2235 -0.4352  0.3916
23881SOL    HW173650   3.973   1.632   2.820  0.4526 -0.0938  0.1484
23881SOL    HW273651   4.012   1.760   2.891  1.2069 -1.7741  2.9250
23882SOL     OW73652  10.288   3.482   8.316  0.2307  0.5306  0.0481
23882SOL    HW173653  10.373   3.503   8.357  0.0786  1.8336 -0.2526
23882SOL    HW273654  10.253   3.567   8.289 -0.9660 -0.0378 -0.2591
23883SOL     OW73655   6.201   1.294   3.105  0.0003 -0.6379 -0.0037
23883SOL    HW173656   6.152   1.214   3.089 -1.7502  0.1721  0.9344
23883SOL    HW273657   6.290   1.275   3.076 -0.4216 -2.8221 -0.0190
23884SOL     OW73658   9.166   9.154   8.482  0.2316 -0.0752 -0.1663
23884SOL    HW173659   9.102   9.098   8.527 -0.8177  2.4619  1.7380
23884SOL    HW273660   9.178   9.112   8.397  0.3642 -3.7265  1.4787
23885SOL     OW73661   1.101   1.630   4.790  0.4977  0.1138 -0.1058
23885SOL    HW173662   1.069   1.540   4.786  2.3131 -0.5143 -1.3395
23885SOL    HW273663   1.070   1.662   4.875  1.4431 -2.3271  1.2626
23886SOL     OW73664   4.732   3.163  10.332  0.6659 -0.4248  0.0641
23886SOL    HW173665   4.720   3.115  10.414 -1.1937  0.7926  0.5690
23886SOL    HW273666   4.802   3.115  10.287  2.5743 -0.4917  2.8021
23887SOL     OW73667   5.613   1.055   6.506  0.1869  0.0194  0.7458
23887SOL    HW173668   5.595   1.120   6.439  0.6601 -0.5417  0.0545
23887SOL    HW273669   5.680   1.095   6.561 -0.0605  0.4066  0.7666
23888SOL     OW73670   0.273   5.953   4.156 -0.3405 -0.2858  0.0984
23888SOL    HW173671   0.346   5.962   4.218 -1.5207  0.1604  1.4905
23888SOL    HW273672   0.212   6.022   4.181 -0.7991  0.0178 -1.7103
23889SOL     OW73673   6.862   2.746   0.013 -0.0516 -1.0644 -0.1401
23889SOL    HW173674   6.797   2.812   0.036  1.2788  0.7408 -1.2538
23889SOL    HW273675   6.843   2.723  -0.078  2.3968  1.6592 -1.5444
23890SOL     OW73676  10.160   7.236   1.407  0.1793 -0.2754  0.0971
23890SOL    HW173677  10.145   7.216   1.499 -0.1388 -0.7617 -0.0549
23890SOL    HW273678  10.119   7.322   1.394  0.7502  0.0669  0.5434
23891SOL     OW73679   5.470   2.461  10.756 -0.1195  0.4590 -0.0847
23891SOL    HW173680   5.415   2.439  10.681  1.6004 -1.6377 -0.8560
23891SOL    HW273681   5.534   2.524  10.723 -0.6326  1.1456  0.2066
23892SOL     OW73682  11.076   7.704  11.098 -0.7296 -0.1612 -0.4439
23892SOL    HW173683  11.028   7.786  11.083 -0.7454 -0.2214 -0.7319
23892SOL    HW273684  11.053   7.649  11.023 -0.8663 -0.5000 -0.1575
23893SOL     OW73685   2.372   4.787   8.662  0.4218 -0.0622 -0.3953
23893SOL    HW173686   2.433   4.802   8.734  1.2015 -0.6154 -0.9279
23893SOL    HW273687   2.418   4.818   8.584 -0.1405 -0.1054 -0.7541
23894SOL     OW73688   7.389   9.472   6.660  0.0719 -0.0047 -0.1729
23894SOL    HW173689   7.470   9.521   6.649  0.2713 -0.3102 -0.0878
23894SOL    HW273690   7.417   9.382   6.676 -0.3033 -0.2835 -1.0280
23895SOL     OW73691   9.060   0.425   6.889 -0.2495 -0.8203 -0.4142
23895SOL    HW173692   9.115   0.349   6.873  0.4413 -0.0531 -1.8597
23895SOL    HW273693   9.005   0.433   6.811 -0.9516 -0.3561  0.1110
23896SOL     OW73694   4.358   1.989   4.090  0.2280  0.1339 -0.4852
23896SOL    HW173695   4.391   1.935   4.018  0.2919 -0.3652 -0.0890
23896SOL    HW273696   4.266   2.006   4.066  0.0778 -0.5230 -0.4041
23897SOL     OW73697   4.619   4.410   7.269 -0.0924 -0.3154 -0.3552
23897SOL    HW173698   4.573   4.327   7.277 -0.7909  0.1103  0.1781
23897SOL    HW273699   4.549   4.476   7.265  0.3929  0.1548 -2.1349
23898SOL     OW73700   1.167   8.538   5.511  0.2909 -0.0657 -0.0339
23898SOL    HW173701   1.251   8.495   5.523  0.9784  1.2586  0.1848
23898SOL    HW273702   1.175   8.585   5.428 -0.0372  0.4746  0.2314
23899SOL     OW73703   7.253   9.024   6.632 -0.2879  0.8843 -0.6778
23899SOL    HW173704   7.338   8.984   6.614 -0.2665  0.4535  0.3040
23899SOL    HW273705   7.274   9.111   6.667 -0.2333  0.5811  0.0452
23900SOL     OW73706   8.399   8.113   1.450 -0.3707  0.2023 -0.1518
23900SOL    HW173707   8.406   8.156   1.365 -2.0551 -1.2274 -1.0835
23900SOL    HW273708   8.489   8.085   1.470  0.3806  2.1619 -0.5148
23901SOL     OW73709   0.433   6.585   4.086  0.3231 -0.3408  0.0227
23901SOL    HW173710   0.353   6.627   4.054  0.7583  0.3503 -0.1849
23901SOL    HW273711   0.402   6.509   4.134 -0.3818 -1.2768 -1.8124
23902SOL     OW73712   6.118   8.857  10.633 -0.5148 -0.2099  0.1744
23902SOL    HW173713   6.162   8.804  10.700 -2.1375 -3.1794 -0.9193
23902SOL    HW273714   6.102   8.941  10.676  1.0031 -1.0181  2.5192
23903SOL     OW73715   9.499   2.964   3.475  0.5716  0.2122  0.7464
23903SOL    HW173716   9.541   2.948   3.559 -1.4239 -4.5994  1.1488
23903SOL    HW273717   9.528   2.892   3.419 -0.7990  1.3195 -1.5517
23904SOL     OW73718   9.815   9.834   9.495  0.5894  0.0491  0.2399
23904SOL    HW173719   9.836   9.746   9.528  1.4549 -1.2324 -3.2356
23904SOL    HW273720   9.720   9.841   9.503  0.1478 -2.3711 -1.6759
23905SOL     OW73721   2.953   0.593   9.713 -0.1141  0.3276 -0.4738
23905SOL    HW173722   2.993   0.597   9.799 -0.5477  1.3205 -0.3042
23905SOL    HW273723   3.018   0.632   9.654 -0.1174  0.3188 -0.4829
23906SOL     OW73724   9.984   6.397   0.317 -0.0521 -0.2043  0.4020
23906SOL    HW173725   9.956   6.357   0.399 -0.9516  0.5990  0.5016
23906SOL    HW273726   9.920   6.367   0.252  0.9154 -1.2063 -0.1223
23907SOL     OW73727   0.218   8.955   7.215 -0.3364 -0.2980 -0.6572
23907SOL    HW173728   0.172   9.037   7.195 -1.1179 -0.6828 -0.4856
23907SOL    HW273729   0.267   8.975   7.295 -0.5710 -0.0175 -0.5803
23908SOL     OW73730   4.147   1.107   3.633  0.7243 -0.1197 -0.1413
23908SOL    HW173731   4.149   1.043   3.703  2.6779 -1.3146 -1.2057
23908SOL    HW273732   4.160   1.191   3.677  0.2079 -0.6445  1.0570
23909SOL     OW73733   0.424   3.541   2.221  0.2607  0.1886  0.2110
23909SOL    HW173734   0.408   3.589   2.303  1.5100  1.8578 -0.4683
23909SOL    HW273735   0.519   3.543   2.211  0.1353 -0.1549 -1.1942
23910SOL     OW73736   4.245   1.162   0.033 -0.3473 -0.0252  0.4525
23910SOL    HW173737   4.256   1.215  -0.046  1.3820  0.7355  1.1561
23910SOL    HW273738   4.163   1.193   0.072 -0.5204  0.5301 -0.3392
23911SOL     OW73739   6.441   2.489  10.268  0.3951 -0.1261 -0.1882
23911SOL    HW173740   6.394   2.534  10.338  0.4356 -1.0612  0.4524
23911SOL    HW273741   6.533   2.498  10.292  0.4498  0.1075 -0.4724
23912SOL     OW73742   0.031   9.218   0.897 -0.2381  0.0410  0.2603
23912SOL    HW173743  -0.033   9.288   0.882  1.4944  1.2296 -2.1793
23912SOL    HW273744  -0.012   9.139   0.863 -0.9545  0.5553 -0.0523
23913SOL     OW73745   5.484   2.119   7.426 -0.2580 -0.9290  0.0312
23913SOL    HW173746   5.551   2.073   7.476  1.0047 -0.4787 -1.1730
23913SOL    HW273747   5.454   2.056   7.361  0.0467 -0.6846 -0.3525
23914SOL     OW73748  10.108   4.666   6.836  0.3369 -0.5233 -0.1146
23914SOL    HW173749  10.143   4.655   6.925 -1.3373 -0.9139  0.5294
23914SOL    HW273750  10.157   4.740   6.800  1.0721 -0.3857  1.1157
23915SOL     OW73751   1.759   0.576   2.546 -0.7106  0.1486 -0.5383
23915SOL    HW173752   1.828   0.515   2.520  0.0915 -0.0328  1.7372
23915SOL    HW273753   1.802   0.661   2.550 -1.4603  0.6504 -2.2207
23916SOL     OW73754   2.930   3.271   5.005  0.1508  0.0660  0.7620
23916SOL    HW173755   2.933   3.188   5.054 -1.7757  0.1619  1.1091
23916SOL    HW273756   2.839   3.279   4.977  1.1225  0.0868 -2.8153
23917SOL     OW73757   3.704   3.541   0.486 -0.3030 -0.7499 -0.2647
23917SOL    HW173758   3.779   3.600   0.498  0.6291 -1.7773 -0.8751
23917SOL    HW273759   3.641   3.593   0.437 -0.8299  0.7767  1.8847
23918SOL     OW73760   6.911   0.145   4.375 -0.6406  0.0116 -0.4657
23918SOL    HW173761   6.851   0.219   4.370 -0.3970  0.4005  1.5316
23918SOL    HW273762   6.936   0.141   4.467  3.5471  0.8106 -1.3547
23919SOL     OW73763   9.471   4.605   8.527 -0.7187 -0.0817 -0.0332
23919SOL    HW173764   9.497   4.694   8.548  1.8409 -1.0460  1.3039
23919SOL    HW273765   9.503   4.591   8.438  2.0605 -0.6823  0.9733
23920SOL     OW73766   9.077   2.983   2.228 -0.6761  0.0440 -0.3327
23920SOL    HW173767   9.073   3.043   2.154  2.0691  3.0872  1.6989
23920SOL    HW273768   9.136   2.914   2.199  1.3189  1.8009 -0.7592
23921SOL     OW73769   6.639   8.746  10.921  0.0330 -0.4411 -0.6182
23921SOL    HW173770   6.665   8.709  10.837 -2.2196 -1.3670 -0.9761
23921SOL    HW273771   6.633   8.670  10.980  0.4414  0.0425  0.0629
23922SOL     OW73772   5.749  10.464   6.155  0.6195 -0.3874  1.2621
23922SOL    HW173773   5.797  10.405   6.213  0.5153 -1.8546 -0.0615
23922SOL    HW273774   5.730  10.411   6.077  1.2296  1.6324 -0.3764
23923SOL     OW73775   8.808   7.917   8.678 -0.1229 -0.0263  0.3045
23923SOL    HW173776   8.796   7.981   8.608  1.7581  1.2697  1.1002
23923SOL    HW273777   8.739   7.852   8.662 -1.2625  1.4654 -1.3149
23924SOL     OW73778   5.748   6.616   7.993 -0.0437  0.3457  0.4632
23924SOL    HW173779   5.792   6.701   7.992  1.5099 -0.4276  0.7145
23924SOL    HW273780   5.655   6.638   7.996  0.1603  2.0678 -2.2877
23925SOL     OW73781  10.393   9.197   2.809 -0.3545 -0.1847 -0.2515
23925SOL    HW173782  10.359   9.219   2.896  1.1002  0.7000  0.1373
23925SOL    HW273783  10.477   9.243   2.805  0.3390 -1.4993 -1.5106
23926SOL     OW73784   4.123   7.307   3.223 -0.3972 -0.1709 -0.4105
23926SOL    HW173785   4.111   7.233   3.164  1.5702 -1.0095  0.1335
23926SOL    HW273786   4.152   7.378   3.167  0.4247 -0.6513 -0.6122
23927SOL     OW73787   0.537   5.062   8.815 -0.6365 -0.6965 -0.6542
23927SOL    HW173788   0.587   5.124   8.762  2.9763 -1.1061  1.8794
23927SOL    HW273789   0.531   5.102   8.901 -0.2871 -2.7892  0.4248
23928SOL     OW73790   9.989   1.814  10.257 -0.2402  0.0578  0.3192
23928SOL    HW173791  10.075   1.855  10.251  1.8856 -3.6197  2.3559
23928SOL    HW273792   9.945   1.860  10.329 -0.6442  2.7885 -1.5355
23929SOL     OW73793   7.387   8.731   7.392 -0.2886 -0.0904  0.4098
23929SOL    HW173794   7.414   8.648   7.433  2.0547  0.5053  0.2156
23929SOL    HW273795   7.461   8.790   7.406 -1.0671  1.3626 -1.2047
23930SOL     OW73796   0.157   9.626  10.326  0.2202  0.4811 -0.3434
23930SOL    HW173797   0.114   9.581  10.399 -0.1201  1.3021 -0.0235
23930SOL    HW273798   0.249   9.601  10.333 -0.1893 -1.4475 -1.1386
23931SOL     OW73799   2.453  10.994   8.685 -0.7680 -0.6682  0.0512
23931SOL    HW173800   2.456  11.084   8.715 -0.8413 -0.0896 -1.5719
23931SOL    HW273801   2.544  10.965   8.684 -0.8012 -0.8657  1.2232
23932SOL     OW73802   0.629   7.712  10.149  0.4167 -0.4959 -0.2812
23932SOL    HW173803   0.677   7.780  10.101  0.8437 -0.6843 -0.1173
23932SOL    HW273804   0.694   7.671  10.205 -0.4082  0.9108  1.8560
23933SOL     OW73805   4.498   0.960   6.166 -0.0827  0.1118  0.2645
23933SOL    HW173806   4.449   0.977   6.086  1.8955  0.5827 -0.9026
23933SOL    HW273807   4.456   1.016   6.232 -0.6084  1.1120 -0.8714
23934SOL     OW73808   9.367   4.923   6.933  0.2308 -0.5709 -0.2033
23934SOL    HW173809   9.374   5.015   6.908  0.5550 -0.3078  0.8003
23934SOL    HW273810   9.293   4.920   6.995  1.1492 -0.7139  0.9141
23935SOL     OW73811   7.263   3.604   7.709 -0.6056  0.1701 -0.5991
23935SOL    HW173812   7.320   3.557   7.770  1.2166  1.4025 -1.2525
23935SOL    HW273813   7.256   3.547   7.633 -1.2730 -0.5088 -0.0510
23936SOL     OW73814   2.452   0.660   8.191 -0.5773  0.3864 -0.1770
23936SOL    HW173815   2.523   0.695   8.138  0.8426  0.9326  1.9840
23936SOL    HW273816   2.422   0.583   8.143  0.8535  0.6595 -1.5902
23937SOL     OW73817   6.387   1.685  10.367 -0.0951 -0.2993  0.8659
23937SOL    HW173818   6.327   1.657  10.437 -0.9037 -1.0867 -0.1083
23937SOL    HW273819   6.367   1.777  10.354 -1.1898 -0.5758  0.4839
23938SOL     OW73820   0.871   6.975   8.384  0.3983 -0.1501  0.0204
23938SOL    HW173821   0.844   6.918   8.311 -1.5386  0.3006  0.3285
23938SOL    HW273822   0.788   7.004   8.423  1.3510  1.9720  0.5843
23939SOL     OW73823   7.522   7.417   6.479 -0.3025 -0.6264 -0.0813
23939SOL    HW173824   7.596   7.368   6.512 -1.9775 -2.4066  1.2558
23939SOL    HW273825   7.501   7.479   6.549  1.0222  1.2469 -1.2464
23940SOL     OW73826   8.374   5.396   6.135  0.7818  0.3614  0.7585
23940SOL    HW173827   8.320   5.362   6.206  0.7433  0.0446  0.5799
23940SOL    HW273828   8.416   5.319   6.098  3.0741  0.7896  2.2648
23941SOL     OW73829   7.371   5.308   4.017  0.5331 -0.0074  0.2347
23941SOL    HW173830   7.279   5.281   4.022 -0.2676  2.5166  0.5619
23941SOL    HW273831   7.397   5.323   4.108  0.8993  0.3986  0.0682
23942SOL     OW73832   1.116   8.488  10.220 -0.5346 -0.5759 -0.5548
23942SOL    HW173833   1.208   8.482  10.246 -0.6596  0.5228  0.2096
23942SOL    HW273834   1.119   8.513  10.128 -0.0791 -0.9380 -0.6460
23943SOL     OW73835   1.072   5.536  10.377  0.2421 -0.1495 -0.1144
23943SOL    HW173836   0.995   5.579  10.338  0.7074  0.6732 -0.1639
23943SOL    HW273837   1.095   5.467  10.315 -1.4396 -1.5189  0.7160
23944SOL     OW73838   1.109   4.314   1.285 -0.2942 -0.4930 -0.1459
23944SOL    HW173839   1.083   4.222   1.292  0.0535 -0.4664  2.1582
23944SOL    HW273840   1.181   4.314   1.221  1.6085 -2.3089  1.8461
23945SOL     OW73841   3.241   9.288   9.591 -0.3149  0.1699  0.4163
23945SOL    HW173842   3.218   9.248   9.675  0.9264 -2.2840 -0.3187
23945SOL    HW273843   3.189   9.241   9.526 -0.0526  0.9126 -0.3531
23946SOL     OW73844   5.697   9.144   1.846  0.0395  0.4597 -0.3055
23946SOL    HW173845   5.643   9.215   1.881 -1.0029  1.0677 -2.8643
23946SOL    HW273846   5.755   9.188   1.783 -0.1043 -0.8280 -1.3838
23947SOL     OW73847   9.993   8.452   1.163 -0.0525 -0.3125 -0.4650
23947SOL    HW173848   9.977   8.545   1.151  0.5259  0.3699  3.0281
23947SOL    HW273849   9.965   8.412   1.081 -1.5091  2.7624 -1.6115
23948SOL     OW73850   5.621   7.744   8.029  0.2886 -0.4251  0.0793
23948SOL    HW173851   5.649   7.747   8.121  1.4453  0.5133 -0.2921
23948SOL    HW273852   5.651   7.660   7.997 -2.3679 -1.9444  1.2152
23949SOL     OW73853   6.157   1.128   1.257  0.2615  0.5386 -0.3065
23949SOL    HW173854   6.168   1.222   1.271 -1.0331  0.7754 -0.7398
23949SOL    HW273855   6.076   1.106   1.303  1.0171 -0.5505  0.5413
23950SOL     OW73856  10.182   0.609   6.911  0.1544 -0.0905 -0.2338
23950SOL    HW173857  10.264   0.606   6.862 -0.7224  1.4430 -1.8896
23950SOL    HW273858  10.123   0.550   6.864 -0.2892  0.3608 -0.2550
23951SOL     OW73859   8.435   7.822   2.005  0.1999 -0.7897 -0.4920
23951SOL    HW173860   8.525   7.841   1.981  0.5471 -1.8412 -0.0425
23951SOL    HW273861   8.385   7.897   1.971  1.5339  1.0676  1.3756
23952SOL     OW73862   7.942   0.447   0.335  0.3300 -0.6532  0.7410
23952SOL    HW173863   7.867   0.500   0.308 -0.3841 -1.1573  1.6804
23952SOL    HW273864   7.909   0.393   0.407  2.0490  0.3688  2.3803
23953SOL     OW73865   3.701   7.607   4.889 -0.1040 -0.4478  0.6765
23953SOL    HW173866   3.616   7.644   4.915 -0.1312  0.9718 -1.1599
23953SOL    HW273867   3.679   7.525   4.845 -0.5729  0.0081  0.0381
23954SOL     OW73868   7.406  10.633   5.405 -0.2863 -0.4701  0.2750
23954SOL    HW173869   7.328  10.680   5.434 -0.0482 -0.7207  1.3865
23954SOL    HW273870   7.430  10.579   5.480  2.3908  1.4361  0.9549
23955SOL     OW73871   8.641  11.074   6.429  0.4122 -0.0141 -1.1294
23955SOL    HW173872   8.641  11.168   6.449  0.0105 -0.0804 -0.8150
23955SOL    HW273873   8.584  11.065   6.354  1.6737  0.1925 -2.1507
23956SOL     OW73874   5.979   3.557   8.075  0.1051  0.3766 -0.1955
23956SOL    HW173875   5.970   3.605   7.993 -0.7292  0.6553  0.0454
23956SOL    HW273876   5.976   3.465   8.050 -1.6630  0.4441 -0.3590
23957SOL     OW73877   2.558   8.259   1.508 -0.5460 -0.3149 -0.5951
23957SOL    HW173878   2.595   8.347   1.517 -0.6618 -0.3475  0.3475
23957SOL    HW273879   2.628   8.207   1.470  0.1682 -0.2289  0.5715
23958SOL     OW73880   0.131   2.254   6.173  0.8792  0.0807 -0.3634
23958SOL    HW173881   0.059   2.269   6.235  0.4486  0.1288 -0.8687
23958SOL    HW273882   0.112   2.313   6.100  1.9573  0.8112 -0.0731
23959SOL     OW73883  10.206   0.164   0.375  0.4138  0.5577 -0.2448
23959SOL    HW173884  10.111   0.167   0.369  0.3184 -1.0939 -0.0837
23959SOL    HW273885  10.232   0.098   0.310  1.5565  1.7711 -1.0808
23960SOL     OW73886   8.369   5.780   8.819 -0.4214  0.3835  0.3836
23960SOL    HW173887   8.373   5.874   8.803  0.4028  0.5344  1.3487
23960SOL    HW273888   8.356   5.773   8.914 -0.2969 -0.4687  0.3439
23961SOL     OW73889   1.429   5.416   9.406 -0.2510  0.1927 -0.2046
23961SOL    HW173890   1.442   5.397   9.313  2.2551  3.6713 -0.8036
23961SOL    HW273891   1.512   5.392   9.446  0.4797  2.9718  0.1477
23962SOL     OW73892   5.179  10.727   4.234 -0.7498  0.0621  0.5465
23962SOL    HW173893   5.103  10.773   4.199  0.1288  0.3737 -1.0462
23962SOL    HW273894   5.253  10.786   4.217 -0.3452  0.8068  4.0242
23963SOL     OW73895   3.568   7.149   1.530  0.2396  0.4527  0.3724
23963SOL    HW173896   3.485   7.154   1.482  1.0659 -1.2353 -1.3338
23963SOL    HW273897   3.616   7.227   1.503  0.8386 -0.6317 -1.9483
23964SOL     OW73898   5.928   4.350   2.966  0.4415 -0.0743 -0.1070
23964SOL    HW173899   5.924   4.302   2.883  0.0425 -1.3776  0.6492
23964SOL    HW273900   5.839   4.346   3.001  0.9163 -0.7632  1.0648
23965SOL     OW73901   4.637   9.719   9.832  0.5828  0.3077  0.1467
23965SOL    HW173902   4.588   9.736   9.752 -0.5420 -1.1012  0.5034
23965SOL    HW273903   4.657   9.626   9.829  2.4475  0.6557  0.4890
23966SOL     OW73904   2.898   4.623   7.082  0.4550 -0.0187  0.0618
23966SOL    HW173905   2.940   4.676   7.149  0.7242 -1.6377  1.2271
23966SOL    HW273906   2.968   4.567   7.048 -0.3696 -1.6600  0.9458
23967SOL     OW73907   9.395   9.787   6.728 -0.4391  0.2907 -0.0663
23967SOL    HW173908   9.305   9.804   6.753 -1.0633 -0.5311 -1.6409
23967SOL    HW273909   9.413   9.848   6.656  0.1281  0.1890 -0.0205
23968SOL     OW73910  10.318   0.267   3.075 -0.3376 -0.2422  0.1330
23968SOL    HW173911  10.365   0.317   3.142  0.7425  0.1414 -0.8754
23968SOL    HW273912  10.248   0.222   3.123 -0.0873  0.6459  1.3812
23969SOL     OW73913   8.709   7.240   8.695 -0.8325  0.2483 -0.3372
23969SOL    HW173914   8.647   7.174   8.728  0.3736  0.3105  2.2952
23969SOL    HW273915   8.667   7.324   8.714  0.2938  0.3195  2.2811
23970SOL     OW73916  10.060   0.637   6.071 -0.0800 -0.7314 -0.1326
23970SOL    HW173917   9.978   0.683   6.052 -0.1828 -1.1101 -0.6273
23970SOL    HW273918  10.068   0.572   6.001  1.4756  0.3872 -1.0654
23971SOL     OW73919   3.263   6.613  10.714 -0.3792  0.6845 -0.1959
23971SOL    HW173920   3.295   6.673  10.781 -0.8043 -1.7025  2.3489
23971SOL    HW273921   3.341   6.586  10.666  0.4159  0.3816  1.2066
23972SOL     OW73922   0.996   9.706   1.081  0.0175 -0.1799  0.9789
23972SOL    HW173923   0.938   9.716   1.157 -1.3830  1.1208 -0.1707
23972SOL    HW273924   1.027   9.795   1.063 -0.7857 -0.2112 -0.7582
23973SOL     OW73925   3.274   3.581   4.258 -0.7600 -0.0882 -0.3875
23973SOL    HW173926   3.280   3.505   4.201 -0.5428  0.8023 -1.5898
23973SOL    HW273927   3.208   3.637   4.217 -1.0694  0.2802  0.5876
23974SOL     OW73928   2.544   6.789   4.424  0.2438  0.5633  0.4328
23974SOL    HW173929   2.577   6.702   4.400  0.5166  1.6823 -4.1177
23974SOL    HW273930   2.449   6.779   4.424  0.2923 -0.0727  1.7139
23975SOL     OW73931   1.901   6.055   3.743  0.2677  0.5423 -0.1259
23975SOL    HW173932   1.944   6.025   3.663  0.1703 -0.3300  0.1442
23975SOL    HW273933   1.812   6.018   3.738  0.4510 -0.0264  0.6688
23976SOL     OW73934   2.919  10.380   5.507 -0.1404 -0.4748  0.3454
23976SOL    HW173935   2.914  10.286   5.527 -0.6392 -0.4694  0.2622
23976SOL    HW273936   2.940  10.422   5.590  0.8134 -0.7219  0.2397
23977SOL     OW73937   1.553   3.726   0.333  0.2775  0.2695 -0.5479
23977SOL    HW173938   1.539   3.820   0.332  0.2851  0.2983 -3.1710
23977SOL    HW273939   1.473   3.689   0.295  0.8971 -0.6584 -0.9902
23978SOL     OW73940   3.691   1.394   8.281 -0.0335 -0.3032  0.2554
23978SOL    HW173941   3.597   1.376   8.268  0.0584 -0.2503 -0.5601
23978SOL    HW273942   3.696   1.432   8.368 -0.9913  1.1969 -0.3130
23979SOL     OW73943   5.748   2.931   7.587 -0.2391 -0.2290  0.2045
23979SOL    HW173944   5.747   2.917   7.682 -1.7995  1.4855  0.4891
23979SOL    HW273945   5.711   2.851   7.550  0.1613 -0.8147  1.0393
23980SOL     OW73946   3.107   1.086   8.894  0.4508  0.3983  0.2979
23980SOL    HW173947   3.138   1.130   8.815  2.1434 -0.8035  0.2485
23980SOL    HW273948   3.051   1.151   8.937  1.7324  2.0696 -0.4613
23981SOL     OW73949   1.718   6.598   6.126 -0.5723  1.0372 -0.2739
23981SOL    HW173950   1.728   6.692   6.114  1.1655  0.9733  0.3594
23981SOL    HW273951   1.756   6.581   6.212 -1.5504 -0.1542 -0.0457
23982SOL     OW73952  11.033   3.407   8.109  0.1182  0.0365 -0.0950
23982SOL    HW173953  11.035   3.319   8.146 -1.4243 -0.2264 -0.5517
23982SOL    HW273954  10.979   3.398   8.031 -1.1021  1.6217  0.5208
23983SOL     OW73955  10.757   9.610  11.083  0.2911  0.6167 -0.1514
23983SOL    HW173956  10.815   9.541  11.114  1.2408  2.4168  2.4785
23983SOL    HW273957  10.815   9.673  11.040  0.2164  1.8978  1.5148
23984SOL     OW73958   7.384   1.196  10.209 -0.2456  0.0377 -0.0510
23984SOL    HW173959   7.477   1.188  10.190 -0.2974 -0.9928  0.0819
23984SOL    HW273960   7.365   1.289  10.199  1.2603  0.6325  2.0093
23985SOL     OW73961   4.082   0.296   0.376 -0.3648  0.3661  0.9851
23985SOL    HW173962   4.055   0.214   0.418  0.3241 -1.3537 -1.6885
23985SOL    HW273963   4.019   0.309   0.306  2.2782 -0.6850 -1.7783
23986SOL     OW73964   8.517   6.248   1.182  0.4881 -0.2907 -0.0038
23986SOL    HW173965   8.460   6.321   1.206 -0.8513 -1.6673  1.1759
23986SOL    HW273966   8.598   6.263   1.231 -0.6636 -0.8374  2.1463
23987SOL     OW73967   9.570   2.194  10.468 -0.0720 -0.4657 -0.1441
23987SOL    HW173968   9.559   2.271  10.412 -0.9477 -0.5304 -0.0707
23987SOL    HW273969   9.538   2.221  10.554  1.5596 -0.2679  0.4326
23988SOL     OW73970   8.943   4.827   2.390  0.2876  0.0815 -0.7128
23988SOL    HW173971   8.879   4.854   2.324  0.0175 -2.1185 -1.4422
23988SOL    HW273972   8.892   4.820   2.471 -0.1359 -0.4253 -1.0168
23989SOL     OW73973   0.021   5.465   7.258  0.9998 -0.5331  0.3030
23989SOL    HW173974  -0.048   5.519   7.221 -0.8976 -2.9764  0.0520
23989SOL    HW273975   0.080   5.528   7.301  0.4310  1.9190 -2.2187
23990SOL     OW73976   8.713   5.014   6.879 -1.5758 -0.0850  0.5567
23990SOL    HW173977   8.752   4.977   6.958 -2.9484  0.5618  1.5651
23990SOL    HW273978   8.650   4.949   6.850 -2.1568  0.3354  0.8660
23991SOL     OW73979   8.761   7.174   6.225  0.4070 -0.2793  0.2682
23991SOL    HW173980   8.687   7.191   6.168  1.2810 -1.1541 -1.1735
23991SOL    HW273981   8.802   7.260   6.238 -0.7957  0.2050  1.0617
23992SOL     OW73982   4.145   1.567   7.390 -0.4502 -0.3137 -0.0471
23992SOL    HW173983   4.174   1.593   7.477 -1.1453 -1.2879  0.4917
23992SOL    HW273984   4.219   1.519   7.354 -0.7170 -1.2642  0.6316
23993SOL     OW73985   8.907  10.724   6.214  0.1026  0.2650  0.5976
23993SOL    HW173986   8.888  10.777   6.291 -0.3906 -1.4296  1.6875
23993SOL    HW273987   8.917  10.635   6.247  2.4165 -0.1432 -0.9672
23994SOL     OW73988   6.226   2.685  10.511  0.4373  0.2354  0.2073
23994SOL    HW173989   6.298   2.622  10.518  1.2671  1.3034  2.2739
23994SOL    HW273990   6.147   2.633  10.520  1.1154 -0.4688  2.8758
23995SOL     OW73991   5.057   6.204  10.103 -0.6452 -0.1670 -0.1771
23995SOL    HW173992   5.055   6.132  10.039  0.7293  1.7811 -2.6356
23995SOL    HW273993   5.008   6.274  10.061  1.0176  1.4829  0.4895
23996SOL     OW73994   6.844   3.730   5.809  0.3252  0.2361 -0.8019
23996SOL    HW173995   6.865   3.823   5.818  1.6737 -0.1264  0.1559
23996SOL    HW273996   6.881   3.690   5.887 -1.1484 -0.9827 -0.6775
23997SOL     OW73997   7.334   2.793   3.002  0.6801 -0.0149 -0.5912
23997SOL    HW173998   7.269   2.794   3.072  1.0406 -3.6345 -0.0086
23997SOL    HW273999   7.287   2.828   2.925 -2.3071 -3.0104 -0.3580
23998SOL     OW74000   0.836   8.461   2.351  0.2455 -0.2483  0.0937
23998SOL    HW174001   0.748   8.499   2.355  0.3818 -0.0364  3.7074
23998SOL    HW274002   0.875   8.500   2.272 -2.2021  1.1708 -0.5149
23999SOL     OW74003   7.544   9.924   3.131  0.8719 -0.2812 -0.4095
23999SOL    HW174004   7.570   9.836   3.159  0.9818 -0.0420  0.2575
23999SOL    HW274005   7.482   9.954   3.198  1.1942  0.3299 -0.3737
24000SOL     OW74006   1.129   0.936   1.867  0.3765 -0.6681  0.1033
24000SOL    HW174007   1.172   0.985   1.937  0.9436  0.4645 -0.9868
24000SOL    HW274008   1.173   0.851   1.867 -0.3677 -1.0935  1.7864
24001SOL     OW74009   1.826   2.662   6.588  0.6333 -0.1124  0.0656
24001SOL    HW174010   1.863   2.729   6.531  2.0566 -1.1667 -0.3143
24001SOL    HW274011   1.748   2.631   6.542  0.3358  0.7997 -0.0679
24002SOL     OW74012   5.668   2.488   4.029 -0.6874 -0.2107 -0.0363
24002SOL    HW174013   5.737   2.506   3.964 -0.6433  1.4839  0.4208
24002SOL    HW274014   5.687   2.400   4.060  1.0091  0.0328 -0.2739
24003SOL     OW74015   0.277   1.551   0.858 -0.2425 -0.0249 -0.0645
24003SOL    HW174016   0.262   1.464   0.821 -1.3575 -0.0432  0.3908
24003SOL    HW274017   0.268   1.610   0.783  1.9618 -0.3702 -0.6730
24004SOL     OW74018   7.449   0.140   7.831  0.4964 -0.4593 -0.2462
24004SOL    HW174019   7.412   0.092   7.757 -0.2991 -0.6181  0.2438
24004SOL    HW274020   7.376   0.194   7.862  0.9538 -0.0718  0.1485
24005SOL     OW74021   9.858   2.606   2.629  0.3511  0.1007  0.6402
24005SOL    HW174022   9.804   2.548   2.575  0.4662  0.0197  0.6118
24005SOL    HW274023   9.797   2.672   2.661  0.1073 -0.3527  1.1172
24006SOL     OW74024   3.233   2.774   1.254  0.3268 -0.0089 -0.5238
24006SOL    HW174025   3.274   2.696   1.292  1.1719  0.8701  0.4137
24006SOL    HW274026   3.303   2.817   1.206  0.4795  1.3352  0.8278
24007SOL     OW74027  10.389   7.829   0.719  0.2195  0.6302 -0.1485
24007SOL    HW174028  10.445   7.762   0.759  0.9857  0.2111 -1.8293
24007SOL    HW274029  10.422   7.912   0.756  0.9504  0.2756  0.0227
24008SOL     OW74030  10.143   7.965  11.093  0.6001 -0.3079 -0.0425
24008SOL    HW174031  10.211   8.010  11.142 -0.1405 -0.5679  1.2664
24008SOL    HW274032  10.073   7.950  11.157 -0.9106  0.4025 -1.4606
24009SOL     OW74033   6.322  10.036  10.524 -0.1821 -0.1213  0.1616
24009SOL    HW174034   6.348  10.052  10.433  1.5548 -1.4616  0.3891
24009SOL    HW274035   6.254  10.102  10.540  0.6741  1.2793 -1.5478
24010SOL     OW74036   2.375   5.111  10.679  0.5419  0.4037  0.3236
24010SOL    HW174037   2.458   5.064  10.676  0.0581 -0.5275  1.1004
24010SOL    HW274038   2.356   5.134  10.588 -0.0963 -2.5103 -0.3581
24011SOL     OW74039   1.530   6.913  10.435 -0.1595  0.0629 -0.1925
24011SOL    HW174040   1.597   6.920  10.503 -0.7532  0.2262  0.3948
24011SOL    HW274041   1.576   6.931  10.353  1.2021 -3.0573 -0.2317
24012SOL     OW74042   6.533   5.868   8.071 -0.4866  0.3011  0.3033
24012SOL    HW174043   6.480   5.937   8.111 -2.2411  0.6379 -2.3131
24012SOL    HW274044   6.473   5.793   8.065  0.6905 -0.7412  1.0471
24013SOL     OW74045   6.702   9.230   8.168 -0.4853  0.2502 -0.1244
24013SOL    HW174046   6.710   9.325   8.173 -2.3069  0.4131  0.8562
24013SOL    HW274047   6.649   9.207   8.244  0.9038 -1.7086  0.3286
24014SOL     OW74048   8.719   2.596   2.637  0.2712  0.0941 -0.0111
24014SOL    HW174049   8.675   2.648   2.704 -1.9806 -1.6486  0.0049
24014SOL    HW274050   8.701   2.642   2.555  1.2175  1.1105  0.3389
24015SOL     OW74051   7.030   9.568   5.200 -0.8470 -0.0743  0.8217
24015SOL    HW174052   6.975   9.630   5.248 -0.4945  0.5056  0.4950
24015SOL    HW274053   6.969   9.504   5.163 -1.7254  2.2457 -2.1231
24016SOL     OW74054   8.959   5.637   5.429 -0.5585 -1.1859 -0.6766
24016SOL    HW174055   8.995   5.619   5.343  0.3711 -0.1863 -0.5157
24016SOL    HW274056   8.917   5.723   5.420 -1.3605 -1.5436 -0.3990
24017SOL     OW74057   5.179   8.170   8.497  0.0097  0.2678 -0.1689
24017SOL    HW174058   5.133   8.149   8.416 -0.2183 -1.1923  0.2991
24017SOL    HW274059   5.127   8.240   8.537 -0.6422  0.0631 -0.6448
24018SOL     OW74060   3.670   9.632   0.797  0.1722 -0.3852  0.1477
24018SOL    HW174061   3.613   9.687   0.850 -0.6542 -0.2675 -0.8340
24018SOL    HW274062   3.632   9.636   0.709 -0.8657 -3.6944  0.2944
24019SOL     OW74063   5.247   5.018   2.956  0.1936  0.4217  0.2190
24019SOL    HW174064   5.339   5.012   2.932 -0.4516  0.0557 -2.5388
24019SOL    HW274065   5.238   5.107   2.991  1.6197  0.4057  0.6823
24020SOL     OW74066   7.042  10.053   2.995  0.2938 -0.8559  0.6355
24020SOL    HW174067   6.952  10.062   2.963  0.8306 -0.4531 -0.8854
24020SOL    HW274068   7.037  10.071   3.089 -1.2325 -1.0164  0.6024
24021SOL     OW74069   8.651   0.151   4.174  0.0533 -0.4096  0.7740
24021SOL    HW174070   8.675   0.104   4.094 -0.4414  0.4182  0.1293
24021SOL    HW274071   8.621   0.236   4.144 -0.4873 -0.2148  1.8267
24022SOL     OW74072   7.380  10.460   7.821 -0.0506 -0.1499  0.1279
24022SOL    HW174073   7.342  10.434   7.904 -0.0120 -2.1789 -0.4375
24022SOL    HW274074   7.413  10.379   7.783 -0.2184  0.6840 -1.9499
24023SOL     OW74075   7.989   6.838   9.760 -0.3133  0.4114 -0.7392
24023SOL    HW174076   8.002   6.844   9.665 -1.1811  0.0961 -0.8826
24023SOL    HW274077   7.905   6.794   9.770  0.6311 -1.2742  0.1998
24024SOL     OW74078   6.983   5.079   1.745 -0.4209 -0.1887 -0.0762
24024SOL    HW174079   7.012   5.131   1.819  0.9085 -1.1331  0.0965
24024SOL    HW274080   6.946   5.000   1.784 -3.5787  1.0330 -0.2647
24025SOL     OW74081   5.956   2.525   2.869  0.1244  0.3029 -0.3612
24025SOL    HW174082   5.938   2.467   2.795 -0.7390 -0.6509  0.5622
24025SOL    HW274083   5.993   2.604   2.829  0.8537 -0.6757 -1.6824
24026SOL     OW74084   6.910   2.979   8.082  0.6841 -0.4265 -0.4801
24026SOL    HW174085   6.845   3.048   8.095  0.9345 -0.2226 -0.2760
24026SOL    HW274086   6.987   3.026   8.050  0.5342 -0.7402 -1.3269
24027SOL     OW74087   1.405   8.017   6.637 -0.2307 -0.0213  0.3304
24027SOL    HW174088   1.495   8.044   6.618 -0.5812  0.2231 -1.0443
24027SOL    HW274089   1.415   7.937   6.689  0.7734  0.1408  0.4125
24028SOL     OW74090   5.246   2.503   2.423  0.1390  0.4479 -0.2055
24028SOL    HW174091   5.307   2.524   2.494 -0.8103 -1.4052  1.2574
24028SOL    HW274092   5.299   2.456   2.359  0.5535  0.0754  0.4018
24029SOL     OW74093   5.439  11.050  10.454  0.6318  0.5459 -0.4249
24029SOL    HW174094   5.421  11.027  10.546  1.5873  0.7207 -0.1814
24029SOL    HW274095   5.378  11.121  10.435 -2.4130 -2.0263 -1.1955
24030SOL     OW74096   3.380   9.878   7.120  1.0282  0.0662 -0.4809
24030SOL    HW174097   3.352   9.969   7.114 -0.0908 -0.3347 -1.8130
24030SOL    HW274098   3.384   9.860   7.214 -2.6698  0.3632 -0.1076
24031SOL     OW74099   6.141   4.481   3.083 -0.8528 -0.2590  0.5553
24031SOL    HW174100   6.126   4.570   3.112  1.5734  0.5051 -0.2419
24031SOL    HW274101   6.057   4.451   3.049 -1.1485  2.7118 -1.6637
24032SOL     OW74102   9.918   8.550   3.420 -1.1603  0.0210  0.6684
24032SOL    HW174103   9.980   8.498   3.369 -0.1364 -0.6260  2.4678
24032SOL    HW274104   9.834   8.537   3.376 -0.4428 -1.0092 -0.4617
24033SOL     OW74105  10.360   2.173   0.353  0.7983  0.1949 -0.1469
24033SOL    HW174106  10.343   2.142   0.264 -1.9264  0.3575  0.2410
24033SOL    HW274107  10.273   2.180   0.393  1.9584 -0.0318  2.5980
24034SOL     OW74108   7.031  10.519   7.805  0.5831  0.3227 -0.3121
24034SOL    HW174109   7.111  10.506   7.755  0.2196  1.9259 -1.3911
24034SOL    HW274110   6.965  10.543   7.740 -1.1729 -2.1896  0.3521
24035SOL     OW74111   6.887   7.369   8.116 -0.7711 -0.2556 -0.8291
24035SOL    HW174112   6.816   7.429   8.138 -0.6678 -0.6379  0.6221
24035SOL    HW274113   6.967   7.414   8.144 -0.4836 -0.1476 -1.7724
24036SOL     OW74114   6.914  10.446   1.836  0.2554 -0.0338  0.2380
24036SOL    HW174115   6.962  10.421   1.757 -0.0932  1.1251 -0.3557
24036SOL    HW274116   6.881  10.363   1.870  0.1328 -0.5269 -1.0151
24037SOL     OW74117   6.125   9.717  11.098  0.6803 -0.2562  0.0484
24037SOL    HW174118   6.054   9.781  11.093  0.6182 -0.0593  2.2750
24037SOL    HW274119   6.205   9.769  11.089  0.5861 -0.2036 -0.5007
24038SOL     OW74120   5.704   5.000   4.411 -0.6013  0.0641 -0.1537
24038SOL    HW174121   5.609   5.006   4.407 -0.7133 -0.4026  1.2720
24038SOL    HW274122   5.722   4.942   4.486  0.8030  0.4263 -0.1733
24039SOL     OW74123   3.656   1.398   6.355 -0.0142  0.3243 -0.0937
24039SOL    HW174124   3.703   1.480   6.369  1.2236 -0.5529  1.1335
24039SOL    HW274125   3.672   1.347   6.435  0.4256 -1.6607 -1.3826
24040SOL     OW74126   7.903   2.787   2.118  0.3835 -0.3901  0.5181
24040SOL    HW174127   7.934   2.799   2.028 -0.1585  0.7990  0.4605
24040SOL    HW274128   7.896   2.692   2.128  0.9686 -0.5680 -0.5103
24041SOL     OW74129   7.509  10.793   6.474 -0.1229  0.3583  0.0041
24041SOL    HW174130   7.543  10.825   6.391  1.3076  0.5576  0.6410
24041SOL    HW274131   7.499  10.699   6.461 -0.3883  0.4560 -0.5449
24042SOL     OW74132   5.939   3.698   4.907  0.1577  0.4115  0.8204
24042SOL    HW174133   5.928   3.789   4.877  2.5294  0.0759 -1.4142
24042SOL    HW274134   5.909   3.645   4.833  1.4117 -0.5604  0.9709
24043SOL     OW74135   9.938   6.973   9.598 -0.1143  0.5289 -0.2329
24043SOL    HW174136   9.935   6.878   9.596 -1.4017  0.4621  1.9848
24043SOL    HW274137   9.878   7.000   9.527  0.3779 -0.2853 -0.9704
24044SOL     OW74138  10.938   6.749   9.309 -0.4410  0.1311  0.2282
24044SOL    HW174139  11.028   6.779   9.299 -0.5687  0.8682  1.1137
24044SOL    HW274140  10.885   6.817   9.267 -0.6316  0.1794  0.5418
24045SOL     OW74141   9.763   8.694  10.675  0.1136 -1.0161 -0.3722
24045SOL    HW174142   9.829   8.764  10.675  0.4102 -1.2951 -0.2744
24045SOL    HW274143   9.724   8.697  10.762 -0.4660 -0.4237 -0.6390
24046SOL     OW74144   8.616   3.926   9.593  0.1547  0.1307 -0.0147
24046SOL    HW174145   8.552   3.883   9.650  0.2317  0.7815  0.5731
24046SOL    HW274146   8.611   3.877   9.511 -0.3006 -0.5185  0.3898
24047SOL     OW74147   2.654   9.088   8.641  0.0134  0.5342 -0.0020
24047SOL    HW174148   2.654   9.012   8.582 -1.6265  0.2051  0.3821
24047SOL    HW274149   2.746   9.100   8.663  0.2777 -1.7401  0.4169
24048SOL     OW74150   9.766   5.347   3.996 -0.1645 -0.2169  0.0639
24048SOL    HW174151   9.705   5.371   3.926 -0.8577 -0.1969  0.6710
24048SOL    HW274152   9.852   5.343   3.952 -0.5304  0.1657 -0.7063
24049SOL     OW74153   6.327   9.406   0.628  0.0437  0.3113 -0.6667
24049SOL    HW174154   6.281   9.323   0.628 -1.1103  0.9229 -1.2660
24049SOL    HW274155   6.358   9.416   0.537  0.9494  0.1392 -0.3893
24050SOL     OW74156   2.755   0.397   2.871 -0.0402 -0.1246 -0.5481
24050SOL    HW174157   2.819   0.459   2.836  0.7934 -0.7215 -0.1114
24050SOL    HW274158   2.671   0.443   2.866  0.9252  2.3789  2.7468
24051SOL     OW74159   3.678   6.869   2.669 -0.0574  0.5495 -0.1668
24051SOL    HW174160   3.585   6.892   2.664 -0.2781 -0.5526 -2.0405
24051SOL    HW274161   3.722   6.936   2.617  0.2566  1.1891  0.8862
24052SOL     OW74162   3.411   7.906   0.049  0.7797 -0.4725  1.0004
24052SOL    HW174163   3.332   7.852   0.044 -0.6449  1.6061 -0.1212
24052SOL    HW274164   3.453   7.894  -0.036  0.0246  0.7601  0.4319
24053SOL     OW74165   8.339  10.721   5.828  0.0051  1.0115  0.1267
24053SOL    HW174166   8.348  10.724   5.733  0.4103  0.9258  0.1603
24053SOL    HW274167   8.246  10.703   5.843 -0.1546  1.5226 -0.2436
24054SOL     OW74168   0.217   0.493   4.991  0.6172  0.3045  0.4821
24054SOL    HW174169   0.211   0.529   4.902 -1.9782 -0.7861  0.1487
24054SOL    HW274170   0.275   0.417   4.982  1.0656  0.6944 -0.0695
24055SOL     OW74171  10.056   2.860   7.546  0.2632 -0.0453 -1.1301
24055SOL    HW174172  10.029   2.950   7.530  1.6746  0.7551  0.6627
24055SOL    HW274173  10.134   2.848   7.493  0.6743  0.1470 -0.5759
24056SOL     OW74174   8.883   4.216   9.271  0.4349  0.2400 -0.5690
24056SOL    HW174175   8.797   4.200   9.233 -0.9041  0.2707  2.1995
24056SOL    HW274176   8.924   4.130   9.275 -0.4836 -0.1842  0.2784
24057SOL     OW74177  10.334   0.878   7.272  1.3776 -0.4063 -0.8558
24057SOL    HW174178  10.316   0.797   7.320  0.2038  2.2124  3.7161
24057SOL    HW274179  10.424   0.899   7.294  0.4934  1.3931  1.4971
24058SOL     OW74180   4.984  10.609   7.589  0.3657 -0.0166  0.4653
24058SOL    HW174181   4.938  10.528   7.570  1.1662 -0.2507 -0.5348
24058SOL    HW274182   4.930  10.677   7.548 -0.1749 -0.0510  1.0969
24059SOL     OW74183   9.927   5.496   2.481  0.9292  0.1352 -0.0424
24059SOL    HW174184   9.940   5.419   2.537  0.9283 -0.5119 -0.9088
24059SOL    HW274185   9.991   5.485   2.411 -0.8052 -0.4716 -1.6174
24060SOL     OW74186   9.337   9.935  11.086 -0.1289  0.2415 -0.0303
24060SOL    HW174187   9.364   9.871  11.153 -0.3308  0.3132  0.1193
24060SOL    HW274188   9.391  10.012  11.104  1.0031 -0.3013 -0.9679
24061SOL     OW74189   8.843  10.195   7.503  0.5798  0.2329  0.3590
24061SOL    HW174190   8.859  10.283   7.536  0.7897  0.7995 -1.1797
24061SOL    HW274191   8.915  10.178   7.442 -0.1570 -0.4663 -0.3511
24062SOL     OW74192   8.076   4.761   8.878  0.0093  0.3045 -0.9648
24062SOL    HW174193   8.003   4.823   8.874 -0.2018 -0.0321 -3.1400
24062SOL    HW274194   8.048   4.687   8.825  2.3076  0.5955 -2.7186
24063SOL     OW74195   2.500   9.310   7.781  0.1429 -0.6805  0.1096
24063SOL    HW174196   2.568   9.343   7.839  0.0174 -0.9630  0.4153
24063SOL    HW274197   2.541   9.307   7.694  0.2191  0.0862  0.1149
24064SOL     OW74198   8.043   9.683   1.116  0.3782 -0.1931  0.0757
24064SOL    HW174199   7.985   9.710   1.187 -0.3957  0.9657 -0.9713
24064SOL    HW274200   8.113   9.749   1.117  0.2217 -0.0180 -0.3966
24065SOL     OW74201   8.339   0.000   9.568  0.1137 -0.1956 -0.1637
24065SOL    HW174202   8.400  -0.028   9.499  0.9704 -0.3282  0.6287
24065SOL    HW274203   8.385   0.072   9.612 -0.6710  0.2670 -0.0806
24066SOL     OW74204  10.941   3.666   1.797 -0.0305  0.1250 -0.7334
24066SOL    HW174205  11.017   3.653   1.740  0.5161 -0.2521  0.0570
24066SOL    HW274206  10.930   3.582   1.842  0.7213  0.9550  1.0940
24067SOL     OW74207   5.103   8.266   2.905 -0.0612 -0.0168 -0.0141
24067SOL    HW174208   5.166   8.255   2.976  1.2073  1.3742 -0.8575
24067SOL    HW274209   5.018   8.253   2.946  0.6757 -0.0379  1.5751
24068SOL     OW74210   5.802   6.121   9.906  1.1918  0.6696  0.8015
24068SOL    HW174211   5.728   6.156   9.956 -0.3267  0.6783 -1.3366
24068SOL    HW274212   5.822   6.038   9.950 -1.2839 -0.2129  0.4189
24069SOL     OW74213   7.688   3.656  10.196 -0.5887 -0.7786  0.2231
24069SOL    HW174214   7.687   3.722  10.127  0.6929 -1.6495 -0.6632
24069SOL    HW274215   7.598   3.623  10.199 -1.1098  0.6170  0.3173
24070SOL     OW74216   9.422   0.838   4.440  0.1641  0.4385  0.2456
24070SOL    HW174217   9.402   0.814   4.530  1.6021  1.1207  0.7969
24070SOL    HW274218   9.442   0.756   4.396  0.8849  0.2162  0.9649
24071SOL     OW74219   4.089   9.261   7.616  0.0350  0.7782 -0.7173
24071SOL    HW174220   4.181   9.242   7.599  0.9369  3.0956  0.8878
24071SOL    HW274221   4.090   9.349   7.655 -2.6170  0.0175  1.4323
24072SOL     OW74222   9.824   7.538   1.600 -0.1218  0.3791 -0.4553
24072SOL    HW174223   9.856   7.448   1.611 -1.1657 -0.0940 -1.1882
24072SOL    HW274224   9.736   7.537   1.637 -1.2090  0.3659 -2.8585
24073SOL     OW74225   8.748   7.565   7.169 -0.0936 -0.2807  0.3453
24073SOL    HW174226   8.763   7.649   7.127 -0.7881 -0.3667 -0.1099
24073SOL    HW274227   8.801   7.567   7.248  0.8403  0.0930 -0.2817
24074SOL     OW74228   6.899   9.716  10.932 -0.2341  0.5153 -0.3441
24074SOL    HW174229   6.822   9.731  10.878 -0.8624 -0.8922  0.1102
24074SOL    HW274230   6.930   9.803  10.955 -2.1981  1.1275  0.1758
24075SOL     OW74231   3.691   8.022   5.517 -0.2609  0.4153  0.9111
24075SOL    HW174232   3.771   7.973   5.537 -0.5750  0.2011  1.6649
24075SOL    HW274233   3.686   8.020   5.421  1.3720  1.6227  0.7608
24076SOL     OW74234   1.993   9.164   6.479  0.1397  0.0015 -0.5993
24076SOL    HW174235   1.912   9.171   6.531 -0.6793 -2.6667 -1.3484
24076SOL    HW274236   1.987   9.236   6.416 -0.6046  1.0956  0.6629
24077SOL     OW74237   3.328   3.981   1.058 -0.6749 -0.3292  0.3531
24077SOL    HW174238   3.402   4.025   1.100 -0.9439 -0.1351  0.6260
24077SOL    HW274239   3.367   3.934   0.984 -0.3744  0.3443  0.0720
24078SOL     OW74240   5.476   2.902   1.334 -0.1369  0.1207 -0.2690
24078SOL    HW174241   5.390   2.941   1.353  1.0924  1.7182  2.7046
24078SOL    HW274242   5.515   2.887   1.420  3.7997  2.4084 -1.3975
24079SOL     OW74243   2.311   8.841   1.535  0.5445 -0.0255  0.2977
24079SOL    HW174244   2.305   8.794   1.618  0.3463 -0.5732 -0.0254
24079SOL    HW274245   2.404   8.863   1.526  0.5042  0.4168  0.8668
24080SOL     OW74246  11.025   1.965   5.091 -0.9743  0.4698 -0.0891
24080SOL    HW174247  11.049   1.918   5.172  2.3278  0.6779 -0.7907
24080SOL    HW274248  10.994   2.050   5.121 -1.6513 -0.1359  0.9988
24081SOL     OW74249   7.529   1.741   1.996  0.0671 -0.1953  0.0605
24081SOL    HW174250   7.560   1.819   2.041  0.6339  0.4460 -1.3561
24081SOL    HW274251   7.435   1.754   1.986 -0.0317 -0.2606  0.8752
24082SOL     OW74252   2.496   8.309  10.187 -0.7665  0.5323  0.2278
24082SOL    HW174253   2.437   8.383  10.201 -0.0197  1.1120  0.4001
24082SOL    HW274254   2.584   8.348  10.193 -0.3728 -0.2984 -0.0833
24083SOL     OW74255   6.930   1.013   0.693  0.2834 -0.0987 -0.0497
24083SOL    HW174256   6.853   1.029   0.639 -0.3061 -1.7318  0.2539
24083SOL    HW274257   6.989   1.086   0.673 -0.8702  0.5669 -1.1371
24084SOL     OW74258   8.296   8.849   3.155 -0.2227  0.7705  0.2526
24084SOL    HW174259   8.299   8.817   3.245 -2.1642  0.5770  0.2718
24084SOL    HW274260   8.252   8.934   3.161 -2.3333 -0.1841 -0.7134
24085SOL     OW74261  10.959   0.068   5.501  0.3808 -0.2198 -0.5360
24085SOL    HW174262  11.047   0.079   5.466  0.3306 -1.5432 -1.1534
24085SOL    HW274263  10.948   0.141   5.562  2.1915 -0.4959  0.1743
24086SOL     OW74264   3.670   1.108   4.884  0.2248  0.1272 -0.2826
24086SOL    HW174265   3.729   1.177   4.852  0.6747  0.5626  1.4099
24086SOL    HW274266   3.723   1.028   4.881  0.5970  0.3486  0.3383
24087SOL     OW74267   6.953   1.365  10.589  0.4982 -0.2789 -0.0564
24087SOL    HW174268   6.940   1.414  10.508  0.6322 -2.1305 -1.2599
24087SOL    HW274269   6.965   1.274  10.561  2.7403 -0.6935  1.8608
24088SOL     OW74270   3.924   7.813   1.354  0.7696 -0.3091  0.4987
24088SOL    HW174271   3.925   7.888   1.414 -1.0901 -1.4347  2.0707
24088SOL    HW274272   3.956   7.740   1.407 -0.9124 -1.3358  0.1680
24089SOL     OW74273   8.302   3.892   0.890  0.4810  0.3198 -0.1390
24089SOL    HW174274   8.347   3.972   0.864 -0.6837  1.3474  0.8665
24089SOL    HW274275   8.304   3.894   0.986 -3.5788  1.6522  0.1048
24090SOL     OW74276   4.155   8.845   3.185  0.2427 -0.5387 -0.2342
24090SOL    HW174277   4.111   8.858   3.269 -5.1841 -1.0073 -2.6027
24090SOL    HW274278   4.162   8.932   3.148  1.6853 -0.4478  0.1972
24091SOL     OW74279   0.897   0.419   4.587 -0.2797  0.1088  0.0504
24091SOL    HW174280   0.865   0.427   4.497  0.9490  2.2748 -0.2541
24091SOL    HW274281   0.832   0.363   4.630 -2.0790  0.7686 -1.6336
24092SOL     OW74282   6.470   8.459   4.739  0.0478  1.0124  0.8121
24092SOL    HW174283   6.471   8.453   4.835  0.1383  1.0136  0.8119
24092SOL    HW274284   6.525   8.385   4.710 -0.5196  0.6110  0.7388
24093SOL     OW74285   4.792   8.466   1.187  0.2395  0.6455  0.2464
24093SOL    HW174286   4.853   8.538   1.171  0.8273 -0.1134 -1.0564
24093SOL    HW274287   4.844   8.398   1.229  0.0706  0.3699  0.0208
24094SOL     OW74288   6.039   1.692   4.716  0.0702 -0.2465  0.2263
24094SOL    HW174289   6.046   1.740   4.798 -0.6665  1.9363 -0.8944
24094SOL    HW274290   5.944   1.680   4.704  0.1081  0.2318 -0.6784
24095SOL     OW74291   3.628   0.499   8.993 -0.2105  0.1324 -0.5104
24095SOL    HW174292   3.672   0.438   8.934 -1.1313 -0.7878 -0.2768
24095SOL    HW274293   3.642   0.462   9.080 -1.7714 -0.4207 -0.4615
24096SOL     OW74294   5.461   8.103   4.459  0.4908 -0.3680  0.1219
24096SOL    HW174295   5.551   8.075   4.478  1.5265  0.6047 -2.7728
24096SOL    HW274296   5.419   8.109   4.545  3.4908  0.1362  1.6844
24097SOL     OW74297   2.286   4.894   2.851  0.2935 -0.0429 -0.7174
24097SOL    HW174298   2.266   4.900   2.944 -0.1901  1.0203 -0.8638
24097SOL    HW274299   2.289   4.986   2.822 -0.7706 -0.3849 -1.9905
24098SOL     OW74300  10.075   0.449   9.307  0.7104 -0.0116 -0.8249
24098SOL    HW174301  10.077   0.524   9.247 -0.0989  0.3206 -0.4511
24098SOL    HW274302  10.091   0.373   9.252 -0.4666  0.2415 -1.5408
24099SOL     OW74303   1.106  10.399   9.592  0.3676  0.4601  0.5859
24099SOL    HW174304   1.105  10.493   9.612 -1.4634  0.7670 -0.6595
24099SOL    HW274305   1.087  10.395   9.498 -1.2219 -1.1963  0.9271
24100SOL     OW74306   6.837  10.848   2.570  0.2614  0.4537 -0.0439
24100SOL    HW174307   6.877  10.898   2.640  0.7522  1.3346 -0.9267
24100SOL    HW274308   6.895  10.861   2.495  1.5672 -3.0498  0.1457
24101SOL     OW74309   7.902   6.384   1.734  0.1697 -0.1448 -0.3636
24101SOL    HW174310   7.875   6.471   1.707  0.9062  0.3108  0.3131
24101SOL    HW274311   7.946   6.347   1.656  0.8825  0.5417 -0.3010
24102SOL     OW74312   4.957  10.904   7.733  0.0693 -0.7778 -0.3513
24102SOL    HW174313   5.019  10.838   7.767  0.3222 -2.1466 -3.1605
24102SOL    HW274314   4.874  10.858   7.728 -0.5834  0.2219  0.8235
24103SOL     OW74315  10.222   0.075   8.443 -0.1220  0.0335 -0.6437
24103SOL    HW174316  10.148   0.069   8.504 -0.5731 -1.8586 -1.2957
24103SOL    HW274317  10.299   0.057   8.497 -0.1534  1.4991 -0.0625
24104SOL     OW74318   8.899   6.785   6.878  0.3122  0.2911 -0.2792
24104SOL    HW174319   8.918   6.797   6.785 -1.6311  0.6250 -0.6812
24104SOL    HW274320   8.813   6.825   6.890  0.0630 -0.6724  1.4382
24105SOL     OW74321  10.702   5.683   2.718  0.3338  0.3877  0.3440
24105SOL    HW174322  10.745   5.640   2.644 -3.0069  0.3849 -1.8128
24105SOL    HW274323  10.745   5.769   2.724  1.2727  0.0418 -1.0262
24106SOL     OW74324   9.032   1.690   7.831  0.3508  0.1801 -0.5052
24106SOL    HW174325   8.967   1.696   7.762 -2.3206 -0.2272  1.8023
24106SOL    HW274326   8.982   1.693   7.913  3.2458 -0.0374  1.4550
24107SOL     OW74327   1.470   0.576   4.133 -0.0538 -0.2829  0.2689
24107SOL    HW174328   1.542   0.610   4.080 -1.4317 -0.4669 -1.8538
24107SOL    HW274329   1.393   0.624   4.101 -1.0171 -0.6704  1.8988
24108SOL     OW74330   6.662   3.806   3.934 -0.1186  0.4842 -0.2137
24108SOL    HW174331   6.573   3.790   3.967  0.0219 -0.5500 -0.3045
24108SOL    HW274332   6.681   3.896   3.960 -1.2931  0.8037 -0.4234
24109SOL     OW74333   7.040   3.404   8.788 -0.4196 -0.0942  0.4568
24109SOL    HW174334   7.054   3.404   8.883 -0.3501  1.8343  0.4931
24109SOL    HW274335   6.970   3.468   8.774  0.4715  0.6557 -0.8734
24110SOL     OW74336   7.338   0.418  10.120  0.2201  0.2456 -0.0027
24110SOL    HW174337   7.319   0.377  10.036  0.6285 -1.7148  0.8044
24110SOL    HW274338   7.341   0.511  10.102 -0.1415 -0.1126 -2.0658
24111SOL     OW74339  10.039   7.548  10.172  0.1045 -0.0516  0.4408
24111SOL    HW174340   9.945   7.533  10.169 -0.1098  1.1354  0.5735
24111SOL    HW274341  10.069   7.497  10.248 -0.7353  0.9840  1.5093
24112SOL     OW74342   1.089  10.596   0.059  0.8315 -0.8218  0.8059
24112SOL    HW174343   1.172  10.549   0.064  0.8473 -0.8319  0.4475
24112SOL    HW274344   1.040  10.564   0.135  1.1480 -0.8229  1.0140
24113SOL     OW74345   8.297   8.704   2.455  0.0798 -0.0320 -0.5316
24113SOL    HW174346   8.326   8.795   2.449  0.9914 -0.2610  0.1083
24113SOL    HW274347   8.320   8.665   2.371 -1.2761  0.5725 -1.2144
24114SOL     OW74348   9.663   6.356   5.683  1.1290 -0.1765  0.2562
24114SOL    HW174349   9.708   6.291   5.738  0.2492 -2.2210 -1.3221
24114SOL    HW274350   9.711   6.356   5.601  0.2706  0.1328 -0.2567
24115SOL     OW74351   1.376   8.660   6.447  0.0147  0.4530 -0.0625
24115SOL    HW174352   1.465   8.628   6.429  0.6900  2.6138 -0.8238
24115SOL    HW274353   1.370   8.743   6.400 -1.7467  1.3174  1.5469
24116SOL     OW74354   9.196   4.127   5.250  1.0599  0.4349 -0.4510
24116SOL    HW174355   9.163   4.198   5.195  1.3358  0.6204 -0.3765
24116SOL    HW274356   9.202   4.052   5.191 -4.1333 -1.0543  0.4445
24117SOL     OW74357   7.455   9.960   0.233 -0.1410  0.4144 -0.0633
24117SOL    HW174358   7.483   9.872   0.209 -2.7967 -0.4526 -0.2748
24117SOL    HW274359   7.380   9.947   0.290 -1.0839  2.5211 -0.7015
24118SOL     OW74360   8.628   7.272   4.524  0.2588 -0.1331 -0.2554
24118SOL    HW174361   8.575   7.350   4.506  1.5013  0.9993  0.7828
24118SOL    HW274362   8.642   7.274   4.619  2.3100 -0.2337 -0.5022
24119SOL     OW74363   6.566   4.218  11.087 -0.9779 -0.1763 -0.1333
24119SOL    HW174364   6.547   4.306  11.054  0.2868 -0.7191 -2.5292
24119SOL    HW274365   6.511   4.160  11.034 -0.7817 -0.9477  0.4844
24120SOL     OW74366   1.559   1.594   5.486  0.0630  0.6152 -0.0545
24120SOL    HW174367   1.473   1.594   5.526 -0.2873  2.9060 -0.6901
24120SOL    HW274368   1.557   1.520   5.425 -1.8560  1.2749 -0.8513
24121SOL     OW74369   8.459   5.542  10.544  0.1526  0.1688 -0.3597
24121SOL    HW174370   8.407   5.517  10.467  1.7944 -0.1717 -1.4189
24121SOL    HW274371   8.549   5.546  10.511  0.9470 -0.3214  1.6365
24122SOL     OW74372  10.488   6.081   7.677  0.6742  0.2748 -0.4970
24122SOL    HW174373  10.399   6.045   7.683  1.1150 -0.7325  0.2193
24122SOL    HW274374  10.503   6.121   7.763  1.6115 -1.2574  0.0815
24123SOL     OW74375   8.194   2.307   3.471 -0.2079  0.0727 -0.0148
24123SOL    HW174376   8.119   2.351   3.511 -0.1089  0.3903 -0.1705
24123SOL    HW274377   8.203   2.350   3.385 -0.4496 -0.6289 -0.3981
24124SOL     OW74378   6.937   4.510   3.304  0.6003  0.8332  0.0181
24124SOL    HW174379   6.888   4.429   3.320 -2.2922  2.3184 -0.6576
24124SOL    HW274380   7.006   4.484   3.243 -0.1999 -1.1288 -0.1557
24125SOL     OW74381   1.497   6.615  10.463 -0.1850 -0.1666 -0.1425
24125SOL    HW174382   1.572   6.590  10.409  0.1250 -0.9840  0.6381
24125SOL    HW274383   1.430   6.642  10.401  0.0905 -1.2924 -0.9462
24126SOL     OW74384   8.549   2.417   3.792  0.4108  0.6004 -0.5226
24126SOL    HW174385   8.636   2.380   3.781  1.0272  2.2280 -1.5216
24126SOL    HW274386   8.500   2.385   3.716  0.8541  1.5382 -1.2245
24127SOL     OW74387   3.106  11.077  10.943 -0.5361  0.3739  0.2655
24127SOL    HW174388   3.194  11.040  10.953 -0.8876 -0.4067  0.5248
24127SOL    HW274389   3.082  11.057  10.853 -0.8606 -0.3516  0.5044
24128SOL     OW74390   0.199   8.790   8.586  0.7175 -0.3453 -0.3018
24128SOL    HW174391   0.107   8.810   8.605  0.1668 -2.2673 -0.7967
24128SOL    HW274392   0.235   8.873   8.556 -0.7479  0.5479  0.2868
24129SOL     OW74393   9.314   6.421   1.751  0.1707 -0.6138 -0.0234
24129SOL    HW174394   9.273   6.498   1.792  1.9933  0.4848 -0.1809
24129SOL    HW274395   9.404   6.448   1.733  0.0990 -1.8367 -2.6801
24130SOL     OW74396   4.458   1.208   3.928  0.1400 -0.5473  0.5627
24130SOL    HW174397   4.374   1.212   3.975 -0.3491  0.3761 -0.3269
24130SOL    HW274398   4.524   1.221   3.996 -0.4318 -1.2423  1.2720
24131SOL     OW74399   2.444   2.848  10.435  0.0514 -0.0062  0.0333
24131SOL    HW174400   2.447   2.852  10.530 -1.0857  0.2020  0.0787
24131SOL    HW274401   2.409   2.761  10.415  1.1204 -0.3858 -0.2269
24132SOL     OW74402   4.620   3.422   4.034 -0.6139  0.3898  0.3197
24132SOL    HW174403   4.597   3.427   3.942 -1.0912  0.0696  0.4179
24132SOL    HW274404   4.713   3.396   4.035 -0.5173  0.7233 -0.0692
24133SOL     OW74405   3.367   5.494   0.602  0.1737 -0.5054 -0.2914
24133SOL    HW174406   3.432   5.562   0.586  0.2708 -0.8743 -1.5300
24133SOL    HW274407   3.304   5.535   0.662  0.1648  0.7280 -1.1145
24134SOL     OW74408   0.049   1.851   3.953 -0.2476  0.1015 -0.1324
24134SOL    HW174409   0.079   1.762   3.937 -0.8124  0.1242 -1.4037
24134SOL    HW274410   0.114   1.887   4.013 -0.7522 -1.5833  1.5366
24135SOL     OW74411   0.172   9.723  10.655 -0.7920 -0.4947  0.0703
24135SOL    HW174412   0.134   9.798  10.609  0.1660 -0.7874 -1.2768
24135SOL    HW274413   0.116   9.649  10.630 -1.5164 -0.3054  1.0979
24136SOL     OW74414   2.225  10.850   1.299  0.2543  0.7412 -0.1303
24136SOL    HW174415   2.237  10.762   1.263 -2.5431 -0.7022  2.0304
24136SOL    HW274416   2.224  10.837   1.394 -1.0449  2.9747  0.2337
24137SOL     OW74417   7.189   1.245   3.938 -0.3509  0.2382  0.4779
24137SOL    HW174418   7.166   1.220   3.848 -1.7845  2.0772  0.2837
24137SOL    HW274419   7.280   1.274   3.932 -0.2462 -0.2193 -0.2610
24138SOL     OW74420   9.897  10.027   2.101 -0.4481  0.4240  0.0632
24138SOL    HW174421   9.917  10.120   2.089 -1.1700  0.4151 -1.4460
24138SOL    HW274422   9.944  10.003   2.180  0.4029  1.8813  0.0440
24139SOL     OW74423   5.127   6.813   1.507  0.2041 -0.3778  0.3845
24139SOL    HW174424   5.143   6.725   1.473 -1.7680 -1.1981  1.3874
24139SOL    HW274425   5.067   6.799   1.581 -0.7751  1.8698  0.0871
24140SOL     OW74426   8.089   4.229   4.681 -0.9364 -0.7838 -0.0546
24140SOL    HW174427   8.105   4.301   4.620  0.8398 -1.8019 -0.8551
24140SOL    HW274428   7.997   4.206   4.667 -1.1925  0.5133 -0.6597
24141SOL     OW74429   1.456   0.559   1.203 -0.4838  0.6355  0.1383
24141SOL    HW174430   1.527   0.519   1.253 -2.9435 -1.7709  2.0244
24141SOL    HW274431   1.438   0.641   1.250  0.3893  0.7965  0.2140
24142SOL     OW74432   6.015   1.866  10.491  0.3997 -0.2376 -0.5244
24142SOL    HW174433   6.028   1.773  10.507 -1.2503 -0.6358 -1.2557
24142SOL    HW274434   5.998   1.904  10.577 -1.0258 -1.0242 -0.4223
24143SOL     OW74435   1.034   9.437   0.974  0.5279 -0.0054 -0.4434
24143SOL    HW174436   0.949   9.406   1.005  0.6122  0.4497  0.2572
24143SOL    HW274437   1.050   9.517   1.023  1.3765 -0.1016 -0.5460
24144SOL     OW74438   5.255   7.836   4.119 -0.3728  0.5817 -0.1828
24144SOL    HW174439   5.215   7.906   4.171 -0.8641  0.3369 -0.2274
24144SOL    HW274440   5.222   7.755   4.158 -1.3021  0.4075 -1.3077
24145SOL     OW74441  10.130   9.447   4.479  0.3895 -0.1987  0.4844
24145SOL    HW174442  10.112   9.530   4.522 -0.1947 -0.4607  0.7529
24145SOL    HW274443  10.207   9.464   4.425  0.2930  0.5061  0.5647
24146SOL     OW74444   1.676   2.412   6.981  0.1615  0.4886  0.2501
24146SOL    HW174445   1.736   2.381   6.913  0.7016  1.3818  0.3082
24146SOL    HW274446   1.599   2.443   6.932 -0.1618 -0.4373  0.1611
24147SOL     OW74447   4.198   0.671   4.639 -0.2768 -0.3762 -0.2376
24147SOL    HW174448   4.249   0.615   4.580  0.7233  0.9349 -0.6641
24147SOL    HW274449   4.254   0.747   4.654 -1.4201  0.3111  0.6871
24148SOL     OW74450  10.504   8.090   0.835  0.0202 -0.1477 -0.4712
24148SOL    HW174451  10.544   8.050   0.912  1.9468  1.8127 -0.3558
24148SOL    HW274452  10.573   8.146   0.798 -1.4850  0.5198 -2.4641
24149SOL     OW74453   3.821   2.255   5.411 -0.0266  0.3226  0.1280
24149SOL    HW174454   3.861   2.196   5.475  1.0316 -0.4181 -1.1430
24149SOL    HW274455   3.802   2.198   5.336 -0.7443  1.2612 -0.4235
24150SOL     OW74456   8.523   9.571   9.513  0.5711  0.0349  0.1491
24150SOL    HW174457   8.612   9.600   9.492  0.0860  0.2033 -1.9823
24150SOL    HW274458   8.489   9.538   9.430 -1.0779 -0.8218  1.1171
24151SOL     OW74459   3.792   2.133   5.165  0.0465 -0.7841 -0.3597
24151SOL    HW174460   3.887   2.141   5.156  0.1909 -1.2441  0.5861
24151SOL    HW274461   3.762   2.101   5.081  0.6180  0.2191 -0.9680
24152SOL     OW74462   9.407   1.693   5.771 -0.1733  0.6614 -0.2459
24152SOL    HW174463   9.355   1.769   5.744 -0.2653  1.3324  1.6245
24152SOL    HW274464   9.416   1.704   5.866  2.7596  0.2010 -0.3757
24153SOL     OW74465   8.183   0.321  10.793 -0.2225  0.3598  0.4740
24153SOL    HW174466   8.194   0.373  10.714 -0.3325 -0.1310  0.1287
24153SOL    HW274467   8.098   0.349  10.828 -0.1105  0.6753  0.4959
24154SOL     OW74468   4.892   6.667   0.976  0.4972  0.5872  0.4106
24154SOL    HW174469   4.953   6.708   1.037  0.4612 -0.9365  1.5267
24154SOL    HW274470   4.824   6.732   0.961  0.3542  0.8895  2.2519
24155SOL     OW74471   4.113   2.235   5.159 -0.6642  0.2028 -0.3807
24155SOL    HW174472   4.079   2.220   5.071  0.5728 -0.5685 -0.7507
24155SOL    HW274473   4.197   2.278   5.146 -0.4523  0.0533  0.4195
24156SOL     OW74474   2.431   4.880   0.123 -0.4682 -0.2096  0.1731
24156SOL    HW174475   2.450   4.807   0.181 -0.1427  0.2974  0.7151
24156SOL    HW274476   2.514   4.927   0.114 -0.3615 -0.6302 -1.2090
24157SOL     OW74477   5.118  10.768   0.915 -0.7884 -0.6402  0.7013
24157SOL    HW174478   5.185  10.762   0.984 -3.1157 -1.0837  3.0490
24157SOL    HW274479   5.083  10.680   0.909 -0.8683 -0.5178 -0.8682
24158SOL     OW74480   8.896   3.011   7.926  0.3367  0.2768  0.1258
24158SOL    HW174481   8.905   3.042   8.016 -0.8166  0.2201  0.2753
24158SOL    HW274482   8.919   2.918   7.930 -1.3192 -0.1460  0.7115
24159SOL     OW74483   7.560   4.134   1.687 -0.5172  0.7428  0.4707
24159SOL    HW174484   7.465   4.137   1.700 -0.3629  0.3691  1.8526
24159SOL    HW274485   7.577   4.050   1.645 -0.7749  0.6874  0.4798
24160SOL     OW74486   9.478   9.149   9.984  0.3322 -0.0634  0.1510
24160SOL    HW174487   9.451   9.097   9.908 -0.4205  0.8485 -0.2280
24160SOL    HW274488   9.557   9.195   9.954 -0.5590  1.1182 -0.4786
24161SOL     OW74489   6.456   5.097   7.979 -0.1593  0.6546 -0.5252
24161SOL    HW174490   6.543   5.135   7.983 -0.3965  1.1432  0.3231
24161SOL    HW274491   6.431   5.105   7.887 -0.3883  3.0639 -0.3381
24162SOL     OW74492   5.338   7.445  10.537  0.6886 -0.1565 -0.6895
24162SOL    HW174493   5.270   7.464  10.602  1.2922  2.0580 -0.6321
24162SOL    HW274494   5.340   7.522  10.481  0.6585 -1.7236 -2.9848
24163SOL     OW74495   6.599   2.490  10.990  0.2054  0.3247  0.2414
24163SOL    HW174496   6.552   2.498  11.073  0.4794  2.9973  0.2303
24163SOL    HW274497   6.692   2.493  11.014  0.2935  0.6405 -0.1236
24164SOL     OW74498   8.159  10.081   9.069 -0.3558  0.1819  0.3867
24164SOL    HW174499   8.238  10.066   9.018 -0.2920 -1.5401  0.9258
24164SOL    HW274500   8.091  10.032   9.024 -1.1230  1.5300  0.0090
24165SOL     OW74501   0.668   9.652   0.476  0.8928 -0.2131  0.2887
24165SOL    HW174502   0.718   9.575   0.505  0.1027 -0.6700  0.4501
24165SOL    HW274503   0.695   9.722   0.535  3.6085  0.3758 -1.4439
24166SOL     OW74504   2.646   5.664   0.988  0.5386 -0.4079  0.7110
24166SOL    HW174505   2.633   5.725   1.060  1.0431 -0.0334  0.4882
24166SOL    HW274506   2.709   5.707   0.930  2.6311 -2.0260  1.6472
24167SOL     OW74507   4.932   3.170   6.775 -0.1686 -0.3506  0.1235
24167SOL    HW174508   4.897   3.103   6.833 -3.7609  0.3592 -0.9815
24167SOL    HW274509   4.981   3.229   6.832 -0.8553 -1.4093  1.8699
24168SOL     OW74510   6.517   3.910   4.185 -0.2272 -0.0342  0.3844
24168SOL    HW174511   6.451   3.852   4.224  1.1479 -1.6480  0.4219
24168SOL    HW274512   6.545   3.967   4.257 -2.5235  1.6834  0.0473
24169SOL     OW74513   5.551  10.975   6.804  0.9184 -0.1607 -0.1044
24169SOL    HW174514   5.594  11.026   6.735  1.0424  0.6106  0.5254
24169SOL    HW274515   5.570  11.024   6.885  0.2856 -0.7301  0.3967
24170SOL     OW74516   4.586   3.344  10.498 -0.0506  0.4676 -0.7784
24170SOL    HW174517   4.660   3.352  10.438  0.4203  1.0253 -0.1358
24170SOL    HW274518   4.547   3.260  10.476 -0.3185  0.9555 -2.3517
24171SOL     OW74519   2.703   1.906   7.109 -0.7771 -0.6194  0.3529
24171SOL    HW174520   2.644   1.914   7.184 -0.6024 -2.0900  0.6684
24171SOL    HW274521   2.684   1.820   7.072  0.7245 -0.8655  0.0965
24172SOL     OW74522   8.923   4.402  10.631  0.3421  0.1509 -0.1844
24172SOL    HW174523   8.956   4.362  10.711 -0.9277 -2.0968 -0.6904
24172SOL    HW274524   8.924   4.496  10.649  1.9711 -0.1469  1.6849
24173SOL     OW74525   3.423  10.215  10.945  0.2048 -0.9180 -0.2603
24173SOL    HW174526   3.443  10.304  10.973 -0.4936 -0.4545 -1.1633
24173SOL    HW274527   3.493  10.193  10.883 -0.8592 -0.0827 -1.8312
24174SOL     OW74528   9.400   3.204   7.145 -0.0474 -0.8041 -0.0901
24174SOL    HW174529   9.425   3.115   7.119  0.5071 -0.2749 -1.4960
24174SOL    HW274530   9.484   3.246   7.166 -0.1204 -0.1608 -1.0167
24175SOL     OW74531   8.543   5.369   8.354  0.0064  0.2329  0.1047
24175SOL    HW174532   8.552   5.462   8.334 -0.6234  0.5482  1.1988
24175SOL    HW274533   8.502   5.332   8.276  0.3655  0.8527 -0.3837
24176SOL     OW74534   5.540   3.041   5.533  0.1844 -0.0525 -0.4388
24176SOL    HW174535   5.459   3.080   5.567  0.7340  1.4398 -0.7918
24176SOL    HW274536   5.512   2.990   5.457 -0.6045 -0.7755  0.2973
24177SOL     OW74537   8.962   5.854   1.504 -0.3149  0.1234  0.4598
24177SOL    HW174538   8.910   5.785   1.546 -3.3684  1.4315 -0.8727
24177SOL    HW274539   9.018   5.887   1.574 -2.1973 -0.5854  2.4188
24178SOL     OW74540   4.233   5.016   9.910 -0.0333  0.7414 -0.3950
24178SOL    HW174541   4.233   5.089   9.849  1.3319 -0.1189 -1.5097
24178SOL    HW274542   4.326   4.995   9.922 -0.3403 -0.0101  0.8854
24179SOL     OW74543   6.203   1.219   5.070 -0.1351  0.0360  0.3401
24179SOL    HW174544   6.213   1.143   5.128 -0.1096 -1.4907 -1.5726
24179SOL    HW274545   6.285   1.267   5.079  1.1314 -1.8054 -0.5882
24180SOL     OW74546  10.179  10.516   7.354  0.6629  0.0921 -0.1474
24180SOL    HW174547  10.238  10.589   7.375  1.5410 -0.8487  0.7903
24180SOL    HW274548  10.138  10.541   7.272  1.3520  1.4001 -0.1149
24181SOL     OW74549   8.392   6.797  10.595 -0.0899 -0.5456 -0.2464
24181SOL    HW174550   8.463   6.854  10.566 -0.3978 -0.4458 -0.8195
24181SOL    HW274551   8.315   6.855  10.600 -0.8050 -1.1842 -2.4594
24182SOL     OW74552   0.465   6.408   5.030 -0.1768  0.5674  0.5306
24182SOL    HW174553   0.445   6.498   5.055 -0.5331  1.0649 -1.3966
24182SOL    HW274554   0.445   6.404   4.937  1.5340 -1.0125  0.1673
24183SOL     OW74555  11.053   2.981   9.569 -0.6066  0.1314 -0.2409
24183SOL    HW174556  11.098   2.964   9.652 -1.6694 -0.6188  0.2028
24183SOL    HW274557  11.069   2.902   9.516  1.5433  1.2914 -1.4888
24184SOL     OW74558   8.971   1.112   5.911  0.0432  0.7066  0.3957
24184SOL    HW174559   9.001   1.201   5.930 -1.2270  1.0519  0.9334
24184SOL    HW274560   8.941   1.079   5.996  0.8276 -0.3782  0.2722
24185SOL     OW74561   7.719   7.380   2.006  0.6678  0.3687 -0.1006
24185SOL    HW174562   7.651   7.314   1.998  1.9927 -1.1341  0.4368
24185SOL    HW274563   7.749   7.395   1.916 -0.3836  1.0938 -0.3463
24186SOL     OW74564   6.641   6.446  10.849  0.0711 -0.8270 -0.4757
24186SOL    HW174565   6.645   6.484  10.760  1.7879 -2.2280 -1.0477
24186SOL    HW274566   6.553   6.409  10.855  0.0115 -0.9465 -1.7153
24187SOL     OW74567   0.014   1.114   0.303 -0.4528 -0.9223 -0.0607
24187SOL    HW174568  -0.053   1.045   0.310 -1.0710 -0.1981  1.8707
24187SOL    HW274569   0.019   1.134   0.210 -1.7847 -2.1080 -0.4163
24188SOL     OW74570   9.279  10.335   6.279 -0.3901 -0.5587  0.1754
24188SOL    HW174571   9.242  10.374   6.358 -1.4240 -0.1829 -0.4631
24188SOL    HW274572   9.373  10.340   6.291 -0.3622  3.4932 -0.4406
24189SOL     OW74573  10.868   3.963   3.983  1.0777 -0.2422  0.1105
24189SOL    HW174574  10.933   4.006   3.928  0.2769 -0.3775 -0.9557
24189SOL    HW274575  10.787   3.965   3.932  0.4407 -0.8405  1.0588
24190SOL     OW74576   9.713   4.021   1.713  0.2523  0.5031  0.5553
24190SOL    HW174577   9.788   4.076   1.690 -0.0866  0.9644  0.5325
24190SOL    HW274578   9.727   3.999   1.805  0.0019  1.2721  0.7867
24191SOL     OW74579   1.741   2.906   3.231 -0.1020  0.0199 -0.3668
24191SOL    HW174580   1.704   2.904   3.319 -1.0660  0.5726 -0.7497
24191SOL    HW274581   1.696   2.836   3.184  0.5320 -0.3852 -0.3851
24192SOL     OW74582   7.913   9.878   1.367  0.5102 -0.3907  0.7403
24192SOL    HW174583   7.879   9.885   1.278  1.7667 -0.0131  0.2616
24192SOL    HW274584   7.836   9.878   1.423 -0.2827 -0.2288 -0.3321
24193SOL     OW74585  10.651   6.788   9.555 -0.4542 -0.3972  0.0686
24193SOL    HW174586  10.589   6.793   9.483  1.1727  1.8698 -1.3014
24193SOL    HW274587  10.614   6.844   9.623 -0.9711 -0.8459  0.1588
24194SOL     OW74588   3.348   0.918  10.703 -0.3251 -0.4361  0.7252
24194SOL    HW174589   3.372   0.929  10.795  1.0974 -2.3255  0.6422
24194SOL    HW274590   3.431   0.908  10.657 -1.0457 -0.7574 -0.5820
24195SOL     OW74591   6.259   9.132   4.944  0.3301  0.3538  0.0481
24195SOL    HW174592   6.234   9.189   4.871  0.1168  0.7237  0.4022
24195SOL    HW274593   6.187   9.140   5.006  1.5435  1.8859  1.3484
24196SOL     OW74594   3.782   7.024   2.944 -0.1803  0.3196  0.1663
24196SOL    HW174595   3.752   6.934   2.955  2.4562 -0.4244  2.5472
24196SOL    HW274596   3.864   7.017   2.896 -0.8931  1.7179 -1.3765
24197SOL     OW74597   1.673   1.005   8.077  0.5695  0.4277 -0.3524
24197SOL    HW174598   1.645   1.062   8.004 -0.4146 -1.7408 -1.7763
24197SOL    HW274599   1.767   0.994   8.064  0.8838  2.1168  0.2712
24198SOL     OW74600  10.224   1.466  10.177  0.0993  0.1997  0.1673
24198SOL    HW174601  10.186   1.512  10.252 -0.0947  0.6654 -0.2114
24198SOL    HW274602  10.240   1.535  10.113 -0.3065 -0.2764 -0.4532
24199SOL     OW74603   3.611   7.553   3.244 -0.0125 -0.0575 -0.0830
24199SOL    HW174604   3.598   7.506   3.162  0.3734 -0.2797 -0.0158
24199SOL    HW274605   3.524   7.588   3.265 -0.1349 -0.0905 -0.5284
24200SOL     OW74606  10.135   5.046   5.261 -0.2819  0.0842 -0.3726
24200SOL    HW174607  10.201   5.112   5.242  2.6686 -1.5838  2.9545
24200SOL    HW274608  10.072   5.090   5.317 -0.5543  1.0092 -1.3791
24201SOL     OW74609  10.154   9.249   7.194  0.3835  0.5692 -0.2228
24201SOL    HW174610  10.145   9.216   7.105 -1.9180  0.5180 -0.0272
24201SOL    HW274611  10.098   9.192   7.247 -0.9692  2.6081  0.6797
24202SOL     OW74612   0.629   0.979   7.089  0.0517 -0.7691  0.1419
24202SOL    HW174613   0.654   1.063   7.128 -1.4651  0.1390 -0.7286
24202SOL    HW274614   0.558   1.001   7.028  0.5547 -2.4919 -1.1512
24203SOL     OW74615  10.993   7.011   8.088  0.7021  0.3758 -0.2952
24203SOL    HW174616  11.049   6.976   8.019  3.5049 -0.0012  1.9708
24203SOL    HW274617  11.018   7.103   8.094  1.9867 -0.0459  1.4598
24204SOL     OW74618   5.376   6.606   0.696 -0.8620 -0.2203 -0.5750
24204SOL    HW174619   5.449   6.595   0.757 -1.2616 -0.2581 -0.1058
24204SOL    HW274620   5.299   6.617   0.751 -1.5836 -2.4687 -1.0175
24205SOL     OW74621  10.241   0.478   8.129  0.8965 -0.9201  0.1675
24205SOL    HW174622  10.237   0.382   8.136  1.5958 -0.8788  1.5711
24205SOL    HW274623  10.216   0.509   8.216  1.6185  0.1365  0.0170
24206SOL     OW74624   4.946   9.878   8.067  0.5343  0.3532 -0.1249
24206SOL    HW174625   4.997   9.905   7.991 -1.3447 -0.6382 -1.8533
24206SOL    HW274626   4.865   9.930   8.061  0.8472  1.1941  1.9735
24207SOL     OW74627   8.795   1.627   2.377  0.6234  0.2083  0.8688
24207SOL    HW174628   8.783   1.644   2.471  0.6807  2.4841  0.5346
24207SOL    HW274629   8.883   1.660   2.359 -0.2441  2.0366 -0.3705
24208SOL     OW74630   3.965   6.561   7.329  0.0125 -0.1449 -0.2276
24208SOL    HW174631   3.965   6.530   7.419  1.1203 -1.2952 -0.5771
24208SOL    HW274632   3.875   6.587   7.312 -0.1972  0.1523  1.2251
24209SOL     OW74633   6.537   8.575   3.806  0.0490 -0.0900 -0.3020
24209SOL    HW174634   6.487   8.619   3.875 -0.4555 -0.9950 -0.0750
24209SOL    HW274635   6.563   8.492   3.845 -2.5620 -1.8758 -2.0280
24210SOL     OW74636   7.434  10.158   7.341 -0.0420  0.5748 -0.2714
24210SOL    HW174637   7.527  10.147   7.363 -0.1748 -0.3710 -0.1441
24210SOL    HW274638   7.416  10.087   7.279 -0.8046  0.4462  0.0869
24211SOL     OW74639   8.943  10.587  10.429  0.0669 -0.6893 -0.1223
24211SOL    HW174640   8.910  10.510  10.382 -1.1920 -0.4651  0.3567
24211SOL    HW274641   8.958  10.652  10.360  1.3507 -1.4015 -0.5597
24212SOL     OW74642   8.675   0.729   0.657 -0.7021  0.3011 -0.5887
24212SOL    HW174643   8.667   0.813   0.611  0.0976  0.4086 -0.5525
24212SOL    HW274644   8.672   0.663   0.587 -1.3645  0.3501 -0.6143
24213SOL     OW74645   8.392   8.467   1.440  0.2577  0.4081 -0.0065
24213SOL    HW174646   8.420   8.488   1.529  2.0244 -2.2138  0.1824
24213SOL    HW274647   8.455   8.401   1.410 -2.4869 -1.6504 -1.7774
24214SOL     OW74648   0.262   9.405   1.125  0.9947 -0.5767 -0.1670
24214SOL    HW174649   0.236   9.322   1.167  2.8433 -0.9274  0.3467
24214SOL    HW274650   0.190   9.423   1.064  0.3823 -2.3985 -0.0705
24215SOL     OW74651   7.121   0.681   6.022 -0.8310  0.4044  0.0426
24215SOL    HW174652   7.133   0.706   6.113  2.2454 -2.2062  0.5175
24215SOL    HW274653   7.191   0.725   5.974  1.1232 -2.5278 -0.0070
24216SOL     OW74654   4.854   0.781   3.274 -0.3814  0.1921  0.0501
24216SOL    HW174655   4.761   0.802   3.266 -0.0854  1.1231 -1.3749
24216SOL    HW274656   4.893   0.817   3.194  1.0748 -0.9046  0.2346
24217SOL     OW74657   9.579   2.122   6.619  0.0263  0.1059 -0.5266
24217SOL    HW174658   9.645   2.144   6.553  0.5324 -0.3572 -0.1841
24217SOL    HW274659   9.513   2.191   6.610  1.2411  1.3930  0.0760
24218SOL     OW74660   7.405   5.152   9.020 -0.0242  0.4302  0.2999
24218SOL    HW174661   7.491   5.182   9.049  0.0585  0.1056  0.3928
24218SOL    HW274662   7.421   5.117   8.932 -0.1272  0.6961  0.1761
24219SOL     OW74663   7.870   1.597   5.796  0.6225  0.9297  0.2714
24219SOL    HW174664   7.927   1.593   5.719 -3.3102 -0.2235 -2.9572
24219SOL    HW274665   7.832   1.684   5.793 -0.4021  0.4924  0.1758
24220SOL     OW74666   0.093   6.184   2.686 -0.5074 -0.6527  0.0755
24220SOL    HW174667   0.114   6.164   2.595  1.3980  0.8688  0.1205
24220SOL    HW274668   0.074   6.098   2.726 -0.4580 -1.4289 -1.5026
24221SOL     OW74669   2.360  10.937   5.264 -0.0802  0.2229 -0.3987
24221SOL    HW174670   2.343  10.966   5.174  1.2660 -1.0480 -1.1153
24221SOL    HW274671   2.411  10.857   5.253 -0.1051 -0.0844  1.5199
24222SOL     OW74672   1.763   3.887  11.094  0.5548 -0.8614 -0.1677
24222SOL    HW174673   1.690   3.944  11.119  1.0422 -1.2061  2.3663
24222SOL    HW274674   1.841   3.934  11.125  1.3751 -0.8545 -2.1313
24223SOL     OW74675   6.908   3.824   8.100 -0.0591 -0.7334  0.1856
24223SOL    HW174676   6.944   3.857   8.018  1.6289  0.7060  1.4151
24223SOL    HW274677   6.880   3.735   8.080 -0.6269 -0.0978 -2.1737
24224SOL     OW74678   6.080  10.391   5.744 -0.4508 -0.8488  0.3344
24224SOL    HW174679   6.049  10.482   5.741  0.5249 -0.4924  0.6142
24224SOL    HW274680   6.158  10.390   5.688  1.3441 -0.7406  2.6499
24225SOL     OW74681   6.115   5.513   8.085 -0.5416  0.3744 -0.5715
24225SOL    HW174682   6.182   5.489   8.021 -2.0590 -0.2820 -1.9716
24225SOL    HW274683   6.065   5.583   8.043 -1.6661 -0.1826 -0.2182
24226SOL     OW74684   0.621   9.939   0.530  0.1022 -0.2206 -0.0159
24226SOL    HW174685   0.691  10.002   0.549  0.2218 -0.7345  1.3896
24226SOL    HW274686   0.642   9.905   0.443  0.2763  1.3430 -0.6114
24227SOL     OW74687   4.329   6.133   6.406 -0.4988  0.0831  0.5266
24227SOL    HW174688   4.319   6.219   6.447  3.6822  0.6844  0.7094
24227SOL    HW274689   4.339   6.152   6.313  0.6144 -0.1390  0.5872
24228SOL     OW74690  11.003   7.047   5.939  1.1184  0.5191  0.2527
24228SOL    HW174691  11.093   7.061   5.968  1.1293  0.5672  0.1955
24228SOL    HW274692  10.997   7.093   5.856  0.5642  1.9713  1.0526
24229SOL     OW74693   1.804   0.774   8.913  0.5222  0.1565  0.1699
24229SOL    HW174694   1.746   0.808   8.845  0.3971 -0.9471 -0.2965
24229SOL    HW274695   1.802   0.679   8.900 -3.0259 -0.6895  4.4120
24230SOL     OW74696   5.463  10.276   7.954 -0.5098  0.2740 -0.5832
24230SOL    HW174697   5.498  10.190   7.977  2.0462  1.2919 -0.2260
24230SOL    HW274698   5.517  10.304   7.880  0.0945  2.3204  0.5528
24231SOL     OW74699   2.595   4.696   4.966 -0.4837  0.7269  0.1709
24231SOL    HW174700   2.516   4.676   5.016 -0.2856 -1.2628 -0.2128
24231SOL    HW274701   2.667   4.681   5.027 -0.2640 -1.2516 -0.5235
24232SOL     OW74702   7.566   7.964   5.458  0.4405  0.5531  0.2079
24232SOL    HW174703   7.489   8.022   5.463 -0.0192 -0.1147  1.1679
24232SOL    HW274704   7.530   7.877   5.448  1.1073  0.3204 -0.1988
24233SOL     OW74705   7.330   1.955   7.323  0.0718  0.1069 -0.0649
24233SOL    HW174706   7.358   1.926   7.236 -2.0764  0.5965 -0.9892
24233SOL    HW274707   7.361   2.045   7.329  0.2673  0.0588 -0.3221
24234SOL     OW74708   5.495   8.584   0.206 -0.6767 -0.1030  0.4471
24234SOL    HW174709   5.479   8.672   0.172  0.4005 -0.0839 -0.0495
24234SOL    HW274710   5.555   8.598   0.280 -0.2069 -0.4337  0.1395
24235SOL     OW74711   5.838   2.356   2.305  0.4134  0.3933  0.2683
24235SOL    HW174712   5.876   2.269   2.296  0.4166  0.3202  0.9691
24235SOL    HW274713   5.777   2.363   2.231 -0.4563 -0.6558  0.8447
24236SOL     OW74714   7.379   5.369   6.932  0.6997 -0.7254 -0.2196
24236SOL    HW174715   7.403   5.461   6.927  0.4193 -0.5367  1.3559
24236SOL    HW274716   7.438   5.326   6.870  0.9999  0.4719 -0.7970
24237SOL     OW74717   6.939   2.473   1.159 -0.1132  0.4102 -0.3046
24237SOL    HW174718   6.995   2.397   1.176  0.0714  0.5263 -0.3945
24237SOL    HW274719   6.979   2.544   1.208 -1.2755  0.0525  1.2175
24238SOL     OW74720   6.775   5.936   1.228  0.1091 -1.0976 -0.3206
24238SOL    HW174721   6.715   5.867   1.198 -0.4892 -0.8442  0.2775
24238SOL    HW274722   6.749   5.953   1.318 -0.8173  1.0237 -0.9304
24239SOL     OW74723   4.472   3.064   4.331  0.1091 -0.5741  0.8502
24239SOL    HW174724   4.403   3.117   4.372  0.0838 -0.0203  0.1190
24239SOL    HW274725   4.543   3.126   4.313 -0.2005 -0.6214 -0.6635
24240SOL     OW74726   4.885   5.104   2.049 -0.0087  0.2226  0.9431
24240SOL    HW174727   4.792   5.108   2.026  0.0019 -1.4948  0.4987
24240SOL    HW274728   4.887   5.105   2.145 -0.6004 -1.3320  0.9894
24241SOL     OW74729   6.267   0.221   7.279 -0.6302 -0.3926 -0.1660
24241SOL    HW174730   6.281   0.238   7.185 -3.1767 -0.6548 -0.6696
24241SOL    HW274731   6.200   0.284   7.304 -0.2285 -0.5705  1.4286
24242SOL     OW74732   1.534   6.051  10.673  0.1787  0.3932 -0.1906
24242SOL    HW174733   1.597   5.980  10.662  0.8409  1.2704 -2.6259
24242SOL    HW274734   1.587   6.125  10.705 -0.3111  0.1631  1.2435
24243SOL     OW74735   9.135   9.356   7.015 -0.0481 -1.4549 -0.3178
24243SOL    HW174736   9.209   9.298   6.999 -0.8141 -2.1911 -1.3509
24243SOL    HW274737   9.062   9.296   7.033 -0.9420 -0.8743 -1.7946
24244SOL     OW74738   4.574   0.482   1.136 -0.0130  0.4346  0.2478
24244SOL    HW174739   4.564   0.390   1.109  1.0415  0.3607  0.0675
24244SOL    HW274740   4.646   0.480   1.199  0.3887  1.2178 -0.1832
24245SOL     OW74741   3.607   8.874   1.241 -0.4623  0.3872  0.7077
24245SOL    HW174742   3.612   8.863   1.146 -1.1302 -0.0512  0.7201
24245SOL    HW274743   3.603   8.785   1.275  1.3921  0.4806  1.2548
24246SOL     OW74744   1.204   8.836   4.794  0.4737  0.1736 -0.6152
24246SOL    HW174745   1.127   8.856   4.847 -0.1843 -2.4700 -0.4206
24246SOL    HW274746   1.169   8.819   4.706  1.2074  1.7060 -1.2281
24247SOL     OW74747   4.206   4.304   4.034  0.9964  0.1048  0.3061
24247SOL    HW174748   4.213   4.383   3.981 -0.6508  0.4585  0.5383
24247SOL    HW274749   4.112   4.297   4.052  1.1162 -1.8779  0.3356
24248SOL     OW74750  10.044  10.923   7.642  0.9180 -0.8629 -0.2402
24248SOL    HW174751  10.137  10.908   7.628  1.7330 -0.2040  3.4439
24248SOL    HW274752  10.040  11.006   7.689 -1.3911 -1.5889  1.0032
24249SOL     OW74753   2.666   1.872   6.179 -0.8480  0.2389  0.6757
24249SOL    HW174754   2.623   1.817   6.113 -0.1834  0.9671 -0.3860
24249SOL    HW274755   2.754   1.836   6.186 -0.9911  0.0017  1.3850
24250SOL     OW74756   9.820   9.065  10.188  0.2078  0.0205  0.0208
24250SOL    HW174757   9.881   9.029  10.124 -0.1637  1.0647 -0.9683
24250SOL    HW274758   9.782   8.989  10.231  0.6198 -0.7081 -0.8754
24251SOL     OW74759   7.719   1.025   3.335 -0.2037 -0.1580  0.2958
24251SOL    HW174760   7.716   0.945   3.283 -2.4133  1.2484 -1.9679
24251SOL    HW274761   7.708   1.096   3.271  2.9212  2.1435  2.0135
24252SOL     OW74762   9.497   2.106   8.582 -0.2731  0.5213  0.3488
24252SOL    HW174763   9.449   2.112   8.664  2.0532  1.8012  1.6961
24252SOL    HW274764   9.578   2.153   8.597  0.2533  0.8214 -2.7151
24253SOL     OW74765   0.104   0.433   8.990  0.2394 -0.0072 -0.2399
24253SOL    HW174766   0.184   0.381   8.987 -0.2391 -0.7394 -1.5937
24253SOL    HW274767   0.106   0.477   9.075  0.5480 -2.4232  1.0933
24254SOL     OW74768   4.585   5.908   6.157 -0.0012 -0.3480 -0.4821
24254SOL    HW174769   4.589   5.939   6.248 -1.5361  0.5889 -0.7025
24254SOL    HW274770   4.505   5.857   6.153  1.5046 -2.8892 -0.6274
24255SOL     OW74771   7.981   0.911   6.463  0.4335  0.0210 -0.1759
24255SOL    HW174772   8.071   0.882   6.478  0.5342  0.3622 -0.0896
24255SOL    HW274773   7.991   0.984   6.401 -0.0421 -2.0470 -2.8946
24256SOL     OW74774   4.426   5.103  10.187 -0.3936  0.1095 -0.3617
24256SOL    HW174775   4.512   5.090  10.225 -0.8119 -1.0178  0.2545
24256SOL    HW274776   4.436   5.177  10.128  1.1398 -0.4018 -0.7721
24257SOL     OW74777   3.177   0.058   9.163 -0.0015  0.0108 -0.5966
24257SOL    HW174778   3.258   0.106   9.179 -0.8216  1.0970  0.4987
24257SOL    HW274779   3.125   0.118   9.109 -1.1274  0.5184  0.9745
24258SOL     OW74780   6.540   7.627   7.393 -0.2416 -0.0466 -0.1054
24258SOL    HW174781   6.447   7.634   7.415 -0.4089 -1.7332 -0.1325
24258SOL    HW274782   6.548   7.669   7.307 -1.1655 -0.7019 -0.5278
24259SOL     OW74783  10.507  10.276   2.004 -0.4114 -0.1431 -0.5230
24259SOL    HW174784  10.600  10.252   1.999 -0.0788  0.4510  1.7609
24259SOL    HW274785  10.503  10.363   1.963 -0.5220 -1.2732 -3.1206
24260SOL     OW74786  10.214   3.468   0.913 -0.4310  0.1418  0.5372
24260SOL    HW174787  10.268   3.394   0.944  0.4060  0.6957  0.4401
24260SOL    HW274788  10.133   3.427   0.884  0.0489 -0.7598  0.4003
24261SOL     OW74789   9.269   8.824   6.192 -0.1578 -0.0158  0.9780
24261SOL    HW174790   9.183   8.850   6.224  0.3782  1.0633  1.6113
24261SOL    HW274791   9.268   8.850   6.099 -1.2786 -2.0538  0.3551
24262SOL     OW74792   8.716   0.911   2.750  0.3506 -0.2548 -0.1203
24262SOL    HW174793   8.717   0.988   2.807 -1.5712 -0.7942  0.7379
24262SOL    HW274794   8.737   0.838   2.808 -0.0739 -0.6367 -0.4377
24263SOL     OW74795   9.250   1.419  10.619  1.0945  0.0327 -0.1689
24263SOL    HW174796   9.308   1.488  10.587  1.9875 -0.9068 -0.6145
24263SOL    HW274797   9.192   1.399  10.545  0.4601  0.6735  0.1398
24264SOL     OW74798   0.799   3.275   2.885 -0.6487 -0.1641 -0.1987
24264SOL    HW174799   0.890   3.261   2.861  0.9508  0.9852  4.2341
24264SOL    HW274800   0.779   3.364   2.856 -0.3170 -0.3365 -0.9704
24265SOL     OW74801   1.062   4.517   5.627  0.1747  0.4246 -0.3627
24265SOL    HW174802   1.042   4.424   5.637  3.2179 -0.2677  0.4144
24265SOL    HW274803   1.021   4.542   5.544  0.3085 -1.9403 -1.2131
24266SOL     OW74804   5.277   2.925  10.728 -0.1834 -0.1049  0.6785
24266SOL    HW174805   5.227   2.847  10.748  0.5478 -1.1752 -1.3620
24266SOL    HW274806   5.234   2.962  10.651  1.8674 -0.8945 -0.9418
24267SOL     OW74807   6.991   1.534   4.193 -0.6078  0.1137  1.1083
24267SOL    HW174808   6.941   1.558   4.115  0.7219 -0.9582 -0.1230
24267SOL    HW274809   6.941   1.463   4.232 -1.2645  0.6355  1.2431
24268SOL     OW74810  10.527   6.776   7.236  0.3817  0.3669 -0.2543
24268SOL    HW174811  10.574   6.694   7.251 -0.5533 -0.2410 -0.5527
24268SOL    HW274812  10.514   6.779   7.142 -0.6392  0.2508 -0.1286
24269SOL     OW74813   8.787   0.043   9.651 -0.0992  0.2789  0.4122
24269SOL    HW174814   8.819   0.001   9.730  1.0142  1.0986  0.4248
24269SOL    HW274815   8.834   0.127   9.648 -0.2640  0.3468 -0.9994
24270SOL     OW74816   7.690   8.761   7.037 -0.1881 -0.6872  0.7005
24270SOL    HW174817   7.669   8.764   6.944  0.3205 -0.3675  0.5895
24270SOL    HW274818   7.657   8.844   7.072  1.3524  0.0813  0.4110
24271SOL     OW74819   3.956   5.695   5.896 -0.3452 -0.3006 -0.4649
24271SOL    HW174820   3.967   5.729   5.984 -2.6009  2.4745 -1.1154
24271SOL    HW274821   3.992   5.606   5.900  0.3067 -0.0152  3.0005
24272SOL     OW74822   6.774   5.834   4.811 -0.2502 -0.5607  0.0778
24272SOL    HW174823   6.823   5.844   4.730 -0.2313  1.5787  0.2971
24272SOL    HW274824   6.683   5.821   4.784 -0.0590 -1.2181 -0.2780
24273SOL     OW74825   3.339  10.909   7.554 -0.1043  0.1209  0.5355
24273SOL    HW174826   3.415  10.852   7.569 -0.7037 -0.8437 -0.0136
24273SOL    HW274827   3.264  10.850   7.557 -0.6092  0.5783 -1.8273
24274SOL     OW74828   1.392   5.141   8.371 -0.0824 -0.1399 -0.0414
24274SOL    HW174829   1.308   5.096   8.377 -0.4691  0.4792 -0.6931
24274SOL    HW274830   1.441   5.092   8.305 -0.7061  0.6898 -1.1452
24275SOL     OW74831   9.773   8.508   6.794 -0.5266  0.1007  0.4641
24275SOL    HW174832   9.708   8.568   6.829 -0.0218  1.4923 -0.9132
24275SOL    HW274833   9.843   8.508   6.860  0.2180  2.3573 -0.2294
24276SOL     OW74834   5.192   2.599   9.984  0.2936 -0.1472  0.4291
24276SOL    HW174835   5.193   2.667   9.917  3.1173 -0.0780  0.4333
24276SOL    HW274836   5.186   2.648  10.067 -0.3607 -0.0886  0.3567
24277SOL     OW74837   5.956   3.791   2.723  0.2252  0.0768 -0.7135
24277SOL    HW174838   5.987   3.715   2.772 -0.8099  0.1095  0.0163
24277SOL    HW274839   6.036   3.832   2.691  0.7920 -1.7303 -1.7938
24278SOL     OW74840   2.693   6.362   9.482  0.2954 -0.1616  0.4247
24278SOL    HW174841   2.635   6.400   9.416  0.7290  1.3154  0.8532
24278SOL    HW274842   2.736   6.437   9.522  1.4866 -1.1457  1.0609
24279SOL     OW74843   0.341   4.467   0.788  0.2430  0.3613 -0.8206
24279SOL    HW174844   0.363   4.384   0.829  0.1741  0.7021 -0.0831
24279SOL    HW274845   0.263   4.448   0.735  1.5206 -0.5640 -2.4846
24280SOL     OW74846   3.722   0.067   7.913  0.2811 -0.6572 -0.0261
24280SOL    HW174847   3.726   0.162   7.913  0.6295 -0.6458  1.5018
24280SOL    HW274848   3.629   0.047   7.923  0.3733 -0.4206  1.6193
24281SOL     OW74849   5.517   2.600   2.446  0.1774  0.9549 -0.3250
24281SOL    HW174850   5.545   2.630   2.533 -0.2578  1.1388 -0.2454
24281SOL    HW274851   5.567   2.520   2.431  1.3896  1.7312 -0.5596
24282SOL     OW74852   1.176   5.643   9.470 -0.9211  0.1030 -0.4155
24282SOL    HW174853   1.127   5.632   9.552  1.2397  1.0755  1.0865
24282SOL    HW274854   1.233   5.566   9.466  1.3465  1.6097  0.7980
24283SOL     OW74855   0.391   0.307   1.026 -0.2291  0.6270 -0.2909
24283SOL    HW174856   0.416   0.375   1.089 -0.3126 -0.3650  0.8488
24283SOL    HW274857   0.322   0.258   1.070 -0.1100 -0.2457 -1.0562
24284SOL     OW74858   1.603   5.526   4.987 -0.1332 -0.2344 -0.5446
24284SOL    HW174859   1.534   5.469   4.952 -0.0299 -0.4183 -0.4506
24284SOL    HW274860   1.574   5.615   4.966  0.2751 -0.3717 -1.7311
24285SOL     OW74861  11.090   5.981  10.428  0.3061  0.1286 -0.0695
24285SOL    HW174862  11.169   5.984  10.482 -0.1129 -1.4827  0.6898
24285SOL    HW274863  11.086   6.067  10.386  2.3033  0.3241  0.0840
24286SOL     OW74864   8.024  10.086   4.446  1.2235  0.8011 -0.5847
24286SOL    HW174865   8.107  10.060   4.487 -0.8039 -2.5338  1.8544
24286SOL    HW274866   8.006  10.173   4.482  3.0199  1.0405 -0.1761
24287SOL     OW74867   8.530   7.842   8.165 -0.3172  0.0698 -0.1807
24287SOL    HW174868   8.591   7.916   8.163  1.5956 -1.4120  0.4274
24287SOL    HW274869   8.552   7.792   8.086 -2.0844  0.4830 -0.9725
24288SOL     OW74870   3.242   8.700   1.312  0.5092  0.1744  0.7632
24288SOL    HW174871   3.146   8.693   1.316  0.6355 -1.8813  1.3659
24288SOL    HW274872   3.264   8.673   1.223  0.4998  1.2666  0.4241
24289SOL     OW74873   7.309   6.381   3.239  0.2383 -0.0328  0.0486
24289SOL    HW174874   7.355   6.320   3.296 -0.3404  0.4054  1.0053
24289SOL    HW274875   7.369   6.455   3.228  1.2647 -1.0626 -1.7427
24290SOL     OW74876   0.575   8.704   1.788  0.0127  0.4493 -0.1086
24290SOL    HW174877   0.643   8.708   1.855 -0.4257  1.5249  0.2885
24290SOL    HW274878   0.609   8.643   1.723 -0.1713 -1.7514  1.7480
24291SOL     OW74879   3.597   3.857   0.173  0.2559  0.0563 -0.0494
24291SOL    HW174880   3.557   3.914   0.107 -0.8181 -0.2683  0.2999
24291SOL    HW274881   3.639   3.787   0.122  0.0437  0.1887 -0.4072
24292SOL     OW74882   1.031   4.839   3.992 -0.2841 -0.2718 -0.1916
24292SOL    HW174883   0.990   4.779   4.055  2.2235 -1.6184  0.3053
24292SOL    HW274884   1.104   4.879   4.041  0.1507  0.6231 -1.5107
24293SOL     OW74885   4.356   4.437   4.265  0.0775 -0.0130  0.2272
24293SOL    HW174886   4.320   4.388   4.191 -1.1433 -2.1677  2.1543
24293SOL    HW274887   4.287   4.497   4.290 -0.3648 -0.8102  0.9504
24294SOL     OW74888   4.316   1.569  10.939  0.2960  0.1349  0.0832
24294SOL    HW174889   4.301   1.602  11.028 -1.1911 -0.5231  0.1187
24294SOL    HW274890   4.369   1.636  10.896 -0.5020  1.3331  0.9204
24295SOL     OW74891   3.223   1.097   8.421 -0.0719  0.6564  0.1252
24295SOL    HW174892   3.210   1.015   8.373  0.9904 -0.6958  1.9866
24295SOL    HW274893   3.183   1.164   8.366  0.4571 -0.8646 -2.2506
24296SOL     OW74894   4.862   4.729   9.497  0.3377  0.1651  0.2566
24296SOL    HW174895   4.907   4.646   9.480  0.3384  0.5222 -1.6397
24296SOL    HW274896   4.796   4.706   9.563 -0.6968 -1.7412 -1.3305
24297SOL     OW74897   5.991   8.139   1.042  0.3843  0.2693 -0.3130
24297SOL    HW174898   6.023   8.121   0.953  1.7502  0.3260  0.1381
24297SOL    HW274899   5.960   8.229   1.039 -0.2118  0.0498 -0.8997
24298SOL     OW74900   5.323   2.576   1.067  0.4381 -0.8858 -0.0079
24298SOL    HW174901   5.230   2.555   1.072 -0.1312  0.7854 -2.0755
24298SOL    HW274902   5.326   2.672   1.064  2.1475 -0.9229 -0.8346
24299SOL     OW74903   4.029   9.745   7.288  0.3770  0.1632  0.8023
24299SOL    HW174904   3.970   9.805   7.335 -2.0483 -0.5242 -1.1417
24299SOL    HW274905   3.971   9.695   7.231  3.0366  0.6308 -2.6379
24300SOL     OW74906   9.103  10.470  10.610 -0.1432  0.6326  0.3512
24300SOL    HW174907   9.188  10.492  10.572  0.1332 -0.5212  0.2576
24300SOL    HW274908   9.040  10.487  10.540  0.0231  1.2978  0.3550
24301SOL     OW74909  10.315   2.631   2.459 -0.2904  0.2155 -0.1118
24301SOL    HW174910  10.315   2.547   2.504 -2.6420 -0.9348 -2.0321
24301SOL    HW274911  10.379   2.622   2.389  1.1112  0.9069  1.0244
24302SOL     OW74912   5.638   5.716   9.634  0.4785  0.1466 -0.2785
24302SOL    HW174913   5.693   5.764   9.573  0.1402  0.5620 -0.2607
24302SOL    HW274914   5.697   5.654   9.677  2.7508  4.8793  4.7030
24303SOL     OW74915   1.784   9.834   3.076 -0.3995 -0.5359  0.4498
24303SOL    HW174916   1.828   9.881   3.147  2.1085 -1.9722 -0.0324
24303SOL    HW274917   1.812   9.743   3.088  1.1453 -0.6686 -3.0034
24304SOL     OW74918   2.599   9.173   9.311 -0.2405  0.3536  0.1148
24304SOL    HW174919   2.668   9.107   9.299 -0.7884 -0.2552  0.2341
24304SOL    HW274920   2.646   9.255   9.327  0.4538 -0.1672  0.7897
24305SOL     OW74921   8.112   8.054   4.338 -0.1402  0.0291 -0.7858
24305SOL    HW174922   8.108   8.035   4.245 -0.2895  1.7112 -1.1592
24305SOL    HW274923   8.150   7.976   4.378 -0.0693 -0.7010 -2.2548
24306SOL     OW74924   5.494   7.018   1.673  0.3909 -0.1934 -0.1416
24306SOL    HW174925   5.509   6.949   1.737 -0.4855 -0.6500 -0.4222
24306SOL    HW274926   5.534   7.096   1.712 -0.0905 -0.4703  0.9375
24307SOL     OW74927   9.547   6.641   8.142  0.1135  0.3955  0.0449
24307SOL    HW174928   9.458   6.623   8.173  1.0964 -1.0132  2.3358
24307SOL    HW274929   9.570   6.725   8.182 -0.1226  0.7384 -0.5132
24308SOL     OW74930   8.046   1.846   6.432  0.6560 -1.4535  0.5837
24308SOL    HW174931   8.109   1.849   6.360  0.3546 -0.4436  0.3531
24308SOL    HW274932   8.036   1.937   6.459 -1.1907 -1.5091  0.1830
24309SOL     OW74933   6.289   2.205   8.215  0.5251  0.4291 -0.7469
24309SOL    HW174934   6.301   2.110   8.207  1.5473  0.4680  0.1044
24309SOL    HW274935   6.288   2.221   8.309  2.4194  1.4759 -0.8505
24310SOL     OW74936   4.109   1.298   5.727  0.1143 -0.4865  0.2684
24310SOL    HW174937   4.025   1.256   5.746 -0.4149  0.0245 -0.8112
24310SOL    HW274938   4.104   1.320   5.634  0.3609  1.9590  0.7673
24311SOL     OW74939   8.499   4.525   8.201  0.1734  0.0149 -0.0858
24311SOL    HW174940   8.503   4.601   8.259  0.4941  0.0111 -0.0997
24311SOL    HW274941   8.535   4.453   8.253 -1.3195 -0.4256  0.3778
24312SOL     OW74942   8.705   7.436   0.598  0.1207  0.4152  0.2394
24312SOL    HW174943   8.694   7.411   0.506  0.0952  0.9470  0.0978
24312SOL    HW274944   8.778   7.382   0.628  0.0586  0.1571 -0.0597
24313SOL     OW74945   6.494   1.423  10.284  0.2350 -0.0759  0.7725
24313SOL    HW174946   6.450   1.507  10.301 -1.8718 -1.4109  2.4587
24313SOL    HW274947   6.586   1.441  10.301 -0.0556  2.0322  0.4536
24314SOL     OW74948   9.106   7.718   9.736  0.3290 -0.1476  0.2464
24314SOL    HW174949   9.090   7.797   9.684 -2.9621 -0.3870  0.6939
24314SOL    HW274950   9.128   7.650   9.672  2.1736  0.8301 -0.2278
24315SOL     OW74951   9.066   6.873   3.026 -0.4072 -0.5113  0.3494
24315SOL    HW174952   9.151   6.832   3.008 -0.1192  0.6012 -0.9367
24315SOL    HW274953   9.002   6.806   3.003  0.0968 -1.2527  1.0433
24316SOL     OW74954   5.495   5.788   5.271 -0.5331  0.0963 -0.2317
24316SOL    HW174955   5.401   5.784   5.285 -0.9360 -0.5127 -2.6624
24316SOL    HW274956   5.511   5.876   5.238 -0.2558  0.1452  0.0228
24317SOL     OW74957   7.668   4.745   0.728  0.6737 -0.2567 -0.5126
24317SOL    HW174958   7.622   4.814   0.679  0.4098  2.2796  2.9196
24317SOL    HW274959   7.602   4.677   0.740 -0.2288  0.5186 -0.9006
24318SOL     OW74960   2.469   3.264   1.254  0.3087  1.1776  0.5970
24318SOL    HW174961   2.405   3.249   1.323  0.5304 -0.4887  0.5004
24318SOL    HW274962   2.550   3.284   1.301  0.9725 -1.9404  1.0214
24319SOL     OW74963   3.633   0.244   7.542  0.3279  0.2454  0.0505
24319SOL    HW174964   3.594   0.309   7.483  1.2818  0.8740  0.0810
24319SOL    HW274965   3.614   0.278   7.630  1.2941  0.7974  0.0632
24320SOL     OW74966   2.713   0.299   4.575  0.3620  0.1278 -0.8377
24320SOL    HW174967   2.740   0.290   4.666 -0.0415 -1.0772 -0.8137
24320SOL    HW274968   2.708   0.394   4.560  0.9579  0.3412  0.2203
24321SOL     OW74969   6.266  10.065   0.267  0.2162 -0.0972 -0.3825
24321SOL    HW174970   6.231   9.978   0.288  1.1719 -0.7067 -1.2102
24321SOL    HW274971   6.238  10.120   0.340  0.4728 -1.3338  0.6943
24322SOL     OW74972   4.348   0.150   9.682  0.1080 -0.0316 -0.4331
24322SOL    HW174973   4.271   0.205   9.670 -0.0851 -0.8473 -4.5574
24322SOL    HW274974   4.415   0.209   9.717 -1.1049  1.8925 -1.2388
24323SOL     OW74975   3.849   3.778   8.772  0.0566 -0.2449 -0.4535
24323SOL    HW174976   3.770   3.832   8.777  2.0903  2.8612  1.9891
24323SOL    HW274977   3.891   3.805   8.690 -1.8760 -2.9109 -2.4881
24324SOL     OW74978   3.140   0.288   5.933  0.4508 -0.4614  0.0060
24324SOL    HW174979   3.139   0.267   6.027  1.8564 -0.8618 -0.0427
24324SOL    HW274980   3.056   0.257   5.901  0.1331 -0.7326  1.0622
24325SOL     OW74981   2.545   5.831   6.201  0.7705 -0.3016 -0.2635
24325SOL    HW174982   2.459   5.790   6.191  0.6957 -0.2238  0.0508
24325SOL    HW274983   2.566   5.866   6.115 -0.2264  1.0945  0.0355
24326SOL     OW74984   1.226   6.537   8.653 -0.1873  0.2267  0.7974
24326SOL    HW174985   1.264   6.520   8.739  1.2791  1.4436  0.4302
24326SOL    HW274986   1.184   6.623   8.662  1.2070  1.0324 -0.0483
24327SOL     OW74987   4.718   6.473   0.855 -0.1686  0.4748  0.0834
24327SOL    HW174988   4.739   6.450   0.946  0.4569  0.9896  0.0689
24327SOL    HW274989   4.776   6.545   0.834 -0.0634  0.1306 -0.8527
24328SOL     OW74990   5.507   2.943   9.443 -0.2585 -0.2795  0.1557
24328SOL    HW174991   5.533   3.028   9.408 -0.3976  0.4343  1.6721
24328SOL    HW274992   5.577   2.883   9.417 -1.4644 -0.3807 -3.2657
24329SOL     OW74993   5.091   9.105   0.132 -0.4183 -0.7202 -0.3096
24329SOL    HW174994   5.055   9.090   0.219  1.2434 -1.1070  0.3387
24329SOL    HW274995   5.183   9.081   0.139  0.2503  1.1786 -1.6229
24330SOL     OW74996   9.791   8.094   8.585  0.4102  0.0195 -0.8220
24330SOL    HW174997   9.787   8.180   8.542 -0.3726  0.3513 -0.1331
24330SOL    HW274998   9.699   8.070   8.597  0.6007  0.0717  0.9039
24331SOL     OW74999   8.834   3.979   3.570  0.0880 -0.0889 -0.5698
24331SOL    HW175000   8.785   4.025   3.502 -0.7476 -1.2477 -0.7861
24331SOL    HW275001   8.918   4.025   3.576 -0.2370  0.6607 -1.6467
24332SOL     OW75002   3.793   2.986   6.752 -0.1039 -0.9281  0.5889
24332SOL    HW175003   3.782   3.073   6.715 -0.5655 -0.7032  1.2278
24332SOL    HW275004   3.881   2.959   6.728  0.9143  0.6563  2.2890
24333SOL     OW75005   0.850   3.831   1.304 -0.2778 -0.5298  0.6247
24333SOL    HW175006   0.852   3.806   1.396  0.8157 -0.3463  0.6689
24333SOL    HW275007   0.761   3.860   1.289 -2.0414 -5.1393  0.3557
24334SOL     OW75008   5.850   0.213   6.708  1.0805 -0.6818 -0.0947
24334SOL    HW175009   5.851   0.208   6.803  0.7229 -0.1851 -0.0598
24334SOL    HW275010   5.900   0.137   6.679  2.3092 -0.1233  0.5128
24335SOL     OW75011   6.843   2.966   0.292  0.0653  0.6497  0.1531
24335SOL    HW175012   6.834   2.882   0.336  1.4153  0.0091 -0.7274
24335SOL    HW275013   6.815   2.949   0.202  0.8231  1.0010 -0.1549
24336SOL     OW75014   3.639   0.471   5.172 -0.1038 -0.7245  0.0751
24336SOL    HW175015   3.686   0.509   5.098 -0.1383 -1.3369 -0.2702
24336SOL    HW275016   3.640   0.539   5.239  2.8520 -1.3086  0.7688
24337SOL     OW75017   6.701   3.073   5.498  0.1317 -0.1918  0.6217
24337SOL    HW175018   6.717   3.114   5.583  0.7286 -1.6270  1.2255
24337SOL    HW275019   6.628   3.014   5.513  1.4166 -1.8456  0.6498
24338SOL     OW75020   5.140   6.696   3.617 -0.1155  0.4908 -0.2330
24338SOL    HW175021   5.230   6.685   3.587  0.0473  0.9422  0.0706
24338SOL    HW275022   5.089   6.632   3.567  0.5090 -0.3795  0.2155
24339SOL     OW75023   5.353   0.555   2.754  0.3231  0.5994 -0.2101
24339SOL    HW175024   5.265   0.519   2.762  0.0729  1.3710  0.6626
24339SOL    HW275025   5.382   0.569   2.844  1.9959 -1.1596 -0.4151
24340SOL     OW75026   0.762  10.058   9.680 -0.8078 -0.1663 -0.2345
24340SOL    HW175027   0.801  10.046   9.766  0.2828  2.6578 -0.2211
24340SOL    HW275028   0.670  10.076   9.697 -0.1297  3.1399  0.7400
24341SOL     OW75029   0.894   3.847   6.842  0.3566  0.0552  0.3737
24341SOL    HW175030   0.874   3.827   6.934  0.8335  1.7297  0.8887
24341SOL    HW275031   0.963   3.913   6.847 -1.5049  2.2621 -1.0955
24342SOL     OW75032   0.031   6.051   3.098  0.2287  0.3561 -0.5725
24342SOL    HW175033   0.061   5.960   3.093  1.3661  0.3870  3.0410
24342SOL    HW275034   0.111   6.102   3.094 -0.0797  0.9722  0.7870
24343SOL     OW75035   7.514   7.176   6.625  0.8507  0.2351 -0.0621
24343SOL    HW175036   7.528   7.253   6.680  0.4930  0.1448  0.1570
24343SOL    HW275037   7.425   7.147   6.646  0.4928  0.5399 -1.1108
24344SOL     OW75038  10.433  10.234   0.452  0.2588 -0.2433  0.2663
24344SOL    HW175039  10.346  10.254   0.486  1.0988  1.0924  1.7057
24344SOL    HW275040  10.476  10.186   0.522  2.3475  3.3584  1.7099
24345SOL     OW75041   1.230   2.961   2.695 -0.2089 -0.0914  0.0866
24345SOL    HW175042   1.195   2.881   2.733  0.2820 -1.2113 -1.6788
24345SOL    HW275043   1.250   3.017   2.770 -3.2611 -0.4207  1.2633
24346SOL     OW75044   1.124   5.813   6.564  0.4880 -0.1282 -0.1961
24346SOL    HW175045   1.130   5.894   6.513  3.0939  1.8755  2.8922
24346SOL    HW275046   1.039   5.819   6.609  1.6005  2.2796  1.8277
24347SOL     OW75047   7.265  10.318   8.004 -0.0464 -0.9476 -0.4487
24347SOL    HW175048   7.304  10.330   8.091  1.0865 -3.5232 -0.5139
24347SOL    HW275049   7.176  10.289   8.021  0.0485 -1.0708 -0.1643
24348SOL     OW75050   1.658   2.176   0.471 -0.3127  0.1999  0.3681
24348SOL    HW175051   1.713   2.117   0.521 -2.6530 -0.7046  2.0563
24348SOL    HW275052   1.623   2.238   0.535  0.6013  2.3410 -1.0591
24349SOL     OW75053   8.527   3.675   7.173  0.3447  0.1386 -0.0439
24349SOL    HW175054   8.502   3.607   7.110 -1.0466 -0.4010  1.0166
24349SOL    HW275055   8.452   3.681   7.232  0.4128  2.6537 -0.1181
24350SOL     OW75056   5.959   5.563   4.547  0.4368  0.7042 -0.2530
24350SOL    HW175057   5.989   5.532   4.632  1.8029  1.5315 -0.4067
24350SOL    HW275058   6.006   5.509   4.484 -3.7074 -2.9579 -0.6460
24351SOL     OW75059   1.629   9.794   2.854  0.5057 -0.5170 -0.4459
24351SOL    HW175060   1.663   9.820   2.940  0.2685 -0.9014 -0.2355
24351SOL    HW275061   1.555   9.852   2.839  2.1029  1.3483 -1.5644
24352SOL     OW75062   4.378   7.770   9.473  0.9783 -0.9297 -0.6550
24352SOL    HW175063   4.408   7.814   9.393 -1.7647 -0.1991 -1.3781
24352SOL    HW275064   4.300   7.721   9.446 -0.7929  0.3474  1.7505
24353SOL     OW75065   6.796   1.899   6.982 -0.3910 -0.2983 -0.2472
24353SOL    HW175066   6.871   1.958   6.995 -0.7323  0.3085 -0.9745
24353SOL    HW275067   6.729   1.931   7.042 -0.3146 -0.4195 -0.0947
24354SOL     OW75068   8.299   5.855   8.373 -0.0629  0.0186  0.0978
24354SOL    HW175069   8.239   5.791   8.336  1.7231 -0.7481 -1.6206
24354SOL    HW275070   8.341   5.809   8.446  0.3649 -0.3760 -0.3929
24355SOL     OW75071   8.103   1.927   7.417 -0.8869 -0.4512 -0.2725
24355SOL    HW175072   8.196   1.948   7.422  0.0314 -3.9588  0.6540
24355SOL    HW275073   8.082   1.934   7.324  0.6665 -0.8023 -0.6865
24356SOL     OW75074   8.848   8.735   1.822 -0.5016 -0.4624  0.2701
24356SOL    HW175075   8.793   8.759   1.896 -1.0188  0.9053 -0.5303
24356SOL    HW275076   8.838   8.806   1.760  0.3513 -1.3163 -0.8985
24357SOL     OW75077  10.695   0.849   1.579  0.0090 -0.0084 -0.0000
24357SOL    HW175078  10.720   0.902   1.503 -1.2081  0.2911 -0.2226
24357SOL    HW275079  10.740   0.766   1.567 -0.7158 -0.2199 -1.4419
24358SOL     OW75080   1.762   9.642   9.684  0.0472  0.6060  0.4474
24358SOL    HW175081   1.856   9.647   9.668  0.1346 -0.9388  0.3622
24358SOL    HW275082   1.738   9.731   9.709  1.4606  1.1109  0.1285
24359SOL     OW75083   5.709   0.511   3.164 -0.2686 -0.1132 -0.5211
24359SOL    HW175084   5.652   0.567   3.217  2.3082  1.2459  1.0358
24359SOL    HW275085   5.744   0.446   3.226 -1.8909 -2.4962 -1.9503
24360SOL     OW75086   3.395   0.602   4.382  0.2004 -0.3197  0.4611
24360SOL    HW175087   3.329   0.661   4.418 -0.6573 -0.0362 -1.4093
24360SOL    HW275088   3.474   0.619   4.433 -0.5276  1.1119  1.1782
24361SOL     OW75089   2.669   1.014   6.456 -0.0057  0.0918 -0.1099
24361SOL    HW175090   2.715   1.078   6.510 -1.3412  3.4152 -2.5524
24361SOL    HW275091   2.685   1.042   6.366 -2.1196 -1.9954 -1.2656
24362SOL     OW75092   9.207   8.521   9.876  0.4477 -0.2332  0.8099
24362SOL    HW175093   9.290   8.498   9.834  0.8409  1.5970  0.4781
24362SOL    HW275094   9.140   8.496   9.813  0.9353  0.7488 -0.1417
24363SOL     OW75095   3.362   4.337   9.481 -0.2940  0.0790 -0.7829
24363SOL    HW175096   3.404   4.261   9.441  1.3513  1.4618 -1.7845
24363SOL    HW275097   3.433   4.389   9.517 -1.4096  1.0216  0.1652
24364SOL     OW75098   3.063   0.558   4.068  0.3006  0.4877 -0.3286
24364SOL    HW175099   3.063   0.463   4.056  2.1915  0.2284  1.1752
24364SOL    HW275100   3.001   0.573   4.138  1.7784  0.0087  1.1588
24365SOL     OW75101   6.029   6.310   9.186  0.2664  0.3113  0.0551
24365SOL    HW175102   5.954   6.334   9.240 -0.4413 -2.8685  0.6660
24365SOL    HW275103   6.000   6.327   9.096 -2.1452 -2.7813  0.0959
24366SOL     OW75104   3.844   1.263   2.065  0.4046  0.1909  0.2477
24366SOL    HW175105   3.916   1.266   2.002 -1.1267  0.7477 -1.5677
24366SOL    HW275106   3.765   1.252   2.012 -1.1061  1.9366  1.9510
24367SOL     OW75107   4.811   6.574   4.731 -0.4124 -0.0297  0.5570
24367SOL    HW175108   4.749   6.562   4.659  1.6106 -1.8261 -1.0033
24367SOL    HW275109   4.774   6.524   4.804 -1.7770  0.6163  0.3273
24368SOL     OW75110   1.693   2.107   3.142 -0.3242 -0.4106  0.6561
24368SOL    HW175111   1.772   2.156   3.120  0.1160 -0.7607  1.4531
24368SOL    HW275112   1.622   2.171   3.134 -0.3308 -0.6609 -2.5075
24369SOL     OW75113   4.763   2.030   8.870 -0.4860 -0.2784 -0.1677
24369SOL    HW175114   4.739   2.121   8.852 -1.3486  0.1833  2.7744
24369SOL    HW275115   4.704   1.978   8.817 -1.3290  0.9012 -0.4116
24370SOL     OW75116   9.232   6.301   5.076 -0.1074 -0.2057 -0.2502
24370SOL    HW175117   9.277   6.375   5.117 -2.4923  2.7989 -2.5838
24370SOL    HW275118   9.268   6.297   4.988  0.0298 -1.9571 -0.1389
24371SOL     OW75119  10.133   0.860   0.371 -0.2596  0.5801  0.2564
24371SOL    HW175120  10.041   0.876   0.352  0.0367  1.2161 -0.7020
24371SOL    HW275121  10.143   0.765   0.364 -0.3267  0.7069 -2.1810
24372SOL     OW75122   6.745   5.512   3.210  0.2725  0.3600  0.2168
24372SOL    HW175123   6.748   5.585   3.148 -0.5122  0.2072 -0.0096
24372SOL    HW275124   6.687   5.543   3.280 -1.2546 -0.5789 -0.5941
24373SOL     OW75125  10.659   3.855   2.350 -0.3795 -0.5523  0.1907
24373SOL    HW175126  10.607   3.779   2.323 -0.6512  0.5285 -2.6949
24373SOL    HW275127  10.613   3.930   2.313  1.4889  0.7410  0.3313
24374SOL     OW75128   7.270   4.072  10.361 -0.0933 -0.4641  0.8403
24374SOL    HW175129   7.299   4.153  10.401 -0.0221 -0.8395  1.5533
24374SOL    HW275130   7.281   4.005  10.429 -0.5299 -0.9997  0.4001
24375SOL     OW75131   0.932   1.193   3.517 -0.3828  0.1145 -0.0966
24375SOL    HW175132   0.887   1.231   3.441 -1.5468  0.7666  0.8692
24375SOL    HW275133   1.018   1.233   3.516 -0.4306  0.2291 -0.9814
24376SOL     OW75134   2.723   6.934  10.121  0.2604  0.7049  0.9360
24376SOL    HW175135   2.769   6.912  10.202  0.0067 -1.0450  0.6317
24376SOL    HW275136   2.631   6.914  10.140  0.3387 -0.8054 -0.1071
24377SOL     OW75137   3.348   3.595   3.095  0.3041  0.2563  0.8508
24377SOL    HW175138   3.273   3.542   3.121 -0.7094  2.8459  3.7126
24377SOL    HW275139   3.424   3.546   3.127 -0.5593  0.1353  2.8710
24378SOL     OW75140   6.033   5.971   1.159  0.4855 -0.1154  0.2110
24378SOL    HW175141   6.061   6.060   1.141 -0.2556 -0.1206 -1.0939
24378SOL    HW275142   6.101   5.916   1.120  0.7417 -0.1305  0.6706
24379SOL     OW75143   1.907   1.701   3.480  0.2607 -0.1320 -0.2195
24379SOL    HW175144   1.912   1.774   3.418  0.6734 -0.5658 -0.7084
24379SOL    HW275145   1.963   1.729   3.553 -2.5213  1.6843  1.4101
24380SOL     OW75146   1.076   1.286   2.568 -0.6349  0.0990 -0.4774
24380SOL    HW175147   1.088   1.217   2.503 -0.4278  1.3109 -1.7697
24380SOL    HW275148   1.113   1.364   2.528 -0.0954  0.8021  1.2936
24381SOL     OW75149   5.148   9.252   6.307  0.4066  0.4113 -0.3512
24381SOL    HW175150   5.132   9.234   6.214 -1.9716 -2.3942  0.4174
24381SOL    HW275151   5.112   9.339   6.322  2.3962  1.6627 -2.3087
24382SOL     OW75152  11.062   8.146   2.685 -0.8044  0.2940  0.0189
24382SOL    HW175153  11.027   8.057   2.678 -0.8494  0.2226  1.0320
24382SOL    HW275154  11.099   8.163   2.599 -1.4670 -0.4182 -0.4283
24383SOL     OW75155   2.619   2.196   7.211 -0.4608 -0.8426 -0.5880
24383SOL    HW175156   2.562   2.230   7.142  0.7417  0.7369 -0.8658
24383SOL    HW275157   2.707   2.200   7.174  0.1360 -0.6754  0.7712
24384SOL     OW75158   4.297   8.092   9.181  0.2441  0.4219  0.2525
24384SOL    HW175159   4.222   8.049   9.221  1.5353 -0.4069  1.8894
24384SOL    HW275160   4.272   8.105   9.090 -3.3309  3.4920  1.4252
24385SOL     OW75161   2.358   2.945   1.264  0.9208 -0.2710  0.2021
24385SOL    HW175162   2.408   2.907   1.192  0.7809  1.3953 -0.8311
24385SOL    HW275163   2.413   2.931   1.341  1.9378 -0.4871 -0.5403
24386SOL     OW75164   5.122   4.163   1.812 -0.1464 -0.1427  0.5320
24386SOL    HW175165   5.092   4.104   1.882  0.3756 -3.0242 -1.4763
24386SOL    HW275166   5.217   4.160   1.818 -0.1107  0.1040  0.1260
24387SOL     OW75167   1.834  10.607   5.428  0.2872  0.2972 -0.4770
24387SOL    HW175168   1.884  10.574   5.354  1.2776  0.4394  0.1111
24387SOL    HW275169   1.780  10.678   5.392  1.2523  0.8093 -0.9409
24388SOL     OW75170   5.681   9.315   6.404 -0.2060  0.0134  0.3429
24388SOL    HW175171   5.719   9.369   6.474  0.5426  0.1803 -0.1853
24388SOL    HW275172   5.718   9.227   6.419 -0.2569 -0.0136  0.3093
24389SOL     OW75173   7.645   4.496   3.309 -0.3842  0.5486 -0.2526
24389SOL    HW175174   7.709   4.526   3.372 -1.0268 -0.1997  0.7786
24389SOL    HW275175   7.570   4.468   3.361 -0.6213 -0.8576 -1.2830
24390SOL     OW75176   3.597   9.725   8.174  0.3268  0.4131  0.1721
24390SOL    HW175177   3.674   9.686   8.133  0.5947  0.3649  0.7225
24390SOL    HW275178   3.539   9.745   8.100  0.6998  0.0978 -0.2131
24391SOL     OW75179   7.373   2.626   7.472 -0.4783 -0.4045 -0.2809
24391SOL    HW175180   7.301   2.646   7.412  0.1682 -0.5377 -1.1229
24391SOL    HW275181   7.346   2.545   7.515 -1.1024 -0.1295 -0.1477
24392SOL     OW75182   9.388   1.916   9.997 -0.1324  0.0769 -0.2033
24392SOL    HW175183   9.311   1.970   9.977  1.2265  1.9027 -0.8583
24392SOL    HW275184   9.418   1.949  10.083  0.7319  0.4372 -0.6275
24393SOL     OW75185   1.071   6.942   9.347 -0.5818  0.2925 -0.9912
24393SOL    HW175186   0.999   6.920   9.406 -0.2935  0.6465 -0.5088
24393SOL    HW275187   1.085   7.036   9.360 -2.0753  0.9297 -3.3241
24394SOL     OW75188   5.133   2.758   2.157 -0.1635 -0.6473 -0.1756
24394SOL    HW175189   5.103   2.667   2.161  1.0648 -1.0720 -0.1561
24394SOL    HW275190   5.108   2.787   2.070  1.3526 -1.7420 -1.0429
24395SOL     OW75191  10.892  10.726  11.078  0.1007 -0.3311  0.3867
24395SOL    HW175192  10.967  10.731  11.137  1.0243 -1.3646 -0.6411
24395SOL    HW275193  10.877  10.632  11.067  1.0836 -0.2787 -2.3044
24396SOL     OW75194   7.997   0.506   3.529  0.2681  0.6852 -0.3462
24396SOL    HW175195   7.917   0.551   3.499 -0.0107  0.6009  0.2581
24396SOL    HW275196   8.061   0.523   3.459 -0.0896  1.2812 -0.5444
24397SOL     OW75197   1.863   0.007   7.453 -0.1933 -0.0112  0.1800
24397SOL    HW175198   1.849   0.008   7.358  0.0471  2.6073  0.1070
24397SOL    HW275199   1.929   0.075   7.468  1.3576 -1.8100  2.0398
24398SOL     OW75200  10.470   9.420  11.090 -0.1572 -0.2304  0.4968
24398SOL    HW175201  10.561   9.446  11.098 -0.2281  0.4392 -0.6686
24398SOL    HW275202  10.448   9.437  10.998 -1.1605 -1.3397  0.5054
24399SOL     OW75203   8.628   3.835   1.544  0.1060 -0.0079 -0.4263
24399SOL    HW175204   8.565   3.767   1.566 -0.0723  0.5424  0.8353
24399SOL    HW275205   8.626   3.895   1.618  1.8638  0.2167 -0.5183
24400SOL     OW75206   0.367   8.201   9.518 -0.1622  0.1371  0.1713
24400SOL    HW175207   0.348   8.169   9.430  2.0838 -0.0177 -0.3167
24400SOL    HW275208   0.459   8.229   9.514 -0.8048  2.7635  1.7166
24401SOL     OW75209   4.945   0.932   6.360  0.0680 -0.5462  0.6974
24401SOL    HW175210   4.881   1.003   6.351 -1.7948 -1.9284  2.0200
24401SOL    HW275211   4.921   0.870   6.291 -0.8315 -1.5940  1.8949
24402SOL     OW75212   5.285   1.127   6.240 -0.1073 -0.1297 -0.3051
24402SOL    HW175213   5.238   1.141   6.322 -0.3944 -2.0727 -0.1076
24402SOL    HW275214   5.291   1.032   6.231 -0.8640  0.0002 -2.9927
24403SOL     OW75215   2.861   0.005   5.346 -0.4345  0.1780 -0.8571
24403SOL    HW175216   2.791   0.056   5.305 -1.3415 -0.7401 -0.4917
24403SOL    HW275217   2.815  -0.068   5.388  0.8572 -1.1781 -1.7207
24404SOL     OW75218  10.207   5.385   2.601  0.1501 -0.3116  0.2326
24404SOL    HW175219  10.258   5.357   2.678  0.3553  0.0967  0.2483
24404SOL    HW275220  10.227   5.478   2.592 -1.2553  0.0600  0.7535
24405SOL     OW75221   5.888   8.338   6.694 -0.0976  0.2603  0.7559
24405SOL    HW175222   5.914   8.294   6.774  1.3861 -1.1530 -0.4419
24405SOL    HW275223   5.823   8.280   6.654 -0.1965  0.5278  0.5228
24406SOL     OW75224   1.668   9.135   0.550 -0.6272  0.2080  0.0979
24406SOL    HW175225   1.580   9.158   0.519 -0.8192  0.9791  1.1449
24406SOL    HW275226   1.723   9.208   0.523 -0.4501  0.0760  0.0985
24407SOL     OW75227   3.294   5.413   0.319 -0.4262  0.1552 -0.1036
24407SOL    HW175228   3.332   5.326   0.306 -3.6737 -1.6995  1.2700
24407SOL    HW275229   3.327   5.441   0.404 -0.3189 -0.3755  0.0368
24408SOL     OW75230  10.673   2.268   2.580 -0.6958 -0.2725  0.0466
24408SOL    HW175231  10.635   2.224   2.504  0.8842  0.3558 -1.1469
24408SOL    HW275232  10.632   2.225   2.655 -2.7196 -0.5238 -1.1410
24409SOL     OW75233  10.019   7.421   5.267 -0.4158 -0.1740 -0.6903
24409SOL    HW175234  10.004   7.433   5.360 -1.9910 -0.6510 -0.8609
24409SOL    HW275235  10.115   7.420   5.258 -0.2423 -0.0146  0.8875
24410SOL     OW75236   4.812   1.233   7.616 -0.0749  1.1242 -0.2730
24410SOL    HW175237   4.859   1.255   7.696 -0.3755  2.6742 -0.4993
24410SOL    HW275238   4.803   1.138   7.619 -0.0781  1.1524  1.5219
24411SOL     OW75239   3.651   4.046  11.007  0.5130 -0.1113 -0.0237
24411SOL    HW175240   3.709   4.104  10.958  4.0841 -2.2452  1.2986
24411SOL    HW275241   3.590   4.011  10.941 -0.5078  3.4253 -1.1713
24412SOL     OW75242   3.802   2.442   2.005  0.5049 -0.1875  0.1543
24412SOL    HW175243   3.834   2.437   1.915  2.0325 -0.0180  0.6549
24412SOL    HW275244   3.802   2.536   2.026  0.4592 -0.2487  0.4378
24413SOL     OW75245   8.955   4.749   1.132  0.2010  0.4882 -0.8753
24413SOL    HW175246   8.991   4.780   1.215 -1.0510  1.2417 -0.5890
24413SOL    HW275247   8.864   4.729   1.151 -0.1153  0.7037 -2.0878
24414SOL     OW75248   0.333   4.916   6.412  0.0581 -0.4335 -0.3019
24414SOL    HW175249   0.373   4.966   6.483 -0.9633  2.6641 -1.7580
24414SOL    HW275250   0.402   4.855   6.384  1.3766  0.1370  1.5708
24415SOL     OW75251   8.027   0.067   3.474 -0.3629  0.0449 -0.1851
24415SOL    HW175252   8.025   0.047   3.568  0.2403 -1.3729 -0.4346
24415SOL    HW275253   7.936   0.085   3.451 -0.3767  1.4903  0.8608
24416SOL     OW75254   0.817   3.368   7.997  0.0682 -0.4808  0.2320
24416SOL    HW175255   0.898   3.392   7.952  0.3009 -0.2410  0.7720
24416SOL    HW275256   0.810   3.273   7.984  1.1880 -0.7469  1.3668
24417SOL     OW75257   1.720   7.691  10.241  0.2731  0.1352  0.0722
24417SOL    HW175258   1.629   7.720  10.236  0.3375  0.1504 -1.2057
24417SOL    HW275259   1.730   7.631  10.168  0.6817 -1.6543  1.5359
24418SOL     OW75260   7.393   3.850   8.635 -0.2900  0.1343 -0.3355
24418SOL    HW175261   7.325   3.915   8.649 -0.4090  0.0790 -0.6554
24418SOL    HW275262   7.471   3.901   8.612  0.4600  0.3791  2.4387
24419SOL     OW75263   1.765   2.807   8.390  0.5861  0.3381  0.3886
24419SOL    HW175264   1.686   2.755   8.406  2.3180 -2.7140 -0.1854
24419SOL    HW275265   1.733   2.884   8.343 -2.2999  0.5332  2.3935
24420SOL     OW75266   7.649   3.287   5.516  0.4494  0.3589  0.1408
24420SOL    HW175267   7.565   3.253   5.487  0.8847 -0.7303  0.1351
24420SOL    HW275268   7.712   3.218   5.496  1.4199  1.3050 -0.2154
24421SOL     OW75269   2.047   5.124   9.483 -0.1221 -0.5398  0.4882
24421SOL    HW175270   2.115   5.062   9.460 -0.1636 -1.8470  3.3898
24421SOL    HW275271   1.967   5.089   9.444  0.4123 -0.4275 -0.7270
24422SOL     OW75272   0.991   6.415   6.500 -0.4693  0.2471  0.4548
24422SOL    HW175273   1.033   6.499   6.482  0.7572 -0.8308 -2.2621
24422SOL    HW275274   1.063   6.357   6.524 -0.8197 -0.8329 -1.0387
24423SOL     OW75275   9.005   9.983   2.672 -0.3466 -0.2799  0.7414
24423SOL    HW175276   8.994  10.060   2.728  1.0559  0.8641 -0.5059
24423SOL    HW275277   9.099   9.979   2.653 -0.8132 -0.3202 -1.9359
24424SOL     OW75278   1.956  11.045  11.010 -0.3518  0.7252 -0.1354
24424SOL    HW175279   1.912  11.130  11.018  0.0830  0.8116  1.7103
24424SOL    HW275280   1.920  11.008  10.929  0.6092  3.3040 -1.8869
24425SOL     OW75281  10.879   8.365   3.667  0.2376  0.2130 -0.5752
24425SOL    HW175282  10.852   8.277   3.639 -2.3926 -0.1844  2.6296
24425SOL    HW275283  10.814   8.423   3.628 -0.3409  0.2418  0.4017
24426SOL     OW75284   8.392   1.860   3.012 -0.2148 -0.1656 -0.2019
24426SOL    HW175285   8.446   1.856   2.932  0.2289  1.6782 -0.0344
24426SOL    HW275286   8.409   1.947   3.047 -3.1668  0.4174 -0.0202
24427SOL     OW75287  10.808   8.912   9.910 -0.0595  0.7865 -0.6245
24427SOL    HW175288  10.741   8.913   9.842 -0.0915  1.1848 -0.5876
24427SOL    HW275289  10.871   8.979   9.883  0.2146  0.5670 -0.5459
24428SOL     OW75290   5.106   7.140   9.029  0.5676 -0.5769 -0.6271
24428SOL    HW175291   5.074   7.066   8.977  0.5102  0.1363 -1.6534
24428SOL    HW275292   5.093   7.216   8.971  0.3511  0.2702  0.5068
24429SOL     OW75293   7.947   3.365   2.619  0.6570  0.5834  0.1818
24429SOL    HW175294   7.901   3.449   2.613 -0.4103  0.1633  1.8382
24429SOL    HW275295   7.934   3.337   2.709 -0.5181 -2.2130 -0.7539
24430SOL     OW75296  10.475   8.092   2.875 -0.6534  0.1685  0.6128
24430SOL    HW175297  10.424   8.046   2.942 -0.4306 -2.4086 -0.8361
24430SOL    HW275298  10.493   8.025   2.809  0.5726  2.1722 -1.2210
24431SOL     OW75299   7.028   0.436   4.312 -0.2804  0.6106 -0.2511
24431SOL    HW175300   7.068   0.355   4.280 -3.2531  0.0208 -2.9721
24431SOL    HW275301   7.069   0.505   4.259 -0.8391  0.3259 -1.0767
24432SOL     OW75302  10.718   6.018   3.383 -0.1809  0.5433 -0.4014
24432SOL    HW175303  10.641   5.967   3.409  1.9210 -1.9594  1.4925
24432SOL    HW275304  10.753   5.971   3.307 -0.0270  1.1340 -0.7008
24433SOL     OW75305   0.794   9.776   4.412  0.2829  0.1424  0.0771
24433SOL    HW175306   0.768   9.867   4.397  3.0404  0.7388 -2.1198
24433SOL    HW275307   0.839   9.778   4.496  0.0641  0.7720  0.1884
24434SOL     OW75308   2.706   0.322   2.432  0.5520  0.1855 -0.2571
24434SOL    HW175309   2.732   0.287   2.518 -0.8690  0.1558  0.1832
24434SOL    HW275310   2.788   0.327   2.383  1.8156  2.4102  1.8764
24435SOL     OW75311   4.503   6.535   7.298 -0.0252  0.3650  0.6947
24435SOL    HW175312   4.584   6.507   7.341 -0.2391  1.4352  1.8248
24435SOL    HW275313   4.494   6.627   7.320 -0.7935  0.6325 -0.6509
24436SOL     OW75314   3.703   8.285   5.345  0.1280 -0.1199  0.3123
24436SOL    HW175315   3.736   8.224   5.279  4.8310  3.2516 -1.0695
24436SOL    HW275316   3.724   8.244   5.428 -0.5184 -1.9823 -0.3956
24437SOL     OW75317   5.802   6.123   8.816  0.0021  0.1804 -0.8974
24437SOL    HW175318   5.794   6.032   8.842 -0.8500  0.4959  0.0118
24437SOL    HW275319   5.725   6.141   8.763 -1.0593  0.9468  0.8032
24438SOL     OW75320   0.985   4.752   0.115 -0.1062  0.8334 -0.2912
24438SOL    HW175321   0.980   4.827   0.174  1.0863 -0.5077  1.6256
24438SOL    HW275322   1.005   4.678   0.171  2.6923 -0.2953 -2.5379
24439SOL     OW75323   9.757   7.020   2.783  0.3450 -0.2090  0.5392
24439SOL    HW175324   9.672   7.020   2.827 -0.1471 -1.2397 -0.3536
24439SOL    HW275325   9.814   6.968   2.839  0.5348  0.8415  1.3574
24440SOL     OW75326   2.319   8.719   1.268  0.6819  0.4763  0.5855
24440SOL    HW175327   2.292   8.811   1.271  1.6234  0.7520  3.6022
24440SOL    HW275328   2.404   8.718   1.310  1.3654 -1.6322 -0.7073
24441SOL     OW75329   8.825   3.887   9.991  0.2367  0.0027 -0.2598
24441SOL    HW175330   8.889   3.906   9.923 -0.2288  2.3187 -0.1287
24441SOL    HW275331   8.751   3.945   9.972 -0.0928  0.3836  1.9260
24442SOL     OW75332   2.158   1.506   0.612 -0.3427  0.1011  0.5547
24442SOL    HW175333   2.075   1.474   0.576 -0.3079 -0.8582  1.3036
24442SOL    HW275334   2.184   1.440   0.676  0.5786  0.8163  0.9413
24443SOL     OW75335   6.361  10.304   1.442 -0.1844  0.2986 -0.5067
24443SOL    HW175336   6.341  10.272   1.354 -1.4495  0.4033 -0.2865
24443SOL    HW275337   6.446  10.265   1.464 -0.6458 -1.1203 -1.1091
24444SOL     OW75338   9.028   1.790   8.756 -0.3525  0.5828 -0.1184
24444SOL    HW175339   9.061   1.707   8.790 -0.4980 -0.5922 -2.5910
24444SOL    HW275340   8.953   1.811   8.811  0.8622  0.1473  1.7912
24445SOL     OW75341   3.865   3.976   6.657  0.1699  0.9576  0.5162
24445SOL    HW175342   3.882   4.025   6.576 -2.4476  0.7318 -0.2616
24445SOL    HW275343   3.905   3.890   6.642  2.7274  1.9976  0.9364
24446SOL     OW75344   0.766   7.057   9.036 -0.1450 -0.9304 -0.0180
24446SOL    HW175345   0.741   7.116   8.965 -1.5864 -2.0825 -0.5153
24446SOL    HW275346   0.843   7.012   9.003  0.1848 -0.2735 -0.1640
24447SOL     OW75347   3.145   4.898   6.637 -0.3446 -0.1287  0.1628
24447SOL    HW175348   3.127   4.857   6.722 -0.3524 -0.6410 -0.0766
24447SOL    HW275349   3.209   4.966   6.655  0.0542 -0.5856  0.5052
24448SOL     OW75350   5.149   4.559   3.857 -0.0145 -0.1878  0.0474
24448SOL    HW175351   5.150   4.587   3.765 -0.5049  1.1676  0.4267
24448SOL    HW275352   5.056   4.541   3.875  0.1346 -0.8304  0.1642
24449SOL     OW75353   8.568   8.955   7.740  0.2421 -0.3526 -0.1702
24449SOL    HW175354   8.615   8.922   7.817 -0.5184  1.5846  1.2161
24449SOL    HW275355   8.518   8.880   7.708  1.1587 -1.3974  0.7572
24450SOL     OW75356   8.551   6.602   9.599  0.1574  0.0066 -0.2237
24450SOL    HW175357   8.556   6.698   9.598 -0.3707  0.0429  0.0864
24450SOL    HW275358   8.637   6.573   9.571 -0.2438  0.5788 -2.2679
24451SOL     OW75359   1.397   2.193  10.560 -0.3919 -0.4450 -0.5735
24451SOL    HW175360   1.486   2.227  10.552 -0.2378 -0.6678  0.0720
24451SOL    HW275361   1.364   2.189  10.470  0.5596 -1.1862 -0.9003
24452SOL     OW75362  10.210   6.688   2.901  0.6084 -0.1333  0.0180
24452SOL    HW175363  10.228   6.763   2.844 -0.9490 -0.1259 -0.5218
24452SOL    HW275364  10.270   6.620   2.870  1.6375  0.6930  0.1366
24453SOL     OW75365   8.048   2.195   8.985 -0.1559 -0.4631 -0.1533
24453SOL    HW175366   8.070   2.273   8.934 -1.9501 -0.1971 -0.5954
24453SOL    HW275367   7.981   2.225   9.047 -1.4769 -1.7890 -0.8757
24454SOL     OW75368   0.457   7.421   1.768  0.0715  0.0309  0.0989
24454SOL    HW175369   0.503   7.464   1.840 -0.0476 -0.6239  0.5694
24454SOL    HW275370   0.420   7.494   1.717  0.5333  0.5137  0.4364
24455SOL     OW75371   9.007   7.208  10.957  0.1783 -0.7631 -0.6160
24455SOL    HW175372   8.928   7.260  10.971 -1.1471 -2.8009  0.0451
24455SOL    HW275373   8.983   7.147  10.887  0.9698 -1.7429 -0.0640
24456SOL     OW75374   4.830   9.667   1.831  0.3948  0.1325 -0.1429
24456SOL    HW175375   4.736   9.677   1.818  0.7580  0.9709 -2.5706
24456SOL    HW275376   4.840   9.579   1.867 -1.4731  1.0804  3.1089
24457SOL     OW75377   9.926   6.190   8.555 -0.3343 -0.1347 -0.5022
24457SOL    HW175378   9.833   6.178   8.577 -0.0960  0.7422  1.1911
24457SOL    HW275379   9.929   6.275   8.511 -0.6144 -1.2296 -2.7283
24458SOL     OW75380  10.340   9.413   8.099 -0.0082 -0.2225  0.6096
24458SOL    HW175381  10.359   9.388   8.009  0.1940 -1.3601  0.9529
24458SOL    HW275382  10.297   9.498   8.092  2.2577  0.9331 -0.4021
24459SOL     OW75383   5.170   4.039   0.301 -0.4567 -0.3000 -0.2641
24459SOL    HW175384   5.138   4.129   0.297 -1.5814 -0.6288  0.7680
24459SOL    HW275385   5.215   4.026   0.217 -0.5503  1.1036 -0.5642
24460SOL     OW75386   4.949   2.279   6.726  0.7190 -0.6316 -0.1172
24460SOL    HW175387   4.856   2.274   6.750  1.1219 -2.5796  1.2973
24460SOL    HW275388   4.983   2.352   6.776 -0.5031  1.8534 -2.6389
24461SOL     OW75389   5.982   2.814   9.745  0.4426  0.3632  0.4290
24461SOL    HW175390   6.025   2.887   9.701  0.2453  0.8992  1.0885
24461SOL    HW275391   6.052   2.752   9.765  0.7926  0.8592  0.7844
24462SOL     OW75392   8.045   9.104   3.750 -0.3604  0.2524 -0.0748
24462SOL    HW175393   8.097   9.024   3.736  0.6768  0.8612  0.1813
24462SOL    HW275394   7.956   9.079   3.727 -0.0640 -1.0042  0.0759
24463SOL     OW75395   8.426   9.313   0.444 -0.0306 -0.1912 -0.0792
24463SOL    HW175396   8.400   9.306   0.536 -0.2601 -0.1779 -0.1436
24463SOL    HW275397   8.354   9.273   0.396 -0.2911  0.5378 -0.3099
24464SOL     OW75398   8.936   7.708  10.516 -0.9607 -0.3575  0.2508
24464SOL    HW175399   8.945   7.802  10.531 -0.3746 -0.4668  0.6417
24464SOL    HW275400   8.957   7.669  10.601  2.1806 -0.9905 -0.6865
24465SOL     OW75401   8.250   7.246   4.839 -0.3257 -0.1774  0.1525
24465SOL    HW175402   8.330   7.265   4.789  0.1074  0.5397  1.0788
24465SOL    HW275403   8.280   7.237   4.930 -1.5596  2.6155  0.9472
24466SOL     OW75404  10.020   6.116   0.955  0.2740  0.2701  0.0910
24466SOL    HW175405  10.044   6.027   0.928 -1.8050 -0.5125  0.6273
24466SOL    HW275406  10.081   6.136   1.026 -0.0558 -1.3115  0.8860
24467SOL     OW75407   8.973   2.578   4.347  0.0557 -0.6584 -0.5368
24467SOL    HW175408   9.007   2.498   4.388 -0.2325 -0.2628  0.5295
24467SOL    HW275409   8.919   2.547   4.275 -1.0484 -1.5207  0.5989
24468SOL     OW75410   1.825   4.351   4.215  0.3595  0.3593  0.0583
24468SOL    HW175411   1.841   4.259   4.237  1.6932  0.8984  1.5377
24468SOL    HW275412   1.888   4.370   4.146 -2.6960 -0.8720 -3.3669
24469SOL     OW75413   7.510   1.049   9.335 -0.0495  0.3756  0.1525
24469SOL    HW175414   7.555   0.968   9.311  0.9911 -0.0678  3.1682
24469SOL    HW275415   7.423   1.041   9.295  1.0237 -0.8237 -2.0726
24470SOL     OW75416   5.185   5.796  10.167  0.1071  0.2994 -0.1496
24470SOL    HW175417   5.137   5.809  10.249  1.4012  0.5465  0.5883
24470SOL    HW275418   5.116   5.788  10.101 -0.9574  3.5346  0.3892
24471SOL     OW75419   3.628   7.468   2.689 -0.1204  0.6059  0.5156
24471SOL    HW175420   3.543   7.488   2.649  0.7171  1.6645 -0.8524
24471SOL    HW275421   3.618   7.380   2.724 -1.1548 -0.1172 -1.4325
24472SOL     OW75422   9.318   1.461   4.490 -0.1075 -0.2755 -0.1837
24472SOL    HW175423   9.300   1.542   4.442  1.4214 -0.5195 -1.2659
24472SOL    HW275424   9.278   1.474   4.575 -0.9033  1.1411 -0.7417
24473SOL     OW75425   1.670   2.345   0.733  0.1807  0.0240  0.6832
24473SOL    HW175426   1.697   2.414   0.672 -0.3650 -0.3416  0.0039
24473SOL    HW275427   1.707   2.371   0.817 -1.0463  1.7924  0.7146
24474SOL     OW75428   8.853   3.168   3.739  0.2310 -0.1151 -0.6907
24474SOL    HW175429   8.882   3.175   3.647  0.7797 -0.5228 -0.5540
24474SOL    HW275430   8.827   3.258   3.762  2.7106  0.6055 -0.4070
24475SOL     OW75431   6.080   5.794   9.550 -0.0572 -0.0707  0.4935
24475SOL    HW175432   6.162   5.838   9.570 -0.0745  0.5373 -0.6774
24475SOL    HW275433   6.015   5.836   9.607  0.3930 -0.4197  1.2771
24476SOL     OW75434   1.316   0.997   5.319 -0.0024  0.2503  0.6793
24476SOL    HW175435   1.273   0.917   5.350  0.0922 -0.0117  0.1450
24476SOL    HW275436   1.305   1.059   5.391 -1.0496  0.1115  0.6538
24477SOL     OW75437  10.048   9.253   0.687 -0.0728 -0.4943  0.4457
24477SOL    HW175438  10.122   9.235   0.744 -0.8219 -0.0730  1.5817
24477SOL    HW275439   9.981   9.290   0.745 -1.4413 -1.5256 -0.4115
24478SOL     OW75440   0.212   8.109   5.846  0.2233 -0.4108  0.0347
24478SOL    HW175441   0.240   8.161   5.770  1.8354 -0.5885  0.4830
24478SOL    HW275442   0.132   8.065   5.816  0.4384  0.0745 -1.3209
24479SOL     OW75443   1.661   3.408   1.589  0.1675 -0.7606  0.8309
24479SOL    HW175444   1.586   3.435   1.536  1.9387  2.0225 -0.4801
24479SOL    HW275445   1.628   3.409   1.679 -1.6280 -0.7014  0.2152
24480SOL     OW75446  10.368   2.776   2.130  0.1548 -0.1926  0.0463
24480SOL    HW175447  10.362   2.739   2.219  0.1052  0.4288  0.3056
24480SOL    HW275448  10.415   2.710   2.080 -0.4349 -0.8647  0.3613
24481SOL     OW75449   7.429   8.591   4.393 -0.4025 -0.0713  0.2258
24481SOL    HW175450   7.349   8.552   4.357  0.5684 -0.7516 -1.2696
24481SOL    HW275451   7.407   8.610   4.484 -2.1945 -0.4414 -0.0923
24482SOL     OW75452   7.088   9.023   6.897  0.2719  0.5134  0.6820
24482SOL    HW175453   7.151   8.989   6.960  0.1977 -0.9040  0.0280
24482SOL    HW275454   7.139   9.043   6.819 -0.3359 -3.3295 -0.8960
24483SOL     OW75455   5.082   9.780   1.850  0.2846 -0.7902  0.3732
24483SOL    HW175456   5.089   9.828   1.768  0.4378  0.1693  0.9425
24483SOL    HW275457   4.991   9.750   1.852 -0.1796  0.5781  0.6130
24484SOL     OW75458   0.907   9.921   8.175 -0.0745 -0.1797 -0.0337
24484SOL    HW175459   0.857   9.988   8.127 -0.0170  1.6863  2.3483
24484SOL    HW275460   0.883   9.933   8.266  1.8007 -1.8449  0.7629
24485SOL     OW75461   7.361   2.466   9.365  0.9385 -0.1982  0.3806
24485SOL    HW175462   7.337   2.419   9.285 -0.5972  1.3015 -0.1320
24485SOL    HW275463   7.298   2.435   9.430  1.2303 -0.3455  0.5885
24486SOL     OW75464   9.508   4.872   8.577  0.3669 -0.4339 -0.8289
24486SOL    HW175465   9.460   4.926   8.514  1.3591 -0.3556 -1.5361
24486SOL    HW275466   9.471   4.896   8.662  0.5047  1.0577 -1.1666
24487SOL     OW75467   6.590   6.967   0.494  0.1299  0.4631  0.1467
24487SOL    HW175468   6.635   7.013   0.564  1.0171  0.5979 -0.4878
24487SOL    HW275469   6.503   7.007   0.491 -0.8378 -1.2090  2.7627
24488SOL     OW75470   1.447   6.675   6.212  0.3888 -0.4728 -0.6090
24488SOL    HW175471   1.429   6.698   6.120  0.3247  0.0440 -0.4705
24488SOL    HW275472   1.531   6.630   6.208  1.1688  0.9175 -0.7573
24489SOL     OW75473   4.363   7.370   7.191  0.1061  0.4857  0.1477
24489SOL    HW175474   4.459   7.370   7.190  0.2216 -0.6210  2.7439
24489SOL    HW275475   4.339   7.277   7.184 -0.6753  0.5786  1.3144
24490SOL     OW75476   0.938   3.043   4.403  0.3293 -0.4997  0.5199
24490SOL    HW175477   1.009   2.985   4.429 -0.6114 -1.6679  0.5680
24490SOL    HW275478   0.858   2.997   4.429 -0.4454  1.0092  0.9318
24491SOL     OW75479   6.214   0.219   5.799  0.6851 -0.0053  0.1433
24491SOL    HW175480   6.213   0.261   5.713  0.1852  1.7348  0.9450
24491SOL    HW275481   6.242   0.289   5.859 -1.6833 -0.3151  1.7563
24492SOL     OW75482   0.557   6.382   8.057  0.2475 -0.1976 -0.8330
24492SOL    HW175483   0.486   6.433   8.096  0.2774 -0.7819  0.0168
24492SOL    HW275484   0.532   6.291   8.072  1.3384 -0.4088 -0.1980
24493SOL     OW75485   4.674   5.499   4.210  0.2486  0.1017 -0.3335
24493SOL    HW175486   4.619   5.463   4.279  1.3401 -0.0724  0.4779
24493SOL    HW275487   4.737   5.430   4.192  0.7572  0.6282 -0.6039
24494SOL     OW75488   4.947   6.583  10.346  0.5288  0.2016  0.0781
24494SOL    HW175489   5.018   6.646  10.361  1.8861 -1.3882  0.6398
24494SOL    HW275490   4.941   6.534  10.428 -0.3883 -0.5178 -0.3969
24495SOL     OW75491   8.817   9.005   9.587  0.4569 -0.1544  0.2706
24495SOL    HW175492   8.808   9.059   9.666 -1.1129  0.7984 -0.5141
24495SOL    HW275493   8.743   9.030   9.532  0.8035 -1.7109 -0.9843
24496SOL     OW75494   4.099   9.121   1.905 -0.1769  0.0349 -0.7380
24496SOL    HW175495   4.139   9.134   1.819 -0.1540  0.0327 -0.7279
24496SOL    HW275496   4.024   9.180   1.907  0.8081  1.3251 -0.1081
24497SOL     OW75497   2.146   6.300   8.116  0.7405 -0.2543  0.5155
24497SOL    HW175498   2.134   6.237   8.045 -0.3514 -0.3162  0.7263
24497SOL    HW275499   2.226   6.347   8.094  0.9798 -0.9717 -0.2116
24498SOL     OW75500   0.771   2.930   2.175 -0.1970  0.1442 -0.1284
24498SOL    HW175501   0.739   3.012   2.213 -0.9787 -0.7272  1.1996
24498SOL    HW275502   0.699   2.898   2.121 -0.2803 -0.1265  0.1336
24499SOL     OW75503   3.001   2.783   0.882  0.0872  0.0340  0.5108
24499SOL    HW175504   2.972   2.714   0.822  0.2549  1.0407 -0.7868
24499SOL    HW275505   3.039   2.736   0.956  1.4060 -1.2971 -0.9192
24500SOL     OW75506   2.482   4.784   1.257 -0.0498  0.3026 -0.7325
24500SOL    HW175507   2.462   4.786   1.164 -0.1807  1.7555 -0.6961
24500SOL    HW275508   2.536   4.862   1.272  0.5972 -0.3074  0.2811
24501SOL     OW75509   0.426   8.936  10.993 -0.4460 -0.1509 -0.1519
24501SOL    HW175510   0.422   8.848  10.956 -1.9392  0.0629 -0.5837
24501SOL    HW275511   0.496   8.933  11.057 -1.1899 -1.9680  0.6309
24502SOL     OW75512   2.454   8.718   9.273 -0.2093 -0.7304  0.4042
24502SOL    HW175513   2.528   8.711   9.213 -0.0922 -2.6721  0.7021
24502SOL    HW275514   2.479   8.786   9.335  0.4027  0.0988 -0.7043
24503SOL     OW75515   9.686   2.510   9.822 -1.1102  0.5149  0.0661
24503SOL    HW175516   9.710   2.427   9.781  0.0475  0.9087 -0.0793
24503SOL    HW275517   9.654   2.486   9.909 -2.8143 -0.2580 -0.7180
24504SOL     OW75518   6.190  10.440   0.149 -0.0492 -0.3867 -0.1698
24504SOL    HW175519   6.153  10.494   0.080  0.0774  0.4207  0.3860
24504SOL    HW275520   6.285  10.444   0.135 -0.0844 -1.3388 -0.7654
24505SOL     OW75521   5.421   0.949   8.076 -0.3920 -0.1938 -0.1579
24505SOL    HW175522   5.368   0.996   8.012 -1.1523  0.6306  1.0166
24505SOL    HW275523   5.367   0.874   8.102  0.0264 -0.6750 -0.6740
24506SOL     OW75524   7.782   0.344   6.805 -0.5501  0.8434  0.7708
24506SOL    HW175525   7.713   0.287   6.772  0.0695  0.4578  0.1094
24506SOL    HW275526   7.826   0.292   6.872 -0.1742  0.6449  0.3763
24507SOL     OW75527   4.880   2.801   3.150  0.1048 -0.4980  0.0691
24507SOL    HW175528   4.948   2.755   3.199  2.9809  3.8749  0.7158
24507SOL    HW275529   4.843   2.863   3.212 -1.2236  0.3812 -1.5098
24508SOL     OW75530   6.555  10.121   2.529  0.1392  0.3547  0.2025
24508SOL    HW175531   6.562  10.104   2.435  0.6864  0.3162  0.2462
24508SOL    HW275532   6.486  10.186   2.536 -1.5524 -1.3023 -0.0295
24509SOL     OW75533   6.487   8.224   6.652 -0.5143 -0.2096 -0.6840
24509SOL    HW175534   6.512   8.133   6.638 -0.0909 -0.2800  0.4470
24509SOL    HW275535   6.394   8.220   6.677 -0.1479 -0.4877  0.7442
24510SOL     OW75536   1.300   4.823   8.399 -0.0331 -0.7043 -0.0687
24510SOL    HW175537   1.285   4.755   8.333 -3.1917  1.9963 -2.5111
24510SOL    HW275538   1.237   4.891   8.377  0.3583  1.4698  4.4433
24511SOL     OW75539   1.416   4.691   9.614 -0.7142  0.5951 -0.2217
24511SOL    HW175540   1.324   4.703   9.638 -1.2833  0.5769 -2.2217
24511SOL    HW275541   1.426   4.596   9.603  0.0394  0.4042  1.6199
24512SOL     OW75542  10.216   2.321   9.359  0.0903 -0.4882 -0.8680
24512SOL    HW175543  10.224   2.389   9.426  1.0881 -1.2370 -0.2069
24512SOL    HW275544  10.136   2.274   9.383  0.1289 -0.3916 -0.5398
24513SOL     OW75545   8.961   1.159   4.938  0.3142  0.4082 -0.5462
24513SOL    HW175546   9.040   1.105   4.943 -0.6978 -1.4886 -3.1405
24513SOL    HW275547   8.906   1.116   4.872 -0.9049  4.2265 -2.3003
24514SOL     OW75548   6.757  10.297   2.186  0.5566 -0.4047 -0.0578
24514SOL    HW175549   6.786  10.257   2.268 -2.5609  0.0969  1.4309
24514SOL    HW275550   6.722  10.224   2.135  3.4551 -0.9041 -1.5824
24515SOL     OW75551   0.164   2.207   9.982  0.6876 -0.2045  0.3389
24515SOL    HW175552   0.109   2.135   9.952 -0.1422  1.0621 -1.3718
24515SOL    HW275553   0.253   2.173   9.974  0.2546 -1.7582  1.6655
24516SOL     OW75554   9.377   8.012   9.057 -0.3614 -0.0416 -0.0268
24516SOL    HW175555   9.318   7.937   9.056 -0.0536 -0.3274  1.2527
24516SOL    HW275556   9.373   8.048   8.968 -1.2034 -1.0249 -0.3973
24517SOL     OW75557   2.815   5.772   7.694 -0.2431  0.0895  0.1872
24517SOL    HW175558   2.886   5.709   7.707  0.5942  0.8791 -0.4232
24517SOL    HW275559   2.853   5.857   7.717 -1.0342  0.5131 -0.0141
24518SOL     OW75560   7.175   8.793   2.603 -0.7568  0.2402  0.1694
24518SOL    HW175561   7.114   8.858   2.638  0.7938  1.3042  1.0432
24518SOL    HW275562   7.239   8.845   2.553 -0.2545 -0.7639 -0.2561
24519SOL     OW75563   0.115   9.822   3.492  0.0791  0.1054 -0.2898
24519SOL    HW175564   0.149   9.737   3.517 -2.2029 -1.0435 -0.7862
24519SOL    HW275565   0.182   9.884   3.519  2.0462 -1.8726 -0.4012
24520SOL     OW75566   1.728  10.438   5.612  0.9907 -0.3275  0.0300
24520SOL    HW175567   1.779  10.503   5.564  2.3593  1.3398  3.3627
24520SOL    HW275568   1.651  10.487   5.642  1.4728 -0.4845  1.6266
24521SOL     OW75569   1.249   2.648   0.769 -0.9379  0.2339  0.2042
24521SOL    HW175570   1.191   2.586   0.724 -0.3363 -0.4386  0.3374
24521SOL    HW275571   1.297   2.594   0.832 -1.6113  1.1212  1.5163
24522SOL     OW75572   9.781   0.334   1.524  0.0970 -0.6435  0.4571
24522SOL    HW175573   9.827   0.418   1.528 -2.1705  0.7254  4.7572
24522SOL    HW275574   9.696   0.355   1.484  0.3191 -1.4092 -0.4441
24523SOL     OW75575   1.986  10.123   0.288 -0.7547 -0.3850 -0.3944
24523SOL    HW175576   2.035  10.199   0.257 -1.6098  0.3587  0.0450
24523SOL    HW275577   2.005  10.054   0.225  1.1376 -0.2298 -0.0529
24524SOL     OW75578   2.574   3.628  10.469 -0.4569 -0.1541 -0.0720
24524SOL    HW175579   2.555   3.720  10.457  1.8545  0.3033 -0.7119
24524SOL    HW275580   2.586   3.593  10.381  1.2054 -0.4345  0.2294
24525SOL     OW75581   3.026   6.559  10.539  0.7216 -0.8211  0.4183
24525SOL    HW175582   3.045   6.597  10.625 -2.4425  0.5853  0.6344
24525SOL    HW275583   3.041   6.631  10.477 -1.7722 -0.1960  0.4315
24526SOL     OW75584   3.506   1.821   3.511  0.2427 -0.3416  0.5981
24526SOL    HW175585   3.502   1.801   3.604  0.0412 -1.6742  0.3216
24526SOL    HW275586   3.465   1.907   3.503 -0.1021 -0.3925  1.6788
24527SOL     OW75587   9.832   9.061   3.633 -0.4356  0.5763  0.3493
24527SOL    HW175588   9.863   9.152   3.638  1.0332  0.0633  1.0972
24527SOL    HW275589   9.909   9.010   3.611 -1.4755 -0.4075 -1.2633
24528SOL     OW75590   4.280   0.090   2.624  0.4755 -0.1737 -0.0745
24528SOL    HW175591   4.282   0.159   2.691 -0.3288 -0.3336  0.1240
24528SOL    HW275592   4.200   0.042   2.641  0.2116 -0.1705 -1.2048
24529SOL     OW75593   9.490   3.482   4.041  0.0978  0.3065 -0.3556
24529SOL    HW175594   9.484   3.395   4.081  1.7666  0.4405  0.2923
24529SOL    HW275595   9.473   3.467   3.948  1.4823 -0.9420 -0.4488
24530SOL     OW75596  10.797   6.668   1.392  0.2196  0.2985 -0.3740
24530SOL    HW175597  10.796   6.634   1.303  0.0456 -0.2775 -0.1509
24530SOL    HW275598  10.868   6.622   1.435  0.5686  0.8706 -0.3249
24531SOL     OW75599   9.229   2.861   4.468 -0.1673  0.0013  0.1061
24531SOL    HW175600   9.321   2.865   4.493 -0.3481 -0.4098  0.8576
24531SOL    HW275601   9.191   2.793   4.524 -0.9782  0.3183 -0.0396
24532SOL     OW75602   7.618   4.127   1.978  0.2371 -0.0325 -0.5482
24532SOL    HW175603   7.527   4.140   2.003  0.2904 -0.1318 -0.2983
24532SOL    HW275604   7.618   4.128   1.882 -0.0537 -0.2297 -0.5493
24533SOL     OW75605   7.890   3.799   0.178  0.1250 -0.5666  0.2280
24533SOL    HW175606   7.809   3.836   0.213  0.2930 -0.3525  0.3959
24533SOL    HW275607   7.948   3.874   0.168  0.8712 -0.9062  1.6827
24534SOL     OW75608  10.648   0.390   2.273 -0.0950 -0.0773  0.2074
24534SOL    HW175609  10.558   0.360   2.274 -0.2445  0.3617  1.1143
24534SOL    HW275610  10.653   0.456   2.343  1.0479 -0.4885  0.5518
24535SOL     OW75611  10.770   5.499   0.570 -0.0317  0.4456  0.3061
24535SOL    HW175612  10.814   5.489   0.654 -0.3327 -3.0401  0.1918
24535SOL    HW275613  10.821   5.567   0.524  0.8279  1.6012  2.7868
24536SOL     OW75614   4.420   0.986   1.319  0.1129 -0.1714 -0.3514
24536SOL    HW175615   4.329   0.977   1.289 -0.3529 -2.3435  1.4626
24536SOL    HW275616   4.460   1.046   1.256 -3.0456  2.4812 -0.0894
24537SOL     OW75617   5.187   2.233   3.954 -0.4403 -0.2968  0.0192
24537SOL    HW175618   5.279   2.220   3.975 -0.4679  0.9544  0.9770
24537SOL    HW275619   5.182   2.323   3.921 -0.9421 -1.1097 -2.3639
24538SOL     OW75620   6.344   6.226   9.288  0.2016  0.9355  0.5231
24538SOL    HW175621   6.270   6.261   9.238 -0.3080 -0.3478  0.3312
24538SOL    HW275622   6.415   6.220   9.224 -0.2524 -0.0763  0.0838
24539SOL     OW75623   1.128   0.342   8.521 -0.2126 -0.3783  0.2552
24539SOL    HW175624   1.060   0.342   8.454  0.5666 -0.8622 -0.5414
24539SOL    HW275625   1.204   0.382   8.480 -0.1379  0.6230  1.3005
24540SOL     OW75626   2.021   6.447   2.009 -0.2135  0.3102  0.7493
24540SOL    HW175627   1.985   6.382   2.069 -3.2393  1.4251  0.3126
24540SOL    HW275628   1.999   6.532   2.049  0.9043  1.0758 -0.1830
24541SOL     OW75629   6.239   9.965  10.272  0.2000  0.1263 -0.5863
24541SOL    HW175630   6.200   9.913  10.342  0.9259 -2.2251 -1.8186
24541SOL    HW275631   6.213   9.920  10.191  2.3297  0.6113 -1.6224
24542SOL     OW75632   0.867   0.952   1.918 -0.3341 -0.7759 -0.6978
24542SOL    HW175633   0.962   0.944   1.914 -0.1877  0.4675 -0.0069
24542SOL    HW275634   0.837   0.866   1.948  0.9680  0.0809  3.8772
24543SOL     OW75635   9.882   0.231   7.946  0.0582  0.4060  0.2904
24543SOL    HW175636   9.879   0.276   7.861  1.8100  2.7587  1.3504
24543SOL    HW275637   9.900   0.140   7.924 -4.3363 -0.2064 -2.0394
24544SOL     OW75638   6.082   4.488  10.812 -0.2553  0.2058  0.3390
24544SOL    HW175639   6.140   4.413  10.802  0.7833  1.0373 -0.1067
24544SOL    HW275640   6.058   4.512  10.722 -0.5517  0.4305  0.4760
24545SOL     OW75641   9.829   5.119   2.886 -0.1848 -0.3814  0.0902
24545SOL    HW175642   9.861   5.130   2.976 -0.3144  0.4326  0.0399
24545SOL    HW275643   9.733   5.118   2.895 -0.1859 -1.2178  0.0584
24546SOL     OW75644   3.860  11.090   8.671 -0.8805  0.6472 -0.2181
24546SOL    HW175645   3.788  11.059   8.727 -0.0485 -2.7424 -0.7963
24546SOL    HW275646   3.873  11.019   8.608  2.7388  1.2668 -0.3598
24547SOL     OW75647   1.179   0.772  10.224 -0.4051 -0.1495  0.0138
24547SOL    HW175648   1.212   0.684  10.206  1.5931  0.4385  0.5335
24547SOL    HW275649   1.146   0.767  10.314  3.4859  0.5045  1.6836
24548SOL     OW75650   1.292   8.835   7.940  0.0892  0.2467 -0.0014
24548SOL    HW175651   1.233   8.894   7.987 -0.8835 -0.2852 -0.5351
24548SOL    HW275652   1.364   8.820   8.001  0.4877  2.1547  0.0738
24549SOL     OW75653   1.652   1.866   8.018  0.3431 -0.0631  0.3012
24549SOL    HW175654   1.564   1.828   8.020  0.4769 -0.3451  0.8730
24549SOL    HW275655   1.637   1.960   8.009  0.0096 -0.2123 -0.9467
24550SOL     OW75656   9.451  10.843   3.841 -0.2994 -0.5749  0.3905
24550SOL    HW175657   9.422  10.873   3.755 -0.7079 -1.2082  0.3030
24550SOL    HW275658   9.406  10.759   3.854  0.4555 -0.9245  0.8296
24551SOL     OW75659   9.548  10.233   7.213  0.0577  0.1969  0.1991
24551SOL    HW175660   9.628  10.214   7.163 -0.3446 -1.1161  0.0103
24551SOL    HW275661   9.576  10.236   7.304  0.0407 -2.4507  0.3731
24552SOL     OW75662   8.077   4.010   4.329  0.3705 -0.0630 -0.1289
24552SOL    HW175663   7.992   3.979   4.361  0.8599 -0.5802  0.6700
24552SOL    HW275664   8.060   4.034   4.238 -0.9963  1.2741  0.4375
24553SOL     OW75665   5.696   4.114   9.331 -0.0793  0.2778  0.2324
24553SOL    HW175666   5.664   4.118   9.421 -0.0350 -2.2773  0.4428
24553SOL    HW275667   5.630   4.160   9.279 -1.0159  0.2255  1.3537
24554SOL     OW75668   4.481   7.566   0.718  0.4598 -0.0673 -0.7110
24554SOL    HW175669   4.556   7.545   0.662  1.2197 -2.2523  0.9545
24554SOL    HW275670   4.521   7.607   0.795 -0.4230  1.6712 -1.1521
24555SOL     OW75671   9.784   6.261   0.200  0.1024  0.1443  0.0342
24555SOL    HW175672   9.697   6.279   0.236  0.3118  0.4758  0.3800
24555SOL    HW275673   9.770   6.251   0.106 -0.4912 -0.9577  0.2244
24556SOL     OW75674   6.181   5.572   8.771  0.1116 -0.2120  0.7428
24556SOL    HW175675   6.277   5.571   8.767  0.1952 -1.4481  2.1090
24556SOL    HW275676   6.158   5.665   8.768  1.3512  0.1029  0.3508
24557SOL     OW75677   3.647   2.881   1.250  0.0150 -0.0910 -0.6360
24557SOL    HW175678   3.647   2.802   1.303  0.9894 -0.4297 -1.1281
24557SOL    HW275679   3.619   2.950   1.311 -1.5661 -0.9082 -0.3954
24558SOL     OW75680   6.818   8.870   8.279  0.0949  0.2128  0.5086
24558SOL    HW175681   6.816   8.879   8.184 -2.1916 -0.3925  0.4332
24558SOL    HW275682   6.868   8.789   8.294  0.3390  0.2269 -0.1748
24559SOL     OW75683   2.177   2.504   6.869 -0.7899 -0.2999  0.1659
24559SOL    HW175684   2.138   2.586   6.899  3.8879  1.2324  3.1309
24559SOL    HW275685   2.161   2.442   6.940  0.8863  0.0032  0.8576
24560SOL     OW75686   1.222   1.918   0.679 -0.1672  0.3706 -0.1148
24560SOL    HW175687   1.212   1.841   0.735 -0.0227  0.3632 -0.0991
24560SOL    HW275688   1.316   1.927   0.667 -0.2371 -1.2700 -2.6157
24561SOL     OW75689   4.662   5.501   2.431 -0.1999 -0.5043 -0.0588
24561SOL    HW175690   4.665   5.587   2.473 -0.1169  0.1625 -1.3886
24561SOL    HW275691   4.667   5.519   2.338 -1.6045 -1.8697 -0.4540
24562SOL     OW75692   5.222   8.475   3.802 -0.1689  0.0659  0.8296
24562SOL    HW175693   5.219   8.570   3.806  1.4480  0.3459 -2.0911
24562SOL    HW275694   5.315   8.454   3.789 -0.1081 -2.1424  3.6546
24563SOL     OW75695   9.969   1.804   3.693 -0.2538 -0.5601  0.2871
24563SOL    HW175696   9.887   1.854   3.691  0.3634  0.6090  1.8367
24563SOL    HW275697  10.004   1.811   3.604 -1.6848 -0.8467 -0.3215
24564SOL     OW75698   1.206   1.220   8.763  0.4695 -0.9766  0.2545
24564SOL    HW175699   1.248   1.229   8.849 -0.9864  0.1201  0.8972
24564SOL    HW275700   1.199   1.310   8.730 -2.7430 -0.8376  0.9348
24565SOL     OW75701   3.161   4.535   3.912  0.2179  0.2808 -0.1005
24565SOL    HW175702   3.121   4.578   3.837  1.8923  2.1454  0.0032
24565SOL    HW275703   3.192   4.606   3.968  2.7417 -1.0045  0.2859
24566SOL     OW75704   9.828   2.860   4.689  0.3272 -0.3505  0.2497
24566SOL    HW175705   9.912   2.883   4.730  0.7389 -0.5370 -0.4735
24566SOL    HW275706   9.762   2.901   4.745  0.8599 -0.8520  1.2691
24567SOL     OW75707   1.002  11.026   2.528  0.3322 -0.4021  0.0938
24567SOL    HW175708   0.990  10.933   2.549  1.1459 -0.0789  2.3008
24567SOL    HW275709   0.921  11.068   2.558  0.9173 -0.1284  1.3796
24568SOL     OW75710   7.063   0.674   0.728  0.0003 -0.2780 -0.2894
24568SOL    HW175711   7.083   0.734   0.656 -2.4910 -1.6302 -2.2468
24568SOL    HW275712   7.072   0.587   0.689 -1.8622 -1.0331  0.8578
24569SOL     OW75713   3.197  10.510   1.517  0.5027 -0.5177  0.2221
24569SOL    HW175714   3.212  10.599   1.550 -0.6786  0.6153 -2.0193
24569SOL    HW275715   3.240  10.453   1.580 -0.3290  1.4996  2.8145
24570SOL     OW75716   5.143   7.945   9.042 -0.1422  0.1478  0.7022
24570SOL    HW175717   5.058   7.927   9.002  0.1169  0.0806  0.1731
24570SOL    HW275718   5.124   7.953   9.135 -0.9361  1.4411  0.4501
24571SOL     OW75719   7.450   4.996   9.348  1.1999 -0.3150 -0.1892
24571SOL    HW175720   7.401   4.924   9.389 -0.2487  0.5095 -0.4177
24571SOL    HW275721   7.484   4.958   9.267 -0.0605 -0.5988 -0.6038
24572SOL     OW75722   5.673   1.520  10.575 -0.1323 -0.0580  0.2268
24572SOL    HW175723   5.603   1.554  10.630 -1.3498 -1.2334 -0.5295
24572SOL    HW275724   5.638   1.525  10.486  0.5330 -1.1698 -0.1165
24573SOL     OW75725  10.845  10.014   0.505 -0.5910 -0.3621  0.3341
24573SOL    HW175726  10.899  10.037   0.580 -0.4689  1.2322 -0.2178
24573SOL    HW275727  10.799  10.095   0.482 -0.5557 -0.7814 -1.3661
24574SOL     OW75728   6.435   7.989  10.144 -0.4696  0.0493 -0.1267
24574SOL    HW175729   6.372   7.995  10.216 -0.5701  0.1508 -0.2233
24574SOL    HW275730   6.428   7.898  10.114 -2.0175  0.5402 -1.4373
24575SOL     OW75731   8.196   0.060  10.729 -0.0862 -0.0777  0.1452
24575SOL    HW175732   8.206   0.155  10.735  0.6784 -0.1688  0.3515
24575SOL    HW275733   8.205   0.028  10.819  1.3702 -0.4939 -0.1247
24576SOL     OW75734   5.075   7.405  11.084 -0.4199  0.1098  0.9824
24576SOL    HW175735   5.075   7.392  10.990  1.3718 -2.3497  1.2276
24576SOL    HW275736   5.017   7.338  11.118 -1.0655  0.9874  1.6576
24577SOL     OW75737  10.801   8.472   1.161 -0.2461  0.0935  0.1917
24577SOL    HW175738  10.777   8.380   1.155 -2.3235  0.6059 -0.3522
24577SOL    HW275739  10.804   8.490   1.255  0.5292 -0.5880  0.3086
24578SOL     OW75740   1.830  10.228   3.591 -0.5768 -0.0891 -0.0682
24578SOL    HW175741   1.908  10.253   3.640 -0.3852 -0.5485 -0.1373
24578SOL    HW275742   1.844  10.136   3.569 -0.5391  0.1822 -1.2179
24579SOL     OW75743   6.930   2.325   3.441  0.1570 -0.5496  0.0432
24579SOL    HW175744   6.883   2.242   3.435 -0.4070 -0.1829 -0.8079
24579SOL    HW275745   7.022   2.303   3.427  0.4090 -1.3957  2.5156
24580SOL     OW75746   5.092   9.163   4.910 -0.2910 -0.2011  0.1719
24580SOL    HW175747   5.021   9.182   4.849  0.1032 -1.2380 -0.6475
24580SOL    HW275748   5.161   9.225   4.887 -0.6769  0.3646  0.5279
24581SOL     OW75749   8.595   5.893  10.634 -0.1734  0.2950  0.1424
24581SOL    HW175750   8.515   5.925  10.593  0.4735  1.5436 -0.1762
24581SOL    HW275751   8.636   5.839  10.567  1.2588  2.9238 -1.2511
24582SOL     OW75752   2.686   9.351   1.547  0.4318 -0.0498 -0.2070
24582SOL    HW175753   2.595   9.327   1.534  0.0976  0.3951  1.1387
24582SOL    HW275754   2.701   9.342   1.641  1.0310  2.3182  0.0020
24583SOL     OW75755   1.683   4.227   7.803  0.3060  0.2142  0.1233
24583SOL    HW175756   1.767   4.247   7.843 -0.1722  1.5544  0.5373
24583SOL    HW275757   1.670   4.296   7.737  0.5038 -1.2338 -1.5043
24584SOL     OW75758   7.000   6.629   5.179  0.7251 -0.5407  0.1089
24584SOL    HW175759   7.070   6.693   5.164  0.0900 -0.0582 -0.9320
24584SOL    HW275760   6.966   6.610   5.091 -1.6831  0.6640  0.7001
24585SOL     OW75761   3.302   9.169   5.311  0.3481  0.6325 -0.0588
24585SOL    HW175762   3.372   9.130   5.364  0.6139  3.1738  1.6345
24585SOL    HW275763   3.223   9.156   5.364  0.0937  0.6480 -0.4341
24586SOL     OW75764   7.007   6.415   8.357 -0.1999 -0.3345 -0.0562
24586SOL    HW175765   7.012   6.378   8.269  0.3654 -0.1663 -0.1014
24586SOL    HW275766   7.098   6.417   8.387 -0.4160 -0.6713  0.6506
24587SOL     OW75767   3.246   3.730   2.151  0.0836 -0.2096 -0.1875
24587SOL    HW175768   3.226   3.823   2.161 -2.2026 -0.7092  0.3611
24587SOL    HW275769   3.300   3.726   2.072  1.3289  1.6785  0.4689
24588SOL     OW75770   6.004   6.322   0.098  0.1306 -0.7385  0.1082
24588SOL    HW175771   6.003   6.314   0.193  0.2624  0.1126  0.1835
24588SOL    HW275772   6.046   6.241   0.067 -0.4391 -1.2837  0.7373
24589SOL     OW75773   0.911   5.184   1.899  0.0412  0.3091  0.2369
24589SOL    HW175774   0.919   5.149   1.988  0.7480 -1.9530 -0.6275
24589SOL    HW275775   0.832   5.142   1.865  1.2534 -1.0498 -1.0437
24590SOL     OW75776   2.077   8.817   9.800  0.2592 -0.1950 -0.0926
24590SOL    HW175777   2.058   8.728   9.827 -0.4433  0.6580  2.5567
24590SOL    HW275778   2.119   8.808   9.714 -0.9389 -2.9446 -0.5069
24591SOL     OW75779   1.039   3.516  10.074  0.1340 -0.4643  0.2640
24591SOL    HW175780   1.116   3.531  10.128  0.4881 -1.0687 -0.0633
24591SOL    HW275781   1.031   3.421  10.068 -0.8078 -0.4194  0.5241
24592SOL     OW75782   0.445   1.726   7.732  0.2425 -0.5049  0.1255
24592SOL    HW175783   0.383   1.797   7.747 -0.1513 -0.4547 -1.5853
24592SOL    HW275784   0.447   1.678   7.815 -1.6271 -0.1607  0.4170
24593SOL     OW75785   2.384   3.526   1.204  0.5522 -0.4529  0.5164
24593SOL    HW175786   2.358   3.512   1.295  0.2815  0.5209  0.6067
24593SOL    HW275787   2.451   3.461   1.187  0.3441 -0.8797  1.3004
24594SOL     OW75788   3.095   0.806   1.748  0.0778  0.3356  0.5145
24594SOL    HW175789   3.099   0.860   1.826  0.3496  1.0753 -0.0019
24594SOL    HW275790   3.182   0.764   1.743  0.8114  1.8745 -0.4816
24595SOL     OW75791   2.805   3.957  10.362 -0.4658 -0.4604  0.0129
24595SOL    HW175792   2.874   3.933  10.423 -1.9519 -0.4911  1.7474
24595SOL    HW275793   2.779   3.874  10.322 -0.8187 -0.7383  0.8044
24596SOL     OW75794   1.344   8.094   3.587 -0.5770  0.2603  0.2488
24596SOL    HW175795   1.267   8.116   3.535 -1.4642 -1.3891  0.7895
24596SOL    HW275796   1.322   8.010   3.627  0.3441  1.1221  2.7354
24597SOL     OW75797   0.591   8.627   5.365 -0.1172  0.6200 -0.1355
24597SOL    HW175798   0.636   8.569   5.426  0.9530 -0.2328 -1.6634
24597SOL    HW275799   0.532   8.570   5.316  0.3745  0.9376 -1.1283
24598SOL     OW75800   6.655  10.617   6.326  0.4725  0.0826  0.4272
24598SOL    HW175801   6.622  10.546   6.272  0.2598 -0.1156  0.8099
24598SOL    HW275802   6.577  10.668   6.349  0.3835 -0.4930  1.4883
24599SOL     OW75803   6.719   0.021   7.203  0.2657  0.1202 -0.2055
24599SOL    HW175804   6.691   0.001   7.114  1.3042 -0.9683 -0.3252
24599SOL    HW275805   6.669   0.098   7.228 -1.3118 -0.5631 -1.0993
24600SOL     OW75806   8.984  10.497   3.051 -0.5554 -0.6040  0.3132
24600SOL    HW175807   9.064  10.512   3.000 -0.4257 -2.7157 -0.2210
24600SOL    HW275808   8.951  10.584   3.072  0.3680  0.3224 -1.8476
24601SOL     OW75809   6.107   4.473   5.765  0.2365 -0.3435  0.3032
24601SOL    HW175810   6.017   4.458   5.794  0.2658 -0.9950  0.0832
24601SOL    HW275811   6.124   4.566   5.783 -0.8593  0.0625 -0.6872
24602SOL     OW75812   9.010   4.561   3.993 -0.3449  0.2005  0.0977
24602SOL    HW175813   9.063   4.481   3.986  1.0177  1.1945 -1.6242
24602SOL    HW275814   8.978   4.560   4.084 -1.0664 -2.6802 -0.0913
24603SOL     OW75815   5.095   7.676   5.450  0.1495 -0.0984  0.3859
24603SOL    HW175816   5.136   7.671   5.536  1.5095 -0.3671 -0.2434
24603SOL    HW275817   5.141   7.747   5.406  1.3732 -1.6835 -1.0402
24604SOL     OW75818   9.028   6.513   5.349 -0.1327  0.2640 -0.3327
24604SOL    HW175819   9.086   6.457   5.399  0.6813  1.3142 -0.0652
24604SOL    HW275820   8.957   6.455   5.321  0.1889 -0.6777  0.7182
24605SOL     OW75821   8.375   5.773  11.087 -0.2250  0.4854 -0.0950
24605SOL    HW175822   8.366   5.861  11.123  1.7933  0.9894 -0.6882
24605SOL    HW275823   8.423   5.785  11.005 -1.0738 -1.0528 -0.8767
24606SOL     OW75824   7.575   0.167   4.145 -0.0793  0.4374 -0.6146
24606SOL    HW175825   7.584   0.234   4.214 -0.2076  0.7260 -0.8734
24606SOL    HW275826   7.650   0.109   4.158  0.2164  0.8180 -0.5866
24607SOL     OW75827   5.039   0.339   7.442 -0.4785 -0.0525 -0.7265
24607SOL    HW175828   5.071   0.335   7.532 -1.6301  0.4597 -0.2655
24607SOL    HW275829   5.117   0.333   7.388  0.2882  0.1988  0.3213
24608SOL     OW75830   4.171   8.921   5.255 -0.2569  0.0925 -0.2465
24608SOL    HW175831   4.105   8.854   5.237  0.6619 -1.0077  0.3200
24608SOL    HW275832   4.189   8.912   5.349 -0.9580  1.9466  0.1029
24609SOL     OW75833   5.010   3.820   3.226  0.7519  0.2006  0.7549
24609SOL    HW175834   4.937   3.844   3.282  0.1253  1.1179 -0.4189
24609SOL    HW275835   5.088   3.836   3.280  0.1208 -1.1107  2.1302
24610SOL     OW75836   7.773   9.756   9.547  0.4669 -0.7647 -0.1429
24610SOL    HW175837   7.844   9.720   9.495  0.8541 -0.3701  0.1039
24610SOL    HW275838   7.795   9.849   9.558  0.4922 -0.8685  0.8571
24611SOL     OW75839   2.982   1.831   1.161 -0.1597 -0.5217  0.6166
24611SOL    HW175840   3.077   1.837   1.147 -0.1711  0.8501  0.9853
24611SOL    HW275841   2.952   1.921   1.161 -1.6052 -0.9741 -0.2636
24612SOL     OW75842   5.372   5.492   1.302 -0.8472 -0.6567 -0.2396
24612SOL    HW175843   5.329   5.416   1.342 -0.1841 -0.7848  0.2390
24612SOL    HW275844   5.464   5.483   1.326 -0.6694  0.0008 -0.6558
24613SOL     OW75845   5.031   7.687   7.364 -0.2003 -0.6132 -0.3455
24613SOL    HW175846   5.040   7.592   7.363  0.2371 -0.5852  0.2259
24613SOL    HW275847   4.949   7.703   7.410  0.6550 -0.6763  1.2692
24614SOL     OW75848   9.228   1.768   9.769  0.1133 -0.9228  0.7176
24614SOL    HW175849   9.172   1.843   9.787  0.0861 -0.9742  0.8510
24614SOL    HW275850   9.317   1.802   9.780  0.2552 -0.1310 -2.1239
24615SOL     OW75851  10.931   2.900  10.384  1.1771 -0.3573 -0.8399
24615SOL    HW175852  10.873   2.839  10.429 -0.6911  2.2119  0.4857
24615SOL    HW275853  10.880   2.929  10.308  0.4114  2.1663  0.5119
24616SOL     OW75854  10.277   8.709   4.996 -0.5744 -0.1763  0.1768
24616SOL    HW175855  10.254   8.741   4.908  0.5855 -0.6685 -0.3211
24616SOL    HW275856  10.366   8.741   5.010 -0.9293  0.3192  1.3957
24617SOL     OW75857   8.074   2.782   2.993 -0.0026 -0.3166 -0.2369
24617SOL    HW175858   8.111   2.867   3.013  0.6245 -0.4937 -0.6307
24617SOL    HW275859   7.980   2.799   2.983  0.1706  0.4064 -0.7308
24618SOL     OW75860   6.732   3.495  10.184 -0.5282  0.3449  0.2901
24618SOL    HW175861   6.739   3.565  10.249 -0.1917 -0.8176  1.5636
24618SOL    HW275862   6.821   3.483  10.151 -0.3285 -0.3272  1.0330
24619SOL     OW75863   6.918   9.695   6.959  0.5704 -0.5241 -0.0979
24619SOL    HW175864   6.874   9.610   6.959 -1.6403  0.5571  1.1420
24619SOL    HW275865   6.964   9.698   7.043 -0.9306  0.2141  0.7417
24620SOL     OW75866   6.258   4.223   0.814 -0.0055 -0.2000  0.6051
24620SOL    HW175867   6.247   4.278   0.737  0.9484 -0.1345  0.5019
24620SOL    HW275868   6.283   4.284   0.884  1.6346 -0.5357  0.3533
24621SOL     OW75869   1.817  10.551   0.863 -0.1756  0.2838 -0.3882
24621SOL    HW175870   1.858  10.466   0.851 -0.4169  0.3429 -1.6782
24621SOL    HW275871   1.884  10.614   0.835  0.3876  0.6056  1.5104
24622SOL     OW75872   1.490   8.391   0.436  0.3979  0.1568 -0.1772
24622SOL    HW175873   1.423   8.459   0.432  1.4193  1.1627 -0.6153
24622SOL    HW275874   1.532   8.404   0.521  1.0410  0.5254 -0.5417
24623SOL     OW75875   1.741   8.068  10.803  0.0724  0.0852  0.0874
24623SOL    HW175876   1.737   8.160  10.831  0.2488  0.1320 -0.0386
24623SOL    HW275877   1.794   8.070  10.724  0.6297 -0.2121  0.4493
24624SOL     OW75878   3.672   9.949   6.042  0.3766 -0.0453 -0.8582
24624SOL    HW175879   3.753   9.915   6.079  1.0469  0.9459 -1.3633
24624SOL    HW275880   3.649   9.886   5.974 -1.4323 -2.4527  1.7918
24625SOL     OW75881   9.029   4.933   8.006 -0.2366 -0.0444  0.2639
24625SOL    HW175882   8.973   4.982   7.945 -2.2601 -1.8440  0.5188
24625SOL    HW275883   9.097   4.994   8.031 -1.7124  2.0933 -0.6215
24626SOL     OW75884   6.205   3.359   6.898 -0.5316  0.4937  0.4808
24626SOL    HW175885   6.126   3.304   6.893 -1.5237  1.6641  2.0876
24626SOL    HW275886   6.247   3.349   6.813 -1.7035 -1.2132  0.0527
24627SOL     OW75887   5.108   5.781   9.714 -0.3234 -0.5035  0.2895
24627SOL    HW175888   5.055   5.738   9.647 -0.2036  0.4061 -0.4107
24627SOL    HW275889   5.185   5.813   9.667  0.4522 -1.0651  1.1319
24628SOL     OW75890   1.881   9.471  10.956 -0.5187  0.2980 -0.1004
24628SOL    HW175891   1.865   9.416  11.032  0.0440  1.7261  1.1231
24628SOL    HW275892   1.797   9.511  10.937 -0.9510 -1.0252 -1.0580
24629SOL     OW75893   8.386   4.219   3.153  0.1101  0.0553 -0.3075
24629SOL    HW175894   8.409   4.290   3.092 -0.5534 -1.9155 -3.0604
24629SOL    HW275895   8.400   4.256   3.240  4.6357  1.9216 -1.5751
24630SOL     OW75896   2.043   4.709   3.323  0.4227  0.4963 -0.4569
24630SOL    HW175897   1.999   4.754   3.395  0.8742  1.9675 -1.0589
24630SOL    HW275898   1.990   4.731   3.246 -0.6089 -1.8237 -0.5040
24631SOL     OW75899   4.316   6.322   4.972  0.1529 -0.0270 -0.3611
24631SOL    HW175900   4.343   6.233   4.994  0.7481 -0.0803 -1.2843
24631SOL    HW275901   4.222   6.324   4.991  0.1181 -0.8766 -0.4331
24632SOL     OW75902   2.763   4.693   5.161  0.3858 -0.0306 -0.2465
24632SOL    HW175903   2.783   4.616   5.213  0.5029 -0.3459 -0.7540
24632SOL    HW275904   2.841   4.748   5.168 -0.9503  1.7736  3.0844
24633SOL     OW75905   4.885   1.821   0.030 -0.6304  0.4978 -0.1318
24633SOL    HW175906   4.946   1.791   0.097  1.5410 -0.1984 -2.2785
24633SOL    HW275907   4.876   1.747  -0.029 -0.2839  1.9172 -2.0608
24634SOL     OW75908   5.212   7.024   6.999 -0.3212  0.4438  0.2795
24634SOL    HW175909   5.258   6.978   6.928 -0.7765  1.7427 -0.9076
24634SOL    HW275910   5.120   7.023   6.972 -1.0013 -1.7278  2.4058
24635SOL     OW75911   9.672   5.253   2.094  0.2379  0.3605 -0.5794
24635SOL    HW175912   9.680   5.340   2.054 -1.3645  0.9012  0.1772
24635SOL    HW275913   9.630   5.270   2.178  2.9267 -0.8040  1.1116
24636SOL     OW75914   0.107   3.113   2.583  0.6754 -0.4964  0.1318
24636SOL    HW175915   0.132   3.068   2.502  1.5703 -0.8779  0.6090
24636SOL    HW275916   0.012   3.115   2.580  0.7054  0.0612 -1.2391
24637SOL     OW75917   8.851   9.034   8.193  0.5755  0.8134 -0.5013
24637SOL    HW175918   8.927   9.000   8.146  0.2909 -0.4910 -0.0545
24637SOL    HW275919   8.778   9.019   8.133  0.5852  1.5684 -0.7074
24638SOL     OW75920   1.655  10.662   2.862 -0.2229 -0.0010 -0.5828
24638SOL    HW175921   1.584  10.616   2.907  0.7994 -0.9590  0.1107
24638SOL    HW275922   1.653  10.629   2.772  0.7891 -1.8473  0.0144
24639SOL     OW75923   9.508   3.148   5.332  0.2735  0.5006 -0.4458
24639SOL    HW175924   9.529   3.193   5.414 -2.2464  0.5926  0.2335
24639SOL    HW275925   9.432   3.195   5.298  0.0522 -0.7896 -1.8099
24640SOL     OW75926   2.217   0.714  10.993  0.4024  0.2447 -0.2589
24640SOL    HW175927   2.233   0.772  10.919  0.2465 -0.6753 -1.0333
24640SOL    HW275928   2.122   0.715  11.005  0.5327  1.5281  0.8908
24641SOL     OW75929   3.246   0.708   4.956  0.0359 -0.0500  0.3017
24641SOL    HW175930   3.234   0.622   4.917  1.1968  0.2147 -0.7041
24641SOL    HW275931   3.239   0.693   5.050 -0.3616 -1.1306  0.1140
24642SOL     OW75932   1.476   4.342  10.751  0.1347 -0.3791  0.1261
24642SOL    HW175933   1.456   4.344  10.657 -1.8753  1.5358  0.5230
24642SOL    HW275934   1.489   4.249  10.770  1.6239 -0.7454 -2.1926
24643SOL     OW75935   7.388   8.945   7.866 -0.2952 -0.3869 -0.1376
24643SOL    HW175936   7.446   8.871   7.883  1.8675  1.5217  1.2715
24643SOL    HW275937   7.336   8.953   7.946 -0.9597 -0.7325 -0.5271
24644SOL     OW75938   7.646   0.856   5.712 -0.1875 -0.1457 -0.4446
24644SOL    HW175939   7.636   0.762   5.693  1.4225 -0.1340 -1.5763
24644SOL    HW275940   7.604   0.868   5.797 -1.9801 -1.5372 -1.0715
24645SOL     OW75941   0.540  10.111   8.918 -0.6429  0.0703  0.3313
24645SOL    HW175942   0.579  10.193   8.948 -2.8396  1.4116 -0.2925
24645SOL    HW275943   0.538  10.055   8.996  1.2534  0.3936  0.6630
24646SOL     OW75944   9.844   6.717  10.140  0.5678  0.0939  0.7229
24646SOL    HW175945   9.891   6.738  10.059 -1.9489 -0.4082 -0.9956
24646SOL    HW275946   9.876   6.780  10.204  0.6627  2.3514 -1.4214
24647SOL     OW75947   0.223  10.297   0.244  0.4853 -0.0410  0.2324
24647SOL    HW175948   0.133  10.322   0.265  0.9179  1.2888  0.6072
24647SOL    HW275949   0.266  10.289   0.329  1.1508  1.0545  0.0112
24648SOL     OW75950   6.601   0.520   7.645  0.6855  0.1745  0.1529
24648SOL    HW175951   6.637   0.591   7.592  3.6449 -2.1397 -1.1752
24648SOL    HW275952   6.525   0.489   7.596  0.7673  0.8679 -0.4280
24649SOL     OW75953  10.248   4.140  11.078  0.0877 -0.0018  0.3403
24649SOL    HW175954  10.170   4.094  11.108 -0.3418  0.4907 -0.0017
24649SOL    HW275955  10.272   4.196  11.151 -0.5922  0.7355  0.0128
24650SOL     OW75956   7.754   6.112   1.720 -0.0867  0.2540 -0.8600
24650SOL    HW175957   7.815   6.184   1.735  1.0750 -0.1841 -3.0800
24650SOL    HW275958   7.695   6.145   1.653 -0.6869 -0.2482 -0.5832
24651SOL     OW75959   4.068   0.297   8.263 -0.4634  0.4219  0.2999
24651SOL    HW175960   4.069   0.233   8.334  2.1124  0.8070  0.7131
24651SOL    HW275961   4.027   0.375   8.301 -0.7501  0.0344  0.7912
24652SOL     OW75962   3.148   4.968   8.077 -0.3512  0.7695 -0.2118
24652SOL    HW175963   3.094   4.927   8.144  0.8890 -0.3820  0.1306
24652SOL    HW275964   3.094   4.968   7.998  0.0171 -2.8905 -0.6303
24653SOL     OW75965   5.802   8.787   9.262 -0.3480 -0.4616  0.0444
24653SOL    HW175966   5.799   8.803   9.357 -2.9740  0.9521 -0.1613
24653SOL    HW275967   5.721   8.738   9.244  0.7168 -1.7994 -1.3356
24654SOL     OW75968   6.169   0.070   0.328 -0.2725  0.2629  0.9757
24654SOL    HW175969   6.213  -0.010   0.358  0.5152  0.4130  0.2755
24654SOL    HW275970   6.207   0.086   0.241 -1.3402  0.6975  0.5802
24655SOL     OW75971  10.152   6.312   7.541 -0.3271  0.0211  0.2358
24655SOL    HW175972  10.231   6.324   7.488  0.0112 -0.5061  0.6112
24655SOL    HW275973  10.098   6.389   7.521  1.3862  1.7960  1.8623
24656SOL     OW75974   6.741   3.439   0.040  0.6813  0.2904 -0.3869
24656SOL    HW175975   6.659   3.397   0.016 -0.2484  0.7465  1.7528
24656SOL    HW275976   6.729   3.531   0.015  0.6909  0.2909 -0.3896
24657SOL     OW75977   2.925   2.810   1.786  0.1855 -0.5612  0.1876
24657SOL    HW175978   2.979   2.885   1.811 -0.4919  0.0057 -0.0506
24657SOL    HW275979   2.983   2.734   1.800  2.0671  0.1854 -2.7762
24658SOL     OW75980   2.478   6.653   2.573 -0.2459 -0.0308  0.4283
24658SOL    HW175981   2.490   6.655   2.668 -1.6247 -1.7497  0.6899
24658SOL    HW275982   2.386   6.676   2.560  0.1006  0.8651 -0.5667
24659SOL     OW75983   7.979   1.122   6.277  0.5171  0.1217 -0.2984
24659SOL    HW175984   7.999   1.211   6.247 -0.3012  0.1705 -0.7411
24659SOL    HW275985   7.888   1.108   6.251  0.9184 -1.2011 -1.0908
24660SOL     OW75986   5.448   1.144   8.917  0.7896 -0.4139  0.2821
24660SOL    HW175987   5.434   1.052   8.896 -4.1513  0.1441  0.0366
24660SOL    HW275988   5.447   1.189   8.832  1.7885  0.0428  0.4916
24661SOL     OW75989  10.449   1.240   5.486  0.7579 -0.8931 -0.2276
24661SOL    HW175990  10.423   1.332   5.487  0.9644 -0.7915 -1.7066
24661SOL    HW275991  10.367   1.191   5.484  0.6496 -0.7036 -0.4436
24662SOL     OW75992   2.456   1.431   5.853  0.6097 -0.4396 -0.0387
24662SOL    HW175993   2.367   1.414   5.822  0.3499  1.6862 -0.6473
24662SOL    HW275994   2.503   1.463   5.775  1.6656 -0.7043  0.4668
24663SOL     OW75995  10.881   6.925   8.870  0.5694  0.4842 -0.3124
24663SOL    HW175996  10.926   6.900   8.789 -1.5312  0.2424 -1.4843
24663SOL    HW275997  10.830   7.003   8.846  0.0101  0.4920  0.8287
24664SOL     OW75998   8.632   8.077   9.086 -0.0430 -0.0375  0.2937
24664SOL    HW175999   8.719   8.105   9.059 -0.8950  1.9055 -0.6588
24664SOL    HW276000   8.603   8.143   9.149 -1.0457 -0.3142  0.1541
24665SOL     OW76001   7.006   2.937   1.174  0.7501  0.0963 -0.7409
24665SOL    HW176002   6.933   2.982   1.215  2.7992  4.3633 -1.1786
24665SOL    HW276003   7.008   2.971   1.084  1.8653 -1.7503 -1.4742
24666SOL     OW76004   9.480   4.044   3.198  0.0074 -0.3783  0.1346
24666SOL    HW176005   9.521   4.125   3.226 -3.0282  1.5555 -0.5935
24666SOL    HW276006   9.472   4.052   3.103 -0.7556 -1.2816  0.0994
24667SOL     OW76007   8.753   3.285   8.164  0.2017 -0.4634 -0.3137
24667SOL    HW176008   8.840   3.315   8.191  0.5855 -1.3508 -0.5180
24667SOL    HW276009   8.752   3.192   8.186 -1.7711  0.0778  2.4197
24668SOL     OW76010   2.942  10.332   6.850  0.4120  0.6111 -0.0581
24668SOL    HW176011   2.908  10.416   6.819 -4.1524 -1.0108 -0.2112
24668SOL    HW276012   2.978  10.290   6.772 -0.8173  0.9604 -0.8379
24669SOL     OW76013   8.436   0.927   3.220 -0.2475  0.0954  0.5716
24669SOL    HW176014   8.346   0.957   3.231 -0.5372  0.9540 -2.9621
24669SOL    HW276015   8.429   0.833   3.209 -0.4142 -0.1187  2.1637
24670SOL     OW76016   9.395   1.332   4.859  0.4977  0.1466 -0.0024
24670SOL    HW176017   9.457   1.272   4.898 -0.8386 -0.1284  1.8456
24670SOL    HW276018   9.346   1.279   4.796 -0.3398 -0.6222  1.2559
24671SOL     OW76019   6.736   9.748   6.372  0.6597  0.3580  0.0822
24671SOL    HW176020   6.738   9.814   6.302  1.1470  1.5614  1.1977
24671SOL    HW276021   6.798   9.781   6.437 -0.7015 -0.0848  1.6607
24672SOL     OW76022   5.321   1.942   1.807  0.3085  0.1409  0.0456
24672SOL    HW176023   5.399   1.998   1.803  0.7546 -0.4639  0.2547
24672SOL    HW276024   5.289   1.941   1.716  2.7748 -2.7105 -0.9628
24673SOL     OW76025   0.301   5.220   5.155  0.0392  0.1611  0.2399
24673SOL    HW176026   0.384   5.221   5.202 -0.8124 -1.7985  2.0021
24673SOL    HW276027   0.310   5.150   5.090 -0.0077  0.3854 -0.0096
24674SOL     OW76028   6.593   5.327   1.596 -0.4524  0.0007  0.8912
24674SOL    HW176029   6.555   5.277   1.669  1.1278 -0.5889  1.3547
24674SOL    HW276030   6.674   5.363   1.632 -0.0081  0.2968 -0.3637
24675SOL     OW76031   7.921   2.164   7.543 -0.3145  0.0313  0.2832
24675SOL    HW176032   7.915   2.216   7.463  1.1387  0.7908  0.6265
24675SOL    HW276033   8.008   2.185   7.579 -0.0128 -1.9818  0.8832
24676SOL     OW76034   6.882   5.267   3.340  0.0698  0.2315  0.1014
24676SOL    HW176035   6.805   5.213   3.320 -0.6168  0.6389  1.5469
24676SOL    HW276036   6.847   5.356   3.349  1.3321  1.2622 -3.4014
24677SOL     OW76037   9.574   3.415   3.631  0.5263 -0.2676  0.5728
24677SOL    HW176038   9.652   3.453   3.671 -0.6756  2.7027  0.3050
24677SOL    HW276039   9.574   3.449   3.542  0.7086 -3.0853 -0.6079
24678SOL     OW76040   3.932   6.987   9.144 -0.6712 -0.6004 -0.0108
24678SOL    HW176041   3.900   6.900   9.119 -0.8213 -0.5035 -0.1595
24678SOL    HW276042   3.888   7.007   9.226 -1.4050 -0.2430 -0.4813
24679SOL     OW76043   0.160   2.256   7.947  0.1740  0.3649 -0.0518
24679SOL    HW176044   0.091   2.210   7.900  1.3357  0.3543 -1.8277
24679SOL    HW276045   0.139   2.349   7.937 -0.9438  0.3388  1.6249
24680SOL     OW76046   1.203   1.048  10.751 -0.1638  0.3751  0.3968
24680SOL    HW176047   1.177   1.133  10.715  2.9863  1.7302  0.9590
24680SOL    HW276048   1.181   1.052  10.844 -1.9488 -0.3333  0.0355
24681SOL     OW76049   4.202   6.741   0.246  0.6420 -0.3713  0.4733
24681SOL    HW176050   4.243   6.665   0.286  0.7865 -0.0454  0.9550
24681SOL    HW276051   4.274   6.804   0.236  0.0499  0.7645  2.6577
24682SOL     OW76052   5.411   4.791   3.094 -0.5706 -0.2241  0.0134
24682SOL    HW176053   5.412   4.792   2.999 -0.6492 -0.1322  0.0127
24682SOL    HW276054   5.441   4.878   3.119  1.0941 -0.7817  0.0980
24683SOL     OW76055   4.073   3.481   7.408  0.4777 -0.8220 -0.0813
24683SOL    HW176056   4.064   3.406   7.467 -0.5187  0.2721  1.2255
24683SOL    HW276057   4.145   3.532   7.445 -1.0381  0.5843  1.0818
24684SOL     OW76058   3.356   9.201   1.630 -0.8139  0.4265 -0.2410
24684SOL    HW176059   3.339   9.107   1.622 -0.7472  0.1914  1.8292
24684SOL    HW276060   3.386   9.212   1.720  0.6816  2.2247 -0.8920
24685SOL     OW76061   1.964  10.665   2.232 -0.0662  0.1106  0.4323
24685SOL    HW176062   1.971  10.569   2.237 -2.1480 -0.2051 -1.0598
24685SOL    HW276063   1.955  10.693   2.323  1.9252 -0.9270  1.0044
24686SOL     OW76064   5.249   5.880   5.098 -0.3431 -0.3443  0.7825
24686SOL    HW176065   5.243   5.884   5.002  0.6419 -2.6741  0.5536
24686SOL    HW276066   5.285   5.965   5.123  0.5465 -0.1223 -1.0448
24687SOL     OW76067   8.634   3.847  10.221 -0.4105  0.4979 -0.2563
24687SOL    HW176068   8.698   3.874  10.155  1.5814 -0.8709  0.9959
24687SOL    HW276069   8.556   3.900  10.203  0.1669  0.4418 -3.4380
24688SOL     OW76070   8.358   6.411  10.178  0.5572  0.0748 -0.0967
24688SOL    HW176071   8.391   6.482  10.234 -2.0900  2.2973 -1.1231
24688SOL    HW276072   8.384   6.331  10.223  2.1637  1.7024  2.0749
24689SOL     OW76073   1.535   2.773   2.560  0.2035  0.3647 -0.2493
24689SOL    HW176074   1.590   2.799   2.487  1.4720 -0.1926  0.4814
24689SOL    HW276075   1.445   2.782   2.527  0.7455  0.2778 -1.8030
24690SOL     OW76076   4.592   7.729   0.912  0.1475  0.2762  0.0244
24690SOL    HW176077   4.675   7.777   0.913  0.8454 -0.8415  2.4065
24690SOL    HW276078   4.529   7.788   0.953 -0.0650  0.8145 -1.0530
24691SOL     OW76079   6.939   2.110   6.797 -0.2124 -0.5264  0.3667
24691SOL    HW176080   6.888   2.040   6.758 -1.0732  0.6314 -0.6698
24691SOL    HW276081   6.990   2.147   6.724  1.6283 -1.1980  1.2339
24692SOL     OW76082  11.052   6.267   8.988  0.0602 -0.0707 -0.5997
24692SOL    HW176083  11.060   6.309   9.074 -0.4112  0.3657 -0.7655
24692SOL    HW276084  10.981   6.314   8.945  1.0527  0.4783 -1.6802
24693SOL     OW76085   5.441   6.367   5.177  0.2070  0.2263 -0.5150
24693SOL    HW176086   5.471   6.458   5.174 -0.9576  0.7944  2.1782
24693SOL    HW276087   5.394   6.360   5.260  0.0403 -2.7930 -0.7566
24694SOL     OW76088   7.416   6.769  10.829 -0.5145 -0.3438  0.4111
24694SOL    HW176089   7.332   6.748  10.787  1.1110 -1.9654 -2.2736
24694SOL    HW276090   7.436   6.693  10.883  0.5367 -1.2556 -1.2179
24695SOL     OW76091  10.172   7.012  10.468 -0.7002  0.2638  0.2050
24695SOL    HW176092  10.079   6.997  10.486 -0.4913 -1.5631 -0.0850
24695SOL    HW276093  10.194   7.090  10.519 -2.6191  1.3592 -0.5247
24696SOL     OW76094   2.363  11.026  10.336  0.0450 -0.1914  0.1386
24696SOL    HW176095   2.375  10.965  10.263  1.9389  0.4788 -0.1628
24696SOL    HW276096   2.273  11.013  10.363 -0.4912 -0.9810 -1.8541
24697SOL     OW76097   5.978   5.909   2.979  0.2737 -0.3948 -0.2518
24697SOL    HW176098   5.966   5.993   3.024  1.3764 -0.7032  0.6858
24697SOL    HW276099   5.964   5.929   2.887 -0.0060  0.7134  0.0157
24698SOL     OW76100   6.722   4.035   8.974 -0.1219 -0.2012  0.2413
24698SOL    HW176101   6.711   3.943   8.951 -1.5858  0.8808 -4.7079
24698SOL    HW276102   6.633   4.066   8.991  0.1928  0.5463  0.5703
24699SOL     OW76103   1.236   8.807   9.798  0.1797  0.3932 -0.8060
24699SOL    HW176104   1.195   8.800   9.712 -0.4014  2.3856 -0.7304
24699SOL    HW276105   1.322   8.847   9.781  1.2797 -1.7709 -0.7186
24700SOL     OW76106   4.671   9.062   4.369  0.3543 -1.0073 -0.0202
24700SOL    HW176107   4.651   9.129   4.434  0.7512 -0.8932 -0.0158
24700SOL    HW276108   4.663   9.106   4.285 -2.7667 -1.7700 -0.2423
24701SOL     OW76109   8.907  10.969   2.203  0.0168  0.3150  0.8853
24701SOL    HW176110   8.989  10.976   2.251  0.6343  2.4170 -0.3478
24701SOL    HW276111   8.868  11.057   2.210 -0.8767  0.0792 -0.6896
24702SOL     OW76112   8.824  10.957   1.305  0.0982  0.3191  0.4636
24702SOL    HW176113   8.824  10.921   1.217 -3.9201 -2.0027  1.1220
24702SOL    HW276114   8.814  11.051   1.293  0.3815  0.1305 -1.5589
24703SOL     OW76115   8.487   6.046   0.746 -0.4052  0.3288 -0.0976
24703SOL    HW176116   8.432   6.106   0.796 -0.2662 -0.9138  1.6335
24703SOL    HW276117   8.528   5.991   0.812  1.8388  0.2802 -1.4285
24704SOL     OW76118   8.057   6.897   2.979 -0.4925 -0.3202 -0.0175
24704SOL    HW176119   8.068   6.803   2.967 -0.5226 -0.3367  0.0816
24704SOL    HW276120   8.112   6.937   2.912 -2.1397 -0.4254 -1.5071
24705SOL     OW76121  10.728   4.313   8.342 -0.2768  0.0178 -0.4984
24705SOL    HW176122  10.743   4.239   8.401 -1.7430 -1.8124 -2.2512
24705SOL    HW276123  10.633   4.322   8.340 -0.1156  2.4515  0.1505
24706SOL     OW76124   8.489   0.344   3.626  0.0417 -0.2799 -0.2590
24706SOL    HW176125   8.438   0.410   3.578 -0.0810 -0.5372 -0.4822
24706SOL    HW276126   8.481   0.264   3.574 -0.2481 -0.6125  0.2912
24707SOL     OW76127   2.893   5.928   1.524 -0.0834 -0.4565 -0.0930
24707SOL    HW176128   2.939   5.995   1.575  0.4592  0.0281 -1.1863
24707SOL    HW276129   2.942   5.923   1.442 -0.5779 -1.6526 -0.3312
24708SOL     OW76130   1.406   0.685   7.454  1.1363 -0.0250  0.4742
24708SOL    HW176131   1.429   0.778   7.455  3.1944 -0.4764  1.9426
24708SOL    HW276132   1.441   0.651   7.536  2.0243 -2.4435 -0.8082
24709SOL     OW76133   2.451   4.111   5.259 -0.0575  0.1282 -0.1217
24709SOL    HW176134   2.482   4.046   5.196  2.6603 -0.1520  1.3548
24709SOL    HW276135   2.379   4.155   5.214  1.4490 -0.3270 -3.2446
24710SOL     OW76136  10.494   8.779   0.112  0.2110 -0.4794  0.3613
24710SOL    HW176137  10.479   8.696   0.066 -0.0905 -0.6159  0.7075
24710SOL    HW276138  10.590   8.787   0.115  0.2504 -0.1147 -0.9176
24711SOL     OW76139   9.669   1.243   4.030  0.2893 -0.7022 -0.0280
24711SOL    HW176140   9.595   1.203   4.076  0.5533 -0.6199  0.4767
24711SOL    HW276141   9.711   1.298   4.096  0.4823 -0.3228 -0.4607
24712SOL     OW76142   1.266   4.690   7.178  0.0354 -0.8130 -0.7896
24712SOL    HW176143   1.316   4.769   7.158  1.5654 -0.6670  2.8347
24712SOL    HW276144   1.174   4.718   7.173  0.4330  0.3544 -2.4110
24713SOL     OW76145  10.758   9.437   8.777  0.1058  0.3199  0.1249
24713SOL    HW176146  10.810   9.473   8.849 -0.8119  0.9431  0.4932
24713SOL    HW276147  10.741   9.347   8.803  0.3343  0.3448  0.3728
24714SOL     OW76148   2.912   9.905   3.488  0.2219  0.5691 -0.0122
24714SOL    HW176149   2.980   9.874   3.547 -0.9983 -0.6724  0.8342
24714SOL    HW276150   2.937   9.872   3.402  0.6966  0.1301  0.2896
24715SOL     OW76151   4.665   0.284   4.663 -0.2711 -0.3021  0.9933
24715SOL    HW176152   4.756   0.305   4.683 -0.1396 -0.1513  0.2671
24715SOL    HW276153   4.623   0.369   4.650 -0.1855 -0.3959 -0.0281
24716SOL     OW76154  10.925   8.797   2.187  0.0380 -0.0959  0.0022
24716SOL    HW176155  10.888   8.857   2.252  0.1181  0.3916 -0.3889
24716SOL    HW276156  11.018   8.792   2.208  0.1832  0.5544 -0.4373
24717SOL     OW76157   2.915   5.542   8.121  0.3473 -0.1616  0.0681
24717SOL    HW176158   2.949   5.488   8.049 -0.2326 -3.3409  1.9657
24717SOL    HW276159   2.871   5.615   8.078  0.7047 -1.5011 -2.7791
24718SOL     OW76160   6.735  11.094  10.816 -0.6457 -0.0188  0.1835
24718SOL    HW176161   6.670  11.164  10.823 -2.4033 -1.6824  1.3040
24718SOL    HW276162   6.765  11.080  10.905 -1.6778 -1.8625  0.2944
24719SOL     OW76163   5.113   7.649   9.550 -0.1384  0.1367  0.4968
24719SOL    HW176164   5.051   7.720   9.570 -1.6555 -0.9489 -0.1399
24719SOL    HW276165   5.127   7.605   9.633 -1.7814 -0.7843  0.3185
24720SOL     OW76166   4.419   7.438   2.509 -0.3482  0.3078  0.0577
24720SOL    HW176167   4.334   7.476   2.489 -0.5339 -0.8307 -1.5599
24720SOL    HW276168   4.435   7.377   2.437  1.4219 -0.1817  0.8130
24721SOL     OW76169   8.824  10.785   3.964 -0.1928 -0.0227 -0.0342
24721SOL    HW176170   8.898  10.846   3.968  0.6707 -1.0857  3.6600
24721SOL    HW276171   8.862  10.702   3.936 -0.8889  0.3881 -2.4106
24722SOL     OW76172   9.381   0.788   7.433  0.1705 -0.0451 -0.5368
24722SOL    HW176173   9.369   0.744   7.517  1.3175 -0.0072 -0.3390
24722SOL    HW276174   9.313   0.751   7.377 -0.4259 -0.2799  0.3155
24723SOL     OW76175   2.127   5.714   6.254  0.1709 -0.4641 -0.2267
24723SOL    HW176176   2.152   5.637   6.306 -1.1840 -0.2680  0.7797
24723SOL    HW276177   2.166   5.788   6.301 -0.7429 -0.3191  0.3207
24724SOL     OW76178   5.002   3.902   0.863 -0.7272  0.2771  0.2789
24724SOL    HW176179   4.974   3.993   0.854  0.7726  1.1313  2.9534
24724SOL    HW276180   4.929   3.850   0.831 -0.6484  2.3295 -3.8860
24725SOL     OW76181   9.117   4.840   4.169 -0.5435  0.0115  0.0211
24725SOL    HW176182   9.117   4.920   4.221  0.2696 -1.1440  1.8995
24725SOL    HW276183   9.039   4.792   4.198 -0.5106 -0.3155 -0.4102
24726SOL     OW76184   2.207   0.780   7.626 -0.1367 -0.6654 -0.1767
24726SOL    HW176185   2.233   0.870   7.608 -0.3227 -0.3647  0.9449
24726SOL    HW276186   2.290   0.731   7.626  0.0707 -0.3239  0.0858
24727SOL     OW76187   1.806   5.599   3.966  0.1693 -0.0674  0.0572
24727SOL    HW176188   1.769   5.555   3.889  0.4944 -1.7635  0.8260
24727SOL    HW276189   1.740   5.663   3.991 -1.9697 -2.4374  0.9059
24728SOL     OW76190   8.058   9.963   5.878 -0.3833  0.5899 -0.1698
24728SOL    HW176191   8.089   9.913   5.803 -0.2274  1.6128 -0.8126
24728SOL    HW276192   7.963   9.964   5.869 -0.8931 -3.4712  2.3931
24729SOL     OW76193   4.871   4.595   9.979  0.5496  0.1637 -0.5716
24729SOL    HW176194   4.802   4.659   9.966 -0.2090 -0.7405 -1.0983
24729SOL    HW276195   4.836   4.535  10.046  0.8090 -0.3072 -0.8508
24730SOL     OW76196   5.902  10.990   2.890  0.1462  0.0001  0.1112
24730SOL    HW176197   5.881  10.952   2.805  0.1474  0.6223 -0.1772
24730SOL    HW276198   5.901  10.916   2.951 -0.7184 -0.3134 -0.2713
24731SOL     OW76199   4.939   0.944   5.299 -0.3315  0.3934  0.4744
24731SOL    HW176200   5.012   0.942   5.237 -0.5874 -0.0893  0.1815
24731SOL    HW276201   4.941   1.032   5.336  0.1150  0.5305  0.1288
24732SOL     OW76202  10.592   3.021   5.618  0.1766 -0.3693 -0.4195
24732SOL    HW176203  10.642   3.100   5.640  0.7597 -0.3585 -1.7284
24732SOL    HW276204  10.559   3.037   5.529 -3.7509  0.4361  0.9600
24733SOL     OW76205   8.258  10.250   8.668 -0.6997 -0.0534 -0.2927
24733SOL    HW176206   8.245  10.327   8.724 -2.0757 -1.2667  1.1344
24733SOL    HW276207   8.181  10.196   8.683  0.7735 -2.2951 -0.3292
24734SOL     OW76208   6.519   9.832   1.939 -0.1376 -0.0417  0.5785
24734SOL    HW176209   6.525   9.911   1.885 -1.2326 -1.3041 -1.5269
24734SOL    HW276210   6.441   9.845   1.993 -0.3727  0.2642  0.1683
24735SOL     OW76211   3.322   0.757   2.283  0.4383  0.2963  0.4024
24735SOL    HW176212   3.366   0.730   2.202  1.3970 -0.3254  1.1173
24735SOL    HW276213   3.334   0.684   2.343 -1.4722  0.1608  0.6917
24736SOL     OW76214   5.427   2.262   4.740 -0.1088  0.0064 -0.3368
24736SOL    HW176215   5.363   2.323   4.704 -0.2105  0.3872  0.4477
24736SOL    HW276216   5.430   2.284   4.833 -2.2329 -3.0198  0.5974
24737SOL     OW76217   0.991   7.921   4.224 -0.2627 -0.3976 -0.3775
24737SOL    HW176218   0.984   7.926   4.320 -3.3335 -0.9530 -0.4836
24737SOL    HW276219   1.002   8.012   4.196  1.6880 -0.3129  0.4833
24738SOL     OW76220   6.736   8.970   9.619  0.5230  0.0880  0.2034
24738SOL    HW176221   6.697   9.053   9.592  0.0197  0.1139  0.9831
24738SOL    HW276222   6.745   8.977   9.714 -1.7875 -1.6534  0.6549
24739SOL     OW76223  10.803   8.625   5.488  0.7793  0.1727 -0.2429
24739SOL    HW176224  10.864   8.693   5.517 -0.2806  1.1167 -0.1173
24739SOL    HW276225  10.845   8.586   5.411  1.6651  0.5853  0.0180
24740SOL     OW76226   4.171   7.316  10.444  0.0133 -0.5151  0.5280
24740SOL    HW176227   4.202   7.373  10.515  1.2616 -1.1291  0.4973
24740SOL    HW276228   4.201   7.359  10.364 -0.9918 -0.0673  0.3752
24741SOL     OW76229   4.377   7.388   0.512  0.1661  0.1891  0.5449
24741SOL    HW176230   4.282   7.382   0.498  0.3990  1.2196 -1.9140
24741SOL    HW276231   4.386   7.440   0.592 -1.3232 -0.2272  1.0150
24742SOL     OW76232   2.254   7.555   9.590  0.3754  0.6339 -0.0642
24742SOL    HW176233   2.220   7.617   9.525 -2.7455 -1.0220 -0.1777
24742SOL    HW276234   2.286   7.611   9.661  0.3083  2.4034 -1.3550
24743SOL     OW76235   4.099   7.140   7.617  0.0194 -0.1831 -0.0939
24743SOL    HW176236   4.167   7.074   7.625 -0.6398 -0.7845  0.7872
24743SOL    HW276237   4.024   7.094   7.579 -0.2466  0.1971 -0.0401
24744SOL     OW76238   8.363   6.990   4.499  0.3865  0.3219  0.0379
24744SOL    HW176239   8.367   6.918   4.562  0.4368 -0.0816 -0.4134
24744SOL    HW276240   8.270   7.006   4.487  0.3642  0.0343 -0.1851
24745SOL     OW76241   3.078   8.453   2.541  0.2871  0.4400 -0.3242
24745SOL    HW176242   3.058   8.507   2.464 -1.1418 -1.4867 -1.3843
24745SOL    HW276243   3.135   8.384   2.507  1.3115  0.7000  0.8129
24746SOL     OW76244   8.083   4.150   5.109 -0.1147  0.2030  0.2176
24746SOL    HW176245   8.098   4.205   5.031 -0.5020  0.4505  0.3132
24746SOL    HW276246   8.150   4.178   5.171 -1.8343  2.4104  1.2294
24747SOL     OW76247   5.366   3.105   3.613 -0.0378  0.0684  0.7142
24747SOL    HW176248   5.408   3.188   3.591 -2.1454  0.3263 -3.1715
24747SOL    HW276249   5.414   3.040   3.561  0.7314 -1.0385  2.6927
24748SOL     OW76250   5.622   9.671   5.276 -0.4918  0.1806 -0.1506
24748SOL    HW176251   5.570   9.741   5.315 -0.3054  0.5253 -0.5237
24748SOL    HW276252   5.565   9.594   5.281 -1.4191  0.7475 -1.4158
24749SOL     OW76253   1.654   3.560   7.876  0.0760 -0.3518  0.7114
24749SOL    HW176254   1.723   3.625   7.867 -1.2302  1.3564  2.1972
24749SOL    HW276255   1.619   3.550   7.788  0.4331  0.8393  0.4191
24750SOL     OW76256   1.189   5.027   0.008 -0.1869 -0.1030  0.1047
24750SOL    HW176257   1.224   5.117   0.011 -2.6361  0.9383 -0.2145
24750SOL    HW276258   1.255   4.977  -0.040  1.1809  1.5380  0.1729
24751SOL     OW76259  10.658   4.100   6.010 -0.3143 -0.1021 -0.4239
24751SOL    HW176260  10.566   4.075   6.013 -0.1590 -0.7723 -1.0080
24751SOL    HW276261  10.705   4.018   5.998  0.3498  0.2622 -0.3961
24752SOL     OW76262   1.547   4.618   2.410 -0.7731  0.5981 -0.2093
24752SOL    HW176263   1.504   4.653   2.487  1.2328  1.5796  0.5264
24752SOL    HW276264   1.605   4.550   2.443 -0.1750  0.7557 -0.9035
24753SOL     OW76265  10.928   5.369   1.917  0.6893  0.3296 -0.3711
24753SOL    HW176266  11.018   5.386   1.944  0.8579  2.0689 -1.8049
24753SOL    HW276267  10.935   5.303   1.849  0.9400  0.7108 -0.7216
24754SOL     OW76268   3.973   2.510   1.784  0.3747  0.3859  0.1806
24754SOL    HW176269   3.981   2.605   1.795  2.7886  0.4305 -1.1636
24754SOL    HW276270   3.909   2.499   1.714  1.1737  1.1439 -0.7047
24755SOL     OW76271   6.048   0.490   7.968  0.4047  0.0110 -0.4622
24755SOL    HW176272   6.022   0.415   7.915  1.0880  0.0098 -0.8054
24755SOL    HW276273   6.104   0.453   8.037  0.7039  0.1911 -0.6036
24756SOL     OW76274   1.140   5.817   1.274 -0.0037 -0.1962  0.4853
24756SOL    HW176275   1.155   5.725   1.254  0.0868  0.1294 -1.1048
24756SOL    HW276276   1.228   5.855   1.281  0.0169 -0.4873  2.7509
24757SOL     OW76277   7.121   5.419   0.043 -0.0992 -1.0483 -0.0377
24757SOL    HW176278   7.050   5.475   0.009  0.8947 -0.5210 -1.3006
24757SOL    HW276279   7.135   5.452   0.132  0.9727  1.3013 -0.9861
24758SOL     OW76280   4.742   5.658   8.026 -0.3687  0.1293 -0.0319
24758SOL    HW176281   4.723   5.633   8.117  1.4455 -1.5833 -0.0450
24758SOL    HW276282   4.657   5.656   7.982 -0.9530 -1.7405  1.0566
24759SOL     OW76283   6.211   0.988   9.153 -0.7701  0.4843 -0.1205
24759SOL    HW176284   6.203   0.951   9.065 -0.6802  0.1983 -0.0103
24759SOL    HW276285   6.293   1.038   9.150  0.9670 -2.0780  0.6853
24760SOL     OW76286   2.491   4.290   8.018  0.0911 -0.3821  0.6262
24760SOL    HW176287   2.453   4.323   8.099  0.8376 -0.9018  1.1977
24760SOL    HW276288   2.474   4.196   8.019  2.8986 -0.9813  1.8033
24761SOL     OW76289   4.012   2.168   4.925 -0.2481  0.4624  0.3753
24761SOL    HW176290   3.923   2.181   4.892 -0.2306 -1.0348 -0.3419
24761SOL    HW276291   4.058   2.123   4.855  0.8296  0.4041  1.0903
24762SOL     OW76292   6.308   5.250   4.568  0.2474 -0.0776  0.6603
24762SOL    HW176293   6.397   5.262   4.536  0.0564  0.8032  0.4194
24762SOL    HW276294   6.268   5.337   4.561 -0.8235 -0.5896  0.1861
24763SOL     OW76295   1.884   6.784   8.247  0.0837  0.8229  0.6006
24763SOL    HW176296   1.956   6.846   8.257 -0.7149  2.0131 -0.6661
24763SOL    HW276297   1.863   6.786   8.153 -1.0186 -0.1622  0.7968
24764SOL     OW76298   1.823   3.287   1.161 -0.2151 -0.1917  0.3075
24764SOL    HW176299   1.848   3.203   1.123 -1.2822  1.1873 -4.0320
24764SOL    HW276300   1.900   3.343   1.152 -1.3604  1.0659 -3.2694
24765SOL     OW76301   3.955   1.177   7.489  0.3330 -0.2488  0.6678
24765SOL    HW176302   3.906   1.119   7.548  0.0561 -0.0517  0.6353
24765SOL    HW276303   4.031   1.126   7.463  1.3420  0.2176  2.4696
24766SOL     OW76304   0.306   8.419   9.640  0.6684  0.3302 -0.1174
24766SOL    HW176305   0.387   8.431   9.689  1.2589  0.2393 -1.0580
24766SOL    HW276306   0.316   8.334   9.597 -0.8417 -0.7383  1.4594
24767SOL     OW76307   1.819   8.262   0.393 -0.4539  0.6850 -0.9001
24767SOL    HW176308   1.768   8.302   0.323  0.5716  0.4417 -1.8046
24767SOL    HW276309   1.792   8.309   0.472  1.8279  4.3932 -2.0719
24768SOL     OW76310   6.108   8.708   6.327  0.5047  0.3284  0.1949
24768SOL    HW176311   6.121   8.627   6.277 -0.8575 -0.1466  0.5749
24768SOL    HW276312   6.080   8.772   6.262  0.1370  0.0928  0.1193
24769SOL     OW76313   6.087   3.358   4.825 -0.5402  0.2196  0.4783
24769SOL    HW176314   6.085   3.401   4.740 -0.5798  0.7768  0.7585
24769SOL    HW276315   6.000   3.319   4.835  0.2259 -1.9930 -0.8124
24770SOL     OW76316   0.649   3.075   6.815  0.3416 -0.2689  0.4111
24770SOL    HW176317   0.575   3.015   6.803 -1.1623  1.2674  1.4437
24770SOL    HW276318   0.656   3.121   6.732  0.1696 -0.4675  0.2846
24771SOL     OW76319   9.003   0.680   4.626 -0.1591  0.3530 -0.2702
24771SOL    HW176320   9.048   0.690   4.709  0.6179 -0.0473 -0.6314
24771SOL    HW276321   8.920   0.637   4.648  0.0973  0.1384  0.2788
24772SOL     OW76322  10.816   5.053   2.001 -0.0801 -0.0833  0.9124
24772SOL    HW176323  10.869   5.067   1.922  1.3689  0.6767  1.9831
24772SOL    HW276324  10.834   4.963   2.026 -0.5746 -0.3404  0.3855
24773SOL     OW76325   4.493   4.432   2.241  0.2866 -0.1127 -0.0732
24773SOL    HW176326   4.435   4.364   2.206  2.3201 -2.2915  0.5859
24773SOL    HW276327   4.460   4.449   2.329 -0.1548 -0.2871 -0.1984
24774SOL     OW76328   7.461   7.343   8.509 -0.5022 -0.0219 -0.1663
24774SOL    HW176329   7.552   7.366   8.491 -0.5047  0.3942  0.3525
24774SOL    HW276330   7.410   7.398   8.450 -0.4119 -0.5566 -0.7627
24775SOL     OW76331   0.139   5.587   4.633 -0.4006  0.3761 -0.0552
24775SOL    HW176332   0.080   5.635   4.575 -0.6114  0.6398  0.3697
24775SOL    HW276333   0.161   5.507   4.585 -2.5067 -0.5924  0.4816
24776SOL     OW76334  10.107   5.076   5.649 -0.3087 -0.0846 -0.1929
24776SOL    HW176335  10.157   5.066   5.568 -0.6211  1.5974 -0.6356
24776SOL    HW276336  10.173   5.089   5.717  0.0132 -2.6285  0.0775
24777SOL     OW76337   9.563   7.917   1.960  0.7236 -0.4153  0.7924
24777SOL    HW176338   9.478   7.945   1.993  1.6135  4.0357 -0.0495
24777SOL    HW276339   9.543   7.873   1.877 -0.7888  2.7479 -0.6693
24778SOL     OW76340   7.172   3.546   6.307  0.5023  0.4630 -0.1976
24778SOL    HW176341   7.199   3.541   6.216 -1.7028 -0.7287 -0.8591
24778SOL    HW276342   7.110   3.619   6.309  1.2913  1.1373  0.5967
24779SOL     OW76343   5.589   2.080   5.841  0.2563 -0.3235  0.5063
24779SOL    HW176344   5.513   2.023   5.848  1.7592 -2.6705 -1.1387
24779SOL    HW276345   5.661   2.030   5.879  1.0563  1.9539  2.2930
24780SOL     OW76346   2.903   4.548   6.272  0.2699  0.5289  0.3274
24780SOL    HW176347   2.885   4.469   6.322  2.1796 -0.4595 -0.4290
24780SOL    HW276348   2.970   4.594   6.324  1.7508 -0.1565 -0.8785
24781SOL     OW76349   9.469   7.599   4.462 -0.5022  1.3923 -0.2666
24781SOL    HW176350   9.530   7.661   4.422  1.4532 -0.3544 -0.1659
24781SOL    HW276351   9.472   7.618   4.555  2.1203 -0.3811  0.1219
24782SOL     OW76352   6.580   3.550   7.245  0.7005  0.5697 -0.0789
24782SOL    HW176353   6.590   3.555   7.150  0.3017 -0.8758 -0.2214
24782SOL    HW276354   6.596   3.640   7.276 -0.5722  1.3840 -1.6366
24783SOL     OW76355   6.288   5.394  10.627  0.1979 -0.5861 -0.1011
24783SOL    HW176356   6.269   5.376  10.719  2.2682 -1.4276  0.2231
24783SOL    HW276357   6.368   5.345  10.609 -1.1305 -1.9385 -2.8925
24784SOL     OW76358   8.131  10.178   2.105  0.1193 -0.0264 -0.5869
24784SOL    HW176359   8.119  10.273   2.099 -2.3347 -0.2680 -0.4354
24784SOL    HW276360   8.133  10.160   2.199  1.9620 -0.0236 -0.5949
24785SOL     OW76361  10.939   7.558   4.989  0.1619 -0.1841 -0.0236
24785SOL    HW176362  11.021   7.508   4.992  0.6846  0.6825  1.0550
24785SOL    HW276363  10.931   7.586   4.898  1.1108 -0.2395 -0.1352
24786SOL     OW76364   5.546   5.435   7.115 -0.1440 -0.0931 -0.4245
24786SOL    HW176365   5.533   5.356   7.168 -0.2601 -0.2114 -0.6254
24786SOL    HW276366   5.625   5.475   7.151  0.9927 -1.2741 -1.4994
24787SOL     OW76367  10.830   0.892  10.520 -0.2939  1.0069  0.3026
24787SOL    HW176368  10.812   0.844  10.439  1.7730  1.0422 -0.2391
24787SOL    HW276369  10.918   0.928  10.507  1.6786 -1.8239  3.7863
24788SOL     OW76370   2.449   3.984   9.910  0.2412 -0.1728 -0.3132
24788SOL    HW176371   2.491   4.057   9.955  1.5090  0.0535 -1.7701
24788SOL    HW276372   2.356   4.007   9.908  0.2720  0.1979  1.3879
24789SOL     OW76373   9.653   1.988   3.918  0.7611  0.0952 -0.0975
24789SOL    HW176374   9.710   1.997   3.994  1.0035 -0.8112 -0.1647
24789SOL    HW276375   9.564   1.995   3.954  0.8859  0.2903  0.1749
24790SOL     OW76376   1.264   6.865  10.342  0.1841 -0.0198  0.7682
24790SOL    HW176377   1.351   6.887  10.378  2.1255 -0.7340 -2.9613
24790SOL    HW276378   1.233   6.948  10.304  0.2333 -0.2026  0.3178
24791SOL     OW76379   6.333   9.857   3.591  0.1564 -0.5023  0.9761
24791SOL    HW176380   6.375   9.851   3.676  1.2984  1.3023  0.5795
24791SOL    HW276381   6.324   9.766   3.562 -1.4420 -1.2590  3.5383
24792SOL     OW76382   0.351   8.954   4.451 -0.0040 -0.3483  0.7584
24792SOL    HW176383   0.297   8.883   4.485 -0.1793 -0.2424  0.7054
24792SOL    HW276384   0.406   8.981   4.524  0.9188 -1.3349  0.4492
24793SOL     OW76385   6.783   1.603  10.221  0.2308 -0.9551 -0.6420
24793SOL    HW176386   6.858   1.642  10.177  0.1591 -1.1936 -0.9749
24793SOL    HW276387   6.708   1.626  10.166 -0.2157  0.8950  0.6539
24794SOL     OW76388   1.986   6.720   2.101 -0.9527  0.7025  0.3771
24794SOL    HW176389   1.913   6.775   2.072 -1.3375  1.1027  1.9894
24794SOL    HW276390   2.052   6.782   2.132 -1.7037  0.3564  2.9602
24795SOL     OW76391   7.880  11.057   4.382 -0.2862  0.1421  0.2162
24795SOL    HW176392   7.963  11.046   4.337 -0.6453  0.4175 -0.5248
24795SOL    HW276393   7.897  11.026   4.472  0.5540  0.0284  0.0243
24796SOL     OW76394   8.031   8.453   3.341 -0.3904  0.5738  0.0489
24796SOL    HW176395   8.078   8.401   3.275  0.6746 -1.2627  2.1118
24796SOL    HW276396   8.098   8.482   3.402 -1.6873 -2.9217  3.6356
24797SOL     OW76397   5.693   2.333   1.422 -0.2333 -0.0262 -0.9554
24797SOL    HW176398   5.692   2.409   1.364 -0.7506  0.9010  0.2432
24797SOL    HW276399   5.750   2.270   1.377  0.4277  1.1551 -1.8383
24798SOL     OW76400   3.212   2.877   9.768  0.0778 -0.2077 -0.3863
24798SOL    HW176401   3.176   2.793   9.738  0.2400  0.5934 -3.0382
24798SOL    HW276402   3.306   2.871   9.748  0.3650  0.0498  0.8291
24799SOL     OW76403   1.895  10.276   2.744  0.7674  0.6024 -0.2080
24799SOL    HW176404   1.905  10.255   2.837  1.4885 -0.9398 -0.6000
24799SOL    HW276405   1.821  10.222   2.715  1.6762 -0.3028 -0.9082
24800SOL     OW76406   9.794   0.616  10.364  0.3272 -0.3599 -0.7676
24800SOL    HW176407   9.809   0.694  10.418 -1.6149  1.0564 -2.1595
24800SOL    HW276408   9.820   0.543  10.420 -2.3417  0.9307  2.4746
24801SOL     OW76409   6.789   1.546   3.926  0.5861  0.0126 -0.1490
24801SOL    HW176410   6.732   1.557   3.849 -0.9839  1.2984  1.1145
24801SOL    HW276411   6.797   1.634   3.962 -1.1323 -0.8840  2.7448
24802SOL     OW76412   2.267   1.552   2.499 -0.0854 -0.0264 -0.6638
24802SOL    HW176413   2.361   1.561   2.483 -0.1531  1.5581 -0.3608
24802SOL    HW276414   2.261   1.499   2.578  0.5983  0.5159 -0.2327
24803SOL     OW76415  10.603   5.420  10.014 -0.1991 -0.1516  0.1192
24803SOL    HW176416  10.684   5.457  10.049 -0.8553  1.5361 -0.0255
24803SOL    HW276417  10.621   5.405   9.922  0.3896 -1.1745  0.3861
24804SOL     OW76418   5.165   2.895   8.209  0.4811 -0.4250 -0.0898
24804SOL    HW176419   5.107   2.829   8.171  1.1696 -1.5274  0.7087
24804SOL    HW276420   5.245   2.846   8.231  0.9553  0.6528  0.6406
24805SOL     OW76421   1.449  10.744   0.045  0.2336  0.5940  0.4786
24805SOL    HW176422   1.488  10.790   0.119 -1.3777 -0.8579  2.3337
24805SOL    HW276423   1.421  10.659   0.081 -0.1711 -0.3672 -1.9128
24806SOL     OW76424   3.399   2.551   7.026 -0.3464 -0.4507 -0.1128
24806SOL    HW176425   3.443   2.473   6.992 -0.7224 -0.7639  0.1114
24806SOL    HW276426   3.457   2.585   7.093  0.4552  0.2281 -1.1219
24807SOL     OW76427   9.865   0.836   4.195  0.9350  0.4888  0.7211
24807SOL    HW176428   9.879   0.912   4.251  0.4730 -0.7389  2.5633
24807SOL    HW276429   9.890   0.761   4.248 -0.7278 -0.8281 -0.2494
24808SOL     OW76430   0.715   9.214   6.833 -0.6581  0.0384  0.2107
24808SOL    HW176431   0.705   9.271   6.757 -1.3293 -0.1476  0.1499
24808SOL    HW276432   0.654   9.141   6.817 -2.3407  0.9865  1.8220
24809SOL     OW76433   5.543   8.372   9.751  0.1308  0.2827 -0.6333
24809SOL    HW176434   5.600   8.422   9.693  1.1816  0.9677  0.9233
24809SOL    HW276435   5.508   8.437   9.812  0.9108 -0.7159  0.9425
24810SOL     OW76436   7.414   7.712   5.444 -0.2750  0.3649 -0.1622
24810SOL    HW176437   7.401   7.629   5.397  0.2526 -0.6490  1.3784
24810SOL    HW276438   7.327   7.734   5.478 -0.3303  0.2129 -0.2036
24811SOL     OW76439   2.946   5.269   1.881 -0.1465 -1.0228  0.1153
24811SOL    HW176440   2.957   5.218   1.800 -2.0851  0.5719 -1.2519
24811SOL    HW276441   2.856   5.301   1.877  0.6847  1.7762  1.2934
24812SOL     OW76442   0.690   7.120  10.462  0.0067 -0.0804  0.1599
24812SOL    HW176443   0.642   7.120  10.379 -2.4736  1.7302  1.4443
24812SOL    HW276444   0.623   7.104  10.528  1.4718  0.9285  1.9884
24813SOL     OW76445  10.331   1.089   8.484  0.4282 -0.5021 -0.0897
24813SOL    HW176446  10.295   1.065   8.569  1.6559  0.8557  0.8533
24813SOL    HW276447  10.254   1.103   8.429 -0.5190  1.2153  1.5410
24814SOL     OW76448  10.203   6.213   1.158 -0.4037 -0.2218 -0.1509
24814SOL    HW176449  10.248   6.129   1.147  0.8060  0.5921 -1.8830
24814SOL    HW276450  10.270   6.270   1.196 -0.8548  0.2654 -0.0912
24815SOL     OW76451   6.665   9.375   5.883  0.1096 -0.5999  0.0744
24815SOL    HW176452   6.636   9.288   5.859  0.5518 -0.7025 -0.1121
24815SOL    HW276453   6.586   9.421   5.910  0.0977 -1.6059  1.9305
24816SOL     OW76454   8.927   3.594   6.125  0.3403 -0.1266 -0.3269
24816SOL    HW176455   8.840   3.611   6.090  0.2041  0.7249  0.3914
24816SOL    HW276456   8.932   3.648   6.204  1.0040 -1.2097  0.4026
24817SOL     OW76457   4.267   4.429   1.151 -0.4208 -0.2438 -0.2883
24817SOL    HW176458   4.228   4.446   1.065  0.7551  0.7050 -0.6618
24817SOL    HW276459   4.318   4.508   1.171  1.1575 -1.3425  0.2489
24818SOL     OW76460   8.985   1.487   3.486  1.6377 -0.7454 -0.7186
24818SOL    HW176461   8.927   1.415   3.511  0.0581  0.8717  0.4844
24818SOL    HW276462   9.046   1.495   3.559  1.9106 -0.9378 -0.9211
24819SOL     OW76463   8.142   5.299   8.980  0.0755 -0.0945 -0.4466
24819SOL    HW176464   8.155   5.381   8.934  0.4416 -0.3018 -0.7200
24819SOL    HW276465   8.209   5.240   8.944 -0.3910 -0.6090 -0.4899
24820SOL     OW76466   2.628   1.544   9.638  0.3020  0.6433 -0.1356
24820SOL    HW176467   2.670   1.523   9.721  0.8385 -1.4513 -0.8546
24820SOL    HW276468   2.701   1.564   9.579  0.4925 -2.8101 -1.3377
24821SOL     OW76469   9.074   9.613   6.919 -0.1630 -0.1608  0.1230
24821SOL    HW176470   8.978   9.612   6.924 -0.2440  0.7238 -0.8520
24821SOL    HW276471   9.101   9.538   6.971 -1.4780 -1.7187 -1.3071
24822SOL     OW76472   8.864   4.767   6.840 -0.3166  0.5589 -0.0085
24822SOL    HW176473   8.924   4.822   6.789 -1.3668  0.7949 -1.0247
24822SOL    HW276474   8.788   4.754   6.783 -0.0351 -2.1420  0.0752
24823SOL     OW76475   2.663   2.891   0.787 -0.0566  0.3051  0.0019
24823SOL    HW176476   2.627   2.806   0.813 -2.1826  0.5341 -1.8865
24823SOL    HW276477   2.716   2.871   0.710 -0.5305  0.6441 -0.4209
24824SOL     OW76478   5.545   4.794   4.524 -0.9149  0.0838 -0.3056
24824SOL    HW176479   5.587   4.789   4.438  0.3850  2.3749  0.1063
24824SOL    HW276480   5.617   4.777   4.586 -1.2875  0.9017  0.3654
24825SOL     OW76481  10.660   8.853   6.839 -0.4905 -0.2027  0.2763
24825SOL    HW176482  10.705   8.801   6.905 -1.0416 -2.9875 -1.3934
24825SOL    HW276483  10.670   8.803   6.758 -1.9960  1.8011 -1.2576
24826SOL     OW76484   7.751   9.541   1.065  0.8599  0.8250  0.6369
24826SOL    HW176485   7.830   9.496   1.033  0.6452  0.3978  0.6972
24826SOL    HW276486   7.739   9.614   1.005 -0.6395 -1.0544 -1.5363
24827SOL     OW76487   5.183   8.406   6.621  0.4465 -0.5294  0.5156
24827SOL    HW176488   5.119   8.341   6.591 -0.1812  0.4071 -0.2522
24827SOL    HW276489   5.233   8.361   6.688 -0.2062 -1.6928  0.2570
24828SOL     OW76490   8.166   7.707   5.703  0.6079  0.0394  0.0738
24828SOL    HW176491   8.156   7.653   5.782 -2.4296  1.1544  0.5781
24828SOL    HW276492   8.132   7.652   5.633  0.7676  0.0476 -0.0108
24829SOL     OW76493   7.776  10.548   4.756 -0.1389  0.2293 -0.1697
24829SOL    HW176494   7.754  10.588   4.672 -1.9019 -0.6244 -0.1720
24829SOL    HW276495   7.872  10.542   4.756 -0.0205  1.5778 -1.4626
24830SOL     OW76496   8.319   5.836   0.673  0.0226 -0.1422  0.6251
24830SOL    HW176497   8.376   5.788   0.613  0.4259 -0.8666  1.5667
24830SOL    HW276498   8.371   5.911   0.702 -0.5006  0.7434 -0.6120
24831SOL     OW76499  10.671   1.946   1.458 -0.7023  0.0961  0.2388
24831SOL    HW176500  10.681   1.931   1.552 -0.0296 -1.3707 -0.0321
24831SOL    HW276501  10.579   1.969   1.447 -0.1372  3.6325  1.6086
24832SOL     OW76502   2.853   6.692   4.678  0.1374 -0.0906 -0.3275
24832SOL    HW176503   2.777   6.633   4.686 -1.1752  1.3194 -1.7692
24832SOL    HW276504   2.874   6.715   4.768 -1.1165 -0.5548  0.1117
24833SOL     OW76505   3.831   3.284   3.353  0.2153 -0.2081 -0.3988
24833SOL    HW176506   3.878   3.301   3.271 -0.5933  0.3974 -0.7444
24833SOL    HW276507   3.848   3.362   3.407  0.5545 -0.5020 -0.0777
24834SOL     OW76508   5.696  10.230   8.554  0.0786 -0.4342  0.0241
24834SOL    HW176509   5.775  10.207   8.601 -0.3681 -0.6662  0.6718
24834SOL    HW276510   5.624  10.202   8.611 -0.4733 -0.5923 -0.7236
24835SOL     OW76511   2.316   8.283   1.208  0.0599  0.1877  0.1386
24835SOL    HW176512   2.228   8.319   1.219  0.4765  2.0142 -1.8219
24835SOL    HW276513   2.368   8.356   1.174  1.7505 -1.4781 -1.0955
24836SOL     OW76514   2.744   5.372  10.318 -0.3351  0.2903  0.6266
24836SOL    HW176515   2.742   5.380  10.223 -1.6732  2.7611  0.7808
24836SOL    HW276516   2.781   5.455  10.349  1.6202 -1.0882  2.2749
24837SOL     OW76517   3.197  10.581  10.644 -0.1287  0.5856  0.0889
24837SOL    HW176518   3.251  10.505  10.624  1.2626  1.2111  1.2417
24837SOL    HW276519   3.234  10.652  10.592 -0.8690  0.6865 -0.3212
24838SOL     OW76520   7.621   2.406   1.039 -0.7435  0.4164 -0.4204
24838SOL    HW176521   7.598   2.390   0.948 -1.3388 -2.1519  0.1009
24838SOL    HW276522   7.663   2.325   1.068 -0.0601  1.3788  1.4295
24839SOL     OW76523  11.055   4.730   1.702  0.3049  0.1920  0.5665
24839SOL    HW176524  11.054   4.772   1.616  3.3070  0.8574  0.7533
24839SOL    HW276525  11.054   4.636   1.683 -0.6407  0.3127 -0.0789
24840SOL     OW76526   4.031   0.762   7.592 -0.0534 -0.1963  0.7280
24840SOL    HW176527   4.083   0.681   7.590  1.4638  0.7287  1.1804
24840SOL    HW276528   4.092   0.831   7.566 -1.7457  0.6354 -1.4036
24841SOL     OW76529   9.381   3.852   8.018 -0.4204 -0.1887  0.0349
24841SOL    HW176530   9.471   3.821   8.017 -0.2029  0.4363 -0.4016
24841SOL    HW276531   9.385   3.939   7.978 -1.6338 -1.2745 -2.7034
24842SOL     OW76532   4.450   9.439  10.595 -0.3637 -0.6389 -0.3773
24842SOL    HW176533   4.401   9.456  10.514 -0.4167 -0.6547 -0.3485
24842SOL    HW276534   4.382   9.426  10.661 -0.3280 -1.4052 -0.4881
24843SOL     OW76535   4.637   8.190   0.548  1.5122 -0.2146 -0.1446
24843SOL    HW176536   4.631   8.122   0.615 -0.5010 -0.0854 -0.1166
24843SOL    HW276537   4.639   8.272   0.596  0.7787 -0.1494 -0.2149
24844SOL     OW76538   3.544   6.329   5.491  0.5206 -0.6670 -0.2506
24844SOL    HW176539   3.520   6.396   5.554  1.2147 -3.1569  2.8864
24844SOL    HW276540   3.630   6.357   5.458  0.8838 -0.0806  1.1291
24845SOL     OW76541  10.086   8.063   8.975 -0.4501 -0.4636  0.2084
24845SOL    HW176542  10.045   8.067   9.062  0.3032  0.1652  0.5422
24845SOL    HW276543  10.040   8.130   8.924 -1.0499 -0.9882  0.0351
24846SOL     OW76544   0.184   6.071   9.675  0.6254  0.4198 -0.1579
24846SOL    HW176545   0.218   6.134   9.738  2.6934 -0.8613  0.1082
24846SOL    HW276546   0.238   6.083   9.597 -0.2966  0.3210 -0.8366
24847SOL     OW76547   2.749   8.854   5.288  0.4141 -0.2403  0.4723
24847SOL    HW176548   2.690   8.837   5.362  1.5031  0.5358  1.5576
24847SOL    HW276549   2.832   8.876   5.329  0.4169  2.6805 -0.9159
24848SOL     OW76550   5.337   0.211   2.242  0.0990 -0.1778  0.4164
24848SOL    HW176551   5.412   0.158   2.213 -0.3595 -1.1991  1.0574
24848SOL    HW276552   5.357   0.235   2.332 -0.9600 -1.6745  1.0958
24849SOL     OW76553   4.746  10.599   8.340 -0.9044 -0.1151  0.5812
24849SOL    HW176554   4.752  10.694   8.329  0.0263 -0.3825 -1.7173
24849SOL    HW276555   4.772  10.563   8.255  0.1653 -2.4655  1.7989
24850SOL     OW76556   0.945   4.994   6.375  0.3250  0.3998 -0.0868
24850SOL    HW176557   0.879   4.927   6.359  3.2208 -2.5323 -0.9130
24850SOL    HW276558   0.954   5.039   6.291 -0.8719  1.1684  0.1676
24851SOL     OW76559   9.524   4.120   0.803  0.1294  1.1485  0.0260
24851SOL    HW176560   9.567   4.090   0.883  0.3027  0.2953 -0.3785
24851SOL    HW276561   9.431   4.117   0.825  0.2223  2.4630  0.7158
24852SOL     OW76562   6.421   1.637   0.681 -0.3148  0.4743 -0.2294
24852SOL    HW176563   6.416   1.549   0.717  2.0157  0.0901 -0.6824
24852SOL    HW276564   6.421   1.694   0.758  2.3443 -0.2144  0.3901
24853SOL     OW76565   6.386   6.518   2.653 -0.5779  0.1498 -0.2628
24853SOL    HW176566   6.359   6.508   2.562 -0.0870  0.8897 -0.5007
24853SOL    HW276567   6.481   6.506   2.651 -0.3814  1.5205 -0.0788
24854SOL     OW76568   3.451   9.349   5.895 -0.0702  0.3127 -0.3536
24854SOL    HW176569   3.458   9.264   5.938 -1.2994  0.9326  1.1688
24854SOL    HW276570   3.542   9.379   5.888  0.3392 -0.8991 -0.4736
24855SOL     OW76571   5.522   1.531   4.930  0.1292 -0.4439 -0.0539
24855SOL    HW176572   5.488   1.444   4.948  0.6490 -0.9104 -1.2753
24855SOL    HW276573   5.534   1.534   4.835 -0.4539  1.1660 -0.1083
24856SOL     OW76574   9.373   0.497   3.771 -0.1112  0.1417  0.1677
24856SOL    HW176575   9.462   0.528   3.789  0.7772 -0.5698 -2.5262
24856SOL    HW276576   9.328   0.574   3.736  0.1766 -0.0352 -0.6170
24857SOL     OW76577   2.425   4.345   4.365 -0.4470 -0.0145  0.3738
24857SOL    HW176578   2.361   4.322   4.298  2.6029 -1.0394 -2.4350
24857SOL    HW276579   2.432   4.265   4.419 -0.2100 -0.5752 -0.4688
24858SOL     OW76580  10.147   2.921   1.990 -0.3246 -0.5866 -0.1672
24858SOL    HW176581  10.175   2.912   1.899  1.8211 -0.7041  0.4428
24858SOL    HW276582  10.195   2.852   2.036  2.6179  2.5175  1.8358
24859SOL     OW76583   1.213   0.380   2.763 -0.8817 -0.0562 -0.1487
24859SOL    HW176584   1.256   0.456   2.802 -2.2578  0.5080  0.2938
24859SOL    HW276585   1.286   0.325   2.732  0.1444  1.9406 -1.4980
24860SOL     OW76586  10.503   3.047   5.336  0.0565  0.2885  0.0141
24860SOL    HW176587  10.473   2.960   5.310  0.5381  0.9155 -2.9485
24860SOL    HW276588  10.443   3.107   5.293 -0.3706  1.4886  2.1465
24861SOL     OW76589   1.101   4.861   2.045 -0.2647  0.1313  0.2893
24861SOL    HW176590   1.096   4.775   2.088  1.8437  0.2234  0.8338
24861SOL    HW276591   1.036   4.914   2.091  0.5754 -0.3182  2.1284
24862SOL     OW76592  10.625   3.856   0.055 -0.4940  0.7671  0.3716
24862SOL    HW176593  10.573   3.867  -0.025 -0.6959  1.0095  0.5353
24862SOL    HW276594  10.653   3.765   0.053 -1.3876  0.4867  0.5586
24863SOL     OW76595   0.304   4.154   5.480  0.3634 -0.0105  0.1043
24863SOL    HW176596   0.224   4.198   5.451 -0.4579 -1.0418  0.7530
24863SOL    HW276597   0.337   4.110   5.402 -0.9716 -1.4691  0.3062
24864SOL     OW76598   7.942   2.766  10.145  0.0797 -0.2583 -0.4760
24864SOL    HW176599   8.025   2.765  10.098  1.5558  0.1727  2.0156
24864SOL    HW276600   7.959   2.719  10.226 -2.1782 -0.3074  0.0366
24865SOL     OW76601   2.563   9.994   2.548  0.4333  0.5688 -0.5556
24865SOL    HW176602   2.622  10.004   2.473 -0.0812 -0.2104 -1.0808
24865SOL    HW276603   2.608   9.932   2.605 -0.0735 -0.3807 -1.1732
24866SOL     OW76604   7.305   3.900  10.572  0.4230  0.1868  0.2733
24866SOL    HW176605   7.315   3.805  10.576  1.5060  0.2328 -0.7404
24866SOL    HW276606   7.235   3.919  10.634 -1.0276 -1.4657 -0.7560
24867SOL     OW76607   3.828   0.847   0.308  0.3124 -1.2945  0.1363
24867SOL    HW176608   3.923   0.845   0.313  0.2774 -3.1640  4.0232
24867SOL    HW276609   3.799   0.841   0.399 -3.5921  1.2168 -0.6814
24868SOL     OW76610   3.040   1.473   9.773  0.1401 -0.1716 -0.2959
24868SOL    HW176611   2.974   1.436   9.714 -1.1575 -0.5371  1.2896
24868SOL    HW276612   3.011   1.563   9.787 -0.7018 -0.6307  1.2241
24869SOL     OW76613  10.004   7.539   4.368 -0.0336  0.0187 -0.2813
24869SOL    HW176614   9.916   7.503   4.379 -0.5056  1.3904  0.7879
24869SOL    HW276615  10.062   7.470   4.399 -0.6406 -1.2191 -1.7364
24870SOL     OW76616   8.408   5.789   4.818  0.5745  0.4741 -0.3148
24870SOL    HW176617   8.348   5.736   4.765  1.5367 -0.1872 -0.7829
24870SOL    HW276618   8.416   5.871   4.770  0.4175  0.3763 -0.5089
24871SOL     OW76619   7.304  10.762   8.968  0.5742  0.0053 -0.7606
24871SOL    HW176620   7.221  10.800   8.938  0.9743  0.3284 -1.4840
24871SOL    HW276621   7.359  10.761   8.890  1.2049 -0.3427 -0.3165
24872SOL     OW76622   1.820   9.559   2.812  0.6509 -0.5975 -0.2763
24872SOL    HW176623   1.759   9.633   2.809 -0.0831 -1.1335  0.5335
24872SOL    HW276624   1.872   9.573   2.891  2.7115  0.6660 -1.7628
24873SOL     OW76625   4.518   3.766   4.421 -0.3348 -0.8855 -0.0148
24873SOL    HW176626   4.599   3.786   4.468 -0.3722 -0.5124 -0.1116
24873SOL    HW276627   4.546   3.747   4.332 -0.2459 -1.7514  0.1886
24874SOL     OW76628   5.341   7.573   1.474  0.0899 -0.1279 -0.1272
24874SOL    HW176629   5.293   7.628   1.412 -2.0121 -3.0472 -1.3563
24874SOL    HW276630   5.433   7.581   1.449 -0.4014  1.0679 -1.6779
24875SOL     OW76631   7.675   0.247   7.564 -0.2287 -1.4102 -0.5908
24875SOL    HW176632   7.664   0.216   7.654 -1.3069 -0.5689 -0.4084
24875SOL    HW276633   7.604   0.310   7.552 -0.4963 -1.9695 -2.2416
24876SOL     OW76634   0.871   7.233  10.726 -0.5070 -0.0933 -0.2837
24876SOL    HW176635   0.828   7.172  10.665 -3.5142  1.5753 -0.0481
24876SOL    HW276636   0.843   7.203  10.812  0.3651 -0.0459  0.0185
24877SOL     OW76637  10.112   3.572   5.689  0.3237 -0.2750 -0.2871
24877SOL    HW176638  10.130   3.666   5.681 -1.1685 -0.0982 -1.9918
24877SOL    HW276639  10.111   3.556   5.784  1.6433  1.1840  0.0193
24878SOL     OW76640   3.861   9.015   6.495 -0.5801  0.7472  0.4526
24878SOL    HW176641   3.854   9.037   6.402 -0.5098  0.6654  0.4280
24878SOL    HW276642   3.917   8.938   6.497  0.9117  1.8149  0.6982
24879SOL     OW76643   7.263  10.469   2.056 -0.1614 -0.1158 -0.0548
24879SOL    HW176644   7.181  10.475   2.105 -0.1137  0.1722 -0.0108
24879SOL    HW276645   7.264  10.379   2.023 -0.5598 -0.0815 -0.1686
24880SOL     OW76646   6.322   5.495   0.671  0.1946 -0.4040  1.1381
24880SOL    HW176647   6.385   5.429   0.698  1.0053 -0.3239 -0.4544
24880SOL    HW276648   6.337   5.506   0.577 -2.9152 -1.1806  0.4312
24881SOL     OW76649   6.544   9.234   5.503  0.0476 -0.3871  0.8305
24881SOL    HW176650   6.633   9.258   5.527 -0.9359  0.7710  3.9624
24881SOL    HW276651   6.537   9.141   5.528  0.8460 -1.0563 -1.2485
24882SOL     OW76652   1.316  10.224   8.372  0.2708 -0.0036  0.4073
24882SOL    HW176653   1.221  10.221   8.363  0.3417 -1.6278 -0.1842
24882SOL    HW276654   1.331  10.262   8.458 -0.9337 -0.0477  0.6540
24883SOL     OW76655   1.136  10.064   4.293  0.1778  0.2935 -0.0546
24883SOL    HW176656   1.171  10.048   4.381  1.1024 -0.4586 -0.5554
24883SOL    HW276657   1.097   9.981   4.267 -1.6103  0.9717  0.2929
24884SOL     OW76658  10.012   8.386  11.055 -0.3117 -0.3957 -0.6601
24884SOL    HW176659   9.998   8.457  10.993 -1.2438 -1.5666 -1.8546
24884SOL    HW276660   9.927   8.371  11.095  0.1993  0.0961  0.6666
24885SOL     OW76661   3.307   2.744  10.564 -0.2697 -0.2834 -0.7481
24885SOL    HW176662   3.268   2.814  10.617  0.2306  1.1734 -2.2345
24885SOL    HW276663   3.242   2.673  10.567 -1.2881  0.6453 -0.0984
24886SOL     OW76664   0.974   9.097   9.655 -0.2924 -0.0238 -0.3602
24886SOL    HW176665   0.917   9.023   9.675 -0.7862  0.4099 -0.1444
24886SOL    HW276666   1.024   9.111   9.736 -2.0729  1.5357  0.5585
24887SOL     OW76667  10.886   4.549   1.926  0.3980  0.6009  0.3591
24887SOL    HW176668  10.955   4.534   1.992  0.7431 -1.6657 -0.4325
24887SOL    HW276669  10.925   4.519   1.844 -0.9228  0.9944 -0.4350
24888SOL     OW76670   4.519  10.432   3.017 -0.1618  0.1147 -0.5769
24888SOL    HW176671   4.535  10.494   2.946  0.0680  0.7125 -0.0166
24888SOL    HW276672   4.544  10.480   3.097  3.3660 -1.8188 -0.3236
24889SOL     OW76673   9.404   0.193   7.735  0.0786 -0.1684 -0.7607
24889SOL    HW176674   9.446   0.147   7.808 -0.5100  1.6522  0.7804
24889SOL    HW276675   9.471   0.254   7.704 -0.3918  0.5895 -0.3000
24890SOL     OW76676   5.465   2.067   0.488  0.1069  0.7638 -0.0796
24890SOL    HW176677   5.405   2.141   0.481 -0.8904  0.1122  1.2207
24890SOL    HW276678   5.411   1.991   0.471  0.4857  0.1446  1.3586
24891SOL     OW76679   3.413   6.035   7.386 -0.2416 -0.2437  0.2318
24891SOL    HW176680   3.498   5.991   7.383  0.8243  1.7629 -1.0681
24891SOL    HW276681   3.361   5.991   7.319 -0.2094 -1.3976  0.9366
24892SOL     OW76682  10.778   0.178   2.134 -0.7229  0.0089 -0.3543
24892SOL    HW176683  10.717   0.107   2.156 -0.6419 -0.2721 -1.0115
24892SOL    HW276684  10.733   0.258   2.162 -1.2125 -0.2291 -0.4501
24893SOL     OW76685   0.732   2.164   2.716 -0.2924  0.0387  0.2803
24893SOL    HW176686   0.785   2.237   2.746 -0.9723  0.2526  1.0062
24893SOL    HW276687   0.645   2.201   2.703 -0.8079 -0.7600  1.3011
24894SOL     OW76688   8.915   4.714   6.028 -0.0306  0.7600  0.4179
24894SOL    HW176689   8.947   4.625   6.040 -0.2229  0.9941  3.2342
24894SOL    HW276690   8.904   4.723   5.933 -0.0170 -2.1919  0.0547
24895SOL     OW76691   5.139  10.549   0.647  0.2544  0.1651 -0.0489
24895SOL    HW176692   5.071  10.553   0.580  2.6371 -2.1691 -2.8875
24895SOL    HW276693   5.110  10.611   0.715 -3.3245  1.1684 -2.2414
24896SOL     OW76694   6.506  10.268   7.298 -0.3674  0.8890 -0.1976
24896SOL    HW176695   6.556  10.345   7.327  2.0947  0.2261 -2.3284
24896SOL    HW276696   6.522  10.202   7.365 -1.8124  1.9005  1.2152
24897SOL     OW76697   5.704   0.737   7.137  1.1469  0.0859 -0.5913
24897SOL    HW176698   5.629   0.768   7.188  0.5961 -2.4206  0.2762
24897SOL    HW276699   5.767   0.809   7.142 -0.6289  1.7184 -0.1826
24898SOL     OW76700   2.270   6.712   0.786  0.0933  0.1009  0.1732
24898SOL    HW176701   2.209   6.718   0.713 -0.4139  2.4365  0.7223
24898SOL    HW276702   2.248   6.628   0.827  0.5481 -1.3869 -2.4025
24899SOL     OW76703   1.831   9.306   2.479 -0.0573  0.2124 -0.2447
24899SOL    HW176704   1.865   9.343   2.398  1.2036  0.6946  0.4789
24899SOL    HW276705   1.852   9.371   2.546 -3.0979  0.8966  0.1808
24900SOL     OW76706   0.140   7.004   8.789  0.0902 -0.1058 -0.0338
24900SOL    HW176707   0.132   6.943   8.862  1.3891 -0.2695 -0.0015
24900SOL    HW276708   0.062   6.989   8.736 -0.6930 -0.2275  1.1335
24901SOL     OW76709   5.071   2.027  10.972  0.3772 -0.5872  0.0162
24901SOL    HW176710   5.021   2.108  10.972 -0.9432 -1.3027 -2.4643
24901SOL    HW276711   5.021   1.968  11.029  0.6068 -0.1188  0.7252
24902SOL     OW76712   5.333   4.260   0.561 -0.0288 -0.3190 -0.3309
24902SOL    HW176713   5.375   4.345   0.549 -1.2375  0.9837  3.3003
24902SOL    HW276714   5.402   4.204   0.597 -0.3987  0.8911  2.5729
24903SOL     OW76715   5.526   8.219   5.757 -0.2840  0.3339 -0.0270
24903SOL    HW176716   5.489   8.190   5.840  0.7192 -0.6947  0.0768
24903SOL    HW276717   5.542   8.139   5.708  2.2405  0.6581  0.1178
24904SOL     OW76718   2.464   5.222   8.862  0.4576 -0.1177 -0.5323
24904SOL    HW176719   2.495   5.194   8.776  1.7235  0.9394 -0.4499
24904SOL    HW276720   2.457   5.317   8.855 -0.7939 -0.1411  0.1245
24905SOL     OW76721   2.601   3.953   7.724 -0.1185  0.5402 -0.1837
24905SOL    HW176722   2.539   3.999   7.668  0.2032  0.6652 -0.4417
24905SOL    HW276723   2.552   3.879   7.760 -0.0660 -0.1158 -1.4039
24906SOL     OW76724   0.686   7.704   4.127 -0.0602 -0.1280 -0.0712
24906SOL    HW176725   0.776   7.674   4.113 -0.3978 -0.8167 -0.8735
24906SOL    HW276726   0.682   7.725   4.220  1.6564  2.3986 -0.4693
24907SOL     OW76727  11.029   5.587   0.047 -0.9995  0.9271  0.2265
24907SOL    HW176728  10.954   5.600  -0.011  0.4985 -1.1661 -2.3738
24907SOL    HW276729  11.024   5.495   0.072 -0.3382  1.2494  1.6515
24908SOL     OW76730   2.633   7.369   6.021  0.3571  0.4666  0.0247
24908SOL    HW176731   2.631   7.307   6.095 -1.7811  0.6850  0.2236
24908SOL    HW276732   2.544   7.404   6.018  1.1589  2.5429 -0.9395
24909SOL     OW76733   8.374   7.013   7.385  0.1369  0.0551 -0.8821
24909SOL    HW176734   8.390   7.057   7.302  1.7884 -0.8900 -1.1175
24909SOL    HW276735   8.404   6.923   7.371 -3.6239 -1.4142 -0.5793
24910SOL     OW76736   8.558   4.320   1.282  0.0866  0.0896 -0.0723
24910SOL    HW176737   8.465   4.317   1.307  0.8416 -1.5319  3.0630
24910SOL    HW276738   8.567   4.252   1.215 -0.7997 -0.5099  0.4006
24911SOL     OW76739   0.321   6.009   8.358  0.2239 -0.5925  0.5453
24911SOL    HW176740   0.253   6.057   8.312  1.6435 -0.7574 -1.8601
24911SOL    HW276741   0.331   5.927   8.310  1.6777 -0.8522  1.2146
24912SOL     OW76742   3.695  10.430   2.754  0.3057 -0.0492  0.6200
24912SOL    HW176743   3.706  10.365   2.684 -0.5761  0.5437 -0.0977
24912SOL    HW276744   3.681  10.378   2.833  2.0471 -0.7408  0.5049
24913SOL     OW76745   0.914   9.589   1.584  0.2240 -0.1649 -0.9084
24913SOL    HW176746   0.842   9.652   1.584  1.4705  1.3204 -1.9208
24913SOL    HW276747   0.973   9.620   1.653 -0.4276 -1.8359  0.4778
24914SOL     OW76748   2.688   5.236   3.373  0.0552  0.0307  0.4507
24914SOL    HW176749   2.767   5.279   3.341 -1.2519  2.0425 -0.2792
24914SOL    HW276750   2.617   5.292   3.344 -1.5283 -0.4517  3.0609
24915SOL     OW76751  10.242   8.772   3.957  0.4204 -0.3269  0.3157
24915SOL    HW176752  10.257   8.679   3.974 -0.3796 -0.6609 -0.6938
24915SOL    HW276753  10.152   8.788   3.986  0.8925  0.3948  1.4397
24916SOL     OW76754   1.012   2.754   7.975 -0.4693 -0.1130 -0.5622
24916SOL    HW176755   1.069   2.688   8.012 -1.1489 -0.1691  0.4417
24916SOL    HW276756   1.070   2.812   7.925  0.3393 -0.5838 -0.1792
24917SOL     OW76757   5.975  10.951  10.520  0.3452  0.2473  0.4515
24917SOL    HW176758   5.880  10.955  10.510  0.1805 -1.8357  0.7627
24917SOL    HW276759   6.010  10.983  10.436 -0.6099  1.0601  0.3507
24918SOL     OW76760   1.574   4.214   0.663 -0.0444 -0.3850  0.3888
24918SOL    HW176761   1.527   4.297   0.665  0.4554 -0.1009  0.9807
24918SOL    HW276762   1.506   4.148   0.675 -0.4432 -0.0651 -0.0538
24919SOL     OW76763   9.474  11.003   0.694  0.0694 -0.3431  0.1002
24919SOL    HW176764   9.550  10.944   0.698  1.2773  1.1834  0.7814
24919SOL    HW276765   9.508  11.083   0.653 -1.6691 -0.2901 -1.3380
24920SOL     OW76766   7.301   8.371   5.523 -0.0972 -0.5379 -0.7422
24920SOL    HW176767   7.376   8.390   5.466 -1.2083  1.0071 -1.7860
24920SOL    HW276768   7.297   8.446   5.582  1.2282 -2.2689  1.6897
24921SOL     OW76769   3.372   0.224   3.548  1.0460  0.0257 -0.1516
24921SOL    HW176770   3.350   0.313   3.523  0.5921 -0.4525 -1.5495
24921SOL    HW276771   3.467   0.224   3.556  1.0332  0.6673  0.0562
24922SOL     OW76772   4.099   7.734   6.953 -0.1852 -0.9997 -0.1627
24922SOL    HW176773   4.160   7.677   7.001  0.1358  1.2752  2.3438
24922SOL    HW276774   4.146   7.816   6.942 -2.1988  0.3410  0.5283
24923SOL     OW76775   2.504   7.585   6.461 -0.6033  0.0368  0.0632
24923SOL    HW176776   2.476   7.545   6.544  0.3916 -1.1037 -0.1239
24923SOL    HW276777   2.559   7.519   6.420 -0.5548  0.8446 -1.2251
24924SOL     OW76778   2.800  10.820   0.234  0.0047 -0.1486 -0.3725
24924SOL    HW176779   2.781  10.905   0.271  2.0617  0.8312 -1.3905
24924SOL    HW276780   2.790  10.832   0.139 -0.0861 -1.1516 -0.5053
24925SOL     OW76781   0.801   5.636   7.463  0.7603 -0.0880 -0.9747
24925SOL    HW176782   0.881   5.666   7.420  0.1689 -0.6805 -2.5670
24925SOL    HW276783   0.733   5.642   7.395 -0.1278 -1.5031 -0.2753
24926SOL     OW76784   5.923   5.850   7.198  0.7861  0.2728 -0.0743
24926SOL    HW176785   5.847   5.798   7.174 -0.3951  0.6955  2.3932
24926SOL    HW276786   5.996   5.788   7.202 -0.0813 -0.7319  0.4634
24927SOL     OW76787   2.198   0.564   0.507 -0.2733 -0.9224 -0.9401
24927SOL    HW176788   2.255   0.496   0.543  0.8345  0.3732 -0.1143
24927SOL    HW276789   2.242   0.592   0.426  0.6417  0.4762 -0.0092
24928SOL     OW76790   6.408   7.734   3.345 -0.1125 -0.2990  0.2181
24928SOL    HW176791   6.336   7.796   3.333 -0.3988 -1.0540 -2.4373
24928SOL    HW276792   6.483   7.790   3.366 -0.5160  0.9125 -1.3675
24929SOL     OW76793  10.938   9.863   5.817  0.3970  0.3008 -0.0804
24929SOL    HW176794  10.976   9.925   5.879  2.1793 -0.7078 -0.0828
24929SOL    HW276795  10.990   9.875   5.737  0.3420 -0.7200 -0.2889
24930SOL     OW76796  10.369   5.017   4.480 -0.0925 -0.2691 -0.1666
24930SOL    HW176797  10.434   4.998   4.548 -0.2624  1.1592  0.4136
24930SOL    HW276798  10.392   4.958   4.408  0.4854 -1.3450  0.8681
24931SOL     OW76799   3.682   3.034   0.884 -1.3841 -0.1484 -0.8363
24931SOL    HW176800   3.694   3.108   0.944  0.0843 -1.1634  0.1813
24931SOL    HW276801   3.673   2.958   0.941 -1.6785 -0.9248 -1.8856
24932SOL     OW76802   7.235   7.426   9.302 -0.2805 -0.5555 -0.6683
24932SOL    HW176803   7.307   7.395   9.249 -0.1652  0.4740 -1.1234
24932SOL    HW276804   7.157   7.386   9.263  0.0958 -2.5304  0.4624
24933SOL     OW76805   3.516   2.071   2.523  0.3637 -0.3711 -0.3778
24933SOL    HW176806   3.515   2.131   2.597 -1.8927 -0.9673  0.1548
24933SOL    HW276807   3.587   2.010   2.543  2.0492  1.4471 -0.4538
24934SOL     OW76808   0.160   6.541   5.578 -0.4845  0.6869 -0.1517
24934SOL    HW176809   0.168   6.490   5.659 -1.4051 -0.1653 -0.5727
24934SOL    HW276810   0.214   6.619   5.593  1.2689 -0.5661  0.3722
24935SOL     OW76811   3.067   4.835   1.128  0.6281  0.0546  0.4411
24935SOL    HW176812   3.121   4.782   1.188 -0.0766  0.9173  1.8909
24935SOL    HW276813   3.070   4.787   1.045 -1.4130 -3.3290  2.0940
24936SOL     OW76814   5.231   4.652   4.352 -0.4355 -0.3561 -0.3856
24936SOL    HW176815   5.213   4.561   4.372 -0.1223 -0.3728 -0.1704
24936SOL    HW276816   5.279   4.650   4.269  0.6160 -0.4765  0.2063
24937SOL     OW76817  10.986   8.600   0.261  0.2872 -0.1384 -0.0671
24937SOL    HW176818  11.045   8.592   0.336 -0.3715  0.7802  0.5702
24937SOL    HW276819  10.909   8.549   0.285 -0.4162  1.0949  0.4133
24938SOL     OW76820  10.797   4.952  10.893 -0.3516  0.5931  0.1375
24938SOL    HW176821  10.752   4.962  10.978  2.7387 -2.1997  2.3494
24938SOL    HW276822  10.738   4.897  10.842 -1.1629  0.1878  1.4485
24939SOL     OW76823   2.393   6.565   8.640 -0.3500  0.4289 -0.1859
24939SOL    HW176824   2.474   6.564   8.589 -0.0579 -0.6215  0.2693
24939SOL    HW276825   2.343   6.491   8.607 -1.4227  1.4339 -0.8909
24940SOL     OW76826   8.502   8.042   8.847  0.4090  0.1063 -0.5543
24940SOL    HW176827   8.540   8.106   8.786  1.2795  1.7541  1.5944
24940SOL    HW276828   8.561   8.042   8.922 -0.9206 -1.4252  0.5649
24941SOL     OW76829   4.506   2.243   6.902 -0.0949  0.4723  0.7401
24941SOL    HW176830   4.592   2.219   6.936  0.0478 -1.5013 -0.8429
24941SOL    HW276831   4.510   2.224   6.809 -3.0140 -2.2053  0.9891
24942SOL     OW76832   9.773   8.791   4.263 -0.8189  0.5804  0.4229
24942SOL    HW176833   9.821   8.769   4.342  0.0347  0.7431 -0.0369
24942SOL    HW276834   9.696   8.734   4.264 -0.0003 -0.5467  0.5744
24943SOL     OW76835   9.888   2.440   5.928 -0.5193  0.0457 -0.1228
24943SOL    HW176836   9.804   2.481   5.947 -1.3430 -1.3330 -0.6446
24943SOL    HW276837   9.949   2.513   5.917 -1.6474  1.0670  0.2368
24944SOL     OW76838   6.623   5.145   4.546  0.2437 -0.4600  0.1541
24944SOL    HW176839   6.606   5.151   4.640  1.2233  0.1173  0.3027
24944SOL    HW276840   6.714   5.119   4.538  0.0313 -1.0202 -0.6450
24945SOL     OW76841   7.563   7.148   5.296  0.3650  0.1546  0.1706
24945SOL    HW176842   7.589   7.056   5.295  2.1357  0.6331  0.1235
24945SOL    HW276843   7.543   7.168   5.204 -2.7224 -0.8382  0.4934
24946SOL     OW76844   7.475   2.150  10.479 -0.0905  0.1195  0.3167
24946SOL    HW176845   7.476   2.116  10.569  0.3485  0.0802  0.2996
24946SOL    HW276846   7.566   2.172  10.461  0.4841 -3.0318 -1.3260
24947SOL     OW76847   8.817   0.872   1.218  0.2539  0.4100  0.1702
24947SOL    HW176848   8.879   0.940   1.192 -0.1575  1.2710  1.4107
24947SOL    HW276849   8.750   0.873   1.149  1.4938 -0.4396 -1.1147
24948SOL     OW76850   4.954  10.808   8.033  0.4896 -0.2927 -0.1083
24948SOL    HW176851   4.891  10.737   8.024  0.4357 -0.2645  0.0421
24948SOL    HW276852   4.922  10.876   7.974  0.4250 -0.3096 -0.0921
24949SOL     OW76853   3.686   2.113   3.283 -0.1029 -0.2693 -0.2117
24949SOL    HW176854   3.745   2.175   3.241 -0.7074  0.4197 -0.0681
24949SOL    HW276855   3.643   2.164   3.352 -2.2459 -0.2000 -1.4956
24950SOL     OW76856  10.866   9.337   0.671 -0.0492  0.1593  0.1964
24950SOL    HW176857  10.865   9.345   0.767  1.8185  0.8069  0.2084
24950SOL    HW276858  10.842   9.424   0.640 -0.7995 -0.0908  0.0617
24951SOL     OW76859   2.384   4.471  10.797 -0.2801  0.6552  0.2335
24951SOL    HW176860   2.392   4.389  10.749 -1.9674  0.6620 -0.1165
24951SOL    HW276861   2.370   4.444  10.888 -0.2475  0.5691  0.2135
24952SOL     OW76862   3.492   5.393   1.228 -0.0705  0.5775  0.1388
24952SOL    HW176863   3.541   5.349   1.298  0.2280 -1.3564 -1.1941
24952SOL    HW276864   3.550   5.463   1.198  1.0176 -0.3462  0.0014
24953SOL     OW76865   9.333   7.470   6.612 -0.2214 -0.3947 -0.0048
24953SOL    HW176866   9.317   7.551   6.660  0.1917 -1.0738  1.3315
24953SOL    HW276867   9.325   7.401   6.678  2.3153 -1.2235 -0.4517
24954SOL     OW76868   1.039   9.764   9.796 -0.2684  0.1652 -0.6097
24954SOL    HW176869   0.979   9.755   9.721 -1.6722 -1.2521  0.6222
24954SOL    HW276870   0.992   9.820   9.857  1.3631  2.2993 -1.1900
24955SOL     OW76871   6.216   2.986   6.014  0.4834  0.3046 -0.1102
24955SOL    HW176872   6.304   3.020   5.997  0.6877 -0.1186  0.0872
24955SOL    HW276873   6.165   3.063   6.040  0.7585  0.5759 -0.3635
24956SOL     OW76874   9.685  10.255   2.090 -0.2361 -0.5530  0.4099
24956SOL    HW176875   9.678  10.209   2.174  1.0336 -1.1024  0.2373
24956SOL    HW276876   9.767  10.224   2.053 -0.9413 -0.5844 -1.2117
24957SOL     OW76877   7.572   2.394   2.878 -0.0044  0.4141 -0.6322
24957SOL    HW176878   7.496   2.442   2.912 -0.7027  0.3964 -2.1238
24957SOL    HW276879   7.589   2.433   2.792  1.1006 -0.2178 -0.7172
24958SOL     OW76880   3.425   4.200   7.794 -0.0609 -0.6203  0.4567
24958SOL    HW176881   3.420   4.173   7.702  0.8830 -0.5917  0.3915
24958SOL    HW276882   3.431   4.117   7.843 -3.3611 -0.8402  0.7615
24959SOL     OW76883   9.236   0.439   8.145  0.7074 -0.5190 -0.3089
24959SOL    HW176884   9.147   0.407   8.162  0.6314 -0.4844 -0.6337
24959SOL    HW276885   9.241   0.448   8.050  0.9334 -0.1568 -0.2674
24960SOL     OW76886   5.482   2.262   9.153  0.2563 -0.0880 -0.2787
24960SOL    HW176887   5.394   2.225   9.163  0.3069 -0.7262 -1.8402
24960SOL    HW276888   5.468   2.342   9.102  0.3785  0.9497  1.2731
24961SOL     OW76889   8.103   0.281   7.308 -0.0717  0.4277 -0.3412
24961SOL    HW176890   8.141   0.230   7.237 -0.7847  2.2548 -2.1166
24961SOL    HW276891   8.068   0.215   7.369 -0.4473 -1.2112 -2.2436
24962SOL     OW76892   2.499   2.835   1.485 -0.2718 -0.1755 -0.2752
24962SOL    HW176893   2.594   2.845   1.486 -0.2628 -0.2799  0.7058
24962SOL    HW276894   2.472   2.851   1.575 -0.9997 -1.8541 -0.1524
24963SOL     OW76895   6.760   9.782   9.764  0.6313 -0.0535 -0.2454
24963SOL    HW176896   6.694   9.714   9.775  0.8779 -0.8973 -3.2031
24963SOL    HW276897   6.711   9.864   9.762 -0.1241 -0.5059 -0.5150
24964SOL     OW76898   0.115   6.511   7.581  0.0851 -0.3944 -0.5181
24964SOL    HW176899   0.205   6.537   7.564 -0.4882  0.8033 -1.9428
24964SOL    HW276900   0.104   6.521   7.676  1.8147 -1.8853 -0.1255
24965SOL     OW76901   4.788   8.593   9.843 -0.0476 -0.2933 -0.5886
24965SOL    HW176902   4.709   8.647   9.839  0.3894  0.4410  0.1437
24965SOL    HW276903   4.808   8.588   9.937  1.6853  0.9467 -0.8319
24966SOL     OW76904   2.792   6.346   8.653 -0.0170  0.5845  0.2848
24966SOL    HW176905   2.702   6.335   8.685 -0.1435  1.2748  0.1949
24966SOL    HW276906   2.841   6.273   8.691 -0.7024 -0.0281  0.0093
24967SOL     OW76907   8.297   7.900  10.889  0.5241 -0.1199  0.0945
24967SOL    HW176908   8.344   7.979  10.862  0.4393  0.1256  0.6514
24967SOL    HW276909   8.293   7.905  10.985  0.9832 -1.0707  0.1733
24968SOL     OW76910   8.078   2.835   8.167 -0.6847 -0.1017  0.5524
24968SOL    HW176911   8.084   2.907   8.104  2.0218  0.7758  1.6466
24968SOL    HW276912   8.073   2.878   8.252 -1.9110 -1.2602  1.1029
24969SOL     OW76913   1.590   3.679   8.996  0.1435  0.0696  0.1491
24969SOL    HW176914   1.644   3.757   9.010 -0.7604  0.3949  2.1163
24969SOL    HW276915   1.646   3.620   8.945  1.1561  1.6495 -0.6373
24970SOL     OW76916   8.150   1.096   9.689 -0.1746  0.4157  0.6236
24970SOL    HW176917   8.152   1.189   9.711  0.7457  0.2274  1.3898
24970SOL    HW276918   8.186   1.091   9.600  1.9359  0.5920  1.4107
24971SOL     OW76919   3.392   1.346   9.296  0.2023 -0.1971  0.1678
24971SOL    HW176920   3.330   1.347   9.223  2.2373  0.3435 -1.6457
24971SOL    HW276921   3.401   1.253   9.318 -1.9570 -0.2292  1.1832
24972SOL     OW76922   1.552   2.618   6.509  0.1061 -0.0714 -0.2154
24972SOL    HW176923   1.464   2.588   6.533 -0.3726 -0.4774 -2.2800
24972SOL    HW276924   1.538   2.700   6.462  0.6509 -0.9667 -2.0053
24973SOL     OW76925   3.833   7.351  10.600 -0.2578  0.0412 -0.0289
24973SOL    HW176926   3.841   7.265  10.559  1.9176 -0.1907  0.7489
24973SOL    HW276927   3.853   7.413  10.530  1.2469 -0.2590  0.0969
24974SOL     OW76928   3.384   9.246   8.181  0.7937  0.0030  1.3551
24974SOL    HW176929   3.326   9.304   8.132  1.0963 -0.3269  0.5946
24974SOL    HW276930   3.397   9.170   8.124  1.1007 -0.4235  1.9707
24975SOL     OW76931   6.047   2.767   2.748 -1.1356 -0.1360 -0.1909
24975SOL    HW176932   6.077   2.843   2.799 -1.7562 -0.8056  1.2524
24975SOL    HW276933   6.073   2.786   2.658  0.8592  0.6917  0.5013
24976SOL     OW76934   6.359   7.653   2.056  0.1573  0.2694  0.9544
24976SOL    HW176935   6.398   7.715   2.118  1.6536  0.3070  0.0156
24976SOL    HW276936   6.434   7.605   2.019 -0.6786  0.2804 -0.8533
24977SOL     OW76937   0.699   7.736   3.826 -0.3375 -0.1769  0.0904
24977SOL    HW176938   0.675   7.763   3.914 -1.1571 -0.6459  0.0176
24977SOL    HW276939   0.707   7.640   3.832 -0.9016 -0.2637 -0.4564
24978SOL     OW76940  11.084  10.008   0.370  0.1274 -0.1829 -0.2699
24978SOL    HW176941  11.060  10.094   0.334  0.7575 -0.3997 -1.2651
24978SOL    HW276942  11.014   9.987   0.432 -0.6426  0.5374 -0.8697
24979SOL     OW76943   9.396   8.078   1.256  0.2457 -0.2492  0.8836
24979SOL    HW176944   9.479   8.113   1.225 -0.8296  1.1679 -0.5800
24979SOL    HW276945   9.339   8.155   1.262 -0.0163 -0.5382  5.4407
24980SOL     OW76946   0.815   7.247   3.941 -0.4109 -0.4146 -0.2464
24980SOL    HW176947   0.856   7.230   3.856  1.6611 -1.1405  0.8058
24980SOL    HW276948   0.746   7.181   3.949 -0.9988  0.0156 -1.5655
24981SOL     OW76949   0.351   6.863   7.877 -0.2738 -0.2933  0.0362
24981SOL    HW176950   0.390   6.845   7.963  0.8308  3.4575  0.5198
24981SOL    HW276951   0.426   6.866   7.818 -0.9366 -1.9697 -0.9513
24982SOL     OW76952   6.338   1.521   8.802  0.4227 -0.0813 -0.2569
24982SOL    HW176953   6.377   1.436   8.783 -0.5842 -0.3863 -1.0442
24982SOL    HW276954   6.285   1.506   8.880 -0.5898 -0.4609 -0.9951
24983SOL     OW76955   7.846   8.679   8.083  0.0891  0.1733  0.2279
24983SOL    HW176956   7.896   8.600   8.064 -2.1528 -1.1007 -0.7768
24983SOL    HW276957   7.817   8.668   8.174 -0.9226 -0.6354 -0.1661
24984SOL     OW76958   5.710   2.436   7.303 -0.2864 -0.1403 -1.1094
24984SOL    HW176959   5.622   2.399   7.316 -0.2403 -0.2529 -1.1172
24984SOL    HW276960   5.705   2.481   7.219  0.2532 -1.9112 -2.1333
24985SOL     OW76961   7.461   5.873  10.315  0.2232 -0.1249  0.5156
24985SOL    HW176962   7.396   5.806  10.337 -2.3929  2.3353  0.8897
24985SOL    HW276963   7.419   5.927  10.248  1.8986  1.5861  0.7478
24986SOL     OW76964   2.186   4.081   5.970  0.3622  0.2991  0.4951
24986SOL    HW176965   2.201   4.131   6.049  0.9213  0.7756  0.0989
24986SOL    HW276966   2.101   4.039   5.983 -0.3281  1.7061  0.6393
24987SOL     OW76967   0.308   5.938   3.140 -0.3293 -0.2779  0.0137
24987SOL    HW176968   0.294   5.847   3.167  0.4495 -0.2591  0.5191
24987SOL    HW276969   0.401   5.953   3.156 -0.0441  0.0551 -1.7544
24988SOL     OW76970   1.722   8.708   5.101  0.4671  0.8506  0.3958
24988SOL    HW176971   1.632   8.724   5.073  0.9802  1.7847 -0.7983
24988SOL    HW276972   1.723   8.733   5.194  0.2134  3.9221 -0.3269
24989SOL     OW76973   0.695   4.088   2.402  1.0106  0.1152  0.6099
24989SOL    HW176974   0.765   4.038   2.359  2.0503  2.4742 -0.6655
24989SOL    HW276975   0.615   4.044   2.376  1.7390  0.2410 -2.2644
24990SOL     OW76976   8.561   5.984   2.034  0.1241 -0.5018  0.3824
24990SOL    HW176977   8.516   5.965   2.116  0.1335 -1.3427  0.2006
24990SOL    HW276978   8.554   5.904   1.983  2.1672 -0.8347  0.5150
24991SOL     OW76979   8.271  10.307   5.270 -0.2887 -0.2489 -0.2554
24991SOL    HW176980   8.176  10.309   5.284 -0.3648 -2.6318  0.0570
24991SOL    HW276981   8.303  10.239   5.330  1.5656  0.2088 -0.6505
24992SOL     OW76982   7.050   7.213   8.601 -0.6895  0.2278 -0.1689
24992SOL    HW176983   7.089   7.129   8.580 -1.6720 -0.1927 -0.3806
24992SOL    HW276984   7.034   7.209   8.696 -1.9195 -0.3673 -0.3765
24993SOL     OW76985   5.407  10.064   4.835 -0.0622 -0.5284  0.1773
24993SOL    HW176986   5.393  10.091   4.745  0.9993  0.1682  0.2051
24993SOL    HW276987   5.500  10.082   4.852 -0.3314 -0.2840  1.5232
24994SOL     OW76988   4.604   7.801   2.242  0.3553  0.2787 -0.4496
24994SOL    HW176989   4.552   7.827   2.166  0.9042 -0.1479 -0.9807
24994SOL    HW276990   4.694   7.824   2.219  0.7264 -1.1727 -0.5299
24995SOL     OW76991   6.524   3.788   4.818  0.1183 -0.9924  0.4808
24995SOL    HW176992   6.433   3.817   4.827  0.5103  0.0992  1.2123
24995SOL    HW276993   6.523   3.696   4.842 -0.7364 -0.9035  0.8254
24996SOL     OW76994  10.691   7.694   2.858  0.3727  0.6782 -0.3140
24996SOL    HW176995  10.706   7.708   2.952  1.1945 -0.5842 -0.2221
24996SOL    HW276996  10.721   7.604   2.843 -1.4172  0.2255 -1.4487
24997SOL     OW76997  10.083   5.232   6.542 -0.2904  0.3533  0.0182
24997SOL    HW176998  10.127   5.199   6.465 -0.4268 -0.5466  0.3147
24997SOL    HW276999   9.991   5.210   6.529 -0.4674  1.0705 -0.0078
24998SOL     OW77000   5.900   3.448   9.347 -0.2997  0.5748  0.3173
24998SOL    HW177001   5.826   3.495   9.387 -0.0039  2.6119 -1.3490
24998SOL    HW277002   5.922   3.500   9.270  1.7647 -0.9671 -0.2117
24999SOL     OW77003   2.794   0.464   6.045  0.3565 -0.3335 -0.3619
24999SOL    HW177004   2.876   0.504   6.073  0.0539 -0.6088  0.9801
24999SOL    HW277005   2.776   0.397   6.111 -2.6886  1.9745  1.4201
25000SOL     OW77006   9.036   0.790   6.949 -0.3160 -0.0405 -0.1775
25000SOL    HW177007   8.978   0.750   6.883 -0.2442  0.9663 -0.8755
25000SOL    HW277008   8.977   0.813   7.021 -0.7740  0.8006 -0.8021
25001SOL     OW77009   8.034   1.282   7.200 -0.0959  0.1984 -0.0420
25001SOL    HW177010   7.977   1.258   7.127 -0.7019  0.0246  0.4786
25001SOL    HW277011   7.982   1.344   7.252  0.7957  1.3115 -0.4305
25002SOL     OW77012   2.214   0.040   2.190 -0.6017 -0.1442 -0.0592
25002SOL    HW177013   2.173   0.013   2.108 -1.1028  2.0066 -0.5880
25002SOL    HW277014   2.305   0.058   2.166 -0.8405  0.8644 -0.2783
25003SOL     OW77015   7.749   6.889   6.428 -1.2667 -0.5678  0.0118
25003SOL    HW177016   7.754   6.798   6.398 -1.4133  0.1623 -2.5479
25003SOL    HW277017   7.669   6.894   6.479 -2.2643 -1.5352 -1.3812
25004SOL     OW77018   4.074   6.711   3.961  0.1538 -0.2701 -0.4195
25004SOL    HW177019   4.158   6.726   3.917  0.1188  0.2740 -0.3131
25004SOL    HW277020   4.023   6.660   3.898  0.6070 -0.7128 -0.4361
25005SOL     OW77021   4.006   1.652   6.267 -0.4557  0.0559 -0.3176
25005SOL    HW177022   3.956   1.658   6.186  0.2047 -0.0515 -0.7428
25005SOL    HW277023   3.965   1.580   6.315  0.7157 -1.6321 -1.7072
25006SOL     OW77024   3.260   9.989   4.183 -0.1159  0.7220  0.1066
25006SOL    HW177025   3.238   9.932   4.109 -0.2800 -0.3379  0.9327
25006SOL    HW277026   3.222   9.944   4.259  1.1120  1.1319  0.9967
25007SOL     OW77027   4.649   5.291   9.496  0.4359 -0.1958  0.1452
25007SOL    HW177028   4.626   5.207   9.456 -1.7228  0.0169  0.8076
25007SOL    HW277029   4.576   5.349   9.475  0.7587  0.8311  1.6657
25008SOL     OW77030   0.829   8.045   8.321 -0.1664 -0.4941  0.7959
25008SOL    HW177031   0.848   8.130   8.362  0.5102 -1.1916  1.9924
25008SOL    HW277032   0.909   8.023   8.273  0.2282 -1.1258  1.7174
25009SOL     OW77033   8.986   5.533  10.305  0.0369 -0.3377 -0.6122
25009SOL    HW177034   8.937   5.454  10.282 -2.8962  1.3261 -0.5856
25009SOL    HW277035   8.991   5.583  10.223 -2.0731  1.3533  0.2063
25010SOL     OW77036   6.672   2.973   4.219 -0.5281 -0.3291  0.5088
25010SOL    HW177037   6.693   3.007   4.306 -2.2344  3.2619 -0.3015
25010SOL    HW277038   6.578   2.953   4.224 -0.6808  0.0850 -0.5112
25011SOL     OW77039   0.868   2.388   9.803 -0.3373  0.1818  0.5780
25011SOL    HW177040   0.959   2.413   9.819  0.2300 -1.0693 -0.4777
25011SOL    HW277041   0.825   2.470   9.778  1.4278  0.2635 -2.6960
25012SOL     OW77042   4.463   1.762   6.424  0.1227  0.5108  0.1896
25012SOL    HW177043   4.542   1.725   6.463  0.0937  0.6973  0.4231
25012SOL    HW277044   4.408   1.685   6.406  1.4126  0.0730 -2.4295
25013SOL     OW77045   1.599   7.153   4.568 -0.6120  0.4610  0.7441
25013SOL    HW177046   1.530   7.220   4.570 -0.9195  0.4845 -3.1928
25013SOL    HW277047   1.552   7.070   4.573 -0.8585  0.5074 -0.4388
25014SOL     OW77048   1.324   6.195   1.427 -0.3481  0.1212 -0.7144
25014SOL    HW177049   1.241   6.195   1.475  0.2233  0.0126  0.2998
25014SOL    HW277050   1.316   6.268   1.366 -0.5961  1.1179  0.4566
25015SOL     OW77051   0.424   6.882   1.643  0.0504 -0.3631 -0.0219
25015SOL    HW177052   0.407   6.976   1.645  2.0056  0.0196  0.0726
25015SOL    HW277053   0.443   6.859   1.734  0.3127 -0.6911 -0.1569
25016SOL     OW77054   7.949   6.627   7.533  0.3347  0.8603  0.5137
25016SOL    HW177055   7.881   6.611   7.599  1.1006  1.6326  1.5340
25016SOL    HW277056   7.998   6.702   7.568  1.7739  0.2544 -0.1475
25017SOL     OW77057   4.706   5.435   0.304 -0.6617 -0.1524 -0.4134
25017SOL    HW177058   4.711   5.410   0.396 -0.9252  0.9506 -0.0827
25017SOL    HW277059   4.737   5.358   0.256  0.4347 -0.4022  0.6404
25018SOL     OW77060  10.541   0.451   5.091 -0.2977  0.3241  0.6499
25018SOL    HW177061  10.607   0.520   5.080  0.2549  0.1166  2.4357
25018SOL    HW277062  10.463   0.497   5.122 -0.3909  0.3082  0.4453
25019SOL     OW77063   4.786   1.527   2.566  0.5736  0.0787  0.8021
25019SOL    HW177064   4.721   1.461   2.540  1.3099 -0.6987  0.8720
25019SOL    HW277065   4.734   1.603   2.591 -0.2614 -0.1064 -0.2916
25020SOL     OW77066   5.449   9.768   4.457 -0.2266  0.2360 -0.3785
25020SOL    HW177067   5.504   9.696   4.424  2.2500  1.7830  0.0787
25020SOL    HW277068   5.441   9.750   4.551  2.8796  1.9068  0.3392
25021SOL     OW77069   1.895   8.081   8.254 -0.4569  0.1726 -0.0278
25021SOL    HW177070   1.937   8.164   8.278 -1.7169  0.4367  1.4016
25021SOL    HW277071   1.805   8.089   8.287 -0.6618 -1.6916 -0.0186
25022SOL     OW77072   3.252   8.549   3.698  0.6647  0.8300  0.2889
25022SOL    HW177073   3.199   8.510   3.767  1.6070  2.2043  1.8431
25022SOL    HW277074   3.272   8.638   3.729  0.4677  1.7928 -2.1029
25023SOL     OW77075   9.285   8.556   4.540  0.1902 -0.1808  0.0937
25023SOL    HW177076   9.209   8.553   4.598 -0.5452  0.9661 -0.7797
25023SOL    HW277077   9.249   8.550   4.452  1.2341 -1.0786 -0.2925
25024SOL     OW77078  11.095   2.134   7.047 -0.4210  0.6316  0.0698
25024SOL    HW177079  11.024   2.133   6.983 -1.9726  4.5811  1.4181
25024SOL    HW277080  11.167   2.178   7.003  1.0134 -2.4103 -0.9240
25025SOL     OW77081   7.754   3.509   7.948 -0.0150  0.7617 -0.0172
25025SOL    HW177082   7.696   3.541   8.017 -0.6423  0.5058 -0.4201
25025SOL    HW277083   7.733   3.416   7.940 -1.2743  1.1542 -1.7968
25026SOL     OW77084   9.849   4.824   4.191 -0.3327 -0.6472 -0.2273
25026SOL    HW177085   9.783   4.869   4.138 -1.0803 -2.5425 -1.0094
25026SOL    HW277086   9.803   4.801   4.271 -0.8557 -2.4333 -0.9863
25027SOL     OW77087   3.678   7.710   5.399 -0.3532 -0.4247  0.3931
25027SOL    HW177088   3.675   7.627   5.448  0.4910 -0.3924  0.5221
25027SOL    HW277089   3.739   7.764   5.449 -0.4754  0.0753 -0.0006
25028SOL     OW77090   2.494   0.630   8.480 -0.1285  0.1210  0.9088
25028SOL    HW177091   2.504   0.660   8.389 -1.2608 -1.2623  0.2743
25028SOL    HW277092   2.553   0.685   8.530  1.7921 -0.1412 -0.8971
25029SOL     OW77093  10.141   5.553   4.091  0.0730  0.3203 -0.0531
25029SOL    HW177094  10.177   5.565   4.179 -0.7142 -0.0700  0.3363
25029SOL    HW277095  10.208   5.588   4.033  0.5996  0.6065  0.7024
25030SOL     OW77096   3.263   6.095   8.162  0.3208  0.2881  0.0752
25030SOL    HW177097   3.197   6.107   8.230 -0.9310 -1.2993 -0.7916
25030SOL    HW277098   3.245   6.163   8.098 -0.2871  0.0753  0.0103
25031SOL     OW77099   8.375   8.360  11.037  0.8870 -0.4709 -0.0420
25031SOL    HW177100   8.413   8.448  11.044 -0.4813 -0.0023  2.6751
25031SOL    HW277101   8.282   8.375  11.020 -0.1624 -1.1009  4.1423
25032SOL     OW77102  10.617   3.267   3.861 -0.3308 -0.3575  0.7594
25032SOL    HW177103  10.711   3.254   3.872 -0.5005 -0.7988  1.8231
25032SOL    HW277104  10.603   3.360   3.883 -0.1914 -0.3956  1.0162
25033SOL     OW77105   2.690  10.514   7.530  0.3623 -0.0934 -0.6042
25033SOL    HW177106   2.785  10.500   7.526  0.6029  1.6480 -2.9706
25033SOL    HW277107   2.673  10.540   7.621  2.3355  0.6682 -0.4131
25034SOL     OW77108   3.566   8.226   9.053  0.4345 -0.0930  0.3697
25034SOL    HW177109   3.653   8.190   9.065  0.5765 -0.6929 -1.9535
25034SOL    HW277110   3.528   8.175   8.981 -1.2044  1.2399  0.2094
25035SOL     OW77111   4.594   2.890   6.720 -0.2908 -0.0177 -0.2731
25035SOL    HW177112   4.653   2.945   6.770  0.4978 -1.1375  0.0644
25035SOL    HW277113   4.510   2.936   6.723  0.1031  0.6720  0.8044
25036SOL     OW77114   3.490   5.332  10.946  0.1068  0.5349  0.3220
25036SOL    HW177115   3.572   5.317  10.994 -0.3868  0.9248  1.3243
25036SOL    HW277116   3.438   5.254  10.963  0.4219  0.1027 -0.6626
25037SOL     OW77117   4.244   7.390   2.762  0.0288  0.3799  0.5003
25037SOL    HW177118   4.304   7.408   2.689 -0.3292 -1.1128 -0.2023
25037SOL    HW277119   4.198   7.472   2.776  0.7043  0.9350 -0.3893
25038SOL     OW77120   8.218   4.527   7.170  0.5199  0.5599  0.1016
25038SOL    HW177121   8.178   4.531   7.083 -0.3358  0.2026  0.4742
25038SOL    HW277122   8.173   4.594   7.221  0.9449  0.6930  0.3041
25039SOL     OW77123   6.963   9.268   2.925 -0.4377 -0.6356 -0.4151
25039SOL    HW177124   6.942   9.193   2.868 -0.4756  1.0217 -2.7387
25039SOL    HW277125   7.023   9.321   2.872  0.4921  0.4263  1.6240
25040SOL     OW77126   8.433   3.195   1.684 -0.2087  0.0129 -0.5095
25040SOL    HW177127   8.475   3.178   1.600  1.0396 -0.4241  0.1908
25040SOL    HW277128   8.403   3.109   1.714  1.0200 -0.1340  0.3526
25041SOL     OW77129  10.671   1.544   9.364  0.1316 -0.2248  0.1871
25041SOL    HW177130  10.598   1.488   9.391 -1.3869  0.3758 -2.3012
25041SOL    HW277131  10.650   1.630   9.400  0.0618 -0.2412  0.1855
25042SOL     OW77132   8.071   2.900   4.042  0.7024  0.1617 -0.0746
25042SOL    HW177133   8.153   2.912   4.091  0.5548 -0.1391  0.2516
25042SOL    HW277134   8.076   2.810   4.010  1.4571  0.7894 -1.8493
25043SOL     OW77135   3.601   8.291   2.827  0.1449  0.2787 -0.0842
25043SOL    HW177136   3.600   8.236   2.748 -0.2817  2.1717 -1.4746
25043SOL    HW277137   3.660   8.246   2.887 -0.1499 -1.6492 -1.1629
25044SOL     OW77138   5.771   4.569  10.754 -0.2897 -0.0300 -0.1800
25044SOL    HW177139   5.732   4.621  10.824  1.4511  0.4793  0.4603
25044SOL    HW277140   5.798   4.633  10.688  0.0334 -0.3000 -0.3150
25045SOL     OW77141   9.268   4.910   8.405 -0.5061  0.1226  0.9772
25045SOL    HW177142   9.313   4.848   8.348  1.4087 -0.2192  2.7089
25045SOL    HW277143   9.221   4.856   8.468 -1.3306  0.4808  0.6865
25046SOL     OW77144  10.371   8.400  10.665  0.8397 -0.1927 -0.3369
25046SOL    HW177145  10.317   8.329  10.629 -1.1067  0.4769  1.0956
25046SOL    HW277146  10.435   8.419  10.597 -0.1253 -1.6955 -1.7209
25047SOL     OW77147   5.004   5.607   9.504 -0.6383 -0.0265 -0.6096
25047SOL    HW177148   4.933   5.657   9.463  0.6148  0.8430 -1.7862
25047SOL    HW277149   5.050   5.567   9.431 -0.1289 -0.9098  0.1761
25048SOL     OW77150   4.893   8.650   1.816 -0.2838 -0.2183 -1.0947
25048SOL    HW177151   4.973   8.640   1.867 -0.3738 -1.1189 -1.1179
25048SOL    HW277152   4.863   8.739   1.836  0.1494 -0.2466 -0.2594
25049SOL     OW77153   0.768   2.403   6.856 -0.3596 -0.5185  0.2309
25049SOL    HW177154   0.773   2.491   6.894 -1.6000  0.1172 -0.9887
25049SOL    HW277155   0.832   2.352   6.906  0.5213  1.1068  0.8516
25050SOL     OW77156   1.099   3.796   1.468  0.0715 -0.0831 -0.3044
25050SOL    HW177157   1.153   3.870   1.440  0.7547 -1.1781 -2.0647
25050SOL    HW277158   1.086   3.810   1.561 -2.5697  3.9684 -1.0281
25051SOL     OW77159   9.587   0.883   6.524  0.1957 -0.0357 -0.5003
25051SOL    HW177160   9.661   0.846   6.571  0.5523  0.9655 -0.2507
25051SOL    HW277161   9.620   0.965   6.487 -0.9472  0.7711  0.1813
25052SOL     OW77162  10.903   9.378   5.261  0.7617 -0.2745 -0.0254
25052SOL    HW177163  10.839   9.367   5.331  0.8523  1.5665  0.3894
25052SOL    HW277164  10.853   9.366   5.180 -0.0473  0.7661  0.3049
25053SOL     OW77165   9.585  10.099   0.210  0.1311 -0.0681 -0.1888
25053SOL    HW177166   9.595  10.194   0.214 -0.4914  0.0255 -0.6374
25053SOL    HW277167   9.666  10.068   0.168 -0.0357  0.3511 -0.8447
25054SOL     OW77168   3.381   7.215   7.203 -0.7178  0.0538 -0.2835
25054SOL    HW177169   3.348   7.256   7.283 -1.6795 -0.4648 -0.3990
25054SOL    HW277170   3.476   7.208   7.217 -1.0267 -1.4034  1.4727
25055SOL     OW77171   4.752   0.300   0.679  0.2813 -0.2472  0.4943
25055SOL    HW177172   4.807   0.318   0.602 -0.2695 -0.3363  0.0766
25055SOL    HW277173   4.669   0.343   0.661  0.9581  1.9585  2.1831
25056SOL     OW77174   0.680   2.197   7.577  0.5146  0.0196  0.4448
25056SOL    HW177175   0.673   2.108   7.612  2.0579 -0.2693  0.0820
25056SOL    HW277176   0.620   2.248   7.631  0.6147 -0.9891  1.5666
25057SOL     OW77177   2.975   9.729   2.915 -0.4146  0.0699 -0.0746
25057SOL    HW177178   3.069   9.733   2.934 -0.2896 -0.0569 -0.6414
25057SOL    HW277179   2.966   9.774   2.831 -0.7178 -0.7949 -0.5144
25058SOL     OW77180   7.723   8.233   6.987 -0.0662 -0.7127 -1.0886
25058SOL    HW177181   7.758   8.186   7.062 -3.2551 -1.9029 -0.1971
25058SOL    HW277182   7.800   8.271   6.944  1.8985  0.3494  2.8962
25059SOL     OW77183   0.213  11.028   2.880  0.4242  0.3508  0.2553
25059SOL    HW177184   0.275  11.020   2.807 -1.4492  0.9089 -1.4913
25059SOL    HW277185   0.269  11.043   2.956  2.4134  1.9928 -1.3782
25060SOL     OW77186   5.889   0.149   6.961  0.6875 -1.2237  0.9474
25060SOL    HW177187   5.858   0.066   6.923 -0.9422  0.3312 -1.3406
25060SOL    HW277188   5.813   0.183   7.008 -0.0942  0.8420 -1.5838
25061SOL     OW77189   8.339   6.066   7.206 -0.1851  0.1833  0.2625
25061SOL    HW177190   8.312   6.134   7.267  1.9291  0.1291  1.3426
25061SOL    HW277191   8.274   5.996   7.217 -1.7882  1.5496 -0.1194
25062SOL     OW77192   7.378   9.084   7.356 -0.2533 -0.2338 -0.0109
25062SOL    HW177193   7.283   9.078   7.361 -0.1525 -1.3125  1.0433
25062SOL    HW277194   7.407   9.075   7.447  0.7471  2.9914  0.1070
25063SOL     OW77195   1.608   3.226   8.561  0.3813 -0.7259 -0.1287
25063SOL    HW177196   1.687   3.179   8.587  1.0995  0.6340  0.2331
25063SOL    HW277197   1.604   3.216   8.465  0.0330 -2.2150  0.0162
25064SOL     OW77198  10.183   0.996   8.284  0.1051 -0.2733  0.3103
25064SOL    HW177199  10.197   0.924   8.346  0.3790 -0.5048 -0.0164
25064SOL    HW277200  10.141   0.955   8.209 -1.2801  0.2032  0.7889
25065SOL     OW77201  10.722   5.053   9.881  0.1642  0.6849  0.2448
25065SOL    HW177202  10.727   5.086   9.791 -0.9518 -1.2014 -0.5615
25065SOL    HW277203  10.775   4.973   9.881  1.5970  1.5638  1.7626
25066SOL     OW77204   5.169   0.014   9.867  0.2195 -0.1662  0.0043
25066SOL    HW177205   5.241   0.059   9.825 -0.0373 -1.5882 -2.1010
25066SOL    HW277206   5.188  -0.079   9.854 -0.6556 -0.6388  1.7620
25067SOL     OW77207  11.039   2.396   4.455 -0.8571 -0.3338  0.0753
25067SOL    HW177208  10.956   2.382   4.410 -1.3880 -0.7859  1.1416
25067SOL    HW277209  11.100   2.421   4.386 -1.9722  0.4161 -0.6884
25068SOL     OW77210   8.659   3.943   5.156  0.2829 -0.5262  0.2871
25068SOL    HW177211   8.651   4.034   5.129 -2.1296 -0.4472  1.0482
25068SOL    HW277212   8.663   3.946   5.251  1.5207 -1.1674  0.2700
25069SOL     OW77213   5.745   4.732   2.623 -0.2763  0.1221 -0.1137
25069SOL    HW177214   5.804   4.659   2.644 -1.1311 -1.2298 -2.0589
25069SOL    HW277215   5.803   4.801   2.590  0.4235 -0.1649  0.4806
25070SOL     OW77216   8.089   3.849   3.995 -1.1435 -0.0553  0.3896
25070SOL    HW177217   8.026   3.921   3.995 -0.3397  0.6579  0.2062
25070SOL    HW277218   8.159   3.877   3.936  0.4082  0.1261  2.1977
25071SOL     OW77219   5.152   6.472   7.620  0.2286  0.2296  0.3266
25071SOL    HW177220   5.145   6.544   7.683 -0.1505 -0.5750  1.2204
25071SOL    HW277221   5.219   6.414   7.657 -0.9109 -0.9069  0.6856
25072SOL     OW77222   6.945   1.817   2.722 -0.2502  0.5481 -0.3588
25072SOL    HW177223   6.951   1.848   2.632  2.4996  0.4282 -0.2979
25072SOL    HW277224   6.957   1.722   2.716  0.8009  0.6279  0.1433
25073SOL     OW77225   8.966   6.840   7.352 -0.0956 -0.0876  0.4277
25073SOL    HW177226   8.956   6.768   7.413 -0.3846 -1.3218 -1.0209
25073SOL    HW277227   8.958   6.800   7.265  1.4340  1.4052 -0.4762
25074SOL     OW77228   7.219   7.340   2.422  0.1660 -0.1377 -0.1211
25074SOL    HW177229   7.291   7.382   2.374 -0.3531 -0.2783 -1.0422
25074SOL    HW277230   7.146   7.340   2.361 -0.4783 -0.4509  0.6319
25075SOL     OW77231   6.245   6.674   3.793 -0.2911  0.1507  0.2578
25075SOL    HW177232   6.329   6.708   3.825  0.5566 -1.0008 -0.6580
25075SOL    HW277233   6.247   6.693   3.699 -1.9932  1.9743  0.5268
25076SOL     OW77234   6.662   6.825  10.090 -0.2929  0.1511  0.1069
25076SOL    HW177235   6.648   6.828   9.995  1.4754  3.7874 -0.1968
25076SOL    HW277236   6.591   6.877  10.127 -0.2276 -0.1475  0.6598
25077SOL     OW77237   4.524   1.844  10.028  0.6764  0.4195  0.3578
25077SOL    HW177238   4.508   1.753  10.053  1.7241 -0.0776 -0.6553
25077SOL    HW277239   4.481   1.854   9.944  1.4853  0.5155 -0.0573
25078SOL     OW77240   8.327   6.991   9.283  0.4244  0.1472  0.3997
25078SOL    HW177241   8.304   6.926   9.217 -0.9892 -0.5161  1.5028
25078SOL    HW277242   8.302   6.952   9.366  0.6507  1.6180  1.2021
25079SOL     OW77243  10.600   4.097   3.181  0.4251 -0.3432 -0.3724
25079SOL    HW177244  10.507   4.113   3.165  0.2912  0.5076  1.0877
25079SOL    HW277245  10.642   4.113   3.096 -0.5521  1.0701 -0.6309
25080SOL     OW77246   3.681   8.794  10.030 -0.3706 -0.0632 -0.1610
25080SOL    HW177247   3.692   8.730   9.960 -0.5618 -0.6718  0.3551
25080SOL    HW277248   3.739   8.866  10.006  1.0629 -1.0992  0.0424
25081SOL     OW77249   0.594   7.908   5.532 -0.1660  0.3646 -0.1221
25081SOL    HW177250   0.544   7.864   5.463  0.4205  0.1070 -0.3874
25081SOL    HW277251   0.529   7.962   5.577 -0.6598  0.1385 -0.5438
25082SOL     OW77252   4.692   0.373   5.166 -0.1798  0.7118  0.1546
25082SOL    HW177253   4.612   0.352   5.214  0.0704 -0.1145  0.2294
25082SOL    HW277254   4.708   0.465   5.186 -1.4892  1.0914 -0.4338
25083SOL     OW77255   8.773   2.307   2.771 -0.6731 -0.3036  0.0555
25083SOL    HW177256   8.730   2.332   2.690 -0.4555  0.6749  0.2334
25083SOL    HW277257   8.862   2.283   2.745 -0.6126 -0.0205 -0.0019
25084SOL     OW77258  10.303   0.165   7.888 -0.3340 -0.3631 -0.1647
25084SOL    HW177259  10.279   0.217   7.811  0.7446  0.7734  0.2359
25084SOL    HW277260  10.392   0.192   7.909  0.2257 -2.3095  0.1476
25085SOL     OW77261   9.658   9.332   7.175  0.4114 -0.2286  0.1353
25085SOL    HW177262   9.704   9.415   7.188 -1.9889  1.3971 -1.0430
25085SOL    HW277263   9.587   9.334   7.239 -0.6747 -0.5744 -1.0373
25086SOL     OW77264   2.231   9.889   7.252 -0.4211 -0.0687 -0.0890
25086SOL    HW177265   2.235   9.956   7.320 -0.4660  0.6511 -0.7831
25086SOL    HW277266   2.320   9.885   7.217 -0.9177  1.3742 -1.6722
25087SOL     OW77267   5.114   0.377   2.742  0.4267  0.1693  0.5963
25087SOL    HW177268   5.149   0.316   2.677 -0.8104  3.1627 -3.3100
25087SOL    HW277269   5.019   0.367   2.735  0.2326 -0.1874  2.9276
25088SOL     OW77270   8.717   6.147  10.484  0.5519  0.1700  0.2346
25088SOL    HW177271   8.621   6.150  10.487  0.5235 -1.0795  1.7793
25088SOL    HW277272   8.738   6.162  10.392 -1.1070  0.6237 -0.1175
25089SOL     OW77273   0.550   0.087   4.141  0.0495 -0.0289  0.3371
25089SOL    HW177274   0.487   0.032   4.187 -0.6944  0.0300 -0.5888
25089SOL    HW277275   0.603   0.125   4.211 -1.8287  1.0357  1.2734
25090SOL     OW77276   3.252   9.458   6.688 -0.1474  0.6298 -0.3284
25090SOL    HW177277   3.288   9.392   6.629 -0.5343 -1.1850  1.3511
25090SOL    HW277278   3.322   9.523   6.697  0.5152  0.1090 -1.5015
25091SOL     OW77279   2.938   6.824   1.142  0.7390  0.0517  0.5139
25091SOL    HW177280   2.934   6.900   1.084  0.2597 -0.3962 -0.0486
25091SOL    HW277281   2.957   6.860   1.228 -2.6052  1.1450  0.9211
25092SOL     OW77282   4.556   5.811   4.549  0.0669  0.4970  0.6692
25092SOL    HW177283   4.515   5.772   4.626  0.0733 -0.8847  0.0020
25092SOL    HW277284   4.621   5.872   4.585 -0.2371  0.2077  1.7495
25093SOL     OW77285   2.891  10.075   0.426 -0.5661 -0.3099 -0.6421
25093SOL    HW177286   2.927  10.022   0.354 -0.2870 -0.3598 -0.4678
25093SOL    HW277287   2.968  10.113   0.469 -0.6982 -0.7616  0.0021
25094SOL     OW77288   8.574   2.291   7.199 -0.4339  0.1653 -0.0286
25094SOL    HW177289   8.490   2.289   7.154  0.7433 -0.8071 -2.3593
25094SOL    HW277290   8.624   2.218   7.161  1.2016  0.2043  1.8464
25095SOL     OW77291   6.861   0.226   0.576  0.1279 -0.1952  0.5562
25095SOL    HW177292   6.767   0.217   0.560  0.2430 -1.6465  0.5472
25095SOL    HW277293   6.893   0.277   0.502 -0.3696 -1.3238 -0.4901
25096SOL     OW77294  10.580   7.015   9.698  0.0736  0.0607 -0.2526
25096SOL    HW177295  10.498   7.064   9.702  0.2048  0.1794  1.5291
25096SOL    HW277296  10.648   7.080   9.716  0.5993 -0.0437 -1.6782
25097SOL     OW77297   9.007   8.046   8.847  0.1981 -0.3471  0.1260
25097SOL    HW177298   9.073   8.039   8.917  0.6312 -2.2835 -0.4018
25097SOL    HW277299   8.969   7.958   8.842 -0.2712 -0.0800 -1.6366
25098SOL     OW77300   5.686   1.957   1.372  0.4235 -0.3195 -0.5676
25098SOL    HW177301   5.683   1.934   1.464 -0.0310  0.2278 -0.4364
25098SOL    HW277302   5.774   1.992   1.358  0.1988  0.4287 -0.1311
25099SOL     OW77303   6.356   8.081   9.905  0.1589 -0.8972  0.1900
25099SOL    HW177304   6.266   8.104   9.929  0.9087  0.9087  1.5608
25099SOL    HW277305   6.394   8.044   9.985  1.8594  2.5121  1.1820
25100SOL     OW77306   4.438   9.077   8.110  0.0258  0.0101 -0.2558
25100SOL    HW177307   4.511   9.082   8.048  0.4604  2.7577  0.3472
25100SOL    HW277308   4.382   9.008   8.075  2.4505 -1.6056 -1.2253
25101SOL     OW77309   7.691   4.697   7.956  0.3742  0.5056 -0.1269
25101SOL    HW177310   7.740   4.666   8.032 -0.2330  1.2396  0.5866
25101SOL    HW277311   7.678   4.619   7.902  1.9856  0.2248 -0.1689
25102SOL     OW77312   8.868   2.047   0.602 -0.0078 -0.4872 -0.1158
25102SOL    HW177313   8.850   2.059   0.695 -0.5892 -2.3051  0.0463
25102SOL    HW277314   8.949   1.997   0.600  0.2620 -0.0354 -0.6089
25103SOL     OW77315   8.494   0.060  10.624  0.4609 -0.6529 -0.2245
25103SOL    HW177316   8.421  -0.002  10.630  0.1880 -0.4167 -0.8906
25103SOL    HW277317   8.496   0.084  10.531 -0.0124  0.9839  0.1476
25104SOL     OW77318   0.719   5.375   9.275 -0.1512  0.0024 -0.3242
25104SOL    HW177319   0.795   5.331   9.314 -1.0904 -2.0889 -0.7279
25104SOL    HW277320   0.755   5.456   9.239  1.6427 -0.3261  0.6012
25105SOL     OW77321   5.747  11.004   8.783 -0.3471 -0.0824  0.6029
25105SOL    HW177322   5.661  10.963   8.782 -0.8524  0.9289  0.6172
25105SOL    HW277323   5.791  10.972   8.704 -1.1613  0.2448  0.0114
25106SOL     OW77324   8.693   1.277   2.305  0.7894 -0.3193 -0.6809
25106SOL    HW177325   8.704   1.187   2.273  0.7013 -0.5377 -0.1041
25106SOL    HW277326   8.708   1.331   2.227 -0.1857 -0.8676 -1.2731
25107SOL     OW77327   0.868   8.506   3.594  0.0145 -0.4414  0.3430
25107SOL    HW177328   0.892   8.541   3.508  3.0683  2.1942  2.0551
25107SOL    HW277329   0.946   8.459   3.623 -0.1232  0.5741  2.5126
25108SOL     OW77330  11.056   2.810   3.153 -0.3250 -0.1576 -0.1548
25108SOL    HW177331  11.070   2.763   3.071  0.5626  1.0957 -0.7391
25108SOL    HW277332  10.990   2.757   3.199 -2.5010  0.2345 -2.5712
25109SOL     OW77333   1.065   8.359   0.241 -0.5685  0.4658 -0.3915
25109SOL    HW177334   1.043   8.354   0.148 -1.2655  1.4971 -0.3012
25109SOL    HW277335   1.025   8.441   0.270  2.5238  1.9504  0.0458
25110SOL     OW77336   1.747   9.180   3.985  0.7592 -0.0966 -0.1336
25110SOL    HW177337   1.791   9.104   4.024  1.3430  0.1077 -0.3752
25110SOL    HW277338   1.723   9.152   3.897 -1.2170 -0.8036  0.5675
25111SOL     OW77339   6.184   8.250   6.058 -0.2163  0.1172  0.5815
25111SOL    HW177340   6.122   8.296   6.002  0.2671  0.1939  0.0979
25111SOL    HW277341   6.249   8.214   5.998 -0.8859 -1.7243  0.8721
25112SOL     OW77342   5.127   4.876   4.232  0.5288  0.6965 -0.3387
25112SOL    HW177343   5.035   4.875   4.207 -0.5236  2.0766  2.8905
25112SOL    HW277344   5.139   4.796   4.283  2.1362 -1.1673 -3.3301
25113SOL     OW77345  10.282   0.082   4.004  0.3976 -0.4168  0.5788
25113SOL    HW177346  10.341   0.147   4.042  0.2421  0.1591 -0.1633
25113SOL    HW277347  10.338   0.027   3.950  0.3512 -0.2234  0.3329
25114SOL     OW77348   2.791   7.178   1.570 -0.1605  0.3563  0.0543
25114SOL    HW177349   2.813   7.249   1.510  0.1314 -0.1948 -0.4905
25114SOL    HW277350   2.705   7.203   1.605 -0.0801  0.9561 -0.1627
25115SOL     OW77351   1.459   3.900   9.807  0.8924  0.3891 -0.1772
25115SOL    HW177352   1.375   3.943   9.793 -0.3906 -1.8496  0.1319
25115SOL    HW277353   1.524   3.959   9.768 -0.7980  2.2136 -0.3481
25116SOL     OW77354   1.440   5.052   7.733  0.1407 -0.7138  0.7411
25116SOL    HW177355   1.351   5.078   7.755  0.3433  1.7453 -0.9416
25116SOL    HW277356   1.440   5.047   7.637  2.0115  0.2490  0.6463
25117SOL     OW77357  10.851   4.235   5.268 -0.5773 -0.6059  0.6964
25117SOL    HW177358  10.816   4.207   5.184 -0.3652  0.2351  0.3204
25117SOL    HW277359  10.872   4.153   5.314  0.0199 -1.0665 -0.3640
25118SOL     OW77360   2.209   5.297   1.899  0.2364 -0.0721  0.0297
25118SOL    HW177361   2.114   5.289   1.909  0.0665 -0.4381 -1.5909
25118SOL    HW277362   2.238   5.208   1.879  0.6522  0.3578 -1.3379
25119SOL     OW77363   6.522   8.622   7.781 -0.0375  0.0310 -0.2191
25119SOL    HW177364   6.592   8.616   7.716  0.7800  0.0359  0.6212
25119SOL    HW277365   6.481   8.707   7.765 -1.6195 -1.0621 -2.3966
25120SOL     OW77366   7.093   4.774   1.886  0.4294 -0.7448 -0.1861
25120SOL    HW177367   7.169   4.715   1.885 -0.4259 -1.8687 -0.4925
25120SOL    HW277368   7.042   4.750   1.809  0.8906  1.5696 -1.3130
25121SOL     OW77369   3.750   3.759   6.404  0.2739  1.0265  0.0484
25121SOL    HW177370   3.729   3.819   6.476  0.9640  1.2242  0.0947
25121SOL    HW277371   3.741   3.813   6.325 -1.3087  0.5925 -0.0999
25122SOL     OW77372   8.402   4.164   5.431 -0.3715 -0.3708 -0.7938
25122SOL    HW177373   8.407   4.082   5.382  0.1731 -0.7775 -0.0768
25122SOL    HW277374   8.487   4.171   5.474 -1.2735 -0.6713  1.1051
25123SOL     OW77375   8.724   1.315   8.299 -0.0370 -0.3946  0.0686
25123SOL    HW177376   8.707   1.404   8.269 -1.5865 -0.6192  0.1943
25123SOL    HW277377   8.743   1.265   8.219 -2.6068 -0.6586 -0.4701
25124SOL     OW77378   2.848  11.062  10.725  0.0533  0.1319  0.0820
25124SOL    HW177379   2.850  10.996  10.794 -0.1246  1.2986  1.2434
25124SOL    HW277380   2.908  11.029  10.658  0.0720 -1.1245  0.6933
25125SOL     OW77381   6.204   9.819   5.941  0.8350  0.5035 -0.5147
25125SOL    HW177382   6.288   9.772   5.941  0.5337 -0.1697 -2.8477
25125SOL    HW277383   6.141   9.756   5.977  1.1693  0.7449  0.5301
25126SOL     OW77384   8.510   3.930   2.075  0.3425 -0.3998  0.7049
25126SOL    HW177385   8.505   4.025   2.080  1.0375 -0.3413  0.3563
25126SOL    HW277386   8.583   3.906   2.132  1.0161 -0.6069 -0.2097
25127SOL     OW77387   0.350   4.481   1.784 -0.2532  0.7104  0.0092
25127SOL    HW177388   0.402   4.426   1.726  3.1070  2.8449  0.6852
25127SOL    HW277389   0.333   4.427   1.861  2.6724  0.3855  0.5313
25128SOL     OW77390   5.905   9.196   2.793  0.0747 -0.1411  0.5647
25128SOL    HW177391   5.943   9.274   2.752  0.2494 -1.1693 -1.3623
25128SOL    HW277392   5.975   9.131   2.789 -1.0142 -1.2881 -0.6626
25129SOL     OW77393   3.691   8.445   7.173  0.6179  0.1229  0.0315
25129SOL    HW177394   3.786   8.436   7.163  0.6739 -2.8398  1.9079
25129SOL    HW277395   3.679   8.471   7.264 -0.3945  0.7754 -0.2710
25130SOL     OW77396  10.825   0.365   0.842 -0.4565 -0.5055  0.1914
25130SOL    HW177397  10.851   0.451   0.810 -0.8324 -1.0665 -1.7583
25130SOL    HW277398  10.847   0.366   0.935 -2.7949  2.6134  0.8693
25131SOL     OW77399   4.414   2.555   9.615 -0.6766  0.5865 -0.3190
25131SOL    HW177400   4.417   2.469   9.572  1.1251 -0.4280  1.6740
25131SOL    HW277401   4.497   2.596   9.592  0.2416  0.1021  1.9247
25132SOL     OW77402   0.347   2.764   7.492  0.3952 -0.3885 -0.0412
25132SOL    HW177403   0.350   2.719   7.577 -0.8096 -3.0570 -1.3012
25132SOL    HW277404   0.266   2.815   7.495  1.5939  1.5672  1.2708
25133SOL     OW77405   2.444  10.941   4.696  0.1028  0.8614 -0.1257
25133SOL    HW177406   2.465  10.849   4.714  0.1799  0.4363 -2.1038
25133SOL    HW277407   2.461  10.986   4.778 -0.6732 -1.0036  1.1374
25134SOL     OW77408  10.250   3.585   9.694 -0.2886 -0.3424  0.1195
25134SOL    HW177409  10.159   3.581   9.665 -0.2090  1.1205 -0.4028
25134SOL    HW277410  10.274   3.677   9.684  1.5282 -0.8669 -0.5707
25135SOL     OW77411  10.964   6.077   0.541 -0.2017 -0.1457  0.3514
25135SOL    HW177412  11.044   6.084   0.488 -0.0064  1.0621  0.7662
25135SOL    HW277413  10.901   6.135   0.497 -0.6042 -0.5061  0.4490
25136SOL     OW77414   9.239   2.891   8.303  0.6011  0.1354 -0.1711
25136SOL    HW177415   9.313   2.831   8.312 -1.5671 -2.6099  1.4128
25136SOL    HW277416   9.221   2.920   8.392  1.5172  3.2852 -0.8837
25137SOL     OW77417   8.835   7.458   2.496  0.5274 -0.0485  0.3839
25137SOL    HW177418   8.894   7.468   2.570  0.9936  0.6469 -0.0688
25137SOL    HW277419   8.877   7.505   2.425 -0.0773 -0.4175 -0.2378
25138SOL     OW77420   9.615   8.737   4.936 -0.6142 -0.1933 -0.0780
25138SOL    HW177421   9.571   8.806   4.987  1.3505  0.8956  0.2423
25138SOL    HW277422   9.546   8.672   4.920 -1.9969  0.7670  1.5385
25139SOL     OW77423   5.795   0.346   2.061  0.3304  0.5177 -0.9541
25139SOL    HW177424   5.812   0.326   2.153 -0.1751  0.3857 -0.8866
25139SOL    HW277425   5.783   0.441   2.059 -0.7238  0.4080 -0.6972
25140SOL     OW77426   4.145   2.952   7.403  0.6597 -0.2732 -0.2771
25140SOL    HW177427   4.200   3.011   7.352 -1.6693  1.7711 -0.6054
25140SOL    HW277428   4.203   2.917   7.471  2.7024  0.4938 -1.5253
25141SOL     OW77429   8.291   4.550   0.482 -0.2297 -0.0833 -0.7919
25141SOL    HW177430   8.238   4.629   0.497  0.1253  0.2039 -1.0288
25141SOL    HW277431   8.355   4.576   0.416  0.5643 -0.2583 -0.1178
25142SOL     OW77432   3.431  10.115   6.817 -0.7722  0.5742  0.6976
25142SOL    HW177433   3.488  10.047   6.852 -2.8958 -2.7292 -1.5764
25142SOL    HW277434   3.352  10.111   6.871 -0.6970  1.6939  0.9071
25143SOL     OW77435   9.397   8.931   9.793  0.6220  0.8289  0.0091
25143SOL    HW177436   9.492   8.940   9.793  1.0649 -2.5242 -0.4211
25143SOL    HW277437   9.379   8.857   9.851 -1.7358  1.2018 -0.1220
25144SOL     OW77438  10.809   6.992  10.513 -0.3883  0.0347 -0.4001
25144SOL    HW177439  10.824   7.079  10.551 -2.5755  0.3804 -0.2389
25144SOL    HW277440  10.722   6.967  10.543 -0.1070 -1.9011 -1.0708
25145SOL     OW77441   6.689   9.030   6.083  0.2990 -0.2221  0.3428
25145SOL    HW177442   6.725   8.944   6.060 -2.2068 -2.1151  2.7747
25145SOL    HW277443   6.642   9.058   6.005 -0.1609 -1.8435  0.0080
25146SOL     OW77444   7.069  10.715   9.181 -0.0123  0.7969  0.2355
25146SOL    HW177445   6.994  10.667   9.215 -1.0325  1.0995 -1.4783
25146SOL    HW277446   7.086  10.783   9.247 -0.6967  0.2040  1.0377
25147SOL     OW77447   2.984   9.668   0.364  0.2645  0.2754  0.6161
25147SOL    HW177448   2.889   9.665   0.363  0.2358 -0.5765 -1.7889
25147SOL    HW277449   3.006   9.744   0.311  0.9468  1.0573  1.9886
25148SOL     OW77450   8.585  10.726   7.492 -0.5715  0.6102 -0.2814
25148SOL    HW177451   8.595  10.798   7.554  0.8273 -0.5444  0.9148
25148SOL    HW277452   8.525  10.665   7.535  0.1371 -0.0392 -0.1848
25149SOL     OW77453  10.116   2.431   9.930  0.7707  0.1030 -0.2391
25149SOL    HW177454  10.146   2.389   9.850  0.2239 -2.5593  0.8562
25149SOL    HW277455  10.028   2.398   9.943  0.5440  1.1289  1.0468
25150SOL     OW77456   9.852   1.070   7.579  0.0663  0.1431  0.4254
25150SOL    HW177457   9.859   1.081   7.484  0.2142  0.5032  0.4756
25150SOL    HW277458   9.935   1.104   7.613  1.8035 -3.6217  0.4150
25151SOL     OW77459   4.878   3.392   5.728 -0.5536  0.5655  0.4492
25151SOL    HW177460   4.840   3.381   5.815  0.0864  1.3973  0.8459
25151SOL    HW277461   4.962   3.434   5.744  0.7631 -1.5765 -0.3639
25152SOL     OW77462   9.523   3.839   9.984 -0.1594 -0.5150  0.3023
25152SOL    HW177463   9.440   3.799   9.957  1.3999 -2.4414 -2.1624
25152SOL    HW277464   9.498   3.912  10.040 -3.5275 -0.5992 -0.8802
25153SOL     OW77465   3.848   8.097   3.640  0.3308  0.3705 -0.4624
25153SOL    HW177466   3.870   8.172   3.695 -0.1802 -2.0493  3.3909
25153SOL    HW277467   3.756   8.109   3.618  0.5092  1.3314 -0.7223
25154SOL     OW77468   4.246   1.121   0.438  0.3666  0.9307  0.1788
25154SOL    HW177469   4.340   1.136   0.447  0.4431  0.5950 -0.0111
25154SOL    HW277470   4.231   1.038   0.484  0.2541  0.7247 -0.2200
25155SOL     OW77471   6.305   0.827   2.957  0.2946 -0.2044  0.0589
25155SOL    HW177472   6.287   0.840   2.864 -0.5053  0.2786  0.2656
25155SOL    HW277473   6.392   0.787   2.960 -0.8902 -3.0981 -1.0296
25156SOL     OW77474   2.612   1.548   7.186  0.0070 -0.7286  0.3434
25156SOL    HW177475   2.572   1.609   7.249  0.1192  0.6949 -0.9102
25156SOL    HW277476   2.561   1.467   7.195 -2.2435  0.5621 -0.1528
25157SOL     OW77477   0.421   9.379   1.758  0.3955  0.0459  0.2245
25157SOL    HW177478   0.326   9.366   1.750  0.4341 -0.9259  1.1694
25157SOL    HW277479   0.447   9.417   1.674 -0.6772 -0.6255 -0.4345
25158SOL     OW77480   3.467  10.615   6.532  0.5866 -0.8447  0.5368
25158SOL    HW177481   3.486  10.521   6.537  0.3547 -0.8578  1.2454
25158SOL    HW277482   3.411  10.623   6.454  0.6647 -1.2846  0.4293
25159SOL     OW77483   4.102   7.079   3.902  0.3195 -0.7869  0.4366
25159SOL    HW177484   4.068   7.140   3.967  2.3794 -1.0140  1.8481
25159SOL    HW277485   4.137   7.135   3.832 -1.2052 -0.5235 -0.1597
25160SOL     OW77486   5.434   7.831   5.647 -0.2931 -0.0975  0.4335
25160SOL    HW177487   5.356   7.817   5.700 -0.6993 -1.2113 -0.4455
25160SOL    HW277488   5.425   7.771   5.573  1.8028 -0.9169  0.7676
25161SOL     OW77489   3.408   3.525   7.825  0.2170 -0.4261 -0.0774
25161SOL    HW177490   3.359   3.593   7.777 -0.7317 -1.7063 -0.9945
25161SOL    HW277491   3.490   3.567   7.849 -0.2463  0.9730 -0.8268
25162SOL     OW77492   9.786   0.148   8.558  0.2271  0.1124 -0.1742
25162SOL    HW177493   9.777   0.054   8.579  1.8817  0.0396  0.3659
25162SOL    HW277494   9.698   0.184   8.573 -0.2867 -1.2331  0.2464
25163SOL     OW77495   6.278   8.280   2.619  0.6193 -0.0386  0.4625
25163SOL    HW177496   6.202   8.221   2.618  2.5135 -2.6171 -0.4979
25163SOL    HW277497   6.289   8.303   2.711 -1.5511  0.7801  0.5795
25164SOL     OW77498   9.760   6.964   6.471  0.4783 -0.0648 -0.3344
25164SOL    HW177499   9.690   6.956   6.407 -0.0223 -0.3919  0.2510
25164SOL    HW277500   9.840   6.952   6.420  0.0306 -3.4562 -0.4653
25165SOL     OW77501   9.149   5.045   0.703  0.3378  0.4359  0.3347
25165SOL    HW177502   9.171   5.106   0.632 -0.5455 -0.8183 -1.0551
25165SOL    HW277503   9.214   5.064   0.771  1.8213  1.0457 -1.1722
25166SOL     OW77504   8.845   3.666   2.974  0.9170 -0.2561  0.1476
25166SOL    HW177505   8.778   3.728   2.946  2.1312 -0.0781 -2.6551
25166SOL    HW277506   8.797   3.588   3.000 -0.4803  0.8272  0.9646
25167SOL     OW77507   4.692   0.742   2.164 -0.1931 -0.1065 -0.1726
25167SOL    HW177508   4.782   0.710   2.161  0.3031  1.2676 -0.4765
25167SOL    HW277509   4.665   0.747   2.072 -0.7208 -0.8450 -0.0713
25168SOL     OW77510   3.605   5.378   4.208 -0.4485 -0.2108  0.1921
25168SOL    HW177511   3.553   5.300   4.225  1.0715 -0.7262  3.2424
25168SOL    HW277512   3.691   5.345   4.182  0.2356  0.3440  1.5881
25169SOL     OW77513   7.750   0.566   6.626 -0.7379 -0.3002  0.3325
25169SOL    HW177514   7.753   0.478   6.662 -1.9203 -0.9560 -1.0549
25169SOL    HW277515   7.734   0.623   6.701 -1.5585 -1.4483  1.0506
25170SOL     OW77516  10.654   3.136   2.689  0.3000  0.0775 -0.3865
25170SOL    HW177517  10.587   3.202   2.672 -1.4423 -0.9319  1.8792
25170SOL    HW277518  10.691   3.161   2.774 -2.3125 -3.0704  1.9547
25171SOL     OW77519   0.335   6.928   2.803  0.1827  0.9548 -0.3853
25171SOL    HW177520   0.304   6.862   2.741 -0.9336  1.8620 -0.8310
25171SOL    HW277521   0.430   6.919   2.802  0.0733 -0.3209 -0.7838
25172SOL     OW77522   2.271   8.470  10.054 -0.2526  0.2207 -0.3042
25172SOL    HW177523   2.202   8.425  10.102 -1.6608  1.0726 -1.4320
25172SOL    HW277524   2.277   8.556  10.096 -0.5464  0.4868 -0.8047
25173SOL     OW77525   7.174   0.736   9.294  0.2953  0.1861  0.3572
25173SOL    HW177526   7.180   0.686   9.375  0.2285 -0.2576  0.0905
25173SOL    HW277527   7.159   0.827   9.323  0.6286  0.0890  0.8444
25174SOL     OW77528   7.055   1.518   5.999  0.6215 -0.3167  0.1946
25174SOL    HW177529   7.108   1.441   6.017  2.6797  0.3969 -2.2325
25174SOL    HW277530   7.099   1.561   5.925 -3.2329  0.4457 -1.9376
25175SOL     OW77531   8.232  10.966   5.001  0.3007 -0.1005  0.5796
25175SOL    HW177532   8.168  10.895   5.002 -0.4022  0.5201  1.4882
25175SOL    HW277533   8.298  10.940   5.064  0.6892 -0.5051  0.0147
25176SOL     OW77534   5.242   5.804   8.238 -0.0428  0.7779 -0.0076
25176SOL    HW177535   5.282   5.766   8.160  1.5670 -0.8090  1.4880
25176SOL    HW277536   5.173   5.742   8.262 -0.1873  0.9881  0.1253
25177SOL     OW77537  10.144   3.215   1.731  0.2534  0.1428 -0.2701
25177SOL    HW177538  10.207   3.214   1.803 -0.7623  1.2510  0.6831
25177SOL    HW277539  10.135   3.308   1.708 -0.7936 -0.0218 -0.5887
25178SOL     OW77540   7.977   3.590   1.016  0.0589 -0.6961  0.0644
25178SOL    HW177541   8.053   3.570   1.070  1.4241  3.5639  0.0990
25178SOL    HW277542   8.012   3.607   0.929 -1.0920 -0.2615 -0.3386
25179SOL     OW77543   9.073   7.699   7.113 -0.2756  0.4446  0.5615
25179SOL    HW177544   9.040   7.782   7.079 -2.2161  0.4778  2.3399
25179SOL    HW277545   9.137   7.724   7.180  2.3030  0.3890 -1.7313
25180SOL     OW77546   4.924   7.185   8.087 -0.3415  0.1689  0.0510
25180SOL    HW177547   4.858   7.159   8.150 -1.4555  2.1246 -0.2219
25180SOL    HW277548   4.947   7.275   8.112  0.8341  0.1830 -0.9861
25181SOL     OW77549   2.902   7.139  10.043  0.3683 -0.4812 -0.0642
25181SOL    HW177550   2.857   7.070  10.091  1.0314 -0.4620  0.6038
25181SOL    HW277551   2.846   7.156   9.968 -1.3232  0.3685  1.3405
25182SOL     OW77552   7.983   3.373   0.104 -0.1246 -0.3888  0.4110
25182SOL    HW177553   8.065   3.383   0.055 -1.8256 -1.5761 -2.9557
25182SOL    HW277554   7.920   3.428   0.058 -1.3117  0.4937  2.9244
25183SOL     OW77555   2.240   8.914   2.019  0.8367  0.1191  0.0135
25183SOL    HW177556   2.173   8.848   2.041  0.3019  0.8907  0.7373
25183SOL    HW277557   2.203   8.997   2.049  1.4669  0.7767 -0.9786
25184SOL     OW77558   7.709   0.550   7.902  0.2635  0.3686 -0.3036
25184SOL    HW177559   7.771   0.531   7.832 -2.3353 -1.2913 -2.3485
25184SOL    HW277560   7.700   0.645   7.902  1.7042  0.5211 -0.9218
25185SOL     OW77561   8.663   3.259  10.336 -0.0356 -0.8056 -0.3638
25185SOL    HW177562   8.722   3.216  10.398  1.8084  2.6208  0.5701
25185SOL    HW277563   8.616   3.323  10.389  0.5014  1.2127 -2.1657
25186SOL     OW77564   6.635  10.138  10.281  0.1110 -0.2990 -0.7394
25186SOL    HW177565   6.552  10.150  10.234 -1.0893 -0.4706  1.2306
25186SOL    HW277566   6.617  10.170  10.369  2.0766 -0.6206 -0.1834
25187SOL     OW77567   9.596   6.692   2.289 -0.1845  0.0787  0.7322
25187SOL    HW177568   9.652   6.664   2.216  0.5167 -0.5184  1.4848
25187SOL    HW277569   9.570   6.610   2.332 -1.6720  0.3363  0.3948
25188SOL     OW77570  11.070   3.770   7.551  0.3106 -0.3196  0.1954
25188SOL    HW177571  11.146   3.716   7.529  0.1469 -1.4066  2.1120
25188SOL    HW277572  11.005   3.747   7.484  0.7665 -1.3554  0.0845
25189SOL     OW77573   1.453   5.762   9.594  0.3712 -0.0154  0.5339
25189SOL    HW177574   1.498   5.769   9.510 -0.0659 -1.6939  0.1184
25189SOL    HW277575   1.360   5.763   9.571  0.2295  0.5871  1.1141
25190SOL     OW77576   6.823  10.102  10.862  0.5796  0.0908  0.0152
25190SOL    HW177577   6.773  10.035  10.908  3.2698 -1.0384  1.5038
25190SOL    HW277578   6.800  10.090  10.770  1.3902 -3.3370  0.1389
25191SOL     OW77579   0.141   5.173  10.136 -0.0788 -0.4426 -0.3950
25191SOL    HW177580   0.087   5.236  10.183  0.4392 -1.2567  1.3982
25191SOL    HW277581   0.223   5.171  10.185  0.5363 -1.2849 -1.4050
25192SOL     OW77582   7.364   0.093   1.387  0.3034 -0.1746  0.2068
25192SOL    HW177583   7.358   0.188   1.382  0.0636 -0.2053 -0.1579
25192SOL    HW277584   7.273   0.063   1.376  0.3753 -0.4440  0.3408
25193SOL     OW77585  10.334   6.245   7.334  0.1778 -0.2212 -0.2416
25193SOL    HW177586  10.360   6.173   7.277  0.4709  1.2852 -2.1303
25193SOL    HW277587  10.414   6.266   7.383  1.1087  0.8867 -2.0962
25194SOL     OW77588   6.160   2.906   7.211 -0.4560  0.4736 -0.7544
25194SOL    HW177589   6.170   3.001   7.204  0.4255  0.4743  0.2441
25194SOL    HW277590   6.066   2.891   7.202 -1.0018  1.7414  1.9028
25195SOL     OW77591   2.930   2.126   2.482 -0.6365  0.8768  0.5459
25195SOL    HW177592   2.991   2.154   2.414 -1.6738  0.0577 -0.7818
25195SOL    HW277593   2.968   2.046   2.518 -0.9832  0.2671 -0.4040
25196SOL     OW77594   9.638   5.734   9.608  0.5687  0.1960 -0.0107
25196SOL    HW177595   9.721   5.731   9.560  0.6051 -2.7053  0.0454
25196SOL    HW277596   9.571   5.739   9.540  0.7274 -0.0980 -0.1881
25197SOL     OW77597   1.641   9.028   5.530 -0.8860 -0.7358 -1.1791
25197SOL    HW177598   1.555   9.028   5.487 -1.9737  2.0043  0.6915
25197SOL    HW277599   1.688   9.100   5.489 -0.1847 -1.0416 -0.9172
25198SOL     OW77600   3.421  10.614   0.382 -0.2747 -0.2144  0.1422
25198SOL    HW177601   3.390  10.704   0.370  3.8328  1.2528 -1.1642
25198SOL    HW277602   3.367  10.580   0.454 -1.9874  3.2586  0.7320
25199SOL     OW77603   4.264   0.987   7.728  0.0607 -0.1224  0.0457
25199SOL    HW177604   4.223   0.961   7.811  0.1120  0.8689  0.3962
25199SOL    HW277605   4.358   0.979   7.745  0.2900  3.3760  1.3248
25200SOL     OW77606   2.793   6.686   9.563  0.8639  0.2586 -0.0878
25200SOL    HW177607   2.699   6.670   9.572  0.8313  1.0312  1.2687
25200SOL    HW277608   2.817   6.732   9.644  2.9155 -2.2833  0.8853
25201SOL     OW77609  10.392   2.977   3.032 -0.6734  0.8358  0.1202
25201SOL    HW177610  10.411   3.015   3.118  0.4675  1.5301 -0.4169
25201SOL    HW277611  10.463   2.914   3.018 -3.1215 -2.5771  1.5254
25202SOL     OW77612   8.804   2.495   8.408  0.0110 -0.2279 -0.0020
25202SOL    HW177613   8.787   2.585   8.382 -1.5649  0.1311  1.9694
25202SOL    HW277614   8.756   2.485   8.491  3.2790 -1.6798  1.9073
25203SOL     OW77615   2.112   5.203   4.532 -0.3599 -0.4180  0.4234
25203SOL    HW177616   2.114   5.296   4.508  0.0159 -0.5742 -0.1790
25203SOL    HW277617   2.159   5.159   4.461 -1.5343 -1.2074  0.1065
25204SOL     OW77618   4.101   8.891   2.904 -0.5202  0.7327  0.0374
25204SOL    HW177619   4.037   8.958   2.881  0.4964  1.8389  0.3505
25204SOL    HW277620   4.060   8.842   2.976  0.0049  3.1471  2.1311
25205SOL     OW77621   0.343   4.689   8.681 -0.8100  0.9003 -0.2065
25205SOL    HW177622   0.290   4.674   8.602 -0.6938 -0.2367 -0.0952
25205SOL    HW277623   0.315   4.620   8.741  0.8667  0.2014 -0.1882
25206SOL     OW77624   2.645   4.031   2.937 -0.1941 -0.0504  0.7329
25206SOL    HW177625   2.712   3.981   2.891  1.6785  1.8927  1.1656
25206SOL    HW277626   2.678   4.121   2.936 -2.2783  0.7953  1.9680
25207SOL     OW77627   5.861   2.307   4.709 -0.1190 -0.1823 -0.2330
25207SOL    HW177628   5.873   2.398   4.733  0.3239  0.2798 -2.0290
25207SOL    HW277629   5.936   2.287   4.653 -0.5344 -1.4595 -0.3626
25208SOL     OW77630   4.177   9.064   8.339  0.3760 -0.4552  0.3546
25208SOL    HW177631   4.223   9.146   8.324 -0.4344  0.2699  1.7116
25208SOL    HW277632   4.107   9.086   8.400 -0.9840 -1.7871 -0.6484
25209SOL     OW77633   3.537   8.207   8.499 -0.1352 -0.1536  0.4307
25209SOL    HW177634   3.470   8.196   8.431  0.0922 -0.3702  0.2381
25209SOL    HW277635   3.562   8.118   8.522  0.5369 -0.0676  0.0519
25210SOL     OW77636   1.446   3.192   5.139 -0.0660 -0.3264  0.5061
25210SOL    HW177637   1.468   3.107   5.177  2.4492 -0.2145 -0.5041
25210SOL    HW277638   1.523   3.246   5.155 -1.6662  1.8736  1.2724
25211SOL     OW77639   7.001   4.425   1.350  0.0384  0.0898  0.1563
25211SOL    HW177640   6.971   4.375   1.426 -0.0559 -0.7118 -0.3888
25211SOL    HW277641   7.023   4.358   1.285  2.4699  0.6451  0.3179
25212SOL     OW77642   7.405   7.862   8.445  0.0954  0.4133 -0.0470
25212SOL    HW177643   7.329   7.851   8.502 -0.7220  0.2933 -1.1205
25212SOL    HW277644   7.454   7.780   8.453 -0.6980 -0.1187 -0.4867
25213SOL     OW77645   2.384   4.027   8.661 -0.1233 -0.0742 -0.4884
25213SOL    HW177646   2.327   4.085   8.611 -2.5233 -2.2985 -0.5083
25213SOL    HW277647   2.398   3.952   8.603  1.9356 -0.1163 -0.0137
25214SOL     OW77648   7.113   7.834   1.092  0.2664 -0.1820  0.1449
25214SOL    HW177649   7.184   7.777   1.061 -1.1981 -1.4409 -1.0360
25214SOL    HW277650   7.068   7.783   1.159  1.0530  1.0292  1.6697
25215SOL     OW77651   9.010  10.525   0.124 -0.1696 -0.2875  0.1332
25215SOL    HW177652   8.947  10.455   0.107  0.9094 -1.7270  1.6840
25215SOL    HW277653   8.956  10.602   0.145 -1.3781 -0.8604 -0.7675
25216SOL     OW77654   7.367   2.056   2.061  0.1372 -0.5106 -1.3245
25216SOL    HW177655   7.287   2.097   2.093  0.6452  0.0518 -0.7414
25216SOL    HW277656   7.337   1.989   2.000 -0.9204 -1.8379  0.5394
25217SOL     OW77657   7.595   7.992   2.870 -0.6611  0.5471 -0.1934
25217SOL    HW177658   7.659   7.988   2.941 -0.4897  2.6494 -0.1643
25217SOL    HW277659   7.610   7.913   2.819  0.9360  0.2522  0.6738
25218SOL     OW77660   0.112   0.274   3.352 -0.7901 -0.1335  0.1001
25218SOL    HW177661   0.120   0.369   3.347 -3.9324  0.2535 -0.1517
25218SOL    HW277662   0.202   0.242   3.353  0.4352  2.8833  1.6153
25219SOL     OW77663   9.089   7.358   2.332  0.3188 -0.3964 -0.4575
25219SOL    HW177664   9.057   7.403   2.254  0.7579  0.2385 -0.2816
25219SOL    HW277665   9.034   7.281   2.340 -2.7092  1.7044  1.0564
25220SOL     OW77666   6.226   6.951   0.053 -0.0016 -0.0974 -0.3520
25220SOL    HW177667   6.261   6.880  -0.001 -2.2004 -0.0029 -2.0791
25220SOL    HW277668   6.153   6.910   0.101 -1.8377  1.0739 -2.0031
25221SOL     OW77669   2.763   9.161   4.968 -0.0736  0.1128 -0.7272
25221SOL    HW177670   2.688   9.210   5.001  1.5888  2.9857 -0.8849
25221SOL    HW277671   2.781   9.096   5.037 -1.8753  0.2171 -0.1073
25222SOL     OW77672   5.646   4.825   9.640  0.6188 -0.6978  0.1560
25222SOL    HW177673   5.623   4.769   9.565  0.3774  0.0629 -0.3520
25222SOL    HW277674   5.562   4.850   9.677  0.7469 -1.3310  0.8843
25223SOL     OW77675   8.262   2.311  10.916 -1.0644 -0.1189  0.0197
25223SOL    HW177676   8.189   2.370  10.899 -0.4571  0.2338 -1.5628
25223SOL    HW277677   8.228   2.249  10.981 -2.0129  1.3679  1.0211
25224SOL     OW77678  10.086   3.829   2.424 -0.0353  0.3402  1.0901
25224SOL    HW177679  10.068   3.912   2.379 -2.6006 -1.2541 -1.1222
25224SOL    HW277680  10.136   3.778   2.361 -1.1935 -0.8980  1.1307
25225SOL     OW77681   1.416   0.499   8.478  0.2068  0.0525 -0.0736
25225SOL    HW177682   1.379   0.534   8.397 -2.4531 -0.8555  0.6479
25225SOL    HW277683   1.438   0.408   8.458 -0.0271 -0.0441  0.1095
25226SOL     OW77684  10.676   7.166   5.213  0.4589 -0.0545  0.2996
25226SOL    HW177685  10.672   7.099   5.281 -1.4702  0.2048  0.4831
25226SOL    HW277686  10.666   7.249   5.260  0.2761  0.2049 -0.1869
25227SOL     OW77687   3.502   0.239   5.095  0.0951  0.0450  0.3010
25227SOL    HW177688   3.549   0.320   5.115 -0.4601  0.6188 -0.6209
25227SOL    HW277689   3.433   0.234   5.160  0.8841 -0.3518  1.1291
25228SOL     OW77690   8.499   2.516   2.892  0.3967 -0.2639 -0.3232
25228SOL    HW177691   8.487   2.605   2.858  1.7487 -0.1962 -0.6650
25228SOL    HW277692   8.533   2.466   2.818  0.1242 -0.9511  0.0050
25229SOL     OW77693   5.220   4.381   6.536 -0.3044  0.2860  0.0675
25229SOL    HW177694   5.146   4.406   6.481 -0.9901 -0.7212  0.4871
25229SOL    HW277695   5.186   4.309   6.590  1.4854 -1.4346 -0.9818
25230SOL     OW77696   8.493   7.015   1.952  0.1001 -0.2157 -0.9501
25230SOL    HW177697   8.537   6.944   1.906  0.5612 -0.9596  0.5714
25230SOL    HW277698   8.471   6.978   2.037  2.3327  2.0389  0.7816
25231SOL     OW77699   6.435   6.386   1.920 -0.0402  0.1544 -0.5244
25231SOL    HW177700   6.341   6.376   1.902 -0.0934  1.4976 -1.1190
25231SOL    HW277701   6.438   6.436   2.002  0.1303  1.0655 -1.0731
25232SOL     OW77702   1.397   6.311  10.287 -0.2152 -0.0505 -0.4350
25232SOL    HW177703   1.371   6.226  10.250  1.4938 -0.8874  0.1478
25232SOL    HW277704   1.463   6.289  10.353  3.1675  1.8543 -2.8195
25233SOL     OW77705   2.298   6.880  10.813  0.5416 -0.4213 -0.3817
25233SOL    HW177706   2.377   6.927  10.839  0.7650 -0.6503 -0.6469
25233SOL    HW277707   2.243   6.881  10.892 -0.0710  1.5059 -0.7558
25234SOL     OW77708  10.192   7.756   3.797  0.1432  0.2845  0.0823
25234SOL    HW177709  10.205   7.703   3.719  0.3943  0.6362 -0.1165
25234SOL    HW277710  10.110   7.723   3.835  1.1174 -1.3550  0.8718
25235SOL     OW77711   9.886   7.586   3.364  0.7703 -0.2837  0.1992
25235SOL    HW177712   9.813   7.536   3.327 -0.4219  1.0511  0.6654
25235SOL    HW277713   9.929   7.626   3.288 -0.4511  0.8412  0.0740
25236SOL     OW77714   5.116   3.134   8.042  0.0618  0.3737  0.7417
25236SOL    HW177715   5.151   3.059   8.089  2.6693  1.1186  0.1313
25236SOL    HW277716   5.100   3.101   7.953  2.0941  0.6956  0.2134
25237SOL     OW77717   1.088   4.501   1.008 -0.7332 -0.0697 -0.1572
25237SOL    HW177718   1.027   4.563   0.968  0.3467  1.4767  0.4965
25237SOL    HW277719   1.166   4.505   0.953 -0.6367 -0.8406 -0.0872
25238SOL     OW77720   5.390   3.255   1.486 -0.1819 -0.3699  0.2631
25238SOL    HW177721   5.343   3.215   1.558 -0.2434 -1.4963 -0.3722
25238SOL    HW277722   5.480   3.223   1.496 -0.0693 -0.0948  0.1470
25239SOL     OW77723   3.775   8.960   5.102  0.1144  0.0766  0.0679
25239SOL    HW177724   3.818   9.044   5.119  0.9415 -0.2730 -0.2841
25239SOL    HW277725   3.819   8.898   5.160 -0.6211 -0.0959  0.4659
25240SOL     OW77726   7.796   5.067  10.806 -0.1647 -0.2823 -0.5846
25240SOL    HW177727   7.831   5.026  10.727  2.0383  1.0592 -0.3775
25240SOL    HW277728   7.757   5.148  10.776 -1.8818 -1.0786 -0.6108
25241SOL     OW77729   7.069   1.239   0.961 -0.8832 -0.0141  0.3120
25241SOL    HW177730   7.129   1.203   0.897 -2.2781 -0.6148 -0.7065
25241SOL    HW277731   7.115   1.315   0.998  0.9016 -1.0905  0.3778
25242SOL     OW77732  10.264   2.244   4.151  0.3007  0.3127  0.4138
25242SOL    HW177733  10.239   2.218   4.239  0.2762 -2.6381 -0.3356
25242SOL    HW277734  10.186   2.229   4.098  0.8830  0.0618 -0.4119
25243SOL     OW77735   3.291   0.297   2.133  0.3268 -0.7492  0.1490
25243SOL    HW177736   3.233   0.221   2.138 -1.1236  0.0692 -2.3430
25243SOL    HW277737   3.349   0.278   2.059 -3.1100  2.2508 -3.8093
25244SOL     OW77738   5.466  10.695   2.846  0.1729 -0.5414 -0.7879
25244SOL    HW177739   5.472  10.717   2.753 -1.4973  0.4101 -0.7011
25244SOL    HW277740   5.382  10.731   2.874  1.8921  1.9648  1.8112
25245SOL     OW77741   3.291   4.560   1.140  0.5690  0.6661 -0.2183
25245SOL    HW177742   3.324   4.643   1.173 -2.9440  2.1067  0.1778
25245SOL    HW277743   3.198   4.561   1.162  0.1374 -2.8955 -1.2501
25246SOL     OW77744   3.654   2.183   6.970 -0.2421  0.2830  0.0306
25246SOL    HW177745   3.629   2.274   6.955 -1.4112  0.8768  4.1732
25246SOL    HW277746   3.742   2.189   7.008 -0.6200 -0.1834  1.0085
25247SOL     OW77747   9.516   7.037  10.125 -0.0236 -0.5875  0.2300
25247SOL    HW177748   9.513   7.110  10.063  0.0627 -0.4716  0.3615
25247SOL    HW277749   9.529   6.959  10.070  0.5934 -0.4277  0.1412
25248SOL     OW77750   8.329   5.111   2.032 -0.1022  0.0451  0.3545
25248SOL    HW177751   8.363   5.160   2.107  0.8907 -0.6448  0.3741
25248SOL    HW277752   8.332   5.020   2.060 -1.8085 -0.0726  0.2661
25249SOL     OW77753  10.473   3.620   6.329  0.1669 -0.6306  0.3408
25249SOL    HW177754  10.424   3.640   6.249 -0.0863  0.7648  0.8047
25249SOL    HW277755  10.417   3.652   6.400  2.4124  2.8331  0.8087
25250SOL     OW77756   7.646   5.709   0.269 -0.3186  1.1209 -0.4368
25250SOL    HW177757   7.654   5.720   0.174 -1.5820 -0.5447 -0.7789
25250SOL    HW277758   7.735   5.690   0.299 -0.2105 -0.3650 -1.6035
25251SOL     OW77759   1.647   9.837   3.847 -0.1408 -0.4957  0.4586
25251SOL    HW177760   1.562   9.879   3.830 -0.1632 -1.2312 -1.5780
25251SOL    HW277761   1.670   9.797   3.763  2.6998  0.4810  0.6758
25252SOL     OW77762   5.755   3.702  11.003 -0.3880 -1.6335 -0.3878
25252SOL    HW177763   5.813   3.637  10.962  1.5168 -1.7727  2.2899
25252SOL    HW277764   5.692   3.650  11.052  1.0800 -1.5493  1.6817
25253SOL     OW77765   4.593   7.192   7.253 -0.1174  0.4614 -0.4045
25253SOL    HW177766   4.557   7.173   7.340 -0.8260 -2.0773 -1.1779
25253SOL    HW277767   4.624   7.108   7.220  0.0337  1.3230 -2.6766
25254SOL     OW77768   9.207  10.266   0.600  0.0587 -0.4951  0.0771
25254SOL    HW177769   9.197  10.198   0.667 -2.1698  0.6257  0.9644
25254SOL    HW277770   9.189  10.221   0.518 -1.8865 -0.9337  0.6983
25255SOL     OW77771   0.324   2.424  10.054  0.2123  0.4009 -0.2430
25255SOL    HW177772   0.254   2.365  10.028 -0.2109  1.0233 -0.5263
25255SOL    HW277773   0.386   2.368  10.101 -0.4862 -0.1455  0.0468
25256SOL     OW77774   7.430   0.905   6.156  0.0253 -0.0838 -0.2110
25256SOL    HW177775   7.413   0.825   6.106  0.0926 -1.0587  1.2600
25256SOL    HW277776   7.374   0.897   6.233 -0.9757  1.9539 -0.6823
25257SOL     OW77777   4.952   3.293   0.959 -0.4775 -0.1867 -0.4064
25257SOL    HW177778   4.968   3.226   1.026 -1.3122  0.0981  0.0883
25257SOL    HW277779   5.026   3.353   0.967  0.0405 -0.7895 -0.5440
25258SOL     OW77780  10.587  11.090   0.305  0.6991  0.1636  0.2562
25258SOL    HW177781  10.551  11.171   0.269  1.7475  0.7830  0.5549
25258SOL    HW277782  10.656  11.119   0.365  1.0575 -0.9487  0.4037
25259SOL     OW77783   2.215   3.751   5.428 -0.1653 -0.3566 -0.4724
25259SOL    HW177784   2.265   3.680   5.468 -0.8198  0.7279  2.4558
25259SOL    HW277785   2.195   3.811   5.499  0.2375  2.7944 -2.7809
25260SOL     OW77786   3.847  10.351   8.485 -0.5204  0.7654  0.0712
25260SOL    HW177787   3.869  10.397   8.566  0.0863  1.4700 -0.4834
25260SOL    HW277788   3.834  10.260   8.512  3.9724 -0.0075  0.4194
25261SOL     OW77789   7.441   7.673   1.922 -0.2597 -0.3163 -0.0798
25261SOL    HW177790   7.494   7.594   1.907 -0.0055 -0.6131  2.0706
25261SOL    HW277791   7.444   7.720   1.839 -0.3346 -2.5116 -1.4056
25262SOL     OW77792   3.054   5.934   1.284 -0.2135  0.0013 -0.0743
25262SOL    HW177793   3.027   5.995   1.217  1.4736  1.8050  0.7744
25262SOL    HW277794   3.150   5.938   1.283 -0.0418 -2.4654  0.1913
25263SOL     OW77795   5.737   3.094   4.901 -0.7426 -0.5811  0.0356
25263SOL    HW177796   5.723   3.055   4.815  0.9881  0.8550 -0.9666
25263SOL    HW277797   5.819   3.054   4.932 -0.3743  0.2463  0.1672
25264SOL     OW77798  10.567   9.435   3.940 -0.7205  0.5542 -0.0315
25264SOL    HW177799  10.640   9.497   3.938  0.0677 -0.1966  2.5309
25264SOL    HW277800  10.507   9.471   4.006 -3.6012  1.9904 -3.0931
25265SOL     OW77801   6.646   1.228   9.927  0.4938 -0.7148 -0.1712
25265SOL    HW177802   6.737   1.209   9.953  0.0805 -0.7317  1.3401
25265SOL    HW277803   6.637   1.185   9.842  1.3620 -2.3279  0.4824
25266SOL     OW77804   2.195   2.072   6.956 -0.0106  0.8911  0.4605
25266SOL    HW177805   2.152   2.143   6.907 -0.2892  0.8523  0.6489
25266SOL    HW277806   2.195   1.999   6.894 -2.3644  0.1360  1.2255
25267SOL     OW77807   9.679   0.921   7.283 -0.4251 -0.4257 -0.4465
25267SOL    HW177808   9.600   0.873   7.257 -1.8876  1.5037  0.1397
25267SOL    HW277809   9.647   0.987   7.345  1.7518  0.1093  0.1923
25268SOL     OW77810   9.533  11.014   7.381  0.0147  0.0046  0.0871
25268SOL    HW177811   9.493  10.941   7.333 -1.5807  0.3859  0.7789
25268SOL    HW277812   9.461  11.052   7.431  1.2603  0.7465  1.3913
25269SOL     OW77813   4.250   0.190   8.603 -0.4058  0.0634 -0.3002
25269SOL    HW177814   4.307   0.175   8.678 -1.0820 -1.6799 -0.0845
25269SOL    HW277815   4.242   0.104   8.561 -1.2439  0.6942 -1.4944
25270SOL     OW77816   1.252   3.057   2.991  0.6500  0.0842 -0.1304
25270SOL    HW177817   1.220   3.118   3.058 -0.2695 -1.0391  0.4983
25270SOL    HW277818   1.347   3.053   3.006  0.4711 -0.0988  1.0750
25271SOL     OW77819   8.201   6.212   7.371 -0.3249 -0.1108  0.4275
25271SOL    HW177820   8.160   6.298   7.371  0.3343  0.2180 -0.4520
25271SOL    HW277821   8.148   6.160   7.431 -1.2075  0.6809  0.3517
25272SOL     OW77822   9.060   1.262   8.569  0.2605  0.0688  0.5431
25272SOL    HW177823   9.014   1.313   8.502 -0.3618 -1.9026 -0.6224
25272SOL    HW277824   9.021   1.290   8.651 -1.5207  0.0126 -0.2414
25273SOL     OW77825   5.676   0.747   4.600  0.0046  0.1060 -0.2582
25273SOL    HW177826   5.689   0.674   4.661 -0.1728  0.5110  0.2693
25273SOL    HW277827   5.582   0.764   4.603  0.0916  0.5818 -0.1088
25274SOL     OW77828   5.601   1.571   2.104 -0.0876 -0.3149  0.0157
25274SOL    HW177829   5.600   1.598   2.196  3.4540 -0.7088  0.3099
25274SOL    HW277830   5.600   1.653   2.055 -2.0931 -0.1047  0.3175
25275SOL     OW77831   0.586   2.788   3.947  0.5921 -0.1971 -0.5462
25275SOL    HW177832   0.527   2.860   3.924  0.5999 -0.4856 -1.5233
25275SOL    HW277833   0.600   2.741   3.864 -1.3048 -2.7195  0.4158
25276SOL     OW77834   2.271   9.798   5.468  1.1571 -0.2327  0.0086
25276SOL    HW177835   2.177   9.806   5.450  0.8484  0.7314  1.8082
25276SOL    HW277836   2.286   9.704   5.478  0.4107 -0.4010 -0.3837
25277SOL     OW77837   3.698   2.638  10.599 -0.1450 -0.2079  0.2412
25277SOL    HW177838   3.669   2.704  10.536 -1.9562 -1.2452 -0.0707
25277SOL    HW277839   3.790   2.624  10.578 -0.2744  0.7132 -1.0380
25278SOL     OW77840   3.197   4.893   3.378 -0.1948 -0.3328  0.5666
25278SOL    HW177841   3.236   4.805   3.376  2.2379  0.6505  0.8889
25278SOL    HW277842   3.250   4.943   3.315 -0.5113  1.2715  1.5369
25279SOL     OW77843   7.917   1.431   6.388  0.2351  0.3417 -0.6204
25279SOL    HW177844   7.964   1.496   6.441  0.3121  0.1809 -0.4906
25279SOL    HW277845   7.965   1.429   6.305 -1.0037  1.9878 -1.4396
25280SOL     OW77846   3.493   2.021   1.756 -0.0927 -0.5404 -0.3467
25280SOL    HW177847   3.433   2.094   1.741 -0.7622 -1.0990 -0.4302
25280SOL    HW277848   3.437   1.944   1.762  0.7117 -1.2563 -1.5987
25281SOL     OW77849   7.049   0.958  10.804  0.0341 -0.4548  0.2358
25281SOL    HW177850   6.967   0.996  10.835  1.0822  0.4064  2.1716
25281SOL    HW277851   7.080   0.904  10.877  2.1543  0.8672  0.4127
25282SOL     OW77852   4.116   0.775   6.895  0.7456 -0.3711  0.1055
25282SOL    HW177853   4.116   0.687   6.859 -1.8977  0.3712 -2.0765
25282SOL    HW277854   4.102   0.832   6.819  1.0426  1.8506  1.6053
25283SOL     OW77855   4.213   2.566   7.718 -0.4661  0.5414 -0.0793
25283SOL    HW177856   4.243   2.494   7.774  0.6637  0.6807 -0.4845
25283SOL    HW277857   4.119   2.549   7.705 -0.5549  0.0083  1.0979
25284SOL     OW77858   0.099   1.630   6.008 -0.0788 -0.1573  0.5979
25284SOL    HW177859   0.185   1.636   6.051 -0.0313 -0.0767  0.4914
25284SOL    HW277860   0.073   1.721   5.994 -0.0149 -0.1863  0.2955
25285SOL     OW77861   8.392   6.010   9.260 -0.1377 -0.1985 -0.2557
25285SOL    HW177862   8.369   6.070   9.331  1.6078  0.7895 -0.4798
25285SOL    HW277863   8.366   6.056   9.180  2.2643  0.8607 -0.5034
25286SOL     OW77864   2.741   5.823   6.797  0.3876 -0.2520  0.0533
25286SOL    HW177865   2.662   5.858   6.756  0.7377  0.7715  0.2399
25286SOL    HW277866   2.730   5.841   6.890  1.3344  0.9118 -0.0414
25287SOL     OW77867   4.082   2.036   3.992 -0.4006  0.3668 -0.1276
25287SOL    HW177868   4.054   2.019   4.082 -0.1648  0.1050 -0.1024
25287SOL    HW277869   4.058   2.127   3.976  1.4279  1.0670  0.8960
25288SOL     OW77870   5.684   7.882   2.085 -0.2535  0.0931  0.2617
25288SOL    HW177871   5.622   7.858   2.154 -2.5464  3.6413 -0.3262
25288SOL    HW277872   5.637   7.866   2.003  0.9827 -0.3990 -0.3947
25289SOL     OW77873  10.135   2.547  10.910 -0.3870  0.2325 -0.2919
25289SOL    HW177874  10.202   2.517  10.849 -1.2829  0.4428 -1.3999
25289SOL    HW277875  10.151   2.641  10.918 -0.8419  0.3700 -0.9404
25290SOL     OW77876   4.098   3.465  10.448  0.4170  1.2564 -0.0562
25290SOL    HW177877   4.058   3.522  10.514 -1.2068 -0.3305  0.4160
25290SOL    HW277878   4.170   3.423  10.495 -2.0244 -1.5219  1.5978
25291SOL     OW77879  10.610   7.226   8.695 -0.4071 -0.3508  0.4247
25291SOL    HW177880  10.611   7.131   8.702 -1.3524 -0.6287 -2.0472
25291SOL    HW277881  10.539   7.245   8.632  1.5925  1.7486 -1.4006
25292SOL     OW77882   7.520   7.887   6.029  0.1080  0.2163  0.7483
25292SOL    HW177883   7.509   7.795   6.006  1.0747  0.0665  0.8518
25292SOL    HW277884   7.526   7.932   5.944  0.6119  0.0572  0.6993
25293SOL     OW77885   1.386   7.771   6.435 -0.1562  0.0369  0.3476
25293SOL    HW177886   1.407   7.775   6.528  2.7105 -0.9761 -0.1541
25293SOL    HW277887   1.342   7.687   6.424  0.8826 -0.5413  0.5627
25294SOL     OW77888   9.472   8.121   9.700 -0.1265  0.3989  0.1642
25294SOL    HW177889   9.500   8.180   9.630  1.8267 -0.2184  0.3692
25294SOL    HW277890   9.486   8.033   9.665  2.8740  0.0275  1.9243
25295SOL     OW77891   4.995   3.817  10.219 -0.1461  0.4508  0.5572
25295SOL    HW177892   5.015   3.725  10.237 -0.0797  0.0852 -1.2076
25295SOL    HW277893   5.007   3.860  10.303 -1.6819 -1.3780  1.8170
25296SOL     OW77894   1.466   0.854   9.090 -1.0679  0.2313  0.6642
25296SOL    HW177895   1.408   0.904   9.033 -1.0276 -1.5891 -1.0782
25296SOL    HW277896   1.429   0.767   9.093  0.8721 -0.6558  0.5320
25297SOL     OW77897   1.465   8.856   4.877 -0.0684 -0.3429  0.1402
25297SOL    HW177898   1.435   8.931   4.826  1.2710  1.2679  1.5734
25297SOL    HW277899   1.384   8.813   4.906 -0.8538 -0.2951 -1.8499
25298SOL     OW77900   3.776   3.226  10.809  0.0206 -0.2508  0.8239
25298SOL    HW177901   3.821   3.189  10.885 -0.7695 -0.7737  1.0525
25298SOL    HW277902   3.732   3.151  10.768  1.5312 -0.2383 -0.9620
25299SOL     OW77903   2.717   0.440   7.049  0.3705 -0.5544  0.1304
25299SOL    HW177904   2.810   0.463   7.044  0.1267  0.9054  1.5068
25299SOL    HW277905   2.692   0.422   6.958  1.2880  2.1785 -0.7576
25300SOL     OW77906   7.528   4.144  11.062  0.3785  0.3757  0.3532
25300SOL    HW177907   7.614   4.107  11.083  0.5350  0.8094  0.4807
25300SOL    HW277908   7.466   4.075  11.085  0.7516 -0.3269 -0.6830
25301SOL     OW77909  10.009   1.860   7.774  0.1174  0.5351  0.7089
25301SOL    HW177910   9.955   1.783   7.790 -1.5449  1.7661  1.3050
25301SOL    HW277911  10.085   1.848   7.832  1.0336 -1.6736 -0.8427
25302SOL     OW77912   9.408   2.393   3.735  0.3841 -0.8572 -0.4884
25302SOL    HW177913   9.319   2.373   3.764  0.8661 -0.6071  1.3450
25302SOL    HW277914   9.459   2.315   3.758  0.9817 -0.2479  0.3424
25303SOL     OW77915   6.941   8.796   5.768  0.2500  0.1328  0.1805
25303SOL    HW177916   7.010   8.849   5.809  0.7131 -0.0593 -0.3232
25303SOL    HW277917   6.886   8.860   5.723 -0.0381  0.3091  0.7819
25304SOL     OW77918   2.793   4.008   1.791  0.1356  0.2588 -0.8675
25304SOL    HW177919   2.763   3.951   1.861  0.3083  1.3497  0.1196
25304SOL    HW277920   2.722   4.071   1.780  0.3371  0.4128 -1.3079
25305SOL     OW77921   9.190   6.160   0.307  0.3967 -0.5799  0.2711
25305SOL    HW177922   9.246   6.098   0.353 -2.2490 -3.4446 -0.0194
25305SOL    HW277923   9.177   6.122   0.220  0.5527  1.6806 -0.8183
25306SOL     OW77924   6.973   6.138   0.037  0.7548 -0.0133  0.2763
25306SOL    HW177925   6.887   6.169   0.009  1.7853  1.0727 -1.9177
25306SOL    HW277926   7.014   6.213   0.080  1.1116 -0.0903  0.0810
25307SOL     OW77927   7.239   2.614   8.937  0.1211 -0.1205  0.1439
25307SOL    HW177928   7.174   2.671   8.896  0.0947 -1.3556 -1.6366
25307SOL    HW277929   7.223   2.528   8.898  1.1524 -1.0189  1.6161
25308SOL     OW77930   9.947   2.681  10.646  0.2711 -0.8503 -0.2927
25308SOL    HW177931   9.966   2.593  10.614  3.5744 -0.4658  0.2665
25308SOL    HW277932  10.007   2.694  10.719 -1.4374  1.2215  0.8738
25309SOL     OW77933   0.825  10.027   7.114  0.5525 -0.2683 -0.0016
25309SOL    HW177934   0.801  10.085   7.185  2.5383  1.7037 -0.8001
25309SOL    HW277935   0.756  10.039   7.048  1.1686  1.6727 -0.3637
25310SOL     OW77936   0.607   2.875  10.629  0.6733 -0.0108  0.6445
25310SOL    HW177937   0.521   2.848  10.664 -0.6006  0.7459 -1.6929
25310SOL    HW277938   0.668   2.809  10.662 -0.6550 -0.2338  2.8917
25311SOL     OW77939   9.457   3.838   6.075  0.7665  0.1434  0.3423
25311SOL    HW177940   9.369   3.800   6.071  0.7038  0.4008 -1.1727
25311SOL    HW277941   9.513   3.771   6.035  1.6622 -0.9822  3.2378
25312SOL     OW77942   8.861   2.258   5.445  0.2051 -0.1507  0.5266
25312SOL    HW177943   8.808   2.253   5.366  0.4104 -2.7944  0.4696
25312SOL    HW277944   8.801   2.234   5.516 -0.0421  2.4181  1.2935
25313SOL     OW77945   5.546   1.637   9.468  0.3423 -0.0700  0.0088
25313SOL    HW177946   5.618   1.668   9.414  0.1671  1.6731  0.7069
25313SOL    HW277947   5.482   1.603   9.405  0.9324  0.1680 -0.7404
25314SOL     OW77948   5.079   2.801   3.362 -0.1823 -0.3515  0.1381
25314SOL    HW177949   5.064   2.896   3.370 -2.3208 -0.4669 -1.5389
25314SOL    HW277950   5.075   2.769   3.452 -3.0161  0.7544  0.5414
25315SOL     OW77951   2.449   3.816   4.111  0.2946 -0.0675  0.6761
25315SOL    HW177952   2.434   3.794   4.019 -1.4778 -0.0862  0.9331
25315SOL    HW277953   2.380   3.770   4.159  0.2720  1.1306  1.8609
25316SOL     OW77954  10.655  10.894   6.001 -0.2971  0.1079  0.4307
25316SOL    HW177955  10.744  10.909   6.031  0.1966  1.1835 -1.4141
25316SOL    HW277956  10.660  10.810   5.954  0.0683  0.7560 -0.7325
25317SOL     OW77957   7.015   4.301   6.191 -0.1132  0.0195  0.4701
25317SOL    HW177958   7.036   4.391   6.164  1.3006 -0.8624 -1.6357
25317SOL    HW277959   6.936   4.279   6.141 -0.8296  0.2683  1.4625
25318SOL     OW77960   2.630   2.949  10.278  0.0661  0.3925 -0.2493
25318SOL    HW177961   2.644   2.882  10.212  2.2423 -1.8425  2.2548
25318SOL    HW277962   2.550   2.923  10.323  0.0661  0.3472 -0.2753
25319SOL     OW77963   9.965   0.247   8.203  0.0765 -0.7183 -0.3011
25319SOL    HW177964   9.939   0.259   8.112  0.9873 -0.3847 -0.5302
25319SOL    HW277965  10.043   0.191   8.200  0.2753 -0.4902  0.2408
25320SOL     OW77966   7.346   4.132   2.830 -0.3715  0.4279 -0.4418
25320SOL    HW177967   7.324   4.160   2.919  0.4745  0.0969 -0.1257
25320SOL    HW277968   7.323   4.039   2.827  1.3560 -0.0411  0.0359
25321SOL     OW77969   3.160   4.089   7.329  0.5041  0.6976 -0.3850
25321SOL    HW177970   3.124   4.178   7.329  0.0727  0.6257  2.7681
25321SOL    HW277971   3.100   4.039   7.274 -0.5604  1.9006 -0.3659
25322SOL     OW77972   8.416   6.698   7.988 -0.4885  0.1373  0.0179
25322SOL    HW177973   8.455   6.651   7.915 -0.6892 -1.6956  1.0297
25322SOL    HW277974   8.323   6.703   7.968 -0.3729  0.7015 -0.3958
25323SOL     OW77975   4.976   6.443   4.427 -0.2663 -0.4044 -0.1185
25323SOL    HW177976   5.038   6.404   4.366 -1.8852 -2.1798 -0.7414
25323SOL    HW277977   4.954   6.528   4.389  0.3573 -0.5715 -0.8658
25324SOL     OW77978   8.392   6.278   6.817 -0.9497 -0.1054  0.6002
25324SOL    HW177979   8.357   6.242   6.898 -0.3227 -1.3918  0.3241
25324SOL    HW277980   8.383   6.207   6.753  2.6745 -0.8045  0.6632
25325SOL     OW77981   2.441   7.127   6.638 -0.0651  0.0412  0.2113
25325SOL    HW177982   2.523   7.153   6.597  0.1476  0.8131  1.0855
25325SOL    HW277983   2.462   7.122   6.731 -0.7427 -0.8315  0.3277
25326SOL     OW77984   8.250   3.202  10.134  0.0384  0.3190 -0.2021
25326SOL    HW177985   8.291   3.198  10.048 -0.5682 -0.4641 -0.4644
25326SOL    HW277986   8.278   3.121  10.178 -0.6280  0.1387 -0.1083
25327SOL     OW77987   6.342   0.177   6.262  0.1894 -0.0100  0.2741
25327SOL    HW177988   6.284   0.152   6.190  2.5487  0.5449 -1.9620
25327SOL    HW277989   6.283   0.207   6.331 -2.3181 -2.7903 -0.4366
25328SOL     OW77990   2.742   6.435   2.715 -0.4347  0.4027 -0.7818
25328SOL    HW177991   2.650   6.459   2.722 -0.7930 -1.3043  1.7860
25328SOL    HW277992   2.746   6.377   2.639 -1.4813  0.5529 -0.9571
25329SOL     OW77993   8.483  10.343   1.909 -0.7775 -0.0369 -0.1290
25329SOL    HW177994   8.430  10.382   1.979  3.5261  0.7855  3.1758
25329SOL    HW277995   8.474  10.249   1.922 -0.4611  0.1029  1.3288
25330SOL     OW77996   6.258  10.016   8.287 -0.0349  0.3732 -0.3751
25330SOL    HW177997   6.284   9.996   8.377 -0.6109  0.5365 -0.1647
25330SOL    HW277998   6.210   9.937   8.258  0.5275  0.1413 -0.6969
25331SOL     OW77999   1.012   8.941   0.488 -0.3013 -0.3560  0.3114
25331SOL    HW178000   1.069   9.012   0.457  0.2548 -1.0954 -0.4030
25331SOL    HW278001   0.988   8.968   0.577 -0.0531  0.6927  0.0852
25332SOL     OW78002   6.369   4.559   8.736  0.4254 -0.4390 -0.0121
25332SOL    HW178003   6.441   4.495   8.736 -1.1178 -2.3033 -1.0259
25332SOL    HW278004   6.366   4.591   8.646 -0.0598 -0.4300  0.0053
25333SOL     OW78005   0.205   3.025   7.770 -0.6460 -0.2066  0.1381
25333SOL    HW178006   0.259   2.981   7.836 -1.0473 -3.0695 -1.3353
25333SOL    HW278007   0.262   3.033   7.693 -1.0460  0.6224 -0.0872
25334SOL     OW78008   1.673   4.547   4.474  0.1817  0.5072  0.3782
25334SOL    HW178009   1.605   4.613   4.489  0.4788  0.6753  1.0048
25334SOL    HW278010   1.625   4.464   4.468 -0.0249  0.5178  1.5985
25335SOL     OW78011   9.331   3.478   9.504 -0.1117 -0.3950  0.0110
25335SOL    HW178012   9.358   3.570   9.497 -3.2555  0.5534 -1.5514
25335SOL    HW278013   9.325   3.462   9.598  2.8919  0.1063  0.3980
25336SOL     OW78014   1.173   3.459   1.859 -0.4408  0.4303 -0.0138
25336SOL    HW178015   1.122   3.463   1.940  0.9913 -1.2532  1.0444
25336SOL    HW278016   1.255   3.504   1.879 -0.2641  0.4293 -0.6901
25337SOL     OW78017   4.906   2.535   0.373 -0.0832 -0.1573  0.8444
25337SOL    HW178018   4.920   2.604   0.438 -0.5345 -0.7727  1.6168
25337SOL    HW278019   4.811   2.522   0.372 -0.3174  1.1739 -1.3717
25338SOL     OW78020   3.018   4.143   1.817 -0.2044  0.3836  0.2893
25338SOL    HW178021   2.945   4.092   1.850 -0.3121  0.5157  0.2578
25338SOL    HW278022   3.040   4.103   1.733  0.4560 -0.3259  0.7886
25339SOL     OW78023   9.409   9.142   0.867  0.4344 -0.3564  0.1143
25339SOL    HW178024   9.453   9.062   0.838  2.2560  0.4488  0.5579
25339SOL    HW278025   9.467   9.179   0.934 -0.4892  1.2194  0.0891
25340SOL     OW78026   0.396   5.284   9.722  0.5617 -0.0968  0.0999
25340SOL    HW178027   0.393   5.362   9.668 -1.0370  0.0756  0.3832
25340SOL    HW278028   0.329   5.299   9.790  0.6298 -1.4482  0.5036
25341SOL     OW78029   5.056   5.500  10.550  0.0590  0.2657 -0.0942
25341SOL    HW178030   5.085   5.436  10.485 -0.0449  1.3255 -1.2195
25341SOL    HW278031   5.114   5.486  10.625 -0.3035 -1.4738 -0.0955
25342SOL     OW78032   5.450   5.446   5.853 -0.4030 -0.4285  0.3268
25342SOL    HW178033   5.502   5.477   5.778 -0.5187  0.2531  0.5252
25342SOL    HW278034   5.515   5.423   5.919 -0.2243 -2.2777 -0.4176
25343SOL     OW78035   1.981   8.891   2.339  0.4165 -0.5056  0.4789
25343SOL    HW178036   1.898   8.872   2.295  0.2542 -0.3437  0.7121
25343SOL    HW278037   2.019   8.963   2.288  1.0318 -1.4270 -0.4029
25344SOL     OW78038   3.406   2.961   1.128  0.1286  0.2239  0.2212
25344SOL    HW178039   3.418   3.043   1.080  0.0068  0.4818  0.6220
25344SOL    HW278040   3.494   2.936   1.156  0.0409  0.8852  1.1646
25345SOL     OW78041  11.029   8.260   3.387  0.3036  0.3322  0.0721
25345SOL    HW178042  11.032   8.251   3.291 -3.0629  4.4571 -0.6960
25345SOL    HW278043  11.115   8.294   3.410  1.7312 -2.1619 -1.1152
25346SOL     OW78044   7.175   9.005   3.825  0.9092 -0.5666  0.1593
25346SOL    HW178045   7.235   8.931   3.832  1.5836  0.1258  2.4209
25346SOL    HW278046   7.131   9.009   3.909 -1.2354 -0.0938 -0.9056
25347SOL     OW78047  10.244   6.241   5.894  0.1848  0.6069 -0.5285
25347SOL    HW178048  10.254   6.334   5.913  3.5366  0.4611 -0.8732
25347SOL    HW278049  10.330   6.214   5.861 -0.5633 -2.6777 -0.1797
25348SOL     OW78050  10.541   3.754   8.353  0.6342  0.2859  0.0650
25348SOL    HW178051  10.496   3.837   8.367  1.8607  0.9673  0.0729
25348SOL    HW278052  10.557   3.721   8.441 -1.5668 -0.9678  0.0816
25349SOL     OW78053   1.072   3.684   2.768  0.7998 -0.3381 -0.4030
25349SOL    HW178054   1.082   3.755   2.705 -1.9964 -0.8584 -1.5259
25349SOL    HW278055   1.087   3.604   2.718  2.2080 -0.6823  0.4809
25350SOL     OW78056   2.316  10.018   3.784 -0.3705 -0.5066 -0.0272
25350SOL    HW178057   2.407   9.994   3.768  0.0907  0.1153  1.4945
25350SOL    HW278058   2.268   9.935   3.781  0.6268 -1.1870  1.4396
25351SOL     OW78059   9.730   0.630   7.194 -0.3140 -0.0690  0.4056
25351SOL    HW178060   9.692   0.694   7.133  0.8419  0.0771 -0.1896
25351SOL    HW278061   9.695   0.546   7.164 -1.2087  0.1907  0.6943
25352SOL     OW78062   6.282   4.841   1.336  0.0142  0.1859  0.0144
25352SOL    HW178063   6.226   4.769   1.365  1.6016 -1.9111 -1.8123
25352SOL    HW278064   6.357   4.838   1.396 -1.4491  2.7236  2.1934
25353SOL     OW78065  11.049   2.948   7.898  0.1186  0.3560 -0.0413
25353SOL    HW178066  11.016   3.030   7.935  2.2009  0.2416  2.3764
25353SOL    HW278067  11.135   2.971   7.863 -0.4182 -0.2778 -1.8629
25354SOL     OW78068   8.636   6.934   0.397 -1.3634 -0.3622 -0.8114
25354SOL    HW178069   8.718   6.931   0.348 -1.2151 -1.6679 -0.5167
25354SOL    HW278070   8.570   6.961   0.333 -0.4391  2.6585 -0.6321
25355SOL     OW78071   5.925   2.772   2.146 -0.8224 -0.3374 -0.0549
25355SOL    HW178072   5.901   2.684   2.119 -0.5841  0.1522 -1.9655
25355SOL    HW278073   5.850   2.826   2.124 -1.3170 -0.1418  1.8863
25356SOL     OW78074   8.211   2.293   4.682 -0.0156  0.3009  0.6288
25356SOL    HW178075   8.145   2.356   4.652  1.1977  0.9059 -0.8833
25356SOL    HW278076   8.229   2.239   4.605 -0.6454 -1.5919  1.7646
25357SOL     OW78077   4.050   9.111   3.205  0.7765  0.1322 -0.0194
25357SOL    HW178078   3.997   9.188   3.182  0.1870 -0.6066 -1.2108
25357SOL    HW278079   4.112   9.144   3.271  0.7997  1.7285 -0.7802
25358SOL     OW78080   6.302   6.807   7.709  0.1594 -0.2796  0.3333
25358SOL    HW178081   6.277   6.795   7.800 -0.5201 -1.3014  0.0323
25358SOL    HW278082   6.369   6.741   7.694  0.3025 -0.0839  0.1084
25359SOL     OW78083   9.421   5.376  10.214  0.0981  0.3774  0.3088
25359SOL    HW178084   9.509   5.357  10.247 -0.6159 -2.3666  0.8697
25359SOL    HW278085   9.381   5.430  10.282  0.7421  0.0529  0.9657
25360SOL     OW78086   5.050   4.123   3.934 -0.4489 -0.1546 -0.5657
25360SOL    HW178087   4.964   4.122   3.976 -0.2745  0.4319 -0.1764
25360SOL    HW278088   5.084   4.035   3.948 -0.3033  0.0904  0.7427
25361SOL     OW78089   0.516   6.325   1.615 -0.0300 -0.1718  0.5552
25361SOL    HW178090   0.473   6.257   1.666 -2.7752 -0.5247 -1.9902
25361SOL    HW278091   0.475   6.406   1.645  1.5077  0.1746  1.8727
25362SOL     OW78092   8.556   5.814   8.278 -0.4041 -0.4676 -1.1525
25362SOL    HW178093   8.577   5.722   8.258  1.2232 -0.4383  0.2093
25362SOL    HW278094   8.464   5.823   8.254 -1.4779 -3.2750  1.2777
25363SOL     OW78095   9.809   7.555   6.351 -0.0144 -0.0267 -0.0797
25363SOL    HW178096   9.787   7.519   6.437  0.8961 -3.0626 -0.9774
25363SOL    HW278097   9.903   7.539   6.342  0.4432  2.5612 -0.7082
25364SOL     OW78098   8.164   1.090   6.616 -0.5813  0.3044 -0.3703
25364SOL    HW178099   8.198   1.154   6.553  1.7091 -0.1747  0.2860
25364SOL    HW278100   8.154   1.138   6.698 -0.0310  0.1018 -0.1824
25365SOL     OW78101   2.994   8.390   0.393  0.2685 -0.8270 -0.3410
25365SOL    HW178102   2.938   8.467   0.389  1.9732  0.5625  1.0441
25365SOL    HW278103   3.078   8.419   0.357  0.3506 -2.7054 -1.8854
25366SOL     OW78104   2.008   1.876   6.021  0.3983  0.0379  0.3269
25366SOL    HW178105   2.008   1.810   5.952 -0.8178  0.2574  0.1013
25366SOL    HW278106   1.961   1.950   5.984 -1.5971 -0.3773  1.8272
25367SOL     OW78107   3.292   9.448   3.461 -0.4744  0.3561 -0.4936
25367SOL    HW178108   3.222   9.509   3.440 -0.5009  1.0128  1.3318
25367SOL    HW278109   3.254   9.389   3.526  0.1466 -0.3726 -0.7835
25368SOL     OW78110  10.957   8.262  10.521 -0.7874  0.1724  0.0492
25368SOL    HW178111  10.890   8.260  10.452 -0.3236 -0.4300 -0.3877
25368SOL    HW278112  11.022   8.324  10.490 -0.3691 -0.4119 -0.2602
25369SOL     OW78113   1.553   7.004   3.626 -0.3088  0.4446 -0.2066
25369SOL    HW178114   1.472   7.047   3.598  0.8754  0.3924 -4.3362
25369SOL    HW278115   1.623   7.053   3.583  1.6439 -1.2941  0.7982
25370SOL     OW78116   4.142   5.060   7.485 -0.4051 -0.7990 -0.2231
25370SOL    HW178117   4.053   5.093   7.495 -0.3751 -0.8179  0.1338
25370SOL    HW278118   4.138   4.969   7.514  0.0666 -0.3296  1.4774
25371SOL     OW78119   3.300   3.772   8.055  0.2755  0.5307  0.2174
25371SOL    HW178120   3.322   3.849   8.003  0.7450  0.1341 -0.1889
25371SOL    HW278121   3.217   3.741   8.019  0.4175  0.4683 -0.0618
25372SOL     OW78122   6.762   7.543   7.183 -0.1786 -0.7620  0.4024
25372SOL    HW178123   6.813   7.623   7.189 -0.1073 -0.8436  0.9187
25372SOL    HW278124   6.696   7.561   7.116  0.6539 -0.7295 -0.4191
25373SOL     OW78125   6.527   2.172   1.223  0.0585  0.0798 -0.0427
25373SOL    HW178126   6.476   2.252   1.214  0.4642  0.4766  1.0540
25373SOL    HW278127   6.613   2.202   1.254  2.0713 -0.1942 -4.4337
25374SOL     OW78128   4.849  10.270   8.406  0.2221 -0.6830  0.0845
25374SOL    HW178129   4.798  10.235   8.333  0.2920 -1.6046  0.4588
25374SOL    HW278130   4.865  10.194   8.463 -1.2767  0.2831  1.9257
25375SOL     OW78131   1.712   8.500   7.302 -0.0805  0.5570 -0.4420
25375SOL    HW178132   1.797   8.458   7.313 -0.0022  0.7433 -0.3188
25375SOL    HW278133   1.660   8.468   7.375 -0.9677 -1.5768 -1.9093
25376SOL     OW78134   1.818   0.766   6.977  0.8429 -0.3843  0.0669
25376SOL    HW178135   1.901   0.745   7.020  0.4707 -0.3060  0.8256
25376SOL    HW278136   1.765   0.687   6.986  0.9565 -0.5573 -0.7239
25377SOL     OW78137  10.796   5.173   0.772 -0.5519  0.2088 -0.6044
25377SOL    HW178138  10.864   5.240   0.769 -1.6922  1.3704 -1.8684
25377SOL    HW278139  10.745   5.194   0.850  0.1174 -0.2625 -0.0291
25378SOL     OW78140   4.679   5.825   8.798  0.0127 -0.1224 -0.2259
25378SOL    HW178141   4.597   5.795   8.757  0.9021 -1.5294 -1.0829
25378SOL    HW278142   4.724   5.744   8.822  2.9287  0.3265 -3.3780
25379SOL     OW78143   2.487   1.077   3.788  0.0442  0.9022 -0.0009
25379SOL    HW178144   2.442   1.011   3.736 -0.2700  1.4527 -0.4482
25379SOL    HW278145   2.568   1.094   3.740  0.9570 -0.3752  1.0108
25380SOL     OW78146   8.986   0.207   5.984  0.1444 -0.1384  0.1434
25380SOL    HW178147   8.904   0.160   5.997  0.8400 -1.5664 -0.4590
25380SOL    HW278148   9.012   0.234   6.072 -0.9650  0.3610  0.3425
25381SOL     OW78149   7.557   6.152   1.974  0.1702 -0.2390  0.0270
25381SOL    HW178150   7.479   6.162   1.920  0.6592 -0.2642 -0.6960
25381SOL    HW278151   7.628   6.138   1.911  0.7578 -0.2106  0.6753
25382SOL     OW78152   8.405   7.541  10.352 -0.1386 -0.0098  0.8899
25382SOL    HW178153   8.404   7.635  10.369 -0.5219  0.3270 -0.8106
25382SOL    HW278154   8.491   7.524  10.315 -0.1757 -0.2790  0.9238
25383SOL     OW78155   8.153   4.737  10.940  0.0671  0.1675  0.1838
25383SOL    HW178156   8.066   4.774  10.925  0.0333 -0.3316 -0.9321
25383SOL    HW278157   8.157   4.723  11.035 -0.4304  1.7336  0.4766
25384SOL     OW78158   0.763   8.284   7.644  0.0010 -0.7048  0.4532
25384SOL    HW178159   0.815   8.244   7.714  0.4936  0.7661  0.9675
25384SOL    HW278160   0.692   8.222   7.627  0.3245 -1.4379  1.7129
25385SOL     OW78161   3.475   8.087   8.859  0.0251  0.7803  0.0671
25385SOL    HW178162   3.474   8.001   8.901 -1.0629  0.5822 -0.3308
25385SOL    HW278163   3.481   8.067   8.765  0.2368  1.1540 -0.0002
25386SOL     OW78164   8.212   2.710  10.062  0.7887 -0.2306 -0.0375
25386SOL    HW178165   8.266   2.631  10.064 -0.0843 -0.8362  1.0743
25386SOL    HW278166   8.269   2.778  10.025  2.4951 -0.7159  1.5685
25387SOL     OW78167   5.269   1.805  10.037 -0.7135  0.2629 -1.0809
25387SOL    HW178168   5.239   1.722  10.002  0.0828 -0.0719 -0.9916
25387SOL    HW278169   5.270   1.864   9.961 -0.0312 -0.1670 -1.4185
25388SOL     OW78170   1.293   1.555   6.201 -1.0238  0.3751 -0.4097
25388SOL    HW178171   1.277   1.478   6.146 -0.5613 -0.5956  0.7642
25388SOL    HW278172   1.337   1.617   6.143  1.8439 -1.6113 -0.5457
25389SOL     OW78173   7.166   1.308   6.104 -0.0712 -0.1864  0.1846
25389SOL    HW178174   7.172   1.343   6.193 -0.3377  1.4365 -0.3842
25389SOL    HW278175   7.255   1.279   6.083 -0.6318 -3.8708  2.1374
25390SOL     OW78176   7.959   2.410   3.528 -0.9309  0.3100  0.4235
25390SOL    HW178177   7.919   2.326   3.509 -1.0921  0.6354 -0.7308
25390SOL    HW278178   7.886   2.466   3.556 -1.4305  1.0396 -2.1311
25391SOL     OW78179   0.695   2.014   0.919  1.1079 -0.1454  0.0030
25391SOL    HW178180   0.613   2.056   0.944 -0.0222 -1.7580 -0.7924
25391SOL    HW278181   0.754   2.086   0.899 -0.7439  1.0719 -1.4165
25392SOL     OW78182  10.370   5.794   9.644  0.1698  0.2738 -0.5448
25392SOL    HW178183  10.437   5.746   9.691  0.9999  1.2228 -0.7247
25392SOL    HW278184  10.289   5.775   9.691  0.6123 -0.6306 -0.1316
25393SOL     OW78185   0.241   6.405  10.487 -0.1563 -0.4392 -0.1899
25393SOL    HW178186   0.274   6.472  10.548  1.1325 -0.5727 -0.7108
25393SOL    HW278187   0.164   6.369  10.531 -0.5876  1.0511  0.3182
25394SOL     OW78188   6.765   6.772   8.770 -0.0758 -0.2809 -0.6692
25394SOL    HW178189   6.832   6.796   8.706  1.1905  0.3309  0.8382
25394SOL    HW278190   6.798   6.691   8.810  1.1606  1.3627  1.8956
25395SOL     OW78191   9.651   9.441   4.136 -0.0659 -0.4150  0.1042
25395SOL    HW178192   9.650   9.372   4.202 -1.8553  0.3472  0.9505
25395SOL    HW278193   9.724   9.497   4.161  2.1408 -2.4755 -1.2336
25396SOL     OW78194   8.500   9.616   6.394 -0.1043 -0.0008 -0.1227
25396SOL    HW178195   8.468   9.609   6.304  1.3207 -0.0683 -0.6518
25396SOL    HW278196   8.552   9.537   6.407  0.3773  0.4060  0.4707
25397SOL     OW78197  11.088   6.267   5.664 -0.2040  0.1690  0.3105
25397SOL    HW178198  11.164   6.288   5.719  0.8781  1.8536 -1.6927
25397SOL    HW278199  11.014   6.268   5.724  1.2875 -1.4178  2.3323
25398SOL     OW78200   1.489   9.896   9.464 -0.7680  0.2426  0.0160
25398SOL    HW178201   1.564   9.846   9.494 -2.1511 -0.2798  3.0059
25398SOL    HW278202   1.498   9.981   9.507 -1.8757  0.1473  0.4754
25399SOL     OW78203   1.408   3.391   4.915  0.1913 -0.2011 -0.8751
25399SOL    HW178204   1.421   3.300   4.940 -1.1255  0.5259  3.0515
25399SOL    HW278205   1.330   3.390   4.860 -0.3122 -1.3746 -0.1816
25400SOL     OW78206   5.889   1.278   9.769  0.3805  0.2172 -0.3209
25400SOL    HW178207   5.884   1.352   9.709 -2.1406  0.0687 -0.3747
25400SOL    HW278208   5.867   1.314   9.855 -1.5935 -0.5369 -0.4660
25401SOL     OW78209   9.917   5.441   1.773 -0.1971 -0.1234 -0.5490
25401SOL    HW178210   9.951   5.531   1.776 -1.7329  0.4915 -0.7728
25401SOL    HW278211   9.955   5.404   1.693 -0.7406  0.8407 -1.2830
25402SOL     OW78212   4.033   0.696   7.145  0.6924 -0.3269 -0.1779
25402SOL    HW178213   4.072   0.694   7.057  1.4349  1.2102  0.0948
25402SOL    HW278214   4.081   0.629   7.193 -0.6831 -2.2170 -1.2870
25403SOL     OW78215   7.432   6.840   8.320  0.0641  0.1406 -0.0561
25403SOL    HW178216   7.519   6.802   8.332 -0.7210 -1.3640  1.0941
25403SOL    HW278217   7.426   6.857   8.226  2.1891  1.8143  0.0334
25404SOL     OW78218   3.973   2.743   1.231  0.5990 -0.2916  0.2218
25404SOL    HW178219   3.947   2.757   1.140  0.3309  3.4474  0.7146
25404SOL    HW278220   3.936   2.658   1.254 -0.7931 -0.5779 -2.6450
25405SOL     OW78221   0.573   9.837   9.336 -0.2620 -0.1409  0.7460
25405SOL    HW178222   0.532   9.800   9.414  0.7482 -2.1830  0.3860
25405SOL    HW278223   0.665   9.810   9.343  0.0203  0.3465 -0.7581
25406SOL     OW78224   5.956   5.279   6.193 -0.2899  0.3582 -0.8678
25406SOL    HW178225   5.863   5.264   6.210 -0.2752  0.3845 -0.7616
25406SOL    HW278226   5.998   5.195   6.214 -0.3020  0.3146 -1.0158
25407SOL     OW78227   0.183   9.234   4.237  0.6277 -0.4844 -0.0541
25407SOL    HW178228   0.201   9.316   4.191  0.5768 -0.0278  0.7200
25407SOL    HW278229   0.238   9.169   4.192 -1.0121 -0.5314 -2.1553
25408SOL     OW78230   2.801   1.027   9.185  0.2960  0.0765 -0.0671
25408SOL    HW178231   2.872   1.027   9.249  0.2501 -2.8169  0.0929
25408SOL    HW278232   2.825   1.095   9.122  0.5379  2.8178  2.7127
25409SOL     OW78233   7.278   9.100   1.892  0.0382 -0.0940  0.1393
25409SOL    HW178234   7.356   9.091   1.838  1.7681  1.6560  2.1402
25409SOL    HW278235   7.273   9.017   1.941 -0.2548 -0.7920 -1.0380
25410SOL     OW78236   5.787  10.652   8.014  0.1972 -0.5447  0.1703
25410SOL    HW178237   5.806  10.575   8.067 -1.5095 -1.0348  0.1408
25410SOL    HW278238   5.733  10.707   8.071  0.3803  0.0634 -0.2339
25411SOL     OW78239   9.922   3.785   1.798 -0.0397  0.4267 -0.0034
25411SOL    HW178240   9.863   3.810   1.727  0.2133  1.9584  0.2987
25411SOL    HW278241   9.993   3.739   1.754 -1.4762 -1.5812 -0.3515
25412SOL     OW78242  10.774   8.288   6.258  0.5841 -0.7880 -0.0246
25412SOL    HW178243  10.686   8.312   6.288  1.2048 -0.4660  1.6245
25412SOL    HW278244  10.813   8.371   6.231  1.5039 -0.3366  2.4025
25413SOL     OW78245   8.300   6.838   8.761  0.6833  0.2814  0.1794
25413SOL    HW178246   8.212   6.845   8.798  0.5678  1.0782 -0.2029
25413SOL    HW278247   8.340   6.923   8.779  0.4131  0.9444 -1.9794
25414SOL     OW78248   6.358   4.698   3.045 -0.0735  0.0831  0.3290
25414SOL    HW178249   6.357   4.603   3.032 -1.8608  0.2772 -1.5351
25414SOL    HW278250   6.269   4.719   3.074  0.2184  1.2448  0.4430
25415SOL     OW78251   2.678   5.717   4.850 -0.6057  0.2440 -0.1276
25415SOL    HW178252   2.649   5.714   4.942 -0.0549  2.6050  0.1832
25415SOL    HW278253   2.721   5.801   4.841  1.4616 -0.8971 -1.9872
25416SOL     OW78254   6.217   3.419   0.829  0.2751  0.4637 -0.9501
25416SOL    HW178255   6.269   3.415   0.909 -0.6553 -0.0396 -0.3496
25416SOL    HW278256   6.232   3.335   0.786  1.5968  1.1322 -1.8620
25417SOL     OW78257  11.052  10.739   2.620  0.1944  0.4472 -0.3393
25417SOL    HW178258  10.973  10.688   2.637 -1.2770  2.8245  0.3758
25417SOL    HW278259  11.114  10.713   2.688  0.0847 -1.4465 -0.9194
25418SOL     OW78260   1.866   3.580   4.087 -0.7121 -0.5967 -0.3363
25418SOL    HW178261   1.776   3.587   4.118 -0.5935  1.2386 -0.2870
25418SOL    HW278262   1.889   3.668   4.058  1.4096 -0.7491  0.6339
25419SOL     OW78263   4.007  10.598   0.568  0.1603 -0.0344 -0.3608
25419SOL    HW178264   3.974  10.688   0.572  0.9775  0.2301  1.5646
25419SOL    HW278265   3.936  10.545   0.603 -0.0053 -0.0465 -0.7108
25420SOL     OW78266   5.235   4.516   7.895  0.0016 -0.0907 -0.3789
25420SOL    HW178267   5.259   4.536   7.986  0.0244  2.1240 -0.8277
25420SOL    HW278268   5.295   4.568   7.842 -2.2708  1.4725 -1.5941
25421SOL     OW78269   6.107  10.180  10.627  0.3098  0.7271  0.3181
25421SOL    HW178270   6.017  10.175  10.596  0.1065 -1.2854  1.0930
25421SOL    HW278271   6.099  10.209  10.718  0.2743 -1.0987  0.9291
25422SOL     OW78272   9.922   9.851   6.372  0.0798 -0.0660 -0.3291
25422SOL    HW178273   9.996   9.821   6.425  0.0899  0.0080 -0.3006
25422SOL    HW278274   9.867   9.773   6.361  0.0466 -0.0669 -0.1590
25423SOL     OW78275   7.267  10.055  10.103  0.3483 -0.1928  0.2516
25423SOL    HW178276   7.205  10.106  10.050  1.1836  1.3833  0.7525
25423SOL    HW278277   7.265  10.096  10.189  1.3428 -0.7698  0.5654
25424SOL     OW78278   6.832  10.135   5.155 -0.4091 -0.0518 -0.1492
25424SOL    HW178279   6.773  10.186   5.099 -1.7569 -0.5386  0.7752
25424SOL    HW278280   6.853  10.057   5.105  1.0497  1.0155 -1.2683
25425SOL     OW78281   4.503   5.930   6.398  0.1680  0.4108 -0.0467
25425SOL    HW178282   4.458   6.013   6.409  0.7381  0.4176  3.0174
25425SOL    HW278283   4.435   5.864   6.410  0.1561  0.4260 -0.0300
25426SOL     OW78284   4.066   0.839   5.645 -0.4625  0.0407  0.4486
25426SOL    HW178285   4.082   0.808   5.556  1.1292  1.5083  0.1798
25426SOL    HW278286   3.998   0.906   5.635 -0.3260  0.1640  0.3481
25427SOL     OW78287   5.936   2.602   6.924 -0.4570  0.2581 -0.1514
25427SOL    HW178288   5.989   2.598   6.844 -2.9202 -0.3839 -1.8820
25427SOL    HW278289   5.913   2.694   6.933  0.5165  0.4713  0.3692
25428SOL     OW78290   0.562   8.134   1.411 -0.2882 -0.4472  0.4186
25428SOL    HW178291   0.556   8.096   1.499  1.8361 -0.4597  0.6052
25428SOL    HW278292   0.642   8.187   1.413 -0.1175 -0.5636 -1.5504
25429SOL     OW78293   2.224  11.082   0.007 -0.3458 -0.3345 -0.0106
25429SOL    HW178294   2.263  11.125   0.083  1.6149  0.4584 -1.3706
25429SOL    HW278295   2.131  11.106   0.011  0.1796  1.7923  0.7921
25430SOL     OW78296   7.582   1.315   3.190  0.1015  0.1154  0.1317
25430SOL    HW178297   7.610   1.399   3.226 -1.6388  0.5678  0.5480
25430SOL    HW278298   7.564   1.334   3.098  0.3274  0.0370  0.0708
25431SOL     OW78299   2.712   6.412   0.558 -0.4205  0.2365 -0.2486
25431SOL    HW178300   2.630   6.444   0.596 -1.4540 -0.4974 -1.7513
25431SOL    HW278301   2.726   6.466   0.480 -0.4903 -0.8280 -1.0285
25432SOL     OW78302   0.814   4.275   4.841  0.1698  0.0882 -1.0029
25432SOL    HW178303   0.896   4.294   4.795 -1.1812  1.5400 -2.9654
25432SOL    HW278304   0.750   4.260   4.771 -1.4852  0.0485  0.4487
25433SOL     OW78305   0.488   5.361  10.724  0.4946  0.0318 -0.4977
25433SOL    HW178306   0.435   5.353  10.804  0.4267 -2.1885 -0.6905
25433SOL    HW278307   0.568   5.404  10.753 -0.1826  0.7209  0.4256
25434SOL     OW78308   0.558   3.842   5.319 -0.3807 -0.0903  0.0832
25434SOL    HW178309   0.567   3.920   5.374 -0.2855 -1.7448  2.5818
25434SOL    HW278310   0.547   3.876   5.230  1.1840  2.7127  0.8431
25435SOL     OW78311   5.782   1.629   4.806 -0.0121 -0.4492  0.2650
25435SOL    HW178312   5.749   1.584   4.885  1.1481 -1.0404  0.4413
25435SOL    HW278313   5.787   1.560   4.740 -1.3160  0.1157 -0.4644
25436SOL     OW78314   6.739   6.150   1.085  0.2410  0.6474  0.0590
25436SOL    HW178315   6.727   6.071   1.138 -0.4896 -0.0954 -1.1528
25436SOL    HW278316   6.718   6.222   1.144 -2.4772 -0.2370  0.3113
25437SOL     OW78317   4.328  10.644   1.811 -0.0604 -0.2733  0.5503
25437SOL    HW178318   4.362  10.697   1.884  1.9977  0.9084 -1.1337
25437SOL    HW278319   4.374  10.678   1.734 -1.4569 -2.0844 -1.1815
25438SOL     OW78320  10.787   2.458   2.365 -0.0658 -0.6225 -0.0998
25438SOL    HW178321  10.704   2.431   2.404  0.0672  0.7351  1.2332
25438SOL    HW278322  10.812   2.385   2.308 -1.9526 -1.2298 -0.2207
25439SOL     OW78323   4.598  11.034   5.180  0.4626  0.3309 -0.2646
25439SOL    HW178324   4.550  11.065   5.257  0.7667 -0.5813  0.3130
25439SOL    HW278325   4.587  10.939   5.181  0.3774  0.3172 -1.4214
25440SOL     OW78326   6.472   0.010   1.592 -0.4156 -0.2922  0.6428
25440SOL    HW178327   6.540  -0.025   1.650 -0.1389 -0.7142  0.0722
25440SOL    HW278328   6.391  -0.025   1.628 -0.2624 -0.4201  0.8719
25441SOL     OW78329   6.533   0.146   2.237 -0.7427 -0.2089  0.6946
25441SOL    HW178330   6.611   0.118   2.191 -1.8811 -0.6329 -1.0635
25441SOL    HW278331   6.562   0.220   2.290  1.7301 -2.7470  3.2790
25442SOL     OW78332   4.394  10.203   7.649  0.1805  0.4117 -0.7390
25442SOL    HW178333   4.459  10.167   7.709 -0.6852 -1.1895 -0.7157
25442SOL    HW278334   4.423  10.294   7.635  0.2087  1.0043  2.3817
25443SOL     OW78335  10.913   3.170   6.279  0.5196 -0.5776 -0.2180
25443SOL    HW178336  10.826   3.193   6.247  0.5296 -0.9509 -0.5190
25443SOL    HW278337  10.898   3.103   6.345  0.3466  1.4921  1.9759
25444SOL     OW78338   7.225   1.753   0.991  0.3895  0.5945 -0.1970
25444SOL    HW178339   7.304   1.718   0.950  0.3769 -1.1730  1.1478
25444SOL    HW278340   7.258   1.808   1.062  0.5450 -2.0121  1.8966
25445SOL     OW78341   0.695   1.955   0.627 -0.2944  0.1140  0.2076
25445SOL    HW178342   0.680   1.950   0.721  0.6152 -1.6454  0.3002
25445SOL    HW278343   0.610   1.980   0.590 -1.5555 -2.2678  1.2598
25446SOL     OW78344   7.593  10.593   0.163 -0.9699 -0.9357 -0.3130
25446SOL    HW178345   7.664  10.657   0.165  0.0026 -2.0018  2.0783
25446SOL    HW278346   7.534  10.622   0.233 -1.6939 -1.4025 -0.7224
25447SOL     OW78347   8.183   1.833   1.893 -0.2606  0.3087  0.5451
25447SOL    HW178348   8.226   1.762   1.940 -0.4497 -1.7004 -2.1145
25447SOL    HW278349   8.101   1.847   1.942  0.9607  0.6053  2.6318
25448SOL     OW78350   8.884   9.124   0.437  0.3952  0.2033 -0.1265
25448SOL    HW178351   8.979   9.121   0.422  0.4449  1.2800 -0.1442
25448SOL    HW278352   8.864   9.042   0.482  0.9919 -0.9865 -1.8956
25449SOL     OW78353   6.151   2.426  10.025 -0.3151 -0.0339  0.1019
25449SOL    HW178354   6.104   2.438  10.107  0.2746 -0.6147  0.5298
25449SOL    HW278355   6.199   2.344  10.036  1.2210  0.7951 -0.1153
25450SOL     OW78356   6.825   1.607   3.541  0.1840 -0.3371 -0.4006
25450SOL    HW178357   6.774   1.630   3.619  1.0937 -0.9729  0.4107
25450SOL    HW278358   6.811   1.513   3.529  0.5650 -0.3711 -0.6094
25451SOL     OW78359   9.304   6.546   8.242  0.4628 -0.6447  0.2614
25451SOL    HW178360   9.235   6.567   8.305  2.2390  0.2817  2.0543
25451SOL    HW278361   9.259   6.537   8.158 -1.5188  2.8181  0.7481
25452SOL     OW78362   6.222   9.466   7.972  0.1169 -0.1129  0.6837
25452SOL    HW178363   6.312   9.466   8.006 -0.4225 -0.3299  2.1718
25452SOL    HW278364   6.168   9.442   8.047 -1.2049  0.0950 -0.1730
25453SOL     OW78365   1.986   1.465   2.635 -0.5311  0.1851  0.2556
25453SOL    HW178366   1.951   1.541   2.682  0.8429 -0.1630  1.9313
25453SOL    HW278367   2.067   1.443   2.681 -0.5889 -1.9448 -0.5331
25454SOL     OW78368   0.348   0.437   6.831  1.0385 -0.3015 -0.3873
25454SOL    HW178369   0.256   0.460   6.819  1.0658 -0.5810 -1.1694
25454SOL    HW278370   0.363   0.446   6.925 -0.3949 -2.4829  0.1193
25455SOL     OW78371   5.873   5.628   6.192 -0.1695 -0.1031  0.1911
25455SOL    HW178372   5.810   5.611   6.262 -3.4932 -5.2071 -3.3706
25455SOL    HW278373   5.828   5.688   6.133  0.3820  0.1273  0.0047
25456SOL     OW78374   2.482   7.396   2.191 -0.4401 -0.2456 -0.3494
25456SOL    HW178375   2.517   7.414   2.104 -0.3274 -1.1511 -0.4998
25456SOL    HW278376   2.472   7.483   2.232  1.3484  0.0759 -0.5419
25457SOL     OW78377   0.470   9.968   6.707 -0.3507 -0.0696 -0.0043
25457SOL    HW178378   0.552   9.919   6.720 -0.1680  0.3262  0.3719
25457SOL    HW278379   0.499  10.056   6.683 -0.6699  0.0306 -0.0220
25458SOL     OW78380   5.063   9.910   3.366  0.0440 -0.3228 -0.1500
25458SOL    HW178381   4.991   9.880   3.421 -2.2016  3.3349 -0.7491
25458SOL    HW278382   5.030   9.900   3.277 -0.4474  2.7061 -0.3908
25459SOL     OW78383   8.481  10.012   4.700  0.3276  0.0622  0.2242
25459SOL    HW178384   8.552   9.984   4.641  1.2767  1.6078  0.5829
25459SOL    HW278385   8.492  10.107   4.708 -2.1194  0.4246 -0.0968
25460SOL     OW78386  10.612   7.843  10.657  0.2147 -0.7804  0.1124
25460SOL    HW178387  10.575   7.815  10.573 -0.6534  0.6236 -0.0052
25460SOL    HW278388  10.546   7.901  10.694  0.2519 -1.9199  2.1356
25461SOL     OW78389   4.819   1.505   0.730 -0.4348  0.0064  0.3783
25461SOL    HW178390   4.896   1.460   0.695 -1.0676  0.4019 -1.6720
25461SOL    HW278391   4.848   1.541   0.814  1.0360 -1.4354  0.5372
25462SOL     OW78392   5.071   8.640   4.267 -0.1732  0.2387  0.6181
25462SOL    HW178393   5.030   8.585   4.333  0.2752 -0.5050  0.3055
25462SOL    HW278394   5.147   8.678   4.311  0.8600 -1.2443  0.2422
25463SOL     OW78395   9.455   9.975   9.289  0.4614  0.3542  0.4147
25463SOL    HW178396   9.409   9.945   9.212 -0.1481  1.3406  0.3756
25463SOL    HW278397   9.449  10.071   9.285  1.3940  0.4584  1.0885
25464SOL     OW78398   3.037  10.206   2.059  0.4778  0.8970 -0.0684
25464SOL    HW178399   3.077  10.277   2.110 -1.2802  2.7409 -1.1052
25464SOL    HW278400   2.955  10.187   2.105  0.4536  0.2421 -0.3784
25465SOL     OW78401   2.668   3.748   7.420 -0.2323 -0.1622  0.5035
25465SOL    HW178402   2.628   3.731   7.505 -0.8963 -0.9807  0.0369
25465SOL    HW278403   2.675   3.662   7.379 -2.1955  0.4391 -1.2586
25466SOL     OW78404   4.081   5.010   0.617 -0.7690 -0.3229 -0.2427
25466SOL    HW178405   4.040   5.083   0.663 -1.4792  0.0477 -1.4171
25466SOL    HW278406   4.033   4.933   0.649 -2.0707  0.0508 -1.1982
25467SOL     OW78407   7.965   8.910  10.177  0.6359 -0.2887  0.6011
25467SOL    HW178408   7.915   8.836  10.142  0.6029  0.3926 -0.8945
25467SOL    HW278409   7.899   8.974  10.204  0.6579  0.0484 -0.1031
25468SOL     OW78410   5.546   4.882   9.976  0.0330  0.1327 -0.2761
25468SOL    HW178411   5.514   4.815  10.035 -0.4571  0.3029 -0.3436
25468SOL    HW278412   5.605   4.836   9.917  1.7575  0.2189  1.2771
25469SOL     OW78413   2.469   3.795  10.089 -0.1702  0.0532 -0.2363
25469SOL    HW178414   2.459   3.850  10.012  0.0036  0.5153  0.0655
25469SOL    HW278415   2.384   3.801  10.134  0.2258  1.0504  0.4217
25470SOL     OW78416   8.198   3.441  11.036  0.4226 -0.5453 -0.1800
25470SOL    HW178417   8.235   3.358  11.004  0.6234 -0.1361 -1.0351
25470SOL    HW278418   8.269   3.482  11.084  0.6541 -0.3984 -0.6396
25471SOL     OW78419   2.760   5.893   5.253  0.1399 -0.0914 -0.0197
25471SOL    HW178420   2.809   5.951   5.195  0.6798 -1.5728 -1.1186
25471SOL    HW278421   2.825   5.831   5.286 -0.5018 -0.3928  0.7019
25472SOL     OW78422   8.736   0.009   7.045 -0.0057 -0.2089 -0.1144
25472SOL    HW178423   8.656   0.021   6.993  1.0079  0.6611 -1.5481
25472SOL    HW278424   8.716   0.050   7.129 -0.7953  0.7674 -0.7521
25473SOL     OW78425   8.242  10.500   2.604  0.2470  0.1369 -0.6163
25473SOL    HW178426   8.159  10.536   2.572  0.0516 -0.3195 -0.6196
25473SOL    HW278427   8.231  10.405   2.598  0.3573  0.0467  0.4140
25474SOL     OW78428   9.359   8.070   2.482  0.4855 -0.2409 -0.2404
25474SOL    HW178429   9.383   8.001   2.420 -0.3422 -0.2609 -0.5500
25474SOL    HW278430   9.264   8.062   2.491  0.2150  1.5085 -1.0759
25475SOL     OW78431   4.766   3.398  10.201  0.1869 -0.5974  0.1150
25475SOL    HW178432   4.812   3.446  10.271  1.8742 -2.2029  0.1850
25475SOL    HW278433   4.744   3.314  10.240 -0.9037 -0.6756 -0.6302
25476SOL     OW78434   7.075   3.644   6.750 -0.0003  0.3909 -0.2154
25476SOL    HW178435   7.164   3.659   6.717 -0.4320  2.0957 -0.7298
25476SOL    HW278436   7.043   3.568   6.701  0.3744  1.1621 -1.7074
25477SOL     OW78437   0.378   1.626   6.126  0.1480 -0.0656 -0.2574
25477SOL    HW178438   0.363   1.687   6.198 -2.0930  1.4654 -1.9049
25477SOL    HW278439   0.471   1.635   6.106  0.1761  1.6960  0.5018
25478SOL     OW78440   7.130   7.093   8.066  0.5477  0.3480  0.0883
25478SOL    HW178441   7.153   7.113   7.975 -2.1434  3.5001 -0.0693
25478SOL    HW278442   7.181   7.155   8.118 -2.0854  2.6119  0.1839
25479SOL     OW78443   0.773   5.367   4.009 -0.8392  0.2469 -0.1788
25479SOL    HW178444   0.733   5.398   4.090 -1.6286  0.6498 -0.7075
25479SOL    HW278445   0.761   5.439   3.947 -2.1443 -0.8487 -1.2485
25480SOL     OW78446   0.328   1.604  10.348 -0.0243  0.5206 -0.4200
25480SOL    HW178447   0.328   1.574  10.439 -0.7671 -2.2470 -1.2453
25480SOL    HW278448   0.255   1.559  10.308  2.1380 -0.8578 -3.1273
25481SOL     OW78449   7.268   1.808   1.966 -0.3052  0.1624  0.6361
25481SOL    HW178450   7.198   1.806   1.900  0.5559 -1.1370 -0.2813
25481SOL    HW278451   7.238   1.747   2.034 -0.6802  0.6513  0.9155
25482SOL     OW78452   0.137   7.748   0.682  0.1051 -0.1312  0.9479
25482SOL    HW178453   0.178   7.835   0.675 -1.3567  0.4642 -3.8809
25482SOL    HW278454   0.043   7.766   0.678 -0.2064 -1.8284 -1.9224
25483SOL     OW78455   5.314  10.969   0.845  0.2810 -0.2051  0.0470
25483SOL    HW178456   5.252  11.032   0.807  0.6173 -0.7845 -1.5124
25483SOL    HW278457   5.264  10.888   0.854  0.3404 -0.2046  0.3995
25484SOL     OW78458  10.947   5.516   1.040 -0.3202  0.6379 -0.2712
25484SOL    HW178459  10.895   5.438   1.060 -0.1804  0.2907 -1.2255
25484SOL    HW278460  10.885   5.589   1.050 -0.8889  0.2622 -1.0201
25485SOL     OW78461   8.784   2.582   6.553 -0.1025  0.4706 -0.1542
25485SOL    HW178462   8.794   2.488   6.563 -0.0874  0.6122  1.3058
25485SOL    HW278463   8.809   2.619   6.638 -2.7139  1.5960  0.2104
25486SOL     OW78464   3.127   4.249  10.960 -0.4389 -0.2884  0.0320
25486SOL    HW178465   3.145   4.234  11.053 -0.9756  1.9596  0.5582
25486SOL    HW278466   3.211   4.277  10.924  0.2965 -3.0988 -0.7097
25487SOL     OW78467   7.932   8.069   1.752 -0.2868 -0.1760  0.8385
25487SOL    HW178468   7.866   8.055   1.684 -0.5897 -1.5061  1.3704
25487SOL    HW278469   7.994   8.131   1.713  0.5048 -2.1790 -1.3685
25488SOL     OW78470   5.077   3.607   8.511  0.2609 -0.5474 -0.1216
25488SOL    HW178471   5.169   3.588   8.533 -0.4006 -0.6027  3.0732
25488SOL    HW278472   5.040   3.521   8.490  0.5029 -0.8044  0.4775
25489SOL     OW78473   0.614   6.325   2.344  0.4378  0.5604  0.2945
25489SOL    HW178474   0.660   6.316   2.428 -0.6829  0.9147  0.9720
25489SOL    HW278475   0.625   6.417   2.321  2.1081  0.1309 -0.7917
25490SOL     OW78476   8.890   7.220   0.575 -0.5407  0.4516 -0.0003
25490SOL    HW178477   8.958   7.209   0.641 -0.0535 -1.7962 -0.7949
25490SOL    HW278478   8.843   7.137   0.575 -1.9759  1.2111 -0.9380
25491SOL     OW78479   0.108   3.039   0.467 -0.2766  0.3210 -0.2545
25491SOL    HW178480   0.189   2.992   0.487 -1.7753 -1.4452  2.3622
25491SOL    HW278481   0.094   3.025   0.373  1.5400 -0.8239 -0.4029
25492SOL     OW78482   4.614   6.875  10.166  0.2319  0.9220  0.4757
25492SOL    HW178483   4.706   6.889  10.190  0.4958  0.0946  0.0282
25492SOL    HW278484   4.590   6.794  10.210 -0.7378  1.8539  1.7252
25493SOL     OW78485   0.731   1.877   0.072  0.5003 -0.2750  0.4114
25493SOL    HW178486   0.645   1.864   0.113 -0.2899  0.7136 -0.8635
25493SOL    HW278487   0.777   1.936   0.132 -0.1813  0.1710  0.5136
25494SOL     OW78488   4.608  10.972   1.255  0.0383  0.2929 -0.3094
25494SOL    HW178489   4.574  10.989   1.342  0.6378  2.1623 -0.3927
25494SOL    HW278490   4.532  10.979   1.197 -0.3207 -0.7406  0.0181
25495SOL     OW78491   1.531   4.621   6.129 -0.3571  0.0451  0.0454
25495SOL    HW178492   1.588   4.696   6.116 -1.1379  0.7606  0.6342
25495SOL    HW278493   1.444   4.659   6.142 -0.4020 -0.7695  2.7667
25496SOL     OW78494   4.192   6.783   0.767  0.5195  0.2727 -0.2488
25496SOL    HW178495   4.239   6.700   0.778  1.3894  0.5268 -1.7857
25496SOL    HW278496   4.156   6.778   0.678 -0.7478  0.9106  0.2013
25497SOL     OW78497   9.545   5.234   8.163  0.1171 -0.0230  0.4550
25497SOL    HW178498   9.498   5.242   8.080 -0.3983 -0.7418  0.6637
25497SOL    HW278499   9.614   5.300   8.158 -0.1139  0.1698 -0.4030
25498SOL     OW78500   7.837   9.826   2.690 -0.1205 -0.1725  0.6893
25498SOL    HW178501   7.832   9.731   2.696  0.2545 -0.2697 -0.3427
25498SOL    HW278502   7.782   9.858   2.762 -0.5623 -1.1626  0.7996
25499SOL     OW78503  10.065   8.437  10.714 -0.2493  0.4820  0.0478
25499SOL    HW178504  10.147   8.399  10.746 -0.9945 -1.9599 -0.7672
25499SOL    HW278505  10.092   8.521  10.676  1.9912 -0.5113 -0.7513
25500SOL     OW78506   6.078   4.749   3.072 -0.0802 -0.1486  0.5498
25500SOL    HW178507   6.032   4.832   3.060 -0.5686 -0.5868 -0.7909
25500SOL    HW278508   6.017   4.696   3.124 -0.3237 -0.1095  0.3059
25501SOL     OW78509   5.743   9.798   3.100 -0.2735 -0.3792 -0.3538
25501SOL    HW178510   5.754   9.859   3.027 -0.4096  1.2465  0.9288
25501SOL    HW278511   5.830   9.759   3.112 -0.1968 -0.4832 -1.2192
25502SOL     OW78512   9.431   4.242   8.288  0.0303  0.2213  0.1861
25502SOL    HW178513   9.418   4.287   8.204  1.6838 -2.0982 -1.4455
25502SOL    HW278514   9.363   4.175   8.290 -0.7634  1.0186  1.3470
25503SOL     OW78515   3.612   3.214   5.164  0.1041  0.1285 -0.8602
25503SOL    HW178516   3.539   3.171   5.209 -0.2919  1.3229 -0.3223
25503SOL    HW278517   3.667   3.142   5.134  0.2733 -0.7470  1.3270
25504SOL     OW78518   7.621   0.194  10.987  0.6311 -0.4765  0.1442
25504SOL    HW178519   7.704   0.212  10.942  0.1122 -1.0854 -1.1047
25504SOL    HW278520   7.564   0.267  10.962  0.4195 -0.6828  0.0212
25505SOL     OW78521   1.300   3.694   8.270 -0.2848  0.0089 -0.0295
25505SOL    HW178522   1.371   3.748   8.235 -0.6115  0.0667 -0.6223
25505SOL    HW278523   1.225   3.713   8.213 -0.3833 -1.1295 -0.2994
25506SOL     OW78524   7.579   2.352   3.654  0.5076  0.4213 -0.1026
25506SOL    HW178525   7.636   2.277   3.638  0.2060 -0.2100  1.5215
25506SOL    HW278526   7.503   2.314   3.699 -0.8774  1.3401 -1.5714
25507SOL     OW78527   7.726   9.026   0.293 -0.4272 -0.0650  0.6075
25507SOL    HW178528   7.697   9.105   0.338 -0.2001 -0.1492  0.9089
25507SOL    HW278529   7.684   9.030   0.207  1.5994  1.7110 -0.3953
25508SOL     OW78530   2.061   9.997  10.942 -0.4948 -0.5425  0.1473
25508SOL    HW178531   2.142   9.946  10.942 -0.5892 -0.7463  1.7422
25508SOL    HW278532   2.018   9.974  11.025 -1.6287  0.4285 -0.1424
25509SOL     OW78533   6.728  11.031   4.366 -0.3949 -0.2433 -0.3128
25509SOL    HW178534   6.784  11.100   4.400  0.3112 -1.4743  1.1574
25509SOL    HW278535   6.682  11.071   4.292  0.8246  1.4307 -0.2178
25510SOL     OW78536   0.216  10.919   7.252  0.3157  0.3507 -0.6159
25510SOL    HW178537   0.265  11.000   7.269 -1.0311  1.1069 -0.1898
25510SOL    HW278538   0.247  10.857   7.318  0.6995  0.8123 -0.3565
25511SOL     OW78539   4.360   6.348   1.905 -0.6052  0.3633 -0.4289
25511SOL    HW178540   4.416   6.375   1.832  1.3986  0.6893  1.1219
25511SOL    HW278541   4.325   6.430   1.940  0.9980  0.5368  0.8682
25512SOL     OW78542   1.789   8.663   1.040  0.0662  0.7724 -1.0091
25512SOL    HW178543   1.813   8.720   1.113 -0.5079  0.4213 -0.5415
25512SOL    HW278544   1.791   8.574   1.076 -2.2962  0.7336 -0.8133
25513SOL     OW78545   8.054   3.353   4.758  0.0208  0.8632 -0.0366
25513SOL    HW178546   7.988   3.363   4.689 -0.8768 -0.5442  0.5608
25513SOL    HW278547   8.106   3.278   4.730 -2.7610 -2.3334  2.4941
25514SOL     OW78548   5.120   5.140   4.244  0.3354  0.0177  0.2856
25514SOL    HW178549   5.099   5.140   4.150  1.0399  1.0835  0.0996
25514SOL    HW278550   5.143   5.049   4.264  0.7874 -0.1084 -0.7364
25515SOL     OW78551   9.342   7.389   1.296 -0.2334  0.0111 -0.1812
25515SOL    HW178552   9.384   7.415   1.214  0.5631  3.0415  1.0751
25515SOL    HW278553   9.407   7.409   1.363 -0.8395 -2.4705  1.2522
25516SOL     OW78554   1.213   3.007   7.326 -0.2790 -0.8516 -0.4330
25516SOL    HW178555   1.303   3.039   7.321 -0.6964  0.3202 -0.9255
25516SOL    HW278556   1.170   3.047   7.250 -1.0255 -2.0463 -0.6666
25517SOL     OW78557   4.932   6.850   3.402 -0.1138  0.1181  0.1130
25517SOL    HW178558   4.959   6.937   3.433  0.0460 -0.1945  0.8757
25517SOL    HW278559   4.864   6.823   3.464 -1.1341  0.2534 -0.8965
25518SOL     OW78560   9.681  10.738   9.869  0.3120  0.1711  0.3861
25518SOL    HW178561   9.591  10.721   9.896  0.2288 -1.2812 -0.6674
25518SOL    HW278562   9.722  10.781   9.944 -0.8635 -0.4735  1.4282
25519SOL     OW78563   1.813   5.279   2.201  0.6772 -0.2249  0.3577
25519SOL    HW178564   1.798   5.188   2.226  0.6116 -0.1384  0.6401
25519SOL    HW278565   1.782   5.330   2.276  1.1021  0.0112  0.3801
25520SOL     OW78566   6.122   1.789   0.990  0.7689 -0.0335 -0.5240
25520SOL    HW178567   6.099   1.707   0.946 -0.1676  0.6176 -1.2831
25520SOL    HW278568   6.043   1.843   0.982  1.1574  0.7120  0.5227
25521SOL     OW78569   9.487   0.038   2.174  0.0504  0.3535 -0.4626
25521SOL    HW178570   9.452   0.017   2.088  3.1189  0.5095 -1.8659
25521SOL    HW278571   9.479  -0.043   2.224 -1.3563  0.1404 -0.9806
25522SOL     OW78572   0.225   5.554   9.690  0.3356 -0.4899 -0.4535
25522SOL    HW178573   0.130   5.546   9.688  0.0087  2.4507 -1.2325
25522SOL    HW278574   0.246   5.579   9.780  0.1027  0.8038 -0.7351
25523SOL     OW78575   9.540   9.749   6.029 -0.3047  0.1685  0.4154
25523SOL    HW178576   9.484   9.672   6.037  0.4990 -0.2256  3.0951
25523SOL    HW278577   9.628   9.713   6.017 -0.1515  0.7230 -0.1786
25524SOL     OW78578   8.188   5.621   4.778 -0.0910 -0.1892  0.3739
25524SOL    HW178579   8.186   5.532   4.813 -1.5379  0.2777  1.5685
25524SOL    HW278580   8.126   5.620   4.704  1.3132 -0.6153 -0.8460
25525SOL     OW78581   7.994   1.981   4.577  0.4516 -0.1871 -0.0537
25525SOL    HW178582   8.046   1.901   4.574 -1.6365 -1.6713  0.7398
25525SOL    HW278583   7.955   1.981   4.664 -1.1928  0.5950 -0.7440
25526SOL     OW78584   2.973   9.314   1.474 -0.2295 -0.2350  0.1675
25526SOL    HW178585   3.009   9.362   1.550 -0.2811 -1.2483  0.8551
25526SOL    HW278586   2.880   9.335   1.475  0.3013  2.8725 -1.9655
25527SOL     OW78587   1.390   5.046   4.520  0.8600  0.1199  0.1259
25527SOL    HW178588   1.416   5.039   4.428  0.6465 -2.9990  0.1895
25527SOL    HW278589   1.303   5.008   4.523 -0.5890  3.2513  1.1779
25528SOL     OW78590   1.285  10.125   5.944 -0.4249  1.1987 -0.2286
25528SOL    HW178591   1.297  10.096   5.854 -1.7402  0.7805 -0.2883
25528SOL    HW278592   1.374  10.132   5.979  0.0498 -0.4668 -0.9932
25529SOL     OW78593   1.009   4.060   1.352 -0.6726 -0.6257 -0.3612
25529SOL    HW178594   0.979   3.985   1.301 -0.0540 -2.4245  1.7796
25529SOL    HW278595   0.956   4.058   1.432  0.7408 -0.0295  0.6395
25530SOL     OW78596   2.901   8.142   0.375 -0.0744  0.0855 -0.0390
25530SOL    HW178597   2.927   8.228   0.342  1.1369 -0.7882 -1.4732
25530SOL    HW278598   2.809   8.133   0.349  0.5627 -0.1580 -2.3970
25531SOL     OW78599   4.057   7.046   4.311  0.5508  0.4760  0.2608
25531SOL    HW178600   4.121   7.009   4.251  0.4522  1.7087 -0.6500
25531SOL    HW278601   4.040   6.977   4.374  1.3652 -0.5264 -0.5870
25532SOL     OW78602   3.590   8.332   0.974 -0.3224 -0.6993  0.0153
25532SOL    HW178603   3.543   8.386   0.911 -0.6251  0.1897  0.9627
25532SOL    HW278604   3.529   8.322   1.048  1.1592  1.0620  1.5802
25533SOL     OW78605   9.818   9.650   4.141 -0.8993  0.3930 -0.1559
25533SOL    HW178606   9.878   9.703   4.089 -0.1028  1.1675  1.4639
25533SOL    HW278607   9.793   9.708   4.214  1.0818 -1.8388  2.4771
25534SOL     OW78608   0.824  10.513   9.393 -0.4206  0.2083 -0.3477
25534SOL    HW178609   0.885  10.564   9.446  0.5510  0.1280 -1.3496
25534SOL    HW278610   0.880  10.454   9.342 -1.0212  1.9593 -3.3056
25535SOL     OW78611   7.849   7.652   3.360  0.3693  0.0443 -0.5251
25535SOL    HW178612   7.880   7.737   3.391 -0.6024 -0.0579  0.8061
25535SOL    HW278613   7.852   7.596   3.438  0.6983 -1.0628 -1.3116
25536SOL     OW78614   9.604   0.363   6.893 -0.2716  0.0811 -0.9360
25536SOL    HW178615   9.624   0.445   6.849  0.2762  0.5718  0.1804
25536SOL    HW278616   9.642   0.296   6.838 -0.5185  0.5890 -1.7425
25537SOL     OW78617   6.459   6.758   2.772  0.1038  0.1389 -0.2715
25537SOL    HW178618   6.431   6.785   2.685  0.9436 -1.5437 -1.1166
25537SOL    HW278619   6.397   6.690   2.798 -0.7238  1.2919  0.9032
25538SOL     OW78620   9.669   9.272   5.930 -0.3010  0.5817 -0.4791
25538SOL    HW178621   9.592   9.255   5.984 -0.1555  2.1973  0.2822
25538SOL    HW278622   9.738   9.293   5.993  1.0554 -1.6758 -1.0834
25539SOL     OW78623   7.233   3.743   1.044 -0.1292  0.4226 -0.1744
25539SOL    HW178624   7.263   3.657   1.014 -0.0969  0.5139 -0.4075
25539SOL    HW278625   7.260   3.803   0.974  0.3541  0.7055  0.2486
25540SOL     OW78626   5.753   0.568   5.307  0.2257 -0.1290 -0.3154
25540SOL    HW178627   5.806   0.542   5.231 -0.3720  3.2657 -2.1116
25540SOL    HW278628   5.663   0.565   5.274 -0.1022  0.6521  0.4747
25541SOL     OW78629   5.553   9.677   2.011 -0.9803  0.1457 -0.2350
25541SOL    HW178630   5.472   9.717   1.981 -1.5301 -0.3446  0.5886
25541SOL    HW278631   5.561   9.703   2.102  0.9300  2.0155 -0.8452
25542SOL     OW78632   4.000   7.047   8.899 -0.8400 -0.2994 -0.1915
25542SOL    HW178633   3.953   6.983   8.846  0.6320 -2.4685  0.9614
25542SOL    HW278634   3.969   7.032   8.988  0.1529 -0.0409  0.2136
25543SOL     OW78635   6.413  10.998   7.084 -0.5384  0.8323  0.4907
25543SOL    HW178636   6.502  10.983   7.053  0.4101  1.0258  2.8704
25543SOL    HW278637   6.405  11.094   7.086 -0.6500  0.8198  0.6378
25544SOL     OW78638   9.539   0.948   0.823  0.1890  0.7443 -0.3555
25544SOL    HW178639   9.595   0.894   0.768  0.5673  1.1935 -0.4170
25544SOL    HW278640   9.457   0.955   0.774  0.8126  1.8467 -1.2900
25545SOL     OW78641   5.940   2.732   7.995  0.2698  0.3832  0.0594
25545SOL    HW178642   6.019   2.679   8.007  0.8702  1.4250  0.7902
25545SOL    HW278643   5.885   2.709   8.070  1.5974  2.5901  1.8618
25546SOL     OW78644  10.708   4.414   3.523 -0.5841  0.2362 -0.3745
25546SOL    HW178645  10.660   4.426   3.441 -0.9302 -1.8519 -0.5199
25546SOL    HW278646  10.786   4.470   3.513 -1.1982  0.9230 -1.6099
25547SOL     OW78647   6.791   9.237   8.511 -0.3326  0.6284  0.7651
25547SOL    HW178648   6.712   9.266   8.465 -0.4035  0.2884  0.6705
25547SOL    HW278649   6.758   9.192   8.589 -0.2159  1.0870  1.0833
25548SOL     OW78650   0.296   0.195   5.478  0.1317  0.9963 -0.0304
25548SOL    HW178651   0.385   0.231   5.485 -0.8200  3.2207  2.1546
25548SOL    HW278652   0.242   0.270   5.452 -1.7217  0.8923  3.0947
25549SOL     OW78653   7.504   6.626   9.677  0.0800  0.0571 -0.3870
25549SOL    HW178654   7.536   6.662   9.760 -1.2908 -0.5199  0.4216
25549SOL    HW278655   7.482   6.535   9.696 -2.6024  0.5414 -0.6629
25550SOL     OW78656   3.515   6.492   3.039 -0.3911 -0.2967  0.2003
25550SOL    HW178657   3.576   6.567   3.044 -0.3945 -0.2877  0.0948
25550SOL    HW278658   3.501   6.478   2.946  2.2539 -2.5726  0.0272
25551SOL     OW78659   8.687  10.432   3.014  0.4898  0.2003 -0.2461
25551SOL    HW178660   8.737  10.398   3.089  2.0086  2.0554 -0.3324
25551SOL    HW278661   8.741  10.411   2.938 -0.7465 -1.1220 -0.8067
25552SOL     OW78662   2.243   2.611   2.316  0.4188  0.5796 -0.5746
25552SOL    HW178663   2.156   2.590   2.284 -0.0874  0.6810  0.6841
25552SOL    HW278664   2.230   2.687   2.374  1.5577  1.5567 -1.5328
25553SOL     OW78665   9.732   5.351   9.850  0.2959  0.3281 -0.2947
25553SOL    HW178666   9.690   5.437   9.862  1.9154  1.0789  0.2747
25553SOL    HW278667   9.705   5.301   9.927 -1.7235 -0.1876 -1.2604
25554SOL     OW78668   8.828   2.763   6.856 -0.2834  0.4316  0.5077
25554SOL    HW178669   8.896   2.700   6.879  0.0978  1.2866  1.8419
25554SOL    HW278670   8.755   2.743   6.915 -1.2836 -0.5359 -0.9680
25555SOL     OW78671   2.455   9.987   1.044 -0.4107 -0.3053 -0.1821
25555SOL    HW178672   2.528  10.028   1.089  1.2990 -2.7188 -0.5727
25555SOL    HW278673   2.377  10.015   1.093  0.8719  1.2047  1.0946
25556SOL     OW78674   1.523   1.186   4.824 -0.0168  0.8769  0.0541
25556SOL    HW178675   1.499   1.119   4.887  0.0868  0.2697 -0.5369
25556SOL    HW278676   1.569   1.253   4.875  1.1518 -0.1904  0.4232
25557SOL     OW78677   6.248   4.505   8.287  0.2174  0.6969 -0.6947
25557SOL    HW178678   6.175   4.555   8.323  0.2769  0.6348 -0.4856
25557SOL    HW278679   6.238   4.513   8.192 -0.7814 -0.3597 -0.6918
25558SOL     OW78680   9.778   1.006   1.915  0.6587  0.0414  0.1416
25558SOL    HW178681   9.749   0.924   1.956 -0.7702  0.1619 -0.5838
25558SOL    HW278682   9.807   1.060   1.989 -0.9153 -0.1296  0.9237
25559SOL     OW78683   5.244   4.937   1.155 -0.5055  0.3568 -0.2994
25559SOL    HW178684   5.265   4.911   1.244 -0.4201 -1.0447 -0.6992
25559SOL    HW278685   5.244   4.855   1.105  2.7020  1.3576 -2.2571
25560SOL     OW78686   4.480   3.411   1.416 -0.0563 -0.3056 -0.6417
25560SOL    HW178687   4.412   3.344   1.414  1.0289 -1.4228 -1.3070
25560SOL    HW278688   4.475   3.454   1.330 -1.2896  1.0801  0.0700
25561SOL     OW78689   5.361   1.290   4.921 -0.2576 -0.1678 -0.0743
25561SOL    HW178690   5.348   1.201   4.953 -0.5722 -0.2745 -0.4837
25561SOL    HW278691   5.276   1.314   4.882 -0.9929  1.2530  2.2522
25562SOL     OW78692   4.882   5.047   9.681 -0.3112  0.0621 -0.5929
25562SOL    HW178693   4.925   4.963   9.694  0.5109 -0.1256 -3.6889
25562SOL    HW278694   4.951   5.105   9.647 -0.9797  1.8884  0.9565
25563SOL     OW78695   5.947   6.797   3.301 -0.0976 -0.7107  0.0745
25563SOL    HW178696   5.920   6.885   3.329  1.1884 -0.5832  0.9946
25563SOL    HW278697   6.024   6.811   3.247  0.9242 -1.3285  1.3207
25564SOL     OW78698   0.646   9.429  10.610  0.3187 -0.5115  0.5568
25564SOL    HW178699   0.555   9.402  10.619  0.4793 -1.0982  0.4035
25564SOL    HW278700   0.690   9.394  10.687  0.6575 -1.2462  0.0395
25565SOL     OW78701   4.050   0.035   3.160 -0.1939 -0.1161  0.2096
25565SOL    HW178702   4.048  -0.019   3.082  1.2365 -1.1603  0.8456
25565SOL    HW278703   4.123   0.000   3.211 -1.1656  0.4401  2.0716
25566SOL     OW78704   9.346   3.898   4.483 -0.0912  0.0269 -0.7914
25566SOL    HW178705   9.328   3.899   4.577  0.9266  4.2000 -0.4286
25566SOL    HW278706   9.263   3.924   4.443 -0.3239 -1.0280 -1.0167
25567SOL     OW78707   4.925   5.134   2.342 -0.0864  0.0061 -0.0551
25567SOL    HW178708   4.966   5.221   2.338  1.7753 -0.8394 -0.2651
25567SOL    HW278709   4.904   5.121   2.435 -1.1747  0.9879 -0.1317
25568SOL     OW78710   7.549   5.547   7.908 -0.0954 -0.2083  0.0952
25568SOL    HW178711   7.522   5.539   7.817 -0.5816 -0.0987  0.2240
25568SOL    HW278712   7.467   5.547   7.957  0.1268  0.3394  0.4842
25569SOL     OW78713  10.830   0.084   4.796  0.4131 -0.5722  0.1361
25569SOL    HW178714  10.887   0.119   4.728  1.2312 -0.8049  0.6832
25569SOL    HW278715  10.756   0.144   4.800 -0.0512 -0.9875 -1.5000
25570SOL     OW78716   1.834   7.892   4.928 -0.6033  0.2116  0.6593
25570SOL    HW178717   1.754   7.945   4.925  0.3938  1.7444 -0.1611
25570SOL    HW278718   1.807   7.806   4.897 -1.9193  0.7237  0.3288
25571SOL     OW78719   8.850   7.878   6.590  0.0411 -0.4138 -0.6115
25571SOL    HW178720   8.780   7.944   6.585  1.3878  1.0304 -1.3765
25571SOL    HW278721   8.910   7.903   6.520  0.1013 -3.1155 -1.6304
25572SOL     OW78722   6.693   0.789   6.278  0.3037 -0.0757 -0.0161
25572SOL    HW178723   6.705   0.814   6.186  2.9417 -0.5060  0.1363
25572SOL    HW278724   6.763   0.835   6.325 -0.2169 -0.8473  1.5994
25573SOL     OW78725   8.164   9.029   1.907 -0.3639  0.6787  0.5911
25573SOL    HW178726   8.154   9.124   1.907 -0.6501  0.6687  1.6704
25573SOL    HW278727   8.230   9.012   1.975  0.8251  0.1897 -0.6428
25574SOL     OW78728   2.558   7.467   7.308 -0.3767 -0.3164 -0.7086
25574SOL    HW178729   2.598   7.448   7.393 -2.5924  0.8539  0.6569
25574SOL    HW278730   2.521   7.383   7.280  0.1339 -0.6494 -0.4134
25575SOL     OW78731   3.401   6.242   1.042 -0.4542  0.0060  0.3234
25575SOL    HW178732   3.331   6.292   1.000  0.6772 -0.2506 -2.0242
25575SOL    HW278733   3.393   6.264   1.135 -0.9766  3.3600 -0.3799
25576SOL     OW78734   3.572   0.636   3.242 -0.4104  0.4021  0.2201
25576SOL    HW178735   3.642   0.574   3.223 -1.1912 -0.1924 -0.8248
25576SOL    HW278736   3.540   0.609   3.329 -1.1570 -1.0997 -0.4781
25577SOL     OW78737   8.143   5.137   7.721 -0.1038  0.4742 -0.2476
25577SOL    HW178738   8.121   5.186   7.642 -1.2013  0.5052  0.0534
25577SOL    HW278739   8.058   5.112   7.757  0.4208 -0.9127  0.0686
25578SOL     OW78740   7.467   1.205   5.204  0.7330  0.1895  0.0806
25578SOL    HW178741   7.510   1.180   5.285 -1.2243 -0.4444  0.9916
25578SOL    HW278742   7.536   1.200   5.137  1.9651 -1.0720  1.3784
25579SOL     OW78743   2.223   9.457   4.406 -0.2702  0.6257  0.2136
25579SOL    HW178744   2.163   9.502   4.347  1.1005  2.3369  0.0571
25579SOL    HW278745   2.202   9.364   4.395 -1.9686  1.0782 -0.7929
25580SOL     OW78746   9.349   3.993  10.165 -0.5180 -0.2328 -0.2616
25580SOL    HW178747   9.300   3.941  10.100 -0.9690  0.0449 -0.1497
25580SOL    HW278748   9.286   4.059  10.194 -0.5245 -0.7348  0.9141
25581SOL     OW78749   8.823   8.655   6.596 -0.0871  0.0637 -0.0861
25581SOL    HW178750   8.852   8.746   6.603 -1.0190  0.4443 -0.9867
25581SOL    HW278751   8.898   8.609   6.560  0.7445  0.2616  1.3064
25582SOL     OW78752   4.364   3.170  10.430  0.9229 -0.0059  0.0659
25582SOL    HW178753   4.302   3.100  10.451 -1.6348  1.9289 -0.5053
25582SOL    HW278754   4.355   3.232  10.503  0.5365  1.3210 -1.0717
25583SOL     OW78755   9.424   5.174   3.712 -0.0491 -0.3917  0.0542
25583SOL    HW178756   9.343   5.144   3.673 -1.3043 -0.9948  2.8494
25583SOL    HW278757   9.418   5.147   3.804  1.8291  2.4049  1.1513
25584SOL     OW78758   0.456   4.286   3.658 -0.5187  0.5190  0.2319
25584SOL    HW178759   0.500   4.291   3.573 -3.9202  1.8035 -1.6727
25584SOL    HW278760   0.507   4.344   3.715  0.7360  1.2330 -1.5253
25585SOL     OW78761   6.586  11.002   9.933 -0.8863  0.5162  0.1230
25585SOL    HW178762   6.623  11.090   9.929 -0.7975  0.6387  2.2971
25585SOL    HW278763   6.649  10.947   9.887  0.1583  1.2854  0.6012
25586SOL     OW78764   9.076   3.211   3.210  0.0395 -0.1539  0.5642
25586SOL    HW178765   9.141   3.282   3.214 -0.4172  0.2700  0.5928
25586SOL    HW278766   8.993   3.256   3.196 -0.3586 -0.6321  1.3170
25587SOL     OW78767   0.832   1.668   3.061 -0.7530  0.2175  0.1040
25587SOL    HW178768   0.752   1.627   3.092 -0.3711 -0.1697  0.5980
25587SOL    HW278769   0.804   1.728   2.991 -1.6024  0.9076  1.0165
25588SOL     OW78770   2.159   6.543   6.124  0.9379  0.5897  0.0438
25588SOL    HW178771   2.120   6.606   6.063 -1.9005 -0.3951  0.7031
25588SOL    HW278772   2.252   6.568   6.128  0.3752  3.2922 -1.4034
25589SOL     OW78773   9.776   6.599   7.357  0.1159 -0.4055 -0.2653
25589SOL    HW178774   9.861   6.634   7.386  0.1973 -0.0532 -0.9246
25589SOL    HW278775   9.712   6.649   7.407  0.2966 -1.0347  0.6331
25590SOL     OW78776  10.427  10.683   5.161  0.0071 -0.3137  0.3119
25590SOL    HW178777  10.415  10.745   5.233 -0.3105 -1.8506  1.6460
25590SOL    HW278778  10.511  10.642   5.179  0.6497  0.3274 -1.0649
25591SOL     OW78779   4.049   3.424   7.733  0.2912  0.2112 -0.3265
25591SOL    HW178780   4.097   3.351   7.694  0.4040 -1.4957  2.7276
25591SOL    HW278781   4.023   3.393   7.820 -1.9472  2.9012  0.1337
25592SOL     OW78782   5.375   2.640   5.121  0.0494 -0.2185 -0.8426
25592SOL    HW178783   5.289   2.639   5.162  0.6032 -0.1644  0.3442
25592SOL    HW278784   5.367   2.705   5.051 -0.8297 -0.1350 -0.6795
25593SOL     OW78785   3.636   2.891   3.785 -0.2271 -0.6900 -0.9089
25593SOL    HW178786   3.563   2.844   3.825 -2.6102  0.8151 -3.1217
25593SOL    HW278787   3.609   2.983   3.786  2.4479  0.1780 -0.3500
25594SOL     OW78788   3.886   5.974   3.622 -0.6130 -0.3705 -0.6008
25594SOL    HW178789   3.888   6.002   3.530 -0.6402  0.3477 -0.3842
25594SOL    HW278790   3.876   6.055   3.672  0.3783 -0.6553  0.0876
25595SOL     OW78791   3.470   3.190   1.390 -0.0988 -0.0724  0.0473
25595SOL    HW178792   3.375   3.202   1.380  0.0189  0.1120 -1.0169
25595SOL    HW278793   3.505   3.210   1.303  0.7730 -1.6713 -0.0027
25596SOL     OW78794   8.880   3.308   4.382  0.6050  0.2897  0.3431
25596SOL    HW178795   8.954   3.264   4.341 -1.3871 -1.6528 -1.3942
25596SOL    HW278796   8.877   3.272   4.471  1.3021 -0.1480  0.1970
25597SOL     OW78797   4.857   7.122   1.587 -0.0224 -0.8290 -0.2596
25597SOL    HW178798   4.862   7.098   1.679 -1.3402 -0.3717 -0.0504
25597SOL    HW278799   4.763   7.131   1.569  0.2202 -0.6497 -1.5779
25598SOL     OW78800   3.626   6.820   0.706  0.1942 -0.9604  0.1079
25598SOL    HW178801   3.632   6.905   0.663 -1.7362 -0.5185  0.6103
25598SOL    HW278802   3.693   6.823   0.774  2.0701 -0.9797 -1.6457
25599SOL     OW78803   8.918   5.097   4.040 -0.8008  0.9466 -0.5922
25599SOL    HW178804   8.897   5.141   4.123  1.7209  2.0248 -0.4234
25599SOL    HW278805   8.846   5.120   3.981 -2.7650  0.0116  1.2746
25600SOL     OW78806   2.407   8.574   8.040 -0.3536 -0.0627  0.8778
25600SOL    HW178807   2.493   8.543   8.012 -0.4187 -0.0404  0.6460
25600SOL    HW278808   2.383   8.640   7.974  0.6422  1.9242  2.4248
25601SOL     OW78809   6.664  10.654   4.761 -0.1816  0.2050 -0.0123
25601SOL    HW178810   6.620  10.596   4.700  1.3904  0.1851 -1.1952
25601SOL    HW278811   6.622  10.739   4.749 -2.6841 -0.6524  1.9265
25602SOL     OW78812   7.025   7.520   0.735  0.3730 -0.1965 -0.2376
25602SOL    HW178813   7.029   7.426   0.753 -0.8782 -0.2351 -0.0890
25602SOL    HW278814   6.982   7.526   0.650  1.5180  0.2083 -0.8093
25603SOL     OW78815   0.426   5.509   2.458  0.4453 -0.3299 -0.4572
25603SOL    HW178816   0.476   5.572   2.510  2.2232 -1.7144 -0.3541
25603SOL    HW278817   0.456   5.522   2.368 -0.8244  0.4292 -0.7880
25604SOL     OW78818   6.217   3.892   6.933  1.2607  0.6388 -0.0410
25604SOL    HW178819   6.296   3.877   6.880 -0.2898 -0.1204 -2.3125
25604SOL    HW278820   6.206   3.811   6.982  0.8250 -0.0902 -1.2892
25605SOL     OW78821   1.271   6.739   6.969 -0.3561  0.3488  0.1050
25605SOL    HW178822   1.343   6.684   7.000  0.4641  0.2004 -1.8927
25605SOL    HW278823   1.229   6.772   7.049 -1.4255 -3.7688  1.4626
25606SOL     OW78824   9.590   1.926   7.765  0.6415  0.1013  0.1175
25606SOL    HW178825   9.568   1.949   7.855 -1.2654 -0.4553 -0.1731
25606SOL    HW278826   9.645   1.999   7.734  0.5241  0.7571  1.4116
25607SOL     OW78827   3.694   9.962   8.289 -0.3015 -0.1016  1.0732
25607SOL    HW178828   3.643   9.901   8.235  1.2452  0.3048 -0.9955
25607SOL    HW278829   3.784   9.930   8.283  0.4236  1.8584  0.5870
25608SOL     OW78830   1.890   4.691   9.871 -0.1280  0.4076  0.0925
25608SOL    HW178831   1.839   4.732   9.801  0.3716  0.4781 -0.2316
25608SOL    HW278832   1.960   4.644   9.825  0.2054  0.4625  0.5430
25609SOL     OW78833   6.280   6.082   2.231 -0.2556  0.4167  0.8042
25609SOL    HW178834   6.315   6.168   2.209 -0.3705  0.4894  0.9064
25609SOL    HW278835   6.185   6.093   2.226 -0.3326 -0.5495 -2.6489
25610SOL     OW78836   5.586   1.397   1.858  0.5449  0.0016 -0.5691
25610SOL    HW178837   5.579   1.392   1.953  1.8746  0.4245 -0.4352
25610SOL    HW278838   5.580   1.490   1.838 -0.2711 -0.1216 -0.9704
25611SOL     OW78839   6.332   0.212   9.201 -0.7691 -0.3070  0.2713
25611SOL    HW178840   6.379   0.238   9.122  2.3172 -0.2955  1.9501
25611SOL    HW278841   6.281   0.289   9.226 -0.2252  0.3684 -0.6449
25612SOL     OW78842   3.812   8.509   2.840 -0.1371 -0.1059 -0.3904
25612SOL    HW178843   3.846   8.551   2.918 -0.5577 -1.7437  0.7375
25612SOL    HW278844   3.739   8.455   2.872 -0.1697 -0.9923 -1.8764
25613SOL     OW78845   7.441   5.059   7.249  0.0300 -0.8040  0.2824
25613SOL    HW178846   7.532   5.033   7.234  0.7343 -0.4698  3.3396
25613SOL    HW278847   7.394   4.977   7.263  0.0315 -0.9301 -0.4309
25614SOL     OW78848   2.147  10.028  10.608  0.7357  0.5633 -0.8992
25614SOL    HW178849   2.095  10.078  10.671 -1.4340 -2.5493  0.0479
25614SOL    HW278850   2.234  10.023  10.647 -0.4561 -1.0083  1.8561
25615SOL     OW78851   0.188   0.711   8.299  0.4782 -0.3474 -0.4502
25615SOL    HW178852   0.138   0.692   8.220  0.1639 -3.3051  0.3191
25615SOL    HW278853   0.221   0.625   8.327  1.9003  0.8244  1.7567
25616SOL     OW78854   5.601   5.881   9.119 -0.2192  0.4723 -0.3831
25616SOL    HW178855   5.560   5.794   9.119 -0.8282  0.7398  1.1785
25616SOL    HW278856   5.688   5.867   9.080 -0.9284 -0.5102 -1.6899
25617SOL     OW78857   9.633   3.767   3.351  0.0327 -0.0761 -0.3268
25617SOL    HW178858   9.575   3.691   3.352  0.9882 -0.8348  2.0219
25617SOL    HW278859   9.583   3.835   3.395  0.0160  0.0069 -0.4724
25618SOL     OW78860   8.289   7.603   0.813 -0.5851 -1.1412  0.2013
25618SOL    HW178861   8.250   7.519   0.838 -0.0728 -1.5305 -0.2792
25618SOL    HW278862   8.267   7.662   0.885 -0.4544 -1.8385  0.8286
25619SOL     OW78863   4.741   6.502   7.432 -0.3397 -0.4630 -0.3150
25619SOL    HW178864   4.826   6.545   7.424  0.4518 -2.2955 -3.0238
25619SOL    HW278865   4.759   6.423   7.484 -0.8937  0.1921  0.9275
25620SOL     OW78866   1.524   6.016   9.856 -0.5840  0.4028 -0.0917
25620SOL    HW178867   1.464   6.054   9.792 -1.5438 -0.9548 -0.0406
25620SOL    HW278868   1.536   5.926   9.826 -0.1772  0.0646  1.0527
25621SOL     OW78869   3.713  10.414  10.266 -0.1397 -0.0467  0.0895
25621SOL    HW178870   3.777  10.396  10.197 -0.3462 -1.4036  0.2107
25621SOL    HW278871   3.667  10.493  10.238  2.0859  1.4407  0.3817
25622SOL     OW78872   8.847   3.826   4.998 -0.1871  0.1728  0.0490
25622SOL    HW178873   8.842   3.904   4.943 -2.0597  0.7164  0.9220
25622SOL    HW278874   8.804   3.851   5.079  0.7170 -1.2527  1.0201
25623SOL     OW78875   8.653   0.037   1.037 -0.0890  0.3678  0.0917
25623SOL    HW178876   8.639  -0.022   0.963  3.8768  1.4842 -1.8003
25623SOL    HW278877   8.579   0.098   1.034 -0.6543 -0.3505 -2.2146
25624SOL     OW78878   3.684   4.964   4.757 -0.1597  0.3084  0.2174
25624SOL    HW178879   3.773   4.946   4.728  0.2635  1.0215  1.0450
25624SOL    HW278880   3.678   4.925   4.844  0.1605  2.3443  1.2157
25625SOL     OW78881   5.485   5.073   3.205 -0.0201  0.1601  0.1812
25625SOL    HW178882   5.498   5.122   3.286  0.0967  1.1314 -0.4079
25625SOL    HW278883   5.464   5.139   3.139 -0.8824 -0.6828 -0.4305
25626SOL     OW78884   4.411   3.427   6.458  0.2215  0.3621 -0.8354
25626SOL    HW178885   4.373   3.500   6.410  0.3832  0.4030 -0.9017
25626SOL    HW278886   4.353   3.353   6.439  0.5464  0.2698 -1.4697
25627SOL     OW78887   3.708   3.517   1.397  0.0152 -0.1546 -0.5736
25627SOL    HW178888   3.756   3.600   1.403  0.1130 -0.1023 -1.7357
25627SOL    HW278889   3.670   3.504   1.484 -0.2884  1.2844 -0.4688
25628SOL     OW78890   9.632   1.416   9.142 -0.6834  0.3766 -0.1271
25628SOL    HW178891   9.658   1.427   9.234  0.2380 -0.8389 -0.2148
25628SOL    HW278892   9.538   1.399   9.146 -0.7002  0.6105  0.5755
25629SOL     OW78893   6.368   8.599   2.556 -0.2102  0.0977  0.1373
25629SOL    HW178894   6.461   8.584   2.539  0.2826  2.1465  0.6614
25629SOL    HW278895   6.343   8.528   2.615  0.8332 -0.8719 -0.5302
25630SOL     OW78896   8.002  10.448   0.881  0.1660  0.5803  0.4865
25630SOL    HW178897   7.954  10.491   0.951 -0.8496  0.0363  0.1404
25630SOL    HW278898   8.049  10.377   0.924 -0.7176  0.0424  0.5710
25631SOL     OW78899   7.910   4.354  10.248  0.3800  0.0662 -0.7196
25631SOL    HW178900   7.842   4.401  10.296  0.6463 -1.5367  1.3556
25631SOL    HW278901   7.868   4.272  10.223  1.1535 -0.3593 -0.6263
25632SOL     OW78902   4.700   0.253   8.206  0.0661 -0.6017  0.1150
25632SOL    HW178903   4.756   0.232   8.131  0.1393 -0.4778  0.1344
25632SOL    HW278904   4.743   0.211   8.280 -0.6677 -1.7935 -0.1010
25633SOL     OW78905   8.451   8.806   3.635 -0.3768  0.1566 -0.2123
25633SOL    HW178906   8.434   8.844   3.721  1.1510 -0.3074  0.3379
25633SOL    HW278907   8.493   8.722   3.654  1.6863  0.8486 -1.3455
25634SOL     OW78908   5.297   6.119   3.204 -0.2584  0.5187 -0.3646
25634SOL    HW178909   5.376   6.138   3.155 -0.9048  0.2057 -1.5707
25634SOL    HW278910   5.246   6.061   3.147 -1.9977  1.8701 -0.2730
25635SOL     OW78911   1.735  10.499   0.508  0.0296 -0.2785  0.2184
25635SOL    HW178912   1.821  10.506   0.466 -0.1155  2.1782  0.2341
25635SOL    HW278913   1.725  10.405   0.525  2.9296 -0.6004  0.6963
25636SOL     OW78914   1.623   4.242   4.856 -0.9941 -0.4098 -0.5297
25636SOL    HW178915   1.655   4.318   4.905  0.7530 -1.9054  0.7537
25636SOL    HW278916   1.650   4.259   4.766  0.5474 -0.0842 -0.0407
25637SOL     OW78917   6.610   5.343   5.208 -0.3484  0.9258 -0.7421
25637SOL    HW178918   6.561   5.264   5.187 -0.6906  0.4030  1.7672
25637SOL    HW278919   6.701   5.322   5.186 -0.4456 -0.1619 -0.1493
25638SOL     OW78920  10.095   0.058  10.764  0.6688  0.2548 -0.0593
25638SOL    HW178921  10.051   0.131  10.808  0.0430  0.1561 -0.5053
25638SOL    HW278922  10.023   0.003  10.733  1.1022  0.3472 -1.2397
25639SOL     OW78923   3.407   3.245   2.512  0.0795  0.0692 -0.0055
25639SOL    HW178924   3.386   3.333   2.480 -0.7441  0.3089  1.1049
25639SOL    HW278925   3.333   3.223   2.568 -1.1647 -2.5176 -2.4453
25640SOL     OW78926  10.259  10.672   1.539  0.6062  0.4983 -0.1483
25640SOL    HW178927  10.295  10.599   1.588  1.2745  0.1400 -1.1475
25640SOL    HW278928  10.305  10.670   1.455 -1.2833  0.4182 -1.2412
25641SOL     OW78929   6.366  11.018   3.870  0.0916  0.3348  0.3643
25641SOL    HW178930   6.440  10.961   3.890  1.0348  0.7781 -1.6843
25641SOL    HW278931   6.289  10.963   3.886  0.9540 -2.3905 -3.3594
25642SOL     OW78932   1.704   8.398   0.007 -0.4122 -0.4334  0.7442
25642SOL    HW178933   1.697   8.483   0.052 -0.1391  0.0280 -0.0525
25642SOL    HW278934   1.615   8.378  -0.020 -0.5707 -0.6901  1.4288
25643SOL     OW78935   1.637   8.937   1.977 -0.1036 -0.1364 -0.5431
25643SOL    HW178936   1.574   9.005   2.001  0.1508  0.5531 -1.7492
25643SOL    HW278937   1.612   8.862   2.030 -0.6849  0.7464  0.4752
25644SOL     OW78938   8.449   2.079   3.154 -0.2637  0.4453 -0.1136
25644SOL    HW178939   8.544   2.093   3.144 -0.2123  0.4351  0.3402
25644SOL    HW278940   8.438   2.059   3.246 -0.6402 -0.1409 -0.2845
25645SOL     OW78941   7.808   8.798   4.438 -0.0877  0.1558  0.6293
25645SOL    HW178942   7.874   8.862   4.411  0.4866 -0.9175 -0.6004
25645SOL    HW278943   7.845   8.756   4.516  0.4963 -0.1185  0.2141
25646SOL     OW78944   1.836   0.509   5.487  0.0752 -1.2930 -0.0114
25646SOL    HW178945   1.753   0.484   5.446  0.2219 -2.7783  0.5279
25646SOL    HW278946   1.894   0.530   5.413 -0.4804 -1.1934 -0.4298
25647SOL     OW78947   4.609   0.154  10.926  0.4497 -0.5787  0.3458
25647SOL    HW178948   4.685   0.145  10.869  0.2277 -0.1633 -0.0171
25647SOL    HW278949   4.548   0.086  10.896  0.2908 -0.2931  0.0224
25648SOL     OW78950   2.219   4.656   3.056 -0.1148  0.4133 -0.1267
25648SOL    HW178951   2.144   4.661   2.995 -0.7900 -1.4288  0.4900
25648SOL    HW278952   2.225   4.563   3.078  4.2335 -0.1030 -2.4372
25649SOL     OW78953   9.401   4.865  10.579  0.4336  0.1380  0.3167
25649SOL    HW178954   9.464   4.794  10.563  2.8250  1.7557  1.8927
25649SOL    HW278955   9.419   4.929  10.510 -1.0826 -0.3103 -0.5452
25650SOL     OW78956   8.782   2.214   1.286 -0.2128 -0.0482 -0.6550
25650SOL    HW178957   8.780   2.132   1.335 -0.0228  0.4037  0.1220
25650SOL    HW278958   8.714   2.268   1.326 -1.6230 -0.4538 -2.3390
25651SOL     OW78959  10.328   8.911   1.676 -0.4153  0.2457  0.0038
25651SOL    HW178960  10.340   8.859   1.756 -0.3191  1.5473  0.8562
25651SOL    HW278961  10.281   8.853   1.617  0.3174 -1.0726  0.6583
25652SOL     OW78962   1.994   4.530   8.772  0.5430 -0.2373 -0.0229
25652SOL    HW178963   2.005   4.435   8.762  3.7613  0.1288 -1.5070
25652SOL    HW278964   2.011   4.565   8.684 -4.8285  1.6369 -0.6747
25653SOL     OW78965   0.752   9.085   8.507  0.2587 -0.3241  0.1202
25653SOL    HW178966   0.819   9.144   8.542  1.3493 -1.4369 -0.0244
25653SOL    HW278967   0.800   9.005   8.484 -1.3868 -1.8176  1.6044
25654SOL     OW78968   8.336   5.991   7.600  0.2531 -0.2037  0.2074
25654SOL    HW178969   8.416   5.947   7.630 -0.1737 -0.9067  0.3384
25654SOL    HW278970   8.295   5.928   7.541 -0.5506 -0.1198  0.6697
25655SOL     OW78971   0.717   3.272  10.543  0.3591  0.0770 -0.2808
25655SOL    HW178972   0.629   3.290  10.511  0.4848  0.8254 -0.2200
25655SOL    HW278973   0.732   3.180  10.522 -1.5458 -0.9423  2.3026
25656SOL     OW78974   6.281   3.670   2.674 -0.2593 -0.1865  0.1817
25656SOL    HW178975   6.232   3.751   2.690 -0.7773 -0.4023 -0.2859
25656SOL    HW278976   6.232   3.625   2.606  0.1302 -0.8112  0.3030
25657SOL     OW78977   4.485   4.257   0.643  0.0392  0.6458 -0.0857
25657SOL    HW178978   4.562   4.201   0.657  0.0813  0.4002 -1.2003
25657SOL    HW278979   4.439   4.216   0.570 -1.2870  0.6658  0.7118
25658SOL     OW78980   7.796   7.873  10.102 -0.1529 -0.2110  0.7516
25658SOL    HW178981   7.879   7.851  10.061  1.1978  3.1228  1.3870
25658SOL    HW278982   7.786   7.808  10.172  2.6329  0.0734  1.5196
25659SOL     OW78983   1.023   2.170   3.246  0.4565  0.3876 -0.3164
25659SOL    HW178984   1.046   2.077   3.245  2.0243  0.7471 -1.3058
25659SOL    HW278985   1.096   2.213   3.202 -0.6745  1.9995 -0.7050
25660SOL     OW78986   8.084   0.915  10.319  0.0582  0.6683  0.1434
25660SOL    HW178987   8.148   0.950  10.381  0.2049  0.6991 -0.0271
25660SOL    HW278988   8.128   0.839  10.279  0.1936  1.0158 -0.3714
25661SOL     OW78989  10.164   8.778   2.709 -0.1944  0.6926 -0.5395
25661SOL    HW178990  10.183   8.768   2.803  1.2250 -0.8766 -0.9448
25661SOL    HW278991  10.141   8.870   2.699  0.3362  1.0583  1.2331
25662SOL     OW78992   1.064   4.260   4.692 -0.3920  0.4339  0.5537
25662SOL    HW178993   1.072   4.165   4.686 -0.1879  0.4456  0.6426
25662SOL    HW278994   1.139   4.294   4.641  0.4509  0.5421  1.8264
25663SOL     OW78995   5.554   2.002   3.087  0.2082  1.0750 -0.0618
25663SOL    HW178996   5.637   2.017   3.133 -0.2438  1.6081  0.5970
25663SOL    HW278997   5.580   1.987   2.996  1.1013  0.2679  0.3025
25664SOL     OW78998   9.557   8.576   8.611 -0.7137  0.3562 -0.1046
25664SOL    HW178999   9.587   8.596   8.700 -1.7227 -0.7380  0.5244
25664SOL    HW279000   9.520   8.658   8.579 -1.6600  0.4299  1.0760
25665SOL     OW79001   9.781   8.377   7.862  0.4008  1.0805 -0.5283
25665SOL    HW179002   9.876   8.380   7.863  0.4055  0.9280 -0.5773
25665SOL    HW279003   9.757   8.347   7.950  0.3400  2.9213  0.1325
25666SOL     OW79004   1.617   2.529   1.465  0.3207 -0.8569  0.6828
25666SOL    HW179005   1.686   2.463   1.463  0.1925 -0.9769 -0.0020
25666SOL    HW279006   1.620   2.569   1.378 -0.5079 -0.9037  0.6256
25667SOL     OW79007   2.546   9.341   6.156 -0.1051  0.4911 -0.1388
25667SOL    HW179008   2.568   9.291   6.077  1.9281  0.0597  0.6464
25667SOL    HW279009   2.628   9.382   6.183 -1.5657  3.8223 -0.3772
25668SOL     OW79010   5.357  10.074  11.090  0.6632  0.3267  0.0578
25668SOL    HW179011   5.424  10.124  11.043  0.1483 -0.5936 -1.7145
25668SOL    HW279012   5.274  10.112  11.060  0.3133 -0.6219 -0.2025
25669SOL     OW79013   4.854  11.068   8.783 -0.3487 -0.2850 -0.4481
25669SOL    HW179014   4.811  10.983   8.769 -0.3602 -0.5482  1.0648
25669SOL    HW279015   4.793  11.118   8.837 -1.2868  1.5296 -3.0142
25670SOL     OW79016   1.205   2.734   8.971 -0.1596  0.0842  0.0953
25670SOL    HW179017   1.218   2.654   8.919  1.0097 -0.5519  1.3002
25670SOL    HW279018   1.180   2.800   8.907 -0.4569 -1.0751 -1.0326
25671SOL     OW79019   6.151   2.343   2.936 -0.0371 -0.6421 -0.1403
25671SOL    HW179020   6.065   2.373   2.905 -0.1297 -0.7901 -0.0296
25671SOL    HW279021   6.214   2.400   2.892 -0.1794 -0.7175 -0.4391
25672SOL     OW79022   3.660   4.474  10.026 -0.1949 -1.1269  0.1431
25672SOL    HW179023   3.688   4.384  10.005  2.1693  0.0946 -2.7307
25672SOL    HW279024   3.728   4.506  10.085 -0.9496 -1.1395  1.0343
25673SOL     OW79025   5.254   2.813   5.324  0.3144 -0.0002 -0.3592
25673SOL    HW179026   5.265   2.719   5.338 -0.6741  0.1038  1.4873
25673SOL    HW279027   5.343   2.847   5.319  0.6859 -0.9613 -0.5181
25674SOL     OW79028   8.940   9.827   3.290 -0.5478 -0.7715 -0.1548
25674SOL    HW179029   8.950   9.760   3.222  0.4577 -0.8189  0.0231
25674SOL    HW279030   9.017   9.883   3.281 -0.5208 -0.6317  0.7881
25675SOL     OW79031   6.358   0.616   4.826 -0.0301 -0.3772  0.7665
25675SOL    HW179032   6.277   0.635   4.779  1.1535 -0.3483 -1.3622
25675SOL    HW279033   6.420   0.682   4.795  1.1352 -1.0960  1.4881
25676SOL     OW79034   7.899   8.564   0.171  0.7557 -0.4545  0.5846
25676SOL    HW179035   7.900   8.645   0.221  2.6907 -0.1140  0.0593
25676SOL    HW279036   7.910   8.591   0.080  2.4916 -1.3152  0.4952
25677SOL     OW79037   1.038   4.425   2.691 -0.2675 -0.0183 -0.1087
25677SOL    HW179038   1.082   4.452   2.610  0.6835  0.7840  0.6323
25677SOL    HW279039   1.099   4.452   2.760 -0.9455 -0.9072  0.8625
25678SOL     OW79040  10.174   2.542  10.312 -0.2589 -0.8807 -0.5838
25678SOL    HW179041  10.149   2.633  10.329  0.3482 -0.7088 -0.6000
25678SOL    HW279042  10.125   2.492  10.377 -1.0451 -0.6046 -0.9465
25679SOL     OW79043   7.547   7.484  10.094 -0.4115  0.1004 -0.4532
25679SOL    HW179044   7.587   7.569  10.074  0.4802 -0.1146  0.3413
25679SOL    HW279045   7.477   7.475  10.029 -0.2432  1.2417 -0.8271
25680SOL     OW79046   1.976   5.835   0.789 -0.0787 -0.1502 -0.3958
25680SOL    HW179047   1.945   5.926   0.791 -0.0375 -0.1459  0.0740
25680SOL    HW279048   2.021   5.828   0.704 -3.5572 -0.9021 -2.3799
25681SOL     OW79049   0.552   4.268   8.289  0.5281  0.1338  0.6728
25681SOL    HW179050   0.486   4.205   8.320  0.1169  0.3836  0.3114
25681SOL    HW279051   0.539   4.344   8.345  1.1161 -0.1362  1.2009
25682SOL     OW79052   1.373   7.867   1.950  0.3865  0.2369 -0.7771
25682SOL    HW179053   1.422   7.907   2.022 -0.4631  1.3687 -0.8070
25682SOL    HW279054   1.411   7.906   1.871 -1.1128  1.8053 -0.7654
25683SOL     OW79055  10.415  10.233   4.513  0.3250  0.2306 -0.0309
25683SOL    HW179056  10.360  10.273   4.580 -1.1818 -1.9298  0.1095
25683SOL    HW279057  10.354  10.209   4.443  1.2746 -1.0882 -0.4435
25684SOL     OW79058   1.853   6.383   1.077  0.0717 -0.4017  0.0304
25684SOL    HW179059   1.932   6.429   1.050 -0.0561 -0.4428 -0.4260
25684SOL    HW279060   1.789   6.453   1.091  0.1654 -0.3737  0.3262
25685SOL     OW79061   1.807   6.637   3.293 -0.0411  0.0224  0.3739
25685SOL    HW179062   1.779   6.572   3.357  1.1134  0.5683  1.4807
25685SOL    HW279063   1.726   6.669   3.254 -0.9235  0.6672  2.5783
25686SOL     OW79064   7.654   1.984   0.596 -0.4446 -0.4665  0.4254
25686SOL    HW179065   7.683   2.047   0.662 -0.7430  0.8060 -0.6015
25686SOL    HW279066   7.666   2.030   0.513  2.9296 -3.0909 -0.7790
25687SOL     OW79067   4.819   5.953   7.873 -0.1259  0.2020  0.3719
25687SOL    HW179068   4.726   5.950   7.850  0.4325  1.9056 -2.6762
25687SOL    HW279069   4.859   6.008   7.806  3.1187 -0.4070  1.5909
25688SOL     OW79070   4.645   5.154   5.675  0.2037 -0.1108 -0.3303
25688SOL    HW179071   4.692   5.071   5.687 -4.1087 -2.7841  0.1105
25688SOL    HW279072   4.675   5.209   5.747  1.4424 -2.2073  0.8671
25689SOL     OW79073   3.655  10.817   0.273  0.4078  0.4185 -0.1993
25689SOL    HW179074   3.585  10.780   0.328 -1.0306  0.6504 -1.7764
25689SOL    HW279075   3.701  10.740   0.238  1.0546  0.2664  0.9442
25690SOL     OW79076   2.446   7.281   6.891 -0.1799  0.1085  1.2196
25690SOL    HW179077   2.421   7.314   6.804  3.3297  0.3289  0.1295
25690SOL    HW279078   2.448   7.359   6.947  0.2744  0.4468  0.7428
25691SOL     OW79079   6.213   5.039  10.483  0.3182 -0.4040 -0.0657
25691SOL    HW179080   6.279   5.017  10.418  1.5788 -0.7321  1.2804
25691SOL    HW279081   6.133   5.054  10.432  1.3484 -0.2602 -1.7065
25692SOL     OW79082   7.831   2.445   4.722 -0.6515  0.5893  0.0390
25692SOL    HW179083   7.739   2.470   4.725 -0.4164  1.4835  0.0685
25692SOL    HW279084   7.860   2.469   4.634 -1.2931 -2.8785 -1.2842
25693SOL     OW79085   7.748   8.801   9.225  0.1450 -0.3412  0.0187
25693SOL    HW179086   7.660   8.779   9.194  0.2987  0.9716 -1.4753
25693SOL    HW279087   7.773   8.877   9.173  2.3600 -0.9674  0.0816
25694SOL     OW79088   6.176   5.247   0.361  0.3178  0.0030 -0.4061
25694SOL    HW179089   6.233   5.180   0.398  0.1325  0.8793  1.5721
25694SOL    HW279090   6.137   5.291   0.436 -0.3917  1.6424 -1.6474
25695SOL     OW79091   9.797   0.309   5.449  0.4185 -0.1366 -0.1327
25695SOL    HW179092   9.791   0.344   5.360  3.1458 -0.5894 -0.5754
25695SOL    HW279093   9.844   0.226   5.440 -1.4784 -1.4920  1.4933
25696SOL     OW79094   0.638   6.529  10.550  0.1584  0.6208 -0.1405
25696SOL    HW179095   0.597   6.609  10.580  1.7148  0.9996  1.1381
25696SOL    HW279096   0.679   6.552  10.467 -2.8721 -0.0268 -1.9763
25697SOL     OW79097   4.072   7.830   6.502  0.4493 -0.1805 -0.3642
25697SOL    HW179098   4.141   7.867   6.448 -0.2170  0.7437 -0.5951
25697SOL    HW279099   4.062   7.740   6.469  0.3606  0.2282 -1.4721
25698SOL     OW79100   2.969  10.425   1.393 -0.0580 -0.0234  0.7694
25698SOL    HW179101   3.051  10.435   1.442 -0.0400  1.4060  0.4897
25698SOL    HW279102   2.937  10.339   1.418  0.6394  0.1134  2.2546
25699SOL     OW79103   0.060   5.766   8.353 -0.6073 -0.0763 -0.6045
25699SOL    HW179104  -0.016   5.810   8.390  1.0357  0.9043  1.8545
25699SOL    HW279105   0.083   5.699   8.417  1.2703  0.4612 -0.6475
25700SOL     OW79106   4.361   8.949   5.931  0.6549 -0.1684  0.2362
25700SOL    HW179107   4.377   8.859   5.900 -3.0114 -0.9899  0.2536
25700SOL    HW279108   4.327   8.937   6.019 -0.9232  1.1011 -0.1611
25701SOL     OW79109   9.115   3.734  10.067  0.1264  0.0369 -0.9190
25701SOL    HW179110   9.151   3.648  10.087  0.5635  0.2932 -0.6064
25701SOL    HW279111   9.145   3.752   9.978 -1.5563 -0.9624 -1.7562
25702SOL     OW79112   9.056   2.050   5.517 -0.5714 -0.3082  0.2192
25702SOL    HW179113   8.974   2.100   5.512 -0.7596 -0.7279 -1.1416
25702SOL    HW279114   9.089   2.068   5.606 -0.4872  2.4454 -0.2759
25703SOL     OW79115   5.643   0.954   4.442  0.1587 -0.7697  0.1872
25703SOL    HW179116   5.678   0.880   4.492 -0.0482 -0.9159  0.1155
25703SOL    HW279117   5.624   1.021   4.508  1.2521 -0.4108  0.1589
25704SOL     OW79118   8.418   5.968   2.290  0.3074 -0.0980  0.6065
25704SOL    HW179119   8.423   5.877   2.318 -0.8623  0.1197  1.5925
25704SOL    HW279120   8.334   5.975   2.245  1.4389 -0.0487 -1.6148
25705SOL     OW79121   0.643   5.729   0.613 -0.1592  0.0079 -0.1615
25705SOL    HW179122   0.584   5.798   0.581 -1.5036 -1.7218 -1.6096
25705SOL    HW279123   0.600   5.696   0.692  0.7085  1.0742  0.7831
25706SOL     OW79124   3.935   5.664   4.068 -0.2050 -0.3173 -0.3081
25706SOL    HW179125   3.943   5.591   4.007  0.9267 -0.1005 -0.4432
25706SOL    HW279126   3.853   5.648   4.115  0.4134 -2.0877  0.2046
25707SOL     OW79127   5.236   8.598   9.000 -0.0859 -0.2065  0.0787
25707SOL    HW179128   5.144   8.574   9.009 -0.0768 -0.8847 -1.2617
25707SOL    HW279129   5.234   8.680   8.950  0.0243 -0.0155  0.3886
25708SOL     OW79130   2.477   8.873  10.721 -0.2393 -0.3794  0.7942
25708SOL    HW179131   2.392   8.914  10.731 -0.3649 -0.8034  1.5436
25708SOL    HW279132   2.538   8.933  10.765  0.1899  0.9391 -1.4297
25709SOL     OW79133   7.628   5.491  10.361 -0.1410 -0.5588  0.1588
25709SOL    HW179134   7.695   5.432  10.326  1.0729 -0.2889  1.8874
25709SOL    HW279135   7.554   5.434  10.383  1.1593 -1.5823  2.1747
25710SOL     OW79136   8.033  10.760   4.948 -0.1860  0.0837  0.0852
25710SOL    HW179137   8.054  10.721   4.863 -0.3195 -0.8752  0.4838
25710SOL    HW279138   8.072  10.701   5.012  0.7391  1.3038  0.6894
25711SOL     OW79139   4.046   1.503   6.831 -0.6134  0.3208  0.2628
25711SOL    HW179140   3.971   1.517   6.889 -1.5141 -4.1772  0.5584
25711SOL    HW279141   4.106   1.449   6.882  2.2136  2.4615 -0.5487
25712SOL     OW79142   5.253  10.927   4.992 -0.4103  0.5543 -0.7373
25712SOL    HW179143   5.345  10.948   5.012 -0.4758  0.4097 -0.2628
25712SOL    HW279144   5.206  10.950   5.072 -0.0921 -4.3004  1.1955
25713SOL     OW79145   0.639   8.199  10.533 -0.0335  0.1509 -0.1054
25713SOL    HW179146   0.579   8.126  10.548 -0.4481  0.6821  1.0033
25713SOL    HW279147   0.582   8.273  10.513  0.1740  0.7536  1.3496
25714SOL     OW79148   1.188   3.987   0.087  0.3648 -0.7717 -0.7965
25714SOL    HW179149   1.257   4.050   0.066 -0.3380 -0.1605 -1.3634
25714SOL    HW279150   1.185   3.986   0.182 -1.5979  2.4089 -0.6557
25715SOL     OW79151   8.722   5.835   6.913 -0.2129  0.7436 -0.0473
25715SOL    HW179152   8.691   5.766   6.856 -0.4719 -0.2712  1.2691
25715SOL    HW279153   8.645   5.861   6.965 -0.2745  2.4542 -0.9011
25716SOL     OW79154   2.945   6.406   5.285  0.6463 -0.4018 -0.1698
25716SOL    HW179155   3.028   6.429   5.327  0.8139  0.8289 -1.1270
25716SOL    HW279156   2.886   6.478   5.305 -0.1457 -1.1563  0.2980
25717SOL     OW79157   9.654   9.783   3.332  0.5506  0.5733  0.3357
25717SOL    HW179158   9.678   9.859   3.279 -0.2482  0.9475  0.5019
25717SOL    HW279159   9.738   9.744   3.357  0.9554  1.1047 -0.1710
25718SOL     OW79160   3.040   9.136   0.636 -0.3166  0.2632 -0.2460
25718SOL    HW179161   3.028   9.041   0.643  0.2591  0.2072  0.0037
25718SOL    HW279162   3.014   9.156   0.546  3.8347 -0.8397 -1.9318
25719SOL     OW79163  10.618   7.533   9.021  0.3288  0.3853  0.1609
25719SOL    HW179164  10.552   7.565   8.960 -0.2872 -1.9470 -0.4949
25719SOL    HW279165  10.701   7.560   8.984 -0.0623 -0.6073 -1.5311
25720SOL     OW79166   1.174   1.640   7.232 -0.2001  0.2217 -0.7159
25720SOL    HW179167   1.253   1.622   7.283 -1.0567 -1.8351  0.0053
25720SOL    HW279168   1.109   1.664   7.298 -0.7653 -0.4107 -1.0257
25721SOL     OW79169  10.665   1.576   7.725  0.3533  0.8441  0.2949
25721SOL    HW179170  10.583   1.625   7.719 -0.8162 -0.8569  1.4308
25721SOL    HW279171  10.673   1.553   7.818  0.4939 -1.5643 -0.2281
25722SOL     OW79172   8.897   8.794   0.382  0.2999 -0.0283  0.7281
25722SOL    HW179173   8.847   8.806   0.300  1.8736  0.5672 -0.1887
25722SOL    HW279174   8.952   8.718   0.365  0.2452 -0.2338  1.4511
25723SOL     OW79175   6.854   3.320   0.863 -0.2773  0.0455  0.9616
25723SOL    HW179176   6.793   3.284   0.799 -0.2716  1.5937  0.0280
25723SOL    HW279177   6.938   3.323   0.818 -0.5149  2.2561  0.5485
25724SOL     OW79178  10.202   3.211   3.623 -0.0036 -0.1157  0.1445
25724SOL    HW179179  10.274   3.273   3.617  0.7982 -1.0674 -0.4808
25724SOL    HW279180  10.162   3.228   3.708  0.7705  0.6363  0.3687
25725SOL     OW79181   3.975   4.867   4.646  0.3201 -0.7171 -0.2514
25725SOL    HW179182   4.062   4.837   4.670  0.0723 -1.3114 -0.0768
25725SOL    HW279183   3.964   4.950   4.693  0.7032 -0.7524 -0.0989
25726SOL     OW79184   8.282   0.091   8.495 -0.1548 -0.2178  0.2962
25726SOL    HW179185   8.351   0.068   8.433  0.5377  1.4135  0.4132
25726SOL    HW279186   8.297   0.034   8.571  2.1585  1.2624  1.0444
25727SOL     OW79187   4.216   6.509   2.449  0.0089 -0.0029  0.1623
25727SOL    HW179188   4.185   6.589   2.408 -0.3842 -0.9080 -1.4109
25727SOL    HW279189   4.150   6.487   2.514  0.1309  0.9469  0.6123
25728SOL     OW79190   6.113   6.098   3.548 -0.2411 -0.0935 -0.1628
25728SOL    HW179191   6.165   6.154   3.605 -0.8553  0.0593  0.2647
25728SOL    HW279192   6.173   6.071   3.479  0.6555 -0.6623  0.8111
25729SOL     OW79193   1.000   9.316   2.124  0.5212  0.0605  0.2605
25729SOL    HW179194   0.912   9.282   2.108  0.3832 -0.9503  2.7815
25729SOL    HW279195   1.058   9.240   2.111  0.8991  0.4042 -0.0993
25730SOL     OW79196   8.181   4.568   9.116 -0.5173  0.4390  0.5879
25730SOL    HW179197   8.220   4.492   9.161 -1.4133 -0.7141 -0.5330
25730SOL    HW279198   8.125   4.530   9.048 -0.7676  2.1212 -0.1901
25731SOL     OW79199   1.714   5.511   8.982  0.5786 -0.2659  0.6378
25731SOL    HW179200   1.809   5.514   8.971  0.6808 -0.6641  1.3618
25731SOL    HW279201   1.681   5.576   8.920  1.3201 -0.1138  0.3863
25732SOL     OW79202   3.173   8.448   5.520 -0.8253 -0.6394 -0.5126
25732SOL    HW179203   3.220   8.452   5.603 -3.0604  0.5826  0.7703
25732SOL    HW279204   3.209   8.370   5.477  2.7274  0.4870  0.0465
25733SOL     OW79205   3.799   6.247   3.223 -0.6339 -0.0241  0.0668
25733SOL    HW179206   3.813   6.331   3.180 -1.2555  0.0592  0.0183
25733SOL    HW279207   3.712   6.219   3.192 -0.6789 -0.4080  0.5350
25734SOL     OW79208   5.366   5.406   0.057 -0.7685 -1.0560 -0.5853
25734SOL    HW179209   5.393   5.357   0.135  0.1168 -2.4084 -1.6841
25734SOL    HW279210   5.289   5.456   0.085 -2.2278 -3.6719  0.4553
25735SOL     OW79211   5.537   5.043   0.854 -0.2489 -0.3308 -0.1338
25735SOL    HW179212   5.587   4.973   0.896  1.5573  0.4767 -0.7912
25735SOL    HW279213   5.590   5.066   0.777 -2.6541 -0.7278 -2.0223
25736SOL     OW79214   3.781   6.243   8.628 -0.7140  0.3667  0.6250
25736SOL    HW179215   3.693   6.250   8.666  0.1723  1.2970  2.6482
25736SOL    HW279216   3.831   6.193   8.692  0.8124  1.8428  0.6308
25737SOL     OW79217   4.920   6.962   6.982 -0.0008  0.1921 -0.4463
25737SOL    HW179218   4.949   7.010   7.060  2.5285  1.4885 -2.0665
25737SOL    HW279219   4.892   7.031   6.921 -1.0121 -0.7550 -1.0841
25738SOL     OW79220   7.082   6.061   3.442 -0.4898  0.2378  0.2794
25738SOL    HW179221   7.108   6.083   3.531 -1.8179 -1.2295  1.0969
25738SOL    HW279222   7.104   5.968   3.433  0.2373  0.5187 -1.1789
25739SOL     OW79223   6.344   8.079   5.089 -0.8476 -0.2117 -0.7542
25739SOL    HW179224   6.360   7.992   5.052 -4.3566 -1.1407 -0.4706
25739SOL    HW279225   6.332   8.063   5.183  3.5520  1.4937  0.3732
25740SOL     OW79226   5.680   2.551   2.747 -0.7708  0.3204  0.4361
25740SOL    HW179227   5.672   2.644   2.769  1.1564  0.4825  0.6202
25740SOL    HW279228   5.734   2.515   2.818  0.9270 -0.3086 -1.0986
25741SOL     OW79229   6.780  10.202   7.411 -0.1890 -0.5541  0.2472
25741SOL    HW179230   6.821  10.189   7.325 -0.5360  0.0676 -0.0220
25741SOL    HW279231   6.740  10.289   7.405  1.4453  0.3504  1.7271
25742SOL     OW79232   8.721   8.569  10.819 -0.0073 -0.0817 -0.0803
25742SOL    HW179233   8.750   8.613  10.739 -2.1861 -1.1615 -1.5399
25742SOL    HW279234   8.792   8.507  10.838  1.0036  0.8766 -0.5725
25743SOL     OW79235   7.289  10.831   3.074  0.4954 -0.4080  0.4037
25743SOL    HW179236   7.374  10.871   3.055  0.9813 -0.8326  1.6225
25743SOL    HW279237   7.276  10.846   3.168 -1.3193  0.6726  0.0354
25744SOL     OW79238   6.454   4.484   3.673 -0.3550 -0.6558  0.3416
25744SOL    HW179239   6.549   4.483   3.669 -0.3845 -0.2668 -0.8793
25744SOL    HW279240   6.428   4.393   3.655 -0.2125 -0.8639  1.1561
25745SOL     OW79241   8.708  10.310   2.520  0.5659 -0.4096 -0.1190
25745SOL    HW179242   8.748  10.392   2.549  0.4332 -0.4848  0.2851
25745SOL    HW279243   8.664  10.276   2.598  0.2653 -0.6536 -0.3934
25746SOL     OW79244   5.080   3.820   4.030 -0.0359 -0.1657 -0.1612
25746SOL    HW179245   5.013   3.759   4.064 -0.2475  0.7337  1.1485
25746SOL    HW279246   5.146   3.764   3.991 -1.0642 -1.1411 -0.5659
25747SOL     OW79247   0.092   4.462   5.834 -0.1627  0.6961 -0.3574
25747SOL    HW179248   0.092   4.380   5.883  0.2002  0.3749 -0.8777
25747SOL    HW279249   0.004   4.497   5.846  0.9663  2.7218  3.8708
25748SOL     OW79250   4.509   1.315  10.240 -0.0469  0.1525  0.5543
25748SOL    HW179251   4.538   1.405  10.256  0.6582  0.0464 -0.1098
25748SOL    HW279252   4.588   1.268  10.213 -0.5677 -0.4618  0.0634
25749SOL     OW79253   1.598   5.566   2.793  0.1909 -0.2957 -0.2289
25749SOL    HW179254   1.621   5.519   2.713 -2.8730  0.5621 -1.7637
25749SOL    HW279255   1.659   5.641   2.795  0.0904 -0.1278 -1.9856
25750SOL     OW79256   7.190   0.763   3.416  0.0296  0.3971  0.5753
25750SOL    HW179257   7.198   0.828   3.485 -2.3107  1.2022  0.1634
25750SOL    HW279258   7.096   0.744   3.411  0.2291 -0.2630 -1.8109
25751SOL     OW79259   9.563   7.271   9.875 -0.0568 -0.1144  0.2388
25751SOL    HW179260   9.578   7.226   9.792 -1.6546 -3.5293  1.6168
25751SOL    HW279261   9.650   7.284   9.911  0.5484 -0.4318 -1.0394
25752SOL     OW79262  10.189   7.183   0.336  0.0165 -0.0016 -0.6484
25752SOL    HW179263  10.217   7.103   0.292 -1.0734 -1.4948  1.1999
25752SOL    HW279264  10.180   7.157   0.428 -1.9769  1.8003 -0.2581
25753SOL     OW79265   7.506   1.436   7.141  0.0082 -0.1125  0.3003
25753SOL    HW179266   7.473   1.489   7.069 -0.3105 -0.4381  0.2017
25753SOL    HW279267   7.599   1.459   7.147 -0.5673  2.1770  1.7609
25754SOL     OW79268   1.347   5.986   6.275  0.1584  0.3918 -0.2866
25754SOL    HW179269   1.398   6.006   6.196 -1.6298 -1.9705 -2.2349
25754SOL    HW279270   1.266   5.947   6.241  0.3047 -3.0704  2.7239
25755SOL     OW79271   0.304   6.563  10.097 -0.1996 -0.6108 -0.1385
25755SOL    HW179272   0.229   6.542  10.152 -0.7892  2.6297  0.4716
25755SOL    HW279273   0.378   6.519  10.139 -1.0903 -0.5115  1.6126
25756SOL     OW79274   7.038   5.345   7.404 -0.1531  0.1681  0.1718
25756SOL    HW179275   7.030   5.414   7.338  2.2478  0.6029  0.2518
25756SOL    HW279276   7.070   5.270   7.355  1.6959  0.5076  0.7934
25757SOL     OW79277   8.834   6.673   5.595  0.3897 -0.3258 -0.1176
25757SOL    HW179278   8.870   6.586   5.576  2.7640  0.4182  0.6643
25757SOL    HW279279   8.744   6.656   5.621  0.9398 -2.6393  0.5015
25758SOL     OW79280   9.819   9.549   0.948 -0.6010  0.4786  0.6691
25758SOL    HW179281   9.724   9.539   0.940 -0.4757  0.4698 -1.1715
25758SOL    HW279282   9.837   9.635   0.910  0.1489  0.3948  0.8196
25759SOL     OW79283   7.154   5.952   4.515 -0.2250  1.0774 -0.0572
25759SOL    HW179284   7.154   5.860   4.543  1.0907  0.6570 -1.2948
25759SOL    HW279285   7.100   5.997   4.580 -0.4922 -0.4851  0.8592
25760SOL     OW79286   4.689   3.331   4.709  0.9029 -0.1716  0.6593
25760SOL    HW179287   4.665   3.239   4.702  2.3074 -0.4363 -2.0480
25760SOL    HW279288   4.611   3.374   4.743 -1.3945 -1.7511 -2.1989
25761SOL     OW79289   3.309   5.364   7.788  0.1365 -0.0153 -0.4873
25761SOL    HW179290   3.394   5.321   7.793  0.9678  1.0964 -3.2950
25761SOL    HW279291   3.328   5.453   7.758 -1.7966  1.3412  1.8986
25762SOL     OW79292   4.604   9.513   7.148  0.1782  0.0136  0.1305
25762SOL    HW179293   4.644   9.584   7.097 -0.7187  0.0438 -0.5378
25762SOL    HW279294   4.544   9.471   7.087  1.1936 -1.7707  0.3058
25763SOL     OW79295   9.633   5.348   0.873  0.1174  0.6523  0.0179
25763SOL    HW179296   9.683   5.429   0.879 -0.9076  1.4788 -1.8900
25763SOL    HW279297   9.566   5.365   0.807  0.5544 -2.0831 -1.3052
25764SOL     OW79298   0.782   7.405   0.499 -0.0528 -0.2335  0.3955
25764SOL    HW179299   0.717   7.471   0.521  1.2556  0.6892  1.6533
25764SOL    HW279300   0.741   7.353   0.429 -1.9459  0.5522  0.8731
25765SOL     OW79301   5.770   3.756   7.580  0.1819  0.2600 -0.1490
25765SOL    HW179302   5.831   3.775   7.651  1.0042 -2.2123 -0.0847
25765SOL    HW279303   5.788   3.665   7.557 -3.9975 -0.9344  0.3770
25766SOL     OW79304   3.733   2.959   2.240 -0.6128 -0.0139 -0.1269
25766SOL    HW179305   3.707   3.047   2.211  0.5284 -0.0242 -1.2560
25766SOL    HW279306   3.738   2.966   2.335 -1.2280  0.9550 -0.1559
25767SOL     OW79307   5.958   2.826   8.467 -0.3598 -0.2626  0.5422
25767SOL    HW179308   5.898   2.820   8.541 -2.4710  3.4449 -0.5774
25767SOL    HW279309   6.028   2.885   8.497 -0.9773  0.8773 -0.1760
25768SOL     OW79310   3.530   1.809   0.410 -0.2763 -0.4036  0.1722
25768SOL    HW179311   3.555   1.767   0.492  0.8954  2.6406  1.5435
25768SOL    HW279312   3.437   1.830   0.420  0.1092  0.9089  1.2545
25769SOL     OW79313   3.808   1.267  10.624  0.3130  0.6478 -0.4595
25769SOL    HW179314   3.865   1.259  10.701 -2.9685 -3.6497  1.9640
25769SOL    HW279315   3.729   1.310  10.658 -0.8824 -0.5630 -1.6228
25770SOL     OW79316   9.954   9.248   7.500  0.1914 -0.0966 -0.0029
25770SOL    HW179317   9.939   9.202   7.418 -0.6916 -1.1166  0.6991
25770SOL    HW279318  10.050   9.249   7.509  0.3291  0.7003 -1.3853
25771SOL     OW79319   1.067   7.717   1.629  0.4932 -0.2888 -0.0049
25771SOL    HW179320   1.083   7.806   1.598  2.1209 -0.2144  0.9734
25771SOL    HW279321   1.115   7.711   1.711  1.3789 -2.4198 -0.6159
25772SOL     OW79322   5.057   5.469   0.145 -0.2517 -0.1116 -0.2417
25772SOL    HW179323   5.037   5.553   0.188  0.3773 -0.0009 -0.1472
25772SOL    HW279324   5.036   5.403   0.210 -0.0934  0.0137 -0.0603
25773SOL     OW79325   3.522   4.794   0.505  0.2563  0.2848 -0.6591
25773SOL    HW179326   3.542   4.702   0.485 -1.2071 -0.6372  1.6367
25773SOL    HW279327   3.430   4.792   0.532  0.1198  2.5161 -0.8437
25774SOL     OW79328   4.811   0.490   0.856 -0.5388 -0.3819 -0.0709
25774SOL    HW179329   4.725   0.448   0.858 -0.1362 -1.2085  0.9126
25774SOL    HW279330   4.873   0.417   0.859  0.1905  0.2207 -0.3521
25775SOL     OW79331   7.850   6.325   7.750  0.2669 -0.3968  0.0011
25775SOL    HW179332   7.888   6.267   7.684  0.7982 -0.6577  0.5303
25775SOL    HW279333   7.916   6.328   7.819 -0.1830  0.0698  0.4075
25776SOL     OW79334   9.228   3.532   2.121 -0.3439  0.2461  0.7811
25776SOL    HW179335   9.144   3.501   2.088 -0.8520  1.4485  0.8617
25776SOL    HW279336   9.217   3.627   2.129  0.7659  0.3398  1.5399
25777SOL     OW79337   0.707   2.678   3.727  0.4761 -0.5545  0.1017
25777SOL    HW179338   0.707   2.770   3.704 -0.2959 -0.8245 -1.1151
25777SOL    HW279339   0.763   2.636   3.662 -1.0553 -1.2265 -0.8541
25778SOL     OW79340   1.908   3.241   0.763  0.3270  0.6431  0.1277
25778SOL    HW179341   1.963   3.318   0.778 -1.8924  2.9398 -2.3244
25778SOL    HW279342   1.932   3.211   0.675 -0.4830  0.0456  0.0955
25779SOL     OW79343   3.746   4.661   4.743  0.6704  0.5177 -0.4549
25779SOL    HW179344   3.670   4.630   4.695  0.1021  0.4616  0.4479
25779SOL    HW279345   3.812   4.678   4.676 -0.1019  0.4786 -1.2415
25780SOL     OW79346  10.378   2.190   3.632  0.1452 -0.5422 -0.1849
25780SOL    HW179347  10.427   2.109   3.647  0.2359 -0.4549 -0.0177
25780SOL    HW279348  10.436   2.259   3.662 -0.0819 -0.4389  0.0126
25781SOL     OW79349   6.753   0.072   2.098  0.7415 -0.5530 -0.4941
25781SOL    HW179350   6.788   0.117   2.021 -1.6105  1.2850 -0.6110
25781SOL    HW279351   6.752  -0.020   2.074 -2.3373  0.1378 -3.8516
25782SOL     OW79352   8.563   8.799   9.366 -0.3728 -0.7869 -0.3379
25782SOL    HW179353   8.499   8.728   9.359 -0.2621 -0.8196 -1.1607
25782SOL    HW279354   8.512   8.879   9.352 -0.1074 -0.8678 -2.0069
25783SOL     OW79355   8.845  10.564   3.622 -0.4767  0.1207 -0.1543
25783SOL    HW179356   8.794  10.483   3.630  1.0409 -0.7092  2.4087
25783SOL    HW279357   8.782  10.634   3.636 -1.0846 -0.8478  2.3761
25784SOL     OW79358   7.437  10.325   3.479  0.0918  0.6632  0.4511
25784SOL    HW179359   7.354  10.306   3.437  0.0794  0.3815  0.6010
25784SOL    HW279360   7.426  10.294   3.570  1.6280 -3.0256 -0.4170
25785SOL     OW79361  11.069   1.737  10.886 -0.7673 -0.0779  0.1129
25785SOL    HW179362  11.097   1.815  10.838 -1.1729 -0.1233 -0.2036
25785SOL    HW279363  11.130   1.730  10.959  0.2104 -0.3219 -0.7042
25786SOL     OW79364   5.217   1.963   7.723 -0.4722  0.3510 -0.6944
25786SOL    HW179365   5.293   2.014   7.752  0.5609 -0.4107 -1.9525
25786SOL    HW279366   5.245   1.872   7.731 -1.0644  0.0712 -1.6538
25787SOL     OW79367   3.521   3.231   3.687  0.1119  0.5987  0.4110
25787SOL    HW179368   3.588   3.299   3.695  1.1065 -0.2812 -0.2309
25787SOL    HW279369   3.483   3.225   3.775  2.0436 -0.0603  1.2645
25788SOL     OW79370   6.991   3.460   1.267 -0.3006  0.3122  0.0692
25788SOL    HW179371   6.958   3.543   1.231  0.0371 -0.4082 -2.0335
25788SOL    HW279372   6.935   3.393   1.227  0.8260 -0.6090 -0.0195
25789SOL     OW79373   7.968   7.593   5.121 -0.2895  0.2308 -0.5353
25789SOL    HW179374   7.914   7.557   5.191 -0.5695  1.9971  0.1851
25789SOL    HW279375   8.034   7.525   5.106  0.0838 -0.0008  1.7690
25790SOL     OW79376   6.486   9.477   3.879  0.5940  0.5674 -0.3041
25790SOL    HW179377   6.401   9.477   3.923  0.5192  0.1893 -0.4477
25790SOL    HW279378   6.550   9.472   3.950  0.4566 -0.9900 -0.2640
25791SOL     OW79379   9.005   3.156   7.200 -0.1575 -0.0997 -0.0961
25791SOL    HW179380   9.052   3.191   7.276  1.1199 -0.0346 -0.8875
25791SOL    HW279381   8.963   3.232   7.160  2.0632  0.5094 -1.4295
25792SOL     OW79382  10.167   7.057   1.188 -0.0442  0.0807 -0.3327
25792SOL    HW179383  10.252   7.063   1.145  0.8928  1.1099  1.5366
25792SOL    HW279384  10.164   7.134   1.245 -2.4878  0.3833 -0.7620
25793SOL     OW79385  10.201   8.569   7.847 -0.0037  0.1244 -0.0442
25793SOL    HW179386  10.179   8.633   7.779 -1.3176  0.6049  0.7884
25793SOL    HW279387  10.166   8.608   7.928  0.5366 -0.9466  0.7206
25794SOL     OW79388   1.562   0.747   0.118  0.0772  0.6006  0.5767
25794SOL    HW179389   1.621   0.815   0.085  0.2206  0.2479  0.0836
25794SOL    HW279390   1.507   0.792   0.182 -0.4811  1.4145 -0.4455
25795SOL     OW79391   6.409   4.200   2.096 -0.2694 -0.4953  0.6938
25795SOL    HW179392   6.461   4.151   2.160 -1.1778 -1.4478  0.7316
25795SOL    HW279393   6.330   4.147   2.083  0.4023 -0.9970 -2.1321
25796SOL     OW79394   5.770  10.755   4.144  0.0351  0.5351  0.1838
25796SOL    HW179395   5.838  10.791   4.087  0.5060 -0.3924  0.1413
25796SOL    HW279396   5.733  10.682   4.095 -0.0498  0.1814  0.7549
25797SOL     OW79397  11.065   1.073   1.644  0.1915  0.5398 -0.2783
25797SOL    HW179398  11.056   1.012   1.717  1.6292  2.6372  1.7880
25797SOL    HW279399  11.109   1.022   1.576 -3.4988 -2.2486 -0.8778
25798SOL     OW79400   4.868  10.663   2.276  0.1092  0.4411  0.2937
25798SOL    HW179401   4.809  10.602   2.320 -1.4831  0.5587 -1.5547
25798SOL    HW279402   4.825  10.682   2.193  1.8119  2.1151 -0.2674
25799SOL     OW79403   2.520   3.914   0.263  0.0348 -0.0031 -0.3998
25799SOL    HW179404   2.495   3.925   0.171  1.1544  1.5076 -0.5706
25799SOL    HW279405   2.600   3.965   0.271 -0.3981  0.4153  1.5874
25800SOL     OW79406   3.618   8.264   9.408  0.2230  0.2326 -0.4835
25800SOL    HW179407   3.712   8.260   9.425 -0.1090 -2.5458  1.2659
25800SOL    HW279408   3.604   8.353   9.376  3.3332  0.9346 -0.2590
25801SOL     OW79409   0.118   3.136   0.898  0.0764 -0.4367 -0.4554
25801SOL    HW179410   0.074   3.198   0.840 -0.5382 -0.3602  0.0688
25801SOL    HW279411   0.189   3.100   0.846 -0.2738 -0.1477 -1.1513
25802SOL     OW79412   1.421   2.428   6.039  0.1786  0.0136 -0.1019
25802SOL    HW179413   1.360   2.471   6.099 -0.2410  0.2930 -0.7301
25802SOL    HW279414   1.459   2.499   5.988  1.0441 -0.1579  0.2841
25803SOL     OW79415   1.463   0.772  10.061  0.0843  0.0662 -0.4140
25803SOL    HW179416   1.468   0.681  10.089 -3.3964  0.0181  0.4267
25803SOL    HW279417   1.483   0.823  10.139 -0.5025 -0.0170 -0.2046
25804SOL     OW79418   0.033   9.856   1.756 -0.5125 -0.2588 -0.4401
25804SOL    HW179419   0.077   9.790   1.703  1.8867  0.7044  0.2515
25804SOL    HW279420  -0.039   9.887   1.700  0.1698 -1.2830 -1.9576
25805SOL     OW79421   0.433   6.257   4.093  0.1150 -0.0064  0.8422
25805SOL    HW179422   0.379   6.253   4.014  0.0681 -0.9715  0.9053
25805SOL    HW279423   0.516   6.294   4.063 -0.0324 -0.0220  0.4074
25806SOL     OW79424   4.121   4.719   4.940  0.1117  0.7022  0.2773
25806SOL    HW179425   4.050   4.660   4.967 -0.8873  1.6444 -0.1807
25806SOL    HW279426   4.201   4.678   4.974 -0.1641 -2.3782 -2.2862
25807SOL     OW79427   3.297   6.166   3.972  0.8194  0.2875 -0.0478
25807SOL    HW179428   3.347   6.089   3.947  0.2484 -0.5717  1.3223
25807SOL    HW279429   3.310   6.228   3.901  0.8927 -1.2545 -1.4215
25808SOL     OW79430   4.906   3.047   3.338 -0.4532 -0.5549 -0.2334
25808SOL    HW179431   4.993   3.076   3.362  0.9228 -2.1819 -2.7139
25808SOL    HW279432   4.859   3.127   3.313  0.5665  0.2731  0.4642
25809SOL     OW79433   4.514   3.944   9.757 -0.6826 -0.5596 -0.4609
25809SOL    HW179434   4.443   4.007   9.764 -1.5764 -1.6825  1.1063
25809SOL    HW279435   4.525   3.931   9.663 -1.0975  1.2007 -0.7901
25810SOL     OW79436   9.264   5.093   9.481  0.4170  0.0377 -0.2765
25810SOL    HW179437   9.315   5.133   9.552  0.0344 -1.3596  0.8473
25810SOL    HW279438   9.258   5.161   9.414  1.9194  0.9610  0.4662
25811SOL     OW79439   5.623   8.236   6.324 -0.0448 -0.2160 -0.0234
25811SOL    HW179440   5.705   8.274   6.291 -1.3257  3.7916  0.8688
25811SOL    HW279441   5.573   8.215   6.245  0.8450 -0.3321 -0.5665
25812SOL     OW79442   0.580   3.003   5.029 -0.1192  0.3725  0.8817
25812SOL    HW179443   0.572   3.034   5.119  1.0005  1.2728  0.6938
25812SOL    HW279444   0.657   3.049   4.994 -0.7925  0.4050 -0.6710
25813SOL     OW79445   4.882   0.082   9.946  0.5386  0.1185  0.0463
25813SOL    HW179446   4.975   0.065   9.931  0.6660 -0.5831  1.5033
25813SOL    HW279447   4.876   0.105  10.039 -0.5284  1.8287 -0.3984
25814SOL     OW79448   0.308   0.907   5.808 -0.0760  0.0175 -0.3706
25814SOL    HW179449   0.293   0.954   5.726 -0.2014  0.5375 -0.0542
25814SOL    HW279450   0.259   0.826   5.798  2.6928 -1.6181 -2.2471
25815SOL     OW79451   1.722   3.467   6.509 -0.4781  0.7491 -0.0211
25815SOL    HW179452   1.642   3.419   6.530 -0.7571  0.7750 -0.9660
25815SOL    HW279453   1.709   3.495   6.418  0.7084  0.5559 -0.2572
25816SOL     OW79454   7.396   0.447   5.297  0.0752  0.2066  0.1118
25816SOL    HW179455   7.423   0.531   5.334 -0.8810 -0.0210  1.3762
25816SOL    HW279456   7.301   0.454   5.287  0.2805  0.3508 -2.6328
25817SOL     OW79457   3.416   2.538   4.239 -0.8218 -0.2768 -0.1402
25817SOL    HW179458   3.448   2.490   4.163 -1.0670 -1.2039  0.3319
25817SOL    HW279459   3.412   2.629   4.210 -0.4896 -0.5576 -1.0913
25818SOL     OW79460   4.959   5.299   0.749  0.4673  0.3537  0.5483
25818SOL    HW179461   4.977   5.205   0.740 -1.9439 -0.1606  0.1440
25818SOL    HW279462   4.867   5.302   0.776  0.3555  2.6355  0.0835
25819SOL     OW79463   0.303   8.571   5.927 -0.6008  0.4728  0.2080
25819SOL    HW179464   0.364   8.563   6.000  0.0192 -2.3785 -0.4869
25819SOL    HW279465   0.359   8.572   5.849 -1.3450  0.2965 -0.3476
25820SOL     OW79466   8.968   6.248   9.862  0.5560 -0.8452  0.3484
25820SOL    HW179467   9.040   6.187   9.877 -0.9007 -2.7556 -0.1583
25820SOL    HW279468   8.910   6.203   9.802  0.1552  1.6839 -1.3120
25821SOL     OW79469   7.338  10.305   4.691 -0.2175 -0.5347 -0.2623
25821SOL    HW179470   7.320  10.361   4.616  2.4466  1.7381  0.6165
25821SOL    HW279471   7.391  10.360   4.750 -0.4994 -2.8447  2.3669
25822SOL     OW79472   7.145  10.573   6.599  0.0843  0.8579 -0.3167
25822SOL    HW179473   7.163  10.666   6.591 -1.0720  0.9998 -1.6359
25822SOL    HW279474   7.060  10.561   6.556 -1.5828 -0.1959  2.9005
25823SOL     OW79475   0.976   0.981   1.386 -0.3148 -0.1115  0.3557
25823SOL    HW179476   0.882   1.000   1.390 -0.5092 -0.8273 -0.3268
25823SOL    HW279477   0.983   0.889   1.414  0.1165 -0.2181 -0.0840
25824SOL     OW79478   0.759   4.986   8.233 -0.3217  0.0890 -0.4559
25824SOL    HW179479   0.778   4.933   8.311  0.2719 -0.5024 -0.9849
25824SOL    HW279480   0.768   4.925   8.160 -0.2446  0.7765 -1.0352
25825SOL     OW79481   2.252   3.910   1.365 -0.1963 -1.2025 -0.3103
25825SOL    HW179482   2.181   3.905   1.429  1.2360 -1.7787  1.3023
25825SOL    HW279483   2.217   3.965   1.295 -1.9441 -0.8160  0.8028
25826SOL     OW79484   8.155   7.501   4.446 -0.1696 -0.4451 -0.1910
25826SOL    HW179485   8.158   7.471   4.537  0.0265 -0.9237 -0.3509
25826SOL    HW279486   8.076   7.462   4.410 -0.3077 -0.1620 -0.1922
25827SOL     OW79487   2.526   8.980   1.610  0.3549 -0.1544  0.1037
25827SOL    HW179488   2.538   8.912   1.676 -0.8027 -0.9643 -0.4910
25827SOL    HW279489   2.449   9.028   1.639 -0.2715 -0.6290 -0.7369
25828SOL     OW79490   3.876  10.144   3.730 -0.3469 -0.3642 -0.0616
25828SOL    HW179491   3.959  10.096   3.726 -1.1206 -1.9145  1.3138
25828SOL    HW279492   3.880  10.191   3.813 -1.9131 -2.6744  1.4442
25829SOL     OW79493  11.021   2.382  10.112  0.1301 -0.0500 -0.4095
25829SOL    HW179494  10.994   2.473  10.112 -1.1095 -0.4039  0.0899
25829SOL    HW279495  10.945   2.334  10.145  1.3061 -1.0979  0.8961
25830SOL     OW79496   9.701   0.851   3.498  0.2073  0.0963  0.0879
25830SOL    HW179497   9.695   0.901   3.417  2.8789  1.1206  0.4033
25830SOL    HW279498   9.697   0.760   3.471  2.0610  0.3935 -1.3995
25831SOL     OW79499   3.320   7.866   1.459 -0.5701 -0.4286 -0.3666
25831SOL    HW179500   3.270   7.806   1.515  0.5529 -1.0822 -0.0192
25831SOL    HW279501   3.409   7.862   1.495 -0.0882  0.0404 -1.4852
25832SOL     OW79502   5.047   0.789   5.634 -0.2623 -0.8174  0.2422
25832SOL    HW179503   5.073   0.831   5.716  0.5967 -1.9238  0.5787
25832SOL    HW279504   5.101   0.709   5.631 -0.7802 -1.1382 -1.0633
25833SOL     OW79505  10.150   3.794   8.969  0.6266 -0.2936  0.0663
25833SOL    HW179506  10.059   3.810   8.944  0.7333  0.1863 -0.0213
25833SOL    HW279507  10.180   3.877   9.006  0.9357 -0.5402  0.3813
25834SOL     OW79508   3.825   0.932   6.865  0.3443  0.2609  0.1807
25834SOL    HW179509   3.846   1.021   6.894 -0.4948  0.6531 -0.3875
25834SOL    HW279510   3.870   0.876   6.928 -0.9050  1.0676  1.8877
25835SOL     OW79511   9.753   2.519   7.995  0.3370 -0.0287  0.2861
25835SOL    HW179512   9.813   2.473   7.937  1.1796  0.7141  0.5469
25835SOL    HW279513   9.774   2.612   7.983 -0.3379  0.2026  0.8350
25836SOL     OW79514   9.444   5.486   4.025 -0.3249 -0.4448 -0.2239
25836SOL    HW179515   9.368   5.505   3.969 -0.1207 -3.1157 -1.5483
25836SOL    HW279516   9.418   5.409   4.075  0.9101 -0.3758  0.5552
25837SOL     OW79517   7.318   3.089   0.789 -0.0424  0.0300  0.6887
25837SOL    HW179518   7.270   3.009   0.809  1.0645 -1.4526 -2.0171
25837SOL    HW279519   7.394   3.087   0.848 -0.3647 -0.5707  1.0909
25838SOL     OW79520   4.553   9.110   5.118 -0.2612  0.3279  0.1537
25838SOL    HW179521   4.595   9.098   5.203 -0.5007  1.9389  0.5230
25838SOL    HW279522   4.624   9.129   5.058 -0.0657 -1.0372 -0.0923
25839SOL     OW79523   7.294   0.174   3.089  0.2428  0.4678 -1.1490
25839SOL    HW179524   7.285   0.223   3.171  1.4300  0.0690 -0.7470
25839SOL    HW279525   7.209   0.134   3.076  0.2790 -0.2134  0.4164
25840SOL     OW79526   4.484   1.559   2.636  0.4705 -0.7968 -0.5740
25840SOL    HW179527   4.524   1.628   2.688 -1.6310 -0.1389  0.2464
25840SOL    HW279528   4.460   1.601   2.554 -1.1442 -0.4058  0.0666
25841SOL     OW79529   3.711   1.708   8.338  0.2802  0.7935  0.5345
25841SOL    HW179530   3.805   1.704   8.320  0.3665  1.4030  0.8394
25841SOL    HW279531   3.670   1.714   8.251  0.5270  0.6373  0.4067
25842SOL     OW79532   6.393  10.482   5.112 -0.3823  0.5562 -0.4981
25842SOL    HW179533   6.337  10.552   5.146  0.8739  2.0967 -1.4100
25842SOL    HW279534   6.332  10.419   5.074 -1.7001 -0.1678  2.5128
25843SOL     OW79535  10.504   5.818   2.601 -0.1574 -0.4289 -0.4620
25843SOL    HW179536  10.496   5.904   2.641  1.6072 -0.6223  0.4400
25843SOL    HW279537  10.534   5.761   2.673  2.3996 -0.9499 -1.8068
25844SOL     OW79538   8.724   6.196   0.120  0.0124  0.2891 -0.1921
25844SOL    HW179539   8.670   6.204   0.198  1.0438  1.6150  0.4308
25844SOL    HW279540   8.662   6.176   0.050 -1.1780  0.9726  0.6278
25845SOL     OW79541   6.233  10.380   9.208  0.8624 -0.1228 -0.1267
25845SOL    HW179542   6.174  10.446   9.246  1.4089  0.1148  0.3226
25845SOL    HW279543   6.174  10.317   9.166  0.2422 -0.2294  0.8672
25846SOL     OW79544   6.535   1.423   9.638 -0.5784  0.3156 -0.1671
25846SOL    HW179545   6.627   1.398   9.643 -0.7246  0.0243  1.5677
25846SOL    HW279546   6.510   1.403   9.548  1.7208  2.8903 -1.5110
25847SOL     OW79547  10.011   5.653   7.673 -0.0373 -0.8971  0.0458
25847SOL    HW179548   9.999   5.679   7.765 -0.6855 -1.7795  0.2269
25847SOL    HW279549  10.024   5.736   7.627  0.6819 -0.4665  0.9794
25848SOL     OW79550   5.516   1.667   6.228  0.0015 -0.1639 -0.8765
25848SOL    HW179551   5.508   1.692   6.320 -1.4477 -1.1546 -0.7007
25848SOL    HW279552   5.428   1.676   6.193  0.7904  1.6159 -2.6012
25849SOL     OW79553   5.456   3.195   0.446  0.1647 -0.2691 -0.4462
25849SOL    HW179554   5.451   3.231   0.535  1.9586 -0.7532 -0.1233
25849SOL    HW279555   5.486   3.269   0.392 -0.6683 -0.0497 -0.6349
25850SOL     OW79556   4.276   6.885   6.908 -0.1412  0.5778 -0.1575
25850SOL    HW179557   4.206   6.936   6.868 -1.4389 -0.1826  1.0653
25850SOL    HW279558   4.328   6.854   6.834 -0.5653  1.8778 -1.0382
25851SOL     OW79559   1.396   7.732   0.512 -0.1627 -0.5464  0.2258
25851SOL    HW179560   1.306   7.723   0.483 -1.0678  3.7142  1.0503
25851SOL    HW279561   1.444   7.763   0.435  0.1007 -0.6413  0.3480
25852SOL     OW79562   6.376   6.627   6.247 -0.1564 -0.1614  0.2867
25852SOL    HW179563   6.403   6.571   6.320 -1.6707 -2.3750 -0.7387
25852SOL    HW279564   6.441   6.611   6.179 -0.6474 -0.7991 -0.0438
25853SOL     OW79565   7.199   3.459   6.042  0.2229  0.1297  0.1035
25853SOL    HW179566   7.280   3.422   6.006 -1.1230 -0.3890 -2.6024
25853SOL    HW279567   7.212   3.554   6.038  0.6545  0.0516 -0.3759
25854SOL     OW79568   4.938   4.988   9.346 -0.4701 -0.7733  0.4892
25854SOL    HW179569   4.989   4.911   9.373  0.0948 -1.0861 -1.3144
25854SOL    HW279570   5.003   5.058   9.340  0.1500 -1.4476 -2.9977
25855SOL     OW79571   5.628   0.511   9.936  0.5916  0.4578  0.5731
25855SOL    HW179572   5.538   0.515   9.905  0.5514  0.4644  0.6914
25855SOL    HW279573   5.676   0.572   9.880  0.6011  0.1447  0.2364
25856SOL     OW79574   2.443   6.699   7.123 -0.0264  0.4524  0.0786
25856SOL    HW179575   2.350   6.679   7.134  0.4780 -3.0907 -0.6752
25856SOL    HW279576   2.445   6.775   7.065 -2.4278  0.7064  0.2430
25857SOL     OW79577  10.641   8.151   6.597  0.0588 -0.4194 -0.0407
25857SOL    HW179578  10.665   8.106   6.678  0.8499 -1.0253 -0.5976
25857SOL    HW279579  10.699   8.227   6.594  0.5824 -0.8197 -0.4081
25858SOL     OW79580  10.322   1.692   0.926 -0.2644  1.0250  0.1774
25858SOL    HW179581  10.311   1.751   1.001 -0.7805 -0.8723  1.6517
25858SOL    HW279582  10.242   1.705   0.874  0.2953  2.6764 -0.3596
25859SOL     OW79583  10.039   0.005   7.856 -0.4573 -0.6018 -0.5390
25859SOL    HW179584  10.107   0.062   7.890  0.4066 -0.3097 -2.5648
25859SOL    HW279585  10.043  -0.073   7.911  2.3105 -1.0457 -1.1977
25860SOL     OW79586   6.919  10.260   9.960  0.6193 -0.0644  0.0145
25860SOL    HW179587   6.875  10.280   9.877  1.5292  3.7234  0.2305
25860SOL    HW279588   7.011  10.280   9.943  1.3369 -2.1389  1.1849
25861SOL     OW79589   1.862  10.024   8.823 -0.4436  0.1007 -1.2616
25861SOL    HW179590   1.947   9.987   8.848 -0.3163 -0.1859 -2.0859
25861SOL    HW279591   1.880  10.076   8.745 -0.9000  0.6651 -0.9982
25862SOL     OW79592   2.217   8.484  10.636 -0.3951 -0.0737  0.1146
25862SOL    HW179593   2.241   8.449  10.550 -1.3336  1.1063 -0.6526
25862SOL    HW279594   2.300   8.499  10.680  0.0865 -1.1729 -0.3684
25863SOL     OW79595   1.889   2.398   4.135  0.0970 -0.6440 -0.1804
25863SOL    HW179596   1.911   2.360   4.051 -3.2069  1.7303 -2.3745
25863SOL    HW279597   1.929   2.485   4.134 -1.7011  0.2480 -0.3871
25864SOL     OW79598   5.366   5.880  10.353  0.8155 -0.5653 -0.0155
25864SOL    HW179599   5.447   5.830  10.343 -0.8315 -3.8509  1.2333
25864SOL    HW279600   5.315   5.858  10.275  0.7496  0.7559 -0.3598
25865SOL     OW79601   1.135   7.523   8.806 -0.4295  0.3288 -0.1118
25865SOL    HW179602   1.106   7.438   8.839 -0.3215  0.2332 -0.2643
25865SOL    HW279603   1.055   7.564   8.772 -0.3427 -0.0492 -0.7835
25866SOL     OW79604   9.276   1.047   6.045 -0.0959 -0.3992  0.6303
25866SOL    HW179605   9.317   1.056   5.959 -1.5113 -1.9738 -0.2487
25866SOL    HW279606   9.276   1.136   6.080  0.6226  0.2559 -0.9267
25867SOL     OW79607   6.737   5.652   0.925 -0.0713  0.2440  0.0105
25867SOL    HW179608   6.802   5.714   0.959 -0.0391  0.7121 -0.8869
25867SOL    HW279609   6.787   5.573   0.906 -0.2206 -0.3329  1.7898
25868SOL     OW79610   6.689   0.966   1.184  0.2529 -0.3394 -0.3657
25868SOL    HW179611   6.776   0.945   1.151 -0.0656 -1.4970 -0.5096
25868SOL    HW279612   6.629   0.924   1.123 -0.4131  0.3015 -0.1686
25869SOL     OW79613   5.239  10.979  11.071  0.0206 -0.0457  0.6468
25869SOL    HW179614   5.230  11.051  11.133  1.5025  0.2047  0.5972
25869SOL    HW279615   5.275  10.907  11.122 -1.9532 -0.9943  0.8244
25870SOL     OW79616   0.108   3.747  10.757  0.4243 -0.3128 -0.0400
25870SOL    HW179617   0.101   3.842  10.751 -0.6024 -0.3243  0.6788
25870SOL    HW279618   0.123   3.719  10.666  0.4934  0.5173 -0.2943
25871SOL     OW79619   8.158   0.616   4.620 -0.0713 -0.6271  0.4198
25871SOL    HW179620   8.178   0.583   4.532  0.6838 -0.0476  0.3615
25871SOL    HW279621   8.080   0.567   4.647 -1.8492  0.9610 -1.5472
25872SOL     OW79622  10.608  10.221   4.226  0.3098  0.0221 -0.1442
25872SOL    HW179623  10.571  10.133   4.227  0.2084  0.0671  0.5337
25872SOL    HW279624  10.691  10.212   4.179  0.5821 -0.5595  0.4241
25873SOL     OW79625   5.918   8.894   3.437 -0.2042 -0.0588 -0.1054
25873SOL    HW179626   5.993   8.951   3.456 -1.7829  1.6978  1.2880
25873SOL    HW279627   5.956   8.808   3.421  2.2672  1.1917 -1.5584
25874SOL     OW79628   6.611   2.134   8.567  0.5543 -0.9756  0.0377
25874SOL    HW179629   6.694   2.159   8.607  0.7438  1.2006 -1.5398
25874SOL    HW279630   6.636   2.086   8.488  0.4228  1.1065 -1.3275
25875SOL     OW79631  10.769   6.244   4.867  0.3976  0.4749  0.0820
25875SOL    HW179632  10.794   6.164   4.820  0.1678 -1.0194  2.2920
25875SOL    HW279633  10.850   6.294   4.874  0.4899  0.6069 -1.5790
25876SOL     OW79634   3.137   8.480   4.729 -0.4293  0.7127 -0.1424
25876SOL    HW179635   3.130   8.413   4.661  1.9284  1.9155 -1.7222
25876SOL    HW279636   3.191   8.439   4.797 -2.1045 -0.2050  0.7064
25877SOL     OW79637   0.294   9.333   2.045  0.0691 -0.4246 -0.1028
25877SOL    HW179638   0.316   9.360   2.134 -0.1273  0.3951 -0.2917
25877SOL    HW279639   0.252   9.410   2.006 -0.1186 -0.8703 -0.8084
25878SOL     OW79640   6.094   9.265   1.545  0.3122 -0.0587 -0.3779
25878SOL    HW179641   6.003   9.275   1.575  0.5850  2.4838 -0.1316
25878SOL    HW279642   6.123   9.355   1.527  2.5808 -0.8630 -1.1028
25879SOL     OW79643   6.582   8.883   2.409  0.2253  0.1966  0.5465
25879SOL    HW179644   6.537   8.798   2.407 -1.0933  0.7891  2.3724
25879SOL    HW279645   6.652   8.874   2.344 -1.0792 -1.5885 -0.7440
25880SOL     OW79646   7.143   0.234   4.207  0.0163 -0.0319 -0.5934
25880SOL    HW179647   7.128   0.249   4.113  1.7281 -0.3557 -0.9689
25880SOL    HW279648   7.129   0.140   4.218 -2.5040  0.3431  0.0171
25881SOL     OW79649   2.416   2.420   2.882  0.3652  0.5144  0.4443
25881SOL    HW179650   2.456   2.500   2.916  2.1674  0.6016 -1.7192
25881SOL    HW279651   2.488   2.372   2.842 -1.1963 -0.7614 -0.9665
25882SOL     OW79652   7.854  10.655   8.732  0.2836 -0.4728 -0.6593
25882SOL    HW179653   7.785  10.605   8.689 -1.0711  0.0145  0.8311
25882SOL    HW279654   7.911  10.588   8.771  0.4207 -0.8796 -1.5504
25883SOL     OW79655   3.594   0.003   3.591 -0.0623  0.2673  0.0436
25883SOL    HW179656   3.585   0.048   3.675  0.2348  0.4949 -0.0454
25883SOL    HW279657   3.579  -0.089   3.611  2.4775 -0.0499  0.8003
25884SOL     OW79658   4.994   0.732   1.585  0.9477  0.2277  0.5245
25884SOL    HW179659   4.948   0.765   1.508 -0.8451 -1.3170  0.8379
25884SOL    HW279660   5.000   0.807   1.644 -2.2890  0.3140  0.9312
25885SOL     OW79661   2.646   9.792  10.353  0.8216 -0.2740 -0.0298
25885SOL    HW179662   2.559   9.789  10.392  0.6353  0.5397 -0.3710
25885SOL    HW279663   2.697   9.727  10.402  0.3959  0.2023  1.0631
25886SOL     OW79664   4.367   7.912  10.881 -0.1774 -0.6782 -0.4065
25886SOL    HW179665   4.278   7.877  10.885 -0.2152 -0.6531 -1.0008
25886SOL    HW279666   4.398   7.908  10.971 -1.1925  0.3732  0.0259
25887SOL     OW79667  10.099   8.015   4.496  0.8121 -0.6442 -0.4574
25887SOL    HW179668  10.115   8.092   4.551 -1.7505  1.7216 -2.7022
25887SOL    HW279669  10.020   7.975   4.532  0.1438 -0.1202 -1.2894
25888SOL     OW79670   4.035   9.932   9.471  0.2644  0.5444 -0.4216
25888SOL    HW179671   3.967   9.999   9.468 -1.1798 -0.8873 -1.1818
25888SOL    HW279672   4.076   9.943   9.557 -0.9494  1.4256  0.0713
25889SOL     OW79673   9.880   7.676   0.385  0.7127 -0.1603  0.2824
25889SOL    HW179674   9.975   7.681   0.385  0.6644  3.3977  1.1971
25889SOL    HW279675   9.858   7.624   0.462  1.9412  0.8125  1.3250
25890SOL     OW79676   8.060   7.591  10.909 -0.3011 -0.2197 -0.1447
25890SOL    HW179677   8.048   7.641  10.989 -1.7290  0.3012 -0.6506
25890SOL    HW279678   7.987   7.618  10.853 -0.0398 -1.4987 -1.1408
25891SOL     OW79679  10.506   5.309   4.866  0.2038 -0.0213 -0.3467
25891SOL    HW179680  10.526   5.299   4.773 -0.0707  0.7716 -0.4931
25891SOL    HW279681  10.430   5.253   4.881  1.9426 -2.4497  0.0449
25892SOL     OW79682  10.304   9.556   2.686  0.2675  0.2617  0.6252
25892SOL    HW179683  10.276   9.554   2.778 -0.9477  0.0794  0.2682
25892SOL    HW279684  10.396   9.531   2.689 -0.1523 -1.3441  1.6695
25893SOL     OW79685   7.037   7.365   6.296 -0.1541 -0.8007 -0.0740
25893SOL    HW179686   7.072   7.419   6.366  2.1604 -0.4210 -1.4178
25893SOL    HW279687   7.065   7.275   6.317  1.2609 -0.5787 -0.8368
25894SOL     OW79688   4.211  10.254   2.403 -0.0862  0.0214 -0.6694
25894SOL    HW179689   4.183  10.183   2.346 -0.2718  0.5252 -1.2212
25894SOL    HW279690   4.184  10.334   2.357 -0.7179  0.4310  0.3668
25895SOL     OW79691  10.284   4.324  10.072 -0.1155  0.0564 -1.0779
25895SOL    HW179692  10.263   4.413  10.100 -1.3463 -0.3883 -0.4958
25895SOL    HW279693  10.198   4.284  10.056  0.4583 -0.4811 -3.1342
25896SOL     OW79694   1.293   6.356   2.237 -0.2624  0.0906 -0.0665
25896SOL    HW179695   1.228   6.426   2.235  0.3824  0.7029 -0.0983
25896SOL    HW279696   1.273   6.307   2.317 -1.3222 -0.2923 -0.5438
25897SOL     OW79697   0.189   4.692   4.719  0.1535  0.0786 -0.2737
25897SOL    HW179698   0.246   4.766   4.740  1.8681 -1.7875  2.2395
25897SOL    HW279699   0.112   4.704   4.775  0.1876  0.2609 -0.2669
25898SOL     OW79700   3.596   9.904   1.961  0.0222  1.0075  0.1553
25898SOL    HW179701   3.631   9.851   2.033 -0.5834 -0.3671 -0.5151
25898SOL    HW279702   3.670   9.958   1.933  0.4158  1.1812  1.4458
25899SOL     OW79703  10.947   2.650  10.140 -0.2220  0.0668  0.0902
25899SOL    HW179704  10.853   2.636  10.133  0.0432 -1.0433 -2.1422
25899SOL    HW279705  10.964   2.726  10.084  0.0378  1.3478  1.8356
25900SOL     OW79706   7.477   7.493   1.443  0.0922 -0.1914 -0.0223
25900SOL    HW179707   7.499   7.416   1.390  2.1634 -0.5395  1.2089
25900SOL    HW279708   7.500   7.568   1.388  0.9019 -0.5211 -0.1519
25901SOL     OW79709   4.519   8.822   1.442 -1.1497 -0.2328 -0.0091
25901SOL    HW179710   4.589   8.876   1.477 -0.2030 -1.6889  0.4328
25901SOL    HW279711   4.441   8.851   1.489 -0.3294 -0.4957  1.5624
25902SOL     OW79712   8.466   4.026   6.885  0.4240  0.3308 -0.1215
25902SOL    HW179713   8.554   4.047   6.853  0.4894  1.9016  0.9432
25902SOL    HW279714   8.480   3.997   6.975 -0.1161  0.1018 -0.1092
25903SOL     OW79715   4.381   5.913   1.596 -0.1484  0.2678 -0.0742
25903SOL    HW179716   4.435   5.954   1.663  0.0758 -1.3580  0.8038
25903SOL    HW279717   4.301   5.965   1.593 -1.1623 -0.8870  3.1705
25904SOL     OW79718   1.897   0.337   9.257  0.1463  0.9469 -0.7572
25904SOL    HW179719   1.889   0.357   9.164  1.0202  0.5264 -0.9342
25904SOL    HW279720   1.816   0.370   9.296 -0.4429  0.6917 -1.7381
25905SOL     OW79721  10.022   7.379   8.319 -0.2430 -0.0037  0.5786
25905SOL    HW179722   9.952   7.336   8.369 -0.7885 -0.9074 -0.8837
25905SOL    HW279723   9.977   7.442   8.263  0.1939 -0.0670  0.1509
25906SOL     OW79724   9.382   7.047   5.183 -0.2498 -0.5691  0.1227
25906SOL    HW179725   9.390   7.131   5.138  1.4659 -0.7547  0.0192
25906SOL    HW279726   9.412   7.064   5.272  1.2284 -1.2891 -0.2043
25907SOL     OW79727   2.187   2.205   6.305 -0.2288 -0.0941 -0.5259
25907SOL    HW179728   2.259   2.143   6.318  0.8345  0.9954 -1.0346
25907SOL    HW279729   2.184   2.219   6.211  0.0805  1.2226 -0.3561
25908SOL     OW79730  10.955   3.885   1.969 -0.1149 -0.6321  0.2586
25908SOL    HW179731  10.937   3.807   1.916 -0.3634 -0.2870 -0.1662
25908SOL    HW279732  10.891   3.950   1.940  0.6000 -0.0059  0.0533
25909SOL     OW79733   7.039   8.115   4.723 -0.6195 -0.1123 -0.2356
25909SOL    HW179734   7.116   8.169   4.705 -1.3957  0.5859 -1.7073
25909SOL    HW279735   7.069   8.025   4.709  0.0417  0.1204 -0.3410
25910SOL     OW79736  10.050   2.910   4.826 -0.2441 -0.3736 -0.7300
25910SOL    HW179737  10.133   2.876   4.860 -0.4063 -1.0198 -0.9766
25910SOL    HW279738  10.003   2.941   4.903 -0.5185 -1.6267 -0.3725
25911SOL     OW79739   8.371   4.581   5.291  0.1034  0.3749  0.5188
25911SOL    HW179740   8.284   4.621   5.288 -0.1531 -0.2063 -0.2511
25911SOL    HW279741   8.420   4.633   5.355 -0.9476  0.4367  1.3057
25912SOL     OW79742   0.843   9.414  10.797  0.0535 -0.3866  0.0562
25912SOL    HW179743   0.853   9.411  10.892 -1.3960 -2.7763  0.2290
25912SOL    HW279744   0.913   9.357  10.763 -0.7527 -1.3238 -0.0995
25913SOL     OW79745   3.619   2.886   2.973  0.0741 -0.2893 -0.3911
25913SOL    HW179746   3.543   2.865   2.918 -0.2507 -0.4878  0.1324
25913SOL    HW279747   3.583   2.900   3.060  0.3536  1.9015 -0.5867
25914SOL     OW79748   7.975   8.650   1.526 -0.1515  0.3436  0.1789
25914SOL    HW179749   8.005   8.740   1.537 -1.9833  1.0319 -0.0045
25914SOL    HW279750   7.879   8.658   1.521 -0.4247 -1.7226  1.2000
25915SOL     OW79751   2.915   0.467   4.968 -0.1293  0.7344  0.7387
25915SOL    HW179752   2.975   0.539   4.948  0.0806  0.3645 -0.0366
25915SOL    HW279753   2.970   0.389   4.963 -0.9924  0.1768 -1.9449
25916SOL     OW79754   0.197   9.363   3.738 -0.5191 -0.3463 -0.5361
25916SOL    HW179755   0.204   9.309   3.659 -0.1001 -0.5178 -0.3852
25916SOL    HW279756   0.151   9.307   3.801  2.0817 -1.5092  0.4508
25917SOL     OW79757   1.557  10.015   8.892 -0.0235 -0.0310 -0.1948
25917SOL    HW179758   1.651  10.004   8.881 -0.2018 -1.6559 -0.2847
25917SOL    HW279759   1.531  10.069   8.817  0.9074  1.0231  0.2054
25918SOL     OW79760   6.613   1.989  10.721  0.1534  0.4761 -0.3333
25918SOL    HW179761   6.597   1.950  10.807  0.7417 -0.5195 -0.6508
25918SOL    HW279762   6.528   2.022  10.693 -0.7347 -1.8578 -0.6391
25919SOL     OW79763   7.080   9.779   1.260 -0.2070  0.0747  0.4305
25919SOL    HW179764   7.159   9.826   1.232  0.0852 -0.0591  1.0030
25919SOL    HW279765   7.097   9.758   1.352  0.2912 -2.3636 -0.1488
25920SOL     OW79766   5.216  10.778   5.726  0.9826  0.4641 -0.3911
25920SOL    HW179767   5.268  10.855   5.703  0.7041  1.6886  2.6034
25920SOL    HW279768   5.276  10.722   5.774 -0.1636  1.6998  2.7321
25921SOL     OW79769   4.075   3.909   3.882 -0.3607 -0.4272  0.3208
25921SOL    HW179770   4.131   3.832   3.893  0.9822  0.6817  1.5984
25921SOL    HW279771   4.031   3.894   3.798 -1.1882 -3.2010  1.1282
25922SOL     OW79772   2.862   5.630   2.576  0.0126 -0.4197 -0.4261
25922SOL    HW179773   2.901   5.569   2.638 -1.0083 -0.5888  0.0503
25922SOL    HW279774   2.845   5.709   2.627 -1.4164 -0.7758 -0.3128
25923SOL     OW79775   4.045   2.350   7.341  0.2087 -0.0674  0.7437
25923SOL    HW179776   4.080   2.352   7.430  4.2638 -0.9474 -0.6503
25923SOL    HW279777   4.043   2.257   7.318  0.4392  0.2268 -0.5108
25924SOL     OW79778   5.992   8.171   2.536  0.4392 -0.3098 -0.0534
25924SOL    HW179779   5.939   8.144   2.611 -2.5512 -1.7185 -2.4626
25924SOL    HW279780   6.047   8.095   2.517 -0.6377 -0.9401 -0.7454
25925SOL     OW79781   5.329   3.064   6.595 -0.4185 -0.0050  1.0715
25925SOL    HW179782   5.375   3.108   6.523  0.4503 -1.9296  0.3701
25925SOL    HW279783   5.237   3.064   6.569 -0.2602  0.3107  0.4966
25926SOL     OW79784   8.436   9.013   8.072 -0.0638  0.2899  0.4909
25926SOL    HW179785   8.468   8.942   8.128 -0.3316  0.2503  0.5928
25926SOL    HW279786   8.513   9.041   8.023  0.6012  1.5662  2.1867
25927SOL     OW79787   4.148   2.755   6.857  0.1808 -0.1930 -0.5812
25927SOL    HW179788   4.239   2.783   6.868  0.2744 -0.5009 -0.5630
25927SOL    HW279789   4.106   2.778   6.939  0.3825 -0.5840 -0.3662
25928SOL     OW79790   3.577   6.029  10.760 -0.1565 -0.1115 -0.0060
25928SOL    HW179791   3.507   6.069  10.708  1.6487  1.2667 -1.5064
25928SOL    HW279792   3.605   5.954  10.708  1.4271  1.0784 -0.9699
25929SOL     OW79793   0.850   7.622   8.804 -0.1955  0.3947 -0.0185
25929SOL    HW179794   0.819   7.700   8.850  0.1270  0.0840  0.7401
25929SOL    HW279795   0.794   7.616   8.727 -2.2580 -0.3043  1.4389
25930SOL     OW79796   1.321   7.537   2.369  0.7528 -0.1363 -0.9128
25930SOL    HW179797   1.303   7.547   2.275  0.4550 -0.3213 -0.8745
25930SOL    HW279798   1.319   7.443   2.384 -0.0786 -0.0670 -0.5436
25931SOL     OW79799  10.741   0.749   9.126 -0.4313 -0.0176 -0.0749
25931SOL    HW179800  10.831   0.729   9.099 -0.7022 -4.3028  1.5264
25931SOL    HW279801  10.686   0.702   9.063 -1.5963  1.4223 -0.1950
25932SOL     OW79802   1.137   0.223   9.308  0.4313  0.0400  0.3809
25932SOL    HW179803   1.148   0.143   9.256  0.1142 -0.4928  1.1106
25932SOL    HW279804   1.087   0.281   9.251  2.6028  0.6221 -1.0563
25933SOL     OW79805   8.829   1.282   9.511 -0.1919  0.5854  0.7429
25933SOL    HW179806   8.787   1.219   9.452  0.0642  1.4690 -0.4136
25933SOL    HW279807   8.875   1.228   9.576  1.7539 -0.4901 -1.4040
25934SOL     OW79808   5.593   9.989   9.282 -0.0310  0.0556  0.0289
25934SOL    HW179809   5.561  10.059   9.338 -1.3540  0.0308 -0.6391
25934SOL    HW279810   5.640   9.930   9.340 -0.4956  0.5558  0.9299
25935SOL     OW79811   4.465   3.666   3.685 -0.8511  0.4862 -0.0053
25935SOL    HW179812   4.431   3.636   3.770 -1.1560 -1.0655 -0.6453
25935SOL    HW279813   4.412   3.743   3.665 -1.5621  0.2008  0.6951
25936SOL     OW79814   9.502   6.540   3.551  0.4814 -0.6271  0.1260
25936SOL    HW179815   9.520   6.608   3.616 -0.4639 -2.3911  2.3699
25936SOL    HW279816   9.438   6.580   3.493  1.6114  1.1322 -0.0095
25937SOL     OW79817   0.873   5.862   6.383  0.1678 -0.0677  0.6591
25937SOL    HW179818   0.855   5.873   6.476 -0.4725  0.7711  0.4470
25937SOL    HW279819   0.950   5.917   6.367 -0.0029  0.1602  0.6083
25938SOL     OW79820   8.255   8.302   6.096 -0.0588  0.1482 -0.2612
25938SOL    HW179821   8.348   8.287   6.111 -0.5453 -0.8459  2.4668
25938SOL    HW279822   8.212   8.258   6.170 -2.6279  1.4619 -0.8652
25939SOL     OW79823  10.685   0.561   6.136 -0.1373 -0.1423 -0.2691
25939SOL    HW179824  10.596   0.594   6.149 -0.4100 -0.4122 -1.4091
25939SOL    HW279825  10.715   0.539   6.225 -1.1024  0.1862  0.1528
25940SOL     OW79826   1.310   6.938   5.945 -0.4330  0.1883  0.0478
25940SOL    HW179827   1.268   6.927   5.859  1.3757 -0.0466 -0.8706
25940SOL    HW279828   1.374   6.867   5.949 -0.9250 -0.1972  1.9032
25941SOL     OW79829   2.150   3.028   9.243 -0.3272 -0.3925  0.1889
25941SOL    HW179830   2.211   2.986   9.303  0.1857 -1.9818 -1.3487
25941SOL    HW279831   2.069   2.979   9.254 -0.6797  0.2646  0.6068
25942SOL     OW79832   4.666   5.989   0.402 -0.5425  1.6374 -0.0106
25942SOL    HW179833   4.607   5.918   0.376  0.3121  0.4593  1.1404
25942SOL    HW279834   4.620   6.069   0.376 -2.3536  0.7427  0.2759
25943SOL     OW79835   5.441   2.969   0.311  0.1482  0.0725  0.1302
25943SOL    HW179836   5.362   2.917   0.327 -0.1659  0.8631  1.3045
25943SOL    HW279837   5.433   3.043   0.371  1.7227  0.2428  0.1679
25944SOL     OW79838   4.332   9.169   1.439  0.4895  0.1740 -0.1717
25944SOL    HW179839   4.287   9.085   1.432  0.7184 -0.0036  0.4582
25944SOL    HW279840   4.379   9.165   1.522 -0.8525  1.5759  0.7138
25945SOL     OW79841   8.086   3.598   8.173  0.5334 -0.3972  0.1539
25945SOL    HW179842   8.166   3.642   8.146  1.6426 -2.3471  0.0983
25945SOL    HW279843   8.115   3.520   8.220 -1.3365  1.1492  4.3227
25946SOL     OW79844  11.085   1.828   2.829 -0.5842 -0.2946 -0.3536
25946SOL    HW179845  11.154   1.872   2.878  0.3904 -1.2585 -0.8170
25946SOL    HW279846  11.031   1.900   2.795  1.0525  0.5914 -1.2416
25947SOL     OW79847   9.751   3.263  10.148 -0.0695  0.1366 -0.3617
25947SOL    HW179848   9.711   3.324  10.209  1.4989  1.5798 -0.7076
25947SOL    HW279849   9.836   3.242  10.186  1.0611  1.2788 -2.1226
25948SOL     OW79850   5.203   8.893   6.578  0.4723 -0.1009 -0.3613
25948SOL    HW179851   5.175   8.955   6.645 -0.7424  1.5261 -2.2453
25948SOL    HW279852   5.139   8.822   6.582  0.7040 -0.2645  0.5120
25949SOL     OW79853   2.382   3.171   8.273  0.0203 -0.3218  0.3231
25949SOL    HW179854   2.341   3.207   8.351  0.2368 -0.8847  0.7060
25949SOL    HW279855   2.326   3.096   8.249 -0.6053  0.4259 -0.6416
25950SOL     OW79856   9.925   8.497   5.853 -0.0461  0.2954 -0.1598
25950SOL    HW179857   9.875   8.498   5.934 -0.4653 -2.4055 -0.3025
25950SOL    HW279858   9.901   8.579   5.809  1.0357  2.4031  2.8399
25951SOL     OW79859   0.942   5.341  11.064 -0.8379 -0.5616 -0.2982
25951SOL    HW179860   0.960   5.250  11.040  0.5532 -1.1944  2.6681
25951SOL    HW279861   1.004   5.360  11.135  1.3818  3.8395 -2.9281
25952SOL     OW79862   9.054   7.995   9.231  0.5083 -0.0941 -0.7309
25952SOL    HW179863   8.971   7.950   9.242  1.3607 -1.7028 -0.6510
25952SOL    HW279864   9.088   7.963   9.147  0.8297  0.9275 -1.0043
25953SOL     OW79865   1.272   6.866   8.396  0.0533 -0.2063 -0.2219
25953SOL    HW179866   1.302   6.953   8.370  0.9445 -0.5964 -0.5660
25953SOL    HW279867   1.327   6.843   8.470 -0.4094 -0.3442  0.0797
25954SOL     OW79868   6.096   7.881  10.635 -0.2107 -0.2911  0.0132
25954SOL    HW179869   6.106   7.886  10.731  1.4840  2.2139 -0.1978
25954SOL    HW279870   6.135   7.796  10.612  2.2949  0.3878  1.3249
25955SOL     OW79871   7.476   6.053   8.986 -0.9256  0.0862 -0.3369
25955SOL    HW179872   7.511   6.024   8.902 -0.0950 -0.7773  0.2938
25955SOL    HW279873   7.502   5.985   9.048 -1.4644  0.7452  0.6358
25956SOL     OW79874  11.034   6.050   4.877 -0.4366 -0.0476 -0.2726
25956SOL    HW179875  10.977   5.973   4.878 -1.4974  0.4986  4.4712
25956SOL    HW279876  11.079   6.048   4.961  2.3388  2.6452 -1.4764
25957SOL     OW79877   7.319   1.454   2.790 -0.0448  0.2794  0.6664
25957SOL    HW179878   7.231   1.452   2.828  0.3040 -0.9715  1.4738
25957SOL    HW279879   7.305   1.455   2.696 -0.9207  0.5189  0.7913
25958SOL     OW79880   9.453   8.497   9.761  0.4353 -0.1774  0.4010
25958SOL    HW179881   9.450   8.412   9.717  2.4545 -0.2773  0.3527
25958SOL    HW279882   9.544   8.506   9.789  0.9210  2.9720 -1.6545
25959SOL     OW79883   9.739   5.990   2.710  0.1849  0.1320 -0.6041
25959SOL    HW179884   9.721   5.978   2.803 -1.0682 -0.6534 -0.9187
25959SOL    HW279885   9.801   6.062   2.706 -0.7365  1.0442  0.7847
25960SOL     OW79886   6.743   8.799   7.216 -0.3201 -0.8018 -0.5009
25960SOL    HW179887   6.743   8.756   7.302 -3.0148  1.5278  0.8074
25960SOL    HW279888   6.662   8.770   7.175 -2.2726  2.7087  0.4513
25961SOL     OW79889   8.840   3.536   4.195  1.4334  0.0702  0.3434
25961SOL    HW179890   8.759   3.554   4.242 -0.1789  0.0878 -2.2923
25961SOL    HW279891   8.890   3.480   4.255 -1.5766 -2.0582  1.0898
25962SOL     OW79892   7.894   1.077  10.417  0.0781  0.2439  0.4611
25962SOL    HW179893   7.942   1.000  10.389 -1.1000 -0.8613  1.3555
25962SOL    HW279894   7.824   1.088  10.352  0.3022  0.6362  0.2783
25963SOL     OW79895   6.631  10.922   9.131  0.3822  0.2982  0.4716
25963SOL    HW179896   6.700  10.986   9.117  0.2284  0.6350  1.2048
25963SOL    HW279897   6.658  10.873   9.208  0.8623 -1.0337 -0.5088
25964SOL     OW79898   1.362  10.410   3.994 -0.3418 -0.0752  0.7018
25964SOL    HW179899   1.391  10.330   4.038  1.0989 -1.3094 -2.2374
25964SOL    HW279900   1.413  10.480   4.036 -0.0048 -0.9669  1.8427
25965SOL     OW79901   0.646   6.394   0.788 -0.0354 -0.6796 -0.5539
25965SOL    HW179902   0.673   6.303   0.780 -1.3222 -0.9812 -1.8728
25965SOL    HW279903   0.556   6.395   0.755  0.5136  1.3619 -2.1631
25966SOL     OW79904   8.590   5.202  10.002 -0.1126 -0.1019 -0.2059
25966SOL    HW179905   8.540   5.260   9.944  0.2049 -1.7778 -2.2730
25966SOL    HW279906   8.640   5.262  10.057 -0.1797  1.6338 -1.8923
25967SOL     OW79907   2.434   7.678   2.326  0.1909  0.2822  1.2038
25967SOL    HW179908   2.392   7.750   2.280 -0.4328 -0.3706  0.7377
25967SOL    HW279909   2.373   7.656   2.397  0.2840  0.0802  1.2211
25968SOL     OW79910  10.688   4.551   7.189 -0.9282 -0.2286 -0.4446
25968SOL    HW179911  10.687   4.514   7.278  1.5958 -0.7581 -0.5508
25968SOL    HW279912  10.710   4.477   7.133 -2.5945  0.0891 -1.5693
25969SOL     OW79913   1.222   6.944   4.785 -0.3985 -0.2992 -0.4166
25969SOL    HW179914   1.214   6.935   4.690  0.6113 -0.3391 -0.5068
25969SOL    HW279915   1.206   6.856   4.818  0.9457 -0.6758 -0.6906
25970SOL     OW79916   4.913   4.047   6.852  0.0535 -0.1953  0.5767
25970SOL    HW179917   4.933   4.032   6.945  1.3527  2.1289  0.7481
25970SOL    HW279918   4.972   3.987   6.805  0.6449 -0.1321  1.2275
25971SOL     OW79919  10.855   6.794   9.961  0.9482 -0.3032 -0.3744
25971SOL    HW179920  10.831   6.804  10.053  1.0928  2.1211 -0.5541
25971SOL    HW279921  10.771   6.795   9.915  0.9850  1.1968 -0.4508
25972SOL     OW79922   4.001  11.010   2.466  0.1689  0.0477 -0.5573
25972SOL    HW179923   4.004  10.925   2.422 -0.1927  0.2174 -0.9093
25972SOL    HW279924   3.924  11.053   2.430  0.0527  0.3159  0.0087
25973SOL     OW79925   6.769   0.333   5.558  0.4333 -0.1936 -0.2212
25973SOL    HW179926   6.840   0.391   5.585  0.1871 -0.3928  0.8931
25973SOL    HW279927   6.812   0.250   5.538  0.7959  0.3577 -1.8929
25974SOL     OW79928   9.933   5.239   3.111 -0.2258 -0.6250  0.4460
25974SOL    HW179929  10.005   5.301   3.103 -2.0047  1.6516  0.8696
25974SOL    HW279930   9.923   5.225   3.205 -2.6208  2.1983  0.7901
25975SOL     OW79931   3.105   1.528   4.300  0.3556  0.4126 -0.3335
25975SOL    HW179932   3.069   1.464   4.361  2.7792  0.4973  1.3111
25975SOL    HW279933   3.054   1.516   4.220 -2.8078  0.1141  1.5342
25976SOL     OW79934   7.498   9.583   1.187 -0.6276  0.5165 -1.0562
25976SOL    HW179935   7.585   9.561   1.154 -1.2924 -1.4782 -1.6094
25976SOL    HW279936   7.460   9.638   1.118 -0.1588  0.5908 -1.2594
25977SOL     OW79937   0.543   5.297   3.864 -0.3082  0.0037  0.3298
25977SOL    HW179938   0.529   5.386   3.831 -1.4196 -0.0410  0.6411
25977SOL    HW279939   0.632   5.298   3.900 -0.6089  1.2202  1.0823
25978SOL     OW79940   2.804   1.496  10.688  0.4206  0.3196  0.3395
25978SOL    HW179941   2.792   1.453  10.773 -2.1905  0.1172 -0.0663
25978SOL    HW279942   2.876   1.558  10.703  1.3822 -1.1235  2.1060
25979SOL     OW79943   8.596   4.168   9.290  0.3713  0.3257 -0.1530
25979SOL    HW179944   8.542   4.117   9.229  0.6281 -0.4426  0.2649
25979SOL    HW279945   8.549   4.251   9.298  0.4886  0.5706 -1.6370
25980SOL     OW79946   7.510   0.972   3.493  0.2514  0.1280  1.1036
25980SOL    HW179947   7.587   1.024   3.472 -0.1236  0.9206  1.6519
25980SOL    HW279948   7.438   1.035   3.498 -0.3751 -0.5547  0.9352
25981SOL     OW79949   0.236   3.385   2.307 -0.4540  0.3337 -0.2663
25981SOL    HW179950   0.301   3.442   2.266 -1.0771 -0.0989 -1.9188
25981SOL    HW279951   0.155   3.437   2.308 -0.8952 -0.2989 -1.3048
25982SOL     OW79952   7.432   1.619   3.037 -0.4776 -0.0850 -0.4427
25982SOL    HW179953   7.457   1.536   2.995  0.8572  0.0080  0.1259
25982SOL    HW279954   7.504   1.679   3.017 -0.7342  0.5139  0.3804
25983SOL     OW79955   7.287   6.212  11.014 -0.4588 -0.6403 -0.3491
25983SOL    HW179956   7.282   6.299  10.975  0.6561 -1.2320 -1.9108
25983SOL    HW279957   7.333   6.225  11.097 -1.8582  0.4740  0.3070
25984SOL     OW79958   1.375   9.006   3.205 -0.1403 -0.2929  0.1576
25984SOL    HW179959   1.408   9.013   3.116 -2.0893 -0.1670 -0.5931
25984SOL    HW279960   1.302   9.067   3.209 -1.9789 -2.3831  0.9064
25985SOL     OW79961   7.532   6.608   3.559  0.2924  0.2917  0.4398
25985SOL    HW179962   7.556   6.528   3.606 -2.1779 -0.5264  0.4404
25985SOL    HW279963   7.437   6.606   3.555  0.0117  3.9514  1.6830
25986SOL     OW79964  10.239   4.215   6.191 -0.2559 -0.2038 -0.2225
25986SOL    HW179965  10.166   4.253   6.239 -1.2689 -1.5314 -0.6478
25986SOL    HW279966  10.204   4.134   6.153  1.3577 -0.7530 -0.6571
25987SOL     OW79967  10.924   5.288   4.449 -0.2799 -0.5116 -0.0693
25987SOL    HW179968  10.941   5.239   4.368  1.2869 -0.3523  0.1351
25987SOL    HW279969  10.950   5.229   4.519  3.4396  1.0907  0.1501
25988SOL     OW79970   5.982   8.511   7.734 -0.7095 -0.3702  0.0087
25988SOL    HW179971   6.014   8.523   7.644 -0.3264 -1.4109 -0.0015
25988SOL    HW279972   5.888   8.528   7.728 -0.6693 -0.3251 -0.5681
25989SOL     OW79973   8.812   2.880   4.711 -0.2124 -1.1359  0.0296
25989SOL    HW179974   8.839   2.836   4.631  1.1167  0.8800 -0.7122
25989SOL    HW279975   8.737   2.934   4.686 -1.7896 -2.7962  0.9146
25990SOL     OW79976   7.889   4.413   1.618 -0.6294  0.4037  0.0775
25990SOL    HW179977   7.953   4.476   1.651 -0.8313  0.0357  1.1949
25990SOL    HW279978   7.855   4.454   1.538 -1.2314  2.0464  1.1165
25991SOL     OW79979   2.363   9.735   5.152  0.2726  0.0161 -0.7466
25991SOL    HW179980   2.287   9.685   5.183 -0.1280  0.9575 -0.1741
25991SOL    HW279981   2.437   9.674   5.161 -0.3169 -0.7119 -0.7541
25992SOL     OW79982   4.471   5.406   7.530 -0.1306 -0.0671 -0.5221
25992SOL    HW179983   4.552   5.408   7.479  0.9125  2.8200  1.0102
25992SOL    HW279984   4.402   5.389   7.466  1.4030  0.3276 -2.3614
25993SOL     OW79985   0.706   6.380   1.287  0.0132  0.4216 -0.3176
25993SOL    HW179986   0.638   6.335   1.336 -0.4559 -0.9894 -2.1745
25993SOL    HW279987   0.681   6.472   1.289 -1.2519  0.0801  0.1047
25994SOL     OW79988   1.002   7.180   6.674  0.3257  0.8013 -0.0488
25994SOL    HW179989   1.026   7.271   6.694 -0.5940  1.0635 -0.0966
25994SOL    HW279990   1.054   7.128   6.735 -0.2479  1.4402  1.0233
25995SOL     OW79991   8.485   0.866   4.609  0.3230  0.3637 -0.3968
25995SOL    HW179992   8.438   0.945   4.634  1.3613  0.5709  0.9610
25995SOL    HW279993   8.550   0.895   4.545 -0.2799  0.3457 -1.0275
25996SOL     OW79994  10.688   2.890   2.589  0.4168  0.5279  0.3390
25996SOL    HW179995  10.630   2.857   2.658  0.2630 -0.9342 -0.4469
25996SOL    HW279996  10.673   2.985   2.588 -1.2287  0.3069  0.8153
25997SOL     OW79997   1.656   5.697  10.370 -0.3012 -0.4753 -0.0825
25997SOL    HW179998   1.751   5.712  10.369 -0.5990  1.6637 -0.9053
25997SOL    HW279999   1.618   5.777  10.335 -2.5400 -0.5246  1.9326
25998SOL     OW80000  10.213   1.385   1.421  0.3268  0.3726 -0.1316
25998SOL    HW180001  10.214   1.332   1.501  0.6073  1.3419  0.5281
25998SOL    HW280002  10.135   1.355   1.374  0.9265 -1.1847 -0.1829
25999SOL     OW80003   2.463   6.234   4.944 -0.2585 -0.0534 -0.3529
25999SOL    HW180004   2.400   6.228   4.873 -0.8386  1.7023 -0.0297
25999SOL    HW280005   2.436   6.311   4.994  1.0836 -0.3131  0.8405
26000SOL     OW80006   6.563   9.201   7.239  0.4710 -0.2997 -0.4212
26000SOL    HW180007   6.482   9.204   7.188 -0.8059 -3.4297  1.1454
26000SOL    HW280008   6.625   9.155   7.183  0.4092 -0.0271 -0.7163
26001SOL     OW80009   8.987   6.689   7.610 -0.0720  0.9887  0.4720
26001SOL    HW180010   8.974   6.760   7.672  1.4967  0.0130  2.0273
26001SOL    HW280011   8.946   6.613   7.652  1.6028  0.1686  0.7049
26002SOL     OW80012   4.066   7.124   2.649 -0.0677  0.1414  0.6668
26002SOL    HW180013   4.024   7.207   2.623  0.0462 -0.1220 -0.3996
26002SOL    HW280014   4.146   7.120   2.596 -0.7542 -1.2924 -0.3468
26003SOL     OW80015   1.781   8.392   1.107  0.3790  0.3267 -0.1770
26003SOL    HW180016   1.809   8.367   1.196 -2.9580 -0.0062  0.9122
26003SOL    HW280017   1.753   8.310   1.067 -0.6939  0.8426 -0.5089
26004SOL     OW80018  10.567   7.378   5.864 -0.1228  0.2337  0.8259
26004SOL    HW180019  10.556   7.473   5.855  1.3901  0.5426  1.9653
26004SOL    HW280020  10.660   7.366   5.879 -0.6135 -1.2315  3.1143
26005SOL     OW80021   6.856   4.202   8.798 -0.3329  0.5588 -0.2756
26005SOL    HW180022   6.817   4.141   8.861  0.5741 -0.0005 -0.2256
26005SOL    HW280023   6.897   4.145   8.733  1.7542  1.0589  0.5210
26006SOL     OW80024   2.735   6.858   7.478 -0.4660 -0.5807 -0.1134
26006SOL    HW180025   2.732   6.949   7.450  1.4423 -0.0489  1.1807
26006SOL    HW280026   2.823   6.848   7.516  0.1516 -3.5259 -2.0436
26007SOL     OW80027   9.630   6.777   0.846  0.4929 -0.5414 -0.1554
26007SOL    HW180028   9.678   6.739   0.919  1.6748 -0.2602 -0.7604
26007SOL    HW280029   9.646   6.871   0.853  0.1844 -0.4624 -0.4793
26008SOL     OW80030   6.769   3.718   4.975  0.0844 -0.2900  0.6333
26008SOL    HW180031   6.809   3.742   4.891  0.3978  0.8512  1.0985
26008SOL    HW280032   6.713   3.643   4.954 -1.4288  1.2146 -1.0082
26009SOL     OW80033   9.824   3.903   6.857  0.5130  0.8747  0.0914
26009SOL    HW180034   9.840   3.901   6.951  0.2490  1.0878  0.1434
26009SOL    HW280035   9.728   3.904   6.849  0.5075 -0.4291 -0.2043
26010SOL     OW80036   1.040   9.449   6.676  0.5984  0.2404 -0.3028
26010SOL    HW180037   1.131   9.423   6.662  0.8920  0.3816  1.1288
26010SOL    HW280038   0.991   9.367   6.678  0.9531  0.0387  0.5292
26011SOL     OW80039  10.062   3.238   7.862 -0.3818  0.4854  0.3076
26011SOL    HW180040  10.042   3.155   7.905 -0.6439  0.8742  0.9534
26011SOL    HW280041  10.086   3.297   7.934  1.2862  0.5699 -0.2595
26012SOL     OW80042   5.718   6.744   8.608 -0.4896 -0.3648 -0.5172
26012SOL    HW180043   5.784   6.733   8.676 -0.1509 -2.3445 -1.1206
26012SOL    HW280044   5.635   6.738   8.655 -0.2571 -0.7025 -0.1440
26013SOL     OW80045  10.416   0.273   3.757  0.0196 -0.8773  0.6163
26013SOL    HW180046  10.480   0.202   3.765  1.2649  0.1874  0.3468
26013SOL    HW280047  10.469   0.351   3.743 -1.3843 -0.1665 -1.0444
26014SOL     OW80048   3.394   6.860   7.033 -0.6516  0.4328 -0.1381
26014SOL    HW180049   3.403   6.944   6.989 -0.3098  0.7846  0.5857
26014SOL    HW280050   3.477   6.846   7.077 -1.2326  0.4572  1.0050
26015SOL     OW80051   8.907   9.400   1.539  0.0550 -0.1029 -0.2808
26015SOL    HW180052   8.898   9.416   1.633 -1.5970  1.0085 -0.5717
26015SOL    HW280053   9.001   9.388   1.525  0.5413  1.5133  1.2543
26016SOL     OW80054  10.656   9.869  10.869  0.4487 -0.5415  0.0141
26016SOL    HW180055  10.746   9.840  10.856  0.7865  0.4248  0.0604
26016SOL    HW280056  10.652   9.896  10.961 -0.5816 -2.8202  0.6934
26017SOL     OW80057   6.347   0.595   8.152 -0.6829  0.0921  0.0923
26017SOL    HW180058   6.411   0.570   8.086 -1.2823  1.2584 -0.9711
26017SOL    HW280059   6.392   0.582   8.235 -0.2212 -2.3529 -0.4344
26018SOL     OW80060   8.528   7.387   5.853 -0.0335  0.1494  0.3675
26018SOL    HW180061   8.589   7.442   5.804 -0.3005 -1.1065 -1.4697
26018SOL    HW280062   8.462   7.361   5.789 -0.6451 -1.2149  1.4920
26019SOL     OW80063   8.925   5.168   7.423 -0.2454 -0.1506 -0.0586
26019SOL    HW180064   8.942   5.128   7.508 -1.1027  1.2896  0.8320
26019SOL    HW280065   9.008   5.160   7.375  1.0649  1.1847  1.8380
26020SOL     OW80066   8.500  10.409   3.615  0.0816  0.5027  0.8621
26020SOL    HW180067   8.469  10.466   3.545  1.0026  1.4172  1.1696
26020SOL    HW280068   8.544  10.337   3.570 -0.9410  0.1019  0.4767
26021SOL     OW80069   2.132   6.259  10.877 -0.0136 -0.0182 -0.3708
26021SOL    HW180070   2.153   6.209  10.799 -0.3307  0.1245 -0.5513
26021SOL    HW280071   2.074   6.201  10.927 -1.0391  0.4670 -0.9638
26022SOL     OW80072   6.497   6.248   3.242  0.0678  0.0013  0.2972
26022SOL    HW180073   6.435   6.186   3.203 -0.1706 -0.0300  0.7328
26022SOL    HW280074   6.518   6.211   3.327 -1.3152  1.3384  1.2622
26023SOL     OW80075   2.929   5.233   2.467  0.2462  0.1327  0.2303
26023SOL    HW180076   2.956   5.230   2.376 -1.5607 -1.6114 -0.3143
26023SOL    HW280077   2.866   5.161   2.476 -1.4881  1.7844  2.2511
26024SOL     OW80078   1.675   2.083   7.815 -0.2930 -0.4826 -0.4316
26024SOL    HW180079   1.742   2.140   7.779 -1.3862  1.0026 -0.1969
26024SOL    HW280080   1.711   1.995   7.806  2.2006  0.3240  0.7895
26025SOL     OW80081   0.783  10.437   2.939 -0.1884  0.0677 -0.3146
26025SOL    HW180082   0.700  10.400   2.967 -0.8147 -0.4366 -2.5900
26025SOL    HW280083   0.760  10.516   2.890  0.7663  0.5457 -0.0254
26026SOL     OW80084   6.397   1.620   3.489 -0.1350 -0.3754  0.0087
26026SOL    HW180085   6.322   1.623   3.430  0.5322  0.9927 -0.8012
26026SOL    HW280086   6.450   1.547   3.456 -0.8807 -1.0989  0.3520
26027SOL     OW80087   6.832  10.130  10.559  0.6695  0.9402 -0.4241
26027SOL    HW180088   6.861  10.217  10.586  0.1207  1.4703 -1.4754
26027SOL    HW280089   6.906  10.095  10.508  0.7877  0.8934 -0.2215
26028SOL     OW80090   8.971   3.559   0.742  0.9876  0.2592  0.9191
26028SOL    HW180091   8.964   3.581   0.835  0.6547  0.0271  0.9507
26028SOL    HW280092   8.997   3.467   0.741  2.4266  0.6330  0.7862
26029SOL     OW80093   5.778   1.050   6.192  0.0615  0.4979 -0.2632
26029SOL    HW180094   5.867   1.081   6.203  0.0173  0.8540 -0.8708
26029SOL    HW280095   5.774   0.969   6.243  0.7324  0.4743 -0.2479
26030SOL     OW80096   1.889   3.003   7.847 -0.1321  0.2839  0.3816
26030SOL    HW180097   1.934   3.077   7.808 -0.4103 -0.5712 -1.6950
26030SOL    HW280098   1.798   3.013   7.820 -0.2307 -0.6367  0.3229
26031SOL     OW80099   5.322   9.923   9.589  0.3163  0.4317 -0.3781
26031SOL    HW180100   5.354   9.875   9.513 -1.2686  0.5704 -1.1719
26031SOL    HW280101   5.303  10.011   9.555 -0.9090  0.3401  0.0383
26032SOL     OW80102   5.072   0.918   0.137 -0.1215  0.0949 -0.2957
26032SOL    HW180103   5.062   0.976   0.212 -0.2428  0.1936 -0.3867
26032SOL    HW280104   5.028   0.964   0.065  0.0729  0.0450 -0.4492
26033SOL     OW80105   8.619   5.734   1.250 -0.0485 -0.5428 -0.9492
26033SOL    HW180106   8.614   5.639   1.256 -1.7071 -0.3796  1.1993
26033SOL    HW280107   8.548   5.758   1.191 -0.7179 -0.5428 -0.1489
26034SOL     OW80108   3.096   0.074   8.573  0.2517  0.3743  0.1523
26034SOL    HW180109   3.022   0.059   8.632  0.2234 -1.4614 -0.2855
26034SOL    HW280110   3.173   0.072   8.631  0.1882 -0.9770  0.2177
26035SOL     OW80111   7.127   9.060   0.278 -0.7468  0.1274  0.1601
26035SOL    HW180112   7.127   9.150   0.311  0.3136 -0.0656  0.7371
26035SOL    HW280113   7.211   9.024   0.307 -1.2719 -1.1356  0.1832
26036SOL     OW80114   0.569   0.834   8.847  0.9439  0.1200 -0.0921
26036SOL    HW180115   0.575   0.927   8.867  0.0028  0.4147 -1.0782
26036SOL    HW280116   0.484   0.808   8.883  0.8435 -0.1689 -0.5410
26037SOL     OW80117  10.843   2.238   4.853  0.0324 -0.2189  0.1432
26037SOL    HW180118  10.787   2.287   4.793 -1.2498 -0.8989  0.7353
26037SOL    HW280119  10.879   2.167   4.800  0.7544  0.5093 -0.3644
26038SOL     OW80120   5.186   4.719   8.863  0.0983 -0.4060  0.4805
26038SOL    HW180121   5.158   4.637   8.904 -0.7321 -0.3079  0.1209
26038SOL    HW280122   5.151   4.787   8.921  0.1906 -0.2964  0.4067
26039SOL     OW80123   8.076   1.069   5.853  0.1688 -0.4190 -0.6907
26039SOL    HW180124   8.110   0.987   5.888  1.4852 -1.3332 -3.7290
26039SOL    HW280125   7.984   1.069   5.878  0.0188 -3.0666 -0.9253
26040SOL     OW80126   3.852   1.542   1.505 -0.7890  0.0182 -0.3182
26040SOL    HW180127   3.869   1.635   1.520  0.8946 -0.4948  1.2857
26040SOL    HW280128   3.916   1.517   1.438 -0.9259 -0.1114 -0.4020
26041SOL     OW80129   9.305   5.265   2.296 -0.3232  0.1476  0.3893
26041SOL    HW180130   9.239   5.314   2.247  1.5438  0.9937 -1.4212
26041SOL    HW280131   9.353   5.216   2.229  2.1896  1.1603  1.3357
26042SOL     OW80132   1.088   7.152   4.884  0.6846 -1.0490  0.0750
26042SOL    HW180133   0.994   7.133   4.893  0.2800  0.1016 -1.3405
26042SOL    HW280134   1.128   7.066   4.869 -0.2523 -1.4635 -0.1468
26043SOL     OW80135   5.446   1.391   0.947  0.0120 -0.0186 -0.2073
26043SOL    HW180136   5.446   1.486   0.947 -1.5642  0.0139  0.3366
26043SOL    HW280137   5.381   1.367   0.880 -0.8104 -0.6663  0.7932
26044SOL     OW80138   4.008   7.521   8.090 -0.7120 -0.1582 -0.6809
26044SOL    HW180139   3.944   7.460   8.055 -1.1144 -0.1802  0.0905
26044SOL    HW280140   4.028   7.579   8.016  1.1839 -2.3956 -2.0630
26045SOL     OW80141   3.273   4.750  10.212  0.1195 -0.1743 -0.4246
26045SOL    HW180142   3.222   4.717  10.139 -0.3983 -0.1832 -0.0648
26045SOL    HW280143   3.323   4.674  10.243 -0.4464 -0.4216 -0.1147
26046SOL     OW80144   1.047   1.406   9.237  0.0727  0.0297  0.0498
26046SOL    HW180145   1.141   1.412   9.218  0.0333 -2.0625 -1.2111
26046SOL    HW280146   1.040   1.430   9.329  1.6054  1.7976 -0.2310
26047SOL     OW80147   2.550   8.950   9.434 -0.0768  0.3171 -0.0407
26047SOL    HW180148   2.616   8.945   9.504 -1.1822 -2.6408  0.9441
26047SOL    HW280149   2.567   9.034   9.391  2.1942  1.1609  2.2437
26048SOL     OW80150   1.345   2.409   4.990 -0.0653  0.0884  0.2817
26048SOL    HW180151   1.343   2.451   4.904 -1.3424  0.2441  0.3588
26048SOL    HW280152   1.257   2.373   5.000  0.2064 -0.3056  1.3397
26049SOL     OW80153  10.441   7.462   4.156 -0.3406  0.0166 -0.3298
26049SOL    HW180154  10.390   7.486   4.234 -2.3268 -1.4927 -1.0726
26049SOL    HW280155  10.448   7.544   4.106 -1.5195  0.4127  0.1066
26050SOL     OW80156   6.076   3.776   9.251  0.4979 -0.5842  0.0092
26050SOL    HW180157   6.011   3.715   9.217  2.9345 -2.4597 -1.6821
26050SOL    HW280158   6.058   3.859   9.206 -1.3151 -0.7256  0.4101
26051SOL     OW80159   7.142   9.226   7.650 -0.1169  0.3883 -0.7805
26051SOL    HW180160   7.102   9.281   7.718  1.3412  1.8490 -1.0518
26051SOL    HW280161   7.183   9.287   7.590  1.7557 -0.9986 -0.9954
26052SOL     OW80162   2.825   8.240   6.458 -0.2515 -0.4508 -0.5892
26052SOL    HW180163   2.742   8.231   6.504 -0.9889  0.5835 -1.6441
26052SOL    HW280164   2.891   8.227   6.526 -1.2827  1.6027  0.9466
26053SOL     OW80165   8.403   0.546   7.372  0.1721 -0.0866 -0.1556
26053SOL    HW180166   8.308   0.546   7.382  0.1633  2.0257  0.2330
26053SOL    HW280167   8.436   0.556   7.461  0.7449 -0.1242 -0.3609
26054SOL     OW80168   0.230   8.038  10.715 -0.1557 -0.3107  0.0777
26054SOL    HW180169   0.277   8.053  10.797  1.7880 -2.3593 -0.5645
26054SOL    HW280170   0.187   7.953  10.727 -1.1159  0.0812 -0.4930
26055SOL     OW80171   6.109  10.308  10.213 -0.3881  0.6130 -0.5701
26055SOL    HW180172   6.056  10.380  10.179  0.8899  2.3708  0.9344
26055SOL    HW280173   6.114  10.324  10.307  0.4770 -1.1114 -0.2771
26056SOL     OW80174   6.940   5.781   6.056 -0.6557 -0.4739  0.1395
26056SOL    HW180175   7.014   5.795   6.115 -0.9932  0.3719  0.3747
26056SOL    HW280176   6.909   5.693   6.077  0.1288 -0.7433  0.2070
26057SOL     OW80177   8.862   8.026   8.366  0.4880 -0.3072  0.0105
26057SOL    HW180178   8.868   8.073   8.283 -0.6643  1.3526  0.8121
26057SOL    HW280179   8.952   8.024   8.399  0.8583 -0.4346 -0.9605
26058SOL     OW80180  10.479   1.041   3.259 -0.0103 -0.4897  0.6074
26058SOL    HW180181  10.486   1.115   3.318 -1.0257 -0.3773  0.6155
26058SOL    HW280182  10.488   1.079   3.171  0.7600 -0.5519  0.6530
26059SOL     OW80183   6.950   6.408   0.439 -0.1767  0.0548  0.0002
26059SOL    HW180184   6.947   6.395   0.534  1.7940  2.9859  0.5845
26059SOL    HW280185   6.859   6.426   0.415 -0.6514 -0.3348  1.3965
26060SOL     OW80186   1.451   8.697   5.125 -0.4388 -0.5927 -0.1700
26060SOL    HW180187   1.407   8.778   5.150 -0.1708  0.0172 -1.5515
26060SOL    HW280188   1.382   8.644   5.086 -0.8596 -1.5447  1.7653
26061SOL     OW80189   8.391   4.213   2.686 -0.0641 -0.4504  0.7021
26061SOL    HW180190   8.322   4.155   2.721 -1.8642 -0.4532 -2.4587
26061SOL    HW280191   8.454   4.153   2.646 -0.6594 -0.3348 -0.4340
26062SOL     OW80192  11.076   8.299   5.361  0.3199  0.2196  0.4014
26062SOL    HW180193  10.997   8.307   5.306 -0.2666 -0.9204  1.0386
26062SOL    HW280194  11.119   8.220   5.330 -0.8325 -1.3444  2.5050
26063SOL     OW80195   3.074   5.542   0.164 -0.0464 -0.1572 -0.3444
26063SOL    HW180196   3.090   5.467   0.107  0.7957 -1.2599  1.2787
26063SOL    HW280197   3.153   5.548   0.218 -1.0400  0.5158  1.0748
26064SOL     OW80198   3.851   7.418   4.601 -0.2314 -0.1692 -0.2031
26064SOL    HW180199   3.939   7.401   4.636 -0.6752 -0.4550  0.8175
26064SOL    HW280200   3.795   7.417   4.678 -1.2336 -0.6606 -0.9198
26065SOL     OW80201   9.977   7.803   9.409 -0.1748  0.1712 -0.5722
26065SOL    HW180202  10.028   7.884   9.405  0.1464  0.0198  0.2662
26065SOL    HW280203  10.043   7.733   9.414 -0.4494  0.0053  1.0610
26066SOL     OW80204   2.302   5.541   0.185 -0.3400 -0.9792  0.4153
26066SOL    HW180205   2.314   5.527   0.279  1.0020  0.9681  0.5880
26066SOL    HW280206   2.256   5.463   0.155  0.3428 -2.2414  2.4573
26067SOL     OW80207  10.387   6.790   1.115 -0.0225 -0.0597  0.5811
26067SOL    HW180208  10.461   6.838   1.153  1.3449 -0.0483 -1.9181
26067SOL    HW280209  10.364   6.839   1.037 -2.0330 -0.6518  0.7548
26068SOL     OW80210   0.649   1.586   0.205 -0.3578 -0.5477 -0.1241
26068SOL    HW180211   0.563   1.605   0.244  0.9940  4.5680  1.1232
26068SOL    HW280212   0.663   1.657   0.142  3.6183 -0.0184  1.0895
26069SOL     OW80213   8.484   8.642   0.868 -0.1031  0.0691 -0.1838
26069SOL    HW180214   8.481   8.609   0.958  1.7712 -0.0463 -0.1289
26069SOL    HW280215   8.486   8.562   0.814 -2.4188  0.1167 -0.4491
26070SOL     OW80216   1.516   2.327   3.087 -0.1512 -0.0403 -0.3468
26070SOL    HW180217   1.511   2.382   3.009 -1.9821  2.2745  1.2179
26070SOL    HW280218   1.595   2.357   3.132 -1.4982  2.0372  0.8437
26071SOL     OW80219   8.382   4.315   7.205  0.4551  0.3347  0.4273
26071SOL    HW180220   8.459   4.362   7.237 -0.7544  1.1246  2.3773
26071SOL    HW280221   8.322   4.384   7.176 -0.1476 -0.1672  0.4580
26072SOL     OW80222   2.606   4.609   1.969  0.1639 -0.0740 -0.0899
26072SOL    HW180223   2.583   4.634   1.879 -0.5847  0.7118  0.3030
26072SOL    HW280224   2.619   4.693   2.014 -0.2145 -0.4462  0.7245
26073SOL     OW80225   9.487   2.449   5.212  0.9455 -0.9199  0.0685
26073SOL    HW180226   9.464   2.375   5.156  0.7408 -0.5260 -0.3728
26073SOL    HW280227   9.577   2.431   5.239  0.2554 -2.3310  1.5900
26074SOL     OW80228   6.737   1.846   0.488  0.2223 -0.0892  1.1349
26074SOL    HW180229   6.738   1.864   0.582  1.2060  0.9458  0.9468
26074SOL    HW280230   6.828   1.859   0.460  0.3972 -2.4322  0.3976
26075SOL     OW80231   7.722   0.964   9.930  0.3055 -0.1781  0.0842
26075SOL    HW180232   7.774   1.028   9.882 -0.4521 -1.4925 -2.6694
26075SOL    HW280233   7.780   0.889   9.942  0.3675 -0.0086  0.9490
26076SOL     OW80234   3.763   2.686   8.663  0.3398 -0.0012 -0.2432
26076SOL    HW180235   3.825   2.614   8.660 -0.3250 -0.6665 -4.1588
26076SOL    HW280236   3.817   2.765   8.667  1.2521 -0.6330  0.0567
26077SOL     OW80237   8.599  10.034   0.276  0.1058  0.0180 -0.0879
26077SOL    HW180238   8.687  10.040   0.239  1.4198  0.2812  2.8136
26077SOL    HW280239   8.600   9.954   0.330 -1.8538 -0.6335 -0.9135
26078SOL     OW80240   8.646   2.177   7.427  1.0269  0.4358 -0.5494
26078SOL    HW180241   8.735   2.210   7.420  0.4215  1.7434 -3.9268
26078SOL    HW280242   8.601   2.213   7.351 -2.1640 -0.9414  0.5169
26079SOL     OW80243   3.605  10.883   4.443  0.0340  0.3509  0.8993
26079SOL    HW180244   3.545  10.942   4.398 -1.0724  0.5083  2.4999
26079SOL    HW280245   3.600  10.801   4.394  1.4231  1.4518 -1.2169
26080SOL     OW80246   6.267  11.063   2.596 -0.2473  0.1233  0.4885
26080SOL    HW180247   6.329  11.061   2.523  2.0178 -0.1046  2.3374
26080SOL    HW280248   6.208  11.136   2.575  1.1872  0.9541 -0.8771
26081SOL     OW80249   0.313   5.078  10.324 -0.4334 -0.8577  0.5783
26081SOL    HW180250   0.228   5.035  10.329 -1.6289  1.3062  0.1409
26081SOL    HW280251   0.348   5.073  10.413 -1.9707 -0.0277  1.2772
26082SOL     OW80252   3.352   9.145   2.036  0.5170 -0.6179  0.1123
26082SOL    HW180253   3.263   9.168   2.064  0.2420 -0.9156 -0.4935
26082SOL    HW280254   3.341   9.111   1.947  1.0216 -2.1351  0.5957
26083SOL     OW80255   2.362   9.458  10.222 -0.2355 -0.0433 -0.4206
26083SOL    HW180256   2.294   9.524  10.235  0.8071  1.4653 -2.0930
26083SOL    HW280257   2.438   9.507  10.191  1.1589 -1.8461 -0.0474
26084SOL     OW80258   3.356   5.637  10.106 -0.0041  0.1214  0.1097
26084SOL    HW180259   3.395   5.724  10.094  0.8379 -0.2712 -0.0958
26084SOL    HW280260   3.422   5.588  10.156 -0.6502 -0.2753  0.5844
26085SOL     OW80261   4.618   2.751   6.452  0.5684 -0.0709  0.0666
26085SOL    HW180262   4.669   2.670   6.457  4.0980  1.8083 -1.8351
26085SOL    HW280263   4.635   2.796   6.535 -0.4038 -0.6742  0.6133
26086SOL     OW80264   5.447   0.428   8.959  0.1403 -0.2428 -0.2782
26086SOL    HW180265   5.372   0.374   8.934  0.0655  0.3830 -1.4304
26086SOL    HW280266   5.412   0.516   8.970  0.3792 -0.2796  1.0242
26087SOL     OW80267   4.119   1.465   4.271 -0.1776  0.2361 -0.0026
26087SOL    HW180268   4.038   1.482   4.320 -0.9257 -2.9092  0.0884
26087SOL    HW280269   4.188   1.472   4.336 -0.8738 -1.0522  0.9363
26088SOL     OW80270   6.464  11.002   8.360 -0.4946  0.5144  0.6449
26088SOL    HW180271   6.522  10.972   8.429 -2.0587  0.7048  2.0944
26088SOL    HW280272   6.501  11.086   8.333  1.0006 -0.2778  0.1213
26089SOL     OW80273  10.772   8.136   3.575 -0.0780  0.1572  0.2495
26089SOL    HW180274  10.818   8.063   3.535  0.6917  1.1853 -0.8052
26089SOL    HW280275  10.692   8.145   3.524  0.8121  1.3442 -1.0024
26090SOL     OW80276   5.283   0.857   6.208  0.2556  0.1724  0.7348
26090SOL    HW180277   5.223   0.840   6.281 -0.0646  0.6821  0.5961
26090SOL    HW280278   5.232   0.834   6.130 -0.1137  1.5273  0.5578
26091SOL     OW80279   4.126   0.512   7.593  0.4829 -0.0988  0.1428
26091SOL    HW180280   4.094   0.459   7.667  0.7447 -1.0167 -0.3760
26091SOL    HW280281   4.221   0.506   7.599  0.5037 -0.1765 -0.2654
26092SOL     OW80282   1.245   0.010   3.299 -0.2021  0.0993 -0.0673
26092SOL    HW180283   1.170   0.049   3.254  1.0300  1.7607 -0.7773
26092SOL    HW280284   1.254   0.062   3.379 -0.0407 -0.3687  0.2226
26093SOL     OW80285   9.517   0.730   5.575 -0.4240  0.6971 -0.7686
26093SOL    HW180286   9.489   0.662   5.513 -1.3101  1.1382 -0.8719
26093SOL    HW280287   9.441   0.787   5.583 -0.1690  0.8967  0.3868
26094SOL     OW80288   7.427   3.083   8.419 -0.3184  0.6975 -0.2301
26094SOL    HW180289   7.487   3.151   8.389 -1.0791  1.3283 -0.3594
26094SOL    HW280290   7.361   3.075   8.350 -1.0854  0.9067  0.4557
26095SOL     OW80291   7.376   7.553   7.245 -0.1910 -0.3157  0.3006
26095SOL    HW180292   7.433   7.624   7.275  0.2938  0.6588 -2.5788
26095SOL    HW280293   7.418   7.522   7.165 -2.5509 -1.1009 -0.7085
26096SOL     OW80294   0.270   6.946   7.404 -0.0199 -0.0287  0.1699
26096SOL    HW180295   0.240   6.955   7.494 -0.3282  2.1378 -0.0842
26096SOL    HW280296   0.193   6.966   7.351  0.3591 -0.4856 -0.5680
26097SOL     OW80297   8.902   1.562   3.908 -0.3174 -0.0469 -0.0230
26097SOL    HW180298   8.963   1.488   3.914  1.3101  0.7497 -4.0574
26097SOL    HW280299   8.950   1.635   3.948 -0.2656 -0.2486  0.2928
26098SOL     OW80300   3.729   4.147   0.697  0.2962  0.4033  0.2325
26098SOL    HW180301   3.791   4.219   0.691  0.9265 -0.1334  0.1989
26098SOL    HW280302   3.655   4.182   0.748  0.5258  1.1099  0.0827
26099SOL     OW80303   4.683   5.415   7.346  0.1909  0.8949  0.1342
26099SOL    HW180304   4.736   5.475   7.295  3.1744 -0.7620  1.0774
26099SOL    HW280305   4.745   5.351   7.381 -2.4754 -1.4166  1.0587
26100SOL     OW80306   3.643   4.472   3.935  0.1232 -0.2416 -0.4639
26100SOL    HW180307   3.673   4.465   4.025  2.4826 -3.8196 -1.3716
26100SOL    HW280308   3.552   4.441   3.938  0.5344 -1.3995  0.5077
26101SOL     OW80309   7.223   9.475  10.037  0.3207 -0.3330  0.5821
26101SOL    HW180310   7.151   9.539  10.032 -0.4246 -1.1374  0.8266
26101SOL    HW280311   7.300   9.524  10.009 -0.2345  0.6861  0.7743
26102SOL     OW80312   8.951   8.141   2.692  0.4289 -0.3258  1.0373
26102SOL    HW180313   8.869   8.150   2.740 -0.2872 -1.9213  0.1883
26102SOL    HW280314   9.019   8.152   2.759 -0.4078  1.7954  1.6256
26103SOL     OW80315   4.618   8.177   6.592  0.2582  0.2939 -0.7866
26103SOL    HW180316   4.639   8.185   6.499  1.8282 -0.8384 -0.5791
26103SOL    HW280317   4.564   8.098   6.598  0.4466  0.1684 -0.7127
26104SOL     OW80318  10.453   3.073   7.824  0.2929  0.5313 -0.0874
26104SOL    HW180319  10.521   3.078   7.892  2.2094  0.7996 -1.8932
26104SOL    HW280320  10.485   3.005   7.764 -0.5507  1.3419 -1.4990
26105SOL     OW80321   7.947   0.299   2.542  0.3616  0.4558  0.1789
26105SOL    HW180322   7.906   0.357   2.478 -0.7124  0.7130  1.0676
26105SOL    HW280323   8.020   0.259   2.495  0.4067  1.6341 -0.8003
26106SOL     OW80324   2.466   1.159  10.856 -0.1367 -0.1779  0.2319
26106SOL    HW180325   2.546   1.142  10.906  0.8965 -0.4734 -1.4500
26106SOL    HW280326   2.445   1.251  10.875  0.1673 -0.3115  1.2674
26107SOL     OW80327  10.130   1.282   1.061 -1.0708  0.1477 -0.1907
26107SOL    HW180328  10.051   1.332   1.042 -1.3435 -0.0403  0.4301
26107SOL    HW280329  10.172   1.330   1.134 -1.3329 -0.5132  0.4078
26108SOL     OW80330   0.323   4.928   5.467 -0.1143  0.3878 -0.2245
26108SOL    HW180331   0.292   4.838   5.481 -0.7369  0.8660  1.6757
26108SOL    HW280332   0.328   4.966   5.554 -0.8804  2.5498 -1.0701
26109SOL     OW80333   8.085   1.048   9.122 -0.8147 -0.4213  0.2092
26109SOL    HW180334   8.009   1.054   9.180 -1.4763 -1.1066 -0.5580
26109SOL    HW280335   8.058   0.987   9.053 -1.0370  2.2059 -2.2656
26110SOL     OW80336   1.364   8.217   3.266 -0.3616  0.1464  0.2053
26110SOL    HW180337   1.428   8.274   3.225 -0.6378  0.9109  0.8226
26110SOL    HW280338   1.348   8.148   3.201  0.6642  0.2533 -0.1714
26111SOL     OW80339   0.815   8.853   9.768  0.0282  0.3558 -0.7285
26111SOL    HW180340   0.734   8.899   9.790  0.1090  0.0389  0.3169
26111SOL    HW280341   0.810   8.839   9.674 -0.3806  1.7541 -0.9456
26112SOL     OW80342   4.807   5.628  10.517  0.3913  0.6326 -0.3315
26112SOL    HW180343   4.773   5.578  10.443 -1.7629 -1.1977  1.7225
26112SOL    HW280344   4.883   5.578  10.547  0.5029  0.6751 -0.5421
26113SOL     OW80345   0.831   7.419   8.276 -0.0932 -0.1149 -0.2499
26113SOL    HW180346   0.869   7.354   8.335 -2.5711 -0.5241  1.0082
26113SOL    HW280347   0.859   7.503   8.312 -2.1232 -0.3209  2.0579
26114SOL     OW80348  11.065   6.135   8.189  0.7973  0.5213  0.1407
26114SOL    HW180349  11.095   6.213   8.235  0.2601  1.2675 -0.7402
26114SOL    HW280350  11.052   6.163   8.098  0.5977 -0.5899 -0.1982
26115SOL     OW80351   1.484   9.423  10.702 -0.6687 -0.3941  0.1835
26115SOL    HW180352   1.500   9.331  10.681 -1.1478 -0.8854  1.8615
26115SOL    HW280353   1.409   9.421  10.762 -2.3591  1.2898 -1.7069
26116SOL     OW80354  10.131   9.965   4.883  0.5602  0.2851 -0.0311
26116SOL    HW180355  10.213   9.969   4.834  0.2368 -0.9693 -0.7233
26116SOL    HW280356  10.062   9.968   4.817  0.0622  0.5377  0.4883
26117SOL     OW80357   8.983   7.767   3.709  0.2811  0.4445  0.1560
26117SOL    HW180358   9.017   7.812   3.632  0.7179  0.1504  0.1747
26117SOL    HW280359   8.951   7.838   3.766  0.2569  0.6799 -0.1491
26118SOL     OW80360   6.520  11.050   0.153  0.1639 -0.2543  0.3555
26118SOL    HW180361   6.594  11.024   0.208  0.4353  1.3270  0.8005
26118SOL    HW280362   6.529  11.145   0.145 -1.8716 -0.0099  0.5079
26119SOL     OW80363   6.688   3.781   9.403  0.5509 -0.1684 -0.6876
26119SOL    HW180364   6.761   3.809   9.458  1.1059  0.2016 -1.5716
26119SOL    HW280365   6.631   3.857   9.397  0.3025 -0.3267 -0.3242
26120SOL     OW80366   7.836   5.239   2.059 -0.1384 -0.1103  0.3615
26120SOL    HW180367   7.921   5.266   2.093 -0.0879  0.0672  0.0933
26120SOL    HW280368   7.827   5.286   1.977  0.4043 -1.6891 -0.6495
26121SOL     OW80369   3.082   0.268   8.943  0.2241  0.8709 -0.5244
26121SOL    HW180370   3.015   0.302   9.002  1.0610  2.1377 -0.2705
26121SOL    HW280371   3.052   0.291   8.855 -0.8263 -0.6705 -0.6078
26122SOL     OW80372  10.395   4.034   6.385  0.2406 -0.1438 -0.0053
26122SOL    HW180373  10.478   4.008   6.344 -0.7060 -1.2230 -1.3445
26122SOL    HW280374  10.357   4.097   6.324  1.0032  2.0290  1.6497
26123SOL     OW80375   3.499   0.616  10.809  0.1471  1.0992 -0.3681
26123SOL    HW180376   3.472   0.577  10.726 -2.3366  0.0637  0.7945
26123SOL    HW280377   3.584   0.575  10.828 -0.3872 -0.5442 -1.2630
26124SOL     OW80378   3.240   9.743   2.925  0.0592  0.1326 -0.9382
26124SOL    HW180379   3.315   9.684   2.922  0.7059  0.7728  1.0143
26124SOL    HW280380   3.255   9.796   3.003 -2.4013  0.3300 -0.5360
26125SOL     OW80381   9.421   9.601   2.774  0.7025 -0.1237 -1.2023
26125SOL    HW180382   9.463   9.559   2.849  0.6783  1.0381 -0.5146
26125SOL    HW280383   9.383   9.529   2.724 -1.6654 -0.8102  1.3377
26126SOL     OW80384  10.471   9.171   8.246 -0.0084  0.0077  0.0219
26126SOL    HW180385  10.451   9.254   8.202 -0.6029 -0.2404 -0.1897
26126SOL    HW280386  10.394   9.153   8.299 -0.6365 -1.2682 -1.2489
26127SOL     OW80387   3.180   6.934   8.737 -0.3308 -0.4392  0.1034
26127SOL    HW180388   3.243   6.980   8.682 -0.6074 -0.0373  0.1192
26127SOL    HW280389   3.174   6.986   8.816  0.0069 -0.9769  0.4915
26128SOL     OW80390   5.475   9.727   3.964  0.0143  0.7640  0.7012
26128SOL    HW180391   5.417   9.679   4.023 -1.8549 -3.8106 -4.1151
26128SOL    HW280392   5.436   9.814   3.958 -2.0414  0.1181  2.9676
26129SOL     OW80393  10.654  11.001   9.615 -0.6262  0.0522  0.4869
26129SOL    HW180394  10.682  11.092   9.629 -0.3616  0.3202 -1.4740
26129SOL    HW280395  10.725  10.961   9.566 -1.5841 -0.6419 -0.3665
26130SOL     OW80396   4.568   0.070   4.939  0.3783  0.4332  0.0454
26130SOL    HW180397   4.526   0.156   4.931 -1.1895 -0.5027 -3.5739
26130SOL    HW280398   4.541   0.040   5.026 -1.8477  2.2454  0.1120
26131SOL     OW80399   2.355   4.455   1.168  0.6017  0.1353 -0.2295
26131SOL    HW180400   2.415   4.524   1.138  0.5125  0.6247  0.6687
26131SOL    HW280401   2.319   4.418   1.088  0.2933  1.4717 -0.7393
26132SOL     OW80402   9.459   5.598  10.003  0.2739  0.0891 -0.5731
26132SOL    HW180403   9.548   5.605   9.970  0.2447 -1.0229 -0.9280
26132SOL    HW280404   9.450   5.507  10.031 -0.3648  0.4925  0.6146
26133SOL     OW80405  10.933   1.283   7.884 -0.1372 -0.0430  0.2743
26133SOL    HW180406  10.918   1.339   7.808  2.6351  0.7590  0.2156
26133SOL    HW280407  10.845   1.269   7.920 -1.2487  1.8944 -1.4021
26134SOL     OW80408   0.595   1.383   0.423 -0.1737 -0.0063  0.2588
26134SOL    HW180409   0.676   1.422   0.393  0.4064 -0.7316  0.8400
26134SOL    HW280410   0.541   1.374   0.344  0.6674 -0.3518 -0.2846
26135SOL     OW80411  10.067   6.613   7.458  0.9750 -0.6808 -0.1813
26135SOL    HW180412  10.080   6.696   7.504 -1.7189  1.6099 -3.0885
26135SOL    HW280413  10.132   6.614   7.388  0.1276 -0.3529 -0.9810
26136SOL     OW80414   1.457   5.403   9.897 -0.1352  0.0510 -0.3677
26136SOL    HW180415   1.540   5.376   9.936 -0.2909 -1.0824 -0.7820
26136SOL    HW280416   1.442   5.340   9.827 -1.6592 -0.1310  0.0962
26137SOL     OW80417   3.548   2.182   1.166 -0.3593  0.5877  0.2983
26137SOL    HW180418   3.544   2.095   1.127 -0.5605  0.4292  0.6637
26137SOL    HW280419   3.458   2.200   1.194 -0.2915  0.8525  0.3569
26138SOL     OW80420   0.056   0.904   1.466  0.1527 -0.3608 -0.1895
26138SOL    HW180421   0.091   0.815   1.475  0.0935 -0.4177 -0.5225
26138SOL    HW280422   0.042   0.915   1.372 -0.0127 -0.0641 -0.1304
26139SOL     OW80423   3.924   4.366   0.789  0.3938 -0.1597  0.0833
26139SOL    HW180424   3.997   4.379   0.848 -0.1010  0.6795  0.5294
26139SOL    HW280425   3.952   4.407   0.707  1.1976 -1.5821 -0.3925
26140SOL     OW80426   9.935  11.054   6.072  0.4921  0.1417 -0.3011
26140SOL    HW180427   9.956  11.120   6.138  0.9487  0.3251 -0.6227
26140SOL    HW280428   9.865  11.001   6.112 -0.6577  1.4879 -0.4640
26141SOL     OW80429   8.282  10.199   2.526 -0.1562 -0.5229 -0.4584
26141SOL    HW180430   8.368  10.156   2.529  0.2927  0.1492 -2.4174
26141SOL    HW280431   8.219  10.126   2.529  0.5182 -1.1347 -0.7246
26142SOL     OW80432  10.757   3.271   7.685 -0.0634  0.1451  0.5135
26142SOL    HW180433  10.794   3.278   7.597  0.7175  0.1532  0.8300
26142SOL    HW280434  10.733   3.179   7.694 -0.0610  0.1249  0.3209
26143SOL     OW80435   7.277   5.005   1.858 -0.2810  0.4240  0.6715
26143SOL    HW180436   7.215   5.078   1.850  0.5377  1.1643  0.9295
26143SOL    HW280437   7.223   4.927   1.850 -0.8066  0.9853 -3.0178
26144SOL     OW80438   5.782  11.028   0.136 -0.4665  0.4338  0.4114
26144SOL    HW180439   5.853  11.025   0.201  1.2869 -0.0106 -1.4249
26144SOL    HW280440   5.754  11.120   0.135  0.8182  0.8452  0.4394
26145SOL     OW80441   4.535  10.634   2.797 -0.0434 -0.8003 -0.4664
26145SOL    HW180442   4.546  10.716   2.846 -0.3987 -1.1469  0.1931
26145SOL    HW280443   4.616  10.625   2.748  0.9439 -1.1923  1.1675
26146SOL     OW80444   0.708   7.696   3.306  0.7716 -0.2666  0.0727
26146SOL    HW180445   0.618   7.684   3.337  0.8931 -0.4039  0.3790
26146SOL    HW280446   0.725   7.619   3.251  0.5237  0.0237 -0.4179
26147SOL     OW80447   5.881   1.909   0.937 -0.6317 -0.4425  0.3665
26147SOL    HW180448   5.814   1.964   0.979  1.4708  3.5488 -1.0389
26147SOL    HW280449   5.833   1.864   0.867 -2.4628 -0.4341  1.5330
26148SOL     OW80450   3.336   4.720   4.952 -0.2313 -0.1663 -0.1028
26148SOL    HW180451   3.367   4.651   4.893 -1.2168 -0.2136 -0.5833
26148SOL    HW280452   3.348   4.801   4.902 -0.3073 -0.1245 -0.0526
26149SOL     OW80453   5.910   8.253  10.691  0.0490  0.0350 -0.2712
26149SOL    HW180454   5.900   8.187  10.623  1.0817 -1.7684  1.2177
26149SOL    HW280455   5.836   8.240  10.750 -0.2473  0.8524 -0.4445
26150SOL     OW80456   7.343   2.209   4.603 -0.3029 -0.5645 -0.8402
26150SOL    HW180457   7.434   2.182   4.615 -0.7566 -2.1209 -0.6596
26150SOL    HW280458   7.331   2.211   4.508 -0.1211 -0.4818 -0.8622
26151SOL     OW80459  10.498  10.613  10.410 -0.0864  0.1453 -0.0555
26151SOL    HW180460  10.482  10.656  10.326  2.9708 -0.4012 -1.0422
26151SOL    HW280461  10.556  10.673  10.457  1.8909 -1.4805 -0.2683
26152SOL     OW80462   4.342   9.249   9.184  0.0480 -0.6048  0.5662
26152SOL    HW180463   4.419   9.192   9.195  0.1091 -0.1238  3.3836
26152SOL    HW280464   4.301   9.251   9.271 -1.5758  1.3827 -0.1674
26153SOL     OW80465   7.415   9.715   2.547 -0.0285 -0.6166  0.4409
26153SOL    HW180466   7.454   9.643   2.498 -0.9505 -0.6773 -0.2300
26153SOL    HW280467   7.425   9.690   2.639  2.1448 -0.2760  0.3371
26154SOL     OW80468  10.840  10.380   1.018  0.0701  0.3787  0.1528
26154SOL    HW180469  10.836  10.305   1.076 -0.3208  1.0942  1.0816
26154SOL    HW280470  10.758  10.426   1.033  1.8259  3.1208  2.6076
26155SOL     OW80471   2.827   7.762   8.748 -0.9417 -0.0509  0.0065
26155SOL    HW180472   2.858   7.829   8.687  0.5186  0.8891  1.6596
26155SOL    HW280473   2.900   7.700   8.755 -1.9059 -1.3287 -0.7657
26156SOL     OW80474  10.860  10.120   6.321  0.2026  0.4756  0.3621
26156SOL    HW180475  10.923  10.189   6.302 -0.1819  0.8412  0.3929
26156SOL    HW280476  10.819  10.147   6.403 -0.5322  0.6372 -0.0480
26157SOL     OW80477   7.937   7.489   8.642  0.2230  0.3501 -0.2798
26157SOL    HW180478   7.877   7.535   8.701  0.0992  2.0435 -1.6488
26157SOL    HW280479   7.880   7.439   8.584  0.3645 -1.7917  1.3256
26158SOL     OW80480   6.066   5.095   6.781  0.6255 -0.0870 -0.2278
26158SOL    HW180481   6.161   5.099   6.778  0.7821 -2.2851  0.1117
26158SOL    HW280482   6.040   5.071   6.692  0.4100  0.0707 -0.2087
26159SOL     OW80483   8.361   6.741   6.411 -0.1533  0.0188  0.8058
26159SOL    HW180484   8.272   6.764   6.383  0.4351  0.1298 -1.1185
26159SOL    HW280485   8.415   6.814   6.380  0.9451 -1.2168 -0.3698
26160SOL     OW80486   5.822   0.814   6.339 -0.1581 -0.1383 -0.0712
26160SOL    HW180487   5.817   0.778   6.250 -2.8429 -1.3597  0.4906
26160SOL    HW280488   5.857   0.742   6.392 -0.5186 -0.1269  0.1883
26161SOL     OW80489   9.364   8.915   0.451 -0.2261 -0.1400 -1.0379
26161SOL    HW180490   9.434   8.960   0.404  1.3477 -0.4964  0.8460
26161SOL    HW280491   9.397   8.905   0.540 -3.0249  0.4368  0.1847
26162SOL     OW80492   6.104   3.573   8.489 -0.3772 -0.1001 -0.0754
26162SOL    HW180493   6.149   3.547   8.409 -0.9190 -1.1231 -0.0599
26162SOL    HW280494   6.167   3.629   8.534  0.3626 -0.4132 -0.6957
26163SOL     OW80495  10.023   4.968   7.225  0.3955 -0.0621  0.0471
26163SOL    HW180496   9.945   5.001   7.270 -0.7063 -1.5342 -0.6906
26163SOL    HW280497  10.038   5.030   7.154 -1.9680 -1.2698 -1.6580
26164SOL     OW80498   8.501   7.550   6.632  0.3331 -0.5641  1.0030
26164SOL    HW180499   8.457   7.635   6.628 -0.5332 -1.0317  0.3768
26164SOL    HW280500   8.467   7.509   6.711  1.4157  0.0086  1.7975
26165SOL     OW80501  10.636   7.183  10.380 -0.0319 -0.5498 -0.3517
26165SOL    HW180502  10.683   7.120  10.325 -0.6252  0.0612 -1.5997
26165SOL    HW280503  10.573   7.129  10.428 -1.5253 -0.8203 -2.4695
26166SOL     OW80504   9.706   6.516   3.888 -0.5509 -0.0705 -0.9214
26166SOL    HW180505   9.626   6.524   3.836 -0.4478 -2.3455 -1.5241
26166SOL    HW280506   9.776   6.540   3.827 -0.5476 -1.2189 -1.3816
26167SOL     OW80507   4.414   3.617   5.133  0.0920  0.3885  0.5276
26167SOL    HW180508   4.462   3.651   5.208 -1.5925 -0.8896  2.2695
26167SOL    HW280509   4.456   3.534   5.113 -0.0932  0.2483  0.7188
26168SOL     OW80510   7.170   6.093   4.915 -0.0579 -0.0879  0.0987
26168SOL    HW180511   7.258   6.101   4.877 -0.9970  1.4278 -1.9135
26168SOL    HW280512   7.169   6.159   4.985  0.4002 -0.1419  0.1649
26169SOL     OW80513   8.492   5.391   1.072 -0.5839 -0.4764  0.3826
26169SOL    HW180514   8.436   5.424   1.002 -0.7978 -1.5010  0.0629
26169SOL    HW280515   8.563   5.346   1.027 -0.7847 -1.2399  0.8166
26170SOL     OW80516   2.709   8.764   7.795  0.7577 -0.8872 -0.7743
26170SOL    HW180517   2.688   8.847   7.753  2.3644 -0.2576 -0.3907
26170SOL    HW280518   2.665   8.768   7.879  2.2815  0.4129  0.0223
26171SOL     OW80519   6.809   1.211   2.624 -0.7799 -0.5264 -0.0450
26171SOL    HW180520   6.887   1.267   2.623 -1.5067  0.5019 -0.0285
26171SOL    HW280521   6.820   1.154   2.548 -0.3474  0.0744 -0.4455
26172SOL     OW80522  10.303   3.681   4.008  0.0632 -0.4096 -0.7883
26172SOL    HW180523  10.348   3.667   4.091 -0.8518 -0.0554 -0.2128
26172SOL    HW280524  10.289   3.593   3.973 -0.0467 -0.5971 -0.2828
26173SOL     OW80525   4.006   4.039   7.464 -0.0567  0.2620  0.4242
26173SOL    HW180526   3.965   4.016   7.380 -1.3965  1.5810  0.6659
26173SOL    HW280527   4.008   3.957   7.512 -1.0283 -0.1574 -0.2057
26174SOL     OW80528   0.422   8.845   1.613  0.0359  0.5058 -0.1345
26174SOL    HW180529   0.386   8.767   1.572 -1.7731  0.4010  1.5033
26174SOL    HW280530   0.465   8.814   1.692 -0.1624  1.1158  0.2200
26175SOL     OW80531   6.644   7.683   5.924 -0.7428 -0.6836 -0.7074
26175SOL    HW180532   6.598   7.626   5.863 -3.5000  0.7283 -0.1473
26175SOL    HW280533   6.641   7.770   5.883  0.7855 -0.3980 -0.2711
26176SOL     OW80534   7.469   8.954   5.745 -0.1421  0.2372  0.6501
26176SOL    HW180535   7.515   8.961   5.829 -0.0013 -1.4639  0.7447
26176SOL    HW280536   7.460   9.045   5.715 -1.4771  1.0632  3.1929
26177SOL     OW80537   8.879   9.517   5.552  0.0490 -0.4115 -0.4720
26177SOL    HW180538   8.826   9.483   5.480 -1.1966 -1.1463  0.7469
26177SOL    HW280539   8.930   9.442   5.583 -0.7534 -0.5564  0.5438
26178SOL     OW80540   5.626   1.886  10.516  0.0412 -0.3199  0.3524
26178SOL    HW180541   5.556   1.949  10.499 -1.7051 -1.4139  2.8671
26178SOL    HW280542   5.667   1.872  10.430 -3.0955  0.0334 -1.3466
26179SOL     OW80543   6.421   9.745   5.201 -0.5263 -0.5631 -0.1452
26179SOL    HW180544   6.491   9.700   5.153 -0.9950 -0.8624 -0.5650
26179SOL    HW280545   6.343   9.692   5.185 -1.2032  0.6341 -1.0446
26180SOL     OW80546  10.948  10.642   8.831  0.6505  0.3420  0.1123
26180SOL    HW180547  11.043  10.634   8.841  0.6985 -0.1687 -0.6477
26180SOL    HW280548  10.913  10.623   8.918  1.1682 -1.0661  0.0340
26181SOL     OW80549   9.204   0.207   4.243 -0.2863  0.1348 -0.1751
26181SOL    HW180550   9.124   0.205   4.190  0.7850 -0.1328 -1.8482
26181SOL    HW280551   9.257   0.136   4.207  1.8122  1.9954 -0.9313
26182SOL     OW80552   6.193   9.822  10.753 -0.2101 -0.1486  0.1439
26182SOL    HW180553   6.208   9.903  10.802 -0.5506  0.9974 -1.5810
26182SOL    HW280554   6.279   9.780  10.751 -0.2802 -0.5160  2.1283
26183SOL     OW80555   4.673   9.756   3.892 -0.0635  0.5258 -0.1722
26183SOL    HW180556   4.726   9.701   3.949 -1.7808 -0.5038  0.5200
26183SOL    HW280557   4.725   9.835   3.879  0.9267  0.2757  1.8363
26184SOL     OW80558  10.892   9.404   4.656  0.2382 -0.3884  0.3670
26184SOL    HW180559  10.913   9.416   4.563  1.7040  1.7503  0.8768
26184SOL    HW280560  10.971   9.365   4.693  0.5741  0.8898  1.0676
26185SOL     OW80561   5.184   0.652   8.393  0.3826  1.0296  0.2817
26185SOL    HW180562   5.244   0.695   8.454  1.5553  0.4034 -0.3912
26185SOL    HW280563   5.241   0.607   8.331 -0.7079 -2.5024  1.5584
26186SOL     OW80564   8.555   6.350   3.465  0.2520  0.0100 -0.0924
26186SOL    HW180565   8.595   6.297   3.534 -0.8291  0.8377  1.2225
26186SOL    HW280566   8.465   6.362   3.493 -0.4520 -0.2541 -2.0539
26187SOL     OW80567   4.581   8.364   8.753 -0.6650  0.1039 -0.1546
26187SOL    HW180568   4.589   8.460   8.755  0.1266  0.0483  2.1808
26187SOL    HW280569   4.524   8.343   8.827 -5.0955 -1.0386 -3.4867
26188SOL     OW80570   0.250   1.176   7.387  0.0253  0.0540 -0.7066
26188SOL    HW180571   0.216   1.236   7.321  0.9152 -0.2264 -1.4330
26188SOL    HW280572   0.245   1.225   7.469 -1.7838  0.1466 -0.8225
26189SOL     OW80573  10.845  10.136   0.808  0.2091 -0.0154  0.4720
26189SOL    HW180574  10.879  10.225   0.814 -0.2093  0.7773 -4.3873
26189SOL    HW280575  10.917  10.080   0.839  1.9033  1.9457  0.2818
26190SOL     OW80576   0.581   4.112   6.925  0.5900  0.0094 -0.2268
26190SOL    HW180577   0.604   4.203   6.939  0.4702  0.1418 -0.8670
26190SOL    HW280578   0.546   4.082   7.010 -1.2663  1.1253 -0.5515
26191SOL     OW80579   5.416   0.030  10.076 -0.4805  0.7645  0.0174
26191SOL    HW180580   5.363   0.065  10.004  0.2876 -1.9397 -1.9943
26191SOL    HW280581   5.506   0.055  10.054 -0.2060 -0.3397 -0.1332
26192SOL     OW80582   9.394  10.477   7.291  0.9349  0.4769 -1.0391
26192SOL    HW180583   9.345  10.397   7.272 -2.6353  0.8754  4.3136
26192SOL    HW280584   9.473  10.447   7.336  0.4734 -0.0683 -0.5790
26193SOL     OW80585   8.421   7.097   7.125  1.0280  0.4056  0.7632
26193SOL    HW180586   8.462   7.184   7.126  2.9608 -0.4328  0.1809
26193SOL    HW280587   8.331   7.113   7.099  1.5520  2.1724 -0.1287
26194SOL     OW80588   9.394  10.812   9.577 -0.8218  0.3494 -0.5816
26194SOL    HW180589   9.479  10.856   9.573  0.8691 -2.6904 -1.5270
26194SOL    HW280590   9.369  10.799   9.486 -2.0079  0.5986 -0.3136
26195SOL     OW80591   3.303   4.361   2.855 -0.5897  0.3009 -0.0848
26195SOL    HW180592   3.246   4.290   2.826 -0.3987  0.7942 -1.7231
26195SOL    HW280593   3.348   4.390   2.776  2.8744 -0.8291  1.2925
26196SOL     OW80594   0.439   7.239   9.410 -0.6166 -0.6433  0.0213
26196SOL    HW180595   0.440   7.244   9.315 -2.7982 -1.9459 -0.1329
26196SOL    HW280596   0.459   7.147   9.430  0.4540 -0.2493  0.8787
26197SOL     OW80597   0.813   5.146  10.459  0.2265 -0.1801 -0.2024
26197SOL    HW180598   0.751   5.173  10.527 -0.1739 -0.0500 -0.6204
26197SOL    HW280599   0.787   5.056  10.437  0.3239 -0.2041 -0.2203
26198SOL     OW80600   3.534   2.157   3.697 -0.1495  0.6762 -0.2075
26198SOL    HW180601   3.464   2.128   3.755 -1.2080  3.1069 -0.1398
26198SOL    HW280602   3.493   2.222   3.640  1.3803 -0.0107 -2.2414
26199SOL     OW80603   3.066   4.502   9.533 -0.0270 -0.0715 -0.1492
26199SOL    HW180604   3.003   4.568   9.561  1.5447  1.4008  0.1202
26199SOL    HW280605   3.140   4.512   9.593  1.1806 -0.5442 -1.4984
26200SOL     OW80606   1.617  10.940   4.551  0.4836  0.6667  0.4159
26200SOL    HW180607   1.667  11.013   4.515  1.2576  0.7947  1.6815
26200SOL    HW280608   1.606  10.961   4.644 -1.4376  0.3513  0.3167
26201SOL     OW80609   9.985   5.487   8.437  0.1817 -0.4286 -0.1010
26201SOL    HW180610  10.058   5.452   8.487 -0.0364 -0.0535  0.4893
26201SOL    HW280611   9.910   5.433   8.463 -0.8555  2.2340  3.1623
26202SOL     OW80612   1.558   5.240   3.615  0.0717 -0.5618 -0.7647
26202SOL    HW180613   1.641   5.284   3.635  0.0410 -0.6978 -0.3262
26202SOL    HW280614   1.509   5.303   3.563  0.3788 -0.4125 -0.8764
26203SOL     OW80615  10.175   4.258   1.590  0.2242  0.8437 -0.2228
26203SOL    HW180616  10.178   4.346   1.553  2.5406  1.5935  1.5820
26203SOL    HW280617  10.082   4.245   1.611 -0.2287  2.6938 -0.8619
26204SOL     OW80618   6.416   8.335   9.852  0.6229 -0.1466 -0.3974
26204SOL    HW180619   6.353   8.404   9.870  0.5310 -0.3242 -0.0208
26204SOL    HW280620   6.365   8.254   9.857  0.6282 -0.2107 -1.3335
26205SOL     OW80621   3.608   3.230  10.508 -0.0721  0.1165  0.8254
26205SOL    HW180622   3.567   3.200  10.589 -1.5043 -1.7230 -0.5088
26205SOL    HW280623   3.536   3.237  10.445  1.3977 -1.7936 -1.2068
26206SOL     OW80624   7.498   8.134   8.083 -0.2868 -0.2943  0.0283
26206SOL    HW180625   7.418   8.138   8.030  0.0269 -1.2752 -0.5520
26206SOL    HW280626   7.467   8.119   8.172 -0.8314  1.4903  0.1732
26207SOL     OW80627   1.291   0.248   1.447  0.1301  0.4791 -0.7824
26207SOL    HW180628   1.255   0.226   1.361  2.7536 -2.1466 -1.3800
26207SOL    HW280629   1.243   0.194   1.509  0.0470  0.3677 -0.9440
26208SOL     OW80630  10.092  10.856   5.681 -0.1375 -0.3827  0.5600
26208SOL    HW180631  10.116  10.831   5.770  1.1966  0.2714  0.4153
26208SOL    HW280632  10.021  10.920   5.692  0.9055  0.6935  1.2321
26209SOL     OW80633  10.522  10.052   7.272  0.1285 -0.8896 -0.0180
26209SOL    HW180634  10.605  10.077   7.311  0.0271 -0.4644 -0.0617
26209SOL    HW280635  10.544   9.982   7.210  0.9032  1.0133 -2.0455
26210SOL     OW80636   0.094   0.535   7.634  0.0659 -0.7354 -0.1783
26210SOL    HW180637   0.033   0.514   7.564 -1.6954  0.5005  0.8928
26210SOL    HW280638   0.174   0.562   7.589 -0.6001 -1.1144 -1.6610
26211SOL     OW80639   0.495   1.246  10.823 -0.0313  0.2641 -0.7968
26211SOL    HW180640   0.488   1.294  10.740 -1.8030 -1.1407 -1.5299
26211SOL    HW280641   0.546   1.168  10.800  1.1949  0.8315 -0.0656
26212SOL     OW80642  10.764   1.987   3.300  0.2090 -0.3458  0.1179
26212SOL    HW180643  10.696   2.047   3.270 -0.3347 -0.7362  0.5483
26212SOL    HW280644  10.728   1.947   3.379  1.1777 -0.1271  0.6932
26213SOL     OW80645   5.472   7.952   5.213  0.0757  0.2333  0.2758
26213SOL    HW180646   5.535   7.962   5.142 -0.4789 -1.5400 -0.5160
26213SOL    HW280647   5.397   8.006   5.186 -0.2591 -0.6758 -0.6764
26214SOL     OW80648   4.175   5.639   9.083 -0.8976  0.2736 -0.2084
26214SOL    HW180649   4.250   5.693   9.110 -0.8635  0.3471 -0.4489
26214SOL    HW280650   4.102   5.672   9.135 -0.3028 -1.2987  1.7287
26215SOL     OW80651   8.248   6.758   8.486 -0.3420  0.0003 -0.1253
26215SOL    HW180652   8.337   6.772   8.452 -0.6694 -0.8886 -1.4308
26215SOL    HW280653   8.245   6.810   8.566  1.5733 -0.4973  0.3217
26216SOL     OW80654  10.956   3.435   6.197  0.1983  0.7520 -0.2617
26216SOL    HW180655  10.870   3.473   6.178  0.0922  2.1187  2.4350
26216SOL    HW280656  10.937   3.347   6.230 -0.2455  1.1419  0.5711
26217SOL     OW80657   3.547  10.298  10.485 -0.2948 -0.2071  0.4242
26217SOL    HW180658   3.610  10.309  10.413 -0.2595  1.1006  0.6239
26217SOL    HW280659   3.506  10.213  10.469 -0.4427  0.1524 -1.2659
26218SOL     OW80660   3.095   3.456   3.203  0.1778 -0.4573  0.7838
26218SOL    HW180661   3.042   3.378   3.219 -0.4854 -0.1400  0.2217
26218SOL    HW280662   3.033   3.529   3.211  0.3459 -0.1246 -0.6395
26219SOL     OW80663   0.533   5.643   1.555 -0.2435  0.9528 -0.5979
26219SOL    HW180664   0.531   5.622   1.462  1.4212 -2.2769 -0.0650
26219SOL    HW280665   0.626   5.645   1.577 -0.5785  2.2336  0.9356
26220SOL     OW80666   9.811   5.424   6.349 -0.0213 -0.2095  0.5720
26220SOL    HW180667   9.800   5.390   6.261 -1.3176  0.8925  0.2787
26220SOL    HW280668   9.893   5.473   6.346  0.7353 -1.4361  0.4269
26221SOL     OW80669   6.718   0.730   5.522  0.0614 -0.3366 -0.6303
26221SOL    HW180670   6.683   0.716   5.610  0.6048  0.4104 -0.2785
26221SOL    HW280671   6.803   0.686   5.522  0.0541 -0.3513 -0.7805
26222SOL     OW80672  10.639   9.889   5.907  0.4352  0.2573  0.2771
26222SOL    HW180673  10.730   9.862   5.894  1.2417  3.1826 -0.9092
26222SOL    HW280674  10.606   9.908   5.819 -0.7249  1.0092  0.8469
26223SOL     OW80675   1.672  10.153   2.351  0.0993 -0.2549  0.1939
26223SOL    HW180676   1.594  10.174   2.300  0.2715  3.0472  1.0393
26223SOL    HW280677   1.738  10.129   2.286 -0.9666 -0.8962 -0.6941
26224SOL     OW80678   9.094   2.893   6.848 -0.8265 -0.0882 -0.4719
26224SOL    HW180679   9.153   2.968   6.848  0.0982 -0.7160  1.9738
26224SOL    HW280680   9.010   2.928   6.820 -0.1245  1.5894 -0.5661
26225SOL     OW80681   2.740   4.181   7.717 -0.3350 -0.2372  0.0621
26225SOL    HW180682   2.749   4.198   7.623  1.2227 -1.8638 -0.1278
26225SOL    HW280683   2.695   4.097   7.722 -2.5908  0.9302  0.8709
26226SOL     OW80684   3.602   5.256   7.173 -0.1884  0.0705  0.5939
26226SOL    HW180685   3.636   5.261   7.262  2.3842 -0.0046 -0.2880
26226SOL    HW280686   3.523   5.310   7.174 -0.2004  0.1091  2.8733
26227SOL     OW80687   8.565  10.229   5.179  0.0390  0.1979  0.0654
26227SOL    HW180688   8.475  10.257   5.165 -0.0254  1.0819  1.9849
26227SOL    HW280689   8.609  10.306   5.216  1.3733 -0.4709 -0.0726
26228SOL     OW80690   1.516   6.650   5.545  0.1907  0.0515  0.1395
26228SOL    HW180691   1.552   6.564   5.524  0.1190 -0.0566  0.4491
26228SOL    HW280692   1.548   6.668   5.634 -1.0527 -0.3434  0.6905
26229SOL     OW80693  10.575   9.651   2.873  0.3378 -0.3590 -0.1162
26229SOL    HW180694  10.667   9.670   2.896  0.5546 -0.2482 -1.0386
26229SOL    HW280695  10.555   9.714   2.804 -0.3595 -0.5584 -0.0950
26230SOL     OW80696   7.252   0.529   1.849 -0.0337 -0.2735 -0.1114
26230SOL    HW180697   7.216   0.547   1.762  1.7727  0.0289 -0.8533
26230SOL    HW280698   7.305   0.606   1.868 -0.3930 -0.3555  1.2651
26231SOL     OW80699   2.572   6.659   6.206  0.1387 -0.0951 -0.2439
26231SOL    HW180700   2.557   6.642   6.113  1.7049 -1.0250 -0.3684
26231SOL    HW280701   2.485   6.659   6.245 -0.3995 -2.6444 -1.2557
26232SOL     OW80702   1.143   6.661   6.570 -0.0945  0.3482  0.2164
26232SOL    HW180703   1.186   6.740   6.537  0.0219  0.9113  1.6329
26232SOL    HW280704   1.204   6.627   6.636 -0.9058  0.0425  0.8281
26233SOL     OW80705   3.376   7.775   5.415 -0.2482 -0.1016  0.5693
26233SOL    HW180706   3.466   7.748   5.398  0.0596  1.3959 -0.3344
26233SOL    HW280707   3.335   7.698   5.453  0.9951 -1.3158 -0.4453
26234SOL     OW80708   5.156   4.701  11.011  0.1445  0.0780  0.3920
26234SOL    HW180709   5.083   4.757  10.984 -0.1993 -0.6969 -0.3445
26234SOL    HW280710   5.115   4.630  11.061  0.5835  0.5226  1.4040
26235SOL     OW80711   5.863   1.297   2.423 -0.0774  1.0703 -0.1584
26235SOL    HW180712   5.769   1.315   2.417 -0.2531  1.0919  1.9300
26235SOL    HW280713   5.905   1.377   2.390 -0.8433  2.3006  1.6864
26236SOL     OW80714   9.103   7.506   3.301  0.3057 -0.7934  0.3691
26236SOL    HW180715   9.145   7.529   3.384 -1.9684 -0.9797  1.6379
26236SOL    HW280716   9.108   7.410   3.297  2.4734 -0.6990 -0.9213
26237SOL     OW80717  10.945   8.594   5.264  0.1031  0.5844  0.4436
26237SOL    HW180718  11.034   8.622   5.243  0.7354  0.5410  2.8212
26237SOL    HW280719  10.930   8.519   5.206  1.0429  1.4685 -1.0010
26238SOL     OW80720   6.885   2.709   9.804 -0.1472 -0.5902  0.4922
26238SOL    HW180721   6.933   2.628   9.818 -0.3519 -0.5424  1.6118
26238SOL    HW280722   6.944   2.764   9.753  0.4036 -1.0592  0.6131
26239SOL     OW80723   6.532   3.825   7.775  0.2206 -0.1818 -0.2726
26239SOL    HW180724   6.529   3.885   7.850 -0.6415 -2.7337  1.9247
26239SOL    HW280725   6.498   3.876   7.702 -1.1880  1.7811  1.6122
26240SOL     OW80726   4.314   8.612   1.972 -0.0432 -0.3478  0.1808
26240SOL    HW180727   4.351   8.665   2.043 -0.8070  0.2845  0.1277
26240SOL    HW280728   4.251   8.555   2.015 -0.3682 -0.0968  0.0450
26241SOL     OW80729   6.602  10.657   6.893  0.2442 -0.3317  0.2058
26241SOL    HW180730   6.690  10.632   6.865 -0.7152 -2.6095 -1.0061
26241SOL    HW280731   6.567  10.708   6.820  0.2803 -0.0934  0.3549
26242SOL     OW80732   6.669   2.378  10.394  0.5589  0.5451  0.1726
26242SOL    HW180733   6.642   2.425  10.473 -0.6459  0.3746 -0.1226
26242SOL    HW280734   6.756   2.413  10.374 -0.1861  2.4857  0.1065
26243SOL     OW80735   2.918   8.814   8.896  0.6271  0.1432  0.0688
26243SOL    HW180736   2.996   8.845   8.849  0.4966  0.9866  0.3961
26243SOL    HW280737   2.918   8.720   8.881  1.8632  0.0882  0.2880
26244SOL     OW80738   2.585   0.308   5.379  0.0596 -0.0390 -0.0333
26244SOL    HW180739   2.593   0.224   5.425  0.0418 -1.6209 -2.7181
26244SOL    HW280740   2.667   0.316   5.330  0.0501  1.5399  0.1507
26245SOL     OW80741   6.971   9.707   8.309 -0.0313 -0.2583  0.0801
26245SOL    HW180742   7.059   9.671   8.303 -0.0335 -0.4023  0.8300
26245SOL    HW280743   6.947   9.697   8.401 -0.3755  0.8517  0.1260
26246SOL     OW80744   9.919   4.566  10.829 -0.5390 -0.4957  0.0543
26246SOL    HW180745   9.877   4.597  10.749 -1.1698  1.1235  0.9610
26246SOL    HW280746   9.850   4.523  10.878 -0.0938 -1.7221 -0.3469
26247SOL     OW80747   9.819   1.076   7.925  0.2614  0.2540  0.4677
26247SOL    HW180748   9.858   0.996   7.960  2.0330 -0.4343 -2.6141
26247SOL    HW280749   9.740   1.047   7.880  1.1990  0.0052 -1.1397
26248SOL     OW80750  10.660   0.517   1.652  0.1101 -0.6672  0.6933
26248SOL    HW180751  10.627   0.431   1.675 -0.1698 -0.3877  1.3574
26248SOL    HW280752  10.654   0.520   1.556 -1.2870 -0.8329  0.7498
26249SOL     OW80753   8.715   2.498   9.736  0.0387 -0.7439 -0.8498
26249SOL    HW180754   8.773   2.542   9.674  0.6661 -1.2934 -0.6701
26249SOL    HW280755   8.768   2.490   9.815 -0.4959 -0.7281 -0.4851
26250SOL     OW80756   6.416   3.634   7.597  0.8245 -0.2953  0.3097
26250SOL    HW180757   6.453   3.586   7.671 -1.2496  0.2738  1.8143
26250SOL    HW280758   6.410   3.725   7.628  0.4430  0.0665 -0.7802
26251SOL     OW80759   4.589   4.752   5.643 -0.8523 -0.1793 -0.0585
26251SOL    HW180760   4.582   4.657   5.630  2.9389 -0.6383  0.0752
26251SOL    HW280761   4.597   4.788   5.555  0.4497 -0.3786 -0.0465
26252SOL     OW80762  10.439   7.585   8.802 -0.0536 -0.4582 -0.1520
26252SOL    HW180763  10.402   7.661   8.756  0.1866 -0.0830  0.2714
26252SOL    HW280764  10.511   7.556   8.745  1.4635  1.1451  0.8552
26253SOL     OW80765   5.723   6.634   1.112  0.6600 -0.3707 -0.2837
26253SOL    HW180766   5.692   6.677   1.191 -1.2994 -1.4046 -0.4359
26253SOL    HW280767   5.785   6.696   1.074  2.2058 -0.1246  2.3809
26254SOL     OW80768   0.738   5.846   9.271 -0.1433 -0.3948  0.1056
26254SOL    HW180769   0.649   5.879   9.268  1.2363  3.9207 -2.5938
26254SOL    HW280770   0.790   5.920   9.302  2.7355 -2.0104 -0.5069
26255SOL     OW80771   5.380   4.680  10.038  0.1148  0.1230 -0.3598
26255SOL    HW180772   5.284   4.675  10.040  0.1509 -1.9524 -0.8145
26255SOL    HW280773   5.407   4.654  10.126  0.2708  1.3682 -0.0262
26256SOL     OW80774   3.930   2.245   6.751 -0.2350 -0.0476  0.0145
26256SOL    HW180775   3.953   2.333   6.781 -0.5076 -0.6190  2.0317
26256SOL    HW280776   3.999   2.189   6.786 -1.2783 -0.9272  0.7391
26257SOL     OW80777  10.100   6.356   1.953  0.2712  0.5615 -0.8335
26257SOL    HW180778  10.136   6.445   1.942  2.1594 -0.2003 -1.1900
26257SOL    HW280779  10.173   6.305   1.989 -1.3776 -0.4151  1.3405
26258SOL     OW80780   6.292   8.213   8.450  0.1001 -0.8303  0.2709
26258SOL    HW180781   6.207   8.170   8.458  0.3932 -1.3493  0.7438
26258SOL    HW280782   6.288   8.262   8.368 -1.3474  0.7222  1.2007
26259SOL     OW80783   9.726   1.321   2.057 -0.1380  0.0133 -0.2197
26259SOL    HW180784   9.800   1.371   2.024 -0.5242  0.1199 -0.9390
26259SOL    HW280785   9.665   1.316   1.984 -1.5475  1.2579  0.8047
26260SOL     OW80786   4.805   1.907   9.924  0.2534 -0.5468  0.4963
26260SOL    HW180787   4.709   1.900   9.931  0.3583 -1.7621  0.9634
26260SOL    HW280788   4.822   2.001   9.919 -1.0524 -0.3272 -0.8408
26261SOL     OW80789   9.559   7.672   5.646 -0.1789  0.0707 -0.4126
26261SOL    HW180790   9.536   7.672   5.553 -1.4870 -1.6796 -0.1239
26261SOL    HW280791   9.556   7.580   5.672  0.1732  0.5285  1.3759
26262SOL     OW80792   6.681   2.799   8.655 -0.0988  0.1924 -0.4530
26262SOL    HW180793   6.661   2.842   8.738 -1.2286  0.3970 -0.8127
26262SOL    HW280794   6.715   2.869   8.599  0.7529  0.0352 -0.1414
26263SOL     OW80795   2.598   0.896   1.517  0.1951 -0.0235  0.1874
26263SOL    HW180796   2.505   0.913   1.501  0.5852  1.2162 -0.9866
26263SOL    HW280797   2.619   0.948   1.594 -0.3313 -1.2487  1.1876
26264SOL     OW80798   8.608   1.321   5.221 -0.1186 -0.4590 -0.0041
26264SOL    HW180799   8.567   1.403   5.249 -0.3176 -0.7778  0.6592
26264SOL    HW280800   8.535   1.267   5.189  0.2049  0.2230 -2.0060
26265SOL     OW80801   7.083   7.784   5.220 -0.0583  0.4363  0.5997
26265SOL    HW180802   7.145   7.718   5.192 -0.3512 -0.9368  2.8994
26265SOL    HW280803   7.008   7.773   5.162  0.5187 -0.1687 -0.0541
26266SOL     OW80804   4.458   1.157   7.370  0.6616  0.0827  0.3972
26266SOL    HW180805   4.536   1.212   7.365  0.5057  0.2108 -1.3430
26266SOL    HW280806   4.431   1.146   7.278  0.3100 -2.3516  0.7408
26267SOL     OW80807   7.247   6.460   6.108  0.1717 -0.0699  0.0199
26267SOL    HW180808   7.174   6.417   6.063  1.6808 -1.6926 -0.9880
26267SOL    HW280809   7.208   6.540   6.144 -2.2767 -1.2398  0.1980
26268SOL     OW80810   2.456   7.419   9.800 -0.4804 -0.7502  0.2622
26268SOL    HW180811   2.473   7.508   9.769  0.8954 -0.9582  0.3552
26268SOL    HW280812   2.474   7.363   9.724 -1.0902 -0.9808  0.2800
26269SOL     OW80813   5.822   9.438  10.267  0.0111 -0.3544 -0.2302
26269SOL    HW180814   5.880   9.470  10.198 -1.2168  2.5206 -0.0472
26269SOL    HW280815   5.882   9.411  10.337  1.2410  1.6406 -0.4159
26270SOL     OW80816   6.133   4.246   4.678  0.6815 -0.0461  0.6273
26270SOL    HW180817   6.200   4.267   4.613 -0.4312  0.4899 -0.3889
26270SOL    HW280818   6.165   4.286   4.759  1.9546 -0.4832  0.3720
26271SOL     OW80819   9.393   4.980   9.780  0.3205 -0.3232  0.7054
26271SOL    HW180820   9.428   4.918   9.716  1.8456 -1.2477  2.3292
26271SOL    HW280821   9.470   5.028   9.811 -0.5092  0.7394  1.2075
26272SOL     OW80822   8.388   6.822   0.352  0.3282  0.2438  0.2067
26272SOL    HW180823   8.310   6.864   0.316 -0.8850 -0.9456  1.2900
26272SOL    HW280824   8.383   6.839   0.446  0.5431 -1.1019  0.4846
26273SOL     OW80825   7.550   1.871   8.343  0.1804  0.1057  0.4862
26273SOL    HW180826   7.486   1.924   8.295  0.0441 -1.2944 -0.9485
26273SOL    HW280827   7.502   1.836   8.417  0.1842  1.6858  1.2709
26274SOL     OW80828   0.110   0.097   3.731  0.0217 -0.0107 -0.2280
26274SOL    HW180829   0.053   0.157   3.684  1.2102 -0.3521 -2.1882
26274SOL    HW280830   0.060   0.015   3.735 -1.1008  0.6761  1.4014
26275SOL     OW80831   9.102   7.371   6.419  0.7841  0.0365  0.0177
26275SOL    HW180832   9.054   7.386   6.500  0.0267  0.5391 -0.5048
26275SOL    HW280833   9.153   7.451   6.405 -0.8829  0.9406 -1.1824
26276SOL     OW80834   9.325   5.964   0.535  0.1855  0.0256 -0.2136
26276SOL    HW180835   9.243   5.916   0.550  1.2114 -1.3259  1.4848
26276SOL    HW280836   9.379   5.904   0.483  1.6067 -0.9503  2.2110
26277SOL     OW80837   0.291   4.672   3.292  0.1565 -0.0472 -0.5595
26277SOL    HW180838   0.201   4.659   3.263  0.6589  1.7456 -3.2946
26277SOL    HW280839   0.331   4.585   3.286 -0.7215 -0.3927 -2.0537
26278SOL     OW80840   3.480   0.080   9.352 -0.4732 -0.7166  0.7607
26278SOL    HW180841   3.434   0.164   9.362 -0.2583 -0.3570 -0.9184
26278SOL    HW280842   3.491   0.048   9.442  1.2172  2.0091  1.6544
26279SOL     OW80843   3.783   2.093   4.129  0.3566  0.1261  0.0105
26279SOL    HW180844   3.786   2.055   4.041 -2.0535  0.0016 -0.0671
26279SOL    HW280845   3.713   2.157   4.125  1.0406  1.0251  1.5351
26280SOL     OW80846   6.989   0.896   6.937 -0.1632  0.1538  0.1646
26280SOL    HW180847   7.049   0.946   6.992  1.3024 -0.0911 -1.1303
26280SOL    HW280848   7.028   0.900   6.850 -2.8111  1.2298 -1.0855
26281SOL     OW80849   6.113   6.997   4.124 -0.0213  0.1673 -0.2976
26281SOL    HW180850   6.202   6.977   4.093 -0.2532 -0.9418 -0.2800
26281SOL    HW280851   6.102   7.090   4.104  1.3902  0.4958  0.3006
26282SOL     OW80852   3.327   6.113   4.779  0.8166  0.6726 -0.4707
26282SOL    HW180853   3.377   6.034   4.762 -1.4235 -0.5531 -1.7725
26282SOL    HW280854   3.346   6.135   4.871  1.2829 -1.5148 -0.0045
26283SOL     OW80855   9.468   8.439   9.055 -0.1295  0.5678 -0.0556
26283SOL    HW180856   9.393   8.413   9.002  0.1979  1.6321 -1.1006
26283SOL    HW280857   9.446   8.527   9.087  0.7379  0.9925 -0.5614
26284SOL     OW80858   8.946   9.709   0.252 -0.0420  0.3715  0.5379
26284SOL    HW180859   9.031   9.744   0.225  1.0684 -1.7307  1.0234
26284SOL    HW280860   8.889   9.723   0.176  0.8934  1.3387 -0.0076
26285SOL     OW80861   8.987   6.750   1.485  0.3849  0.1488 -0.2789
26285SOL    HW180862   8.927   6.804   1.433 -0.4743 -0.9712 -0.4824
26285SOL    HW280863   9.074   6.775   1.455  0.0999  2.2971  0.4706
26286SOL     OW80864   9.981   7.860   5.637 -0.2688 -0.4973 -0.1656
26286SOL    HW180865   9.933   7.888   5.559 -0.6413 -0.5671  0.0367
26286SOL    HW280866   9.921   7.802   5.683 -0.9038  1.2690  1.3117
26287SOL     OW80867   9.103   5.442   9.391  0.1966 -0.4307 -0.3351
26287SOL    HW180868   9.132   5.398   9.471 -0.7796 -0.1405  0.1942
26287SOL    HW280869   9.059   5.521   9.422  0.0993 -0.1445 -1.1827
26288SOL     OW80870   2.268   7.230   8.247  0.0106 -0.2386  0.2081
26288SOL    HW180871   2.343   7.251   8.303 -1.0510  1.8529  0.9566
26288SOL    HW280872   2.226   7.156   8.290  1.3931 -1.1900 -0.0106
26289SOL     OW80873   7.016   4.830   9.733 -0.2318  0.6391  0.2369
26289SOL    HW180874   6.991   4.796   9.647  1.2686  1.1020 -0.4077
26289SOL    HW280875   7.095   4.782   9.756 -1.9517 -1.3008  2.5532
26290SOL     OW80876   3.701   3.902   9.646 -0.0194 -0.2749  0.2208
26290SOL    HW180877   3.627   3.842   9.634  0.4838 -0.8440 -0.0735
26290SOL    HW280878   3.714   3.904   9.741  0.3020 -1.0607  0.2002
26291SOL     OW80879  10.809   7.012   3.004 -0.6250 -0.4163  0.2174
26291SOL    HW180880  10.876   6.966   3.055 -2.0242  1.0728  3.7189
26291SOL    HW280881  10.730   6.960   3.018 -1.2318  0.5303  0.3602
26292SOL     OW80882   2.810   8.103  10.529  0.5890  0.7300 -0.0416
26292SOL    HW180883   2.718   8.100  10.554 -0.0284  1.0043 -2.0655
26292SOL    HW280884   2.835   8.012  10.514 -0.1863  0.7957 -2.0732
26293SOL     OW80885   8.493   0.297   0.969  0.2622  0.4350 -0.1915
26293SOL    HW180886   8.535   0.372   1.011  1.7564 -0.7177  0.4501
26293SOL    HW280887   8.534   0.293   0.882 -0.0455  0.5393 -0.3427
26294SOL     OW80888   1.226   6.489   7.419 -0.3784 -0.0871 -0.3850
26294SOL    HW180889   1.135   6.493   7.391 -0.4191  1.2209 -0.1179
26294SOL    HW280890   1.276   6.483   7.338 -0.6739 -0.2387 -0.5576
26295SOL     OW80891   3.243   2.343   0.396 -0.4133 -0.1451 -0.3376
26295SOL    HW180892   3.203   2.429   0.396  0.2671  0.1850 -1.2124
26295SOL    HW280893   3.169   2.282   0.404 -0.8264  0.5154  1.3244
26296SOL     OW80894   3.405   9.162   6.850 -0.0107 -0.2785 -0.4206
26296SOL    HW180895   3.441   9.112   6.923 -1.0539 -1.2646 -0.5611
26296SOL    HW280896   3.480   9.178   6.792  0.2993 -1.9741 -0.5341
26297SOL     OW80897   1.514   5.792   4.960  0.1423 -0.9072 -0.4515
26297SOL    HW180898   1.544   5.876   4.993  0.6092 -1.4012  0.3808
26297SOL    HW280899   1.481   5.812   4.872 -1.6190  0.5193  0.4615
26298SOL     OW80900   0.575   2.789   8.365  0.4386 -0.4016  0.5797
26298SOL    HW180901   0.520   2.861   8.395 -2.2303 -1.5578 -1.1642
26298SOL    HW280902   0.615   2.821   8.284  1.0792 -0.1311  0.9943
26299SOL     OW80903   8.819   9.584   3.621 -0.1348  0.8304  0.3142
26299SOL    HW180904   8.849   9.653   3.680 -0.9133  2.1808 -0.8450
26299SOL    HW280905   8.899   9.554   3.577  0.0806  1.6101  0.1692
26300SOL     OW80906   4.423   6.449   0.051 -0.1752  0.2585  0.2545
26300SOL    HW180907   4.355   6.422   0.113 -1.3467  0.8011 -0.7445
26300SOL    HW280908   4.389   6.530   0.013  0.6407  0.0795 -0.8929
26301SOL     OW80909   0.624   3.640   9.571  0.0461  0.1870  0.4472
26301SOL    HW180910   0.673   3.719   9.548  0.5932  0.1231  1.3591
26301SOL    HW280911   0.689   3.571   9.573 -0.0168  0.1399  1.8993
26302SOL     OW80912   9.454   5.160  10.950 -0.5251 -0.6202  0.8354
26302SOL    HW180913   9.400   5.102  10.896  2.2403 -2.4908 -0.1488
26302SOL    HW280914   9.487   5.105  11.020  1.5958 -0.1019  0.3089
26303SOL     OW80915   0.549   0.868   4.779  0.0148  0.2835  0.0456
26303SOL    HW180916   0.564   0.836   4.691 -0.6912  0.6501 -0.2204
26303SOL    HW280917   0.636   0.879   4.817  0.2924 -1.7213  0.0841
26304SOL     OW80918   2.444   0.682   1.945 -0.0251  0.3434  0.0040
26304SOL    HW180919   2.366   0.719   1.905 -0.6251  0.0643  0.8789
26304SOL    HW280920   2.513   0.695   1.880 -0.3015  2.5254  0.0720
26305SOL     OW80921   7.378   6.070   1.454  0.1373 -0.5358 -0.1166
26305SOL    HW180922   7.448   6.118   1.497  1.3418 -3.4485  1.4346
26305SOL    HW280923   7.305   6.132   1.450  2.6507  2.6175 -1.7388
26306SOL     OW80924  10.408  10.242   3.532 -0.2593  0.0969  0.2002
26306SOL    HW180925  10.485  10.207   3.486 -0.3995  0.3799 -0.2554
26306SOL    HW280926  10.443  10.315   3.584 -0.4215  1.1076 -1.0559
26307SOL     OW80927   8.157   8.258   2.689  0.7039 -0.8031  0.4044
26307SOL    HW180928   8.160   8.310   2.608  1.8847 -0.8090  0.4290
26307SOL    HW280929   8.097   8.306   2.745  1.5651  0.4353  0.3288
26308SOL     OW80930   9.119   4.164   2.534  1.0277  0.6447  0.3616
26308SOL    HW180931   9.043   4.157   2.592  1.1629 -2.5651  0.3475
26308SOL    HW280932   9.182   4.100   2.569  0.6919 -2.3401 -3.7358
26309SOL     OW80933   4.838   0.624   9.738 -0.1737 -0.1964 -0.1575
26309SOL    HW180934   4.824   0.630   9.643  0.6845  0.7486 -0.2384
26309SOL    HW280935   4.819   0.533   9.759  0.4340 -0.6308 -1.3760
26310SOL     OW80936   3.080   5.596  10.122 -0.3133 -0.1115  0.3986
26310SOL    HW180937   3.174   5.578  10.112 -0.6576 -2.2249  0.5887
26310SOL    HW280938   3.077   5.685  10.157  1.5958  0.2292 -0.1686
26311SOL     OW80939   9.003   8.532   3.048 -0.5726 -0.9270 -0.3445
26311SOL    HW180940   8.957   8.607   3.011 -0.4299 -1.0173 -0.7087
26311SOL    HW280941   9.064   8.505   2.979  3.0465  1.7279  1.5223
26312SOL     OW80942   5.703   4.211   6.956 -0.4383 -0.0886 -0.3678
26312SOL    HW180943   5.790   4.253   6.957 -0.4438 -0.0743 -0.4978
26312SOL    HW280944   5.673   4.218   7.047 -1.0979  1.5730 -0.6662
26313SOL     OW80945   6.499   3.610   6.203 -0.0775 -0.2169 -0.0285
26313SOL    HW180946   6.477   3.635   6.292  0.1305 -1.1025  0.2781
26313SOL    HW280947   6.524   3.693   6.160 -1.0495  0.3461  0.4636
26314SOL     OW80948   3.711   2.301   2.649  0.2256  0.4009 -0.4195
26314SOL    HW180949   3.641   2.334   2.705  0.1030  0.9117 -0.8635
26314SOL    HW280950   3.730   2.373   2.590  2.5516  1.0458  0.9992
26315SOL     OW80951   2.004   8.333   9.815 -0.0800  0.8758 -0.3110
26315SOL    HW180952   1.961   8.374   9.890  1.1984  2.2712 -0.2847
26315SOL    HW280953   1.967   8.377   9.738  1.3340  2.2075 -0.2806
26316SOL     OW80954   2.510   9.545   2.731  0.0028 -0.2636  0.2595
26316SOL    HW180955   2.595   9.535   2.688  0.6171  0.0904  1.3697
26316SOL    HW280956   2.520   9.620   2.789 -0.8892 -0.5558  0.8186
26317SOL     OW80957   8.387  10.883  10.670 -0.2477  0.1099  0.5216
26317SOL    HW180958   8.420  10.793  10.663  0.0107  0.2647 -0.4101
26317SOL    HW280959   8.366  10.894  10.763 -0.9767 -1.1524  0.5337
26318SOL     OW80960   7.159   7.169   0.852  0.2684  0.4366 -0.2577
26318SOL    HW180961   7.217   7.204   0.784 -0.2059  0.2486 -0.7602
26318SOL    HW280962   7.164   7.074   0.841  0.6470  0.3758  0.3578
26319SOL     OW80963   1.358   5.321   0.823 -0.4637  0.6023 -0.3667
26319SOL    HW180964   1.303   5.380   0.772  0.4835 -0.3620 -2.6417
26319SOL    HW280965   1.302   5.291   0.894 -1.6190  2.5646 -0.4061
26320SOL     OW80966   9.738   4.380   2.277  0.2629  0.4309  0.2724
26320SOL    HW180967   9.745   4.295   2.319  1.3813  1.2313  1.8325
26320SOL    HW280968   9.651   4.380   2.236 -0.4225 -0.8308  1.6439
26321SOL     OW80969   4.981   2.755   0.544 -0.4951  0.3564  0.1119
26321SOL    HW180970   4.915   2.822   0.526  0.9254  1.6630 -0.4456
26321SOL    HW280971   5.004   2.767   0.636  0.5213  1.3928 -0.2518
26322SOL     OW80972   0.997   4.598   1.684 -0.2942 -0.6790  0.5688
26322SOL    HW180973   1.007   4.674   1.742 -1.2820 -0.2105  0.1477
26322SOL    HW280974   1.011   4.522   1.741  1.2028 -0.1921  0.8930
26323SOL     OW80975  10.449   5.797   8.830  0.2565  0.0785 -0.4971
26323SOL    HW180976  10.368   5.828   8.870  2.0758  3.9238  0.5971
26323SOL    HW280977  10.507   5.780   8.904  1.2823 -0.0606 -1.3205
26324SOL     OW80978   4.160   6.007   9.328  0.2022  0.3104  0.7876
26324SOL    HW180979   4.073   6.044   9.343 -0.5733 -1.0696 -0.1604
26324SOL    HW280980   4.154   5.962   9.244  1.3644 -1.1619  1.4361
26325SOL     OW80981   3.047   6.261   6.454  0.0115  0.6385  0.6453
26325SOL    HW180982   2.993   6.319   6.399  1.3719  0.2377 -1.2271
26325SOL    HW280983   2.991   6.186   6.470 -0.6822  1.0865  0.4154
26326SOL     OW80984  10.683   2.308   4.645  0.5660 -0.4307 -0.4426
26326SOL    HW180985  10.717   2.228   4.605  1.4286 -0.4440  0.2767
26326SOL    HW280986  10.588   2.303   4.634  0.6500 -1.3540 -0.7643
26327SOL     OW80987  10.978   9.381   4.365 -0.2950 -0.1062  0.3565
26327SOL    HW180988  10.991   9.289   4.390 -1.9817 -0.4033  0.2557
26327SOL    HW280989  11.067   9.415   4.352  0.5502 -0.9288  3.1815
26328SOL     OW80990   3.518   3.475   7.503 -0.1023  0.2108  0.7079
26328SOL    HW180991   3.586   3.409   7.517  1.3640  1.3098 -0.8818
26328SOL    HW280992   3.522   3.531   7.580  1.2891  0.6698  0.3151
26329SOL     OW80993   6.322   9.328   8.543  0.1901 -0.3673 -0.5120
26329SOL    HW180994   6.251   9.322   8.607  2.0796  0.2190  1.8210
26329SOL    HW280995   6.345   9.421   8.542  2.9135 -0.9004  1.2923
26330SOL     OW80996   7.847   6.930   3.192  0.1328  0.5977  0.6178
26330SOL    HW180997   7.888   7.016   3.198 -1.2266  1.2543  0.8666
26330SOL    HW280998   7.904   6.880   3.133  1.3956  1.3800  1.1346
26331SOL     OW80999   6.067   6.258  10.848  0.2648 -0.1298  0.9148
26331SOL    HW181000   6.104   6.220  10.769  0.6716  1.6357  0.2126
26331SOL    HW281001   6.108   6.210  10.920 -0.2876 -1.9168  0.0962
26332SOL     OW81002   4.805   4.360   3.735  0.0174  0.0099  0.5310
26332SOL    HW181003   4.847   4.412   3.666  0.8224 -1.5358 -0.1884
26332SOL    HW281004   4.867   4.362   3.808 -0.3352  0.7289  0.8219
26333SOL     OW81005   7.393   1.929   4.376 -0.5751  0.2186  0.2725
26333SOL    HW181006   7.383   1.919   4.471  1.7675 -0.0337  0.5550
26333SOL    HW281007   7.322   1.988   4.351 -3.0710 -1.9655  1.6621
26334SOL     OW81008   1.050   3.179  10.389 -0.7364 -0.0057  0.4528
26334SOL    HW181009   0.958   3.154  10.396 -0.8021 -0.1156 -0.6573
26334SOL    HW281010   1.050   3.274  10.404 -0.9503 -0.0896  1.0137
26335SOL     OW81011   7.484   6.406   0.084  0.1135 -0.3899  0.1932
26335SOL    HW181012   7.541   6.349   0.136 -0.4873  0.2360  1.5856
26335SOL    HW281013   7.423   6.443   0.147 -0.9635  0.0383 -1.0495
26336SOL     OW81014   1.547   2.680   5.932  0.5487 -0.2274 -0.5225
26336SOL    HW181015   1.542   2.620   5.857  0.6331  0.2391 -0.9025
26336SOL    HW281016   1.634   2.665   5.969  0.9323  0.3155 -1.1759
26337SOL     OW81017   1.487   5.964   2.228 -0.0925 -0.2667  0.4880
26337SOL    HW181018   1.462   6.022   2.156 -1.9118 -3.6021 -1.8455
26337SOL    HW281019   1.410   5.960   2.284 -0.5083 -1.4232 -0.1376
26338SOL     OW81020   6.937   7.700   6.380 -0.1106 -0.2424  0.3498
26338SOL    HW181021   7.013   7.642   6.382 -1.0916 -1.5408  1.2528
26338SOL    HW281022   6.913   7.713   6.471 -3.1370 -2.8715  0.1007
26339SOL     OW81023   1.256   8.047   1.008  0.1134 -0.0580  0.4927
26339SOL    HW181024   1.311   7.991   0.954  0.6803  0.8428  0.1148
26339SOL    HW281025   1.260   8.008   1.095  0.6204 -0.5163  0.2703
26340SOL     OW81026   1.867   9.318   5.264  0.1958 -0.6877  0.2766
26340SOL    HW181027   1.849   9.386   5.329  0.1685  0.1561 -0.5908
26340SOL    HW281028   1.904   9.246   5.314  1.5638  0.5063  1.0389
26341SOL     OW81029   5.181   1.238   0.883  0.2893 -0.5028 -0.4353
26341SOL    HW181030   5.177   1.167   0.947 -1.3380 -0.1159 -0.0732
26341SOL    HW281031   5.163   1.197   0.799  0.7147 -0.7285 -0.4195
26342SOL     OW81032   7.141   7.954   3.467 -0.0588  0.2840  0.2584
26342SOL    HW181033   7.153   8.046   3.441 -0.3019  0.2050 -0.1391
26342SOL    HW281034   7.223   7.911   3.444 -0.4646  0.0997 -0.8853
26343SOL     OW81035   8.935   4.914   0.474  0.6508 -0.3407 -0.1072
26343SOL    HW181036   8.926   4.878   0.562  1.0634 -2.1156 -0.7525
26343SOL    HW281037   8.845   4.937   0.448  0.4973 -0.0536  0.6620
26344SOL     OW81038   0.604   4.412   3.847 -0.8816 -0.7342  0.8164
26344SOL    HW181039   0.696   4.439   3.850 -1.0260 -0.2158  0.6816
26344SOL    HW281040   0.563   4.458   3.920 -1.3014  0.0861  0.0835
26345SOL     OW81041   7.019  10.776   7.533 -0.2092  0.3352 -0.0664
26345SOL    HW181042   7.038  10.869   7.519 -0.8617  1.0485  2.9401
26345SOL    HW281043   7.080  10.750   7.602  0.0158 -1.5352 -0.9181
26346SOL     OW81044   0.280   7.161   4.820 -0.2603  0.2630 -0.1045
26346SOL    HW181045   0.303   7.086   4.874  0.6672  1.4205  1.1760
26346SOL    HW281046   0.268   7.125   4.732 -0.6922 -1.4914  0.6401
26347SOL     OW81047   4.304   5.921   4.442  0.2580 -0.3112  0.2849
26347SOL    HW181048   4.325   5.910   4.349  2.2292  0.9852  0.5235
26347SOL    HW281049   4.382   5.889   4.488 -1.0831 -1.9084  1.5761
26348SOL     OW81050   0.522   7.277   2.728 -0.1383 -0.4408  0.7731
26348SOL    HW181051   0.616   7.286   2.717 -0.3492  2.2041  0.3731
26348SOL    HW281052   0.509   7.258   2.821  0.7868 -1.5973  0.6798
26349SOL     OW81053   4.292   2.089   7.915  0.3885 -0.6860 -0.5190
26349SOL    HW181054   4.292   2.184   7.921 -1.5833 -0.6610  0.0248
26349SOL    HW281055   4.365   2.068   7.858  0.8623  1.1525 -0.6406
26350SOL     OW81056   4.136   5.636   1.776 -0.1561 -0.4317  0.7440
26350SOL    HW181057   4.131   5.581   1.855 -0.5588  1.2087  1.9180
26350SOL    HW281058   4.053   5.683   1.775  0.3589  0.4851  0.0250
26351SOL     OW81059   4.649   4.637   3.921  0.3006  0.5554  0.3231
26351SOL    HW181060   4.599   4.585   3.984 -2.1272 -1.8171 -3.1785
26351SOL    HW281061   4.674   4.575   3.853  0.3574  3.3298 -2.4103
26352SOL     OW81062   4.639   5.241   3.274  1.0088 -0.9066  0.2017
26352SOL    HW181063   4.721   5.290   3.263  1.7025 -1.9312  0.6889
26352SOL    HW281064   4.666   5.157   3.310 -0.2180 -1.4635 -0.1396
26353SOL     OW81065  10.139   0.741   2.058  0.4883 -0.4990 -0.2555
26353SOL    HW181066  10.086   0.704   2.128  1.8100 -1.2480  0.3696
26353SOL    HW281067  10.210   0.679   2.046  1.3539  0.5940 -0.9341
26354SOL     OW81068   5.144   7.592   1.820 -0.2233  0.5522  0.0603
26354SOL    HW181069   5.228   7.546   1.815  0.6284  1.9641  0.7643
26354SOL    HW281070   5.097   7.565   1.741  0.7517 -0.4998 -0.1851
26355SOL     OW81071   0.371   6.836   3.441  1.0665 -0.3676 -0.3979
26355SOL    HW181072   0.410   6.922   3.454 -1.7630  0.8544  0.9578
26355SOL    HW281073   0.295   6.852   3.386  0.7829 -2.1165 -0.5733
26356SOL     OW81074   6.138   1.119   1.884  0.4615  0.0261  0.0665
26356SOL    HW181075   6.214   1.175   1.901  0.3671  0.2540 -0.2644
26356SOL    HW281076   6.096   1.111   1.970  0.7401  0.0716  0.2096
26357SOL     OW81077   4.647   1.877   5.453 -0.0011  0.1314 -0.5415
26357SOL    HW181078   4.645   1.841   5.365  1.5849  0.5309 -0.7541
26357SOL    HW281079   4.676   1.804   5.508 -1.6797 -0.3370 -0.1888
26358SOL     OW81080   3.471   4.144   4.088  0.5036 -0.6995  0.0623
26358SOL    HW181081   3.485   4.207   4.018 -0.0806 -1.5335 -0.8353
26358SOL    HW281082   3.502   4.060   4.052 -0.0939 -1.1984  0.6739
26359SOL     OW81083   2.802   4.475   8.356  0.1973 -0.0485 -0.0910
26359SOL    HW181084   2.754   4.422   8.292  0.4615 -0.5172  0.0960
26359SOL    HW281085   2.734   4.526   8.400 -0.4295 -2.1267  1.5401
26360SOL     OW81086   9.019   5.500   0.526 -0.7857 -0.0968 -0.3597
26360SOL    HW181087   8.956   5.570   0.538  0.5209  1.0718 -0.0529
26360SOL    HW281088   8.969   5.420   0.541 -2.6280  0.6503 -2.0558
26361SOL     OW81089   0.820   1.260   9.325 -0.0752  0.5197  0.2237
26361SOL    HW181090   0.862   1.336   9.284  0.9393  0.3054  0.8216
26361SOL    HW281091   0.795   1.291   9.412  0.2380  0.2138  0.4269
26362SOL     OW81092   5.844   7.177   6.664  0.0466  0.1121  0.0962
26362SOL    HW181093   5.901   7.221   6.727 -0.1634 -0.2592  0.5464
26362SOL    HW281094   5.769   7.147   6.716 -0.5649  0.5834 -0.4824
26363SOL     OW81095   3.297   4.203   9.864 -0.2150 -0.5533  0.3726
26363SOL    HW181096   3.354   4.280   9.862  2.1743 -2.1871  1.0233
26363SOL    HW281097   3.227   4.227   9.924  1.5989  0.4237  2.2308
26364SOL     OW81098   6.674  10.461   7.413  0.5277 -1.5005  0.3736
26364SOL    HW181099   6.635  10.477   7.499  0.0757 -0.0299 -0.0708
26364SOL    HW281100   6.647  10.537   7.361  0.5080 -2.5347 -1.1680
26365SOL     OW81101   7.531   5.415   9.764  0.1517 -0.3617 -0.1786
26365SOL    HW181102   7.492   5.487   9.714 -1.6097 -0.9234  0.3307
26365SOL    HW281103   7.458   5.358   9.787  1.5127 -2.4297 -0.6913
26366SOL     OW81104   4.235   0.005  10.402 -0.5346 -0.4820  0.0343
26366SOL    HW181105   4.298  -0.066  10.394 -1.9764 -1.8412  0.0730
26366SOL    HW281106   4.176  -0.024  10.472 -1.9180  0.1216 -0.8394
26367SOL     OW81107   1.720   5.370   6.866  0.1643 -0.0960 -0.3441
26367SOL    HW181108   1.706   5.384   6.773  1.2335  0.8116 -0.3899
26367SOL    HW281109   1.645   5.318   6.894  0.0251 -0.6993 -1.7742
26368SOL     OW81110   7.921   9.448   1.666 -0.0514 -0.3283  0.3427
26368SOL    HW181111   7.929   9.442   1.761  0.7451  0.5855  0.3541
26368SOL    HW281112   7.836   9.409   1.646 -0.0091 -0.9753  1.3752
26369SOL     OW81113   6.536   6.187   3.631  0.1889 -0.0703  0.2427
26369SOL    HW181114   6.444   6.198   3.605  0.2415  1.2787  0.5279
26369SOL    HW281115   6.562   6.274   3.662  1.4162 -0.5660  0.6525
26370SOL     OW81116   1.096   9.392   3.337 -0.4756 -0.3059 -0.2094
26370SOL    HW181117   1.017   9.424   3.379  0.3308 -0.6434  1.6585
26370SOL    HW281118   1.103   9.443   3.256 -0.9476  1.9265  1.0880
26371SOL     OW81119   8.937   2.660   3.347 -0.1471  0.0639  0.1280
26371SOL    HW181120   8.960   2.577   3.304  1.1893  1.7027 -2.6542
26371SOL    HW281121   9.008   2.674   3.410 -0.8307 -1.2623  1.2273
26372SOL     OW81122   8.364   5.883   8.060  0.3299 -0.1101 -0.1566
26372SOL    HW181123   8.326   5.970   8.059 -0.0851 -0.2616  0.6816
26372SOL    HW281124   8.395   5.868   7.971  0.8042  1.0594 -0.2020
26373SOL     OW81125   4.760   1.861   7.649  0.4139  0.4865  0.1711
26373SOL    HW181126   4.820   1.927   7.682  1.3749 -0.1381 -0.2577
26373SOL    HW281127   4.796   1.778   7.681  1.2529 -0.1182 -2.1466
26374SOL     OW81128   1.878   0.266   8.237  0.7616  0.7564 -0.1140
26374SOL    HW181129   1.954   0.304   8.283  0.8922 -0.2758  0.5596
26374SOL    HW281130   1.908   0.253   8.147  1.8654 -0.8521  0.4377
26375SOL     OW81131  10.023   5.075   4.924 -0.4920 -0.4656 -0.0511
26375SOL    HW181132   9.966   5.120   4.986 -1.4537  1.5727 -2.2615
26375SOL    HW281133   9.999   5.111   4.838  2.7518 -0.9839 -1.3281
26376SOL     OW81134   5.427   9.282   5.528  0.1766 -0.2569 -0.3457
26376SOL    HW181135   5.459   9.311   5.613 -0.1375  1.3399 -0.7311
26376SOL    HW281136   5.331   9.288   5.535  0.1457 -0.1202 -0.7974
26377SOL     OW81137   3.093   7.958   0.535  0.0315 -0.2705 -0.1453
26377SOL    HW181138   3.124   8.002   0.456 -0.6635 -0.0719 -0.3093
26377SOL    HW281139   3.063   8.029   0.592  1.3243 -0.3413  0.6610
26378SOL     OW81140   3.060  10.093   3.867 -0.0000  0.0354 -0.0926
26378SOL    HW181141   3.026  10.182   3.871  0.9778  0.4061  0.2454
26378SOL    HW281142   3.149  10.103   3.834 -0.6479 -1.0355 -2.3449
26379SOL     OW81143   0.497   6.846   1.891  0.1347  0.4393 -0.4191
26379SOL    HW181144   0.545   6.923   1.922  0.8959 -0.0910 -0.2462
26379SOL    HW281145   0.435   6.827   1.961  0.7033  0.2411  0.0386
26380SOL     OW81146   8.735   1.530   8.600 -0.1021  0.1507  0.0474
26380SOL    HW181147   8.721   1.443   8.637 -1.4650  0.1003 -0.5268
26380SOL    HW281148   8.699   1.590   8.665 -1.5533  0.1170 -0.6806
26381SOL     OW81149   4.643   2.445  10.556 -0.3465  0.1440 -0.1634
26381SOL    HW181150   4.605   2.364  10.522  0.6258 -0.3132 -0.2086
26381SOL    HW281151   4.738   2.431  10.550 -0.1652  1.1320  0.1983
26382SOL     OW81152   3.006   7.706   7.905 -0.9717  0.1773  0.1518
26382SOL    HW181153   3.021   7.656   7.824 -1.4162  0.4384 -0.1010
26382SOL    HW281154   2.928   7.759   7.885 -1.5438 -0.3257  1.0222
26383SOL     OW81155  10.078  10.009   7.076 -0.1156 -0.4465  0.4531
26383SOL    HW181156  10.064   9.920   7.108 -1.0404 -1.1057 -1.6093
26383SOL    HW281157  10.134   9.997   6.999 -1.4190  0.5650 -0.6937
26384SOL     OW81158   4.073   2.252   6.006 -0.3179  0.3934 -0.0996
26384SOL    HW181159   4.085   2.160   5.984 -0.1140  0.3982 -0.0136
26384SOL    HW281160   4.155   2.294   5.979 -0.8354  0.7445 -1.1832
26385SOL     OW81161   0.815   1.044   7.969  0.6195  0.0697  0.1505
26385SOL    HW181162   0.731   1.066   7.929  0.9475 -0.5333 -0.9151
26385SOL    HW281163   0.792   1.001   8.051 -0.0806  0.8169  0.3676
26386SOL     OW81164   7.824   9.207   8.738  0.2287 -0.4760  0.6201
26386SOL    HW181165   7.853   9.189   8.648 -2.8714  1.4177 -0.9137
26386SOL    HW281166   7.793   9.297   8.736 -3.2120 -1.4473  2.6162
26387SOL     OW81167   1.730   4.812   0.648  0.1676  0.3151  0.1354
26387SOL    HW181168   1.643   4.808   0.608 -0.5392 -1.4958  1.6895
26387SOL    HW281169   1.781   4.745   0.603  0.9069  1.5545 -0.9591
26388SOL     OW81170  10.752  10.923   1.647 -0.8361  0.1366 -0.5807
26388SOL    HW181171  10.698  10.988   1.601 -1.5631 -2.3580 -3.6001
26388SOL    HW281172  10.801  10.879   1.578  1.3596 -1.0527  1.5806
26389SOL     OW81173   6.814   3.422   6.782  0.3119 -0.0443 -0.6020
26389SOL    HW181174   6.849   3.429   6.693  1.6360  2.4734  0.0387
26389SOL    HW281175   6.748   3.353   6.776  0.3212  0.0784 -3.5408
26390SOL     OW81176   6.897   4.147   4.478 -0.5933  0.6839 -0.5885
26390SOL    HW181177   6.850   4.102   4.408 -1.2891  1.5646 -0.6957
26390SOL    HW281178   6.939   4.222   4.436 -0.1962  0.6682 -0.2394
26391SOL     OW81179   1.196   7.159   8.275 -0.5129  0.0001 -0.2690
26391SOL    HW181180   1.232   7.072   8.259  0.9792  0.6459 -0.6141
26391SOL    HW281181   1.260   7.219   8.237 -2.1299  1.2315 -1.1924
26392SOL     OW81182   9.424  10.019   3.423 -0.1833  0.4157  0.3513
26392SOL    HW181183   9.367   9.948   3.453 -0.7222  0.3703 -0.7195
26392SOL    HW281184   9.379  10.099   3.449 -0.2570  0.3735  0.3533
26393SOL     OW81185   5.027  10.131   3.739  0.0450 -0.0115 -0.2337
26393SOL    HW181186   4.993  10.193   3.804  1.5352 -0.0979  0.6699
26393SOL    HW281187   4.951  10.079   3.714 -0.7620  0.6545  0.7265
26394SOL     OW81188   8.664  10.972   2.891  0.1934  0.1897  0.0150
26394SOL    HW181189   8.709  11.002   2.813  0.2254 -1.1672 -0.5183
26394SOL    HW281190   8.589  11.031   2.900  0.7960  1.0372 -0.3950
26395SOL     OW81191   5.820   3.640   0.284  0.8453  0.1989 -1.0759
26395SOL    HW181192   5.736   3.682   0.267 -0.0199 -0.0944  1.9548
26395SOL    HW281193   5.807   3.548   0.260 -0.5114 -0.3293  1.3577
26396SOL     OW81194  11.018   2.746   9.448 -0.9014  0.2352  0.7377
26396SOL    HW181195  10.996   2.720   9.358  0.7387  1.1517  0.0146
26396SOL    HW281196  10.934   2.744   9.495 -1.8554  0.0106 -0.8825
26397SOL     OW81197   6.755   6.230  10.988 -0.2249  0.3315  0.3274
26397SOL    HW181198   6.681   6.225  11.050 -2.7481 -1.2213 -2.5342
26397SOL    HW281199   6.733   6.304  10.931  0.6537  0.0782 -0.3586
26398SOL     OW81200   0.859   7.110   7.760  0.1521 -0.0735  0.4808
26398SOL    HW181201   0.846   7.016   7.771 -3.6269  0.2626  0.2692
26398SOL    HW281202   0.884   7.141   7.847  0.0028 -1.1067  0.9083
26399SOL     OW81203   5.709   0.940   8.948  0.1446 -0.4272  0.2638
26399SOL    HW181204   5.720   0.946   9.043  1.9996 -2.5309  0.2567
26399SOL    HW281205   5.712   1.031   8.917  0.0621  0.2496  2.1500
26400SOL     OW81206   0.872  10.761   0.154 -0.0832  0.7511 -0.4566
26400SOL    HW181207   0.955  10.733   0.116  1.0809  1.3439  1.5198
26400SOL    HW281208   0.869  10.856   0.138  1.5048  1.4608  2.6188
26401SOL     OW81209   0.526   7.861  10.842  0.7193 -0.0359 -0.6607
26401SOL    HW181210   0.481   7.781  10.814 -0.1032  0.5790 -1.1361
26401SOL    HW281211   0.536   7.912  10.762  2.2975 -0.1619 -0.5614
26402SOL     OW81212   7.387   0.289   0.185  0.0664 -0.5079  0.0602
26402SOL    HW181213   7.463   0.329   0.229  0.7483  1.1884 -2.4860
26402SOL    HW281214   7.318   0.355   0.192 -0.6679 -1.3416  0.8653
26403SOL     OW81215   2.905   3.909   3.193 -0.2338  0.0715  0.3994
26403SOL    HW181216   2.977   3.913   3.256 -0.7155 -0.3871  0.9943
26403SOL    HW281217   2.861   3.993   3.202  2.4492  2.0642 -2.7471
26404SOL     OW81218   7.903   0.815   7.061  0.5362  0.2967 -0.4841
26404SOL    HW181219   7.830   0.862   7.102 -1.3720 -1.5749 -1.5297
26404SOL    HW281220   7.915   0.737   7.116  1.4798  0.3824 -0.5579
26405SOL     OW81221   2.486   1.351   8.561  0.2281 -0.4881 -0.0317
26405SOL    HW181222   2.538   1.294   8.505  1.5636  1.2200 -0.6106
26405SOL    HW281223   2.450   1.417   8.502  0.6245  0.6165  0.9340
26406SOL     OW81224   5.180  10.754  10.843 -0.2260 -0.0095 -0.0927
26406SOL    HW181225   5.187  10.804  10.925  0.5415 -1.5097  0.7930
26406SOL    HW281226   5.132  10.675  10.867  1.2163 -1.1358 -0.7343
26407SOL     OW81227   5.923  10.370   7.951  0.1165 -0.1867 -0.0927
26407SOL    HW181228   5.840  10.383   7.904 -1.1757  0.5639  2.2226
26407SOL    HW281229   5.913  10.286   7.995  0.8644 -0.3810 -0.2739
26408SOL     OW81230   2.222   5.629   4.203  0.2039  0.3502 -0.2776
26408SOL    HW181231   2.200   5.720   4.221 -0.6032 -0.0890  1.1056
26408SOL    HW281232   2.316   5.631   4.183  0.5226  1.3109  1.1443
26409SOL     OW81233   9.978  10.673   7.720 -0.0994 -0.1178  0.1476
26409SOL    HW181234  10.034  10.749   7.735 -2.1933  0.9525  3.6222
26409SOL    HW281235   9.951  10.681   7.628  0.4646  2.8174  0.1364
26410SOL     OW81236   8.469   3.346   3.068  0.2980  0.0215 -0.1981
26410SOL    HW181237   8.378   3.345   3.040  0.2835  2.3808 -0.3980
26410SOL    HW281238   8.465   3.359   3.163  0.4349 -3.2190  0.3500
26411SOL     OW81239   5.717  10.399   5.273 -0.5753  0.6321 -0.0069
26411SOL    HW181240   5.793  10.428   5.222  1.2552  0.2029  2.2444
26411SOL    HW281241   5.682  10.480   5.311  0.1133  0.6473  0.6276
26412SOL     OW81242   2.145   0.908   8.696 -0.3797  0.3539 -1.0882
26412SOL    HW181243   2.060   0.909   8.652 -1.1913  3.4842  0.2661
26412SOL    HW281244   2.123   0.895   8.789  0.4456  2.3319 -0.5742
26413SOL     OW81245   5.243   1.242   9.257  0.0463 -0.0731  0.3132
26413SOL    HW181246   5.336   1.261   9.269  0.1810 -0.0397 -0.7073
26413SOL    HW281247   5.204   1.261   9.342  0.8425  0.6892  0.5217
26414SOL     OW81248   0.535   8.749   9.822  0.4638  0.6106 -0.1829
26414SOL    HW181249   0.530   8.689   9.748  0.2083  1.7054 -1.0777
26414SOL    HW281250   0.474   8.820   9.800 -1.0952  0.0314  1.9474
26415SOL     OW81251   6.820   5.658   1.883 -0.2526 -0.0580  0.0112
26415SOL    HW181252   6.765   5.580   1.888  1.8170 -1.6157 -0.2116
26415SOL    HW281253   6.827   5.689   1.974 -0.6606 -0.4197  0.1672
26416SOL     OW81254   2.360   3.269   2.326 -0.4849  0.0920  0.3147
26416SOL    HW181255   2.453   3.289   2.324  0.2609 -2.7561  1.0926
26416SOL    HW281256   2.349   3.198   2.263 -1.6201 -1.1945  1.8663
26417SOL     OW81257   4.542   2.295   2.117 -0.2946  0.6208 -0.4965
26417SOL    HW181258   4.495   2.323   2.196 -0.3590  1.3241 -0.7796
26417SOL    HW281259   4.510   2.353   2.048  0.0775  0.2892 -0.9542
26418SOL     OW81260   4.936   0.357   4.675  0.5123 -0.3060 -0.1315
26418SOL    HW181261   4.957   0.451   4.678  0.0960 -0.1476 -1.6179
26418SOL    HW281262   4.966   0.324   4.760  0.4373  1.2133  0.5369
26419SOL     OW81263   5.116   0.013   2.258 -0.0857  0.1873  0.1525
26419SOL    HW181264   5.126   0.061   2.340 -0.1139  0.4387  0.0069
26419SOL    HW281265   5.022   0.017   2.239  0.1237  1.5546 -0.7553
26420SOL     OW81266   7.018  10.596   4.261 -0.0125 -0.2038 -0.9286
26420SOL    HW181267   6.952  10.665   4.260 -1.7058 -1.7453 -2.3068
26420SOL    HW281268   6.970  10.517   4.283  1.7964 -1.0873  0.1540
26421SOL     OW81269  10.204   4.277   2.683 -0.0092 -0.4833  0.2718
26421SOL    HW181270  10.156   4.231   2.752  0.1669  0.1535  0.8263
26421SOL    HW281271  10.221   4.364   2.719  1.4893 -0.6625  0.0573
26422SOL     OW81272   6.884   8.345   3.939 -0.3578 -0.3774 -0.7354
26422SOL    HW181273   6.881   8.404   3.864 -1.3132 -0.7851 -1.0233
26422SOL    HW281274   6.943   8.389   4.001 -1.7286  1.3341 -0.5757
26423SOL     OW81275   8.802   5.233   5.673  0.1337 -0.0621 -0.1458
26423SOL    HW181276   8.758   5.223   5.757  2.2705  2.1926  1.3796
26423SOL    HW281277   8.831   5.324   5.671  0.9440 -0.2757 -2.9536
26424SOL     OW81278   7.426  10.427   7.531  0.6181 -0.1488 -0.7163
26424SOL    HW181279   7.469  10.359   7.584  1.1058  1.4125  1.0168
26424SOL    HW281280   7.497  10.487   7.508  0.0177  0.3497 -1.2787
26425SOL     OW81281   8.340  10.140   6.617  0.2743 -0.1460  0.5553
26425SOL    HW181282   8.393  10.193   6.676  0.7109  0.7651 -0.6268
26425SOL    HW281283   8.399  10.072   6.586 -0.4496 -1.7982  2.5619
26426SOL     OW81284   7.767  10.145   2.367  0.0155  0.3906 -0.1070
26426SOL    HW181285   7.798  10.142   2.458  0.8538  1.1320 -0.3605
26426SOL    HW281286   7.672  10.136   2.374  0.0526  0.6395  0.8526
26427SOL     OW81287   7.419   5.600   2.317  0.1675 -0.7933  0.2439
26427SOL    HW181288   7.497   5.544   2.309  1.4558  1.1425 -1.7572
26427SOL    HW281289   7.452   5.681   2.357 -0.8331  0.0069 -0.5055
26428SOL     OW81290   9.475   3.001   1.916  0.0335 -0.2010 -0.4874
26428SOL    HW181291   9.462   2.965   1.828  0.8719  1.1003 -1.1781
26428SOL    HW281292   9.568   2.984   1.934 -0.3860 -1.4507  0.6351
26429SOL     OW81293   6.489   5.423   3.392  0.7470 -0.3806  0.5469
26429SOL    HW181294   6.416   5.475   3.427  1.4209  0.5974  0.5210
26429SOL    HW281295   6.468   5.411   3.300  0.6310 -0.0689  0.5314
26430SOL     OW81296   3.129   9.291   3.685  1.0194  0.9288  0.2141
26430SOL    HW181297   3.047   9.297   3.637  0.8953 -0.5607  0.1992
26430SOL    HW281298   3.112   9.335   3.768 -0.6486 -1.4954  1.2715
26431SOL     OW81299   4.098   4.201   7.799  0.2817 -0.0536  0.1306
26431SOL    HW181300   4.171   4.182   7.858 -0.9278 -1.0983  1.3615
26431SOL    HW281301   4.059   4.116   7.780 -2.1131  0.6172  1.5361
26432SOL     OW81302   0.193   2.943   9.734  0.2480  0.0556  0.5423
26432SOL    HW181303   0.254   3.015   9.747 -1.2675  1.8237 -1.4508
26432SOL    HW281304   0.249   2.867   9.718  1.8918  1.1569  0.8127
26433SOL     OW81305   3.051   2.224  10.676 -0.1593  0.4641  0.4131
26433SOL    HW181306   3.071   2.286  10.746 -1.2570  1.8311 -0.4314
26433SOL    HW281307   3.108   2.250  10.604 -0.1586  0.0717  0.2682
26434SOL     OW81308   8.249   5.540   8.863  0.5224 -0.0487  0.0507
26434SOL    HW181309   8.278   5.628   8.840 -1.3369  0.2968 -1.1553
26434SOL    HW281310   8.252   5.538   8.959  0.9638  1.1888  0.0745
26435SOL     OW81311   5.880   6.412   2.413  0.1359 -0.0733  0.1646
26435SOL    HW181312   5.916   6.477   2.353 -0.8774 -0.4815 -0.9248
26435SOL    HW281313   5.787   6.433   2.419  0.1684 -0.1859  1.4396
26436SOL     OW81314   4.244   2.988   2.171  0.5646 -0.2557  0.5531
26436SOL    HW181315   4.154   2.984   2.137  0.6870  0.4036  0.1257
26436SOL    HW281316   4.237   2.957   2.261  0.0753 -1.1655  0.2229
26437SOL     OW81317   2.092   7.610   0.595  0.4189 -0.8232  0.1147
26437SOL    HW181318   2.061   7.554   0.667 -0.6094  1.0471  1.2175
26437SOL    HW281319   2.187   7.601   0.597  0.4168 -0.9128  1.6687
26438SOL     OW81320   7.251   5.932   9.958  0.1537 -0.4374  0.6333
26438SOL    HW181321   7.325   5.982   9.925  0.8058  0.3731  3.1465
26438SOL    HW281322   7.181   5.947   9.894  1.6239  0.1377 -0.8916
26439SOL     OW81323   9.147   3.823   2.396 -0.8831 -0.0554  0.4490
26439SOL    HW181324   9.229   3.798   2.354 -0.4003 -0.8297  1.8008
26439SOL    HW281325   9.090   3.849   2.323 -0.5971 -2.7980 -0.8928
26440SOL     OW81326  10.515   9.652   7.712  0.7276  0.0023  0.2623
26440SOL    HW181327  10.479   9.719   7.770  0.5210 -0.8712  1.1736
26440SOL    HW281328  10.604   9.682   7.693  0.7488  0.3807  0.9189
26441SOL     OW81329   2.952  10.516  10.938  0.6424 -0.4389  0.1083
26441SOL    HW181330   2.989  10.489  11.022 -0.0808  1.4489  1.0726
26441SOL    HW281331   2.975  10.608  10.929 -0.0766 -0.3663 -1.3511
26442SOL     OW81332   7.867   8.176   2.980 -0.2799 -0.4042  0.3007
26442SOL    HW181333   7.836   8.085   2.973  1.3136 -0.9981  0.4984
26442SOL    HW281334   7.809   8.216   3.045 -0.0880 -1.7236  1.3388
26443SOL     OW81335   4.920   7.630  10.076  0.6876  0.2141 -0.1128
26443SOL    HW181336   4.876   7.713  10.095  0.5474 -0.4937  3.2700
26443SOL    HW281337   4.849   7.566  10.068  0.8863 -0.1978  1.1581
26444SOL     OW81338   2.601   3.514   2.495  0.2235 -0.7132  0.5648
26444SOL    HW181339   2.627   3.529   2.405  0.8487  0.8618  0.9800
26444SOL    HW281340   2.681   3.486   2.539  0.3372  0.2452  0.9924
26445SOL     OW81341  10.367   0.828   4.158  0.1428  0.3715  0.0176
26445SOL    HW181342  10.412   0.911   4.174 -1.0072  0.6379  2.2895
26445SOL    HW281343  10.299   0.849   4.095 -0.7270  1.4153  1.2615
26446SOL     OW81344   8.594   7.006   2.363 -0.1526  0.0128 -0.8390
26446SOL    HW181345   8.595   7.089   2.315  0.8949  0.4368 -0.1481
26446SOL    HW281346   8.505   6.974   2.355 -1.2459  2.3599  0.7575
26447SOL     OW81347   8.872   9.967   5.587 -0.0667  0.4665  0.8410
26447SOL    HW181348   8.817   9.980   5.664 -1.4916  0.0316 -0.0680
26447SOL    HW281349   8.829   9.896   5.539  0.5061  1.0678 -0.5973
26448SOL     OW81350   3.649   7.722   6.214  0.1523 -0.3458  0.6403
26448SOL    HW181351   3.684   7.633   6.206 -3.8121 -1.9874 -1.1774
26448SOL    HW281352   3.577   7.714   6.277 -0.6232  1.4239  0.0312
26449SOL     OW81353  11.083   4.905   1.924  0.2311 -0.7375  0.2432
26449SOL    HW181354  11.015   4.840   1.907 -1.4636  0.8736  0.5853
26449SOL    HW281355  11.142   4.899   1.849 -1.8025 -0.2984 -1.4646
26450SOL     OW81356   2.438   2.876   1.980 -0.4340  0.1985  0.2088
26450SOL    HW181357   2.501   2.828   1.926 -1.3714  0.7181 -1.4215
26450SOL    HW281358   2.441   2.832   2.065 -0.6404 -2.2194 -0.9446
26451SOL     OW81359   0.416   6.759   8.100  0.2420 -0.3241 -0.0058
26451SOL    HW181360   0.471   6.747   8.177  0.7041 -1.0155 -0.4307
26451SOL    HW281361   0.336   6.709   8.120  0.9358 -1.7085 -0.5295
26452SOL     OW81362   6.198  10.092   5.301 -0.2422 -0.2086 -0.1360
26452SOL    HW181363   6.122  10.036   5.315 -0.1485 -0.0741  0.9226
26452SOL    HW281364   6.181  10.171   5.353 -0.3550  0.7502 -1.5616
26453SOL     OW81365   4.359   4.089   0.477 -0.5199 -0.0044 -0.2239
26453SOL    HW181366   4.358   4.004   0.522 -0.0582 -0.0898 -0.3637
26453SOL    HW281367   4.315   4.073   0.394 -0.4901 -0.0934 -0.2233
26454SOL     OW81368   2.606  10.790   7.851  0.3257 -0.0595 -0.4220
26454SOL    HW181369   2.570  10.809   7.937  0.6962 -2.3036  0.2873
26454SOL    HW281370   2.547  10.724   7.813  0.4176  0.5601 -1.7087
26455SOL     OW81371   5.289   3.244  10.880 -0.6978 -0.1262 -0.5843
26455SOL    HW181372   5.327   3.322  10.839 -0.7716  0.8823  1.1659
26455SOL    HW281373   5.260   3.191  10.806  0.8598  0.7161 -1.8858
26456SOL     OW81374   4.152   5.409   6.193  0.2136  0.0129 -0.3582
26456SOL    HW181375   4.245   5.430   6.184 -0.1667  1.6460 -0.7451
26456SOL    HW281376   4.109   5.460   6.124 -0.9475 -0.9645 -0.3924
26457SOL     OW81377   1.223   6.926   6.481  0.6299  0.2494  0.3525
26457SOL    HW181378   1.202   6.984   6.408  0.8466 -1.5807 -1.2639
26457SOL    HW281379   1.220   6.982   6.559 -1.2347  1.9405 -0.8400
26458SOL     OW81380  10.499   9.451   7.146 -0.4972 -0.7852 -0.8658
26458SOL    HW181381  10.524   9.481   7.059 -0.6984 -0.3322 -0.7687
26458SOL    HW281382  10.542   9.366   7.155  1.0426 -0.0387 -0.6992
26459SOL     OW81383   2.696   7.029   2.735  0.1589  0.5213  0.4518
26459SOL    HW181384   2.630   6.974   2.693  1.1673 -0.6095  0.2938
26459SOL    HW281385   2.661   7.046   2.822 -0.6175  0.4628  0.1638
26460SOL     OW81386   2.325   2.378   8.391 -0.1305  0.0653 -0.2581
26460SOL    HW181387   2.258   2.446   8.388 -0.4081 -0.1787  0.2651
26460SOL    HW281388   2.336   2.360   8.485  1.1474  0.5805 -0.2824
26461SOL     OW81389   2.041   0.614   9.128  0.5432 -0.3032  0.0712
26461SOL    HW181390   2.016   0.524   9.152  0.8147 -0.4295 -0.1227
26461SOL    HW281391   1.979   0.669   9.176  0.1210 -0.6063 -0.1204
26462SOL     OW81392   8.714   2.165   6.858 -0.7354  0.0044  0.2410
26462SOL    HW181393   8.626   2.192   6.885  0.7187  3.1393  2.4823
26462SOL    HW281394   8.769   2.186   6.933  2.1437 -0.5379 -1.5755
26463SOL     OW81395  10.025   8.262   8.189  0.0010  0.5922  0.1712
26463SOL    HW181396   9.974   8.183   8.170  0.5583  0.2882 -0.0774
26463SOL    HW281397   9.994   8.290   8.275 -1.4716  1.1229 -0.5018
26464SOL     OW81398   9.962   0.460   6.807  0.1080  0.2955 -0.4170
26464SOL    HW181399   9.884   0.470   6.753 -0.7850 -2.1146  0.2875
26464SOL    HW281400   9.928   0.448   6.896  1.4427  1.9103  0.3717
26465SOL     OW81401   7.046   3.242   0.494 -0.1757 -0.5813  0.1215
26465SOL    HW181402   7.131   3.219   0.454 -0.1653 -1.7604  0.7783
26465SOL    HW281403   7.023   3.165   0.546 -1.3037  0.0273  0.5416
26466SOL     OW81404   1.429   9.103   2.054  0.1195  0.4466  0.6658
26466SOL    HW181405   1.393   9.027   2.099  0.6782 -0.8160 -0.9035
26466SOL    HW281406   1.365   9.172   2.067 -0.2697 -0.2047  2.3709
26467SOL     OW81407   6.623   0.551  10.707 -0.0223 -0.5030 -0.0545
26467SOL    HW181408   6.577   0.634  10.719 -1.6252 -1.6024  2.2146
26467SOL    HW281409   6.692   0.551  10.773 -0.4587 -1.2051  0.4227
26468SOL     OW81410   1.521   6.892   7.471 -0.2930  0.8731  0.2004
26468SOL    HW181411   1.566   6.839   7.405  0.9266  0.2472  1.4715
26468SOL    HW281412   1.591   6.945   7.511 -1.2508  2.3784 -0.0318
26469SOL     OW81413   4.282   5.416   4.074  0.0178  0.6331 -0.9107
26469SOL    HW181414   4.291   5.329   4.112 -3.5870  1.0297  1.3852
26469SOL    HW281415   4.232   5.402   3.994 -1.8775  0.5886  0.2157
26470SOL     OW81416  10.744   6.689   8.969  0.2164  0.0534 -0.8436
26470SOL    HW181417  10.783   6.776   8.960 -2.0289  1.2448  0.0824
26470SOL    HW281418  10.710   6.687   9.059 -1.3460 -1.0742 -1.4159
26471SOL     OW81419   8.913   0.156   7.606 -0.3777  0.2129  0.2364
26471SOL    HW181420   8.924   0.171   7.512  0.7685 -1.9371 -0.0433
26471SOL    HW281421   8.992   0.109   7.632 -1.3651 -0.6018  1.9553
26472SOL     OW81422   1.192   7.330   6.324 -0.8373 -0.3222  0.1217
26472SOL    HW181423   1.189   7.374   6.238 -2.6746  0.5075  0.5675
26472SOL    HW281424   1.253   7.383   6.375  0.1050 -0.6977 -0.5849
26473SOL     OW81425   9.603   1.993   8.012  0.1369  0.6692  0.4231
26473SOL    HW181426   9.682   1.942   8.023 -0.7428 -0.5341  1.3384
26473SOL    HW281427   9.543   1.962   8.080 -0.1817  3.4591  1.5544
26474SOL     OW81428  10.100   7.902   0.881  0.4127  0.2085 -0.4484
26474SOL    HW181429  10.107   7.997   0.888  0.4975  0.1162  1.2458
26474SOL    HW281430  10.115   7.883   0.789  1.1005  1.7765 -0.6837
26475SOL     OW81431   4.951   6.788   1.759  0.0868  0.0591  0.3657
26475SOL    HW181432   4.996   6.704   1.761  1.5401  0.7935  0.0953
26475SOL    HW281433   4.986   6.835   1.835  1.9110  1.6583 -1.3442
26476SOL     OW81434  10.193   7.072   7.569  0.2775  0.4996  1.0414
26476SOL    HW181435  10.250   6.995   7.583 -0.6404 -0.1262  1.4614
26476SOL    HW281436  10.211   7.128   7.645  0.3573  0.3174  1.1595
26477SOL     OW81437   5.631   1.202   0.091 -0.9542 -0.3099 -0.5974
26477SOL    HW181438   5.675   1.172   0.170 -1.0899  0.7954 -0.0713
26477SOL    HW281439   5.701   1.214   0.027 -0.9016 -1.6946 -0.8306
26478SOL     OW81440   6.081   3.967   7.338 -0.3197  0.1912  0.8649
26478SOL    HW181441   5.999   3.937   7.299 -0.5752  0.4855  1.1760
26478SOL    HW281442   6.060   4.051   7.378 -0.1243 -0.2085  1.8352
26479SOL     OW81443   3.063   3.769   2.639  0.4579  0.3470  0.8998
26479SOL    HW181444   3.043   3.839   2.578  1.5139  1.3734  1.6783
26479SOL    HW281445   3.151   3.741   2.615  0.6570  0.3726  1.5600
26480SOL     OW81446   6.310   3.306   0.196  0.6359  0.4251  0.4027
26480SOL    HW181447   6.244   3.373   0.174 -1.3518 -1.7128 -0.5571
26480SOL    HW281448   6.310   3.303   0.292 -0.1740  0.9304  0.4333
26481SOL     OW81449  10.169  10.575   8.688 -0.7164 -0.1383 -0.2468
26481SOL    HW181450  10.153  10.485   8.658 -1.9869  0.6034 -1.9427
26481SOL    HW281451  10.102  10.590   8.755 -0.7328 -0.3153 -0.2207
26482SOL     OW81452   3.258   7.714   4.078 -0.5929 -0.0095 -0.2297
26482SOL    HW181453   3.281   7.807   4.072 -0.8794  0.0902  0.1781
26482SOL    HW281454   3.307   7.682   4.153  0.1930 -0.4039 -0.8877
26483SOL     OW81455   9.966   1.288   1.315  0.7031 -0.1424  0.5882
26483SOL    HW181456   9.938   1.221   1.376 -1.4623 -0.0819 -0.2474
26483SOL    HW281457   9.902   1.284   1.244  2.6958  0.2659 -1.3524
26484SOL     OW81458   1.552   4.521   0.649 -0.0440  0.3507  0.2209
26484SOL    HW181459   1.585   4.571   0.574  0.6421 -1.6243 -0.8737
26484SOL    HW281460   1.631   4.499   0.699  0.3217 -3.0425 -1.5583
26485SOL     OW81461   8.786   9.964   4.179  0.5440 -0.2136 -0.0232
26485SOL    HW181462   8.807  10.037   4.237  3.3023 -0.1578 -0.9176
26485SOL    HW281463   8.758   9.893   4.237  0.2012  0.7893  1.0671
26486SOL     OW81464   0.411  10.016   4.200  0.6323  0.0883  0.6224
26486SOL    HW181465   0.355  10.001   4.124 -1.4879  2.0403  1.6854
26486SOL    HW281466   0.408   9.933   4.249 -2.0248  0.3382  1.0174
26487SOL     OW81467   6.579   3.239  10.957  0.3497  0.1477 -1.1199
26487SOL    HW181468   6.555   3.217  11.047  0.9454  1.2825 -0.6618
26487SOL    HW281469   6.583   3.155  10.911 -0.0666 -0.4301 -0.1166
26488SOL     OW81470   7.106   3.996   6.660  0.0282  0.0790  0.2868
26488SOL    HW181471   7.145   3.939   6.594  2.7846  2.0101  0.0993
26488SOL    HW281472   7.036   4.041   6.614  1.4265  0.8470 -1.1757
26489SOL     OW81473   6.861   8.954   3.206  0.4360  0.3817  0.1812
26489SOL    HW181474   6.913   9.023   3.247  1.8902 -0.0705 -0.8096
26489SOL    HW281475   6.849   8.983   3.116 -0.1406 -0.0221  0.1201
26490SOL     OW81476   0.967   4.223   9.552  0.1137  0.0748  0.5454
26490SOL    HW181477   0.893   4.269   9.592  0.3808 -0.5346  1.7987
26490SOL    HW281478   0.944   4.217   9.459 -0.8561  0.9313  0.7066
26491SOL     OW81479   7.807   7.370   9.216  0.3042 -0.5176  0.3717
26491SOL    HW181480   7.782   7.321   9.137 -0.7055 -0.3890  0.5910
26491SOL    HW281481   7.902   7.364   9.219  0.4414  0.1222 -1.2947
26492SOL     OW81482   5.686   2.551   7.019 -0.1902 -0.5050 -0.0470
26492SOL    HW181483   5.635   2.614   6.968 -0.6297  0.1746  1.1993
26492SOL    HW281484   5.775   2.559   6.985 -0.5420 -0.3480 -0.9593
26493SOL     OW81485   6.931   8.472   0.859 -0.2701  0.2935 -0.5782
26493SOL    HW181486   6.873   8.524   0.803  0.3352 -0.0332 -1.5275
26493SOL    HW281487   6.961   8.534   0.926 -0.4645  0.8730 -1.0143
26494SOL     OW81488   2.737   4.148   7.164 -0.0165 -0.5171 -0.2336
26494SOL    HW181489   2.695   4.226   7.127  0.3046 -0.4272 -0.4112
26494SOL    HW281490   2.666   4.102   7.208  0.0051  0.4656  0.8937
26495SOL     OW81491   7.740   3.966   0.640  0.0188 -0.3475 -0.9880
26495SOL    HW181492   7.698   4.049   0.660 -1.4472 -1.6835  2.3157
26495SOL    HW281493   7.827   3.973   0.679  0.4614  0.1007 -2.0178
26496SOL     OW81494   1.292   3.847   8.601 -0.3848 -0.2787 -0.2925
26496SOL    HW181495   1.338   3.811   8.525 -1.1759 -0.0280 -0.9127
26496SOL    HW281496   1.347   3.919   8.631  0.5810 -1.1992  0.1839
26497SOL     OW81497   9.826   1.779   9.808  0.5720 -0.1319 -0.3054
26497SOL    HW181498   9.844   1.708   9.747  1.4470  1.5482 -2.1377
26497SOL    HW281499   9.856   1.746   9.893  0.9233 -1.9298 -1.0791
26498SOL     OW81500   6.223   4.944   8.884  0.1221  1.2156 -0.9491
26498SOL    HW181501   6.264   4.859   8.900 -1.1149  1.1122  2.2964
26498SOL    HW281502   6.148   4.924   8.829  0.3608  0.3592 -0.9785
26499SOL     OW81503   7.503   8.082   7.738  0.3800  0.2288 -0.0905
26499SOL    HW181504   7.439   8.129   7.791 -0.2053 -1.5032  0.8022
26499SOL    HW281505   7.482   7.990   7.750  0.5416 -0.2942 -2.9313
26500SOL     OW81506   3.369   9.718   5.274 -0.1497 -0.6700 -0.5092
26500SOL    HW181507   3.311   9.789   5.246 -0.9328 -0.1033  2.2919
26500SOL    HW281508   3.310   9.644   5.291  0.6766 -2.2471 -3.6644
26501SOL     OW81509   5.253   1.361   5.208  0.2780 -0.1961 -0.4946
26501SOL    HW181510   5.232   1.315   5.290  0.6725  1.2548  0.4693
26501SOL    HW281511   5.339   1.398   5.223  0.4521 -0.0920 -1.6800
26502SOL     OW81512   7.982   0.753  10.562  0.1241  0.2333 -0.3188
26502SOL    HW181513   8.032   0.823  10.520  0.5287 -0.6453 -1.3640
26502SOL    HW281514   7.944   0.794  10.639 -0.0908  1.7530 -1.1780
26503SOL     OW81515   9.092   5.711   3.154  0.1991 -0.2842  0.1700
26503SOL    HW181516   9.123   5.670   3.074 -0.2908  1.3676 -0.8999
26503SOL    HW281517   9.006   5.746   3.132  1.0471  2.3342  0.6304
26504SOL     OW81518   7.891   1.431   7.488  0.0856 -0.2816  0.6794
26504SOL    HW181519   7.915   1.492   7.557 -1.0748  2.8622 -1.4649
26504SOL    HW281520   7.974   1.399   7.454  0.8932  1.8977  0.4432
26505SOL     OW81521   4.388   6.872   9.492 -0.2006  0.4272  0.9657
26505SOL    HW181522   4.316   6.894   9.551 -1.2897 -2.1138  0.7258
26505SOL    HW281523   4.363   6.788   9.454  2.0207  0.3883 -0.6234
26506SOL     OW81524   4.353  10.905   5.647 -0.1711 -0.2740 -0.0431
26506SOL    HW181525   4.306  10.822   5.641  1.2241 -1.0306 -0.7721
26506SOL    HW281526   4.440  10.882   5.678  0.0765  0.9848  0.2524
26507SOL     OW81527   2.914   6.512   7.933  0.6261 -0.1544 -0.2166
26507SOL    HW181528   2.910   6.608   7.934  2.0498 -0.0526  1.7791
26507SOL    HW281529   2.945   6.489   8.020  2.0384 -2.3560 -1.2343
26508SOL     OW81530   9.156   6.262   9.294  0.3777  0.0189  0.7535
26508SOL    HW181531   9.134   6.339   9.347  1.0952  0.4055  0.5069
26508SOL    HW281532   9.119   6.281   9.208  1.5019  0.6180  0.3709
26509SOL     OW81533   7.259   0.961   6.435 -0.6378 -0.4854  0.7138
26509SOL    HW181534   7.237   0.870   6.416  0.1587 -0.6938  0.7309
26509SOL    HW281535   7.324   0.955   6.505 -0.9304  0.1206  1.0448
26510SOL     OW81536   3.281   4.613   5.335  0.1186 -0.2152  0.2872
26510SOL    HW181537   3.336   4.555   5.282 -0.9900 -1.7806  0.7810
26510SOL    HW281538   3.196   4.610   5.291 -0.1200  0.5403  0.6946
26511SOL     OW81539   9.949   7.250   3.732  0.6309 -0.4126  0.0491
26511SOL    HW181540   9.893   7.192   3.783  0.9514  0.6286  1.6832
26511SOL    HW281541   9.968   7.323   3.792 -0.8290  2.0902 -2.2794
26512SOL     OW81542   7.323   0.694   2.771  0.7144 -0.3720  0.9960
26512SOL    HW181543   7.388   0.760   2.744 -1.0843  2.3062  2.6989
26512SOL    HW281544   7.261   0.691   2.698  2.1499 -2.2657 -0.2370
26513SOL     OW81545   2.304   7.052   8.517  0.0095 -0.4363  0.1249
26513SOL    HW181546   2.234   7.113   8.537  1.9523  1.8954  0.3490
26513SOL    HW281547   2.274   6.968   8.552 -2.6178  0.4296  0.1720
26514SOL     OW81548   2.252   4.327   2.887 -1.0277  0.1226  0.4628
26514SOL    HW181549   2.250   4.278   2.969 -2.4568  1.5273  1.3412
26514SOL    HW281550   2.303   4.273   2.827 -0.6744 -1.3466  2.0198
26515SOL     OW81551  11.026   3.821   0.422 -0.7598 -0.1961  0.0005
26515SOL    HW181552  11.011   3.800   0.330 -1.6929  1.3450 -0.2399
26515SOL    HW281553  11.118   3.798   0.437 -0.8792 -1.4621 -1.0064
26516SOL     OW81554   2.492   3.298   0.327 -0.2739 -0.4836 -0.0489
26516SOL    HW181555   2.413   3.351   0.332  0.7095  1.0774 -0.4225
26516SOL    HW281556   2.554   3.351   0.278  1.2057 -1.4239  0.7186
26517SOL     OW81557   1.423   3.323   3.941 -0.2831  0.2304 -0.2904
26517SOL    HW181558   1.431   3.414   3.970 -0.6799 -0.0745  0.8320
26517SOL    HW281559   1.512   3.289   3.943 -0.1427  0.5665 -0.6464
26518SOL     OW81560   3.792   2.133  10.641  0.5089  0.5785  0.7674
26518SOL    HW181561   3.744   2.214  10.660 -1.8512 -0.6927  0.5787
26518SOL    HW281562   3.833   2.149  10.556 -0.9823  1.1797  0.1235
26519SOL     OW81563   5.381   5.797   0.141  0.5480  0.2747  0.1703
26519SOL    HW181564   5.323   5.777   0.067  2.4716 -2.7786 -0.6778
26519SOL    HW281565   5.332   5.767   0.218  0.1839 -0.4104 -0.3156
26520SOL     OW81566   2.012   6.953   0.721  0.0615 -0.2097 -0.9737
26520SOL    HW181567   2.065   6.881   0.686  0.0200 -0.6191 -0.2081
26520SOL    HW281568   1.922   6.921   0.716  0.2072 -1.3013  1.7465
26521SOL     OW81569   0.372   5.294   7.204  0.1842  0.1163 -0.3593
26521SOL    HW181570   0.335   5.215   7.163 -0.3417  0.1252  0.0905
26521SOL    HW281571   0.463   5.295   7.175  0.2749 -0.8119 -0.1483
26522SOL     OW81572   4.496   6.792   7.332 -0.6329 -0.0716  0.9961
26522SOL    HW181573   4.566   6.841   7.289  0.3265 -0.2269  2.3218
26522SOL    HW281574   4.415   6.830   7.298  0.0870  0.5184 -0.1097
26523SOL     OW81575  10.464   5.224   5.221  0.0790 -0.4523 -0.0241
26523SOL    HW181576  10.547   5.271   5.225  0.8296 -1.5579 -1.6268
26523SOL    HW281577  10.488   5.132   5.234 -0.2641 -1.3149 -4.2672
26524SOL     OW81578   0.269   5.112   6.772 -0.9459  0.3097 -0.1359
26524SOL    HW181579   0.201   5.067   6.721 -1.5465  0.2919  0.6613
26524SOL    HW281580   0.245   5.095   6.863 -0.0538  0.5890  0.1556
26525SOL     OW81581   9.615  10.978   6.805 -0.0294  0.7650  0.1502
26525SOL    HW181582   9.541  10.918   6.816  0.6493  0.2836  2.7744
26525SOL    HW281583   9.658  10.949   6.725  0.4536 -2.5072  1.4593
26526SOL     OW81584   1.714   7.435   6.365 -0.4816  0.2612  0.2633
26526SOL    HW181585   1.695   7.523   6.333 -0.4987 -0.5910 -2.3010
26526SOL    HW281586   1.644   7.381   6.329  0.7191 -1.1447 -0.0640
26527SOL     OW81587   9.721   0.358   9.096  0.5527  0.5515 -0.4819
26527SOL    HW181588   9.641   0.411   9.104  1.5827  1.9096  1.6788
26527SOL    HW281589   9.702   0.278   9.145 -0.9219 -1.1759 -3.5564
26528SOL     OW81590   7.080   8.178   9.440 -0.6368 -0.6698 -0.1944
26528SOL    HW181591   7.094   8.150   9.350  1.8777  1.1504 -0.4873
26528SOL    HW281592   7.160   8.225   9.464 -1.5096 -0.4303  2.7519
26529SOL     OW81593  11.069   4.857  10.217  0.4228  0.1077 -0.2846
26529SOL    HW181594  11.067   4.884  10.309  0.1641  1.4458 -0.6711
26529SOL    HW281595  11.162   4.849  10.196  0.4824 -0.2468  0.1003
26530SOL     OW81596   1.248   8.769   1.096  0.7643 -0.2573  0.3532
26530SOL    HW181597   1.154   8.771   1.114  0.9370  0.2223  1.2684
26530SOL    HW281598   1.264   8.850   1.047  0.6967 -0.3528  0.1717
26531SOL     OW81599   6.558   2.274   0.788 -0.3742 -0.4120  0.1221
26531SOL    HW181600   6.464   2.293   0.788 -0.5916 -0.7788 -3.3804
26531SOL    HW281601   6.596   2.339   0.846 -2.7997 -0.4450  1.8734
26532SOL     OW81602   4.461   0.998  10.523 -1.0219 -0.3255  0.3140
26532SOL    HW181603   4.555   0.983  10.536 -1.3873 -0.4704  3.5132
26532SOL    HW281604   4.432   0.921  10.473  0.5780 -0.0532 -1.1548
26533SOL     OW81605  10.418   1.344   3.143 -0.1649  0.7110  0.0392
26533SOL    HW181606  10.472   1.283   3.092 -2.6809  0.1316 -2.1689
26533SOL    HW281607  10.474   1.420   3.156  2.4240 -1.2602  1.2098
26534SOL     OW81608   4.397   8.561   7.199  0.6380 -0.0140 -0.1777
26534SOL    HW181609   4.359   8.628   7.255  0.8672  0.0754 -0.1269
26534SOL    HW281610   4.380   8.590   7.110  0.9058  0.2112 -0.1575
26535SOL     OW81611  10.096   6.899   9.037 -0.1230  0.4509  0.2242
26535SOL    HW181612  10.003   6.903   9.060  0.2233  0.0842  1.8095
26535SOL    HW281613  10.129   6.987   9.054  0.0932  0.2265  1.0514
26536SOL     OW81614   9.067   4.236   7.685 -0.2916 -0.0050 -0.1859
26536SOL    HW181615   9.001   4.166   7.684 -0.0273 -0.3375  2.0355
26536SOL    HW281616   9.016   4.317   7.680 -1.0096 -0.2248  2.3264
26537SOL     OW81617   7.449   8.698   0.362 -0.2044  0.2335 -0.1669
26537SOL    HW181618   7.518   8.727   0.422 -0.0420 -1.2013  0.3687
26537SOL    HW281619   7.496   8.656   0.290 -0.5036 -2.1631  0.9554
26538SOL     OW81620   0.030   1.354   8.042 -0.2630  0.6049 -0.3472
26538SOL    HW181621   0.032   1.449   8.051  1.3020  0.7947 -2.1034
26538SOL    HW281622  -0.056   1.335   8.004 -1.6927  0.9679  2.4400
26539SOL     OW81623   4.172  10.300   4.701  0.2483  0.3090 -0.0989
26539SOL    HW181624   4.135  10.229   4.753 -0.5352  1.5287  1.0974
26539SOL    HW281625   4.261  10.310   4.735  1.2495 -1.6073 -1.9180
26540SOL     OW81626  10.952   2.336   6.703  0.1297  0.2670 -0.5170
26540SOL    HW181627  10.910   2.276   6.641  1.5261 -1.9626  0.5806
26540SOL    HW281628  11.045   2.319   6.694  0.3707 -0.9355  2.8466
26541SOL     OW81629  10.178  10.691   5.496  0.1873  0.5953  0.1217
26541SOL    HW181630  10.147  10.753   5.562 -0.2321  1.6731 -1.0432
26541SOL    HW281631  10.143  10.606   5.524 -0.0356  1.0425  1.2304
26542SOL     OW81632   5.315   9.536   4.129  0.2225 -0.3890  0.3027
26542SOL    HW181633   5.313   9.487   4.211  1.8735 -0.8513  0.0974
26542SOL    HW281634   5.256   9.489   4.070 -1.8338  0.5527  1.4984
26543SOL     OW81635   1.835   4.361  10.591  0.6557  0.1203 -0.1264
26543SOL    HW181636   1.778   4.425  10.546 -0.3667 -0.9580 -0.4176
26543SOL    HW281637   1.790   4.343  10.673  1.5697  0.6782  0.5046
26544SOL     OW81638   5.190   3.796   2.654  0.4883 -0.2823  0.0650
26544SOL    HW181639   5.198   3.751   2.738 -1.9490 -0.5691  0.2074
26544SOL    HW281640   5.096   3.799   2.637  0.6237  3.0455 -0.8687
26545SOL     OW81641  10.757  10.407   7.611 -0.2467  0.2452  0.0701
26545SOL    HW181642  10.852  10.418   7.616 -0.4075  1.4299  1.0996
26545SOL    HW281643  10.740  10.322   7.653  0.5474 -1.3234 -2.5949
26546SOL     OW81644   6.159   7.054  10.742  0.2403  0.0859  0.1244
26546SOL    HW181645   6.178   7.049  10.649  2.9237  0.3154  0.5911
26546SOL    HW281646   6.100   7.129  10.750  1.2071  1.0468 -1.2433
26547SOL     OW81647   2.493   6.862   5.031  0.1824  0.4651 -0.0143
26547SOL    HW181648   2.502   6.937   4.972  0.4747 -0.4813 -1.2011
26547SOL    HW281649   2.534   6.891   5.113 -0.2055  1.7859 -0.2593
26548SOL     OW81650   7.600   3.075   6.165 -0.1116  0.3103 -0.0945
26548SOL    HW181651   7.526   3.111   6.214 -0.5775  2.0005 -1.9357
26548SOL    HW281652   7.648   3.151   6.134  1.5730 -0.7502 -0.2073
26549SOL     OW81653   4.104   4.375  10.882 -0.1216 -0.0109 -0.0839
26549SOL    HW181654   4.139   4.385  10.971  0.0734 -0.8477 -0.0594
26549SOL    HW281655   4.094   4.281  10.870 -1.0456  0.1380 -0.6138
26550SOL     OW81656  10.939  10.887   1.867 -0.0686 -0.0900  0.0433
26550SOL    HW181657  10.872  10.891   1.798 -0.9285  0.3234  0.8806
26550SOL    HW281658  10.987  10.807   1.848  0.5434  0.6441 -1.7806
26551SOL     OW81659  10.463   1.153   5.789 -0.6367 -0.1959 -0.4034
26551SOL    HW181660  10.412   1.100   5.850  0.3730 -2.3236 -1.2938
26551SOL    HW281661  10.399   1.202   5.739 -1.5128  1.3043  2.0241
26552SOL     OW81662  10.154   5.065   9.470 -0.4767  0.5776 -0.4946
26552SOL    HW181663  10.103   5.055   9.390  0.0611  0.5089 -0.8286
26552SOL    HW281664  10.239   5.026   9.451 -0.6119 -0.1987  0.3794
26553SOL     OW81665   8.870   6.174   2.264  0.2719 -0.2641 -0.2504
26553SOL    HW181666   8.882   6.234   2.338  0.0642  0.3005 -0.6632
26553SOL    HW281667   8.895   6.089   2.298 -1.5064 -0.3512  1.0113
26554SOL     OW81668   8.967   4.983   3.269  0.2972 -0.4826 -0.1066
26554SOL    HW181669   8.915   5.060   3.294 -0.1570 -1.3143  1.6821
26554SOL    HW281670   9.057   5.007   3.290  0.3201  0.0393 -0.7979
26555SOL     OW81671   6.911   7.885   7.667  0.8412  0.0470  0.2136
26555SOL    HW181672   6.817   7.884   7.647  0.9054 -0.0996 -0.0859
26555SOL    HW281673   6.919   7.943   7.743  0.5272  0.1860  0.1415
26556SOL     OW81674   6.752   5.019   3.536  0.0403 -0.5308  0.1811
26556SOL    HW181675   6.818   5.048   3.600 -0.1865  0.4894 -0.0225
26556SOL    HW281676   6.692   5.093   3.529 -0.8602 -1.2648  0.0010
26557SOL     OW81677   4.844   2.012   2.517 -0.2523 -0.4961  0.4734
26557SOL    HW181678   4.824   2.097   2.480  1.1459 -0.2972  0.1436
26557SOL    HW281679   4.841   2.026   2.612  0.1155 -0.0350  0.4208
26558SOL     OW81680   3.804   7.474   1.219 -0.0565 -0.1047  0.0941
26558SOL    HW181681   3.822   7.561   1.185 -1.8746  1.7015  3.3308
26558SOL    HW281682   3.762   7.428   1.146 -0.0246  2.0760 -1.3912
26559SOL     OW81683   5.097  10.913   3.846  0.0243  0.3226 -0.1417
26559SOL    HW181684   5.079  10.830   3.801 -1.8266  0.4089  0.3647
26559SOL    HW281685   5.096  10.979   3.777  1.1147 -0.0044 -0.4918
26560SOL     OW81686  10.821   4.437   6.520  0.4908  0.0349 -0.2973
26560SOL    HW181687  10.836   4.375   6.448  1.3775  1.3051 -1.2616
26560SOL    HW281688  10.904   4.439   6.567  0.7105  0.9860 -0.7001
26561SOL     OW81689   2.501   2.228   2.385  0.8636 -0.8133 -0.8435
26561SOL    HW181690   2.500   2.133   2.398  2.4609 -0.7644 -0.1791
26561SOL    HW281691   2.469   2.264   2.468  0.8765 -0.7499 -0.8661
26562SOL     OW81692   6.220   7.736   1.641  0.2652  0.0750 -0.0740
26562SOL    HW181693   6.276   7.813   1.630  0.2051  0.2182  0.5475
26562SOL    HW281694   6.206   7.731   1.736 -1.2123  0.3687 -0.2462
26563SOL     OW81695   0.496  10.625   2.956 -0.4829  0.3031 -0.6190
26563SOL    HW181696   0.445  10.697   2.994 -0.7176  1.5171 -3.0613
26563SOL    HW281697   0.438  10.549   2.962 -2.8010  1.6457 -3.3438
26564SOL     OW81698   0.970   5.945   6.864 -0.8562 -0.2877  0.3479
26564SOL    HW181699   0.957   6.040   6.871 -2.0355 -0.4983  1.4234
26564SOL    HW281700   1.064   5.933   6.869 -0.7191  0.8020  0.6182
26565SOL     OW81701   4.713   4.024   8.448 -0.0200  0.2869  0.1489
26565SOL    HW181702   4.675   4.079   8.516  0.7523  0.7141  0.2378
26565SOL    HW281703   4.690   3.934   8.473  1.0898  0.3577  1.5004
26566SOL     OW81704   9.525   6.610   6.336  0.0743 -0.3199 -0.4000
26566SOL    HW181705   9.502   6.696   6.371  0.3285 -0.3206 -0.2344
26566SOL    HW281706   9.526   6.623   6.241 -1.0077 -0.4120 -0.4419
26567SOL     OW81707   2.254   3.531   0.078 -0.6186  0.1092  0.0507
26567SOL    HW181708   2.263   3.536   0.173  0.3043  0.4574 -0.0483
26567SOL    HW281709   2.272   3.439   0.057  2.8315  0.6944 -0.1086
26568SOL     OW81710   1.295   6.442   6.041 -0.6095 -0.1747  0.3673
26568SOL    HW181711   1.247   6.377   6.092  0.0200  0.8723  2.4088
26568SOL    HW281712   1.230   6.509   6.021 -0.5585  0.0875  1.0512
26569SOL     OW81713   2.381   4.890   3.451 -0.0645  0.0802 -0.1636
26569SOL    HW181714   2.336   4.935   3.523  1.4422 -1.2868  1.7243
26569SOL    HW281715   2.365   4.797   3.467  1.7265 -0.3273 -0.5830
26570SOL     OW81716   8.858   5.532   6.497 -0.5422  0.0404  0.0629
26570SOL    HW181717   8.852   5.457   6.438 -0.5101 -0.3701  0.5771
26570SOL    HW281718   8.949   5.531   6.528  0.9805  3.0769 -3.5489
26571SOL     OW81719   1.810   7.748   9.064 -0.2312  0.4774  0.1923
26571SOL    HW181720   1.750   7.673   9.066 -0.7572  0.9040  1.5919
26571SOL    HW281721   1.851   7.743   8.978  1.4364 -2.7587  1.0233
26572SOL     OW81722   4.394   7.237   3.281 -0.2125  0.2580 -0.6360
26572SOL    HW181723   4.421   7.328   3.293 -0.7821  0.4686 -0.9337
26572SOL    HW281724   4.298   7.239   3.283 -0.2844 -0.0953 -2.2606
26573SOL     OW81725   2.621   7.510   9.018  0.6608 -0.4913  0.0578
26573SOL    HW181726   2.601   7.530   9.110  0.2701 -0.9913  0.0836
26573SOL    HW281727   2.622   7.596   8.975  3.1460  0.0206  0.9407
26574SOL     OW81728   7.229   3.258   1.170 -0.0230  0.0814 -0.1007
26574SOL    HW181729   7.181   3.299   1.242 -2.0796  2.6132 -2.6478
26574SOL    HW281730   7.162   3.243   1.103  1.9051 -1.3966 -1.8024
26575SOL     OW81731   4.274   6.638  11.027  0.7720 -0.6126 -0.5967
26575SOL    HW181732   4.193   6.679  11.057  1.0152  0.3817 -1.2376
26575SOL    HW281733   4.248   6.593  10.946  0.6985 -0.9848 -0.3707
26576SOL     OW81734   6.124   1.284  10.961 -0.0447 -0.3373  0.1561
26576SOL    HW181735   6.104   1.292  11.054  0.6473 -0.1488  0.2973
26576SOL    HW281736   6.186   1.211  10.956 -0.9738 -1.1170 -0.3009
26577SOL     OW81737  10.667   5.389   6.143 -0.6041  0.7753  0.0974
26577SOL    HW181738  10.724   5.431   6.207  0.3844  0.8935 -0.8385
26577SOL    HW281739  10.642   5.306   6.184  2.4673 -0.5883 -0.5182
26578SOL     OW81740   5.534   7.275  10.420 -0.0042  0.0774 -0.2531
26578SOL    HW181741   5.473   7.326  10.474  0.7027 -0.7945  1.3989
26578SOL    HW281742   5.511   7.184  10.436 -0.0477 -0.2185 -1.7820
26579SOL     OW81743   3.692   6.953   8.618  0.2428 -0.2809 -0.0193
26579SOL    HW181744   3.731   6.876   8.576 -1.5578 -0.8051 -0.8493
26579SOL    HW281745   3.686   7.018   8.549  0.1592 -0.0215  0.2316
26580SOL     OW81746   5.154   2.672   2.690 -0.2380 -0.0556 -0.4552
26580SOL    HW181747   5.189   2.724   2.618  0.0877  2.1287  1.1771
26580SOL    HW281748   5.223   2.607   2.707  0.4869  0.5662 -0.9363
26581SOL     OW81749   6.582   8.051   5.988  0.0146  0.4571  0.3696
26581SOL    HW181750   6.503   8.075   5.939  0.3677 -0.7795 -0.8849
26581SOL    HW281751   6.553   8.042   6.078 -1.3695 -0.3671 -0.1385
26582SOL     OW81752   1.262   5.060   2.407  0.2059 -0.8893 -0.1466
26582SOL    HW181753   1.202   5.103   2.467 -2.2445 -2.8351 -1.0014
26582SOL    HW281754   1.222   5.071   2.321  2.1579 -0.5735 -1.0762
26583SOL     OW81755   3.532   4.819   7.910 -0.7173 -0.2658 -0.3390
26583SOL    HW181756   3.452   4.836   7.861 -0.8016  1.5990  0.3744
26583SOL    HW281757   3.603   4.844   7.851 -0.6053 -2.0933 -1.0407
26584SOL     OW81758   3.407   7.376  10.618  0.5886  0.0000  0.1964
26584SOL    HW181759   3.338   7.323  10.658 -0.0114 -1.4070 -2.4105
26584SOL    HW281760   3.372   7.398  10.531  0.9752  4.4809  0.9405
26585SOL     OW81761  10.712   2.674   8.855 -0.6055 -0.3099  0.1359
26585SOL    HW181762  10.711   2.609   8.925  0.0417 -0.7175 -0.2309
26585SOL    HW281763  10.794   2.722   8.869 -1.4827  1.0342  0.9424
26586SOL     OW81764   9.187  10.736   3.882  0.0172  0.0532 -0.0677
26586SOL    HW181765   9.178  10.757   3.975 -1.8369 -0.7327 -0.0207
26586SOL    HW281766   9.178  10.640   3.878 -3.3866  0.2907 -1.3045
26587SOL     OW81767   1.543   7.881   1.319  0.6822 -0.3336  0.5312
26587SOL    HW181768   1.555   7.974   1.300  2.1555  0.1215  3.2102
26587SOL    HW281769   1.630   7.843   1.309  0.4583 -1.0531  1.2332
26588SOL     OW81770   9.824   4.154   6.238  0.4232 -0.4244 -0.3425
26588SOL    HW181771   9.837   4.142   6.332  1.5307 -0.6028 -0.5091
26588SOL    HW281772   9.752   4.095   6.216  0.4443 -0.6981  0.3118
26589SOL     OW81773   2.827   6.853   6.475  0.2256  0.5370  0.3603
26589SOL    HW181774   2.779   6.826   6.397 -0.1760  2.1791  0.0048
26589SOL    HW281775   2.854   6.771   6.516 -1.8895 -0.4253 -0.0492
26590SOL     OW81776   7.085   3.619   4.331 -0.3593 -0.3867 -0.0308
26590SOL    HW181777   7.152   3.589   4.270 -0.5362 -2.3462  0.6634
26590SOL    HW281778   7.051   3.700   4.292  0.3839 -0.9153 -1.8800
26591SOL     OW81779   8.104   1.288   3.018 -0.4679  0.5696  0.5318
26591SOL    HW181780   8.193   1.321   3.033  0.6966 -1.7521 -0.6156
26591SOL    HW281781   8.077   1.328   2.935  0.3660 -0.2224 -0.1477
26592SOL     OW81782   5.927   2.187   1.400  0.4673  0.1306 -0.0497
26592SOL    HW181783   5.989   2.132   1.448 -0.2540 -0.3818  0.3169
26592SOL    HW281784   5.971   2.206   1.318  0.9325 -0.5937  0.0193
26593SOL     OW81785   8.862   6.549   1.267  0.2319  0.0939 -0.0170
26593SOL    HW181786   8.852   6.599   1.186  0.8290 -1.2208 -0.9518
26593SOL    HW281787   8.954   6.521   1.266 -0.0178 -0.7773  0.5988
26594SOL     OW81788   5.676  10.626   9.967 -0.0285 -0.2579  0.1341
26594SOL    HW181789   5.596  10.576   9.953 -1.4536  1.9807 -0.1913
26594SOL    HW281790   5.667  10.703   9.910  1.6912  0.7775  1.1479
26595SOL     OW81791   9.879   5.086   0.553  0.2130  0.3457 -0.2286
26595SOL    HW181792   9.812   5.067   0.619  0.4041 -0.8917 -0.3807
26595SOL    HW281793   9.954   5.117   0.603 -0.6922  2.4996 -0.1010
26596SOL     OW81794  10.880   4.079   6.507 -0.3529  0.5560 -0.6050
26596SOL    HW181795  10.941   4.115   6.442  0.0098 -2.9431 -2.4314
26596SOL    HW281796  10.928   4.082   6.590  0.6553  1.5936 -1.1960
26597SOL     OW81797   2.515   2.479   5.878  0.0065 -0.1229 -0.2788
26597SOL    HW181798   2.449   2.548   5.868  0.1536  0.0575 -0.0053
26597SOL    HW281799   2.552   2.493   5.965 -1.5218 -1.8945  0.7592
26598SOL     OW81800   8.478   4.217   5.092  0.6540  0.3918 -1.1391
26598SOL    HW181801   8.493   4.258   5.177 -0.8210  1.7678 -1.5175
26598SOL    HW281802   8.394   4.250   5.063  1.4757  0.5845 -3.5236
26599SOL     OW81803   0.214   4.365   7.706 -0.7107 -0.2613 -1.0409
26599SOL    HW181804   0.138   4.308   7.715 -0.4955 -0.3942  0.0835
26599SOL    HW281805   0.289   4.306   7.714 -0.4836 -0.0009 -1.2232
26600SOL     OW81806   8.843   5.485  10.678  0.2378  0.3909 -0.0473
26600SOL    HW181807   8.791   5.502  10.756 -0.8304 -0.2712 -0.6011
26600SOL    HW281808   8.899   5.411  10.702  0.2599  0.5039  0.2482
26601SOL     OW81809  10.639   4.756   8.749  0.1516  0.0514 -0.3871
26601SOL    HW181810  10.550   4.723   8.738  0.5298 -2.3231  2.5075
26601SOL    HW281811  10.684   4.731   8.668 -0.7406 -2.7417 -0.1298
26602SOL     OW81812   8.172   6.810   9.120  0.0583  0.0906  0.5956
26602SOL    HW181813   8.096   6.789   9.173 -1.4802  0.8403 -1.2108
26602SOL    HW281814   8.221   6.728   9.115 -2.2812 -1.3302 -0.7769
26603SOL     OW81815  10.565   4.721   9.834 -0.1447 -0.0742  0.4728
26603SOL    HW181816  10.635   4.709   9.899 -0.2162 -0.9982  0.3986
26603SOL    HW281817  10.581   4.651   9.770 -0.2242  0.6699 -0.3753
26604SOL     OW81818   8.879   4.217   2.664  0.0146 -0.2644  0.0252
26604SOL    HW181819   8.847   4.200   2.753  2.9166  2.6370  1.8504
26604SOL    HW281820   8.846   4.304   2.643 -1.3729 -1.2527 -2.2588
26605SOL     OW81821   3.360   1.619   3.030  0.4006 -0.6845  0.7829
26605SOL    HW181822   3.399   1.647   3.113 -1.0197 -0.2915  1.3508
26605SOL    HW281823   3.397   1.678   2.964 -0.9272  1.2387  1.6478
26606SOL     OW81824   3.615   2.097   8.125 -0.3859  0.4438  0.3300
26606SOL    HW181825   3.586   2.178   8.084 -0.4959 -0.2200 -0.9629
26606SOL    HW281826   3.687   2.124   8.183  0.1741  1.3452 -0.7505
26607SOL     OW81827   3.072   8.887   3.982 -0.3798 -0.7431  0.2548
26607SOL    HW181828   3.120   8.827   4.039  1.8728  1.6250  1.1112
26607SOL    HW281829   3.078   8.972   4.027 -0.9514  0.6694 -2.1467
26608SOL     OW81830  10.532   8.592   3.341 -0.7786  0.2753  0.4332
26608SOL    HW181831  10.603   8.535   3.371 -0.0962 -0.8855 -2.9433
26608SOL    HW281832  10.455   8.534   3.339 -0.5686  0.0014 -0.9201
26609SOL     OW81833   3.100   7.391   1.772 -0.4886  0.0847 -0.5879
26609SOL    HW181834   3.093   7.487   1.773  2.2314  0.5215 -4.1316
26609SOL    HW281835   3.139   7.369   1.856 -3.4531  1.6477  1.4158
26610SOL     OW81836   5.761   9.319   0.352  0.2962 -0.0624 -0.7221
26610SOL    HW181837   5.760   9.349   0.443 -0.3468  1.7967 -1.2785
26610SOL    HW281838   5.705   9.242   0.351 -0.2080  0.2775  0.3522
26611SOL     OW81839   5.646   8.900   1.145 -0.8794  0.3468 -0.0608
26611SOL    HW181840   5.556   8.933   1.141 -0.7774  0.4865 -2.6031
26611SOL    HW281841   5.677   8.902   1.055  1.5110 -0.2460  0.6632
26612SOL     OW81842   7.595   0.619   2.976  0.2370  0.7265 -0.3329
26612SOL    HW181843   7.515   0.594   3.024  2.2460 -0.7462  2.5595
26612SOL    HW281844   7.575   0.598   2.885 -1.0073 -4.7972  0.8076
26613SOL     OW81845   2.556  10.668   8.407  0.2751  0.3652  0.1206
26613SOL    HW181846   2.613  10.615   8.352 -1.0197  0.2915 -1.1843
26613SOL    HW281847   2.617  10.718   8.462  1.6318  0.8556 -1.7281
26614SOL     OW81848   3.939   0.528   8.124  0.0239 -0.4934  0.1267
26614SOL    HW181849   3.869   0.463   8.132 -0.0975 -0.6278 -1.6076
26614SOL    HW281850   3.915   0.597   8.185  0.3024 -2.1526  2.2439
26615SOL     OW81851   3.032   9.528   9.671  0.3796  0.3944 -0.2860
26615SOL    HW181852   3.091   9.507   9.743  1.1906  0.4040 -0.9256
26615SOL    HW281853   3.090   9.557   9.601 -0.3116 -0.6540 -1.3184
26616SOL     OW81854   0.962   8.980   3.388  0.2894  1.0226  0.3821
26616SOL    HW181855   1.011   8.905   3.420  0.1339  1.1472  0.9239
26616SOL    HW281856   0.879   8.977   3.436 -0.1006  1.0032 -0.2795
26617SOL     OW81857   8.544   8.888   8.704 -0.3177 -0.5319  0.1156
26617SOL    HW181858   8.509   8.824   8.766 -1.6704  1.2491  1.3024
26617SOL    HW281859   8.601   8.944   8.757 -0.6534  0.3865 -0.4790
26618SOL     OW81860   7.638  10.550   6.012  0.0359 -0.1969  0.9207
26618SOL    HW181861   7.598  10.482   6.066  0.3502 -1.5710 -0.5158
26618SOL    HW281862   7.723  10.566   6.054  0.9409 -2.3470  0.0547
26619SOL     OW81863   3.743   7.639   3.501 -0.2655  0.5252 -0.5901
26619SOL    HW181864   3.760   7.627   3.595  0.2473 -2.1465 -0.9388
26619SOL    HW281865   3.648   7.648   3.496 -0.3148  0.5406  0.1868
26620SOL     OW81866   0.008   7.651   3.867 -0.8395  0.2407  0.8195
26620SOL    HW181867  -0.086   7.654   3.847 -0.6190  0.3853 -0.2718
26620SOL    HW281868   0.041   7.578   3.813  0.1703  2.0354 -1.1318
26621SOL     OW81869  10.569   7.767   6.986 -0.6875  0.2982  0.1001
26621SOL    HW181870  10.661   7.768   7.015 -0.2752  0.0941 -1.1335
26621SOL    HW281871  10.535   7.684   7.019  0.1976 -0.6273 -1.1876
26622SOL     OW81872  10.304   4.241   8.841  0.0113  0.1845 -0.7067
26622SOL    HW181873  10.367   4.232   8.769  1.4917  0.3709  0.5079
26622SOL    HW281874  10.242   4.308   8.811  0.6722  0.3372 -1.7597
26623SOL     OW81875   2.865   3.801   9.610 -0.6893  0.6361 -0.2029
26623SOL    HW181876   2.919   3.810   9.532 -1.5751  3.2120 -0.5928
26623SOL    HW281877   2.784   3.762   9.579  0.1262 -1.4394  0.0702
26624SOL     OW81878   3.979   8.869   2.284  0.4643  0.4120  0.2732
26624SOL    HW181879   4.023   8.946   2.248 -0.0299  0.6716  0.2072
26624SOL    HW281880   4.043   8.798   2.277  0.5059  0.5351 -0.8121
26625SOL     OW81881   8.154   3.785   8.998 -0.4480 -0.5127  0.1461
26625SOL    HW181882   8.243   3.773   9.029 -0.6658  0.3568  1.1382
26625SOL    HW281883   8.112   3.700   9.012  0.3085 -1.0529 -0.7062
26626SOL     OW81884   1.132  10.803   1.039  0.2624  0.6830 -0.9925
26626SOL    HW181885   1.038  10.802   1.022  0.2101 -1.2939 -0.8739
26626SOL    HW281886   1.148  10.885   1.085 -1.7054  0.2840  0.5114
26627SOL     OW81887   5.061   8.497   2.222  0.2246 -0.4190 -0.0507
26627SOL    HW181888   4.992   8.456   2.171 -0.7799  1.3105 -0.1664
26627SOL    HW281889   5.136   8.501   2.162 -1.1623  2.2861 -1.8064
26628SOL     OW81890   7.754  10.391   6.837  0.0006 -0.0044 -0.1235
26628SOL    HW181891   7.761  10.408   6.743  0.1440 -1.4153 -0.3903
26628SOL    HW281892   7.806  10.312   6.851 -0.0405  0.1673  1.1468
26629SOL     OW81893   3.254   5.044   0.944 -0.1179 -0.1007  0.2733
26629SOL    HW181894   3.203   4.969   0.974 -1.5183  1.1852  1.1847
26629SOL    HW281895   3.195   5.119   0.951  1.2782  1.1343 -0.5101
26630SOL     OW81896   2.190   6.339   2.571  0.5936  0.2722 -0.0639
26630SOL    HW181897   2.261   6.397   2.543  0.2133  1.3069  1.0789
26630SOL    HW281898   2.205   6.258   2.522  0.6211  1.5966 -2.3518
26631SOL     OW81899   1.490   0.773   6.360  0.6838 -0.2580 -0.6026
26631SOL    HW181900   1.470   0.679   6.358  0.3969 -0.3235  2.2520
26631SOL    HW281901   1.418   0.813   6.311 -0.9035 -1.3368  0.7201
26632SOL     OW81902   6.655   8.763   1.998  0.2012 -0.0477  0.5351
26632SOL    HW181903   6.684   8.833   1.940  1.1633  2.3445  3.5846
26632SOL    HW281904   6.682   8.682   1.954 -0.8208  1.3881 -3.0991
26633SOL     OW81905  10.154   3.850   5.764 -0.5025 -0.0956  0.3716
26633SOL    HW181906  10.065   3.883   5.769 -0.8296 -0.6957 -1.0942
26633SOL    HW281907  10.195   3.900   5.694  0.7984  1.1876  1.9662
26634SOL     OW81908   1.399   5.056   7.435  0.1897 -0.1533  0.2628
26634SOL    HW181909   1.382   4.967   7.405  0.7621 -0.9158  2.0964
26634SOL    HW281910   1.312   5.095   7.446 -0.0617  0.2275 -2.3902
26635SOL     OW81911   5.651   0.011   5.670 -0.4412 -0.7392  0.5136
26635SOL    HW181912   5.686  -0.076   5.650 -0.3176 -0.3717 -0.9514
26635SOL    HW281913   5.714   0.047   5.733  0.1714 -1.2452  0.2080
26636SOL     OW81914   0.307   2.545   2.585 -0.1944 -0.0817 -0.4468
26636SOL    HW181915   0.265   2.511   2.506  0.6497 -0.2368 -0.8381
26636SOL    HW281916   0.239   2.597   2.627 -1.1408 -1.3103 -0.4326
26637SOL     OW81917   9.910   1.341   3.528  0.5982 -0.1169  0.1082
26637SOL    HW181918   9.835   1.338   3.588 -0.3640 -0.0465 -1.0542
26637SOL    HW281919   9.971   1.402   3.569 -0.0517 -0.0387  0.9958
26638SOL     OW81920   2.477   9.060   6.482 -0.0639  0.3700 -0.1182
26638SOL    HW181921   2.446   8.969   6.480 -0.0982  0.3746  0.2070
26638SOL    HW281922   2.487   9.083   6.389 -1.9405  0.6928 -0.2717
26639SOL     OW81923   5.882   8.839   5.906  0.2689  1.5142  0.3396
26639SOL    HW181924   5.943   8.770   5.880 -1.2628 -0.3919  1.5593
26639SOL    HW281925   5.861   8.884   5.824  1.3963  0.6202 -0.4690
26640SOL     OW81926   0.600   0.622   3.238  0.2556 -0.2869  0.1560
26640SOL    HW181927   0.679   0.675   3.251  1.0850 -1.3591 -0.3583
26640SOL    HW281928   0.624   0.535   3.270 -0.8171 -0.5664  0.2379
26641SOL     OW81929   0.849  10.446  11.033  0.0097  0.1826  0.8794
26641SOL    HW181930   0.810  10.492  10.959  0.2027 -1.0207  0.0069
26641SOL    HW281931   0.936  10.486  11.043  0.4861 -0.5020 -0.3725
26642SOL     OW81932   4.210   8.744  10.797 -0.5040 -0.0433 -0.2391
26642SOL    HW181933   4.217   8.802  10.872 -1.8955  0.0956 -0.2046
26642SOL    HW281934   4.298   8.744  10.759  0.0607  0.3665  1.0152
26643SOL     OW81935  10.722  10.777   4.042  0.1055 -0.2878  0.1785
26643SOL    HW181936  10.754  10.693   4.075 -1.2131  0.2985  3.3000
26643SOL    HW281937  10.790  10.840   4.065 -0.5075  0.0193  1.2100
26644SOL     OW81938   1.991   5.511  10.363  0.0891 -0.8520 -0.1504
26644SOL    HW181939   1.978   5.578  10.431  0.3077  0.1782 -1.0824
26644SOL    HW281940   2.086   5.509  10.350 -0.0525  3.3453 -4.4805
26645SOL     OW81941   4.257   2.923   9.908 -0.2604 -1.0884 -0.5498
26645SOL    HW181942   4.190   2.940   9.974 -1.0434  3.4091 -2.1353
26645SOL    HW281943   4.209   2.914   9.826  0.8999 -1.9616 -1.1605
26646SOL     OW81944  11.055  10.021   4.720 -1.0783 -0.3408  0.6979
26646SOL    HW181945  11.084   9.943   4.766  0.9996 -0.0394 -0.0172
26646SOL    HW281946  11.130  10.047   4.666 -2.2052  1.3374 -0.1549
26647SOL     OW81947   1.783   0.298   7.877 -0.2764 -0.5962 -0.3315
26647SOL    HW181948   1.785   0.317   7.783 -1.5110 -0.6696 -0.3846
26647SOL    HW281949   1.874   0.309   7.905  0.1274 -0.6249 -1.5410
26648SOL     OW81950   8.189   1.085   3.201  0.2144 -0.1933  0.3977
26648SOL    HW181951   8.117   1.048   3.252  2.1780 -2.6745  1.6527
26648SOL    HW281952   8.147   1.133   3.130 -2.6576 -1.8996  0.7846
26649SOL     OW81953   1.922   4.174   0.899 -0.3754 -0.2597  0.5472
26649SOL    HW181954   1.925   4.081   0.918 -0.3040 -0.5977 -1.0222
26649SOL    HW281955   1.954   4.216   0.980  0.4593 -1.6174  0.9505
26650SOL     OW81956   2.824   4.464   5.783  0.1634 -0.0379  0.2142
26650SOL    HW181957   2.803   4.389   5.839  1.9070 -0.5809  0.2326
26650SOL    HW281958   2.740   4.505   5.763 -0.5560  0.2251  3.2826
26651SOL     OW81959   5.962  10.118   0.263 -0.2180 -0.1812  0.6244
26651SOL    HW181960   5.969  10.034   0.218  1.9030 -0.6889  1.7795
26651SOL    HW281961   5.878  10.114   0.308 -0.9055 -0.9677 -0.6482
26652SOL     OW81962   5.018   8.117   4.581  0.4114  0.2791  0.2187
26652SOL    HW181963   5.073   8.040   4.565  2.4445  1.0460  2.7420
26652SOL    HW281964   5.033   8.173   4.505  1.6330 -0.3859 -0.0602
26653SOL     OW81965   7.021   6.138   8.677 -0.6705 -0.2350 -0.1684
26653SOL    HW181966   7.082   6.180   8.738 -1.0908 -0.2664  0.2786
26653SOL    HW281967   7.077   6.100   8.609 -0.2511  0.5374 -0.2584
26654SOL     OW81968   7.423   4.366   0.973  0.4310 -0.4766 -0.0506
26654SOL    HW181969   7.442   4.385   1.065  1.2838 -0.9968 -0.1045
26654SOL    HW281970   7.438   4.449   0.928 -1.3018  0.1500  0.4306
26655SOL     OW81971   6.886   3.738   6.953  0.1889 -0.3456 -0.2530
26655SOL    HW181972   6.949   3.686   6.904  0.9504 -0.2463  0.5921
26655SOL    HW281973   6.928   3.753   7.038 -1.0705 -0.4953  0.4326
26656SOL     OW81974   7.700   3.899   3.468  0.3311 -0.3790 -0.1162
26656SOL    HW181975   7.607   3.876   3.458  0.0847  0.2024  0.7047
26656SOL    HW281976   7.741   3.869   3.387 -1.0820  2.0148 -1.8339
26657SOL     OW81977   1.856   0.144   7.180 -0.1790 -0.1232 -0.2486
26657SOL    HW181978   1.929   0.187   7.134  1.7561 -1.0492  1.8181
26657SOL    HW281979   1.857   0.054   7.147 -1.2613  0.1636 -1.1392
26658SOL     OW81980   4.427   0.499   1.454  0.2698 -0.1250  0.1245
26658SOL    HW181981   4.390   0.451   1.527 -0.7935  0.1335 -0.2304
26658SOL    HW281982   4.521   0.500   1.471  0.1995 -1.4338  0.6559
26659SOL     OW81983   7.719   3.740   8.481  0.1889 -0.2873 -0.1985
26659SOL    HW181984   7.651   3.805   8.499  0.7629  0.2888 -0.0578
26659SOL    HW281985   7.801   3.786   8.500  0.6849 -0.5616 -1.6069
26660SOL     OW81986   3.709   9.263  10.220 -0.6706 -0.2968  0.3818
26660SOL    HW181987   3.703   9.264  10.124  1.1417  1.0364  0.2317
26660SOL    HW281988   3.712   9.356  10.244 -1.7908 -0.5905  1.8203
26661SOL     OW81989   2.753   8.564   8.686 -0.6774  0.0200 -0.0509
26661SOL    HW181990   2.688   8.634   8.674 -0.2673  0.3990 -0.0927
26661SOL    HW281991   2.721   8.492   8.631 -1.4826 -0.0926  0.5493
26662SOL     OW81992   5.597   2.354   7.781  0.2220 -0.0691 -0.1138
26662SOL    HW181993   5.677   2.301   7.775  0.4138  0.2396 -0.3019
26662SOL    HW281994   5.625   2.443   7.759 -0.1275  0.0868  0.0616
26663SOL     OW81995  10.576   2.384   0.954  0.0501 -0.2115  0.2778
26663SOL    HW181996  10.629   2.464   0.950 -0.1859  0.0262  1.5408
26663SOL    HW281997  10.599   2.336   0.874  0.8891  0.6791 -0.0365
26664SOL     OW81998   7.608   2.609   0.686 -0.4914 -0.4178  0.3842
26664SOL    HW181999   7.671   2.634   0.619 -0.1426  1.5713  1.3969
26664SOL    HW282000   7.530   2.661   0.667  0.1756  1.4868  2.4056
26665SOL     OW82001   8.972   1.945   7.544  0.4697  0.0550  0.1057
26665SOL    HW182002   8.886   1.953   7.504  0.0684 -1.3406  0.6112
26665SOL    HW282003   9.034   1.964   7.473 -0.1774 -3.2173 -1.5579
26666SOL     OW82004   3.191   8.774  10.011 -0.2436  0.2215  0.1274
26666SOL    HW182005   3.142   8.710  10.064 -0.6108  1.4952  1.3630
26666SOL    HW282006   3.224   8.722   9.937 -1.4807 -1.1691  0.4887
26667SOL     OW82007  10.782   0.597   0.118 -0.6563 -0.1144  0.5398
26667SOL    HW182008  10.727   0.674   0.129  0.5078  0.7213  0.7066
26667SOL    HW282009  10.763   0.566   0.029 -1.6535 -0.0702  0.7284
26668SOL     OW82010   1.599   3.614   5.560  0.3109 -0.0467 -0.6254
26668SOL    HW182011   1.621   3.697   5.602  0.9733 -0.1953 -0.6563
26668SOL    HW282012   1.504   3.616   5.550  0.4068  1.1559 -1.5488
26669SOL     OW82013   2.742   7.143   8.073  0.4370 -0.2860 -0.1019
26669SOL    HW182014   2.652   7.111   8.075  0.3765 -0.3481 -1.9436
26669SOL    HW282015   2.735   7.237   8.094  0.1476 -0.6004  1.2833
26670SOL     OW82016   6.635   8.447   1.856  0.1702 -0.1123 -0.1434
26670SOL    HW182017   6.623   8.360   1.817  0.6846 -0.6224  0.8017
26670SOL    HW282018   6.665   8.501   1.783  0.8282 -0.9814 -0.5464
26671SOL     OW82019   4.385   4.080   1.037 -0.1697 -0.2458  1.0017
26671SOL    HW182020   4.446   4.023   0.989 -0.4213  1.2703 -1.2289
26671SOL    HW282021   4.302   4.032   1.036 -0.8783  0.7636 -2.4701
26672SOL     OW82022   9.727   7.052   8.453  0.4911 -0.1073 -0.7149
26672SOL    HW182023   9.785   7.004   8.513 -0.6891 -0.3943  0.2476
26672SOL    HW282024   9.759   7.142   8.456 -0.8009  0.3759  2.1038
26673SOL     OW82025   6.539  11.012  10.625  0.3235 -0.5042  0.6766
26673SOL    HW182026   6.551  11.079  10.693 -1.8471 -0.2647  0.9048
26673SOL    HW282027   6.582  10.934  10.660 -1.8914 -0.7939  3.0563
26674SOL     OW82028   1.242   1.724   0.874  0.1850  0.6212 -0.5368
26674SOL    HW182029   1.271   1.728   0.966 -0.3495  0.0579 -0.3379
26674SOL    HW282030   1.250   1.632   0.851  0.3587  0.7689 -1.0769
26675SOL     OW82031  10.799   4.958   4.064 -0.1427 -0.3580 -0.8321
26675SOL    HW182032  10.759   4.873   4.083 -1.0269  0.1767 -0.2798
26675SOL    HW282033  10.888   4.936   4.037 -0.2307 -1.4407 -0.3049
26676SOL     OW82034   8.559   1.789   5.134 -0.2852 -0.1926 -0.5061
26676SOL    HW182035   8.599   1.708   5.165  0.5768  0.1751 -0.6398
26676SOL    HW282036   8.465   1.776   5.147 -0.0765 -0.7992  0.4465
26677SOL     OW82037   3.906   7.504   3.088 -0.5386  0.5518 -0.3085
26677SOL    HW182038   3.958   7.449   3.030  0.3141  0.6483  0.3376
26677SOL    HW282039   3.817   7.501   3.052 -0.0731  0.4547 -1.4946
26678SOL     OW82040   7.148   1.558   1.602  0.1206 -0.6294  0.0415
26678SOL    HW182041   7.223   1.599   1.560  0.0140 -0.1351  0.3240
26678SOL    HW282042   7.117   1.623   1.666 -0.6523 -0.7509 -0.1971
26679SOL     OW82043   5.303   3.684   4.344  0.4854  0.2387 -0.7574
26679SOL    HW182044   5.211   3.692   4.370  0.6726 -1.1868  0.4800
26679SOL    HW282045   5.320   3.761   4.291 -0.9923  1.3510  0.3183
26680SOL     OW82046   5.642   1.180   0.533 -0.8694 -0.0185 -0.4202
26680SOL    HW182047   5.662   1.238   0.607  0.7563  0.6945 -1.3607
26680SOL    HW282048   5.675   1.095   0.559 -0.6431  0.1427 -0.1724
26681SOL     OW82049   4.369  10.795   9.400 -0.0857 -0.2574 -0.5516
26681SOL    HW182050   4.286  10.747   9.401  0.7437 -1.7652 -0.0813
26681SOL    HW282051   4.418  10.754   9.328  1.3580 -1.4682  1.0303
26682SOL     OW82052   4.370   9.100   3.175  0.2085  0.2570 -0.2653
26682SOL    HW182053   4.370   9.008   3.200  0.6971 -0.2484 -1.9377
26682SOL    HW282054   4.311   9.143   3.237  0.4131 -1.0691  0.8895
26683SOL     OW82055   5.580   4.835   0.431  1.1744  0.4007 -0.1392
26683SOL    HW182056   5.486   4.819   0.429  1.3305 -0.4669 -0.7411
26683SOL    HW282057   5.590   4.921   0.390  0.6514  0.4968 -0.0728
26684SOL     OW82058   7.712   6.535  10.257 -0.1638 -0.1863  0.1367
26684SOL    HW182059   7.770   6.551  10.181 -0.6872 -0.1434 -0.2574
26684SOL    HW282060   7.624   6.536  10.220 -0.5684  1.6575  1.0274
26685SOL     OW82061   6.035   6.521  11.033 -0.0283 -0.3959  0.2912
26685SOL    HW182062   5.943   6.540  11.012 -0.3178  0.6293  2.2543
26685SOL    HW282063   6.032   6.439  11.081 -0.1028  0.2786  1.4751
26686SOL     OW82064   6.008   2.891   9.483  0.0918 -0.8615  0.3490
26686SOL    HW182065   6.078   2.825   9.488  0.9863  0.1407  1.5368
26686SOL    HW282066   6.035   2.960   9.543  0.8210  2.1748 -3.0760
26687SOL     OW82067   5.939   4.943   1.387  0.2462  0.2603 -0.1919
26687SOL    HW182068   5.990   4.893   1.451  2.2165  3.8335  1.3140
26687SOL    HW282069   5.882   4.998   1.439 -1.1076  0.3724 -1.7265
26688SOL     OW82070   2.166   9.005   6.752  0.2900 -0.0122 -0.3856
26688SOL    HW182071   2.120   9.089   6.759  2.0728  0.8831  1.3636
26688SOL    HW282072   2.099   8.940   6.774 -1.4542  0.7506 -2.9095
26689SOL     OW82073   3.092   8.040   6.038 -0.3276 -0.2672  0.1723
26689SOL    HW182074   3.013   7.990   6.022 -0.1599 -0.2623 -0.7037
26689SOL    HW282075   3.108   8.030   6.132 -1.2785 -0.3847  0.3309
26690SOL     OW82076   7.460   6.936  10.405  0.3446  0.5600  0.0309
26690SOL    HW182077   7.412   7.008  10.447 -0.5507 -0.8105  1.4324
26690SOL    HW282078   7.523   6.907  10.471  0.4891 -0.1564 -0.4113
26691SOL     OW82079   1.313   1.283   2.889  0.1926 -0.0634  0.1077
26691SOL    HW182080   1.342   1.303   2.800  0.2368  2.2116  0.5639
26691SOL    HW282081   1.311   1.188   2.894  3.0769 -0.2806 -1.3929
26692SOL     OW82082   0.910   9.525   5.230  0.1089  0.4425  0.0224
26692SOL    HW182083   0.915   9.507   5.137 -1.6882  0.8640 -0.2036
26692SOL    HW282084   0.817   9.544   5.246  0.6852  2.4643  1.5035
26693SOL     OW82085   2.367   8.190   1.724 -0.5709  0.1962 -0.7553
26693SOL    HW182086   2.431   8.213   1.658  1.4367  0.1910  1.0716
26693SOL    HW282087   2.411   8.125   1.779 -1.6857  1.0051  1.2148
26694SOL     OW82088   4.485   7.592  10.946 -0.2822 -0.4714 -0.1724
26694SOL    HW182089   4.428   7.663  10.917  0.8853 -0.1089 -1.7633
26694SOL    HW282090   4.556   7.636  10.993 -1.9707 -1.0298  3.1825
26695SOL     OW82091   8.259   4.694   3.051  0.1711  0.2280 -0.5625
26695SOL    HW182092   8.249   4.603   3.025 -2.5187  0.3967 -0.4819
26695SOL    HW282093   8.282   4.690   3.144  0.0404 -0.3834 -0.5533
26696SOL     OW82094   9.458   6.868   5.881 -0.0040 -0.4576 -0.1370
26696SOL    HW182095   9.385   6.881   5.821  0.9943  0.6727 -1.1572
26696SOL    HW282096   9.443   6.931   5.951 -0.3170 -0.6416 -0.0374
26697SOL     OW82097   2.015   0.059   4.923  0.0643 -0.2810 -0.4361
26697SOL    HW182098   2.058   0.078   5.007 -0.2355  2.1648 -0.7547
26697SOL    HW282099   2.061  -0.018   4.889  2.5060  0.7101  0.3847
26698SOL     OW82100   4.775   0.831   3.637 -0.1881 -0.9910  0.2298
26698SOL    HW182101   4.698   0.828   3.693 -0.2615 -1.4269  0.1076
26698SOL    HW282102   4.819   0.746   3.651 -1.5747 -2.2317 -2.2925
26699SOL     OW82103   2.032   7.218   9.774  0.4421 -0.3823  0.6178
26699SOL    HW182104   1.947   7.220   9.818  0.7333 -0.1508  1.1718
26699SOL    HW282105   2.037   7.301   9.726  0.9264  0.2183  1.6786
26700SOL     OW82106   2.577   0.586   9.811  0.4665  0.0233 -0.6825
26700SOL    HW182107   2.521   0.554   9.882 -0.9924 -1.8357 -2.5427
26700SOL    HW282108   2.665   0.590   9.850 -0.3109 -0.6834  1.2725
26701SOL     OW82109   9.172   4.635   5.127 -0.4624 -0.7446 -0.1416
26701SOL    HW182110   9.265   4.639   5.104 -0.6587  0.8393 -0.7693
26701SOL    HW282111   9.145   4.726   5.135 -2.0065 -1.1768 -0.0761
26702SOL     OW82112   2.275  10.776   1.543  0.7793 -0.6582 -0.1083
26702SOL    HW182113   2.356  10.788   1.593 -0.3395  1.7492  1.3176
26702SOL    HW282114   2.210  10.828   1.589 -1.2032 -1.1086 -2.1796
26703SOL     OW82115   0.384   3.109   0.664  0.3474 -0.0618  0.4350
26703SOL    HW182116   0.389   3.155   0.747 -2.0629 -1.6913  1.6025
26703SOL    HW282117   0.428   3.025   0.680  1.1174  0.1636 -0.4013
26704SOL     OW82118  10.654   8.141   9.577 -0.3693 -0.5681 -0.3956
26704SOL    HW182119  10.589   8.174   9.639  0.1013 -1.4135  0.5786
26704SOL    HW282120  10.717   8.212   9.567 -2.2150  0.8821 -2.5808
26705SOL     OW82121   7.428  10.051   8.264  0.1620 -0.6873  0.5702
26705SOL    HW182122   7.361   9.995   8.304  0.0634 -1.7593 -0.9749
26705SOL    HW282123   7.509  10.027   8.309  0.0691 -1.9191  0.1312
26706SOL     OW82124   4.807   4.495   3.023  0.0740  0.1734  0.1635
26706SOL    HW182125   4.778   4.414   2.980  0.3711  0.1882 -0.0646
26706SOL    HW282126   4.739   4.512   3.089  0.2564 -0.5283  0.5391
26707SOL     OW82127   8.105  10.834   0.217 -0.0762  0.5970  0.4249
26707SOL    HW182128   8.125  10.793   0.301 -0.8831  1.2421  0.9355
26707SOL    HW282129   8.152  10.780   0.153  0.7298  0.2339  1.3007
26708SOL     OW82130   0.030   9.447   5.407 -0.2124 -0.3065  0.2609
26708SOL    HW182131   0.014   9.391   5.483 -0.8103 -1.2029 -0.5109
26708SOL    HW282132  -0.030   9.415   5.340 -0.1841  0.9093 -0.3817
26709SOL     OW82133   2.937   6.848  10.969  0.1775 -0.1844  0.3423
26709SOL    HW182134   2.903   6.803  10.892  4.1781 -0.6567 -1.4077
26709SOL    HW282135   2.989   6.781  11.014  1.0726  1.0962  1.2744
26710SOL     OW82136   5.366  10.171   6.746 -0.5181  0.0678  0.6447
26710SOL    HW182137   5.290  10.218   6.709  0.3772  0.3591 -0.9051
26710SOL    HW282138   5.333  10.136   6.829 -2.5574 -0.3737 -0.2730
26711SOL     OW82139   3.660   5.870   3.971 -0.2369  0.5376  0.0533
26711SOL    HW182140   3.625   5.948   3.928 -0.4246  0.3401 -0.1586
26711SOL    HW282141   3.583   5.813   3.983  0.1315 -0.2835 -1.2165
26712SOL     OW82142   0.353  10.940   1.091 -0.2933 -0.3278  0.2391
26712SOL    HW182143   0.258  10.943   1.103 -0.3202 -1.4356  0.3997
26712SOL    HW282144   0.371  11.010   1.028 -0.9731  1.1327  1.5674
26713SOL     OW82145   9.666   0.335  10.853  0.3973 -0.5676  0.0587
26713SOL    HW182146   9.659   0.360  10.761  1.5058 -1.6318 -0.3305
26713SOL    HW282147   9.670   0.239  10.852  3.3828 -0.5477  0.9440
26714SOL     OW82148  10.350   0.142   1.019  0.4735 -0.1328 -0.5820
26714SOL    HW182149  10.296   0.065   1.034 -0.6242  0.9366  1.3598
26714SOL    HW282150  10.438   0.116   1.048 -0.0276 -0.4608  0.6779
26715SOL     OW82151   7.869   7.100   0.950  0.2262  0.7563 -0.4781
26715SOL    HW182152   7.784   7.130   0.981  0.8247  2.9631 -0.7662
26715SOL    HW282153   7.930   7.127   1.019  0.7542 -0.5425 -0.4102
26716SOL     OW82154   9.850   6.592   6.642 -0.0255  0.2592 -0.7456
26716SOL    HW182155   9.902   6.637   6.708  0.5022  1.9777 -2.2299
26716SOL    HW282156   9.909   6.527   6.605 -0.3218 -0.7031  0.4283
26717SOL     OW82157   0.525   9.552   1.530  0.0800  0.4274  0.2773
26717SOL    HW182158   0.581   9.619   1.569 -0.2890  2.0283 -1.8051
26717SOL    HW282159   0.439   9.593   1.523  0.3328  0.6862 -3.0490
26718SOL     OW82160   3.421   7.796   9.098 -0.0519  0.0877 -0.4019
26718SOL    HW182161   3.437   7.860   9.168  1.3361  1.0581 -1.5611
26718SOL    HW282162   3.473   7.720   9.123  1.9238  1.1023 -1.2314
26719SOL     OW82163   8.373   2.536   2.599 -0.1167 -0.6311 -0.1252
26719SOL    HW182164   8.407   2.604   2.657 -0.9632 -0.6395  0.4038
26719SOL    HW282165   8.433   2.535   2.525 -1.1720  2.1052 -1.1519
26720SOL     OW82166   8.591   5.280   7.905  0.7213 -0.7893  0.0105
26720SOL    HW182167   8.550   5.198   7.877  0.3770 -0.7485  0.3804
26720SOL    HW282168   8.537   5.310   7.979 -0.1735  0.6284 -1.1567
26721SOL     OW82169   7.065   7.026  10.500  0.4547  0.1471  0.8262
26721SOL    HW182170   7.009   7.019  10.578 -0.0402  0.3749  0.4900
26721SOL    HW282171   7.143   6.977  10.524  0.8302  1.2138  1.9378
26722SOL     OW82172   4.550   5.560   6.680 -0.0103  0.0465 -0.4346
26722SOL    HW182173   4.464   5.601   6.670 -0.7459 -1.1726  0.5376
26722SOL    HW282174   4.538   5.470   6.651  1.1831  0.0849 -1.1269
26723SOL     OW82175   4.297  10.736   3.115  0.1418 -0.2333  0.4810
26723SOL    HW182176   4.269  10.645   3.108 -2.3506  0.3039  2.0945
26723SOL    HW282177   4.241  10.773   3.182  0.8967  2.5899 -0.3089
26724SOL     OW82178   6.710   9.547   7.393 -0.4815 -0.3910  0.1630
26724SOL    HW182179   6.688   9.473   7.451 -1.9163  0.3264  0.5691
26724SOL    HW282180   6.803   9.536   7.376 -0.3901 -1.5912  1.2350
26725SOL     OW82181   0.811   6.588   5.968 -0.0804 -0.0353 -0.1970
26725SOL    HW182182   0.806   6.561   6.059  1.5159 -0.5296 -0.2363
26725SOL    HW282183   0.902   6.572   5.942 -0.3262  0.7407 -1.6746
26726SOL     OW82184   3.719   0.893   1.258 -0.4855  0.1110 -0.2945
26726SOL    HW182185   3.681   0.971   1.217  0.9289 -0.9986 -4.2750
26726SOL    HW282186   3.703   0.823   1.195  1.8416 -1.9026  1.1610
26727SOL     OW82187   3.043   3.309   8.560  0.5078  0.5935  0.3138
26727SOL    HW182188   3.005   3.261   8.487 -0.9752  1.2326  0.6313
26727SOL    HW282189   3.085   3.385   8.520  2.3584 -0.6211 -0.1336
26728SOL     OW82190   2.151   5.289   0.159  0.0669  0.5568  0.2002
26728SOL    HW182191   2.095   5.356   0.119 -0.6760  0.3472  0.8493
26728SOL    HW282192   2.093   5.214   0.171  0.7216  0.0294  0.0932
26729SOL     OW82193   0.753   6.108   4.583 -0.6054  0.6134  0.0314
26729SOL    HW182194   0.827   6.077   4.531  1.6052  0.0849  3.2054
26729SOL    HW282195   0.713   6.176   4.529  1.4060  0.0714 -2.3460
26730SOL     OW82196   9.419  10.814   7.204 -0.5141 -0.0811  1.3138
26730SOL    HW182197   9.326  10.833   7.194 -0.5179 -0.5295  0.4002
26730SOL    HW282198   9.430  10.728   7.164  0.7940  1.1511 -1.2209
26731SOL     OW82199   4.844   3.869   1.271  0.0531  0.2686  0.2955
26731SOL    HW182200   4.870   3.946   1.219 -0.6995  1.0057  0.9897
26731SOL    HW282201   4.758   3.845   1.236  0.7328 -0.9385 -0.6408
26732SOL     OW82202   2.885   5.087  10.735 -0.0033  0.1088  0.3097
26732SOL    HW182203   2.977   5.112  10.734  0.0258  0.0306  0.8801
26732SOL    HW282204   2.846   5.135  10.662  0.1917  1.2717  0.9587
26733SOL     OW82205   5.598   6.633   4.865 -0.3493 -0.4696  1.0171
26733SOL    HW182206   5.690   6.622   4.889 -0.0647 -1.7223 -0.5186
26733SOL    HW282207   5.600   6.655   4.772 -1.6326 -1.7250  0.6583
26734SOL     OW82208   0.080  10.993  10.906  0.1462 -0.1646  0.7630
26734SOL    HW182209   0.171  10.969  10.885  0.1402 -0.8616  1.4675
26734SOL    HW282210   0.088  11.064  10.970  0.1695  0.8844 -0.3601
26735SOL     OW82211   7.041   5.918   7.755  0.3080 -0.2238  0.0137
26735SOL    HW182212   6.956   5.929   7.713 -0.0306  0.0653  0.7674
26735SOL    HW282213   7.085   5.851   7.702  0.1218  0.5330 -1.1392
26736SOL     OW82214   5.667   9.732   5.016  0.0243  0.3689  0.0171
26736SOL    HW182215   5.671   9.687   5.100  1.3533 -0.2320 -0.3409
26736SOL    HW282216   5.655   9.825   5.039  0.7566  0.2632  0.8800
26737SOL     OW82217   3.022   2.363   6.368 -0.8392 -0.4963 -0.5339
26737SOL    HW182218   2.991   2.450   6.341  0.0332  0.1146  0.3445
26737SOL    HW282219   3.089   2.382   6.435 -1.4905 -1.8717  0.5528
26738SOL     OW82220   3.141   1.627   5.980 -0.5426  0.5006 -0.0549
26738SOL    HW182221   3.158   1.579   5.900 -1.4419  0.8729 -0.4799
26738SOL    HW282222   3.076   1.575   6.027 -1.8506  1.4624 -0.7179
26739SOL     OW82223   9.616   9.054   3.395  0.4084 -0.3755 -0.2207
26739SOL    HW182224   9.703   9.073   3.360 -0.4379  0.0572 -2.2754
26739SOL    HW282225   9.560   9.049   3.317 -1.3054 -1.1939  1.0009
26740SOL     OW82226   6.141   7.418   8.414  0.7830  0.2486  0.1206
26740SOL    HW182227   6.229   7.379   8.413 -0.0460 -1.8539 -2.7045
26740SOL    HW282228   6.089   7.362   8.357 -1.7654  2.9233 -0.4313
26741SOL     OW82229   8.015   2.050   3.171  0.2693  0.0828  0.2552
26741SOL    HW182230   8.071   2.109   3.120 -0.2310  1.5952  1.3851
26741SOL    HW282231   7.933   2.047   3.122  0.7040 -0.6938 -0.4515
26742SOL     OW82232   1.795   8.944   4.091  0.6074 -0.2444 -0.0010
26742SOL    HW182233   1.771   8.869   4.036  1.0907 -0.2026 -0.2773
26742SOL    HW282234   1.746   8.931   4.172 -2.0018  0.9421 -1.2762
26743SOL     OW82235   9.125   3.194  10.712  0.1604 -0.5337 -0.0385
26743SOL    HW182236   9.150   3.104  10.731  0.5071 -0.3110  0.6032
26743SOL    HW282237   9.169   3.215  10.629  0.1708 -0.9095 -0.1281
26744SOL     OW82238   2.292   2.223   1.076 -0.1356 -0.1768 -0.0714
26744SOL    HW182239   2.388   2.221   1.074 -0.1500 -1.2060 -0.3334
26744SOL    HW282240   2.265   2.141   1.035 -1.1282 -0.1468  0.4696
26745SOL     OW82241   9.964  10.966   3.266 -0.2023  0.6763 -0.1056
26745SOL    HW182242   9.997  10.882   3.234 -0.2034  0.9690 -0.8926
26745SOL    HW282243   9.928  10.946   3.353  1.7883  0.2872  0.6885
26746SOL     OW82244  10.378   7.519   0.820  0.7556 -1.0856  0.0189
26746SOL    HW182245  10.399   7.457   0.890  1.9407  0.6551  1.2949
26746SOL    HW282246  10.451   7.511   0.759  1.3054 -0.4407  0.5743
26747SOL     OW82247   5.853   9.742   4.437 -0.2065  0.1084 -0.4455
26747SOL    HW182248   5.801   9.820   4.455 -1.0931 -0.9365  2.0375
26747SOL    HW282249   5.916   9.738   4.508  0.6220 -0.7924 -1.2087
26748SOL     OW82250   4.157   2.117   9.088  0.2732 -0.0907 -0.1874
26748SOL    HW182251   4.231   2.060   9.106 -0.6017 -0.7551  1.5532
26748SOL    HW282252   4.176   2.198   9.136 -1.2197 -1.1924  2.4702
26749SOL     OW82253   6.906   5.581   4.807 -0.5608 -0.2916 -0.3149
26749SOL    HW182254   6.958   5.502   4.796  1.0063  0.7037 -0.2326
26749SOL    HW282255   6.832   5.569   4.747  0.1205 -1.4206 -0.9633
26750SOL     OW82256   1.890   6.333   5.748 -0.0289 -0.3148 -0.0708
26750SOL    HW182257   1.915   6.366   5.835  0.9359 -1.7327  0.2254
26750SOL    HW282258   1.865   6.242   5.763  0.0631 -0.5553 -1.2630
26751SOL     OW82259   7.095   5.622   5.588 -0.5896 -0.1282 -0.5776
26751SOL    HW182260   7.026   5.648   5.648 -0.1294 -2.8603  1.3189
26751SOL    HW282261   7.165   5.686   5.603 -0.4436 -0.7997  1.9388
26752SOL     OW82262   9.378  10.560   2.267  0.2290 -0.5148  0.2038
26752SOL    HW182263   9.357  10.471   2.295 -1.7327 -0.8373 -1.9369
26752SOL    HW282264   9.455  10.550   2.212 -1.0399 -1.2568 -1.5316
26753SOL     OW82265  10.792   7.872   8.403  0.3562  0.0423  0.1016
26753SOL    HW182266  10.779   7.840   8.493  1.3297  0.9725  0.6006
26753SOL    HW282267  10.784   7.967   8.410  0.3268  0.1183 -0.8336
26754SOL     OW82268   8.738   9.782   5.353  0.1646  0.1465 -0.2697
26754SOL    HW182269   8.682   9.754   5.425  1.1995 -1.0811  0.1059
26754SOL    HW282270   8.680   9.787   5.277 -0.5152 -0.8030  0.1674
26755SOL     OW82271   7.539  10.522   6.425 -0.4942 -0.5983  0.5845
26755SOL    HW182272   7.461  10.504   6.476 -1.8759 -0.0849 -1.2222
26755SOL    HW282273   7.523  10.478   6.341  1.2892 -0.7196  0.2752
26756SOL     OW82274   2.350   6.001   9.755 -0.2019 -0.6190  0.6884
26756SOL    HW182275   2.421   6.058   9.726 -1.1647  0.0541 -0.4764
26756SOL    HW282276   2.379   5.967   9.839  1.2948 -0.0252  0.4449
26757SOL     OW82277   4.146   3.706   3.560 -0.3835  0.1154 -0.7158
26757SOL    HW182278   4.057   3.733   3.580  0.0709  0.4630  0.9414
26757SOL    HW282279   4.200   3.781   3.585  0.5809 -0.9753  0.5702
26758SOL     OW82280   1.064   8.215   4.857  0.2198 -0.0963 -0.6107
26758SOL    HW182281   1.088   8.143   4.799 -0.2312 -0.3822 -0.4467
26758SOL    HW282282   1.018   8.277   4.801  1.0701  0.3198 -0.8651
26759SOL     OW82283   4.730  10.839   0.118 -0.2051  0.3783  0.3448
26759SOL    HW182284   4.732  10.837   0.023  0.7594  0.6435  0.3552
26759SOL    HW282285   4.756  10.928   0.141 -1.1265  0.5289  0.8476
26760SOL     OW82286   8.544   7.342   2.434  0.4138 -0.0500  0.2736
26760SOL    HW182287   8.626   7.347   2.484  0.7974 -0.3298 -0.3172
26760SOL    HW282288   8.498   7.423   2.456  0.6303 -0.1059  0.9785
26761SOL     OW82289   1.485   6.066   3.097  0.5251  0.3127 -0.6091
26761SOL    HW182290   1.430   6.045   3.172  1.3811  1.6908  0.4417
26761SOL    HW282291   1.445   6.018   3.024 -0.2288 -1.1971  0.7299
26762SOL     OW82292   0.078  10.047   9.264  0.4118  0.1402  0.3824
26762SOL    HW182293   0.084  10.027   9.171 -0.8846 -2.9686  0.8253
26762SOL    HW282294   0.169  10.053   9.294  0.8643 -0.6141 -0.7913
26763SOL     OW82295   0.609  10.693   7.521 -0.8903  0.3411 -0.0424
26763SOL    HW182296   0.678  10.682   7.456 -2.7145 -0.9842 -1.9120
26763SOL    HW282297   0.653  10.731   7.597  1.7674 -0.0372 -1.2705
26764SOL     OW82298   0.176   3.603  10.538 -0.1492 -0.9380  0.0175
26764SOL    HW182299   0.267   3.591  10.511 -0.4639 -1.7526 -0.7340
26764SOL    HW282300   0.146   3.515  10.561 -0.5200 -0.5636  1.0364
26765SOL     OW82301   4.724   6.300   6.969  0.2689 -0.3460 -0.1835
26765SOL    HW182302   4.644   6.266   6.929 -0.2688  1.2076 -0.4906
26765SOL    HW282303   4.708   6.298   7.063 -0.8102  1.4586 -0.2885
26766SOL     OW82304  10.060   6.972   8.161 -0.5891 -0.0055  0.2355
26766SOL    HW182305  10.076   6.951   8.253 -1.0289 -0.3624  0.2316
26766SOL    HW282306  10.079   6.891   8.114  0.2497  0.3544 -0.0586
26767SOL     OW82307   4.155   8.350   9.588  0.3498  0.4912  0.4666
26767SOL    HW182308   4.182   8.441   9.574 -0.1110  0.3074 -2.1809
26767SOL    HW282309   4.092   8.333   9.517 -0.0162 -1.7142  1.2619
26768SOL     OW82310   3.308   1.225   3.223  0.4841  0.1593 -0.5165
26768SOL    HW182311   3.240   1.167   3.257  1.5498 -1.3081 -0.8079
26768SOL    HW282312   3.390   1.185   3.251  1.2521  2.0536  0.0876
26769SOL     OW82313   9.919   5.841   3.498  0.0553  0.3862 -0.2352
26769SOL    HW182314   9.991   5.825   3.436  0.5430  0.4954  0.2947
26769SOL    HW282315   9.962   5.846   3.583 -0.1173  3.7542 -0.2200
26770SOL     OW82316   6.934  11.054   7.809  0.1956 -0.3761  0.5891
26770SOL    HW182317   6.951  11.148   7.804  1.2395 -0.4732  1.8824
26770SOL    HW282318   6.849  11.047   7.851 -0.7582 -0.0022 -1.1701
26771SOL     OW82319   9.823   1.043   5.701  0.5506  0.3270  0.2687
26771SOL    HW182320   9.918   1.036   5.714  0.6528 -1.8577 -1.1670
26771SOL    HW282321   9.785   0.983   5.766  0.0645  1.5673  1.1808
26772SOL     OW82322   7.731  10.094   9.850 -0.4852 -0.0860 -0.5377
26772SOL    HW182323   7.757  10.013   9.807  0.9350 -0.6324  1.2277
26772SOL    HW282324   7.645  10.076   9.887 -1.6726  0.3428 -2.8487
26773SOL     OW82325   5.148   3.290   1.852  0.2051  0.6888  0.5124
26773SOL    HW182326   5.202   3.359   1.814  0.3567 -0.6287 -1.8682
26773SOL    HW282327   5.058   3.319   1.839  0.2718  0.5896 -0.1653
26774SOL     OW82328   8.630  11.027   6.731  0.1507 -1.0895 -0.2540
26774SOL    HW182329   8.573  10.957   6.701 -2.4365  1.5423 -1.9833
26774SOL    HW282330   8.574  11.105   6.735  3.3639  1.5498 -1.2582
26775SOL     OW82331   2.538   9.008   3.111 -0.0233  0.5263 -0.1262
26775SOL    HW182332   2.447   8.979   3.115 -0.5639  2.2522  1.4454
26775SOL    HW282333   2.576   8.959   3.038 -1.8020 -1.3184  0.1163
26776SOL     OW82334   8.240   5.165   9.821  0.6541  0.2988 -0.8745
26776SOL    HW182335   8.200   5.080   9.835  1.6672 -0.1697 -0.7522
26776SOL    HW282336   8.236   5.179   9.727 -0.8803  0.8130 -0.7504
26777SOL     OW82337   5.153   7.105   4.387  0.2878  0.0892 -0.1926
26777SOL    HW182338   5.246   7.099   4.367  0.5759  2.8084  0.0052
26777SOL    HW282339   5.115   7.146   4.310  0.0509  3.1208  1.4130
26778SOL     OW82340  10.661   9.599   9.062  0.0282 -0.4722 -0.0657
26778SOL    HW182341  10.643   9.506   9.081  0.9926 -0.6470  0.0289
26778SOL    HW282342  10.594   9.623   8.998 -1.6385 -0.5992  1.5651
26779SOL     OW82343   3.706   9.795   3.312 -0.3482  0.6502 -0.7288
26779SOL    HW182344   3.665   9.823   3.230  1.1828 -2.1636 -2.5994
26779SOL    HW282345   3.799   9.817   3.300  0.8867 -4.1825 -2.1323
26780SOL     OW82346   1.462   0.705   2.627  0.2058  0.0285 -0.2592
26780SOL    HW182347   1.499   0.617   2.617 -0.0162 -0.1853  0.7357
26780SOL    HW282348   1.507   0.741   2.704  0.3976  0.8491 -0.7356
26781SOL     OW82349   2.732   6.977   5.254  0.1640 -0.2154  0.7843
26781SOL    HW182350   2.802   6.974   5.319  0.7457  0.6551  0.2143
26781SOL    HW282351   2.731   7.067   5.223 -1.2103 -0.2143  0.7620
26782SOL     OW82352   2.699   2.484   5.673  0.8953  0.4337  0.2023
26782SOL    HW182353   2.666   2.404   5.633  2.2811 -0.4292  0.7172
26782SOL    HW282354   2.628   2.514   5.730  0.4796 -0.5942  0.2345
26783SOL     OW82355   3.842   1.455   0.622 -0.1308 -0.7506  0.1010
26783SOL    HW182356   3.886   1.502   0.693  0.2876  0.0633 -0.6701
26783SOL    HW282357   3.840   1.518   0.550 -1.5930 -1.1583 -0.2457
26784SOL     OW82358   7.347   3.647   8.850 -0.9635  0.0015  0.6116
26784SOL    HW182359   7.330   3.708   8.777 -1.6209  1.5820  2.0039
26784SOL    HW282360   7.277   3.665   8.913 -0.7679 -1.7523  1.3877
26785SOL     OW82361   5.927   4.327   7.612  0.1107  0.1481 -0.2666
26785SOL    HW182362   5.916   4.397   7.548 -0.2077  0.9730  0.6467
26785SOL    HW282363   5.872   4.355   7.686  4.0027  1.7142  2.3428
26786SOL     OW82364   2.984   7.991   4.711  0.5800 -0.4082  0.3846
26786SOL    HW182365   3.012   8.025   4.796  1.6064  2.0029 -0.8213
26786SOL    HW282366   3.051   7.928   4.687  0.6908 -0.5383  1.0241
26787SOL     OW82367   1.502  10.876   7.731 -0.1203 -0.3019  0.1409
26787SOL    HW182368   1.476  10.794   7.688  1.5597 -0.1230 -1.3312
26787SOL    HW282369   1.594  10.888   7.707  0.3697  0.8047  2.3229
26788SOL     OW82370   8.749   3.292   3.167  0.1532  0.7509 -0.0915
26788SOL    HW182371   8.657   3.270   3.149  0.6937 -0.4052 -1.7542
26788SOL    HW282372   8.770   3.244   3.246 -0.3316 -0.0349 -0.4253
26789SOL     OW82373   9.829   0.045   6.527 -0.4820  0.4003 -0.1564
26789SOL    HW182374   9.815  -0.050   6.516  0.5068  0.4017 -1.7786
26789SOL    HW282375   9.805   0.082   6.441  2.7027  1.1625 -0.8218
26790SOL     OW82376   3.412   6.800   4.958 -0.0059  0.2012  0.1780
26790SOL    HW182377   3.429   6.880   4.909  1.0437  1.0876  1.9094
26790SOL    HW282378   3.328   6.815   5.002 -0.7992 -0.4756 -1.0503
26791SOL     OW82379  10.368   1.721   8.265  0.1175 -0.6284  0.5625
26791SOL    HW182380  10.456   1.690   8.242 -0.7619 -2.3126 -0.8087
26791SOL    HW282381  10.320   1.641   8.289 -1.5515 -0.0451 -0.5974
26792SOL     OW82382   1.590   5.601   7.063 -0.1070 -0.2776  0.3272
26792SOL    HW182383   1.670   5.633   7.106  0.1193  2.1161 -1.6424
26792SOL    HW282384   1.612   5.599   6.970 -2.6163  1.5083 -0.4098
26793SOL     OW82385   3.837   6.817   0.433  0.0148  0.5640  0.0782
26793SOL    HW182386   3.825   6.890   0.493  1.4364 -0.9753  2.4226
26793SOL    HW282387   3.761   6.761   0.448  0.3778  0.1721  0.5157
26794SOL     OW82388   5.427  10.328   9.222  0.1939  0.0637  0.3765
26794SOL    HW182389   5.393  10.399   9.277  0.3326  0.5648 -0.1756
26794SOL    HW282390   5.350  10.282   9.190  0.1309 -1.1365  2.1356
26795SOL     OW82391   8.162   8.552   1.356 -0.2022  0.1271  0.3479
26795SOL    HW182392   8.111   8.568   1.435  0.6508  0.8943  0.7459
26795SOL    HW282393   8.252   8.541   1.386 -0.0038 -0.4529 -0.4273
26796SOL     OW82394   5.477   7.212   9.712 -0.6157 -0.1775  0.6706
26796SOL    HW182395   5.437   7.125   9.705 -2.1187  0.2641  2.8914
26796SOL    HW282396   5.559   7.196   9.758 -0.1817 -0.5601 -0.1987
26797SOL     OW82397   4.363   2.657   7.014  0.2793  0.3961  0.1996
26797SOL    HW182398   4.437   2.686   7.066  1.3522  0.9041 -1.5423
26797SOL    HW282399   4.343   2.569   7.048 -0.0928  1.2872  2.4615
26798SOL     OW82400  10.713   6.691   3.809 -0.3911  0.5383 -0.0083
26798SOL    HW182401  10.762   6.628   3.861 -0.8502  0.2432  0.0727
26798SOL    HW282402  10.777   6.727   3.747 -0.1884 -0.2021 -0.2394
26799SOL     OW82403   3.449   2.468   2.339  0.2096  0.0115 -0.1933
26799SOL    HW182404   3.419   2.378   2.353  2.0934 -0.4456  1.2599
26799SOL    HW282405   3.542   2.460   2.318  0.8627  1.6823  1.7242
26800SOL     OW82406   7.017   8.321   5.333 -0.1587  0.0862 -0.3431
26800SOL    HW182407   7.079   8.392   5.319 -0.7922  0.4219 -1.6368
26800SOL    HW282408   7.045   8.253   5.272 -0.3782 -0.2147 -0.1090
26801SOL     OW82409   5.415   3.923   7.489 -0.5632 -0.1113 -0.1082
26801SOL    HW182410   5.321   3.923   7.507 -0.7551 -0.0550 -1.0653
26801SOL    HW282411   5.441   4.015   7.496 -0.6930 -0.0524 -0.3779
26802SOL     OW82412   3.703  10.673   8.697 -0.1113  0.7377 -0.3748
26802SOL    HW182413   3.647  10.612   8.649  1.5963 -0.7949 -0.4984
26802SOL    HW282414   3.684  10.655   8.789 -0.8216  1.2235 -0.4143
26803SOL     OW82415   2.813   4.558  11.025  0.7411 -0.2733 -0.0974
26803SOL    HW182416   2.726   4.595  11.037 -0.0840 -2.2606  0.3857
26803SOL    HW282417   2.833   4.574  10.932  0.1737  0.7828 -0.0530
26804SOL     OW82418   8.205   9.477  10.018 -0.3260  0.4196 -0.6177
26804SOL    HW182419   8.281   9.454   9.964 -0.5941  0.0105 -0.8315
26804SOL    HW282420   8.202   9.408  10.085  1.0099  1.8481  0.9954
26805SOL     OW82421   1.029   1.516   6.064 -0.1892 -0.4357 -0.1497
26805SOL    HW182422   1.013   1.603   6.100  0.2641 -0.8021  0.9672
26805SOL    HW282423   1.022   1.457   6.139 -1.8672 -1.5454 -1.1126
26806SOL     OW82424   0.406   7.241   7.778  0.1637  0.3816 -0.1322
26806SOL    HW182425   0.436   7.177   7.843 -0.1708  0.3983  0.0421
26806SOL    HW282426   0.479   7.248   7.716 -0.6689 -1.9497 -1.5165
26807SOL     OW82427   9.114   9.586   6.115 -0.7129  0.4068 -0.8765
26807SOL    HW182428   9.065   9.528   6.174 -0.0961 -3.1611 -3.5567
26807SOL    HW282429   9.189   9.614   6.168 -1.9529  0.2507  1.0861
26808SOL     OW82430   7.517   0.308   7.209  0.4413 -1.0846 -0.7926
26808SOL    HW182431   7.455   0.277   7.143  0.0483 -4.6266  1.0508
26808SOL    HW282432   7.463   0.344   7.279  0.7352  0.0369 -1.1189
26809SOL     OW82433   7.260   0.861   2.077 -0.1584  0.6715 -0.3293
26809SOL    HW182434   7.281   0.882   1.986  3.1376  1.6527  0.5116
26809SOL    HW282435   7.188   0.919   2.100 -1.1252  0.3068 -2.3212
26810SOL     OW82436   8.537   5.499   5.577  0.0509 -0.5535 -0.3284
26810SOL    HW182437   8.470   5.550   5.533  0.0521 -0.5646 -0.3427
26810SOL    HW282438   8.610   5.495   5.515  0.0779 -0.5119 -0.2997
26811SOL     OW82439   1.167   9.724   2.697 -0.5560 -0.9320 -0.3448
26811SOL    HW182440   1.133   9.813   2.701  1.5263 -0.0708 -0.2643
26811SOL    HW282441   1.132   9.687   2.616 -1.0982  0.1140 -0.5943
26812SOL     OW82442   7.965   9.310   3.143 -0.0155  0.1826  0.6961
26812SOL    HW182443   7.936   9.358   3.221 -0.1767  2.4228 -0.6527
26812SOL    HW282444   7.918   9.226   3.148 -0.3932  0.4575  2.7293
26813SOL     OW82445   2.409   1.714   6.929  0.0646  0.1158 -0.0346
26813SOL    HW182446   2.472   1.655   6.887 -0.8448 -1.2578  0.4446
26813SOL    HW282447   2.412   1.690   7.022 -0.9225  0.2374  0.0458
26814SOL     OW82448  10.884   9.776   4.207  0.4401 -0.2147 -0.1246
26814SOL    HW182449  10.954   9.830   4.169 -0.3761  0.8938 -0.1155
26814SOL    HW282450  10.910   9.762   4.298  1.1764 -0.7552 -0.4054
26815SOL     OW82451   9.795   5.293   6.752 -0.6773 -0.4550  0.1111
26815SOL    HW182452   9.883   5.330   6.762 -0.2397 -0.6250 -2.3191
26815SOL    HW282453   9.780   5.243   6.832  1.5104 -0.5568  0.5241
26816SOL     OW82454   3.255   9.732  10.107 -0.3982 -0.7245  0.2490
26816SOL    HW182455   3.261   9.827  10.112  0.6731 -0.6333 -1.8265
26816SOL    HW282456   3.166   9.712  10.137 -0.4529  0.8484  1.2513
26817SOL     OW82457   5.264   5.928   1.305 -0.1116 -0.5381  0.1450
26817SOL    HW182458   5.260   6.010   1.354 -0.1908 -0.2392 -0.3597
26817SOL    HW282459   5.219   5.864   1.361  0.8322 -0.4825  1.0005
26818SOL     OW82460   3.129   6.106   0.298 -0.1743  0.2725 -0.4448
26818SOL    HW182461   3.147   6.031   0.241  0.4801  0.3646 -0.3658
26818SOL    HW282462   3.114   6.068   0.384  0.0997  0.2257 -0.4172
26819SOL     OW82463   4.800   2.901   2.578 -0.6715  0.2050  0.5535
26819SOL    HW182464   4.844   2.931   2.498 -0.0704  0.8446  1.1151
26819SOL    HW282465   4.730   2.843   2.546  0.3999 -0.6305 -0.3675
26820SOL     OW82466   9.550  10.163   5.176 -0.3754 -0.0419  0.0152
26820SOL    HW182467   9.589  10.240   5.217  0.7727 -0.5859 -0.0086
26820SOL    HW282468   9.464  10.192   5.146  0.8280  1.8339 -1.8803
26821SOL     OW82469   8.913   5.937   2.396  0.3688 -0.0707  0.5498
26821SOL    HW182470   8.861   5.931   2.476  1.2773  3.1036  1.5540
26821SOL    HW282471   8.991   5.885   2.415 -0.4555 -1.2448  0.7896
26822SOL     OW82472   9.746   8.747   3.444 -0.0684  0.3485  0.2454
26822SOL    HW182473   9.787   8.670   3.483 -1.1231  0.3215  1.3518
26822SOL    HW282474   9.732   8.723   3.352 -1.8915 -1.4489  0.9280
26823SOL     OW82475   3.577   7.437   6.151 -0.4096  0.4683  0.7820
26823SOL    HW182476   3.522   7.360   6.143 -1.8226  1.6075 -1.7633
26823SOL    HW282477   3.541   7.499   6.087  2.8155  1.9024  0.1299
26824SOL     OW82478   4.256   5.907   6.058 -0.1070  0.1533 -0.2317
26824SOL    HW182479   4.185   5.881   6.115  1.9017 -2.5988  1.2779
26824SOL    HW282480   4.216   5.916   5.971 -2.5771  0.8770  0.8991
26825SOL     OW82481   9.690   1.367  10.727 -0.1813 -0.4104 -0.2431
26825SOL    HW182482   9.689   1.426  10.652 -0.4590 -0.8965 -0.6309
26825SOL    HW282483   9.677   1.423  10.803  0.7813  0.1729 -0.4922
26826SOL     OW82484  10.773   7.659  10.434 -0.2155  0.7715 -0.4512
26826SOL    HW182485  10.744   7.580  10.388 -4.2843  2.0833 -0.5369
26826SOL    HW282486  10.756   7.641  10.526 -0.4994  1.2982 -0.3977
26827SOL     OW82487   6.810   3.475   1.747  0.2486 -0.4462  0.0165
26827SOL    HW182488   6.801   3.525   1.829  1.3071 -0.9781  0.4806
26827SOL    HW282489   6.904   3.454   1.742 -0.2158 -2.7738  0.0731
26828SOL     OW82490  11.066   9.738   4.495  0.0565 -0.6583 -0.0149
26828SOL    HW182491  11.109   9.705   4.574  0.0249  1.1152  0.7958
26828SOL    HW282492  10.973   9.742   4.518 -0.2166 -1.8349 -0.8018
26829SOL     OW82493   7.728   9.645   7.271 -0.5760  0.6397 -0.2711
26829SOL    HW182494   7.652   9.623   7.217 -0.1677  3.1337 -2.0742
26829SOL    HW282495   7.803   9.630   7.214 -0.0663  2.5158 -0.1578
26830SOL     OW82496   1.976   2.443   1.807 -0.0064  0.1414  0.0982
26830SOL    HW182497   2.062   2.468   1.841 -0.1524  0.6737  0.0852
26830SOL    HW282498   1.955   2.511   1.743 -1.4534  1.3509  1.7425
26831SOL     OW82499   0.617   1.929   7.681 -0.1629 -0.0241 -0.3273
26831SOL    HW182500   0.558   1.856   7.659  1.2512 -1.3761  0.1305
26831SOL    HW282501   0.688   1.887   7.730  1.5906  1.3898 -1.5497
26832SOL     OW82502   1.288   1.939   8.170  0.0112  0.4881  0.1917
26832SOL    HW182503   1.207   1.891   8.151  0.7093 -0.5150 -0.4049
26832SOL    HW282504   1.355   1.870   8.179  0.6779  1.2428  1.3726
26833SOL     OW82505   3.342   6.762   3.563 -0.1796  0.1259 -0.3413
26833SOL    HW182506   3.291   6.764   3.482  0.3358  1.5998 -0.6642
26833SOL    HW282507   3.329   6.848   3.602  0.5387 -0.1409  0.5355
26834SOL     OW82508   0.079   9.214   7.146 -0.6263  0.0681  0.0658
26834SOL    HW182509   0.060   9.216   7.052  0.6259 -1.2997 -0.2510
26834SOL    HW282510   0.146   9.281   7.159 -0.1707 -0.3314 -0.1872
26835SOL     OW82511   7.267   0.730   0.524 -0.1601  0.0087 -0.3771
26835SOL    HW182512   7.283   0.819   0.491  2.1432 -0.0235  0.4828
26835SOL    HW282513   7.285   0.673   0.450  2.6739  0.0753  0.1468
26836SOL     OW82514   8.984   1.419   2.451 -0.5170 -0.2518  0.7631
26836SOL    HW182515   8.914   1.482   2.468 -0.0337  0.3326  0.6205
26836SOL    HW282516   9.064   1.464   2.479 -0.0597 -0.4604 -0.1622
26837SOL     OW82517   6.496   3.228   1.816 -0.5881 -0.0358  0.3145
26837SOL    HW182518   6.437   3.153   1.818  0.4816 -0.8980  1.0339
26837SOL    HW282519   6.558   3.211   1.887 -0.3416  1.5585  0.5131
26838SOL     OW82520   0.000   0.003   8.459  0.2984  0.3077 -0.1326
26838SOL    HW182521  -0.091  -0.025   8.452  0.5959 -0.7031 -0.0849
26838SOL    HW282522   0.032   0.005   8.369 -0.6915  4.0225 -0.5733
26839SOL     OW82523   8.700   7.236   3.968  0.6825 -0.8306 -0.3154
26839SOL    HW182524   8.666   7.275   4.049  2.4775  0.3244 -0.0847
26839SOL    HW282525   8.724   7.310   3.913  1.9059 -1.6029 -0.8540
26840SOL     OW82526   0.836  10.547   4.931 -0.6522 -0.1339  0.0752
26840SOL    HW182527   0.873  10.572   4.846 -0.0721  0.0287  0.3710
26840SOL    HW282528   0.764  10.609   4.945  0.3032  0.9112  0.4589
26841SOL     OW82529   0.532   6.277   7.139  0.2785 -0.0359 -0.2398
26841SOL    HW182530   0.571   6.322   7.214  1.7911 -1.3488 -0.1898
26841SOL    HW282531   0.447   6.247   7.171  1.0887 -0.9741  1.1499
26842SOL     OW82532   9.611   2.762   8.596 -0.1677 -0.2565  0.0783
26842SOL    HW182533   9.525   2.784   8.632  0.1333  0.0549  0.6159
26842SOL    HW282534   9.654   2.846   8.583  0.4042 -0.4524  0.6880
26843SOL     OW82535   4.224   1.709   0.239 -0.0590  0.0016  0.5084
26843SOL    HW182536   4.179   1.766   0.177  1.5274  1.8704  0.9769
26843SOL    HW282537   4.304   1.682   0.195 -1.1670 -2.7569 -0.0625
26844SOL     OW82538   7.640   8.011   1.301  0.4395  0.3407 -0.1770
26844SOL    HW182539   7.709   7.999   1.365 -0.1057 -3.0476 -0.0654
26844SOL    HW282540   7.565   7.963   1.336 -0.7975  0.8392 -1.9814
26845SOL     OW82541   1.727   0.245   3.992  0.6571 -0.6519  0.0745
26845SOL    HW182542   1.726   0.188   4.069 -3.7059 -0.2571  0.5861
26845SOL    HW282543   1.757   0.189   3.920 -0.6118 -2.7899  1.0957
26846SOL     OW82544   2.968   1.348   6.225 -0.4889 -0.4022 -0.5705
26846SOL    HW182545   2.937   1.262   6.253 -0.9137  0.0882  0.5204
26846SOL    HW282546   3.004   1.387   6.305 -0.8522  0.6617 -0.9173
26847SOL     OW82547  10.564   3.359   9.455 -0.1265  0.3097  0.5195
26847SOL    HW182548  10.592   3.287   9.398 -0.5961  0.4567  0.0927
26847SOL    HW282549  10.545   3.316   9.538  1.6229  0.2500  0.9274
26848SOL     OW82550   8.698  10.072   6.618 -0.1160 -0.4432 -0.5554
26848SOL    HW182551   8.694  10.016   6.541  1.2860 -2.2016  0.5751
26848SOL    HW282552   8.709  10.160   6.582  0.1814 -1.1752 -2.3764
26849SOL     OW82553   4.661   7.397   3.956  0.5337  0.1176 -0.1361
26849SOL    HW182554   4.566   7.384   3.967 -0.4804  1.9567 -4.5588
26849SOL    HW282555   4.700   7.316   3.987 -2.5104 -1.0335  1.1424
26850SOL     OW82556  11.099   1.387   3.380 -0.1131  0.0757  0.4679
26850SOL    HW182557  11.127   1.313   3.326  0.6284 -0.7970  1.9822
26850SOL    HW282558  11.180   1.422   3.416 -0.6013  0.5949  1.0776
26851SOL     OW82559   5.984   8.027   1.390 -0.1238 -0.1207 -0.1449
26851SOL    HW182560   5.964   7.933   1.395 -0.4009 -0.0407  0.3500
26851SOL    HW282561   6.045   8.042   1.462  1.6165 -0.3138 -1.5005
26852SOL     OW82562   7.526   1.348   7.766  0.3173 -0.0406 -0.3674
26852SOL    HW182563   7.488   1.427   7.804  1.9562  0.6167  0.0106
26852SOL    HW282564   7.582   1.380   7.695 -1.6415 -1.1570 -2.5235
26853SOL     OW82565   6.986   0.471   8.398  0.4708 -0.2420 -0.0158
26853SOL    HW182566   6.920   0.528   8.437  1.3452 -0.3423  1.6835
26853SOL    HW282567   7.015   0.518   8.319 -0.7534  0.3563 -0.1209
26854SOL     OW82568   1.535   0.129   4.253 -0.0477  0.7249  0.1631
26854SOL    HW182569   1.628   0.151   4.256 -0.1514  1.2912 -0.5962
26854SOL    HW282570   1.508   0.126   4.345  0.8227  0.1055  0.4037
26855SOL     OW82571   0.074   1.686   3.565 -0.1370 -0.8442  0.1468
26855SOL    HW182572   0.144   1.635   3.608  0.4389  0.4717  0.8417
26855SOL    HW282573   0.119   1.732   3.494  0.0484  1.0179  1.3832
26856SOL     OW82574   3.006  11.080   2.309 -0.6520 -0.5215 -0.2479
26856SOL    HW182575   3.091  11.039   2.328 -0.8599 -0.9291 -0.1671
26856SOL    HW282576   3.016  11.171   2.337 -0.3311 -0.6378  0.0264
26857SOL     OW82577   1.387   0.577   0.830 -0.3564 -0.0561 -0.3006
26857SOL    HW182578   1.334   0.598   0.907  1.2648 -0.6473  1.0288
26857SOL    HW282579   1.373   0.484   0.817  0.0641 -0.1358 -0.1764
26858SOL     OW82580   9.174   5.558   7.504 -0.0787 -0.8827 -0.0073
26858SOL    HW182581   9.216   5.483   7.463 -0.3704 -1.3726  0.5761
26858SOL    HW282582   9.163   5.533   7.596 -0.4820 -0.2658  0.1217
26859SOL     OW82583   7.247   7.351   5.784  0.5530  0.6417  0.1206
26859SOL    HW182584   7.180   7.405   5.742  0.9842  3.3279  2.5527
26859SOL    HW282585   7.199   7.299   5.848  0.4989  0.4569 -0.0672
26860SOL     OW82586  10.445   6.680   3.871  0.0899 -0.3186 -0.2553
26860SOL    HW182587  10.531   6.677   3.829 -1.0251 -1.4894 -2.6340
26860SOL    HW282588  10.439   6.599   3.920  0.4332 -0.0908  0.1758
26861SOL     OW82589   1.752   9.180  11.019  0.7764  0.0553  0.8592
26861SOL    HW182590   1.662   9.201  11.042  1.4307  2.4498  1.5726
26861SOL    HW282591   1.749   9.156  10.926 -0.6627 -0.5380  1.0498
26862SOL     OW82592   7.419  10.964   2.122 -0.0425 -0.0375  0.3664
26862SOL    HW182593   7.393  11.011   2.042  2.5731  1.9856  0.5602
26862SOL    HW282594   7.497  10.915   2.097  0.7539  0.5436  1.6126
26863SOL     OW82595   7.180   5.582   0.956 -0.6934 -0.1335  0.7288
26863SOL    HW182596   7.151   5.561   0.867 -2.5905  0.6638  1.1267
26863SOL    HW282597   7.108   5.631   0.995 -0.4922 -1.5643  3.1645
26864SOL     OW82598   4.920   8.948  10.771 -0.4709 -0.3357 -0.1600
26864SOL    HW182599   4.945   9.034  10.806 -0.7380 -0.0074 -0.7731
26864SOL    HW282600   4.910   8.892  10.849  0.6868 -0.0791  0.1861
26865SOL     OW82601   8.586   7.518   7.753  0.5855 -0.3223  0.3821
26865SOL    HW182602   8.505   7.518   7.805 -0.2183 -0.8954 -0.8183
26865SOL    HW282603   8.581   7.437   7.702  1.7113 -0.1409 -0.0447
26866SOL     OW82604   6.112   8.037   5.406 -0.1834  0.4275  0.1887
26866SOL    HW182605   6.056   8.085   5.467  1.5339  0.0409  2.2151
26866SOL    HW282606   6.140   8.102   5.342 -0.3491  1.3773  1.0646
26867SOL     OW82607  10.984   5.209   6.311 -0.0689 -0.3206 -0.2157
26867SOL    HW182608  11.044   5.154   6.362  1.1415 -1.0062 -2.2908
26867SOL    HW282609  10.926   5.147   6.267 -2.2137  0.3213  1.4826
26868SOL     OW82610   5.929   3.334   4.530  0.0764 -0.7378  0.1548
26868SOL    HW182611   5.873   3.346   4.607  0.7290 -1.4693  0.7707
26868SOL    HW282612   5.899   3.251   4.492  1.7930 -2.0572  1.4828
26869SOL     OW82613   8.515   0.126   8.315  0.5499  0.0416 -0.1079
26869SOL    HW182614   8.588   0.152   8.371  0.7011  1.0145 -0.7419
26869SOL    HW282615   8.551   0.125   8.226  0.3779 -1.7182 -0.1955
26870SOL     OW82616   1.399   8.114   9.841  0.8575 -0.2103  0.1748
26870SOL    HW182617   1.332   8.046   9.845  1.8288 -1.2923 -0.8702
26870SOL    HW282618   1.471   8.080   9.895  1.3817 -0.0657 -0.4174
26871SOL     OW82619   2.953   1.589   0.673  0.0828 -0.2843  0.3573
26871SOL    HW182620   2.922   1.583   0.764 -0.9913 -1.2703 -0.0486
26871SOL    HW282621   3.048   1.592   0.680  0.0465 -1.1737  1.4746
26872SOL     OW82622   6.220   8.974  10.324 -0.9282  0.4521 -0.0919
26872SOL    HW182623   6.146   8.966  10.385  0.6015  1.9942  2.1178
26872SOL    HW282624   6.289   8.922  10.365 -0.6066 -0.6347 -1.9264
26873SOL     OW82625   4.963   8.809   6.428 -0.6361  0.5211 -0.0978
26873SOL    HW182626   4.871   8.797   6.451 -1.0845  1.4694 -1.3116
26873SOL    HW282627   4.980   8.743   6.361 -0.1431 -0.2922  0.8002
26874SOL     OW82628   2.452   6.830   0.530  0.3314  0.0365 -0.6222
26874SOL    HW182629   2.361   6.859   0.536  0.2178 -0.6128  1.0857
26874SOL    HW282630   2.458   6.756   0.590  2.5684  1.5929  1.2526
26875SOL     OW82631   2.752   5.009   2.484 -0.0499 -0.1436  0.0582
26875SOL    HW182632   2.712   5.015   2.397 -0.3598 -2.4081 -0.0220
26875SOL    HW282633   2.680   4.992   2.544  0.3589 -0.4646  0.4733
26876SOL     OW82634   0.600   9.468   4.998  0.1659  0.5629  0.0446
26876SOL    HW182635   0.529   9.532   4.994  0.8262  1.3047 -0.0052
26876SOL    HW282636   0.577   9.411   5.071 -0.7339  0.4844 -0.2932
26877SOL     OW82637   3.812   4.240   9.948  0.2975  0.1990 -0.0205
26877SOL    HW182638   3.860   4.223  10.029 -0.0025 -0.4131  0.0306
26877SOL    HW282639   3.812   4.157   9.901 -0.2231  0.3366 -0.2809
26878SOL     OW82640   4.431   6.059   3.989 -0.5267  0.0679 -0.0575
26878SOL    HW182641   4.507   6.102   4.027  0.0968  0.5961 -1.7845
26878SOL    HW282642   4.407   6.114   3.914 -1.6453 -0.9197 -0.4621
26879SOL     OW82643   0.964   9.866   1.688 -0.0333  0.3190  0.1509
26879SOL    HW182644   0.933   9.904   1.771 -1.8713 -1.7267  0.4940
26879SOL    HW282645   0.896   9.890   1.625 -0.6349 -1.3413  0.1323
26880SOL     OW82646   2.516   9.170   3.805  0.3169 -0.2676  0.0965
26880SOL    HW182647   2.533   9.180   3.711 -0.5898  1.0362  0.0487
26880SOL    HW282648   2.495   9.078   3.815 -1.5304 -0.0600 -1.3402
26881SOL     OW82649   8.957   3.545   9.244  0.1200  0.1803  0.5468
26881SOL    HW182650   8.921   3.625   9.206 -2.9462  0.3412  3.3415
26881SOL    HW282651   8.933   3.476   9.182 -2.0536  0.8149  0.5915
26882SOL     OW82652  10.496   8.250   6.328  0.2309  0.6751 -0.3168
26882SOL    HW182653  10.502   8.200   6.409 -0.6662  0.4619 -0.3731
26882SOL    HW282654  10.419   8.215   6.284  0.8901  0.5694 -1.4192
26883SOL     OW82655   9.841   5.279   9.610 -0.1583 -0.5740 -0.2597
26883SOL    HW182656   9.834   5.302   9.703 -1.1969 -0.4985 -0.3382
26883SOL    HW282657   9.906   5.340   9.575 -0.1540 -0.2428  0.3067
26884SOL     OW82658   3.637   2.749   0.990 -0.0434 -0.7335 -0.5499
26884SOL    HW182659   3.652   2.799   1.070 -2.2133 -2.6708  1.1762
26884SOL    HW282660   3.705   2.683   0.989  0.2351 -0.4484 -0.5440
26885SOL     OW82661   0.291   0.726   2.752 -0.2760 -0.3848  0.3385
26885SOL    HW182662   0.241   0.748   2.673  0.4023 -0.6490 -0.1800
26885SOL    HW282663   0.244   0.654   2.792 -0.3947 -0.5284 -0.0587
26886SOL     OW82664   6.916   4.817   0.987 -0.2649 -0.2099 -0.1294
26886SOL    HW182665   6.943   4.774   1.068  1.7043  2.6673  0.8988
26886SOL    HW282666   6.898   4.908   1.012 -2.0401  0.2212 -2.5300
26887SOL     OW82667   0.150   6.643   6.490 -0.7654  0.1372  0.0736
26887SOL    HW182668   0.114   6.556   6.509 -1.0310 -0.2632 -1.9996
26887SOL    HW282669   0.154   6.647   6.395  1.6260  1.4628  0.1599
26888SOL     OW82670   0.716   0.752   1.197 -0.1216 -0.2901  0.6057
26888SOL    HW182671   0.657   0.818   1.159  0.9994  0.3458 -0.1041
26888SOL    HW282672   0.705   0.761   1.291  1.1344  2.0406  0.5986
26889SOL     OW82673   5.474   8.916   6.570 -0.3753 -0.3321  0.7544
26889SOL    HW182674   5.509   8.842   6.520 -0.4184 -0.5694  1.0694
26889SOL    HW282675   5.379   8.905   6.566 -0.3685 -1.5313  2.5928
26890SOL     OW82676   0.674   2.393   3.957 -0.1603 -0.2896 -0.4255
26890SOL    HW182677   0.717   2.450   3.893 -2.7102  2.3831  0.0074
26890SOL    HW282678   0.599   2.444   3.987 -0.8387 -2.6958  2.4253
26891SOL     OW82679   0.576   3.413   3.707 -0.5403 -0.2773 -0.0156
26891SOL    HW182680   0.493   3.378   3.676 -0.0401 -0.2273 -1.4819
26891SOL    HW282681   0.608   3.346   3.768 -1.5679 -0.3606  0.4578
26892SOL     OW82682  10.134   4.700   7.285  0.3329 -0.1504 -0.3736
26892SOL    HW182683  10.081   4.780   7.287  0.7241  0.1215 -0.6797
26892SOL    HW282684  10.148   4.678   7.377 -1.2410 -0.8624 -0.2712
26893SOL     OW82685   4.863   1.131   6.605  0.4620 -0.3289 -0.6309
26893SOL    HW182686   4.841   1.038   6.599 -1.5202  0.0151  0.5283
26893SOL    HW282687   4.904   1.140   6.691 -3.3290  0.4641  1.3299
26894SOL     OW82688   2.618   7.232   5.531  0.3858  0.4670  0.0567
26894SOL    HW182689   2.604   7.174   5.606  1.1792 -2.1459 -1.6688
26894SOL    HW282690   2.707   7.265   5.542 -0.2988  2.0068  1.3936
26895SOL     OW82691   1.280   1.986   9.093  0.1092  0.5616 -0.1597
26895SOL    HW182692   1.217   1.918   9.114 -0.0662  1.1317  1.2501
26895SOL    HW282693   1.279   1.991   8.997 -1.5356  0.1595 -0.1882
26896SOL     OW82694   4.585   7.343   4.714  0.1245 -0.6155  0.0160
26896SOL    HW182695   4.543   7.288   4.779  0.7610 -0.5627  0.4764
26896SOL    HW282696   4.650   7.286   4.672  1.8442  0.1253  1.5099
26897SOL     OW82697   7.585   3.465   8.168 -0.1495 -1.0334 -0.2279
26897SOL    HW182698   7.582   3.561   8.167  2.2823 -0.8124  1.7587
26897SOL    HW282699   7.496   3.439   8.193 -0.6815  0.7393 -0.0984
26898SOL     OW82700   8.803  10.330   3.248  0.4138 -0.6561  0.4635
26898SOL    HW182701   8.818  10.340   3.342  1.1543 -1.3413  0.4254
26898SOL    HW282702   8.887  10.354   3.208 -0.3594  1.2542 -0.1498
26899SOL     OW82703   2.746   9.195   2.695 -0.0380 -0.1185 -0.2472
26899SOL    HW182704   2.732   9.139   2.619 -0.9208  2.2404 -1.9559
26899SOL    HW282705   2.666   9.186   2.747 -0.7955  0.6142 -1.2567
26900SOL     OW82706   1.716   6.133  10.102  0.1261  0.2044 -0.0583
26900SOL    HW182707   1.666   6.213  10.085  0.1040 -0.2692 -2.5768
26900SOL    HW282708   1.805   6.155  10.074  0.9433  0.3626  2.4165
26901SOL     OW82709   5.196   3.499   9.892  0.7021  0.3350  0.0999
26901SOL    HW182710   5.243   3.416   9.892  0.0123 -0.1049  1.8680
26901SOL    HW282711   5.135   3.492   9.965  0.0301  2.0782 -0.2388
26902SOL     OW82712   5.858   9.866  10.218  0.4672 -0.4500 -0.1436
26902SOL    HW182713   5.797   9.812  10.168 -1.6090  0.9395  0.7942
26902SOL    HW282714   5.869   9.821  10.301  0.9565 -0.8323 -0.4088
26903SOL     OW82715   9.698   9.137   4.990 -1.0965  0.0867 -0.0786
26903SOL    HW182716   9.617   9.135   4.941 -0.6221  0.7021 -0.9234
26903SOL    HW282717   9.735   9.223   4.971 -2.1254  1.5106  3.3933
26904SOL     OW82718   5.269   2.242   2.921 -1.2837  0.0887  0.0093
26904SOL    HW182719   5.272   2.240   2.826 -2.6832 -0.1645 -0.0582
26904SOL    HW282720   5.234   2.156   2.946 -0.3862 -0.0728  0.7924
26905SOL     OW82721  10.082   2.962   8.906  0.6021 -0.3173 -0.9361
26905SOL    HW182722  10.143   2.994   8.839  0.0400 -0.7603 -1.6796
26905SOL    HW282723  10.137   2.910   8.965  0.6676 -2.6083 -2.8416
26906SOL     OW82724   9.453   6.888   8.976 -0.1880  0.6503  0.6994
26906SOL    HW182725   9.387   6.852   8.917 -0.4198  1.8877  0.1713
26906SOL    HW282726   9.408   6.960   9.020  0.2511  0.3028  1.7501
26907SOL     OW82727   8.076   1.384   5.780 -0.5569  0.0845  0.1804
26907SOL    HW182728   8.034   1.328   5.846  1.7726 -2.1299 -0.0721
26907SOL    HW282729   8.125   1.448   5.832  1.4830 -1.8087  0.7461
26908SOL     OW82730  10.018   6.360   1.282  0.2379 -0.3301 -0.1080
26908SOL    HW182731  10.081   6.298   1.246  1.2146 -1.3462  2.9981
26908SOL    HW282732   9.946   6.306   1.313  1.1833 -0.1327  2.8065
26909SOL     OW82733   7.737   5.120  10.122  0.0224  0.7869 -0.2606
26909SOL    HW182734   7.786   5.071  10.187 -0.1880  2.1110  0.9374
26909SOL    HW282735   7.804   5.162  10.067  0.2125  0.9096  0.0646
26910SOL     OW82736  11.068   7.504  10.049 -0.4463  0.4468  0.4319
26910SOL    HW182737  11.142   7.558  10.077  1.1164 -1.3523  0.0300
26910SOL    HW282738  11.022   7.558   9.984 -1.4226  2.8399  2.9369
26911SOL     OW82739   0.518   9.944   7.135  0.0465 -0.4300 -0.0345
26911SOL    HW182740   0.475   9.859   7.121 -1.2876  0.2546 -0.2384
26911SOL    HW282741   0.601   9.922   7.177  0.1147 -1.9029 -0.8713
26912SOL     OW82742   6.806   7.337   4.009  0.4163 -0.0689  0.2072
26912SOL    HW182743   6.869   7.272   3.978  0.4234  0.0836 -0.1117
26912SOL    HW282744   6.842   7.368   4.092 -1.5432 -3.2984  2.4905
26913SOL     OW82745   2.490   1.792   1.154  0.2480 -0.5230 -0.7661
26913SOL    HW182746   2.564   1.745   1.194  0.9881  2.0065  1.0897
26913SOL    HW282747   2.517   1.805   1.063  1.4536 -0.9275 -0.4894
26914SOL     OW82748   0.040   7.879   0.288  0.4604 -0.0219  0.2620
26914SOL    HW182749   0.072   7.789   0.297  0.2383  0.0162  1.6369
26914SOL    HW282750   0.009   7.902   0.375  0.7718  1.4941 -0.0056
26915SOL     OW82751   6.672   6.784   3.412  0.0343  0.1437 -0.8554
26915SOL    HW182752   6.585   6.791   3.373 -0.5200  2.8033  0.6006
26915SOL    HW282753   6.731   6.782   3.337 -1.2154 -0.9393 -1.8597
26916SOL     OW82754   8.956   3.540   0.999 -0.2851  0.1443 -0.3129
26916SOL    HW182755   8.937   3.447   0.995  1.2009 -0.2628  1.1053
26916SOL    HW282756   8.944   3.563   1.091  1.4375  0.8461 -0.2232
26917SOL     OW82757   9.804   4.149   8.652  0.5644 -0.1115  0.1816
26917SOL    HW182758   9.868   4.220   8.657 -0.5149  1.0341 -1.2967
26917SOL    HW282759   9.746   4.174   8.580 -0.5452 -1.9392  0.3762
26918SOL     OW82760   2.058  10.032   6.559  0.0326 -0.4834  0.3086
26918SOL    HW182761   2.125   9.985   6.608  1.1222 -0.6400 -1.2498
26918SOL    HW282762   2.064   9.995   6.471 -1.2193  0.4349 -0.1766
26919SOL     OW82763   2.140   0.157   1.817  0.2696  1.3396  1.5687
26919SOL    HW182764   2.095   0.238   1.840 -3.2589  0.1038 -0.2602
26919SOL    HW282765   2.076   0.088   1.835  1.7869 -0.6943 -0.3028
26920SOL     OW82766   3.409   7.292   7.765  0.8582 -0.6521 -0.1233
26920SOL    HW182767   3.423   7.387   7.756 -1.3126 -0.4924 -4.5874
26920SOL    HW282768   3.335   7.284   7.825  1.0085  0.4700  0.2403
26921SOL     OW82769   2.440   0.121   1.467 -0.5862 -0.2598  0.3896
26921SOL    HW182770   2.416   0.136   1.558  0.1145  0.4913  0.4633
26921SOL    HW282771   2.519   0.174   1.454  0.6108 -2.0557 -0.0396
26922SOL     OW82772   0.634   5.649   7.242  0.2740  0.0159 -0.0534
26922SOL    HW182773   0.661   5.625   7.153 -0.1444 -0.1973 -0.1258
26922SOL    HW282774   0.566   5.714   7.230 -1.0717 -1.3275  0.0517
26923SOL     OW82775   4.559   7.785   9.929  0.2127  0.0772  0.1297
26923SOL    HW182776   4.602   7.870   9.943  1.2701 -0.2759 -0.7933
26923SOL    HW282777   4.556   7.776   9.834  1.0437 -1.3643  0.2129
26924SOL     OW82778   4.069   3.100   6.764  0.5492 -0.0435  0.0095
26924SOL    HW182779   4.037   3.060   6.683  0.3055 -2.2410  1.0919
26924SOL    HW282780   4.092   3.189   6.740  0.6272 -0.6647 -2.4950
26925SOL     OW82781   1.072   7.263   2.475  0.4273 -0.3058 -0.6094
26925SOL    HW182782   1.079   7.273   2.380  1.0442 -2.3536 -0.8158
26925SOL    HW282783   0.978   7.257   2.491  0.2518  1.0756 -0.9298
26926SOL     OW82784   6.118  10.658   9.398 -0.3096 -0.2696  0.5020
26926SOL    HW182785   6.042  10.599   9.396  0.3594 -1.1629 -0.9794
26926SOL    HW282786   6.088  10.736   9.351 -0.4315 -0.4539  0.2711
26927SOL     OW82787   0.572   6.794   7.722 -0.4730  0.5335  0.0053
26927SOL    HW182788   0.552   6.827   7.634  0.3114  1.1391  0.0445
26927SOL    HW282789   0.653   6.839   7.746  0.9410 -1.7946 -0.1209
26928SOL     OW82790   2.661   7.557  11.076 -0.6265  0.5125  0.0133
26928SOL    HW182791   2.572   7.539  11.045 -0.4009 -2.9983  1.0071
26928SOL    HW282792   2.649   7.617  11.150 -1.9641  1.4600 -0.9254
26929SOL     OW82793   2.452   9.587   6.286  0.7327 -0.2357  0.2259
26929SOL    HW182794   2.496   9.520   6.235  1.7407  0.8127 -0.3029
26929SOL    HW282795   2.522   9.640   6.323 -0.0428  1.4554 -0.6066
26930SOL     OW82796   1.512  10.844  10.740 -0.1675 -0.2587  0.0122
26930SOL    HW182797   1.417  10.846  10.737 -0.1977  2.4390  0.2671
26930SOL    HW282798   1.535  10.887  10.823  1.2658 -0.2978 -0.3280
26931SOL     OW82799   8.564   5.993   3.588 -0.2717  0.4182 -0.0848
26931SOL    HW182800   8.645   6.021   3.631  0.6770 -2.6676  0.4481
26931SOL    HW282801   8.506   5.969   3.660  0.5349 -2.7185 -0.3168
26932SOL     OW82802   2.820  10.226  10.701  0.5345  0.0875 -0.1371
26932SOL    HW182803   2.777  10.164  10.760  1.0156 -0.0574  0.0644
26932SOL    HW282804   2.770  10.219  10.620 -1.7212  2.0772  0.9342
26933SOL     OW82805   3.519   7.997   0.746  0.2697  0.3124  0.7156
26933SOL    HW182806   3.464   8.054   0.691  1.7509  0.9010 -0.2474
26933SOL    HW282807   3.477   7.912   0.742 -1.0739  0.9448  0.7751
26934SOL     OW82808  10.652   8.143   2.501 -0.1469 -0.3644 -0.1212
26934SOL    HW182809  10.693   8.216   2.548 -2.1358  0.9666 -0.3317
26934SOL    HW282810  10.725   8.090   2.471  1.3358  0.9672  0.9551
26935SOL     OW82811   1.585   4.108   9.537 -0.2901  0.3557  0.7448
26935SOL    HW182812   1.646   4.050   9.492 -0.7327  0.9082 -0.6188
26935SOL    HW282813   1.628   4.129   9.620  0.7067 -0.4128  0.4372
26936SOL     OW82814   4.703   3.446   6.824  0.3959 -0.0948 -0.0268
26936SOL    HW182815   4.758   3.522   6.842 -0.7825  1.2542 -1.8316
26936SOL    HW282816   4.759   3.388   6.772  0.2192  1.2441 -1.8186
26937SOL     OW82817   8.114   9.391   8.918 -0.2914 -0.2842 -0.5099
26937SOL    HW182818   8.037   9.377   8.974  0.5493  0.9791  1.0543
26937SOL    HW282819   8.165   9.311   8.928 -0.0407  0.0068  0.7868
26938SOL     OW82820   1.971  11.041   1.845  0.0307  0.2574  0.2133
26938SOL    HW182821   1.885  11.075   1.867  0.4830  0.6416  1.5127
26938SOL    HW282822   1.964  10.946   1.860 -0.2428  0.2519  0.0477
26939SOL     OW82823   7.151   5.206   3.246  0.1669  0.8622 -0.0500
26939SOL    HW182824   7.058   5.219   3.232 -0.1483 -1.3364 -0.4157
26939SOL    HW282825   7.156   5.139   3.315  1.4104 -0.0185 -0.9391
26940SOL     OW82826   2.165   5.231   1.075 -0.3095 -0.2717 -0.5021
26940SOL    HW182827   2.225   5.156   1.072  0.5833  0.3231  1.1069
26940SOL    HW282828   2.210   5.295   1.130 -1.3737  1.1780 -1.2550
26941SOL     OW82829   9.833   9.063   8.975  0.4032  0.3484  0.6498
26941SOL    HW182830   9.902   9.120   8.941 -0.8399 -0.4149 -3.8431
26941SOL    HW282831   9.754   9.117   8.973  0.2191  0.2066  2.4668
26942SOL     OW82832   2.288   3.551   1.453  0.4129  0.3977 -0.2167
26942SOL    HW182833   2.311   3.608   1.526  0.9804 -0.1642  0.0518
26942SOL    HW282834   2.202   3.583   1.424  1.0461  1.8633 -0.5693
26943SOL     OW82835   9.894   9.257   0.937  0.3255  0.4259  0.2130
26943SOL    HW182836   9.953   9.326   0.969  2.8849 -0.3108 -2.4472
26943SOL    HW282837   9.934   9.176   0.968  0.8665 -0.0914 -1.6917
26944SOL     OW82838   7.938   7.847   9.335  0.3897 -0.8204 -0.6597
26944SOL    HW182839   8.020   7.838   9.288 -0.1854 -3.2390 -1.3501
26944SOL    HW282840   7.876   7.793   9.286 -1.6062  0.8539 -0.1071
26945SOL     OW82841   8.565  10.725   2.117 -0.2926  0.2032  0.4759
26945SOL    HW182842   8.531  10.772   2.193  0.6433  0.4372  0.7697
26945SOL    HW282843   8.583  10.636   2.150 -0.5255  0.1096  0.3498
26946SOL     OW82844  10.707   0.612   2.461  0.6942  0.3957  0.8109
26946SOL    HW182845  10.696   0.694   2.411  1.9888 -0.3014 -0.7173
26946SOL    HW282846  10.755   0.638   2.539  0.4553  1.2110  0.6999
26947SOL     OW82847   2.596   2.518  11.098  0.8656 -0.3200  0.3326
26947SOL    HW182848   2.658   2.489  11.031 -1.0427 -1.6102 -0.9778
26947SOL    HW282849   2.515   2.470  11.078 -0.9323  2.1373  1.2142
26948SOL     OW82850   2.889   8.625   7.047 -0.5671 -1.1449 -0.1161
26948SOL    HW182851   2.833   8.692   7.084  1.2416 -0.4055  1.4903
26948SOL    HW282852   2.908   8.655   6.958  0.4839  0.7171  0.6754
26949SOL     OW82853   9.086   0.611   1.145  0.5349  0.1726 -0.0548
26949SOL    HW182854   9.107   0.674   1.213 -2.5268  1.0277  0.2476
26949SOL    HW282855   9.084   0.662   1.064  1.5989 -0.3229 -0.4202
26950SOL     OW82856   2.345   3.137   6.401  0.5855  0.6324  0.0634
26950SOL    HW182857   2.279   3.106   6.339  0.5073 -0.8003  0.8062
26950SOL    HW282858   2.428   3.123   6.357  0.4886  0.3897 -0.0439
26951SOL     OW82859   0.117   4.627   9.173  0.0061  0.3346  0.2877
26951SOL    HW182860   0.023   4.611   9.165  0.0825  0.6840 -2.0373
26951SOL    HW282861   0.135   4.617   9.267 -2.6357  1.9162  1.0823
26952SOL     OW82862   4.324   7.811   0.047  1.1757 -0.4093  0.5866
26952SOL    HW182863   4.287   7.869   0.113  1.0813  0.1322  0.0695
26952SOL    HW282864   4.379   7.750   0.096 -0.4749 -1.3156  1.4061
26953SOL     OW82865   6.594   2.844   6.148 -0.4952  0.0969 -0.4079
26953SOL    HW182866   6.629   2.766   6.193 -1.0970  1.0019  1.7931
26953SOL    HW282867   6.506   2.819   6.121 -0.5949 -0.1009  0.0770
26954SOL     OW82868   7.780   5.401   3.612  0.0918  0.9092 -0.7371
26954SOL    HW182869   7.800   5.476   3.668 -0.8923 -0.1462  1.1251
26954SOL    HW282870   7.721   5.347   3.665  1.4603 -1.6350 -1.6366
26955SOL     OW82871   7.646   9.310   1.798 -0.2449 -0.0506 -0.0718
26955SOL    HW182872   7.647   9.337   1.706 -2.3309  0.5333  0.0312
26955SOL    HW282873   7.587   9.372   1.841 -1.3767 -1.8543  1.1188
26956SOL     OW82874  10.114   1.672   0.600 -0.4114  1.0183 -0.3072
26956SOL    HW182875  10.198   1.718   0.598 -0.7569  1.6705  0.0031
26956SOL    HW282876  10.056   1.726   0.547 -0.5019  0.2761 -0.9934
26957SOL     OW82877   6.263   5.316   7.287 -0.6208 -0.4047 -0.1756
26957SOL    HW182878   6.180   5.300   7.243  0.1146 -0.2827 -1.6550
26957SOL    HW282879   6.313   5.235   7.276 -0.4521 -0.4056  0.5203
26958SOL     OW82880   8.858   0.049   4.010  0.2516 -0.7575 -0.7502
26958SOL    HW182881   8.918  -0.014   4.050  0.8313  0.6799  0.7222
26958SOL    HW282882   8.904   0.133   4.014 -0.7138 -0.1241 -2.1953
26959SOL     OW82883   4.948   4.759   5.551 -0.0847  0.0193 -0.6045
26959SOL    HW182884   4.931   4.666   5.532  0.3546  0.2705 -2.3999
26959SOL    HW282885   4.874   4.787   5.604  0.0928 -1.5075  0.5200
26960SOL     OW82886   0.142   9.878   1.999 -0.0833 -0.3435  0.3351
26960SOL    HW182887   0.085   9.890   1.924  0.4084 -2.9811 -0.5904
26960SOL    HW282888   0.227   9.911   1.970 -0.6280  1.8572  1.0535
26961SOL     OW82889   9.375   1.447   2.930 -0.0180  0.3131 -0.1304
26961SOL    HW182890   9.463   1.481   2.915  0.5603 -1.2239 -0.4091
26961SOL    HW282891   9.357   1.391   2.855  0.2781 -2.2867  1.5947
26962SOL     OW82892   1.437   0.138   7.221  0.3820 -0.3932  0.6328
26962SOL    HW182893   1.342   0.144   7.209  0.7202  1.2691 -2.5744
26962SOL    HW282894   1.451   0.155   7.314 -2.4525 -0.7301  1.2046
26963SOL     OW82895   3.966   3.801   2.910  0.3527  0.3180  0.8084
26963SOL    HW182896   3.966   3.892   2.941 -1.4930 -0.0958  2.1812
26963SOL    HW282897   3.875   3.783   2.887 -0.2315 -2.3116  4.3097
26964SOL     OW82898   9.184   4.453   3.246  0.3839 -0.0891  0.7001
26964SOL    HW182899   9.176   4.467   3.152  3.1909  0.2197  0.4201
26964SOL    HW282900   9.156   4.362   3.259 -0.2938 -0.0549 -0.3481
26965SOL     OW82901   5.696   6.760   3.604  0.4081 -0.5870 -0.5718
26965SOL    HW182902   5.706   6.850   3.635 -0.5022 -0.9949  1.0077
26965SOL    HW282903   5.631   6.767   3.534 -1.2937 -0.2233  0.9461
26966SOL     OW82904   6.234   8.087   0.062 -1.2431  0.5493  0.5557
26966SOL    HW182905   6.296   8.083  -0.011 -1.2133  1.9631  0.4776
26966SOL    HW282906   6.251   8.008   0.112 -2.1234 -1.1323 -1.6359
26967SOL     OW82907   8.999   1.541   4.334 -0.3830  0.9691  0.8602
26967SOL    HW182908   8.911   1.538   4.297  0.3488  0.1242 -0.9333
26967SOL    HW282909   8.995   1.482   4.410 -1.3358  0.9160  0.7778
26968SOL     OW82910   1.779   5.303   5.446  0.1641  0.5139  0.5000
26968SOL    HW182911   1.787   5.249   5.525 -1.5942 -0.6032 -0.0287
26968SOL    HW282912   1.856   5.281   5.394  1.4199  1.3602  1.9200
26969SOL     OW82913   1.009  10.853   4.333 -0.0746  0.6085  1.0958
26969SOL    HW182914   1.064  10.800   4.276 -1.6058 -0.5095  0.5826
26969SOL    HW282915   1.011  10.940   4.295 -0.5905  0.0167 -0.3545
26970SOL     OW82916   9.541   1.437   2.228 -0.0199 -0.0084  0.5044
26970SOL    HW182917   9.614   1.434   2.167 -1.3326  0.6278 -1.1834
26970SOL    HW282918   9.466   1.404   2.178 -1.9069  3.6304  0.5812
26971SOL     OW82919   3.626   4.117   3.036  0.0864 -0.2453 -0.0681
26971SOL    HW182920   3.616   4.098   3.130 -0.0883 -0.7934 -0.1914
26971SOL    HW282921   3.549   4.077   2.996 -0.6072  1.2538 -0.2881
26972SOL     OW82922   6.302   3.786   7.225  0.4384  0.1521  0.2901
26972SOL    HW182923   6.287   3.696   7.253 -1.8892 -0.6673 -2.9251
26972SOL    HW282924   6.242   3.838   7.278  0.6249 -0.4191  1.0737
26973SOL     OW82925  10.218   9.806   4.043 -1.0207 -0.1193 -0.2652
26973SOL    HW182926  10.134   9.839   4.073 -1.5033 -0.8976 -0.7421
26973SOL    HW282927  10.205   9.789   3.950 -0.4244 -0.5313 -0.2758
26974SOL     OW82928   1.716   5.599   5.433 -0.0245  0.2919 -0.0845
26974SOL    HW182929   1.696   5.506   5.436 -3.3119  0.7601 -1.9841
26974SOL    HW282930   1.761   5.611   5.349  1.8190  0.2393  0.8746
26975SOL     OW82931   3.180   7.032   6.864 -0.0703  0.3966 -0.0805
26975SOL    HW182932   3.254   6.987   6.823  0.2791  2.0941 -1.4693
26975SOL    HW282933   3.217   7.117   6.891 -0.9324  0.3012  1.4977
26976SOL     OW82934   8.689   2.761   4.909  0.3438 -0.4827 -0.7485
26976SOL    HW182935   8.732   2.796   4.831  1.1383  1.1728  0.3703
26976SOL    HW282936   8.640   2.835   4.945 -1.7612 -1.7720 -0.7982
26977SOL     OW82937   4.531   7.762   6.794 -0.1357 -0.5734 -0.2237
26977SOL    HW182938   4.602   7.802   6.843 -1.0838 -1.1010  1.6479
26977SOL    HW282939   4.571   7.686   6.751  0.8143  0.1869 -0.7080
26978SOL     OW82940   0.338   0.813   4.937  0.1690  0.1262 -0.5518
26978SOL    HW182941   0.260   0.794   4.885 -0.2122  1.1400 -0.3618
26978SOL    HW282942   0.407   0.827   4.872 -0.6535  3.0049 -0.9147
26979SOL     OW82943   8.630   3.667   3.607 -0.3477  0.6700  0.3257
26979SOL    HW182944   8.589   3.686   3.692  2.2254  1.3922  1.5286
26979SOL    HW282945   8.612   3.744   3.554 -0.5169  0.9900  0.8372
26980SOL     OW82946   6.505   8.094   1.121 -0.1892  0.3928 -0.2279
26980SOL    HW182947   6.504   8.168   1.061  0.6060  1.6811  1.2683
26980SOL    HW282948   6.416   8.091   1.156 -0.2560  0.5833 -0.3787
26981SOL     OW82949   9.431   2.265   0.969  0.1978 -0.3955  0.4540
26981SOL    HW182950   9.459   2.208   0.898  0.8394 -0.7948  1.0110
26981SOL    HW282951   9.509   2.275   1.024  0.9151  3.0084 -0.8949
26982SOL     OW82952   1.929   2.688   3.776  0.9466  0.4372  0.3526
26982SOL    HW182953   1.959   2.714   3.689  0.2395  1.0201  0.2733
26982SOL    HW282954   1.926   2.592   3.772 -0.0093  0.4796 -0.5985
26983SOL     OW82955   7.031  10.530   5.613 -0.5510  0.3058 -0.6999
26983SOL    HW182956   7.089  10.606   5.613  1.1968 -0.8621  1.6039
26983SOL    HW282957   7.074  10.467   5.555 -0.6517  0.2150 -0.6773
26984SOL     OW82958   3.341   0.160   3.967 -0.5897  0.3397  0.2938
26984SOL    HW182959   3.324   0.164   3.873 -1.4295  1.2640  0.4679
26984SOL    HW282960   3.338   0.067   3.988 -0.0408  0.0975 -0.6487
26985SOL     OW82961   2.721   7.697   7.359 -0.2426  0.9411  1.1227
26985SOL    HW182962   2.671   7.616   7.347  1.0274  0.3654 -0.8071
26985SOL    HW282963   2.786   7.676   7.425  0.8855 -0.0833 -0.2440
26986SOL     OW82964   4.845   1.441   6.995  0.0690  0.2253  0.0187
26986SOL    HW182965   4.774   1.461   7.056  0.8770 -0.7424  1.3269
26986SOL    HW282966   4.806   1.382   6.930 -1.1032  2.1671 -1.1476
26987SOL     OW82967   7.564   7.809   3.471  0.5874 -0.1564 -0.3770
26987SOL    HW182968   7.645   7.839   3.512  0.8213  1.0324 -1.6104
26987SOL    HW282969   7.534   7.885   3.421  0.2236 -1.4565 -2.2084
26988SOL     OW82970   1.766   1.345  10.669  0.3805  0.7077 -0.1008
26988SOL    HW182971   1.744   1.257  10.700  1.6716  0.3353 -0.1768
26988SOL    HW282972   1.723   1.404  10.732 -2.2768  0.1135 -1.2454
26989SOL     OW82973   2.692   8.979   5.854 -0.4279  0.4028  0.4665
26989SOL    HW182974   2.703   8.915   5.923 -2.9949 -0.2611  0.3716
26989SOL    HW282975   2.692   8.928   5.773  0.6321  0.9298  0.1234
26990SOL     OW82976   9.373   5.745   1.205 -0.0383  0.1885  0.0597
26990SOL    HW182977   9.450   5.699   1.237 -0.1779  0.4520  0.8098
26990SOL    HW282978   9.304   5.721   1.266 -0.7448 -0.6317 -1.0316
26991SOL     OW82979   7.839   7.944   5.399 -0.3447  0.2796  0.1902
26991SOL    HW182980   7.748   7.958   5.370 -0.0050  2.1577 -0.1083
26991SOL    HW282981   7.869   8.031   5.424  0.6905 -0.6468  2.4341
26992SOL     OW82982   1.819   9.017   7.080  0.0770 -0.1849  0.0528
26992SOL    HW182983   1.767   9.040   7.157  1.4489  1.3739  0.5719
26992SOL    HW282984   1.899   8.979   7.115  0.6847  0.4614 -0.5848
26993SOL     OW82985   1.850   6.518   9.013  0.4752 -0.0599 -0.4716
26993SOL    HW182986   1.873   6.611   9.012  0.5516  0.0028 -3.7584
26993SOL    HW282987   1.813   6.503   9.100  1.8801  2.6460  0.7115
26994SOL     OW82988   4.885   8.939   4.726  0.4090 -0.2777  0.2843
26994SOL    HW182989   4.790   8.936   4.722  0.4071 -0.9302  0.7056
26994SOL    HW282990   4.910   8.856   4.765  1.1611 -0.1667  0.0537
26995SOL     OW82991   1.032  10.628   8.742  0.2634 -0.5537  0.6732
26995SOL    HW182992   1.084  10.563   8.695  2.1864  0.3070  1.5048
26995SOL    HW282993   0.953  10.640   8.688  0.2117 -2.9811  0.1332
26996SOL     OW82994   7.923   7.336   4.499 -0.7221  0.1740  0.0067
26996SOL    HW182995   7.838   7.300   4.473 -0.2478 -0.7341 -0.3618
26996SOL    HW282996   7.913   7.356   4.592 -1.2243 -0.2913  0.0592
26997SOL     OW82997   2.721   9.093   6.298  0.2792  0.3140 -1.2741
26997SOL    HW182998   2.803   9.134   6.323  0.2842 -0.4674  0.0537
26997SOL    HW282999   2.732   9.001   6.318 -0.7663  0.1230 -1.4821
26998SOL     OW83000   8.550   3.097   5.678 -0.0249  0.5256  0.0702
26998SOL    HW183001   8.526   3.151   5.603  0.4832 -0.4854 -0.8475
26998SOL    HW283002   8.470   3.049   5.700  0.0922  0.0846 -0.4635
26999SOL     OW83003   0.873   4.648   9.577 -0.1034  0.0546  0.6069
26999SOL    HW183004   0.810   4.604   9.520 -0.7242  1.9822 -0.2779
26999SOL    HW283005   0.940   4.681   9.518 -0.2541  1.2554  1.0660
27000SOL     OW83006   2.620   4.952   4.849  0.3601  0.6085  0.4503
27000SOL    HW183007   2.675   5.004   4.908  0.5114  2.1927 -1.0145
27000SOL    HW283008   2.634   4.861   4.877  4.9586  0.7229 -0.7499
27001SOL     OW83009   1.677   7.168   5.240  0.9488  0.0423 -0.2013
27001SOL    HW183010   1.648   7.196   5.327 -0.1674  0.3584 -0.6591
27001SOL    HW283011   1.597   7.165   5.188  1.9381  3.3715 -2.2359
27002SOL     OW83012   8.346   8.149   1.718 -0.0009 -0.8390  0.2269
27002SOL    HW183013   8.371   8.237   1.748 -0.5447 -0.7148  0.3306
27002SOL    HW283014   8.313   8.163   1.630 -1.2384 -0.7389  0.6814
27003SOL     OW83015   2.259   1.884   8.635  0.1445  0.0354 -0.2199
27003SOL    HW183016   2.339   1.865   8.586 -0.4205  0.7410 -1.4785
27003SOL    HW283017   2.219   1.957   8.587  1.7936  3.9776  3.7873
27004SOL     OW83018   1.064   4.882   5.993 -0.1138 -0.0599 -0.2348
27004SOL    HW183019   1.087   4.968   5.958  1.9736  0.1870  1.5530
27004SOL    HW283020   1.041   4.831   5.915 -1.4050  2.0613 -1.3391
27005SOL     OW83021   4.701   8.022   5.238 -0.3641  0.2096  0.6664
27005SOL    HW183022   4.611   8.047   5.214 -0.1545  1.3523  1.0119
27005SOL    HW283023   4.752   8.102   5.225  0.6407 -0.4797  0.3128
27006SOL     OW83024   5.346   6.604   7.374 -0.1976 -0.3421  0.2401
27006SOL    HW183025   5.436   6.575   7.360  0.4853  0.1767  2.9406
27006SOL    HW283026   5.304   6.531   7.418 -0.1842  0.4708  1.6778
27007SOL     OW83027  10.354   8.258   8.818  0.1142  0.0826 -0.1308
27007SOL    HW183028  10.302   8.295   8.746 -1.1505 -0.8127  0.2937
27007SOL    HW283029  10.311   8.291   8.897 -0.0016 -0.9045  0.2301
27008SOL     OW83030   5.945   6.908   5.914 -0.1441  0.7296  0.0203
27008SOL    HW183031   6.040   6.924   5.908 -0.0810  0.9281  1.1480
27008SOL    HW283032   5.910   6.990   5.950 -1.3009  2.0970 -3.7405
27009SOL     OW83033   4.197   1.938   1.798 -0.4013 -0.1186 -0.3717
27009SOL    HW183034   4.131   1.928   1.867 -0.2619 -2.7812 -0.4860
27009SOL    HW283035   4.281   1.924   1.844 -0.2063 -0.4705 -0.8258
27010SOL     OW83036   8.351  10.066  10.079 -0.0651  0.2160  0.1864
27010SOL    HW183037   8.444  10.073  10.103 -0.1287 -0.1112  0.5456
27010SOL    HW283038   8.308  10.135  10.131  0.1024  0.9916 -0.6912
27011SOL     OW83039   9.580   5.156   8.425 -0.2488  0.2712 -0.3982
27011SOL    HW183040   9.521   5.198   8.488 -1.2003 -1.7665  0.1458
27011SOL    HW283041   9.533   5.162   8.342  0.3396  1.6388 -0.6598
27012SOL     OW83042   7.038  10.167   8.058 -0.0867 -0.6558  0.3242
27012SOL    HW183043   6.945  10.163   8.081 -1.2030 -2.4360 -3.7086
27012SOL    HW283044   7.063  10.076   8.043  1.4171  0.0020 -1.5367
27013SOL     OW83045   0.721   9.639   8.387 -0.1539 -0.6467  0.0085
27013SOL    HW183046   0.657   9.709   8.372 -0.4157 -1.3453 -2.5295
27013SOL    HW283047   0.747   9.650   8.479 -1.1044  1.9962  0.0531
27014SOL     OW83048   0.831   7.596   9.446 -0.6857 -0.3969 -0.7679
27014SOL    HW183049   0.913   7.608   9.494 -2.0584  2.5855  1.1732
27014SOL    HW283050   0.857   7.590   9.354  1.7671 -1.7233 -0.0758
27015SOL     OW83051  10.202   7.292   3.558  0.5975  0.0182  0.4184
27015SOL    HW183052  10.135   7.225   3.546  1.8898 -1.3306  0.3439
27015SOL    HW283053  10.280   7.255   3.517  1.6162  1.1464  1.2520
27016SOL     OW83054   4.043   5.029  10.084  0.0523  0.2508  0.0142
27016SOL    HW183055   4.102   5.022  10.010 -0.5975  0.2066 -0.5042
27016SOL    HW283056   4.093   4.994  10.158  0.7956  0.5432 -0.3413
27017SOL     OW83057   5.492   4.676   2.743  0.8332  0.5788  0.3849
27017SOL    HW183058   5.568   4.670   2.685 -0.0807  0.5438 -0.8480
27017SOL    HW283059   5.442   4.596   2.725  0.3310  0.7585  0.9551
27018SOL     OW83060   8.208   0.496   9.273  0.7369  0.1510 -0.7028
27018SOL    HW183061   8.125   0.482   9.318  0.1621  1.1405 -1.3907
27018SOL    HW283062   8.232   0.586   9.294  1.0724  0.2301 -1.3873
27019SOL     OW83063   2.525   7.670   7.871 -0.0856 -0.2292  0.6845
27019SOL    HW183064   2.595   7.720   7.829  0.6980 -1.3752  0.5775
27019SOL    HW283065   2.571   7.613   7.934 -0.7892 -1.7620 -0.1317
27020SOL     OW83066  10.084   4.751   6.087  0.2520  0.4103 -0.7038
27020SOL    HW183067  10.164   4.795   6.059  0.1575  0.6854 -0.5487
27020SOL    HW283068  10.015   4.794   6.037  0.1664  0.3780 -0.6129
27021SOL     OW83069   6.025   5.198   4.212  0.8877  0.3072 -0.5242
27021SOL    HW183070   6.082   5.274   4.219  0.3636  0.6849 -0.3585
27021SOL    HW283071   6.063   5.134   4.273  1.4321  0.3625 -0.8023
27022SOL     OW83072   5.893   5.652   2.999  0.0964 -0.3984 -0.3016
27022SOL    HW183073   5.920   5.744   3.006  0.4460 -0.5388  0.2367
27022SOL    HW283074   5.927   5.623   2.915  1.8502 -0.6336  0.4456
27023SOL     OW83075   2.065   7.015  10.133 -0.0463 -0.4156  0.4015
27023SOL    HW183076   2.060   6.933  10.182 -0.6069 -0.7358 -0.1714
27023SOL    HW283077   2.147   7.008  10.083  0.1970 -0.3703  0.7913
27024SOL     OW83078   5.704   5.769   5.999  0.1684  0.6535  1.3151
27024SOL    HW183079   5.621   5.798   6.038 -1.2189  1.1920 -1.7573
27024SOL    HW283080   5.758   5.849   5.996 -0.3092  0.9535  0.7068
27025SOL     OW83081   4.799   9.423   2.584 -0.2937  1.0721  0.1910
27025SOL    HW183082   4.819   9.390   2.672  2.8161  0.2415 -0.6898
27025SOL    HW283083   4.786   9.517   2.596  1.0110  1.1260  1.4494
27026SOL     OW83084   5.480   8.286   5.042 -0.5401 -0.9215  0.4493
27026SOL    HW183085   5.530   8.207   5.022  1.1665  0.4027 -0.8231
27026SOL    HW283086   5.534   8.332   5.107 -0.4566  0.1372 -0.3321
27027SOL     OW83087   9.141   0.892   4.529 -0.0425  0.3086  0.0597
27027SOL    HW183088   9.088   0.819   4.560  2.0480 -1.1405  0.3843
27027SOL    HW283089   9.226   0.881   4.572  0.3216  3.0384  0.2592
27028SOL     OW83090   6.019   5.133  10.299  0.0530 -0.3224  0.2516
27028SOL    HW183091   6.049   5.192  10.230 -0.0137  0.6275  1.0056
27028SOL    HW283092   5.964   5.069  10.254  0.7815 -0.3004 -0.7015
27029SOL     OW83093   8.177   9.721   0.782 -0.3855 -0.1855  0.4377
27029SOL    HW183094   8.224   9.752   0.705  1.2359 -0.2844  1.3549
27029SOL    HW283095   8.211   9.633   0.799 -0.1337  0.1286  1.7057
27030SOL     OW83096  10.083   3.033   8.484 -0.5097  0.5074 -0.2329
27030SOL    HW183097  10.061   3.040   8.577  1.8444  0.2827  0.4156
27030SOL    HW283098  10.163   3.085   8.474  0.2013 -0.7772 -1.7765
27031SOL     OW83099   0.677   1.607   6.582 -0.1972 -0.1604 -0.1557
27031SOL    HW183100   0.744   1.558   6.535  1.3677  3.9646 -2.7697
27031SOL    HW283101   0.723   1.644   6.658  0.0321  1.1699 -0.9229
27032SOL     OW83102   6.043   7.594   3.130  0.2212 -0.4418  0.5231
27032SOL    HW183103   6.102   7.521   3.150 -0.1453 -0.5291  1.3334
27032SOL    HW283104   5.990   7.562   3.057  1.5984 -0.1143 -0.6758
27033SOL     OW83105   1.310   2.662   9.232  0.1247  0.2763 -0.3785
27033SOL    HW183106   1.274   2.666   9.321  0.1321  0.8414 -0.3925
27033SOL    HW283107   1.235   2.679   9.175  0.0745 -0.3197 -0.4926
27034SOL     OW83108   2.673  10.908   3.546  0.0325  0.4326  0.2132
27034SOL    HW183109   2.622  10.848   3.600  0.2863  0.0468  0.0268
27034SOL    HW283110   2.749  10.930   3.600 -0.7426  1.6878  0.8388
27035SOL     OW83111  10.841   5.989   8.812  0.4500 -0.0408  0.2263
27035SOL    HW183112  10.766   5.931   8.829  1.2215 -1.1529 -0.0332
27035SOL    HW283113  10.812   6.043   8.738 -0.5008  0.3195  0.8440
27036SOL     OW83114   3.266   3.302   4.611 -0.1062  0.3618  0.3123
27036SOL    HW183115   3.300   3.253   4.536 -1.1146  2.7930 -1.9054
27036SOL    HW283116   3.330   3.371   4.625  0.3998 -0.4379  2.2108
27037SOL     OW83117   6.053   3.907   1.336  0.5037 -0.2011  0.0830
27037SOL    HW183118   6.002   3.933   1.412 -1.3571 -1.4427 -0.6495
27037SOL    HW283119   5.997   3.928   1.261  0.8686 -1.9592 -0.7463
27038SOL     OW83120   0.953   7.591   1.378 -0.0321 -0.1945  0.5356
27038SOL    HW183121   0.888   7.588   1.448 -1.1468 -0.2108 -0.4785
27038SOL    HW283122   1.035   7.613   1.423 -0.1556 -2.7455  2.2513
27039SOL     OW83123   7.695   4.810   9.607  0.4991 -0.1253 -0.6638
27039SOL    HW183124   7.739   4.782   9.687  1.3527  1.2687 -0.6067
27039SOL    HW283125   7.761   4.801   9.538  0.4627  0.6961 -0.8198
27040SOL     OW83126   6.185   4.497   8.025  0.1856  0.2704  0.2013
27040SOL    HW183127   6.094   4.499   8.055  0.0524  0.5086 -0.2036
27040SOL    HW283128   6.189   4.420   7.968 -1.2836  3.1504 -4.3304
27041SOL     OW83129   3.346   1.019   7.388  0.2656  0.2097 -0.0345
27041SOL    HW183130   3.340   0.986   7.298  1.2861 -0.2361  0.0556
27041SOL    HW283131   3.391   0.950   7.436 -0.5311  0.3145  0.9009
27042SOL     OW83132   0.054   7.425   2.716 -0.0077 -0.2439 -0.4027
27042SOL    HW183133   0.081   7.460   2.630 -0.3676 -3.4228 -1.9349
27042SOL    HW283134  -0.004   7.353   2.695  0.6701 -1.7677  2.5227
27043SOL     OW83135   0.358   9.500   4.481 -0.5294  0.7545  0.3467
27043SOL    HW183136   0.364   9.406   4.496  0.2439  0.8892  0.9333
27043SOL    HW283137   0.355   9.538   4.569  2.0739  1.4386  0.2376
27044SOL     OW83138   2.652   6.561   2.000 -0.0024  0.5550  0.2716
27044SOL    HW183139   2.565   6.531   2.027  0.1089  0.9654  1.1244
27044SOL    HW283140   2.711   6.523   2.065  0.2390  1.8967  0.8631
27045SOL     OW83141   3.936   8.906   6.896  0.9409  0.4848  0.4715
27045SOL    HW183142   3.956   8.880   6.986  4.1609 -0.0795 -0.2636
27045SOL    HW283143   4.010   8.962   6.871  0.3729  0.2726 -1.9311
27046SOL     OW83144   1.819   6.379   9.740  0.0754  0.6030  0.0781
27046SOL    HW183145   1.900   6.329   9.744 -0.9694 -1.8522 -3.7023
27046SOL    HW283146   1.846   6.467   9.712  1.5056  0.1176 -0.1325
27047SOL     OW83147   7.593   9.861   2.846 -0.1149 -0.3213  0.0824
27047SOL    HW183148   7.583   9.876   2.940  0.8543  0.6889  0.0544
27047SOL    HW283149   7.549   9.778   2.830 -1.0505 -0.0916  1.2733
27048SOL     OW83150  10.564   5.864   8.171 -0.9073 -0.1659  0.2821
27048SOL    HW183151  10.614   5.868   8.089 -0.3439  0.3670  0.6445
27048SOL    HW283152  10.622   5.819   8.232 -1.3160 -0.5377  0.3945
27049SOL     OW83153   1.631   2.738   3.819 -0.6500  0.2509 -0.0150
27049SOL    HW183154   1.629   2.642   3.825  0.5905 -0.0064 -2.5574
27049SOL    HW283155   1.720   2.761   3.848 -1.1861  0.7577  1.3194
27050SOL     OW83156   3.938   9.629   8.574  0.0880 -0.1671 -0.3718
27050SOL    HW183157   3.848   9.600   8.557  0.0327 -0.1512 -0.1133
27050SOL    HW283158   3.984   9.612   8.492  0.3621 -2.1939  0.1427
27051SOL     OW83159   1.440   7.496   5.584  0.0491  0.2043 -0.1644
27051SOL    HW183160   1.411   7.555   5.514  0.0695  0.0852 -0.2722
27051SOL    HW283161   1.362   7.447   5.609 -0.6901  2.1845  1.8291
27052SOL     OW83162   8.933   4.926   4.655  0.0250 -0.3538 -0.7057
27052SOL    HW183163   8.966   4.847   4.698 -0.1985 -1.1113 -1.8805
27052SOL    HW283164   8.915   4.899   4.565 -0.5185  0.9192 -1.0066
27053SOL     OW83165   2.734   5.277   7.122  0.2279 -0.3260  0.4136
27053SOL    HW183166   2.698   5.189   7.112  1.6407 -0.9581  0.5779
27053SOL    HW283167   2.771   5.298   7.036 -1.1270  0.6277  0.0220
27054SOL     OW83168   7.168   6.917   2.634  0.4427 -0.0643  0.4719
27054SOL    HW183169   7.108   6.991   2.635  1.0506  0.4498  0.0933
27054SOL    HW283170   7.240   6.946   2.578 -0.4608 -1.8749 -1.7271
27055SOL     OW83171   5.255   4.454   6.970 -0.0390  0.1007 -0.3272
27055SOL    HW183172   5.254   4.504   6.889 -1.3791 -0.7231 -0.8550
27055SOL    HW283173   5.162   4.444   6.993  0.0804 -2.9421 -0.7754
27056SOL     OW83174  10.200   7.529   1.795 -0.6799 -0.7462 -0.0474
27056SOL    HW183175  10.232   7.511   1.707 -0.1209 -1.0315  0.2099
27056SOL    HW283176  10.199   7.443   1.839 -0.6147 -0.5576  0.3309
27057SOL     OW83177   9.601   5.361   9.553 -0.5988 -0.3566  0.0439
27057SOL    HW183178   9.683   5.316   9.570 -1.2253 -1.1033  1.2058
27057SOL    HW283179   9.534   5.306   9.595 -1.2632  2.3353  2.8469
27058SOL     OW83180   3.762   4.795   3.139  0.5392 -0.4848  0.8391
27058SOL    HW183181   3.771   4.775   3.046 -2.1804 -0.6508  0.5299
27058SOL    HW283182   3.734   4.713   3.179 -0.8322  0.1773  1.3188
27059SOL     OW83183   4.918   8.177   9.250  0.5207  0.1683  0.4865
27059SOL    HW183184   4.949   8.212   9.333  1.1701  0.9079 -0.0498
27059SOL    HW283185   4.825   8.198   9.248  0.5736  0.4510  0.8732
27060SOL     OW83186   1.023   8.054   8.916 -0.2020  0.1899  0.2571
27060SOL    HW183187   0.995   8.039   9.006  1.1291 -1.1197  0.4861
27060SOL    HW283188   1.039   8.148   8.911  0.8701  0.1236  1.7593
27061SOL     OW83189   3.596   1.484   0.466  0.8631 -0.0857 -0.0395
27061SOL    HW183190   3.667   1.421   0.481  1.8365  0.6804 -1.3045
27061SOL    HW283191   3.593   1.535   0.547  1.0132 -0.8267  0.4479
27062SOL     OW83192   0.688   4.819   0.637  0.0557  0.0163 -0.1143
27062SOL    HW183193   0.603   4.777   0.649 -1.8774  3.8315  1.1395
27062SOL    HW283194   0.671   4.889   0.574  1.7965  1.8811  1.3501
27063SOL     OW83195   9.327   5.998   8.540 -0.0824 -0.6743 -0.1467
27063SOL    HW183196   9.310   6.059   8.469 -0.8209 -0.1345  0.4725
27063SOL    HW283197   9.358   6.053   8.612  1.2887 -1.2842 -0.2351
27064SOL     OW83198   4.461   9.458   2.619 -0.3827 -0.1453 -0.3050
27064SOL    HW183199   4.467   9.486   2.528 -0.2837  1.9384  0.2794
27064SOL    HW283200   4.368   9.436   2.632 -0.2225 -1.3619 -1.1241
27065SOL     OW83201   6.241   3.004   0.082  0.2351 -0.2095 -0.0052
27065SOL    HW183202   6.227   3.089   0.125  1.4662 -0.5794  1.1707
27065SOL    HW283203   6.254   3.027  -0.010 -0.2944  0.7998  0.1506
27066SOL     OW83204   4.716   3.665   5.311  0.4804 -0.1717  0.2986
27066SOL    HW183205   4.727   3.587   5.366 -0.8615 -0.2969  0.4219
27066SOL    HW283206   4.725   3.739   5.371 -2.9537 -0.3169  1.2025
27067SOL     OW83207   4.476   0.526  10.157  0.3583  0.0591 -0.4085
27067SOL    HW183208   4.536   0.596  10.182  1.3408 -0.0896 -2.1611
27067SOL    HW283209   4.529   0.447  10.158 -0.2129 -0.3324 -0.4578
27068SOL     OW83210   8.511   3.735  10.904 -0.4534  0.2077 -0.2182
27068SOL    HW183211   8.572   3.745  10.978  0.6103  0.2448 -1.0726
27068SOL    HW283212   8.485   3.643  10.908 -1.6532  0.5779  1.1287
27069SOL     OW83213   5.013   4.915   7.387 -0.4668 -0.0610 -0.0610
27069SOL    HW183214   4.944   4.863   7.344 -0.6910  0.4830 -0.3611
27069SOL    HW283215   4.967   4.966   7.453 -0.2137 -0.3996  0.3815
27070SOL     OW83216   2.959   7.627   5.347  0.6995  0.2502 -0.1239
27070SOL    HW183217   2.874   7.583   5.349  1.5896 -1.6428 -0.8957
27070SOL    HW283218   3.003   7.591   5.270  2.5650  0.4312  0.7962
27071SOL     OW83219   2.601   7.136   3.617  0.0928 -0.2302 -0.1991
27071SOL    HW183220   2.619   7.226   3.589  1.0054  0.0264  1.0768
27071SOL    HW283221   2.683   7.089   3.599  0.4815 -0.2010  1.3421
27072SOL     OW83222   0.713   1.490   2.119 -0.0691  0.2778 -0.2664
27072SOL    HW183223   0.720   1.457   2.029  1.3130  0.7859 -0.3792
27072SOL    HW283224   0.749   1.419   2.173 -1.4141 -0.2575 -0.0336
27073SOL     OW83225   0.967   2.712   7.278  0.0469 -0.4065  0.3298
27073SOL    HW183226   0.941   2.803   7.287 -1.3890 -0.5827 -1.4977
27073SOL    HW283227   1.032   2.712   7.208 -1.6908 -1.0151 -1.3466
27074SOL     OW83228   9.624   8.161  10.702 -0.6338  0.2993 -0.5417
27074SOL    HW183229   9.717   8.180  10.689 -0.5739  0.3684 -0.0221
27074SOL    HW283230   9.591   8.140  10.614 -0.7063  2.7312 -1.1463
27075SOL     OW83231  10.042   2.193   3.983 -0.0446  0.2074 -0.0106
27075SOL    HW183232  10.080   2.130   3.921 -0.0603 -0.1175  0.3041
27075SOL    HW283233  10.040   2.275   3.935  0.7750  0.1672 -0.1429
27076SOL     OW83234  10.008   2.347   3.315  0.0340 -0.4305  0.1044
27076SOL    HW183235  10.026   2.372   3.405  0.6239 -0.8271  0.1102
27076SOL    HW283236  10.063   2.405   3.262  0.0334 -0.5013  0.0254
27077SOL     OW83237   8.632   6.845   4.612 -0.0653 -0.2615 -0.5234
27077SOL    HW183238   8.540   6.868   4.623 -0.0834 -0.9072  0.9275
27077SOL    HW283239   8.638   6.811   4.523 -1.5473 -1.5869 -0.1682
27078SOL     OW83240  10.283  10.992   2.134 -0.3994 -0.2899 -0.4894
27078SOL    HW183241  10.258  11.078   2.169 -0.6637  0.4179 -2.3061
27078SOL    HW283242  10.248  10.992   2.045  2.0234 -1.1588 -1.5079
27079SOL     OW83243   3.014   6.795   8.083 -0.3390 -0.0381 -0.0348
27079SOL    HW183244   3.084   6.776   8.146  0.9065  2.1335 -0.6241
27079SOL    HW283245   2.933   6.783   8.132  0.4158 -2.1189  0.8358
27080SOL     OW83246   3.974  10.996   8.059  0.2373 -0.6895 -0.7454
27080SOL    HW183247   4.022  11.076   8.040 -0.9754  0.6784  1.5415
27080SOL    HW283248   3.919  10.982   7.981 -0.3309  1.3566 -0.7703
27081SOL     OW83249   5.011   1.762   0.595  0.2452 -0.0550  0.3840
27081SOL    HW183250   5.066   1.716   0.659  2.9992 -1.5469 -2.7962
27081SOL    HW283251   5.016   1.708   0.516 -1.7818  2.4200 -1.5801
27082SOL     OW83252   9.243   1.921   2.356 -0.0931 -0.3967  0.6637
27082SOL    HW183253   9.242   1.974   2.435  0.3228 -1.5364  1.4610
27082SOL    HW283254   9.330   1.882   2.354  0.6309  1.1871 -1.4705
27083SOL     OW83255   9.985   9.065   9.620  0.2965 -0.3470 -0.3277
27083SOL    HW183256  10.000   9.048   9.713  0.6598  1.2180 -0.0807
27083SOL    HW283257   9.944   8.984   9.588  1.2240 -1.3670  0.9162
27084SOL     OW83258   9.198   9.178   4.078  0.3045  0.0603 -0.2972
27084SOL    HW183259   9.223   9.263   4.116 -0.2417  1.1682 -2.2749
27084SOL    HW283260   9.280   9.139   4.049  0.4929  0.2211  0.0172
27085SOL     OW83261   5.396   3.870   9.221  0.2990 -0.4998  0.9815
27085SOL    HW183262   5.416   3.897   9.131 -0.5362 -3.9212 -0.3889
27085SOL    HW283263   5.481   3.864   9.264  0.8020  0.2705  0.1229
27086SOL     OW83264   0.088   8.336   1.288 -0.6401 -0.5118  0.2731
27086SOL    HW183265   0.087   8.430   1.305  0.3144 -0.2915 -0.7594
27086SOL    HW283266   0.052   8.327   1.199  0.3145 -0.9956 -0.0775
27087SOL     OW83267  10.749   1.699   2.882  0.3970 -0.6673 -0.3193
27087SOL    HW183268  10.785   1.704   2.970  1.4725 -1.6285 -0.6724
27087SOL    HW283269  10.720   1.608   2.873  0.7678 -0.7216 -1.1142
27088SOL     OW83270   7.616   2.854   1.836  0.7122  0.7148  0.1651
27088SOL    HW183271   7.569   2.860   1.919 -0.4741 -0.9022 -0.3369
27088SOL    HW283272   7.548   2.865   1.769  1.2293 -0.4426 -0.5776
27089SOL     OW83273   9.920   0.965   2.482  0.3819  0.2766  0.3210
27089SOL    HW183274   9.922   1.037   2.419 -1.6332 -0.6920 -0.9299
27089SOL    HW283275   9.995   0.910   2.458 -0.1328  0.1226 -1.0044
27090SOL     OW83276   7.339   3.150   0.530 -0.3771 -0.2123 -0.5177
27090SOL    HW183277   7.338   3.080   0.464 -1.0032 -0.2877 -0.4413
27090SOL    HW283278   7.362   3.105   0.611 -2.1227 -0.6052 -0.2022
27091SOL     OW83279  10.505   9.805   2.523 -0.0276 -0.4136  0.2803
27091SOL    HW183280  10.480   9.890   2.559 -1.0373  0.7072 -2.7031
27091SOL    HW283281  10.427   9.750   2.533  0.6377 -1.0890  2.2455
27092SOL     OW83282   8.331   2.614   0.703  0.0595 -0.5232  0.1891
27092SOL    HW183283   8.392   2.599   0.630 -0.8005 -0.8080 -0.4825
27092SOL    HW283284   8.352   2.545   0.765  0.9467 -0.1513  0.3268
27093SOL     OW83285   4.851  10.207   6.084  0.4091  0.3444  0.2193
27093SOL    HW183286   4.821  10.231   6.171 -0.8632  0.3935 -0.2148
27093SOL    HW283287   4.806  10.125   6.064  4.0388 -2.1953  1.3245
27094SOL     OW83288   1.836  10.870   9.777 -0.6122  0.7895 -0.1085
27094SOL    HW183289   1.923  10.839   9.805 -0.6373  1.8720  1.3040
27094SOL    HW283290   1.819  10.824   9.695  1.4904  0.8954 -0.6544
27095SOL     OW83291   9.742   5.991   3.640  0.4790  0.6043 -0.3355
27095SOL    HW183292   9.784   6.044   3.708  0.2864 -1.3503  1.4333
27095SOL    HW283293   9.813   5.941   3.601  0.2382 -0.8773  0.9636
27096SOL     OW83294   8.225   2.709   1.829 -0.7137 -0.1446  0.0912
27096SOL    HW183295   8.314   2.687   1.802 -0.9822 -0.9245 -0.1767
27096SOL    HW283296   8.218   2.803   1.813 -0.5621 -0.4061 -1.6843
27097SOL     OW83297   7.585   2.664   5.703  1.2544  0.7115  0.0931
27097SOL    HW183298   7.507   2.610   5.690  1.2505  0.4523  1.0953
27097SOL    HW283299   7.627   2.667   5.617 -0.1074  1.2543 -0.5906
27098SOL     OW83300   4.824   9.246   0.128  0.3732 -0.6546  0.2010
27098SOL    HW183301   4.910   9.285   0.112  0.3229 -0.8304 -0.5468
27098SOL    HW283302   4.804   9.267   0.219  0.8909  0.0022  0.1669
27099SOL     OW83303   0.999   8.570   4.037 -0.0851 -0.7159 -0.1540
27099SOL    HW183304   1.063   8.626   3.992  0.0753 -0.4431  0.4063
27099SOL    HW283305   1.051   8.516   4.096 -0.2924 -1.1030 -0.3192
27100SOL     OW83306   5.217   9.286   3.482  0.0213  0.2465 -0.5397
27100SOL    HW183307   5.203   9.356   3.418 -0.2723  2.8755  2.1713
27100SOL    HW283308   5.149   9.301   3.548  1.8964 -0.6478  1.7200
27101SOL     OW83309   5.909   3.728   8.575  0.5914  0.4097 -0.2968
27101SOL    HW183310   5.974   3.694   8.513  0.1015 -0.9106 -0.1146
27101SOL    HW283311   5.951   3.718   8.661  0.4374  0.2411 -0.2411
27102SOL     OW83312   6.011   6.876   2.348  0.1164 -0.2420  0.2335
27102SOL    HW183313   6.010   6.910   2.259  1.5923 -0.3915  0.1317
27102SOL    HW283314   5.945   6.928   2.394 -0.5157 -0.0273 -0.8824
27103SOL     OW83315   9.657   4.529  10.682 -0.6443  0.1531 -0.0626
27103SOL    HW183316   9.607   4.610  10.694  0.9774  0.9202  2.0548
27103SOL    HW283317   9.672   4.496  10.771  3.2870  0.4369 -0.4330
27104SOL     OW83318  10.645   5.296   1.958  0.3407 -0.4729  0.1514
27104SOL    HW183319  10.691   5.225   2.002 -0.7871  1.4071  4.9901
27104SOL    HW283320  10.709   5.367   1.954 -0.0897 -0.0664  0.3723
27105SOL     OW83321   0.831   6.140   8.530 -0.1548 -1.0305  0.0939
27105SOL    HW183322   0.881   6.067   8.495 -1.2163 -1.4570 -0.5712
27105SOL    HW283323   0.893   6.213   8.531  1.2757 -2.1908  1.9149
27106SOL     OW83324   0.968   3.169   4.172  0.4142 -0.1418  0.0872
27106SOL    HW183325   1.062   3.184   4.159  0.2943  1.0906  0.5150
27106SOL    HW283326   0.962   3.126   4.257  0.4969  1.2678  0.8247
27107SOL     OW83327   2.123   5.768   1.066  0.0017 -0.0539 -0.2174
27107SOL    HW183328   2.041   5.739   1.105  0.7887  0.9303  2.3878
27107SOL    HW283329   2.098   5.811   0.985 -1.7988 -1.8079 -0.6562
27108SOL     OW83330   3.705   2.062   5.778  0.2376 -0.1258  0.1280
27108SOL    HW183331   3.695   2.151   5.813 -3.1695 -0.2872 -0.1059
27108SOL    HW283332   3.700   2.006   5.855 -1.4092 -0.2284 -0.0254
27109SOL     OW83333   9.188   2.262   3.841 -0.8123 -0.4484  0.0753
27109SOL    HW183334   9.105   2.282   3.884  0.5104  0.1787  2.4909
27109SOL    HW283335   9.211   2.175   3.874 -0.6464 -0.7615 -0.8497
27110SOL     OW83336   3.915   4.496   2.157  0.4975 -0.1691  0.2141
27110SOL    HW183337   3.995   4.545   2.137 -0.0040  0.6827  0.2398
27110SOL    HW283338   3.845   4.561   2.150 -0.0553 -0.6023  1.4888
27111SOL     OW83339   1.893   8.691   6.276 -0.2226 -0.2757 -0.0229
27111SOL    HW183340   1.931   8.681   6.189 -1.8403  1.7995 -1.0290
27111SOL    HW283341   1.822   8.753   6.265 -0.1636  0.4525  2.9002
27112SOL     OW83342   8.420   0.961   5.439  0.0964 -0.2940  0.0762
27112SOL    HW183343   8.465   0.993   5.360 -0.2653 -0.9683 -0.4119
27112SOL    HW283344   8.491   0.938   5.498  0.3872 -0.3840 -0.3013
27113SOL     OW83345   8.721   7.887   0.207 -0.1779  0.0980 -0.2268
27113SOL    HW183346   8.814   7.892   0.188 -0.2939  0.6792 -0.6596
27113SOL    HW283347   8.678   7.915   0.127 -0.7671 -1.4203 -0.4759
27114SOL     OW83348  10.543   4.635   2.851 -0.1531 -0.7489 -0.7697
27114SOL    HW183349  10.624   4.644   2.801  2.7122  1.1952  3.6432
27114SOL    HW283350  10.520   4.724   2.878 -3.1825 -1.3714 -0.8595
27115SOL     OW83351  10.161   6.950   0.101 -0.0968  0.0396 -0.2923
27115SOL    HW183352  10.137   6.891   0.030  0.0786 -0.1035 -0.2346
27115SOL    HW283353  10.185   6.892   0.173  0.1964  0.1778 -0.2764
27116SOL     OW83354   4.914   1.337   5.759  0.2093 -0.3679  0.4937
27116SOL    HW183355   4.842   1.284   5.724  0.6118 -0.7949  0.3087
27116SOL    HW283356   4.984   1.329   5.694  0.4423 -0.0001  0.7003
27117SOL     OW83357   2.238   2.038   3.591  0.5735  0.7598  0.1562
27117SOL    HW183358   2.312   1.981   3.570 -0.0685  0.0160 -0.1423
27117SOL    HW283359   2.176   2.023   3.520  1.3568  3.6509 -1.2715
27118SOL     OW83360   1.563   3.361   0.402  0.4084 -0.2513  0.0532
27118SOL    HW183361   1.644   3.411   0.414 -0.8234  1.9891 -0.4428
27118SOL    HW283362   1.534   3.383   0.314 -2.4265  1.7221  1.3522
27119SOL     OW83363   3.729   3.555   6.825  0.2522 -0.2944 -0.6950
27119SOL    HW183364   3.765   3.499   6.894  0.3873 -0.2719 -0.7486
27119SOL    HW283365   3.795   3.623   6.812 -0.4256  0.5630  0.1999
27120SOL     OW83366   5.151   2.839   1.662 -0.6244 -0.3927 -0.0124
27120SOL    HW183367   5.091   2.817   1.590 -0.7604 -0.0609 -0.0030
27120SOL    HW283368   5.189   2.755   1.688 -1.2655 -0.6466  0.1403
27121SOL     OW83369   2.218   9.173   3.914  0.2656  0.0832  0.3549
27121SOL    HW183370   2.163   9.169   3.836 -0.2420 -2.9240  0.7626
27121SOL    HW283371   2.306   9.192   3.879 -0.3438  1.3482 -0.6282
27122SOL     OW83372   4.521  10.761   4.503 -0.5230  0.8573  0.1008
27122SOL    HW183373   4.560  10.823   4.442  0.0279  0.9188  0.5071
27122SOL    HW283374   4.441  10.731   4.460 -0.0810  0.8115 -0.6961
27123SOL     OW83375   3.478   9.515  10.411 -0.1498 -0.2955 -0.2060
27123SOL    HW183376   3.453   9.464  10.487 -0.6565  3.0269  2.0634
27123SOL    HW283377   3.426   9.479  10.339 -2.5746 -1.1407  1.8444
27124SOL     OW83378   9.564   3.284   1.181  0.0924  0.1683  0.5328
27124SOL    HW183379   9.522   3.354   1.232  0.7600  1.3021 -0.4019
27124SOL    HW283380   9.509   3.274   1.104  1.0847  1.1689 -0.3521
27125SOL     OW83381   7.537   8.259   6.682  0.0237  0.0600  0.1600
27125SOL    HW183382   7.493   8.344   6.679  2.4860  1.6559  3.3120
27125SOL    HW283383   7.481   8.204   6.737  0.2282  0.9152  1.2405
27126SOL     OW83384   7.832   9.709   8.859 -0.0643 -0.7336 -0.4235
27126SOL    HW183385   7.877   9.675   8.782  0.1481  1.2084 -1.2230
27126SOL    HW283386   7.747   9.738   8.825 -0.5255 -1.1549  0.3622
27127SOL     OW83387   2.506   5.132   7.426 -0.0148 -0.2055 -0.4963
27127SOL    HW183388   2.519   5.107   7.335 -0.3778 -0.5728 -0.4481
27127SOL    HW283389   2.544   5.219   7.432 -0.3827  0.0057 -1.1048
27128SOL     OW83390   3.284   4.298   2.044 -0.0760 -0.3811  0.2148
27128SOL    HW183391   3.252   4.320   1.957 -1.5703 -1.3185  0.4875
27128SOL    HW283392   3.369   4.256   2.029  1.0978  2.1055 -0.5343
27129SOL     OW83393   9.834   6.688   2.555 -0.1605 -0.7051  0.1739
27129SOL    HW183394   9.791   6.606   2.579 -1.4228  0.1365  0.9065
27129SOL    HW283395   9.885   6.713   2.632  0.8408 -1.1630 -0.3182
27130SOL     OW83396   9.113   0.261   2.930  0.3201 -0.0489 -0.5748
27130SOL    HW183397   9.156   0.185   2.969  2.2022  1.0101 -0.4921
27130SOL    HW283398   9.160   0.276   2.848  1.4267  2.2553  0.4029
27131SOL     OW83399   3.466  10.858   0.918  0.5718 -0.2016 -0.4877
27131SOL    HW183400   3.503  10.797   0.982  1.0958  1.1094  0.4872
27131SOL    HW283401   3.457  10.941   0.965  1.1239  0.8498 -2.1522
27132SOL     OW83402   1.050   3.021   3.389 -0.2507  0.4556 -0.3083
27132SOL    HW183403   1.078   3.104   3.351 -1.7876  0.2756 -1.9886
27132SOL    HW283404   1.078   2.955   3.325  0.1353 -0.2540  0.5579
27133SOL     OW83405   3.615   2.436   7.554 -0.3805 -0.0710  0.3772
27133SOL    HW183406   3.550   2.367   7.541 -0.9731  0.8622 -2.2396
27133SOL    HW283407   3.565   2.510   7.586 -0.1933 -0.0746  0.6761
27134SOL     OW83408   2.986   9.422   7.881 -0.4082 -0.3328 -0.3414
27134SOL    HW183409   3.042   9.355   7.843 -1.7573 -1.5030 -0.3410
27134SOL    HW283410   2.934   9.455   7.807  1.0323  1.5673 -0.5683
27135SOL     OW83411   0.715   4.274   4.583 -1.0199 -0.5582  0.4907
27135SOL    HW183412   0.795   4.262   4.533  0.4588 -0.8800  2.7792
27135SOL    HW283413   0.678   4.356   4.551  0.4616 -0.1837 -0.3190
27136SOL     OW83414  11.027   5.009   5.226 -0.6368 -0.7232 -0.4280
27136SOL    HW183415  11.064   5.094   5.199 -0.8081 -0.8555 -1.1084
27136SOL    HW283416  10.957   5.031   5.286  0.6202 -0.4653  1.0148
27137SOL     OW83417   7.725   2.031  10.349  0.2127  0.3870  0.2198
27137SOL    HW183418   7.753   2.105  10.296 -3.1366  0.9023 -1.1015
27137SOL    HW283419   7.674   1.976  10.290 -2.1791  0.0394  2.3908
27138SOL     OW83420   7.119   3.633   3.387  0.2713 -0.2459  0.5301
27138SOL    HW183421   7.062   3.696   3.432 -1.1557 -0.3304 -1.0483
27138SOL    HW283422   7.184   3.608   3.453  0.1069  1.8857  1.5913
27139SOL     OW83423   5.860   5.903   0.948  0.1713 -0.0433  0.4862
27139SOL    HW183424   5.854   5.936   1.038  0.8223  2.1880 -0.2337
27139SOL    HW283425   5.784   5.939   0.903  1.6326  1.8184 -0.6671
27140SOL     OW83426  10.919   7.580   2.227  0.6414  0.0670  0.8559
27140SOL    HW183427  10.905   7.666   2.188  0.3884 -0.5588 -0.4982
27140SOL    HW283428  10.999   7.548   2.185 -0.2026 -1.0459  0.0313
27141SOL     OW83429   2.599   2.891   8.482 -0.0144 -0.5831 -0.7670
27141SOL    HW183430   2.683   2.912   8.521 -0.5608  0.1502  0.0342
27141SOL    HW283431   2.616   2.812   8.431  1.1738 -0.3938 -0.6930
27142SOL     OW83432   4.761   7.499   0.718  0.1531  0.2358  0.3626
27142SOL    HW183433   4.803   7.547   0.790  0.3645 -0.1122  0.4737
27142SOL    HW283434   4.801   7.535   0.639  1.2755 -0.6603  0.4968
27143SOL     OW83435   5.514   0.959   8.332 -0.3275 -0.2437 -0.1306
27143SOL    HW183436   5.460   0.986   8.258  0.4209  0.9375 -0.2775
27143SOL    HW283437   5.584   1.024   8.335  0.5948 -1.2380  0.5933
27144SOL     OW83438   8.899   2.815   1.953  0.3464  0.8550  0.1997
27144SOL    HW183439   8.941   2.898   1.974  1.1572  0.1231  1.6569
27144SOL    HW283440   8.958   2.749   1.990 -0.6021 -0.3384 -0.3639
27145SOL     OW83441   0.235   6.066   0.588  0.4523  1.0043 -0.5659
27145SOL    HW183442   0.255   6.002   0.656 -0.7422  0.3712 -0.7959
27145SOL    HW283443   0.214   6.146   0.636 -0.5583  0.5125 -0.1668
27146SOL     OW83444   6.339   6.866   9.601  0.4828 -0.0805  0.3043
27146SOL    HW183445   6.306   6.848   9.513 -0.7781  0.2437  0.6975
27146SOL    HW283446   6.261   6.875   9.655  1.2242  0.5144  1.3120
27147SOL     OW83447   6.731   7.865  10.416  0.0282  0.0118 -0.1998
27147SOL    HW183448   6.776   7.911  10.345  1.4814  2.5455  2.1448
27147SOL    HW283449   6.639   7.886  10.405  0.2704  0.6028 -1.1596
27148SOL     OW83450   4.208   3.829   9.182 -0.0397 -0.0792  0.1438
27148SOL    HW183451   4.121   3.843   9.219 -1.2455 -3.7664 -0.8455
27148SOL    HW283452   4.265   3.812   9.257 -0.1393  2.1915  0.7868
27149SOL     OW83453   5.235   7.947   7.612  0.4137 -0.2446 -0.6904
27149SOL    HW183454   5.183   8.019   7.577 -0.6443 -1.7500 -2.4252
27149SOL    HW283455   5.317   7.950   7.563  0.6116  0.1094 -0.3445
27150SOL     OW83456   6.202   8.316  10.322 -0.0735  0.0540  0.2580
27150SOL    HW183457   6.270   8.373  10.356  1.1342 -2.3603  2.1870
27150SOL    HW283458   6.120   8.352  10.359  0.4053  1.5043 -0.0209
27151SOL     OW83459   0.639  10.648   5.229  0.1848  0.1483  0.5569
27151SOL    HW183460   0.581  10.708   5.275  0.7055 -1.3830  3.4247
27151SOL    HW283461   0.716  10.700   5.209 -0.6775  1.2531 -0.0320
27152SOL     OW83462   5.249   6.434   2.954  0.0321  0.7531 -0.5680
27152SOL    HW183463   5.159   6.421   2.926 -0.2455  0.3476  0.4615
27152SOL    HW283464   5.246   6.426   3.049  1.3417 -0.3429 -0.5891
27153SOL     OW83465   1.540   5.971   2.594  0.4931 -0.1261  0.4461
27153SOL    HW183466   1.502   6.043   2.644  0.6028  3.4556 -3.9747
27153SOL    HW283467   1.465   5.928   2.553  0.4576  3.2368 -3.6418
27154SOL     OW83468  10.659   6.511   7.244 -0.4998  0.0837 -0.5824
27154SOL    HW183469  10.716   6.493   7.170  0.0905  0.9774 -0.3628
27154SOL    HW283470  10.573   6.477   7.218  0.1767 -1.5286 -0.8034
27155SOL     OW83471   1.388   6.183   9.283 -0.1509  0.3229  0.1606
27155SOL    HW183472   1.442   6.113   9.319 -0.1720 -0.5223 -1.3630
27155SOL    HW283473   1.450   6.240   9.237 -0.4870 -0.6282 -1.5599
27156SOL     OW83474   1.979   8.898   3.532  0.4835  0.3625  0.0623
27156SOL    HW183475   2.011   8.975   3.578 -0.3007  0.5764  0.2619
27156SOL    HW283476   1.973   8.925   3.440  1.2546  0.1916 -0.0464
27157SOL     OW83477   2.674   1.588  11.094 -0.1935  0.1104 -0.3962
27157SOL    HW183478   2.763   1.616  11.111 -0.0345  0.7667 -2.1237
27157SOL    HW283479   2.619   1.655  11.133  0.1257  0.8246 -1.1521
27158SOL     OW83480   7.693   5.057   0.994  0.2024 -0.1151  0.1059
27158SOL    HW183481   7.690   5.109   1.075 -0.8572  2.0527 -1.2190
27158SOL    HW283482   7.613   5.083   0.947  1.9227  0.5279 -2.6567
27159SOL     OW83483   8.458   8.791   9.816  0.2265  0.4894  0.1028
27159SOL    HW183484   8.552   8.798   9.796  0.3525  1.1074  0.8434
27159SOL    HW283485   8.454   8.791   9.911 -0.5153  0.1975  0.0753
27160SOL     OW83486   2.455   3.811   3.823  0.0092 -0.3922  0.5599
27160SOL    HW183487   2.536   3.771   3.793 -1.0030 -1.2938 -1.0904
27160SOL    HW283488   2.434   3.876   3.756 -0.7238 -0.2993  0.8720
27161SOL     OW83489   1.982   7.294   2.401 -0.5418  0.5260 -0.8331
27161SOL    HW183490   2.042   7.368   2.394  0.3767  0.2086  2.2248
27161SOL    HW283491   2.031   7.219   2.369  0.0430  0.5887 -0.1034
27162SOL     OW83492  10.881  10.019   1.161 -0.4341  0.1704 -0.0268
27162SOL    HW183493  10.905   9.944   1.106 -0.8988 -0.1511  0.2010
27162SOL    HW283494  10.788  10.006   1.178 -0.5087  0.7842  0.0460
27163SOL     OW83495   6.228  10.684   3.539  0.0150 -0.0226  0.1367
27163SOL    HW183496   6.317  10.711   3.563  0.5252 -2.6226  1.4921
27163SOL    HW283497   6.201  10.748   3.474  2.7104  1.1202  0.0011
27164SOL     OW83498  10.094   9.895   8.561  0.1085 -0.5825  0.2112
27164SOL    HW183499  10.014   9.938   8.590 -0.4948 -1.4511 -0.1389
27164SOL    HW283500  10.064   9.824   8.505  1.1649 -0.2029 -0.8865
27165SOL     OW83501   0.796   1.350   9.774  0.5723  0.3427 -0.1957
27165SOL    HW183502   0.861   1.417   9.795  2.2717 -0.6816 -1.8845
27165SOL    HW283503   0.847   1.278   9.738 -1.4656 -0.7806 -0.9968
27166SOL     OW83504   0.137   3.332   8.367  0.8448  0.6999  0.5768
27166SOL    HW183505   0.111   3.336   8.459  2.1311 -2.3688  1.2188
27166SOL    HW283506   0.132   3.422   8.336 -0.7644  1.6634  3.2999
27167SOL     OW83507   0.729   6.724   0.447 -0.0365 -0.1177  0.3791
27167SOL    HW183508   0.714   6.761   0.534  0.1813 -1.0271  0.8200
27167SOL    HW283509   0.721   6.798   0.387  0.0965  0.5729  1.1990
27168SOL     OW83510   2.520   3.132   8.928  0.1676  0.2075  0.2528
27168SOL    HW183511   2.525   3.060   8.865 -0.6257  0.1727  0.2166
27168SOL    HW283512   2.512   3.211   8.874 -1.0718  0.1309  0.2929
27169SOL     OW83513   2.971   0.142   8.103 -0.2060 -0.0404 -0.0644
27169SOL    HW183514   3.009   0.145   8.191 -0.7861  0.9249  0.1666
27169SOL    HW283515   2.892   0.196   8.109 -1.2881 -1.5030 -0.6960
27170SOL     OW83516   7.281   3.634   2.475 -0.4690  0.3262 -0.7926
27170SOL    HW183517   7.226   3.564   2.509  1.6058 -1.5241 -1.0493
27170SOL    HW283518   7.222   3.687   2.421 -2.5499  0.0437  1.0662
27171SOL     OW83519   0.918   0.287   8.740 -0.6737 -0.1011 -0.5284
27171SOL    HW183520   0.945   0.203   8.704 -2.1164 -0.3619 -1.0880
27171SOL    HW283521   0.865   0.327   8.670 -1.7370  0.3429  0.4841
27172SOL     OW83522   1.873   2.258   2.688 -0.7397  0.2841  0.2527
27172SOL    HW183523   1.923   2.339   2.693 -2.0050  1.1618 -0.7143
27172SOL    HW283524   1.938   2.189   2.702  0.1798  1.4725  2.0939
27173SOL     OW83525   9.762   7.330   2.184 -0.2831  0.2924  0.1311
27173SOL    HW183526   9.820   7.313   2.258 -1.6372 -1.3130  0.8881
27173SOL    HW283527   9.680   7.360   2.223 -0.6253  0.6116 -0.7917
27174SOL     OW83528  10.294   3.153   2.016  0.0067 -0.2976 -0.7473
27174SOL    HW183529  10.243   3.074   2.029  0.2225 -0.1353  1.3566
27174SOL    HW283530  10.385   3.123   2.012  0.0138 -0.2477 -0.9730
27175SOL     OW83531   8.664   3.315   0.704  0.5179  0.2178  0.1256
27175SOL    HW183532   8.742   3.335   0.755 -0.1285 -0.2375  1.3333
27175SOL    HW283533   8.688   3.336   0.614  1.7182  0.9673  0.5976
27176SOL     OW83534   3.308   2.380   4.906 -0.9460  0.2014  0.4182
27176SOL    HW183535   3.359   2.455   4.876 -1.6113 -0.8349 -3.9754
27176SOL    HW283536   3.217   2.401   4.882 -1.5929 -0.8612  1.7556
27177SOL     OW83537   1.772   4.444   0.402 -0.1279  0.1067 -0.5504
27177SOL    HW183538   1.792   4.507   0.472 -0.8028 -0.2018 -0.0649
27177SOL    HW283539   1.856   4.426   0.361  0.3588 -0.0098  0.4569
27178SOL     OW83540   8.063   6.795   1.674  0.1828  0.1008  0.3638
27178SOL    HW183541   8.144   6.804   1.724  0.2350  0.1591  0.2692
27178SOL    HW283542   8.071   6.860   1.604  0.3315 -0.3281 -0.0222
27179SOL     OW83543   0.226   8.594   3.679 -0.3022  0.2099 -0.8299
27179SOL    HW183544   0.165   8.521   3.693  1.4323 -0.9010  1.5287
27179SOL    HW283545   0.189   8.642   3.604 -2.4585 -2.0519 -1.3425
27180SOL     OW83546   2.202   6.999   0.469  0.1506  0.1945 -0.7667
27180SOL    HW183547   2.173   7.054   0.396 -2.0393  0.4619  0.2352
27180SOL    HW283548   2.173   7.046   0.547  1.0968 -0.8365  0.2419
27181SOL     OW83549   1.353   6.835  10.067  0.0422 -0.2065 -0.0236
27181SOL    HW183550   1.447   6.850  10.083 -0.0231  3.0854 -1.7995
27181SOL    HW283551   1.320   6.803  10.151  2.3878  0.7152  1.3722
27182SOL     OW83552   2.881   0.220   7.318  0.1034  0.3261 -0.1741
27182SOL    HW183553   2.814   0.153   7.330 -0.5736  1.1567  0.8649
27182SOL    HW283554   2.877   0.273   7.398  0.8542  1.3825 -0.8072
27183SOL     OW83555  10.712   9.250  10.570  0.2103 -0.4352 -0.0210
27183SOL    HW183556  10.768   9.302  10.512 -0.5219  0.3584 -0.0352
27183SOL    HW283557  10.741   9.274  10.658 -0.5292  0.4690 -0.0151
27184SOL     OW83558   0.422   7.839   6.700 -0.1837  0.4633 -0.0489
27184SOL    HW183559   0.350   7.851   6.762  0.6020 -1.8950  1.4853
27184SOL    HW283560   0.498   7.877   6.745  0.1232  0.0090 -0.1754
27185SOL     OW83561   5.167   3.274   3.807  0.0784  0.3341  0.1477
27185SOL    HW183562   5.214   3.279   3.723 -1.4290  1.6582 -0.6868
27185SOL    HW283563   5.130   3.362   3.818  0.1770  0.1660  2.2007
27186SOL     OW83564   9.696   4.980   3.717  0.3821 -0.0832  0.4351
27186SOL    HW183565   9.693   5.058   3.773  1.1471 -1.6942  2.9126
27186SOL    HW283566   9.620   4.928   3.743  1.2819 -1.3137  0.7425
27187SOL     OW83567  10.551   5.952   0.369  0.4569  0.4150  0.0792
27187SOL    HW183568  10.536   6.041   0.336 -0.4397  0.2483  0.0179
27187SOL    HW283569  10.507   5.895   0.306  1.8493 -0.1557 -0.4238
27188SOL     OW83570   3.808  10.606   8.319  0.4209  0.3175 -0.4394
27188SOL    HW183571   3.812  10.523   8.367 -0.9542  0.4917  0.0144
27188SOL    HW283572   3.834  10.584   8.230  0.1379 -0.5834 -0.3028
27189SOL     OW83573   7.702   0.063   7.311 -0.4579 -0.0253  0.4972
27189SOL    HW183574   7.729   0.139   7.364 -0.9772 -0.3890  1.2938
27189SOL    HW283575   7.650   0.009   7.371 -0.6130 -0.7080 -0.2415
27190SOL     OW83576   7.914   0.062   5.428 -0.2121  0.5063 -0.0108
27190SOL    HW183577   7.905   0.022   5.341 -0.0277 -0.5069  0.4131
27190SOL    HW283578   7.855   0.011   5.483 -0.5795  1.3646  0.3908
27191SOL     OW83579   0.167   0.634   5.201  0.4379  0.5937  0.1349
27191SOL    HW183580   0.183   0.581   5.123  0.7938 -1.4032  1.5180
27191SOL    HW283581   0.217   0.714   5.185 -0.5958  0.8632 -2.2734
27192SOL     OW83582   0.281   4.240   7.441 -1.1098 -0.3416  0.2910
27192SOL    HW183583   0.215   4.282   7.495 -1.0776 -0.8740  0.7518
27192SOL    HW283584   0.364   4.278   7.470 -1.2444  0.8418 -0.7615
27193SOL     OW83585   1.854   7.747   3.350 -0.6764  0.2516  0.3009
27193SOL    HW183586   1.832   7.769   3.440  0.0958 -0.9029  0.7882
27193SOL    HW283587   1.894   7.660   3.355  0.9609  0.8875 -0.9395
27194SOL     OW83588   2.377   9.600   3.595  0.3049  0.3586  0.5233
27194SOL    HW183589   2.305   9.580   3.535  1.1383 -3.8525  0.6043
27194SOL    HW283590   2.441   9.647   3.541 -1.4266  2.1293 -0.1337
27195SOL     OW83591   6.815   9.685   5.312 -0.2445 -0.6900 -0.0199
27195SOL    HW183592   6.754   9.642   5.371  0.2055  1.2216  1.9711
27195SOL    HW283593   6.785   9.776   5.308  1.6762 -0.0033 -0.0015
27196SOL     OW83594   0.555   6.029   5.694 -0.2849 -0.0179  1.0165
27196SOL    HW183595   0.583   6.098   5.754  1.1716 -0.3835  0.8015
27196SOL    HW283596   0.548   5.951   5.749 -4.1004  0.6373  1.7284
27197SOL     OW83597   1.795   9.119   0.852  1.2950  0.2351  0.4845
27197SOL    HW183598   1.811   9.129   0.758  0.4136  0.8014  0.3860
27197SOL    HW283599   1.848   9.043   0.877  0.2263 -1.0043 -0.8154
27198SOL     OW83600   0.319   8.164   3.502  0.2513  0.3507  0.1039
27198SOL    HW183601   0.365   8.246   3.486  1.1572 -0.0590  0.5437
27198SOL    HW283602   0.226   8.189   3.505  0.5813  1.5790  1.4276
27199SOL     OW83603  10.422   4.688   3.667 -0.2966 -0.3955  0.6800
27199SOL    HW183604  10.426   4.681   3.762 -3.4378 -0.1119  0.9414
27199SOL    HW283605  10.400   4.600   3.637  1.3135 -0.6375  0.0976
27200SOL     OW83606   7.451   1.409   1.003  0.2261 -0.7926 -0.0589
27200SOL    HW183607   7.356   1.398   0.997  0.0164  1.3220 -1.7800
27200SOL    HW283608   7.477   1.355   1.078 -2.5388 -0.1796  1.4543
27201SOL     OW83609   0.907   9.720   7.833 -1.0187  0.2552  0.6904
27201SOL    HW183610   0.941   9.803   7.799  1.5526 -0.3683  1.4981
27201SOL    HW283611   0.858   9.682   7.761  0.4958  1.0097 -0.8031
27202SOL     OW83612   0.317   8.153   8.179  0.1460 -0.2466  0.0242
27202SOL    HW183613   0.303   8.212   8.104  1.1462 -0.9460 -0.7402
27202SOL    HW283614   0.253   8.083   8.165 -0.3330  0.1121  0.3695
27203SOL     OW83615   8.667   6.072   4.375  0.2881 -0.3686  0.0785
27203SOL    HW183616   8.740   6.011   4.366  0.3923 -0.2768  0.2798
27203SOL    HW283617   8.593   6.029   4.333  0.4397 -0.4948 -0.0619
27204SOL     OW83618   5.489   3.800   4.075  0.2500 -0.2286  0.3086
27204SOL    HW183619   5.427   3.861   4.035  1.1523  0.5046 -0.0138
27204SOL    HW283620   5.478   3.719   4.025  0.7472  0.4151 -0.8858
27205SOL     OW83621   1.902   9.312   0.205 -0.8921 -0.4692  0.5002
27205SOL    HW183622   1.877   9.288   0.294  0.4366  0.0275  1.0460
27205SOL    HW283623   1.918   9.407   0.210 -0.1214 -0.5598 -0.0713
27206SOL     OW83624   5.658   1.945   4.022 -0.1846  0.1746 -0.4671
27206SOL    HW183625   5.679   2.034   4.051 -2.0970  0.1401  1.2759
27206SOL    HW283626   5.605   1.958   3.943  3.2210  0.3378 -2.9474
27207SOL     OW83627   7.688   9.235   0.837  0.3007 -0.1552 -0.5116
27207SOL    HW183628   7.690   9.166   0.904  4.8275 -0.3491 -0.6028
27207SOL    HW283629   7.775   9.274   0.839 -0.0964  1.4592 -4.6835
27208SOL     OW83630   0.704   8.866   2.998  0.0664 -0.0390 -0.0198
27208SOL    HW183631   0.733   8.878   2.907 -0.0061 -2.2343 -0.3775
27208SOL    HW283632   0.661   8.948   3.020 -3.5302 -0.7318 -3.3376
27209SOL     OW83633   4.657   7.077  10.519 -0.0912 -0.4651  0.0950
27209SOL    HW183634   4.618   7.009  10.464 -0.5458 -0.9831  1.0439
27209SOL    HW283635   4.585   7.138  10.537  0.4632  0.6830 -1.3106
27210SOL     OW83636  10.392   2.835   6.720 -0.0780  0.2551  0.4542
27210SOL    HW183637  10.306   2.797   6.741 -0.6182  1.3195  0.2472
27210SOL    HW283638  10.444   2.821   6.799  0.0727 -1.7577  0.0541
27211SOL     OW83639  10.739   5.817   0.519 -0.4083 -0.7194  0.2382
27211SOL    HW183640  10.682   5.861   0.457  0.7084  2.0791  1.0580
27211SOL    HW283641  10.699   5.834   0.605  0.5707 -0.4334  0.6537
27212SOL     OW83642   2.792   6.820   9.854  0.0310 -0.4523  0.4516
27212SOL    HW183643   2.821   6.836   9.944 -0.5756 -1.0252  0.7538
27212SOL    HW283644   2.862   6.856   9.800  0.2702  0.1545  1.1474
27213SOL     OW83645   0.345   1.816   0.659  0.1307  0.3524  0.0929
27213SOL    HW183646   0.324   1.884   0.723  1.1640  0.2943  0.5086
27213SOL    HW283647   0.326   1.857   0.574  1.1251  1.3199  0.3154
27214SOL     OW83648  10.807   5.746   6.939  0.3652  0.6617 -0.0488
27214SOL    HW183649  10.820   5.828   6.891 -2.2235  1.2057  0.0671
27214SOL    HW283650  10.785   5.682   6.871  1.4546  0.2360 -0.0310
27215SOL     OW83651   5.744   8.393   5.717  0.2736 -0.1978 -0.0322
27215SOL    HW183652   5.738   8.388   5.622  2.3981 -0.3779 -0.2084
27215SOL    HW283653   5.655   8.378   5.748 -0.6393  0.8179 -2.0147
27216SOL     OW83654   6.653   1.762   8.584 -0.2163 -0.0433 -0.6210
27216SOL    HW183655   6.744   1.792   8.583 -0.1820 -0.0995  0.1734
27216SOL    HW283656   6.632   1.753   8.677  0.2131 -3.7522 -0.7271
27217SOL     OW83657   6.442   8.051   0.349  0.1324  0.0628 -0.7509
27217SOL    HW183658   6.368   8.111   0.359  0.4281  1.0055 -3.5017
27217SOL    HW283659   6.415   7.990   0.280  0.1820 -2.5717  1.3778
27218SOL     OW83660   4.559   8.372   4.112 -0.0044 -1.0422 -0.0876
27218SOL    HW183661   4.491   8.312   4.081  0.4210 -2.8404  2.1838
27218SOL    HW283662   4.634   8.316   4.132  0.0223 -0.0468  3.2827
27219SOL     OW83663  10.937   2.306   9.838  0.2385 -0.4248  0.5634
27219SOL    HW183664  10.964   2.317   9.930 -1.8144 -1.1953  1.3128
27219SOL    HW283665  10.989   2.232   9.808  2.3159  0.9763  0.4541
27220SOL     OW83666   8.000   4.209   0.521  0.6427 -0.8317  0.3418
27220SOL    HW183667   7.910   4.240   0.516  1.0295  0.1911 -0.8841
27220SOL    HW283668   8.029   4.233   0.609 -0.1636 -0.8464  0.6163
27221SOL     OW83669   0.780   2.057   3.357  0.2831 -0.4550 -0.0372
27221SOL    HW183670   0.861   2.017   3.327 -0.8727 -1.3076 -2.2335
27221SOL    HW283671   0.807   2.142   3.393  2.0141 -0.0290 -2.1375
27222SOL     OW83672   9.872   8.236   7.065 -0.1889  0.5822 -0.1053
27222SOL    HW183673   9.841   8.150   7.038  1.1548  0.2567 -0.6848
27222SOL    HW283674   9.870   8.233   7.161  0.4371 -0.3341 -0.1068
27223SOL     OW83675   5.901  10.239   3.238 -0.0790 -0.6082  0.5164
27223SOL    HW183676   5.807  10.231   3.252 -0.4383 -1.6570 -2.0388
27223SOL    HW283677   5.915  10.333   3.226 -1.0203 -0.5695 -0.3730
27224SOL     OW83678   7.262   1.023   1.253  0.0160 -0.3747 -0.0110
27224SOL    HW183679   7.347   0.998   1.289 -1.0204 -1.6767  1.7144
27224SOL    HW283680   7.262   1.118   1.256  0.6980 -0.3840  1.8398
27225SOL     OW83681   9.278   6.485   6.632 -0.8392 -0.1395  0.1362
27225SOL    HW183682   9.316   6.544   6.566 -0.8470 -1.2448 -0.8995
27225SOL    HW283683   9.227   6.543   6.689  0.3926  1.0483  0.0875
27226SOL     OW83684   2.961   8.565   8.942 -0.0196  0.0885 -0.8049
27226SOL    HW183685   2.948   8.522   9.027 -4.3169 -0.7642 -1.6711
27226SOL    HW283686   2.953   8.494   8.878  0.2851  1.1171 -2.0273
27227SOL     OW83687   1.948   0.796   1.322  0.1456  0.9469  0.4877
27227SOL    HW183688   1.975   0.869   1.378  0.3226  1.9133 -0.8242
27227SOL    HW283689   1.856   0.811   1.305  0.4319  1.4884 -0.6678
27228SOL     OW83690   4.923   9.723   5.190 -0.1103 -0.4775 -0.2612
27228SOL    HW183691   4.841   9.733   5.239  0.8165 -2.5549  1.8911
27228SOL    HW283692   4.904   9.655   5.125 -0.5099  0.1443 -0.8000
27229SOL     OW83693   2.903   2.895   6.211  0.7055 -0.5171 -0.4452
27229SOL    HW183694   2.928   2.869   6.300  1.4197  0.5257 -0.3306
27229SOL    HW283695   2.908   2.990   6.211  0.5800 -0.4978 -1.5718
27230SOL     OW83696   6.087   4.927  10.897 -0.2035 -0.3233  0.1565
27230SOL    HW183697   6.059   4.975  10.975  2.6523  0.4226  0.8317
27230SOL    HW283698   6.040   4.843  10.902 -1.3839  0.3801  1.7241
27231SOL     OW83699   2.727  10.584   7.245  0.6649 -0.2956  0.0424
27231SOL    HW183700   2.820  10.598   7.225  1.0586 -0.6851  1.4623
27231SOL    HW283701   2.725  10.569   7.340 -0.8255 -0.5394 -0.0035
27232SOL     OW83702   4.280   4.035   7.593  0.2630  0.0158 -0.3399
27232SOL    HW183703   4.198   4.048   7.546  0.2859 -2.2192 -1.1115
27232SOL    HW283704   4.330   4.115   7.577 -1.3942  1.0523 -0.5664
27233SOL     OW83705   7.666   5.309   8.151 -0.0492  0.3091  0.4437
27233SOL    HW183706   7.638   5.298   8.241 -0.0603 -0.8902  0.3101
27233SOL    HW283707   7.723   5.386   8.152  0.5454 -0.1314  1.6121
27234SOL     OW83708   3.824  10.406   0.682 -0.1081 -0.1118 -0.2119
27234SOL    HW183709   3.784  10.340   0.739  1.5239  0.5773  1.8867
27234SOL    HW283710   3.760  10.477   0.680 -0.6136 -0.5517 -0.0495
27235SOL     OW83711   7.520   4.898   0.585 -0.0216  0.4050  0.1998
27235SOL    HW183712   7.440   4.873   0.540 -0.9504  0.9455  1.4757
27235SOL    HW283713   7.549   4.978   0.541  0.4388 -0.3823 -0.9595
27236SOL     OW83714  10.859   3.179   0.440 -0.7083  0.0106  0.5583
27236SOL    HW183715  10.808   3.101   0.420 -1.4523  0.9981 -1.6650
27236SOL    HW283716  10.794   3.246   0.460 -0.1543  0.5286  0.6581
27237SOL     OW83717   5.948   9.556  10.964  0.2503 -0.5621 -0.2873
27237SOL    HW183718   6.007   9.613  11.014 -1.7906  1.1109  0.3789
27237SOL    HW283719   5.934   9.604  10.882 -0.9626 -0.4227 -0.0060
27238SOL     OW83720   4.127   1.669   8.514  0.3209  0.1941 -0.4347
27238SOL    HW183721   4.118   1.577   8.487 -0.2378  0.6365 -1.8477
27238SOL    HW283722   4.041   1.692   8.549  0.8815 -0.2121  1.3133
27239SOL     OW83723  10.779   8.133   3.042 -0.1438 -0.2823  0.1400
27239SOL    HW183724  10.717   8.063   3.021 -1.6133  0.9522  0.1175
27239SOL    HW283725  10.749   8.207   2.990 -1.0773  1.5017  2.9604
27240SOL     OW83726   4.797  10.800   5.956 -0.4763 -0.5401  0.4889
27240SOL    HW183727   4.866  10.866   5.946 -0.2790 -0.5547  1.5976
27240SOL    HW283728   4.832  10.721   5.914 -2.1789  0.9017 -4.3317
27241SOL     OW83729   6.136   0.752   6.641 -0.0157  0.2518 -0.1592
27241SOL    HW183730   6.202   0.784   6.702 -0.4977 -0.5381  0.7980
27241SOL    HW283731   6.065   0.816   6.645  0.6537  1.0815 -1.1603
27242SOL     OW83732   5.255   4.736   7.085 -0.1365  0.2329 -0.4668
27242SOL    HW183733   5.193   4.665   7.098  1.0165 -0.3480  2.5814
27242SOL    HW283734   5.202   4.815   7.088 -1.2207 -0.3541 -2.3224
27243SOL     OW83735   9.382   8.685   8.832  0.4059 -0.1877 -0.1884
27243SOL    HW183736   9.341   8.770   8.841 -0.3997 -0.7112  1.5253
27243SOL    HW283737   9.444   8.680   8.905 -0.7032 -1.6458  0.7211
27244SOL     OW83738  10.045   3.261   4.226  0.1358  0.7922  0.0730
27244SOL    HW183739  10.000   3.179   4.206  0.9908  0.3367 -0.0630
27244SOL    HW283740  10.004   3.292   4.307 -1.1795  1.0011 -0.6424
27245SOL     OW83741   0.951   9.513   3.785 -0.2099  0.0082  0.7356
27245SOL    HW183742   0.928   9.543   3.697  1.8406 -0.5903 -0.0834
27245SOL    HW283743   0.979   9.422   3.772 -1.7305 -0.7359  2.3567
27246SOL     OW83744   1.139   6.025   4.355 -0.5322  0.1352  0.2722
27246SOL    HW183745   1.105   5.936   4.358  2.2529 -1.0308  1.0357
27246SOL    HW283746   1.086   6.074   4.418 -1.2531 -1.3247  0.8472
27247SOL     OW83747   9.666   0.484  10.145  0.1031 -0.1779 -0.4343
27247SOL    HW183748   9.682   0.540  10.221  0.3273 -2.3271  1.1851
27247SOL    HW283749   9.746   0.490  10.093  0.2601  0.6986 -0.1140
27248SOL     OW83750   6.157   9.453   5.749  0.1418  0.3119  0.7701
27248SOL    HW183751   6.106   9.530   5.772 -0.9612 -0.1834  0.0799
27248SOL    HW283752   6.117   9.382   5.799  1.0154  0.1301  1.2399
27249SOL     OW83753  10.044   7.676   4.141 -0.2464  0.1641 -0.5430
27249SOL    HW183754  10.014   7.636   4.059 -0.4398  1.2244 -1.0161
27249SOL    HW283755  10.036   7.607   4.206 -0.1769 -0.6801 -1.4029
27250SOL     OW83756   1.938   9.084   7.704  0.2209  0.5554  0.2878
27250SOL    HW183757   2.015   9.064   7.651 -0.5394 -1.2934 -0.1937
27250SOL    HW283758   1.909   9.170   7.671  1.2212  0.6187 -0.5142
27251SOL     OW83759   9.141   5.158   7.775 -0.2580 -0.3915 -0.1326
27251SOL    HW183760   9.079   5.098   7.735 -1.1051  0.8167 -0.6921
27251SOL    HW283761   9.195   5.188   7.701  1.1633 -1.5859  0.3738
27252SOL     OW83762   9.353   4.662   4.025  0.3404  0.4232  0.6385
27252SOL    HW183763   9.334   4.598   4.093 -0.5558 -1.7475 -1.5318
27252SOL    HW283764   9.280   4.724   4.028 -1.4600 -1.5441 -0.4215
27253SOL     OW83765   2.227   1.610  11.031 -0.1193  0.8659 -0.6438
27253SOL    HW183766   2.304   1.571  10.990 -0.4764 -1.9346  1.1228
27253SOL    HW283767   2.153   1.569  10.986 -0.5028 -0.4735  1.1067
27254SOL     OW83768   8.982   5.743   7.095 -0.0404  0.1789 -0.3406
27254SOL    HW183769   9.028   5.665   7.125  1.5641  1.2342  0.1389
27254SOL    HW283770   8.898   5.742   7.141  0.3649 -0.7561  0.4000
27255SOL     OW83771   3.422   5.964   0.624  0.4049  0.4613 -0.1701
27255SOL    HW183772   3.452   5.940   0.536 -1.2075 -1.0180 -0.3787
27255SOL    HW283773   3.501   5.962   0.678  0.8738 -2.8260 -0.7666
27256SOL     OW83774   0.700   0.867   8.161 -0.1489  0.7025 -0.8230
27256SOL    HW183775   0.689   0.781   8.121 -1.6209  1.8841 -3.2007
27256SOL    HW283776   0.761   0.853   8.234  0.4655 -2.1125 -1.7799
27257SOL     OW83777  10.807   5.702   1.165 -0.3936  0.7210  0.9224
27257SOL    HW183778  10.740   5.641   1.198 -1.2069  1.2911  0.3767
27257SOL    HW283779  10.878   5.697   1.229 -0.1735 -1.2271  0.5978
27258SOL     OW83780   0.779   7.130   2.376 -0.0053 -0.2189 -0.5979
27258SOL    HW183781   0.782   7.123   2.471  0.6803 -1.5920 -0.6993
27258SOL    HW283782   0.696   7.174   2.358 -0.1019  0.1340  0.6334
27259SOL     OW83783   1.739   7.251   8.586 -0.3905 -0.1790  0.3200
27259SOL    HW183784   1.751   7.166   8.544 -2.5273 -1.0107  1.2931
27259SOL    HW283785   1.797   7.248   8.662 -1.0098 -1.0909  0.7748
27260SOL     OW83786   0.768   4.690   4.629  0.4202 -0.0822  0.9404
27260SOL    HW183787   0.790   4.783   4.617  2.6845 -0.1286  3.5891
27260SOL    HW283788   0.699   4.691   4.696  0.0267 -0.3345  0.5474
27261SOL     OW83789   7.337   3.850   7.124 -0.4635 -0.0243  0.2235
27261SOL    HW183790   7.365   3.766   7.160  1.7220  0.5660  0.0549
27261SOL    HW283791   7.384   3.915   7.176 -2.5750  1.1660  0.7438
27262SOL     OW83792   0.240   5.755   9.411  0.7897  0.1976  0.7927
27262SOL    HW183793   0.208   5.727   9.325  2.4417 -0.1395  0.2568
27262SOL    HW283794   0.178   5.715   9.473 -0.0633 -0.0798 -0.2002
27263SOL     OW83795   8.481   7.315   7.581 -0.5019  0.0170  0.3849
27263SOL    HW183796   8.406   7.272   7.539 -0.7451  0.2729  0.5552
27263SOL    HW283797   8.554   7.298   7.522 -1.0759  1.3774 -0.7765
27264SOL     OW83798   7.473   2.489   7.133 -0.1695 -0.1071  0.2955
27264SOL    HW183799   7.414   2.435   7.079 -0.0826 -0.7313  0.8152
27264SOL    HW283800   7.429   2.494   7.218  0.9618 -1.3732  0.9864
27265SOL     OW83801   7.310  10.581   5.731  0.1959 -0.6147 -0.5527
27265SOL    HW183802   7.311  10.634   5.811 -1.8356 -1.6073  0.2177
27265SOL    HW283803   7.397  10.543   5.726  0.4424 -0.3451  1.0977
27266SOL     OW83804  10.684   0.754   4.603 -0.3841  0.3327  0.7796
27266SOL    HW183805  10.618   0.816   4.572 -0.4102  0.5179  1.1884
27266SOL    HW283806  10.635   0.675   4.624 -0.3039  0.0445 -0.0748
27267SOL     OW83807   2.767   6.141   6.381  0.5364  0.4865 -0.7257
27267SOL    HW183808   2.780   6.074   6.315 -1.1479  0.7208 -1.3608
27267SOL    HW283809   2.720   6.211   6.335 -2.2929 -0.0802  1.0118
27268SOL     OW83810   4.632  10.472   2.086 -0.2822  0.7834  0.6113
27268SOL    HW183811   4.559  10.411   2.095  0.3102 -0.0738 -0.2528
27268SOL    HW283812   4.640  10.512   2.173 -3.4444  2.8878  0.1095
27269SOL     OW83813   1.669   9.263   2.076  0.4167  0.5614  0.3531
27269SOL    HW183814   1.596   9.201   2.087  1.7881 -0.8518  2.1825
27269SOL    HW283815   1.661   9.322   2.152  0.6608  0.9709  0.0625
27270SOL     OW83816   5.344   7.516   8.716  0.4785  0.0586 -0.0047
27270SOL    HW183817   5.383   7.536   8.631 -1.4561 -0.3843 -1.0807
27270SOL    HW283818   5.328   7.601   8.756 -4.5598  0.9811 -3.0377
27271SOL     OW83819   6.092   8.022   5.909  0.0647  0.1038  0.2625
27271SOL    HW183820   6.128   7.989   5.991  1.2891  1.1575  0.1890
27271SOL    HW283821   6.104   7.951   5.846  0.2435 -0.2668  0.7159
27272SOL     OW83822   9.740   1.480   4.164 -0.5944 -0.4164  0.2746
27272SOL    HW183823   9.695   1.517   4.088 -1.4714 -1.0501  0.4677
27272SOL    HW283824   9.718   1.539   4.236 -0.1753 -0.0968  0.1466
27273SOL     OW83825   5.343   8.670   3.572  0.1731 -0.7839  0.4530
27273SOL    HW183826   5.300   8.712   3.646 -0.0938 -1.2747  0.5795
27273SOL    HW283827   5.278   8.609   3.538  0.9711 -1.9864  1.0364
27274SOL     OW83828   7.450   0.005   5.893  0.0612  0.8657  0.1401
27274SOL    HW183829   7.424  -0.086   5.878  0.3989  0.8602 -0.4178
27274SOL    HW283830   7.520  -0.000   5.957  3.0688  0.3419 -2.9165
27275SOL     OW83831   3.308   8.108  10.645  0.2347 -0.0741 -1.0202
27275SOL    HW183832   3.357   8.027  10.634 -1.6491 -1.7958  1.8659
27275SOL    HW283833   3.218   8.079  10.660 -0.4546  2.4894  0.3828
27276SOL     OW83834   4.065   0.437   2.153 -0.4781 -0.5115 -0.5281
27276SOL    HW183835   4.111   0.362   2.191  2.4965  0.9258 -1.0054
27276SOL    HW283836   4.033   0.485   2.229 -0.0762 -0.8941 -0.1066
27277SOL     OW83837   1.988   4.984   7.582  0.6265 -0.1324  0.5805
27277SOL    HW183838   1.901   4.994   7.545  0.6211  0.1464  0.6694
27277SOL    HW283839   1.984   4.900   7.628 -0.4611  1.0969  2.9235
27278SOL     OW83840   4.951   9.328   9.797  0.1627 -0.2234 -0.4421
27278SOL    HW183841   5.013   9.305   9.866 -0.2568  0.8487  0.3194
27278SOL    HW283842   4.958   9.257   9.733  0.5605 -1.2366  0.6963
27279SOL     OW83843   6.593   5.954   9.704  0.0248 -0.5261 -0.5254
27279SOL    HW183844   6.577   5.986   9.616 -0.1421  2.7986  0.5902
27279SOL    HW283845   6.508   5.958   9.748  0.2045 -1.6392 -0.0168
27280SOL     OW83846   0.632   9.812   4.967 -0.5332  0.1381  0.9261
27280SOL    HW183847   0.573   9.849   4.902 -0.6856  0.1817  1.0891
27280SOL    HW283848   0.597   9.842   5.051 -0.8347 -0.6408  1.0798
27281SOL     OW83849   1.455   2.574  11.082  0.3311 -0.0681 -0.2147
27281SOL    HW183850   1.368   2.548  11.052  0.2973  1.4127 -1.5337
27281SOL    HW283851   1.515   2.530  11.022  0.5011 -0.7621  0.4422
27282SOL     OW83852   0.138  11.058   2.561 -0.1147  0.5362  0.2626
27282SOL    HW183853   0.122  10.979   2.509  0.2904 -0.1259  1.1208
27282SOL    HW283854   0.067  11.060   2.625 -1.1682  1.8734 -0.8726
27283SOL     OW83855  10.075   8.731  10.430 -0.6706  0.1975  0.3559
27283SOL    HW183856  10.005   8.669  10.451 -2.0917  1.3976 -0.5859
27283SOL    HW283857  10.127   8.736  10.510 -2.1081 -0.2022  1.3694
27284SOL     OW83858   9.588   4.560   6.413  1.2016  0.4382 -0.6020
27284SOL    HW183859   9.660   4.605   6.457  2.4043 -1.2083 -0.7872
27284SOL    HW283860   9.514   4.620   6.420  1.0420  0.0893  4.2383
27285SOL     OW83861   0.784   2.766   9.356  0.0382  0.5689  0.1300
27285SOL    HW183862   0.847   2.716   9.303 -2.1881 -1.0093 -1.1873
27285SOL    HW283863   0.784   2.853   9.317 -0.5464 -0.1911 -1.6664
27286SOL     OW83864   9.573   1.893   5.104  0.7809  0.3778 -0.0203
27286SOL    HW183865   9.580   1.824   5.169  0.1133 -0.9962 -1.3346
27286SOL    HW283866   9.481   1.919   5.105  0.0293 -1.7361 -2.3290
27287SOL     OW83867   8.950   6.035   7.113 -0.2124  0.1305  0.3125
27287SOL    HW183868   8.955   5.982   7.192  0.4396 -2.7137 -1.5051
27287SOL    HW283869   8.876   6.093   7.128 -0.7724 -1.0585  2.5649
27288SOL     OW83870   0.310   3.830   6.326  0.2066  0.4662  0.1895
27288SOL    HW183871   0.317   3.784   6.410 -0.0740 -0.9769 -0.5423
27288SOL    HW283872   0.217   3.821   6.302  0.6481 -0.9034 -1.1957
27289SOL     OW83873  10.743  10.981   4.435 -0.0307 -0.5404 -0.1855
27289SOL    HW183874  10.771  10.890   4.430 -0.2739 -0.6174 -0.1845
27289SOL    HW283875  10.699  10.988   4.520  0.8991 -0.1535  0.2768
27290SOL     OW83876   6.288  10.075   9.234 -1.1645  0.2407  0.7700
27290SOL    HW183877   6.238  10.125   9.170 -1.7067 -0.5368  0.5596
27290SOL    HW283878   6.365  10.128   9.252 -1.2740  0.7199 -0.1167
27291SOL     OW83879   1.715   4.811   6.090 -0.7074  0.2936  0.5017
27291SOL    HW183880   1.701   4.831   5.998 -1.9625 -1.8396  0.1495
27291SOL    HW283881   1.805   4.778   6.094 -1.4175 -1.9444 -0.4862
27292SOL     OW83882   6.579   4.754   8.368  0.0506  0.3237 -0.3965
27292SOL    HW183883   6.544   4.843   8.374  1.7006  1.1203 -1.6385
27292SOL    HW283884   6.635   4.745   8.445  1.2475  1.0453 -1.1530
27293SOL     OW83885   7.317   8.336   0.880 -0.0431 -0.6381 -0.7466
27293SOL    HW183886   7.291   8.246   0.862 -0.2602 -0.6291 -0.4772
27293SOL    HW283887   7.313   8.344   0.975  1.5166 -0.8200 -0.6321
27294SOL     OW83888   5.441   2.476   9.005 -0.0576 -0.7527 -0.5685
27294SOL    HW183889   5.425   2.541   9.073  1.5272 -0.1513 -0.7403
27294SOL    HW283890   5.470   2.526   8.929 -0.4734 -1.5321 -1.2706
27295SOL     OW83891   8.969  10.012   8.446 -0.4419 -0.6942  0.2289
27295SOL    HW183892   8.889  10.058   8.420 -0.8435 -0.1269  2.3245
27295SOL    HW283893   9.028  10.082   8.476  0.6243 -1.1682 -0.6733
27296SOL     OW83894   7.941  10.325   4.534  0.0696 -0.5925  0.0276
27296SOL    HW183895   8.000  10.387   4.578  0.5071 -1.1840  0.2799
27296SOL    HW283896   7.865  10.319   4.592 -0.9731  1.3591 -1.0398
27297SOL     OW83897   9.379   4.898   6.537  0.1991  0.4216 -0.3346
27297SOL    HW183898   9.373   4.836   6.464 -0.7149 -0.9485  0.8467
27297SOL    HW283899   9.296   4.887   6.584  1.0927  0.6540  1.3772
27298SOL     OW83900   3.131   3.627   8.630  0.5706 -1.0831 -0.0731
27298SOL    HW183901   3.037   3.638   8.614  0.2340 -1.9254  1.2499
27298SOL    HW283902   3.158   3.558   8.569  0.4415 -0.5484 -0.7558
27299SOL     OW83903   7.622   5.902   2.918 -0.2624 -0.1302  0.1697
27299SOL    HW183904   7.587   5.986   2.887  3.5387  1.3869 -0.6249
27299SOL    HW283905   7.655   5.859   2.840  0.3913 -1.0064  0.9037
27300SOL     OW83906   5.098   4.059   5.799 -0.4730 -0.4129 -0.3914
27300SOL    HW183907   5.130   4.126   5.858  0.3907 -1.0963 -0.0671
27300SOL    HW283908   5.156   3.984   5.812 -1.4883 -1.2825 -0.6452
27301SOL     OW83909   7.691   8.097   9.386  0.3817  0.4072  0.7801
27301SOL    HW183910   7.636   8.067   9.459 -0.0945  0.1095  0.3003
27301SOL    HW283911   7.761   8.032   9.381  1.8211  1.7364  2.5416
27302SOL     OW83912  10.401   4.337   4.033  0.0360  0.2172 -0.5580
27302SOL    HW183913  10.434   4.279   4.101 -1.0883 -0.0546 -0.2279
27302SOL    HW283914  10.306   4.336   4.044 -0.3260 -1.0238 -3.0729
27303SOL     OW83915   6.023   7.336   5.233  0.1290  0.4219 -0.2161
27303SOL    HW183916   5.975   7.393   5.173 -2.0319 -1.2201 -0.1956
27303SOL    HW283917   5.955   7.285   5.277  1.8832 -3.0106 -1.1232
27304SOL     OW83918   0.877   0.701   3.243 -0.4205 -0.0417  0.8346
27304SOL    HW183919   0.945   0.670   3.182 -0.4038  0.8743  0.3778
27304SOL    HW283920   0.922   0.705   3.328  0.3331  1.2529  0.4088
27305SOL     OW83921   7.270   7.647   4.755 -0.4607 -0.3823  0.0981
27305SOL    HW183922   7.325   7.654   4.832 -1.2980  2.0714  0.5656
27305SOL    HW283923   7.199   7.587   4.781 -0.5600  0.1694  1.1176
27306SOL     OW83924   4.981   6.466   0.542 -0.0142 -0.2117 -0.3336
27306SOL    HW183925   4.961   6.381   0.581 -2.4540  0.3713 -0.1750
27306SOL    HW283926   4.950   6.530   0.605  2.4145  0.9022 -0.1330
27307SOL     OW83927  10.172   4.625   0.140 -0.0502 -0.0025 -0.5970
27307SOL    HW183928  10.171   4.639   0.046 -2.9529  2.6783 -0.3223
27307SOL    HW283929  10.084   4.648   0.169  0.5166 -1.4155  2.7228
27308SOL     OW83930   5.960   3.862   5.753  0.6649  0.5827 -0.3750
27308SOL    HW183931   5.920   3.854   5.666  0.1281 -0.2220 -0.0664
27308SOL    HW283932   6.018   3.786   5.760  1.1189  0.9363 -0.2306
27309SOL     OW83933  11.065   4.103   8.382  0.2910 -0.3926  0.0541
27309SOL    HW183934  11.017   4.125   8.462  0.2279 -2.3868  0.6046
27309SOL    HW283935  11.118   4.181   8.363 -0.7508  0.6317  1.2304
27310SOL     OW83936   0.306   2.408   4.790  0.0475 -0.8432  0.0634
27310SOL    HW183937   0.230   2.368   4.747  0.0018  1.0491 -1.7493
27310SOL    HW283938   0.377   2.400   4.726  1.0484 -1.4407  1.2242
27311SOL     OW83939   5.708   4.605  10.245  0.4198  0.0272  0.1096
27311SOL    HW183940   5.721   4.696  10.274  0.5930 -0.8788  3.1982
27311SOL    HW283941   5.658   4.565  10.315  0.1787 -2.2480 -1.2869
27312SOL     OW83942   3.876   1.806   1.561 -0.5459  0.0865 -0.4393
27312SOL    HW183943   3.865   1.847   1.647  1.4444  1.6562 -0.8421
27312SOL    HW283944   3.920   1.873   1.509  2.3860 -2.3263 -1.3389
27313SOL     OW83945  10.168   7.436   6.440 -0.0132  0.7811  0.1762
27313SOL    HW183946  10.203   7.456   6.527 -2.5587  1.5820  1.0898
27313SOL    HW283947  10.130   7.518   6.410 -1.4555 -0.1090 -0.5402
27314SOL     OW83948   7.306   3.912   4.675 -0.5985  0.4697 -0.4111
27314SOL    HW183949   7.252   3.943   4.748 -3.8155  0.9812 -2.7823
27314SOL    HW283950   7.310   3.817   4.687  0.5733  0.6941  1.3690
27315SOL     OW83951   6.596   0.007   7.527 -0.1063  0.4867  0.0219
27315SOL    HW183952   6.529  -0.059   7.507 -0.5193  0.6029  0.9681
27315SOL    HW283953   6.574   0.081   7.471 -0.2473  0.1985 -0.3101
27316SOL     OW83954  10.378  10.332   3.905 -0.2733  0.4452  0.1131
27316SOL    HW183955  10.466  10.328   3.943 -0.3392  1.0404  0.3336
27316SOL    HW283956  10.359  10.426   3.898 -1.2558  0.3149  0.9017
27317SOL     OW83957   3.106   3.392   7.674  0.2398 -0.2682  0.6308
27317SOL    HW183958   3.141   3.326   7.614 -2.0214 -1.2361  0.2888
27317SOL    HW283959   3.012   3.394   7.656 -0.0066  1.8052  1.8709
27318SOL     OW83960   6.889   1.197   6.622 -0.3598  0.4132 -0.0739
27318SOL    HW183961   6.891   1.218   6.529 -0.3753  2.3927  0.3213
27318SOL    HW283962   6.978   1.168   6.642  0.2089  1.9151 -0.3307
27319SOL     OW83963   8.206   3.198   3.336 -0.2767 -0.6399 -0.5909
27319SOL    HW183964   8.292   3.156   3.330 -0.3297 -0.6051 -1.9055
27319SOL    HW283965   8.167   3.162   3.416  0.7081 -1.1314 -0.3151
27320SOL     OW83966   0.578   8.395   9.910  0.7240 -0.4424  0.4489
27320SOL    HW183967   0.630   8.382   9.831 -0.5916 -0.5770 -0.4099
27320SOL    HW283968   0.629   8.457   9.962  1.7749 -0.6214 -0.3379
27321SOL     OW83969   5.885   4.639   5.781 -0.3379  0.3730 -0.0887
27321SOL    HW183970   5.969   4.661   5.822 -0.4764  1.5153 -0.3813
27321SOL    HW283971   5.855   4.721   5.742 -0.7151 -0.4545 -1.5934
27322SOL     OW83972   0.352   9.230   7.759 -0.2372  0.4309 -0.0445
27322SOL    HW183973   0.406   9.294   7.805 -1.5121  1.3141  0.2906
27322SOL    HW283974   0.345   9.157   7.820 -0.3125  0.7791  0.3758
27323SOL     OW83975   6.039   3.303  10.052  0.7060  0.6967 -0.7764
27323SOL    HW183976   6.119   3.259  10.023 -0.1855 -1.3636 -0.2254
27323SOL    HW283977   6.065   3.351  10.131  1.1670 -0.8856  0.0673
27324SOL     OW83978   6.844   3.336   2.319  0.1045 -0.4801  0.0981
27324SOL    HW183979   6.901   3.413   2.322  0.1026 -0.5186  2.2231
27324SOL    HW283980   6.806   3.330   2.406  1.3865 -3.8438  0.5934
27325SOL     OW83981   0.476   3.557   4.299  0.1583 -0.1610 -0.2277
27325SOL    HW183982   0.540   3.626   4.282  1.0488 -1.2731 -1.5515
27325SOL    HW283983   0.431   3.545   4.215  0.7787 -1.9209 -0.3407
27326SOL     OW83984   5.489   7.406   9.093 -0.5914  0.4776  0.7681
27326SOL    HW183985   5.486   7.329   9.149  2.1220 -1.3635 -1.3403
27326SOL    HW283986   5.477   7.480   9.153 -1.1729 -1.4768  3.2065
27327SOL     OW83987   6.344   2.594   5.263  0.1442  0.1662 -0.2826
27327SOL    HW183988   6.288   2.570   5.190 -0.7640  2.2550 -0.3292
27327SOL    HW283989   6.301   2.556   5.340  0.9944 -1.8569 -0.7300
27328SOL     OW83990   9.001  10.734   9.384  0.2432  0.3018 -0.2113
27328SOL    HW183991   8.986  10.776   9.299  0.7213  0.3402 -0.2811
27328SOL    HW283992   8.923  10.681   9.399  0.5635 -0.4733 -1.1362
27329SOL     OW83993   6.037   0.184  10.161 -0.0207  0.4548 -0.5349
27329SOL    HW183994   5.983   0.107  10.143  0.9873 -0.2450 -0.6647
27329SOL    HW283995   6.116   0.149  10.202 -0.3011  1.5993  1.0964
27330SOL     OW83996   7.203   8.949   4.386  0.2250  0.0919 -0.1797
27330SOL    HW183997   7.151   8.875   4.415  1.1827 -0.2467  0.7373
27330SOL    HW283998   7.229   8.926   4.296  0.0095 -0.4053 -0.1168
27331SOL     OW83999   5.898   0.904  10.392  0.0065  1.0910  0.8944
27331SOL    HW184000   5.813   0.945  10.405 -1.2919 -0.8891 -0.7142
27331SOL    HW284001   5.944   0.962  10.330 -2.6203 -0.6190 -3.0875
27332SOL     OW84002  11.031   1.073   6.792 -0.4026  0.1126 -0.8775
27332SOL    HW184003  10.958   1.126   6.758 -0.9401  1.6926  2.3558
27332SOL    HW284004  10.989   1.000   6.837 -0.1101  1.2820  1.4015
27333SOL     OW84005   2.306   4.210   2.100  0.1049 -0.1379 -0.3681
27333SOL    HW184006   2.262   4.194   2.184 -0.5215  0.1002 -0.6436
27333SOL    HW284007   2.316   4.123   2.062  1.2182 -0.3455  0.3468
27334SOL     OW84008   8.597   2.967   1.826  0.3385 -0.0775 -0.1097
27334SOL    HW184009   8.646   2.886   1.839  0.7900  0.2178  0.0460
27334SOL    HW284010   8.654   3.035   1.862 -0.3194  0.2353  0.3547
27335SOL     OW84011   3.938   3.391   7.988  0.2243  0.1672 -0.8091
27335SOL    HW184012   3.993   3.434   8.054  0.7210 -1.1512 -0.3394
27335SOL    HW284013   3.881   3.334   8.039  0.3379 -0.5718 -1.4968
27336SOL     OW84014   8.193   3.522   1.174  0.4239 -0.3576  0.0190
27336SOL    HW184015   8.229   3.610   1.179  0.2224 -0.2658 -0.1318
27336SOL    HW284016   8.215   3.482   1.258  0.4057 -0.1209  0.1378
27337SOL     OW84017   9.272   1.224   8.379  0.7764 -0.0633  0.3486
27337SOL    HW184018   9.300   1.285   8.447 -0.5278  0.3964  0.4980
27337SOL    HW284019   9.176   1.231   8.378  0.5944 -2.0797  0.3311
27338SOL     OW84020   2.670  11.069   2.967 -0.3246 -0.0467  0.2212
27338SOL    HW184021   2.670  11.105   3.056 -0.4519  0.3386  0.0679
27338SOL    HW284022   2.726  11.129   2.917  1.9349 -1.6886  0.6041
27339SOL     OW84023   3.654   0.301   1.792  0.4730 -0.4568 -0.0067
27339SOL    HW184024   3.673   0.212   1.762  1.6168  0.5076 -2.4259
27339SOL    HW284025   3.709   0.357   1.736 -0.1240  1.7650  1.5148
27340SOL     OW84026  10.895   3.445   5.334  0.4529 -0.4221 -0.1969
27340SOL    HW184027  10.831   3.461   5.265 -0.0877 -1.6574 -0.0075
27340SOL    HW284028  10.978   3.437   5.287 -0.1433 -3.0444 -0.9999
27341SOL     OW84029   0.198   5.743   3.367 -0.3373 -0.4996 -0.1059
27341SOL    HW184030   0.136   5.810   3.337  0.7342  0.3463 -0.4946
27341SOL    HW284031   0.210   5.762   3.460 -1.6572 -1.5005  0.2998
27342SOL     OW84032   9.288   1.287   6.101 -0.1698 -0.2353 -0.8921
27342SOL    HW184033   9.324   1.308   6.014  0.8404 -0.9519 -0.6720
27342SOL    HW284034   9.231   1.361   6.122 -0.8433 -0.2923 -2.3839
27343SOL     OW84035  10.294   4.687   9.876 -0.1232  0.7889 -0.3982
27343SOL    HW184036  10.383   4.723   9.878 -0.2605  1.0949  0.8646
27343SOL    HW284037  10.306   4.596   9.849  0.6482  0.6533  0.3376
27344SOL     OW84038   1.002   0.826   4.816 -0.2460  0.4611  0.1179
27344SOL    HW184039   1.014   0.871   4.733 -1.1808  2.0480  0.8054
27344SOL    HW284040   1.027   0.891   4.882  1.8505 -1.2125  1.0981
27345SOL     OW84041   4.982   7.539   4.710  0.2521 -0.8824 -0.5949
27345SOL    HW184042   5.008   7.524   4.620  1.0651 -0.7547 -0.3870
27345SOL    HW284043   5.060   7.518   4.762  0.7815  1.8896 -0.1276
27346SOL     OW84044   8.863   9.756   5.978 -0.7692  0.2977  0.2127
27346SOL    HW184045   8.875   9.695   6.051 -1.1472 -0.5236 -0.4027
27346SOL    HW284046   8.908   9.836   6.007  1.2297 -0.8026  0.3328
27347SOL     OW84047   7.940  10.527   0.160  0.0070 -0.1444 -0.7537
27347SOL    HW184048   7.852  10.553   0.135  0.3804  0.4233 -1.5206
27347SOL    HW284049   7.994  10.604   0.142  1.0959 -1.2969 -2.8230
27348SOL     OW84050   5.187   3.072   5.149 -0.0645  0.0435 -0.4183
27348SOL    HW184051   5.197   3.020   5.069 -0.5872 -0.9548  0.1364
27348SOL    HW284052   5.200   3.008   5.220 -1.6898  0.4633  0.2986
27349SOL     OW84053   0.329  10.810   6.195 -0.3092  0.1030  0.3758
27349SOL    HW184054   0.259  10.873   6.187 -0.2773  0.0827 -0.1165
27349SOL    HW284055   0.319  10.753   6.118 -0.2336 -0.3773  0.7185
27350SOL     OW84056   3.666   6.820  10.508  0.2669  0.2151 -0.4581
27350SOL    HW184057   3.610   6.860  10.442  0.8251 -0.2465 -1.2317
27350SOL    HW284058   3.744   6.874  10.510 -0.5318  1.4025  1.2830
27351SOL     OW84059  10.215   2.873   3.903 -0.0080  0.3488 -0.3437
27351SOL    HW184060  10.254   2.836   3.983  1.2709 -2.3637 -2.0660
27351SOL    HW284061  10.156   2.804   3.872 -0.2591  1.2216 -1.8813
27352SOL     OW84062   1.305   1.159   6.856  0.1275 -1.1979 -0.3132
27352SOL    HW184063   1.340   1.116   6.934 -2.5694 -2.1338  0.4658
27352SOL    HW284064   1.307   1.252   6.877 -0.2869 -1.4201  0.7749
27353SOL     OW84065   9.918   1.784   4.383 -1.2935  0.5177  1.3773
27353SOL    HW184066   9.983   1.779   4.313  0.2431  0.0033  2.7612
27353SOL    HW284067   9.921   1.875   4.412 -2.5958  0.9583  0.2183
27354SOL     OW84068   0.970   5.638   2.724 -0.4378  0.2277 -0.1367
27354SOL    HW184069   0.876   5.651   2.708 -0.3055 -0.0971 -1.2167
27354SOL    HW284070   1.007   5.726   2.720 -0.4636  0.1954 -1.3003
27355SOL     OW84071   3.397   7.894   6.734 -0.3317  0.6682 -0.0545
27355SOL    HW184072   3.338   7.950   6.786  0.5652 -0.8588  2.8502
27355SOL    HW284073   3.483   7.911   6.771  0.5371  0.1841 -1.7746
27356SOL     OW84074  10.521   2.791   6.969  0.4129 -0.4273 -0.5798
27356SOL    HW184075  10.598   2.756   7.015  0.0845 -0.8112 -0.3114
27356SOL    HW284076  10.519   2.884   6.993  0.6163 -0.4833 -0.3409
27357SOL     OW84077  10.887   1.677   1.738  0.0299  0.9619 -0.0920
27357SOL    HW184078  10.955   1.740   1.762 -0.8321  2.1842 -0.7590
27357SOL    HW284079  10.820   1.687   1.806  0.2515  0.1508  0.2600
27358SOL     OW84080   1.013   0.439   1.236 -0.1184 -0.4927 -0.4550
27358SOL    HW184081   0.956   0.413   1.308  0.7792  2.3188  1.4431
27358SOL    HW284082   0.952   0.459   1.164 -1.7218  2.2370  1.4416
27359SOL     OW84083  10.042   5.757   7.939 -0.0833  0.0172 -0.2345
27359SOL    HW184084  10.112   5.695   7.959  0.4288  0.2570 -1.2162
27359SOL    HW284085  10.063   5.835   7.990  0.6647  0.2745 -0.9173
27360SOL     OW84086   2.843   4.641   9.891  0.3095  0.1489 -0.2516
27360SOL    HW184087   2.846   4.546   9.903  1.2686  0.0350 -1.2788
27360SOL    HW284088   2.907   4.659   9.822  0.4373  1.5910  0.2106
27361SOL     OW84089   8.424   2.752   7.138  0.0632 -0.7615 -0.2600
27361SOL    HW184090   8.367   2.700   7.082  0.2924 -0.8512 -0.4097
27361SOL    HW284091   8.374   2.764   7.219 -0.0912 -0.9964 -0.3205
27362SOL     OW84092   2.012   3.320   0.179  0.2035 -0.0591  0.0437
27362SOL    HW184093   1.992   3.347   0.269 -1.4095  1.1103 -0.6118
27362SOL    HW284094   1.944   3.361   0.126  0.9658 -0.9332 -1.7035
27363SOL     OW84095   8.223  10.178   2.940 -0.4045  0.3705 -0.1361
27363SOL    HW184096   8.138  10.220   2.947 -0.0417  0.9281  1.4877
27363SOL    HW284097   8.206  10.095   2.897 -1.4736  1.2325 -1.4470
27364SOL     OW84098   3.186   2.725   8.129  0.3105 -0.4974  0.5761
27364SOL    HW184099   3.172   2.630   8.130  1.1396 -0.6616  2.8146
27364SOL    HW284100   3.280   2.735   8.121  0.0945  0.2721 -1.9489
27365SOL     OW84101   1.493   1.785   1.442  0.3853  0.0175  0.4403
27365SOL    HW184102   1.563   1.782   1.507  0.1130 -0.7830  0.7078
27365SOL    HW284103   1.456   1.872   1.451 -0.0897 -0.3068  1.8489
27366SOL     OW84104   6.032  11.011   1.224  0.5158  0.1630 -0.0975
27366SOL    HW184105   6.056  11.045   1.310 -1.8652  1.8403  0.0128
27366SOL    HW284106   5.963  11.070   1.194 -0.6960 -2.0290 -1.9284
27367SOL     OW84107   8.601   1.966   1.934  0.0129  0.2496  0.0378
27367SOL    HW184108   8.623   1.931   1.848  0.1232  0.4694 -0.0260
27367SOL    HW284109   8.682   1.955   1.985 -0.8269 -2.3189  0.9392
27368SOL     OW84110   8.644   5.365   4.711 -0.2755  0.1699  0.3635
27368SOL    HW184111   8.612   5.455   4.699 -1.5245 -0.4050 -0.8549
27368SOL    HW284112   8.568   5.310   4.697  0.9882 -1.2249 -1.5529
27369SOL     OW84113   4.839   7.616   1.883  0.3825 -0.3502 -0.0659
27369SOL    HW184114   4.923   7.571   1.891  0.1851 -0.4059  2.6803
27369SOL    HW284115   4.781   7.568   1.943 -0.9288  1.1616 -0.0594
27370SOL     OW84116   6.509   0.495   6.895  0.7488 -0.0804  0.4822
27370SOL    HW184117   6.603   0.508   6.908  1.0251  0.0581 -1.3756
27370SOL    HW284118   6.500   0.473   6.802 -0.9234 -1.4979  0.9300
27371SOL     OW84119   3.249   0.744   4.157 -0.3294  0.3562 -0.2777
27371SOL    HW184120   3.290   0.699   4.232  0.3655 -0.9424 -1.3831
27371SOL    HW284121   3.181   0.684   4.128 -0.6308  0.8792 -0.6619
27372SOL     OW84122   0.058   0.527   4.492 -0.1693  0.0082  0.2192
27372SOL    HW184123  -0.025   0.566   4.520 -1.8874 -0.6617 -3.3031
27372SOL    HW284124   0.036   0.435   4.475  1.0105  0.0321 -1.6350
27373SOL     OW84125   8.734   4.138   1.759  0.2152  0.4107  0.1039
27373SOL    HW184126   8.643   4.164   1.745 -0.4016  1.3009  4.2311
27373SOL    HW284127   8.784   4.185   1.692 -2.4069 -2.4229 -4.2494
27374SOL     OW84128   0.593   0.592   5.460  0.8041  0.0030  0.1946
27374SOL    HW184129   0.566   0.539   5.385 -0.3117  0.3816  0.3166
27374SOL    HW284130   0.614   0.529   5.528  0.2071 -0.3113  0.0943
27375SOL     OW84131  10.588   5.659   4.468 -0.1930  0.1021 -0.1090
27375SOL    HW184132  10.671   5.619   4.491 -0.8588 -0.7836  0.8631
27375SOL    HW284133  10.611   5.734   4.414  1.2568  0.0912  0.4565
27376SOL     OW84134   7.449   2.360   6.801 -0.3607  0.5225  0.3766
27376SOL    HW184135   7.436   2.411   6.721  0.2429 -1.3787 -1.0079
27376SOL    HW284136   7.407   2.276   6.783  1.5054 -0.6624  1.2395
27377SOL     OW84137  10.067   6.532   9.051 -0.5343  0.1162  0.0365
27377SOL    HW184138  10.018   6.461   9.009 -1.6784  0.9433 -0.0636
27377SOL    HW284139  10.040   6.611   9.004  0.0425  0.7416  0.7315
27378SOL     OW84140   9.717   3.146   9.677 -0.6589  0.4266 -0.0486
27378SOL    HW184141   9.751   3.129   9.765  2.0892 -2.4034 -1.4308
27378SOL    HW284142   9.770   3.218   9.645 -0.3650  0.2360  0.0006
27379SOL     OW84143   0.657   9.696  10.677  0.4325  0.2676  0.4178
27379SOL    HW184144   0.669   9.608  10.642  1.8594  0.9030 -0.8386
27379SOL    HW284145   0.579   9.729  10.632  0.8870  0.2340 -0.4217
27380SOL     OW84146   5.352   0.438   5.137 -0.3455 -0.0501 -0.7516
27380SOL    HW184147   5.430   0.390   5.165 -0.2261 -0.3516 -1.5484
27380SOL    HW284148   5.317   0.477   5.217 -0.4664 -1.4999 -0.0673
27381SOL     OW84149   3.783  10.710   7.859  0.6632 -0.1240 -0.1480
27381SOL    HW184150   3.874  10.739   7.852  1.2767 -1.6833  0.8532
27381SOL    HW284151   3.789  10.618   7.887 -1.2154 -0.0394  0.7006
27382SOL     OW84152   8.622   9.668   5.927  0.6266  0.5649  0.2199
27382SOL    HW184153   8.717   9.675   5.924  0.6016  0.8010 -3.0079
27382SOL    HW284154   8.602   9.587   5.880 -0.8248  2.3510 -2.4792
27383SOL     OW84155   3.963   8.613   5.854  0.7793 -0.1940 -0.5955
27383SOL    HW184156   4.008   8.531   5.874  1.3193  0.1253 -0.4824
27383SOL    HW284157   4.013   8.680   5.900 -0.0837  0.1211 -0.0935
27384SOL     OW84158   3.145   8.529   7.906 -0.7013 -0.0444 -0.4766
27384SOL    HW184159   3.217   8.549   7.966 -0.9016  1.6113 -0.7307
27384SOL    HW284160   3.183   8.471   7.840 -0.0931 -0.6630  0.4081
27385SOL     OW84161  10.700   6.321   3.952  0.2801  0.3415  1.0866
27385SOL    HW184162  10.667   6.250   4.007  1.9258 -2.1983 -0.9779
27385SOL    HW284163  10.652   6.314   3.870 -0.0959  2.2031  1.0940
27386SOL     OW84164   2.277   1.439   0.955 -0.8289 -0.2177  0.2157
27386SOL    HW184165   2.188   1.475   0.952 -0.8578 -0.1916  1.1104
27386SOL    HW284166   2.283   1.382   0.879 -1.3603  0.3572 -0.2701
27387SOL     OW84167   5.766   3.002   5.216 -0.7759  0.0467  0.1642
27387SOL    HW184168   5.744   2.940   5.286  1.4184 -1.1830 -0.1143
27387SOL    HW284169   5.795   2.946   5.144  0.8351  1.3670 -0.2645
27388SOL     OW84170   4.822   2.453   4.312 -0.3149 -0.2673 -0.4282
27388SOL    HW184171   4.873   2.533   4.325  1.4116 -1.2753 -0.7592
27388SOL    HW284172   4.884   2.389   4.279 -1.7146 -1.6937 -0.4472
27389SOL     OW84173   8.524   2.965   4.972  0.3449 -0.6043 -0.0207
27389SOL    HW184174   8.431   2.983   4.961  0.5177  1.5818  1.4534
27389SOL    HW284175   8.568   3.047   4.949  2.0549 -1.9687 -1.9187
27390SOL     OW84176   6.581   0.674   5.061  0.2473  0.3523  0.7664
27390SOL    HW184177   6.668   0.640   5.079 -0.1531 -1.0115  0.2198
27390SOL    HW284178   6.547   0.619   4.991 -1.6560 -0.1536  2.0083
27391SOL     OW84179   2.654   7.632   6.827 -0.0977 -0.3013 -0.6720
27391SOL    HW184180   2.662   7.695   6.898 -1.2783  1.0016 -1.6228
27391SOL    HW284181   2.738   7.636   6.781  0.9025 -1.5909  0.9055
27392SOL     OW84182   9.519   4.171   1.947 -0.6098  0.2680 -0.1461
27392SOL    HW184183   9.512   4.187   1.853 -1.6294  2.7666  0.3034
27392SOL    HW284184   9.597   4.116   1.956  2.0440  3.3518 -2.1652
27393SOL     OW84185   2.901   1.303   7.290  0.1603 -0.5808  0.7056
27393SOL    HW184186   2.813   1.279   7.320  0.2937 -2.1651 -0.0331
27393SOL    HW284187   2.940   1.220   7.263  2.6412 -0.2324  2.8278
27394SOL     OW84188   2.813   7.187   5.073 -0.1171  0.1988  0.4271
27394SOL    HW184189   2.754   7.259   5.050 -0.5950 -0.3641 -0.1433
27394SOL    HW284190   2.797   7.120   5.006 -0.8617 -1.1116  1.8658
27395SOL     OW84191  10.517   6.203   7.925 -0.8329  0.0326  0.3193
27395SOL    HW184192  10.535   6.150   8.003 -0.7127 -0.2210  0.1244
27395SOL    HW284193  10.428   6.234   7.937 -0.1748  1.6197  1.4862
27396SOL     OW84194   4.937   8.556   8.025 -0.1826  0.7043  0.7028
27396SOL    HW184195   4.881   8.480   8.040 -0.1342  0.8573  1.6916
27396SOL    HW284196   4.902   8.596   7.945  0.1195 -0.6394 -0.1231
27397SOL     OW84197   9.682   4.044   8.218 -0.2319  0.5473  0.2702
27397SOL    HW184198   9.616   4.112   8.234 -1.0926 -0.1463 -0.2565
27397SOL    HW284199   9.733   4.042   8.299  0.9575  3.0385 -0.3329
27398SOL     OW84200   8.921   9.857   5.081 -0.3320 -1.2206 -0.3672
27398SOL    HW184201   8.943   9.939   5.125  1.8944 -2.3761  0.8312
27398SOL    HW284202   8.847   9.822   5.130 -1.0799 -0.1255 -0.6800
27399SOL     OW84203   7.199   2.805   4.126 -0.3012  0.5992 -0.0794
27399SOL    HW184204   7.257   2.866   4.081  1.6069 -0.8017  0.3676
27399SOL    HW284205   7.183   2.846   4.211  0.2944  0.8711 -0.0889
27400SOL     OW84206  10.978   3.374   5.774 -0.3227  0.2063  0.0270
27400SOL    HW184207  10.903   3.320   5.799 -0.3660  0.7361  1.1229
27400SOL    HW284208  11.040   3.365   5.847 -0.6385  2.1737  0.6113
27401SOL     OW84209   6.111  10.849   0.998 -0.2795 -0.0489  0.4779
27401SOL    HW184210   6.165  10.924   1.020  0.7952 -0.6764  0.0315
27401SOL    HW284211   6.032  10.887   0.960  0.5837  0.8381 -0.4870
27402SOL     OW84212   3.962  10.985   6.089  0.1221 -0.0103 -0.1335
27402SOL    HW184213   4.007  10.973   6.172 -0.4513  2.0571  0.5489
27402SOL    HW284214   3.888  11.043   6.110  1.5971  3.0144 -2.5296
27403SOL     OW84215   9.344   3.464   2.666 -0.5199 -0.0557 -0.2996
27403SOL    HW184216   9.279   3.402   2.634 -1.5872 -0.7258  2.8170
27403SOL    HW284217   9.294   3.527   2.719  1.1395  0.3430  0.8832
27404SOL     OW84218   0.287   2.881   9.991 -0.0812  0.1242  0.0844
27404SOL    HW184219   0.228   2.940   9.943  0.3571  0.8355  0.3888
27404SOL    HW284220   0.232   2.809  10.019 -0.4043 -0.1784 -1.2674
27405SOL     OW84221   9.273   0.268   2.695 -0.1784 -0.2463  0.0940
27405SOL    HW184222   9.279   0.186   2.646  0.7944  0.9327 -1.8956
27405SOL    HW284223   9.364   0.295   2.708 -0.4770  0.6637  0.4304
27406SOL     OW84224   2.663   5.075  10.145  0.8212  0.0720 -0.4799
27406SOL    HW184225   2.663   5.024  10.226  3.0536  0.1540 -0.3545
27406SOL    HW284226   2.660   5.008  10.076 -1.7638  0.0216 -0.4059
27407SOL     OW84227   8.358   0.504   9.029 -0.4177  0.2007  0.3166
27407SOL    HW184228   8.345   0.416   8.993  1.0219 -0.9850  2.4270
27407SOL    HW284229   8.286   0.515   9.091 -0.5333  0.4410  0.1362
27408SOL     OW84230   6.711   8.367   6.599 -0.0045 -0.4290 -0.0589
27408SOL    HW184231   6.642   8.316   6.640  1.3994 -1.1219  1.5647
27408SOL    HW284232   6.767   8.302   6.557  0.2547  0.0283 -0.4350
27409SOL     OW84233   8.533   1.539   4.924  0.3912  0.4207 -0.6520
27409SOL    HW184234   8.620   1.501   4.940  0.9048  1.7047 -0.2874
27409SOL    HW284235   8.491   1.539   5.010 -0.1424 -0.5581 -0.8954
27410SOL     OW84236   3.564   5.797   4.458 -0.2771  0.3430  0.3070
27410SOL    HW184237   3.597   5.868   4.514  1.0685  0.5277 -0.6531
27410SOL    HW284238   3.480   5.829   4.427 -0.2426  0.9975  0.8525
27411SOL     OW84239   0.740   4.479   3.038  0.1959 -0.2142 -0.7279
27411SOL    HW184240   0.825   4.458   3.075 -0.4241 -1.6906 -0.0574
27411SOL    HW284241   0.742   4.445   2.949  1.4437  2.7365 -1.9799
27412SOL     OW84242   1.615   4.370   8.068 -0.3138 -0.1104 -0.0546
27412SOL    HW184243   1.695   4.320   8.087 -0.6086  0.0802  1.8175
27412SOL    HW284244   1.613   4.374   7.972  2.0164  0.0419 -0.1669
27413SOL     OW84245   8.353   7.892   5.736  0.2233  0.6149 -0.3793
27413SOL    HW184246   8.430   7.845   5.707  0.7946  1.8499 -0.9207
27413SOL    HW284247   8.281   7.829   5.727  1.2438 -0.7502  0.7422
27414SOL     OW84248   7.935  10.708   2.333  0.2303  0.1109 -0.0464
27414SOL    HW184249   7.958  10.791   2.374  0.8582 -0.1744  0.1986
27414SOL    HW284250   7.850  10.724   2.292 -0.6865  0.2558  1.7989
27415SOL     OW84251   7.636   2.063   2.362  0.0335 -0.0280  0.2406
27415SOL    HW184252   7.668   2.132   2.304  2.6847  0.6900  2.3283
27415SOL    HW284253   7.673   1.982   2.326 -1.4402 -0.1623 -1.0858
27416SOL     OW84254  10.326   7.908   4.364  0.3656 -0.3353 -0.9291
27416SOL    HW184255  10.254   7.949   4.411 -0.4786 -1.2168 -1.4274
27416SOL    HW284256  10.351   7.973   4.298  0.3891  0.1828 -0.4192
27417SOL     OW84257  10.826  11.026   8.179 -0.8506  0.4018 -0.1397
27417SOL    HW184258  10.800  10.987   8.095 -2.5947  1.0369  0.0665
27417SOL    HW284259  10.870  11.107   8.155  1.9532 -1.1156 -0.5350
27418SOL     OW84260   8.890   6.467   7.371 -0.2976  0.2767 -0.3284
27418SOL    HW184261   8.914   6.535   7.309  1.3081  0.9108  0.9417
27418SOL    HW284262   8.795   6.477   7.381 -0.6299  0.0838 -2.7028
27419SOL     OW84263  10.297  10.814  10.431 -0.3379  0.1474  0.3594
27419SOL    HW184264  10.374  10.868  10.411 -0.7094  0.2776 -0.7903
27419SOL    HW284265  10.242  10.871  10.486  0.4831 -0.0369  1.3994
27420SOL     OW84266  10.592   2.297   0.316  0.5365  0.1896  0.2158
27420SOL    HW184267  10.569   2.313   0.224 -3.3803  0.2816  1.0150
27420SOL    HW284268  10.508   2.279   0.358  1.7464  2.8479  4.3535
27421SOL     OW84269   4.973   6.406   7.053 -0.8405 -0.6317 -0.1481
27421SOL    HW184270   4.900   6.355   7.016 -2.1546  2.4378 -2.2761
27421SOL    HW284271   5.026   6.429   6.977 -0.8228  1.8015  0.5192
27422SOL     OW84272   0.376   2.587   9.803 -0.4609  0.4031  0.4333
27422SOL    HW184273   0.385   2.540   9.886  0.0252 -0.3279 -0.0269
27422SOL    HW284274   0.287   2.566   9.773  0.4128 -1.8917 -0.7482
27423SOL     OW84275  10.218   9.235   6.708  0.3195 -0.5520  0.3561
27423SOL    HW184276  10.214   9.148   6.668 -0.4605 -0.7967  0.9422
27423SOL    HW284277  10.268   9.222   6.788  1.0648 -0.2552 -0.0577
27424SOL     OW84278   6.094   1.019   0.906  0.1211 -0.2165 -0.3117
27424SOL    HW184279   6.132   1.050   0.988 -0.5915  0.2419 -0.1397
27424SOL    HW284280   6.003   0.999   0.929  0.1305 -0.8623 -0.8094
27425SOL     OW84281   4.007   8.466   8.157 -0.7305 -0.5815 -0.1853
27425SOL    HW184282   4.079   8.406   8.173 -2.3497 -2.7984 -0.6907
27425SOL    HW284283   4.011   8.528   8.229  1.6294 -0.6256 -0.1931
27426SOL     OW84284   4.726   1.200   9.578  0.1999  0.1111 -0.5555
27426SOL    HW184285   4.797   1.264   9.576 -2.5951  3.5520 -3.0508
27426SOL    HW284286   4.688   1.210   9.665  0.2734  1.3854 -0.6435
27427SOL     OW84287   4.916   3.453  10.432  0.2445  0.6703 -0.6907
27427SOL    HW184288   4.993   3.511  10.432  1.1480 -0.4271  1.4102
27427SOL    HW284289   4.878   3.464  10.519  1.0954 -2.5963  0.2292
27428SOL     OW84290   3.459   4.644   3.064 -0.1646  0.2322  0.1637
27428SOL    HW184291   3.463   4.551   3.087 -0.3563 -0.1872 -1.3812
27428SOL    HW284292   3.537   4.659   3.011 -1.3931  0.2730 -1.7595
27429SOL     OW84293  10.259   8.615   6.524 -0.3836  0.4785 -0.0730
27429SOL    HW184294  10.277   8.559   6.449  1.9882  0.9495  0.0687
27429SOL    HW284295  10.178   8.662   6.500  0.1072  0.3532 -2.1813
27430SOL     OW84296   4.269   4.284   5.626  0.2566 -0.7896 -0.5089
27430SOL    HW184297   4.276   4.190   5.610  0.5436 -0.4977 -2.3194
27430SOL    HW284298   4.273   4.293   5.721 -3.4303 -2.8740  0.0343
27431SOL     OW84299   9.399   8.591   6.212  0.1855 -0.1731  0.7135
27431SOL    HW184300   9.450   8.623   6.286  0.5610 -2.3130  1.4418
27431SOL    HW284301   9.334   8.659   6.197  1.4832  1.3270  1.5624
27432SOL     OW84302   7.154   1.056   7.105 -0.0366  0.1168 -0.2938
27432SOL    HW184303   7.117   1.143   7.120 -1.0772 -0.8190  3.6307
27432SOL    HW284304   7.249   1.070   7.103 -0.0637  1.2212  2.4382
27433SOL     OW84305   6.695   4.330   4.547 -0.5641 -0.0445  0.7056
27433SOL    HW184306   6.626   4.265   4.532 -1.2270  0.4808  1.4282
27433SOL    HW284307   6.776   4.286   4.519 -1.2560 -0.4485 -0.7416
27434SOL     OW84308   2.255   8.936   2.615 -0.7093  0.3609  0.6135
27434SOL    HW184309   2.199   9.008   2.586 -2.7821 -1.2253  0.4730
27434SOL    HW284310   2.200   8.858   2.609  1.4574 -1.2868  0.6962
27435SOL     OW84311   5.684   2.483   5.300  0.2867  0.4876 -0.1111
27435SOL    HW184312   5.743   2.408   5.299 -0.1083  0.1040  1.5299
27435SOL    HW284313   5.636   2.477   5.218 -0.7573 -1.9203  0.5910
27436SOL     OW84314  10.599   0.573  10.378  0.0015 -1.2038  0.6346
27436SOL    HW184315  10.559   0.496  10.418 -2.7280 -0.1194  0.2227
27436SOL    HW284316  10.526   0.632  10.362  1.8635  1.0924  0.0333
27437SOL     OW84317   4.291   4.036   6.687 -0.2601 -0.3769 -0.2632
27437SOL    HW184318   4.320   4.032   6.778  0.9061 -1.6827 -0.6553
27437SOL    HW284319   4.223   4.103   6.686  0.0896  0.0426  1.4585
27438SOL     OW84320   4.066   6.354   5.382 -0.3374  0.3261 -0.4272
27438SOL    HW184321   4.140   6.366   5.322 -0.2744  0.6311 -0.2876
27438SOL    HW284322   4.097   6.388   5.466 -1.0036  1.4747 -0.6237
27439SOL     OW84323   8.450   3.786   0.334 -1.0133 -0.5997  0.5694
27439SOL    HW184324   8.393   3.715   0.306  1.8842 -2.3867 -1.2796
27439SOL    HW284325   8.482   3.759   0.420 -0.1492 -1.4369 -0.0007
27440SOL     OW84326   8.921   2.229   4.681  0.9605 -0.1675  0.1951
27440SOL    HW184327   8.879   2.147   4.655  1.7779 -0.3384 -0.6656
27440SOL    HW284328   8.858   2.271   4.739 -0.4359 -0.3540 -1.1113
27441SOL     OW84329   6.204  10.771   8.074 -0.1001  0.1338  0.1101
27441SOL    HW184330   6.271  10.837   8.055 -0.3745 -0.2370 -2.6670
27441SOL    HW284331   6.235  10.692   8.029 -1.4732 -0.6104  0.4051
27442SOL     OW84332   8.537   3.343   7.744  0.1691 -0.8753 -0.1318
27442SOL    HW184333   8.588   3.295   7.679  4.1807  2.7403 -0.0743
27442SOL    HW284334   8.573   3.314   7.828 -0.0890 -0.5286  0.0987
27443SOL     OW84335   7.082   9.039   5.809  0.1669  0.9694 -0.0388
27443SOL    HW184336   7.112   9.129   5.814  2.4611  0.3815 -1.5565
27443SOL    HW284337   7.067   9.023   5.716 -0.4976 -0.1445  0.2275
27444SOL     OW84338   6.437   2.165   6.692  0.2878  0.4218 -0.0604
27444SOL    HW184339   6.506   2.176   6.626 -0.9128  0.7460 -1.3219
27444SOL    HW284340   6.385   2.091   6.661 -0.4541  0.7449  0.3666
27445SOL     OW84341   6.932   0.666   2.958 -0.8459 -0.6190 -0.3899
27445SOL    HW184342   7.009   0.711   2.993 -1.0468  1.2154 -2.1336
27445SOL    HW284343   6.862   0.689   3.018 -0.7774  0.8313 -0.8289
27446SOL     OW84344   7.515  10.879   0.650  0.1940 -0.2405  0.1940
27446SOL    HW184345   7.445  10.908   0.708 -0.3867  1.0530 -1.0888
27446SOL    HW284346   7.595  10.893   0.700 -0.4237 -2.4213  1.9660
27447SOL     OW84347   6.315   2.642   2.636 -0.2658  0.1761 -0.1725
27447SOL    HW184348   6.325   2.690   2.553  3.5186  1.2064  0.6725
27447SOL    HW284349   6.341   2.553   2.614  2.4870  0.8137  0.0827
27448SOL     OW84350  10.423   5.700   6.339  0.3739 -0.9149  0.0701
27448SOL    HW184351  10.493   5.712   6.275  0.0683  0.7658 -0.0078
27448SOL    HW284352  10.468   5.699   6.423  0.5354 -0.1083  0.0032
27449SOL     OW84353   1.521   3.297   5.808  0.2501 -0.4083 -0.1466
27449SOL    HW184354   1.427   3.309   5.794  0.2646  1.3445  0.8609
27449SOL    HW284355   1.539   3.347   5.888  2.5483  1.9131 -1.9543
27450SOL     OW84356   6.244   6.954   1.323 -0.3783 -0.5117 -0.0885
27450SOL    HW184357   6.168   7.012   1.319 -1.3076 -1.7280 -2.4752
27450SOL    HW284358   6.207   6.866   1.312  1.2556 -1.2478  0.0467
27451SOL     OW84359   8.212   3.109   2.832 -0.6278  0.1555  0.0392
27451SOL    HW184360   8.164   3.037   2.792  1.6793 -2.1281  1.0427
27451SOL    HW284361   8.302   3.098   2.800  0.2363  1.2608  1.9152
27452SOL     OW84362  10.332   7.078   7.278  0.4656  0.9685 -0.0563
27452SOL    HW184363  10.319   7.160   7.326  3.3141  0.6078  1.6054
27452SOL    HW284364  10.273   7.016   7.320 -0.1442  1.6649  0.1339
27453SOL     OW84365   4.250   1.142   2.530  0.1256 -0.7454  0.4240
27453SOL    HW184366   4.244   1.118   2.438  0.0625 -0.3045  0.3095
27453SOL    HW284367   4.211   1.068   2.577  2.3901 -2.1088  0.2862
27454SOL     OW84368   4.440   4.832   2.060 -0.1529 -0.5109  0.0172
27454SOL    HW184369   4.529   4.842   2.026 -0.8425  0.1907 -1.6848
27454SOL    HW284370   4.405   4.921   2.063 -1.3031 -0.9160 -0.8157
27455SOL     OW84371   7.091   8.302   1.106  0.4484 -0.4585  0.3745
27455SOL    HW184372   7.108   8.396   1.107  1.6844 -0.6656  1.1677
27455SOL    HW284373   7.017   8.292   1.046  0.5401  0.9734 -0.0263
27456SOL     OW84374   6.302   0.625   7.007  0.7637  0.2049  0.0518
27456SOL    HW184375   6.374   0.571   6.974  0.1906 -0.2457 -0.4663
27456SOL    HW284376   6.283   0.589   7.094 -1.4313 -2.2690 -1.3284
27457SOL     OW84377   6.475   8.365   1.218 -0.2502 -0.1404 -0.1994
27457SOL    HW184378   6.414   8.386   1.290  0.1986  0.1477  0.1034
27457SOL    HW284379   6.561   8.388   1.253 -0.0239 -0.0362 -0.8209
27458SOL     OW84380   7.961   7.365   5.598 -0.8714 -0.5939  0.1277
27458SOL    HW184381   7.899   7.426   5.638  0.0915  2.0413 -2.1028
27458SOL    HW284382   7.911   7.323   5.528 -0.6201  0.2151 -0.5409
27459SOL     OW84383   0.731   6.265   7.724  0.2436 -0.6622 -0.0414
27459SOL    HW184384   0.770   6.207   7.659 -0.1288  0.1396 -1.0141
27459SOL    HW284385   0.641   6.278   7.694  0.8014  1.8187 -0.8996
27460SOL     OW84386   2.149   5.093   7.056 -0.6545 -0.4443 -0.1777
27460SOL    HW184387   2.096   5.016   7.039 -0.1438 -1.2237  1.5316
27460SOL    HW284388   2.127   5.118   7.146  1.5040 -0.5554  0.4497
27461SOL     OW84389   9.849   3.578   1.627 -0.4774 -0.4605  0.9272
27461SOL    HW184390   9.760   3.600   1.600 -0.8389 -0.5021  2.0661
27461SOL    HW284391   9.848   3.586   1.722  0.8829  0.0772  0.9114
27462SOL     OW84392   5.393  10.278   8.399  0.4463  0.5635  0.0971
27462SOL    HW184393   5.322  10.220   8.372  0.7651  0.0802  0.2757
27462SOL    HW284394   5.469  10.220   8.407 -0.0435  0.2283  4.0404
27463SOL     OW84395   6.071   5.056   0.068  0.4774 -0.1687  0.8978
27463SOL    HW184396   6.099   5.147   0.056  2.4568 -0.9121 -0.6571
27463SOL    HW284397   6.039   5.053   0.158 -1.1415  2.3953  0.5133
27464SOL     OW84398   7.972   3.463   1.562  0.0067  0.2331  0.4092
27464SOL    HW184399   8.015   3.534   1.608 -0.1869  0.5294  0.1335
27464SOL    HW284400   7.998   3.384   1.610 -0.9248  0.6189  1.5781
27465SOL     OW84401   8.761  10.327   6.100  0.3073  0.3667  0.0868
27465SOL    HW184402   8.817  10.263   6.055 -2.1810 -2.6301  0.9775
27465SOL    HW284403   8.717  10.373   6.028  0.6583 -0.3010 -0.5801
27466SOL     OW84404   4.362  10.154   6.123  0.4341  0.2639 -0.0594
27466SOL    HW184405   4.351  10.073   6.173 -1.4699  0.4378 -0.1014
27466SOL    HW284406   4.367  10.126   6.032  0.5409  0.1465 -0.0180
27467SOL     OW84407   1.130   2.965   8.282 -0.6708 -0.0117  1.2390
27467SOL    HW184408   1.186   3.023   8.333 -1.0030  3.0868 -1.5438
27467SOL    HW284409   1.043   2.973   8.323 -0.5067  0.7571  1.4550
27468SOL     OW84410   3.331   8.308  10.867 -0.3140  0.6685  0.0404
27468SOL    HW184411   3.341   8.232  10.809 -1.8203  1.3604 -1.1756
27468SOL    HW284412   3.257   8.356  10.832 -0.1683  2.0724  1.5302
27469SOL     OW84413   0.968   7.249   8.453 -0.4096  0.0105  0.5898
27469SOL    HW184414   0.921   7.229   8.534  1.5747  1.9393  2.3414
27469SOL    HW284415   0.990   7.163   8.417  0.7781 -1.0193  3.4282
27470SOL     OW84416   9.599   1.047   4.522  0.1241  0.0262 -0.1176
27470SOL    HW184417   9.557   0.995   4.453 -1.8824  2.3124 -0.7635
27470SOL    HW284418   9.612   1.133   4.482  1.6049  0.6059  1.4894
27471SOL     OW84419   5.778   1.530  10.980  0.1811  0.1607 -0.0565
27471SOL    HW184420   5.801   1.623  10.986 -0.6717  0.3345  0.8710
27471SOL    HW284421   5.812   1.502  10.895  3.4441  0.4591  1.0102
27472SOL     OW84422   5.844   8.426   3.484 -0.2644 -0.2806 -0.3203
27472SOL    HW184423   5.811   8.341   3.455 -0.0248 -0.5911  0.2871
27472SOL    HW284424   5.886   8.407   3.568 -1.0203  0.6060  0.2726
27473SOL     OW84425   0.397   5.314   1.434  0.5449 -0.1530 -0.1819
27473SOL    HW184426   0.491   5.324   1.425  0.5517 -1.5037 -2.4851
27473SOL    HW284427   0.360   5.370   1.366 -0.2794 -0.3840  0.0619
27474SOL     OW84428   6.932   7.420   5.842  0.1183 -0.5634  0.6762
27474SOL    HW184429   6.856   7.382   5.798  0.7399 -1.6467  0.4904
27474SOL    HW284430   6.975   7.472   5.775  0.1706 -0.8879  0.4539
27475SOL     OW84431   3.986   1.134  10.898 -0.2255  0.1184 -0.3322
27475SOL    HW184432   3.928   1.172  10.963  2.0858  0.3727  1.7657
27475SOL    HW284433   4.045   1.205  10.873  1.1953 -0.8615  0.0895
27476SOL     OW84434   8.092   9.376  10.695  0.2722 -0.0293 -0.2696
27476SOL    HW184435   8.051   9.402  10.613  2.9297  2.2696 -1.0093
27476SOL    HW284436   8.045   9.425  10.762 -0.4928 -0.2221 -0.6530
27477SOL     OW84437   1.150   7.976   7.977 -0.1444 -0.1621  0.2022
27477SOL    HW184438   1.104   7.972   8.061  1.0936  1.0254  0.9776
27477SOL    HW284439   1.175   8.068   7.967  2.1695 -0.7561 -0.0769
27478SOL     OW84440   2.847   4.933   3.037  0.2819  0.0235  0.0857
27478SOL    HW184441   2.805   4.855   3.072 -0.5388  0.9404  1.2193
27478SOL    HW284442   2.899   4.901   2.964  0.2745 -1.6377  0.7589
27479SOL     OW84443   3.005   0.591   8.640  0.1195 -0.2059 -0.5216
27479SOL    HW184444   3.067   0.663   8.628  0.6703 -0.2649  1.6572
27479SOL    HW284445   2.948   0.619   8.712  0.8427 -2.2341  0.9276
27480SOL     OW84446   0.791  10.977   6.074  0.1616 -0.3636  0.2874
27480SOL    HW184447   0.733  11.053   6.073 -1.3339 -1.4368 -1.3608
27480SOL    HW284448   0.878  11.012   6.057 -0.6041  0.9147 -1.1953
27481SOL     OW84449   8.522   0.371  10.862  0.7240 -0.8024  0.4554
27481SOL    HW184450   8.569   0.441  10.909 -0.9242  1.7305 -1.4219
27481SOL    HW284451   8.433   0.377  10.895 -0.5797  1.2963 -2.9840
27482SOL     OW84452   4.163   8.672   0.578 -0.1024 -0.4231  0.3081
27482SOL    HW184453   4.251   8.683   0.543 -0.4878 -1.8297 -1.2373
27482SOL    HW284454   4.168   8.595   0.635  0.0329  0.5898  1.7370
27483SOL     OW84455   3.905   3.133  11.044 -0.0965 -0.6145  0.0562
27483SOL    HW184456   3.930   3.192  11.115  0.7570 -0.7854 -0.0973
27483SOL    HW284457   3.936   3.047  11.072 -0.1493 -0.7568 -0.3214
27484SOL     OW84458   9.694   8.000   9.836  0.1613  0.2257  0.5413
27484SOL    HW184459   9.767   7.939   9.827 -0.8184 -0.6335 -5.4056
27484SOL    HW284460   9.615   7.947   9.821 -1.0855  2.1455 -0.1423
27485SOL     OW84461   8.239   0.320   8.697  0.3562  0.2723 -0.0748
27485SOL    HW184462   8.236   0.395   8.637  1.4627 -1.0581 -1.8796
27485SOL    HW284463   8.189   0.252   8.653  0.3956 -0.4745  0.9870
27486SOL     OW84464   7.624   2.661   3.090 -0.0364 -0.5890 -0.0163
27486SOL    HW184465   7.608   2.743   3.137 -0.0927 -0.8780  0.4809
27486SOL    HW284466   7.536   2.626   3.073 -0.1691  0.8342 -2.7862
27487SOL     OW84467  10.734   1.806   9.988  0.4187 -0.4546 -0.2216
27487SOL    HW184468  10.750   1.863  10.063 -1.0578 -1.7430  1.1585
27487SOL    HW284469  10.812   1.815   9.933  0.7166  1.9665  0.4999
27488SOL     OW84470   8.252   1.429   5.443 -0.6798  0.1360  0.2750
27488SOL    HW184471   8.183   1.417   5.379  0.7765 -1.5756 -1.0583
27488SOL    HW284472   8.304   1.349   5.439  2.5515  2.0804 -0.2194
27489SOL     OW84473   1.096   8.471   3.730 -0.1364  1.0989  0.0348
27489SOL    HW184474   1.141   8.504   3.808 -0.0436 -0.1179  0.5112
27489SOL    HW284475   1.134   8.521   3.658  2.6043 -0.3716  0.3193
27490SOL     OW84476   7.269   0.284   8.144 -0.8196 -0.1317  0.1134
27490SOL    HW184477   7.199   0.346   8.122  0.2506  0.3419 -2.2789
27490SOL    HW284478   7.349   0.327   8.116  0.2329 -1.5443  0.8193
27491SOL     OW84479   8.558   4.602   8.720  0.2949 -0.3142 -0.6029
27491SOL    HW184480   8.523   4.691   8.729 -1.2069 -1.0071  0.9609
27491SOL    HW284481   8.501   4.562   8.654 -0.4459 -0.7460  0.2765
27492SOL     OW84482   7.628   7.465   8.186 -0.0371 -0.0073 -0.3746
27492SOL    HW184483   7.580   7.383   8.192 -1.7172  0.3902 -4.5145
27492SOL    HW284484   7.698   7.447   8.123  1.0014  1.1706  0.4115
27493SOL     OW84485   5.569   3.642   8.494  0.3928 -0.3299 -0.0032
27493SOL    HW184486   5.647   3.661   8.546 -0.5129  1.3572  0.8286
27493SOL    HW284487   5.601   3.637   8.404  1.4534  0.4247  0.3062
27494SOL     OW84488   8.653   7.906   1.445  0.4634  0.2892 -0.4280
27494SOL    HW184489   8.717   7.959   1.397  0.9966  0.7566  0.7462
27494SOL    HW284490   8.684   7.909   1.536  1.3601 -3.2265 -0.4767
27495SOL     OW84491   2.007   0.498   3.189 -0.5845  0.2821 -1.0739
27495SOL    HW184492   2.024   0.436   3.260 -1.7416  1.3148  0.1484
27495SOL    HW284493   2.049   0.459   3.113 -0.6424 -1.6411 -0.1780
27496SOL     OW84494   8.060   8.610   2.277 -0.3958  0.4953 -0.3944
27496SOL    HW184495   8.151   8.584   2.294 -0.7664 -0.2898  0.4549
27496SOL    HW284496   8.067   8.694   2.231  0.7908 -0.1188 -1.4085
27497SOL     OW84497   8.160   5.676   0.446 -0.1743  0.8393 -0.2140
27497SOL    HW184498   8.243   5.699   0.490 -0.5118  2.3104 -0.2945
27497SOL    HW284499   8.184   5.661   0.355  0.0125  1.2801 -0.2402
27498SOL     OW84500  10.956   8.013   7.404 -0.3480 -0.3646  0.2337
27498SOL    HW184501  10.909   8.086   7.443 -1.1689 -1.4611  1.4071
27498SOL    HW284502  10.910   7.995   7.322 -1.4173 -0.8235  0.9159
27499SOL     OW84503   2.898   6.598   5.684 -0.1739  0.5388  0.1674
27499SOL    HW184504   2.853   6.682   5.677  0.1095  0.5437 -2.6373
27499SOL    HW284505   2.979   6.609   5.633 -0.6208 -1.6757 -1.1750
27500SOL     OW84506  10.387  10.253  11.073 -1.0270  0.5961  0.2286
27500SOL    HW184507  10.397  10.262  10.978 -1.4281 -0.0736  0.1164
27500SOL    HW284508  10.313  10.309  11.095 -2.3948 -0.9507 -0.2076
27501SOL     OW84509   6.949  11.055   9.808 -0.2312  0.6360  0.0266
27501SOL    HW184510   7.039  11.087   9.818  1.0487 -2.7578  0.9209
27501SOL    HW284511   6.907  11.072   9.893  0.6364 -0.5117  0.7181
27502SOL     OW84512   9.767   7.629   9.459  0.0109 -0.2901  0.0892
27502SOL    HW184513   9.775   7.602   9.368  0.8511 -2.4422  0.7535
27502SOL    HW284514   9.857   7.644   9.488 -0.1908 -0.3834  0.7846
27503SOL     OW84515   3.661   7.127   8.403  0.3010  0.0653 -0.4448
27503SOL    HW184516   3.616   7.211   8.396  4.9731  3.2428  2.1839
27503SOL    HW284517   3.721   7.126   8.328  0.0533 -1.1673 -0.6482
27504SOL     OW84518   0.895   7.615   8.013  0.4132 -0.5679  0.0704
27504SOL    HW184519   0.835   7.625   8.088 -1.1514  1.5785 -1.3428
27504SOL    HW284520   0.979   7.648   8.044 -0.1994  0.2428  0.9011
27505SOL     OW84521   2.764   6.333   7.527  0.5608  0.2002  0.1955
27505SOL    HW184522   2.744   6.371   7.612  1.9621 -1.0938  1.1557
27505SOL    HW284523   2.808   6.403   7.479 -1.3007  1.3294  0.0274
27506SOL     OW84524   9.463   6.820   3.544 -0.0167  0.3010  0.6519
27506SOL    HW184525   9.469   6.877   3.467  1.4382 -0.1776  0.3798
27506SOL    HW284526   9.369   6.816   3.564 -0.8464 -1.7230 -2.7585
27507SOL     OW84527   2.240   2.765   4.693  0.1151  0.1240 -0.9683
27507SOL    HW184528   2.245   2.780   4.788 -1.8639  0.1895 -0.8312
27507SOL    HW284529   2.233   2.670   4.684  0.6926  0.0891 -1.0865
27508SOL     OW84530   8.009   3.958   1.714 -0.5634  0.1498  0.7452
27508SOL    HW184531   7.921   3.925   1.693 -0.4437  1.5718 -2.5792
27508SOL    HW284532   7.999   3.999   1.800 -2.7372 -1.0784  1.1512
27509SOL     OW84533  10.967   0.008   2.384  0.9618 -0.3637 -0.0309
27509SOL    HW184534  11.017   0.077   2.341  0.3762 -0.0814 -0.2694
27509SOL    HW284535  10.924  -0.039   2.312  1.3317 -0.9651  0.1311
27510SOL     OW84536   1.808   0.772   7.783 -0.1218  0.3325 -0.0275
27510SOL    HW184537   1.873   0.725   7.835  0.2537  0.3663 -0.4623
27510SOL    HW284538   1.724   0.733   7.809  0.2812 -1.5538 -1.3551
27511SOL     OW84539   6.984   2.462   9.772 -0.5755 -0.3331 -0.3590
27511SOL    HW184540   6.974   2.462   9.677 -0.2345  0.7600 -0.4111
27511SOL    HW284541   6.903   2.424   9.806 -0.1679 -1.9569 -1.1169
27512SOL     OW84542  10.051   0.167   4.349 -0.1203 -0.2245 -0.2879
27512SOL    HW184543   9.960   0.156   4.374 -0.0970  1.3249  0.6230
27512SOL    HW284544  10.055   0.139   4.258 -1.3876 -0.8285 -0.1735
27513SOL     OW84545   7.912   5.251   6.306 -0.2396  0.7958  0.3282
27513SOL    HW184546   7.951   5.214   6.386 -1.2131 -1.2510 -0.0668
27513SOL    HW284547   7.850   5.317   6.338 -0.0661  0.5430  1.2267
27514SOL     OW84548   8.220   3.026   7.159 -0.5373 -0.2203 -0.5989
27514SOL    HW184549   8.276   3.090   7.204 -3.4838  2.2449 -0.1055
27514SOL    HW284550   8.194   2.964   7.227 -0.0719 -0.1649 -0.3652
27515SOL     OW84551   4.091   4.019   1.051 -0.5292 -0.9419 -0.0300
27515SOL    HW184552   4.063   4.012   1.142  1.6476  0.2800  0.8298
27515SOL    HW284553   4.101   3.929   1.021  0.2235 -1.3904  1.4951
27516SOL     OW84554   9.564   9.495   5.799  0.9519 -0.2509  0.3770
27516SOL    HW184555   9.588   9.403   5.796 -2.1676 -1.1569 -2.2820
27516SOL    HW284556   9.483   9.498   5.849  1.2100  1.1445  0.7740
27517SOL     OW84557   0.536   2.673   2.277 -0.2028 -0.7005 -0.0429
27517SOL    HW184558   0.585   2.597   2.246  1.7666  0.7714 -0.7432
27517SOL    HW284559   0.476   2.694   2.205  1.2636  0.0711 -1.0855
27518SOL     OW84560   4.605   1.935   8.640 -0.4542 -0.3485  0.6259
27518SOL    HW184561   4.523   1.940   8.592 -0.2175  1.3960  0.3497
27518SOL    HW284562   4.670   1.911   8.575 -0.7190 -1.7894  0.8552
27519SOL     OW84563   7.323   6.397   9.732 -0.4154  0.0824 -0.6144
27519SOL    HW184564   7.281   6.328   9.784  0.2056  0.1674  0.0035
27519SOL    HW284565   7.352   6.352   9.653  1.4373 -0.7693  0.4727
27520SOL     OW84566   1.156   7.121  10.284  0.1252 -0.0150 -0.4618
27520SOL    HW184567   1.101   7.132  10.362 -1.9386 -0.0188 -1.8473
27520SOL    HW284568   1.158   7.208  10.244  0.7826 -0.1221 -0.6798
27521SOL     OW84569   9.254  11.047   1.998  0.0700  0.3175 -0.2250
27521SOL    HW184570   9.284  10.962   2.031  0.8964  1.3703  1.9742
27521SOL    HW284571   9.274  11.045   1.905  2.8881 -0.8221  0.2786
27522SOL     OW84572   3.083   0.705   6.260  0.6374 -0.1077 -0.4195
27522SOL    HW184573   3.024   0.773   6.291 -1.6216 -0.7591 -2.8786
27522SOL    HW284574   3.133   0.680   6.338 -0.1993  2.5612  1.1232
27523SOL     OW84575   4.095   6.435  10.835  0.1354  0.6313 -0.4822
27523SOL    HW184576   4.005   6.421  10.865  0.3692 -1.4113 -0.5883
27523SOL    HW284577   4.135   6.348  10.837  2.0178  1.4310 -0.7895
27524SOL     OW84578   7.610   3.312   3.388 -0.5786 -1.1600 -0.2581
27524SOL    HW184579   7.611   3.217   3.397 -1.3327 -1.1388  0.1260
27524SOL    HW284580   7.615   3.345   3.478  0.0703 -0.8288 -0.4108
27525SOL     OW84581   9.549   5.290  10.707  0.1855 -0.6953  0.5653
27525SOL    HW184582   9.508   5.276  10.792  1.3675  0.1718  1.3108
27525SOL    HW284583   9.580   5.203  10.681 -1.6440 -1.2702  0.2050
27526SOL     OW84584  10.990   2.153  10.732  0.0855  0.0266  0.0838
27526SOL    HW184585  10.914   2.212  10.736 -1.3299 -1.7469  1.9697
27526SOL    HW284586  11.051   2.188  10.797 -0.1307  0.2210  0.1861
27527SOL     OW84587   4.845   8.247  10.526 -0.6522 -0.3591 -0.1834
27527SOL    HW184588   4.783   8.319  10.516  1.8782  2.0143  0.0300
27527SOL    HW284589   4.853   8.236  10.621 -2.1709 -2.0839 -0.2021
27528SOL     OW84590   4.046   1.879   9.778  0.0595  0.5170 -0.1680
27528SOL    HW184591   3.984   1.837   9.717  1.2831  0.9379 -1.7604
27528SOL    HW284592   4.047   1.971   9.752 -0.9553  1.1828  1.8918
27529SOL     OW84593   1.587   2.333  10.167 -0.2522 -0.1395 -0.3003
27529SOL    HW184594   1.671   2.339  10.211  0.1499 -0.9678 -0.9453
27529SOL    HW284595   1.586   2.247  10.127 -2.6681 -1.4224  2.1950
27530SOL     OW84596   9.374   5.854   7.731 -0.4729 -0.1680  0.0465
27530SOL    HW184597   9.337   5.815   7.652 -1.8252  0.9267  0.0943
27530SOL    HW284598   9.414   5.936   7.702 -0.7523  0.1160  0.4481
27531SOL     OW84599   3.090   3.349   4.398 -0.2077 -0.1613 -0.3450
27531SOL    HW184600   3.158   3.371   4.335 -0.6206  2.7222  0.0629
27531SOL    HW284601   3.128   3.370   4.483 -1.4785  1.3006 -0.0967
27532SOL     OW84602   8.553   6.333   9.691 -0.4906 -0.3760  0.1493
27532SOL    HW184603   8.575   6.368   9.777  0.4285 -1.3837  0.3399
27532SOL    HW284604   8.517   6.409   9.643  1.7591  0.9746  0.4271
27533SOL     OW84605   8.305   3.453   7.530 -0.2626  0.4849 -0.6134
27533SOL    HW184606   8.375   3.404   7.573  0.0683  0.8332 -0.7505
27533SOL    HW284607   8.230   3.393   7.530  0.0016  0.1519 -0.3647
27534SOL     OW84608   2.009   5.259   3.643 -0.6074 -0.2809 -0.2785
27534SOL    HW184609   1.972   5.320   3.707 -0.9339 -0.9121  0.1462
27534SOL    HW284610   2.099   5.244   3.672 -0.6803 -0.3794 -0.1010
27535SOL     OW84611   8.802  10.108   3.084 -0.0933  0.3912 -0.1684
27535SOL    HW184612   8.780  10.186   3.136 -1.8622  0.7351 -1.3590
27535SOL    HW284613   8.894  10.090   3.106  0.5201  3.0702 -0.1458
27536SOL     OW84614   8.191   0.968   8.818  0.0665 -0.1234  0.1758
27536SOL    HW184615   8.210   0.875   8.834 -0.8729 -0.4452 -0.5020
27536SOL    HW284616   8.264   0.997   8.763  2.0536  0.3930  2.8787
27537SOL     OW84617   9.122   1.420   7.013 -0.8724 -0.0408  0.2981
27537SOL    HW184618   9.069   1.462   7.080  0.7832  0.7552  1.1762
27537SOL    HW284619   9.204   1.399   7.058 -0.6029 -1.6693 -0.8746
27538SOL     OW84620   9.112   5.318   6.537 -0.3001  0.6759  0.4976
27538SOL    HW184621   9.058   5.319   6.457  0.3631 -0.1699  0.0095
27538SOL    HW284622   9.197   5.351   6.509  1.0143 -2.7007 -0.0522
27539SOL     OW84623   5.978   1.446   8.359 -0.2706 -0.2844 -0.6795
27539SOL    HW184624   5.917   1.446   8.432  2.3186  0.0780  1.6366
27539SOL    HW284625   5.935   1.392   8.292 -1.9699 -2.2703  1.8180
27540SOL     OW84626   5.426   4.612  10.730 -0.6691  0.1358  0.2139
27540SOL    HW184627   5.394   4.531  10.769 -1.2387 -0.0577 -0.6505
27540SOL    HW284628   5.452   4.665  10.806  0.5742 -1.1862  0.7525
27541SOL     OW84629   9.692  10.129   3.409  0.3812 -0.3734 -0.0841
27541SOL    HW184630   9.753  10.055   3.410 -0.2655 -0.9259 -0.3820
27541SOL    HW284631   9.607  10.089   3.391 -0.1462  0.3225  0.7582
27542SOL     OW84632   8.723   0.988   2.268 -0.1489  0.1119 -0.2850
27542SOL    HW184633   8.651   0.988   2.206  0.4030 -0.8833 -0.9439
27542SOL    HW284634   8.691   0.937   2.342 -0.6463  0.9365  0.0924
27543SOL     OW84635   2.896   2.006   5.377 -0.6178  0.2653  0.3181
27543SOL    HW184636   2.859   1.924   5.343  1.3903  0.0516 -1.5575
27543SOL    HW284637   2.937   1.982   5.460 -0.8431 -0.4071  0.2401
27544SOL     OW84638   1.852   7.933   6.318 -0.4205  0.2121  0.1980
27544SOL    HW184639   1.777   7.875   6.330  0.0936 -0.0890  2.4148
27544SOL    HW284640   1.814   8.021   6.315 -0.8790  0.0866  1.5620
27545SOL     OW84641   6.834   9.908   7.921  0.4952 -0.1583  0.3054
27545SOL    HW184642   6.779   9.986   7.921  0.5929 -0.0763 -0.6952
27545SOL    HW284643   6.773   9.835   7.924  0.3401 -0.0606 -0.3374
27546SOL     OW84644   5.263   7.365   9.453 -0.5020  0.0240  0.0058
27546SOL    HW184645   5.332   7.401   9.397 -0.4839 -0.2868 -0.1734
27546SOL    HW284646   5.218   7.301   9.398  0.8160 -1.8119  0.9455
27547SOL     OW84647   4.185   7.711   9.002 -0.1451 -0.1458  0.5707
27547SOL    HW184648   4.178   7.749   8.915 -1.4719  1.0409  1.1562
27547SOL    HW284649   4.276   7.685   9.010  0.3648  1.1790 -0.5941
27548SOL     OW84650  10.060   1.877   2.787  0.1952 -0.0724  0.0872
27548SOL    HW184651  10.116   1.924   2.726  0.7367  0.0300  0.6504
27548SOL    HW284652  10.026   1.945   2.846  2.0585 -0.4770  1.7605
27549SOL     OW84653   3.188   5.502   2.043 -0.3929  0.8377 -0.0417
27549SOL    HW184654   3.238   5.568   2.091 -2.9277  1.8371  1.3640
27549SOL    HW284655   3.254   5.436   2.018  1.9617  3.0793 -0.1776
27550SOL     OW84656  10.832   1.357  10.339  0.6147  0.4581 -0.1344
27550SOL    HW184657  10.862   1.378  10.427  1.9316  0.1603 -0.4853
27550SOL    HW284658  10.746   1.399  10.331  1.3805  2.2112  0.5773
27551SOL     OW84659   1.101   3.451   3.496 -1.4644 -0.2564 -0.5311
27551SOL    HW184660   1.142   3.483   3.577 -0.2531  0.7967 -1.5157
27551SOL    HW284661   1.053   3.373   3.523  0.9937 -1.4513  0.7754
27552SOL     OW84662   0.931  11.063   0.948  0.4655 -0.5894 -0.3627
27552SOL    HW184663   0.917  11.131   1.014  1.1547 -0.8533  0.0662
27552SOL    HW284664   0.966  11.111   0.872  0.4053 -0.3900 -0.2656
27553SOL     OW84665   0.566   0.276   8.415 -0.5158 -0.1729 -0.0729
27553SOL    HW184666   0.473   0.278   8.437 -0.4791 -1.6675  0.3299
27553SOL    HW284667   0.581   0.187   8.384  0.8781 -0.1100  0.3611
27554SOL     OW84668   0.473   5.302   0.882  0.1508 -0.5115  0.4638
27554SOL    HW184669   0.565   5.309   0.858 -0.1467 -1.8682 -1.2746
27554SOL    HW284670   0.466   5.217   0.926  0.0035  0.3454  2.1919
27555SOL     OW84671   5.068   9.061   2.307 -0.5158  0.5993 -0.0400
27555SOL    HW184672   5.067   8.966   2.322 -1.4824  0.6137  0.0506
27555SOL    HW284673   4.977   9.082   2.286 -0.5304  1.6887  1.0601
27556SOL     OW84674  10.087   4.359   9.503 -0.2333 -0.0341 -0.7542
27556SOL    HW184675  10.001   4.367   9.544 -2.1554  0.4100 -4.4456
27556SOL    HW284676  10.129   4.443   9.519 -1.8890  1.0037 -1.5729
27557SOL     OW84677   1.827   5.069  10.497 -0.2341 -0.1381  0.0911
27557SOL    HW184678   1.856   5.063  10.589  2.5195 -2.6568 -0.7579
27557SOL    HW284679   1.832   4.979  10.465 -2.4900  0.4551 -2.2123
27558SOL     OW84680   8.486   1.189   9.396 -0.3383 -0.4362  0.8323
27558SOL    HW184681   8.456   1.098   9.388  0.9272 -0.8687  0.6976
27558SOL    HW284682   8.439   1.236   9.327 -0.3198 -1.1829  0.2959
27559SOL     OW84683   1.331   8.232   1.608  0.0462 -0.7325  0.2641
27559SOL    HW184684   1.307   8.261   1.520 -2.0720  0.6349  1.2107
27559SOL    HW284685   1.417   8.271   1.624  1.0727 -2.0858 -1.6345
27560SOL     OW84686   8.713   6.658   1.041  0.3554 -1.1461 -0.0168
27560SOL    HW184687   8.645   6.713   1.080 -0.0380 -0.5139 -1.5367
27560SOL    HW284688   8.756   6.715   0.978  1.3827 -1.9641 -0.0779
27561SOL     OW84689  10.218   4.963   2.294  0.1947  0.6378 -0.1835
27561SOL    HW184690  10.153   4.893   2.289  1.6929 -0.8007 -0.3130
27561SOL    HW284691  10.173   5.034   2.341 -0.9464 -0.9029  1.1585
27562SOL     OW84692   4.517   1.720   8.137  0.2838  0.8923  0.3177
27562SOL    HW184693   4.468   1.693   8.215  0.2767  3.3258  1.2341
27562SOL    HW284694   4.528   1.814   8.147 -0.1429  1.4081 -2.8925
27563SOL     OW84695   0.193   2.651   0.078  0.8284  0.5588 -0.2200
27563SOL    HW184696   0.212   2.570   0.126 -0.5097  1.0123  1.1785
27563SOL    HW284697   0.145   2.705   0.141  0.0285  1.6830 -1.7217
27564SOL     OW84698   0.494   8.294   3.077  0.0938 -0.5373 -0.2426
27564SOL    HW184699   0.557   8.349   3.031  0.2680 -1.0176 -0.5922
27564SOL    HW284700   0.546   8.220   3.108 -0.6821 -2.2282 -2.6627
27565SOL     OW84701   5.379   4.399   5.141 -0.7181 -0.0540 -0.1880
27565SOL    HW184702   5.468   4.431   5.133 -0.3445 -0.3072  2.2237
27565SOL    HW284703   5.329   4.474   5.172 -1.0809 -0.2476 -0.2959
27566SOL     OW84704   5.184   6.701   0.229 -0.1883  0.6176 -0.8606
27566SOL    HW184705   5.179   6.773   0.166 -0.7885  0.9267 -0.4712
27566SOL    HW284706   5.269   6.713   0.271  0.3620  0.2078 -1.8372
27567SOL     OW84707  10.905   4.051   9.810 -0.3223 -0.1192  0.3855
27567SOL    HW184708  10.921   4.073   9.719 -0.2866  2.6010  0.9473
27567SOL    HW284709  10.810   4.047   9.818 -0.3189 -2.4352 -0.1321
27568SOL     OW84710   9.412   7.261   8.990 -0.0473 -0.1350  0.0092
27568SOL    HW184711   9.357   7.187   8.966  1.0296 -0.5589 -1.2483
27568SOL    HW284712   9.354   7.318   9.041 -1.6523 -0.5470 -1.2873
27569SOL     OW84713   8.762   7.102   5.838 -0.1955  0.2901 -0.4483
27569SOL    HW184714   8.708   7.111   5.759 -1.7193 -0.8106  0.3969
27569SOL    HW284715   8.796   7.190   5.855 -1.3253  0.9212 -1.3286
27570SOL     OW84716   0.132   0.586  10.650  0.1874 -0.2605 -0.2807
27570SOL    HW184717   0.105   0.590  10.559  0.0319  1.5317 -0.2028
27570SOL    HW284718   0.205   0.524  10.652  0.1480 -0.3678 -1.6042
27571SOL     OW84719   9.201   6.117  10.392  0.3731 -0.5103 -0.1509
27571SOL    HW184720   9.281   6.082  10.351  1.2902  1.0527  0.2363
27571SOL    HW284721   9.175   6.189  10.335  0.1852  0.0370  0.6148
27572SOL     OW84722  10.476   9.808   6.511  0.1580 -0.1434  0.3267
27572SOL    HW184723  10.523   9.739   6.465 -2.2579 -0.3196 -2.1107
27572SOL    HW284724  10.498   9.888   6.465 -1.6705 -0.2110 -0.7886
27573SOL     OW84725   5.037   6.540   5.370 -0.4673  0.0026 -0.0824
27573SOL    HW184726   5.020   6.616   5.314  0.9396  1.8476  1.8252
27573SOL    HW284727   4.953   6.496   5.376 -1.9451  2.6582  0.4383
27574SOL     OW84728   0.145  10.052  10.920  0.1426 -0.1544  0.9261
27574SOL    HW184729   0.083   9.990  10.883 -1.6703  0.9311  1.9852
27574SOL    HW284730   0.116  10.065  11.011  0.3004  2.3427  0.7090
27575SOL     OW84731   8.368   9.013   6.110 -0.4491 -0.2280  0.1285
27575SOL    HW184732   8.436   9.072   6.143 -1.5577  0.2130  1.7439
27575SOL    HW284733   8.401   8.984   6.025  2.0501 -0.5655  1.1387
27576SOL     OW84734   1.747   1.562   2.830 -0.2227 -0.9741 -0.1789
27576SOL    HW184735   1.698   1.578   2.911 -0.9035 -0.4512 -0.6782
27576SOL    HW284736   1.835   1.594   2.848 -0.2176 -1.3914  0.5440
27577SOL     OW84737   0.880   0.211   3.603 -0.0532  0.1450 -0.1734
27577SOL    HW184738   0.791   0.225   3.570 -0.2772 -0.2963  0.2250
27577SOL    HW284739   0.870   0.144   3.671  0.6061 -0.0176 -0.2269
27578SOL     OW84740  10.375  10.542  10.637 -0.5316 -0.0341 -0.6813
27578SOL    HW184741  10.438  10.540  10.565 -1.3501 -0.3310 -1.4031
27578SOL    HW284742  10.379  10.632  10.670 -0.2074  0.1240 -1.1454
27579SOL     OW84743   6.067   8.381   5.525 -0.4223  0.3413  0.0031
27579SOL    HW184744   6.087   8.435   5.601 -0.5102 -1.8627  1.6793
27579SOL    HW284745   6.018   8.306   5.560  1.2274 -1.7808 -1.8830
27580SOL     OW84746   3.021   7.399   5.699  0.3387 -0.6520 -0.4786
27580SOL    HW184747   3.045   7.487   5.671 -1.6803 -0.4081 -1.6501
27580SOL    HW284748   3.034   7.400   5.794 -1.9377  1.7625 -0.0738
27581SOL     OW84749   7.259   5.974   4.071  0.0418 -0.4132  0.2503
27581SOL    HW184750   7.224   6.010   3.990 -0.9106 -0.1368  0.7764
27581SOL    HW284751   7.327   5.912   4.043  0.4459  0.4495 -0.7122
27582SOL     OW84752  11.040   8.957   9.136 -0.2983  0.1124  0.1360
27582SOL    HW184753  11.058   8.908   9.055  0.6099 -0.0725  0.4438
27582SOL    HW284754  11.112   9.020   9.142 -0.0858 -0.2141  1.0641
27583SOL     OW84755   4.111   2.010   5.918  0.3874  0.7027 -0.1961
27583SOL    HW184756   4.171   1.979   5.986 -0.9281 -0.0692  0.6778
27583SOL    HW284757   4.165   2.020   5.840  1.8405  1.0619  0.8128
27584SOL     OW84758   4.111   8.314   9.304 -0.0149  0.2318  0.2083
27584SOL    HW184759   4.169   8.389   9.285  1.4902 -1.2696 -1.5184
27584SOL    HW284760   4.088   8.280   9.217 -0.8444 -1.1903  0.9586
27585SOL     OW84761   2.779  10.095   3.651 -0.6877 -0.9718  0.5348
27585SOL    HW184762   2.731  10.102   3.568  1.0690  0.0156 -0.4489
27585SOL    HW284763   2.859  10.048   3.628  1.6333  2.5747  0.7769
27586SOL     OW84764  10.641   0.589   3.291 -1.3917  0.1193  0.3559
27586SOL    HW184765  10.598   0.563   3.372  0.3888 -0.9515  1.0098
27586SOL    HW284766  10.598   0.671   3.266 -1.6148  0.7699  2.6879
27587SOL     OW84767   8.922   6.070   9.313  0.8287  0.0403 -1.1099
27587SOL    HW184768   8.846   6.037   9.361  0.8386 -0.2588 -1.2954
27587SOL    HW284769   8.951   6.146   9.363  0.1443  0.4195 -1.2843
27588SOL     OW84770   1.998   5.262   0.461  0.0419  0.2119 -0.1340
27588SOL    HW184771   2.089   5.281   0.437  0.8500 -2.4043  0.4766
27588SOL    HW284772   2.001   5.246   0.555 -1.5349  2.2999  0.3354
27589SOL     OW84773   4.581   1.030   6.474 -0.1176  0.8364  0.0891
27589SOL    HW184774   4.656   1.066   6.426  0.8983  0.3718  1.2652
27589SOL    HW284775   4.505   1.071   6.434  0.6478  0.2033 -2.1560
27590SOL     OW84776   5.453   2.814   6.623 -0.3047  0.2972  1.0827
27590SOL    HW184777   5.480   2.754   6.554  1.4413  0.1590  1.8389
27590SOL    HW284778   5.422   2.892   6.576  1.0298  0.2823  0.1176
27591SOL     OW84779   7.505   6.884   3.975  0.0060  0.1089 -0.0334
27591SOL    HW184780   7.526   6.974   3.951  1.7760  0.1951  1.5824
27591SOL    HW284781   7.411   6.876   3.958 -0.1065  2.1143 -0.6145
27592SOL     OW84782   5.797   6.403   5.328 -0.3402 -0.3715  0.3948
27592SOL    HW184783   5.747   6.322   5.315 -2.8410  1.1102  0.2096
27592SOL    HW284784   5.813   6.435   5.240  2.2869 -1.5086  0.3746
27593SOL     OW84785   8.341   0.040   1.666 -0.1743  0.2078 -0.2550
27593SOL    HW184786   8.300  -0.035   1.708 -1.9197  0.9809 -0.5241
27593SOL    HW284787   8.429   0.009   1.643 -0.6569 -1.5583  0.1387
27594SOL     OW84788   3.609   5.550   7.945 -0.0374 -0.1746 -0.2062
27594SOL    HW184789   3.594   5.630   7.996  1.9902  0.5679 -0.6498
27594SOL    HW284790   3.578   5.479   8.002  0.6912  0.7390  1.4223
27595SOL     OW84791   4.557   9.242  10.262 -0.4830 -0.1272  0.4209
27595SOL    HW184792   4.494   9.309  10.285  0.2527  1.0463 -0.8622
27595SOL    HW284793   4.633   9.290  10.230 -0.4413 -1.5576 -1.8387
27596SOL     OW84794   6.690   1.228   0.200 -0.4653  0.3916  0.0124
27596SOL    HW184795   6.613   1.276   0.168 -2.4155 -0.3593  3.1321
27596SOL    HW284796   6.669   1.136   0.182 -1.7563 -0.0843  3.3363
27597SOL     OW84797   4.161   3.036   1.129  0.4501 -0.6461 -0.2127
27597SOL    HW184798   4.077   3.067   1.161  0.6025 -0.8184  0.3722
27597SOL    HW284799   4.149   3.026   1.035  0.4984  1.5249 -0.5104
27598SOL     OW84800  10.390   6.033   0.887  0.5951  0.0121  0.6013
27598SOL    HW184801  10.344   6.055   0.806 -2.6818 -0.6314  2.1187
27598SOL    HW284802  10.482   6.051   0.868  0.3534 -2.0890 -3.9616
27599SOL     OW84803  11.002   6.572   6.222 -0.1799 -0.2926 -0.0264
27599SOL    HW184804  11.014   6.617   6.139 -0.8430 -1.6657 -0.8923
27599SOL    HW284805  11.083   6.523   6.235 -0.5808 -1.0995 -0.5218
27600SOL     OW84806   4.424   2.944   4.682  0.2575  0.1323  0.2212
27600SOL    HW184807   4.491   2.994   4.728 -0.5308  1.3325  0.1152
27600SOL    HW284808   4.392   2.881   4.747  0.1537  0.8566  0.8841
27601SOL     OW84809   2.488  10.068   6.713  0.3535 -0.5279  0.2018
27601SOL    HW184810   2.420  10.003   6.694 -0.0441  0.5234 -2.3273
27601SOL    HW284811   2.520  10.095   6.627  1.2953  1.7909  1.2085
27602SOL     OW84812   7.917   2.016   8.568 -0.0048  1.0697 -0.4614
27602SOL    HW184813   8.012   2.003   8.558 -0.0031 -0.9717  1.3849
27602SOL    HW284814   7.910   2.075   8.643 -0.1950  1.0349 -0.4528
27603SOL     OW84815   2.869   3.880   0.010  0.5721  0.8017  0.0598
27603SOL    HW184816   2.953   3.900   0.050  0.9807  0.0701 -0.4112
27603SOL    HW284817   2.833   3.810   0.065  0.9207  0.1261 -0.5578
27604SOL     OW84818   8.399   7.853   2.702  0.3537 -0.6791 -0.1556
27604SOL    HW184819   8.474   7.798   2.682 -0.8135 -2.9743  1.3378
27604SOL    HW284820   8.360   7.872   2.616  1.0821 -1.7532 -0.7456
27605SOL     OW84821  10.447  10.005   1.968  0.2371 -0.1872  0.0994
27605SOL    HW184822  10.485   9.992   2.055  1.2259  0.1424 -0.2698
27605SOL    HW284823  10.458  10.099   1.951  1.9620 -0.5622 -1.2146
27606SOL     OW84824  10.413   7.413   8.265  0.0870 -0.2351 -0.0444
27606SOL    HW184825  10.489   7.435   8.212 -1.2439  0.5237 -1.7621
27606SOL    HW284826  10.366   7.348   8.212 -0.4182 -0.7480  1.0169
27607SOL     OW84827   7.016   4.648   2.321  0.1592  0.4958  0.2269
27607SOL    HW184828   7.104   4.681   2.307  0.5424 -0.2179  0.8425
27607SOL    HW284829   7.003   4.653   2.416 -0.3642  0.3653  0.1668
27608SOL     OW84830  10.819   7.787   3.073  0.1504 -1.4141 -0.2709
27608SOL    HW184831  10.874   7.861   3.048  0.8957 -1.7245  0.4217
27608SOL    HW284832  10.876   7.730   3.124 -0.8664 -1.6513  0.6314
27609SOL     OW84833   7.026   6.045   1.309 -0.3698 -0.2220 -0.3591
27609SOL    HW184834   6.940   6.021   1.274 -0.7874  0.1464  0.3826
27609SOL    HW284835   7.016   6.034   1.404  1.0664 -2.3111 -0.3794
27610SOL     OW84836   6.456   3.206   5.199  0.0064  0.5459  0.1167
27610SOL    HW184837   6.383   3.179   5.255 -0.2864 -0.7287 -0.8179
27610SOL    HW284838   6.527   3.225   5.259  0.5641 -3.3324  0.9243
27611SOL     OW84839   7.727   5.511   7.475  0.3547 -0.3396 -0.3064
27611SOL    HW184840   7.732   5.416   7.462 -1.5996 -0.6927  1.0682
27611SOL    HW284841   7.677   5.521   7.556 -0.1510  1.8813 -0.8387
27612SOL     OW84842  10.682   2.347   7.623  0.0943 -0.2794  0.6551
27612SOL    HW184843  10.633   2.328   7.543  4.2388 -0.6258 -2.0572
27612SOL    HW284844  10.731   2.267   7.641  1.7913  0.8959  1.5358
27613SOL     OW84845  10.973   1.718   7.228 -0.9766 -0.9096  0.5032
27613SOL    HW184846  10.964   1.741   7.135  0.6260 -1.2226  0.2327
27613SOL    HW284847  11.031   1.785   7.263 -1.9932 -0.4938  1.4284
27614SOL     OW84848   0.890   8.363  10.969 -1.4136 -0.0505 -0.1367
27614SOL    HW184849   0.823   8.372  10.901 -2.9087 -1.4194  1.0924
27614SOL    HW284850   0.964   8.322  10.924 -2.4074 -1.0241 -0.9486
27615SOL     OW84851   8.690   4.232   2.939 -0.4592 -0.3852  0.0950
27615SOL    HW184852   8.656   4.204   3.023  1.9653  2.7295  2.3867
27615SOL    HW284853   8.619   4.283   2.899 -0.9146 -0.0464  1.3124
27616SOL     OW84854   4.724   3.757   3.155  0.3662  0.7713  0.0506
27616SOL    HW184855   4.747   3.798   3.239  0.7873  0.2657  0.1882
27616SOL    HW284856   4.631   3.776   3.143 -0.6698 -2.0709  2.3552
27617SOL     OW84857   4.354   5.016   0.669  0.9252 -0.1397  0.4545
27617SOL    HW184858   4.268   5.021   0.628  0.5866  1.1535  1.2889
27617SOL    HW284859   4.342   4.956   0.742  0.2090  1.4962  1.7355
27618SOL     OW84860  11.057  10.968   6.799 -0.3060 -0.0764  0.3907
27618SOL    HW184861  11.091  11.010   6.878 -1.4645 -0.1309  0.9416
27618SOL    HW284862  11.009  11.038   6.753 -0.3178 -0.2419  0.1478
27619SOL     OW84863   4.775   0.874   6.653  0.5839 -0.7858 -0.5195
27619SOL    HW184864   4.803   0.785   6.631  0.5901 -0.4128 -2.1575
27619SOL    HW284865   4.692   0.885   6.606  0.6656  0.1250 -0.4580
27620SOL     OW84866   7.034   0.852   7.784  0.1927 -1.0875 -0.6339
27620SOL    HW184867   6.962   0.844   7.721 -0.8221 -0.3371  0.3961
27620SOL    HW284868   7.016   0.787   7.851  0.7129 -1.1841 -0.5795
27621SOL     OW84869   7.295   8.580   5.745  0.6378  0.0913  0.1307
27621SOL    HW184870   7.267   8.666   5.712  0.6891  0.3588  0.7685
27621SOL    HW284871   7.385   8.594   5.774  0.5225 -0.0776  0.5823
27622SOL     OW84872  10.480   6.788  10.304 -0.8148 -0.3621  0.1934
27622SOL    HW184873  10.553   6.784  10.242  1.9161 -1.0729  3.1953
27622SOL    HW284874  10.477   6.701  10.343 -2.1409  0.1832  1.3917
27623SOL     OW84875   3.288   2.667   6.195 -0.7130  0.0096  0.4510
27623SOL    HW184876   3.259   2.653   6.104 -2.6464 -1.7894  1.2524
27623SOL    HW284877   3.250   2.594   6.243 -0.4993  1.4040  2.8844
27624SOL     OW84878   8.352   6.879   3.164  0.8957 -0.1678 -0.8550
27624SOL    HW184879   8.397   6.834   3.235  1.2582  0.7597 -0.4731
27624SOL    HW284880   8.390   6.842   3.084 -1.4726 -3.2522 -0.7297
27625SOL     OW84881   0.876   4.733   4.199 -0.4433  0.1329  0.0794
27625SOL    HW184882   0.836   4.646   4.208  1.5013 -0.9252 -0.7833
27625SOL    HW284883   0.928   4.744   4.278  0.5152 -0.1947 -0.4831
27626SOL     OW84884   3.905   1.087   5.291 -0.0398 -0.8361  0.1432
27626SOL    HW184885   3.904   0.994   5.272  0.4377 -0.9221  0.5073
27626SOL    HW284886   3.978   1.122   5.240 -0.5272 -0.5674 -0.3843
27627SOL     OW84887   9.660  10.524   1.317  0.0583  0.2848 -0.4493
27627SOL    HW184888   9.659  10.450   1.379 -2.7588  0.0801 -0.5968
27627SOL    HW284889   9.665  10.602   1.372  1.3786  0.0541 -0.2097
27628SOL     OW84890  10.632   3.079  10.871 -0.5715 -0.7988 -0.1724
27628SOL    HW184891  10.608   2.988  10.855 -1.0709 -0.3260 -2.5447
27628SOL    HW284892  10.590   3.128  10.799  0.2548  1.2101  0.6282
27629SOL     OW84893   3.899   6.962   7.770  0.1178  0.6639 -0.4724
27629SOL    HW184894   3.876   6.968   7.677  1.1839  1.3876 -0.7146
27629SOL    HW284895   3.894   7.052   7.802  1.3274  0.6681 -0.2388
27630SOL     OW84896   5.445   7.146   7.915  0.2335  0.1374  0.3458
27630SOL    HW184897   5.471   7.233   7.945  0.0841  0.2335  0.2065
27630SOL    HW284898   5.382   7.116   7.980  0.4543  0.0392  0.5131
27631SOL     OW84899   3.179   6.734   7.362  0.3799 -0.5217 -0.7536
27631SOL    HW184900   3.135   6.694   7.288  0.9992  0.5314 -1.7274
27631SOL    HW284901   3.206   6.820   7.330  0.0633  0.2374  0.9076
27632SOL     OW84902   1.645   3.274   0.690 -0.4783  0.0637 -0.1466
27632SOL    HW184903   1.638   3.369   0.685  0.0082  0.0535 -1.4371
27632SOL    HW284904   1.736   3.258   0.715 -0.5893 -0.0735  0.1820
27633SOL     OW84905   3.613   4.089   3.342 -0.1240 -0.5339 -0.7589
27633SOL    HW184906   3.540   4.052   3.391 -1.7179  1.9268 -1.1474
27633SOL    HW284907   3.685   4.093   3.406 -2.2117  2.8857  1.6800
27634SOL     OW84908   9.312   1.349   7.174  0.6987 -0.2649  0.3168
27634SOL    HW184909   9.317   1.393   7.258  0.3544 -0.5586  0.4926
27634SOL    HW284910   9.334   1.257   7.193  1.9288 -0.0767 -0.1321
27635SOL     OW84911   3.237   6.208   9.348 -0.1891 -0.0798  0.3534
27635SOL    HW184912   3.174   6.227   9.278  0.7988 -2.8831 -1.4748
27635SOL    HW284913   3.192   6.233   9.428 -3.1529 -0.7562 -0.9570
27636SOL     OW84914   4.544   4.136  10.260 -0.3558 -0.1616  0.3335
27636SOL    HW184915   4.558   4.070  10.329 -1.1490  0.1316  0.7823
27636SOL    HW284916   4.509   4.212  10.306 -2.3711 -0.4783 -0.5630
27637SOL     OW84917   5.999   8.104  10.969  0.5017 -0.4916 -0.6354
27637SOL    HW184918   6.022   8.079  11.058  2.3894 -0.9368 -1.2227
27637SOL    HW284919   5.967   8.024  10.928  1.3358 -0.7058 -0.8801
27638SOL     OW84920   1.412   3.066   0.336  0.2828  0.2654  0.8608
27638SOL    HW184921   1.485   3.073   0.273 -1.5877  0.3378 -1.4469
27638SOL    HW284922   1.363   2.990   0.306 -1.1854  0.8447  1.7187
27639SOL     OW84923  11.050   4.988   9.591 -0.3592 -0.0838 -0.4125
27639SOL    HW184924  10.967   5.011   9.550 -0.4785 -1.1142 -0.7823
27639SOL    HW284925  11.082   5.070   9.630 -1.7285  0.2447  0.0751
27640SOL     OW84926   0.794   6.882   2.300  0.0942 -0.2262 -0.5338
27640SOL    HW184927   0.885   6.851   2.293 -0.0372 -0.7975  0.1349
27640SOL    HW284928   0.802   6.976   2.318  0.6053 -0.5176  0.9148
27641SOL     OW84929   5.722   0.498   7.970 -0.1046 -0.8724 -0.0481
27641SOL    HW184930   5.722   0.594   7.963  0.9102 -0.8749 -0.1954
27641SOL    HW284931   5.745   0.468   7.882 -0.2894 -1.2496  0.0317
27642SOL     OW84932   2.632  10.396   5.493 -0.2731 -0.0662  0.2067
27642SOL    HW184933   2.726  10.378   5.486 -0.5547 -1.2084 -0.9859
27642SOL    HW284934   2.603  10.338   5.564 -0.1333  0.0938  0.3975
27643SOL     OW84935   2.749   0.180   0.716  0.2073 -0.2224 -0.7573
27643SOL    HW184936   2.743   0.085   0.731  1.5152  0.1143  2.9622
27643SOL    HW284937   2.833   0.192   0.672  0.0159 -0.7578 -1.2861
27644SOL     OW84938   8.727   5.175   8.181 -0.2909  1.1171 -0.1036
27644SOL    HW184939   8.751   5.163   8.272 -1.8750  0.1514  0.2253
27644SOL    HW284940   8.673   5.254   8.180 -0.3463  1.0798 -0.1865
27645SOL     OW84941   7.705   0.757   0.586 -0.1832  0.2803 -0.3870
27645SOL    HW184942   7.756   0.678   0.601  1.9109  1.9883  2.6169
27645SOL    HW284943   7.628   0.748   0.643 -0.7037 -0.1376 -1.1305
27646SOL     OW84944   4.321  10.393   0.598  0.0413 -0.1603  0.1211
27646SOL    HW184945   4.283  10.336   0.531 -2.4780  0.4163  0.9519
27646SOL    HW284946   4.403  10.350   0.622 -0.4730 -1.9893 -1.1898
27647SOL     OW84947   7.615   7.086   3.124  0.2277 -0.5201 -0.0487
27647SOL    HW184948   7.675   7.027   3.169  1.6480 -0.3751 -1.6928
27647SOL    HW284949   7.670   7.138   3.066 -1.2753  0.8598 -0.3154
27648SOL     OW84950   0.152   0.547   2.907  0.2261 -0.4634 -0.3015
27648SOL    HW184951   0.183   0.528   2.996  0.4381  2.2942  0.2895
27648SOL    HW284952   0.100   0.470   2.883  1.9908 -2.2830  1.2928
27649SOL     OW84953   9.980   2.955   0.202  0.3745  0.4218  0.0368
27649SOL    HW184954  10.011   3.027   0.257  0.6893 -0.3213  0.8536
27649SOL    HW284955  10.012   2.976   0.115  2.1226  0.3259  0.6120
27650SOL     OW84956   4.911   2.714   2.748  0.6756 -0.0805  0.4753
27650SOL    HW184957   4.999   2.712   2.712  0.6835  2.4969  0.1640
27650SOL    HW284958   4.868   2.788   2.704 -0.4354  1.0341  3.1866
27651SOL     OW84959   0.961   2.199   7.305  0.2909  0.2442  0.0503
27651SOL    HW184960   0.865   2.190   7.308  0.3829 -1.4425 -0.7647
27651SOL    HW284961   0.993   2.116   7.339  1.5732  1.9837  3.5135
27652SOL     OW84962  10.092   5.570   2.814  0.1501  0.3567  0.3779
27652SOL    HW184963  10.007   5.526   2.820  1.3524 -2.0611  1.2303
27652SOL    HW284964  10.128   5.540   2.730 -0.3802  2.5723 -0.7144
27653SOL     OW84965   5.250   4.439  10.897 -0.4108 -0.5550  0.5499
27653SOL    HW184966   5.211   4.353  10.912  1.5337 -1.0413  3.4516
27653SOL    HW284967   5.199   4.499  10.952 -0.3245 -0.2442  0.2975
27654SOL     OW84968   9.102   9.854   5.689 -0.4771 -0.1972 -1.1670
27654SOL    HW184969   9.136   9.783   5.635 -2.4624 -2.0968 -0.0616
27654SOL    HW284970   9.044   9.903   5.631  0.9391  0.6216 -1.9492
27655SOL     OW84971   7.167  10.250   6.060 -0.1716  0.8833 -0.0172
27655SOL    HW184972   7.108  10.306   6.009 -0.4669  0.9586  0.3976
27655SOL    HW284973   7.139  10.262   6.151  0.0660  0.4229  0.1231
27656SOL     OW84974  10.989   7.544   6.249  0.4225  0.1131  1.0228
27656SOL    HW184975  10.910   7.523   6.199  1.0319 -0.7762  0.3845
27656SOL    HW284976  10.977   7.499   6.333  0.3424 -0.2087  0.8408
27657SOL     OW84977   8.446   3.367   0.927 -0.1834  0.0726  0.1748
27657SOL    HW184978   8.416   3.455   0.903 -1.0427 -0.5246 -1.0159
27657SOL    HW284979   8.513   3.346   0.862 -1.6672 -1.0793 -1.0264
27658SOL     OW84980   8.402  10.916  10.391 -0.0966 -0.1069  0.1723
27658SOL    HW184981   8.471  10.869  10.344 -0.4747 -0.3561 -0.1391
27658SOL    HW284982   8.406  10.881  10.480 -0.7295 -1.1481 -0.1821
27659SOL     OW84983   6.470   0.485   0.755 -0.0565  0.2963 -0.0065
27659SOL    HW184984   6.496   0.402   0.796 -2.2789 -0.4283  0.0358
27659SOL    HW284985   6.513   0.483   0.669  0.7979 -0.3805  0.4161
27660SOL     OW84986   2.214   1.187   3.536  0.6960 -1.1955 -0.4051
27660SOL    HW184987   2.160   1.249   3.488  1.2613  0.1516  0.6224
27660SOL    HW284988   2.175   1.183   3.623  1.5073 -1.1727 -0.0320
27661SOL     OW84989   3.913  10.648   0.185 -1.0564 -0.0401 -0.1405
27661SOL    HW184990   3.959  10.688   0.111 -0.7625  0.7386  0.4504
27661SOL    HW284991   3.981  10.599   0.231 -0.7956  1.0607  0.6978
27662SOL     OW84992   5.728   4.713   8.759  0.0291  0.0182 -0.1463
27662SOL    HW184993   5.641   4.740   8.727  0.9542  0.6599 -2.2912
27662SOL    HW284994   5.776   4.689   8.680  2.7560  2.5083  0.5693
27663SOL     OW84995   2.877   6.066   1.860  0.3541 -0.1271  0.2611
27663SOL    HW184996   2.852   5.984   1.904 -0.0972 -0.6861 -0.9776
27663SOL    HW284997   2.967   6.082   1.888  0.4664 -1.0742  0.4896
27664SOL     OW84998   3.084  11.047   1.626 -0.1799  0.0082 -0.4204
27664SOL    HW184999   3.109  10.997   1.704 -0.1718  1.8253  0.7873
27664SOL    HW285000   3.166  11.061   1.579 -0.0105 -0.1299 -0.1685
27665SOL     OW85001   9.967   3.207   9.817 -0.6756  0.3073  0.0435
27665SOL    HW185002   9.977   3.126   9.867  0.6728  0.9040  0.7977
27665SOL    HW285003  10.053   3.250   9.823 -1.2848  1.6760 -0.5368
27666SOL     OW85004  10.724   3.381  10.743 -0.3418  0.4941 -0.6090
27666SOL    HW185005  10.631   3.380  10.768 -0.5480 -0.0532 -1.3474
27666SOL    HW285006  10.725   3.342  10.656  0.6353  0.0861 -0.4272
27667SOL     OW85007   1.261   3.113   9.806 -0.0000  0.2213  0.0789
27667SOL    HW185008   1.321   3.096   9.734  0.5772 -0.7845  0.7686
27667SOL    HW285009   1.315   3.151   9.875 -0.5494  1.1842 -0.0088
27668SOL     OW85010   6.102   7.472   9.315  0.1196  0.9275  0.1083
27668SOL    HW185011   6.042   7.430   9.254  0.1663  0.4291  0.3989
27668SOL    HW285012   6.100   7.564   9.291  0.3157  0.7018 -0.7955
27669SOL     OW85013   6.091   1.637   1.274 -0.7486  0.3523  0.7588
27669SOL    HW185014   6.071   1.666   1.185 -1.4782  2.0169  1.4288
27669SOL    HW285015   6.008   1.644   1.321 -0.0189  1.1613  1.9930
27670SOL     OW85016   6.138   2.298   3.296 -0.6371 -0.7252  0.0706
27670SOL    HW185017   6.127   2.203   3.299 -0.6534 -0.7006  0.9680
27670SOL    HW285018   6.057   2.330   3.256 -0.1251 -1.1582 -1.3907
27671SOL     OW85019   9.585   5.385  10.439 -0.1735  0.4022  0.4874
27671SOL    HW185020   9.571   5.340  10.522 -0.5557 -0.7193 -0.1697
27671SOL    HW285021   9.513   5.448  10.433 -1.1253 -0.6731  0.2484
27672SOL     OW85022   8.838   7.452   3.877 -0.0313 -0.0060  0.2618
27672SOL    HW185023   8.800   7.538   3.860 -0.6394 -0.0322  1.3751
27672SOL    HW285024   8.927   7.458   3.843  0.2660  1.4019  1.1926
27673SOL     OW85025   9.687   8.090   0.060  0.3230 -0.0388  0.5443
27673SOL    HW185026   9.659   8.153  -0.007  1.9324  0.4538  0.2845
27673SOL    HW285027   9.661   8.005   0.024  0.6480  0.2636 -0.4457
27674SOL     OW85028   3.057   4.547  10.112  0.0569 -0.0528 -0.0822
27674SOL    HW185029   2.971   4.506  10.125 -0.0419  0.3448  0.5623
27674SOL    HW285030   3.038   4.639  10.094  0.2929 -0.2212 -1.2795
27675SOL     OW85031   1.242   3.244   5.475 -0.1669 -0.5937  0.2129
27675SOL    HW185032   1.186   3.194   5.535 -0.0619 -1.7519 -0.6241
27675SOL    HW285033   1.325   3.197   5.474 -0.2436 -0.7508 -1.0221
27676SOL     OW85034  11.087   9.540   9.793  0.0978 -0.0088  0.1159
27676SOL    HW185035  11.144   9.596   9.739 -0.9968  0.9604 -0.0695
27676SOL    HW285036  11.106   9.568   9.883  0.3395 -0.0975  0.0940
27677SOL     OW85037  10.500   8.272   3.079 -0.1194  1.0135 -0.0172
27677SOL    HW185038  10.415   8.315   3.067 -1.7796 -1.7076  1.0782
27677SOL    HW285039  10.517   8.229   2.995 -1.0829 -0.4020  0.4735
27678SOL     OW85040   9.829   7.694  10.499  0.3129  0.1200 -0.0824
27678SOL    HW185041   9.870   7.672  10.583  2.1991 -2.2069 -1.4791
27678SOL    HW285042   9.784   7.613  10.473  0.4461  0.5303 -1.6833
27679SOL     OW85043   9.838   8.408   4.070  0.1899 -0.1766  0.3141
27679SOL    HW185044   9.788   8.490   4.065 -0.1042 -0.4048 -0.9188
27679SOL    HW285045   9.847   8.391   4.163  0.3756  1.3385  0.5954
27680SOL     OW85046   4.358   0.860   0.479 -0.2688  0.1841  0.5027
27680SOL    HW185047   4.329   0.810   0.554 -0.2075 -2.7427 -1.2686
27680SOL    HW285048   4.291   0.845   0.412  1.4893 -0.4897 -1.2170
27681SOL     OW85049   6.990   1.912  10.937 -0.9660  0.0348 -0.3184
27681SOL    HW185050   7.035   1.882  10.858 -0.2766  2.0616 -0.7669
27681SOL    HW285051   6.969   2.004  10.919  0.3410  0.9586  2.3314
27682SOL     OW85052   0.552   2.063   3.618  0.6868 -0.5461 -0.2737
27682SOL    HW185053   0.620   2.036   3.679 -0.8585  0.2018  1.9054
27682SOL    HW285054   0.546   2.158   3.630 -1.3216 -0.7055  0.2836
27683SOL     OW85055   4.326   6.337   8.708 -0.2210 -0.1570 -0.1745
27683SOL    HW185056   4.406   6.341   8.656 -0.8330  1.3834 -1.0758
27683SOL    HW285057   4.276   6.414   8.681 -1.4415 -0.3758  1.2980
27684SOL     OW85058   3.396   3.758   3.746 -0.1858 -0.3903 -0.8645
27684SOL    HW185059   3.482   3.727   3.773  0.7295  1.9569 -0.8080
27684SOL    HW285060   3.352   3.782   3.828 -2.1601 -4.2148 -0.5840
27685SOL     OW85061   2.584   4.862   3.762  0.5175  0.0760  0.0181
27685SOL    HW185062   2.664   4.840   3.811  0.3074 -3.4155 -0.9403
27685SOL    HW285063   2.616   4.880   3.673  0.3526 -0.2613 -0.1112
27686SOL     OW85064   0.327   5.597   3.720  0.4492  0.5383  0.3815
27686SOL    HW185065   0.243   5.616   3.761  0.6044  1.5941  0.2301
27686SOL    HW285066   0.391   5.642   3.775  0.9235 -0.2452  0.4860
27687SOL     OW85067   9.502   5.187   2.887  0.4929  0.7001 -0.0109
27687SOL    HW185068   9.446   5.188   2.810  0.7550 -0.8383 -0.2648
27687SOL    HW285069   9.468   5.115   2.940  2.8427 -1.0766 -0.7060
27688SOL     OW85070   6.122   9.654  10.487 -0.5382  0.4386  0.1947
27688SOL    HW185071   6.113   9.749  10.495 -0.2376  0.2789  3.6410
27688SOL    HW285072   6.195   9.642  10.426 -0.4735  2.3919 -0.1868
27689SOL     OW85073   4.028   0.989   2.671  0.1968  0.0501  0.1096
27689SOL    HW185074   3.953   0.998   2.612  0.5064 -0.9420 -0.4461
27689SOL    HW285075   4.004   0.919   2.731  0.5071  0.0297  0.2140
27690SOL     OW85076   4.083   1.535  10.222  0.6747  0.3887 -0.4737
27690SOL    HW185077   4.050   1.578  10.300 -0.1137 -0.8420 -0.1054
27690SOL    HW285078   4.004   1.516  10.170  1.0941  0.2373 -1.0653
27691SOL     OW85079   8.826   8.955   1.630 -0.2351  0.1096  0.1096
27691SOL    HW185080   8.736   8.990   1.632 -0.1433  0.3674  1.7404
27691SOL    HW285081   8.877   9.022   1.586 -0.2809  1.5996  2.1569
27692SOL     OW85082  10.047   6.127   9.186  0.6159  0.1850 -0.2151
27692SOL    HW185083  10.036   6.198   9.123 -1.9717  1.0000  0.9967
27692SOL    HW285084   9.975   6.068   9.167  0.7758 -0.3930  0.9220
27693SOL     OW85085   4.720   4.545   4.608 -0.2980  0.5831  0.4472
27693SOL    HW185086   4.757   4.501   4.684  3.7330 -0.1463 -1.6206
27693SOL    HW285087   4.666   4.479   4.565  1.9880 -1.0135 -0.1839
27694SOL     OW85088   0.582   3.392   6.439  0.5794 -0.2893  0.7218
27694SOL    HW185089   0.534   3.345   6.370 -0.0553  1.8088 -0.3339
27694SOL    HW285090   0.606   3.323   6.502 -0.8630 -1.9169 -0.4030
27695SOL     OW85091   3.891   1.480   1.762  0.4870 -0.1203 -0.5898
27695SOL    HW185092   3.811   1.430   1.778 -0.1770  0.7878 -0.9423
27695SOL    HW285093   3.875   1.525   1.679 -1.2250  4.8102  2.0128
27696SOL     OW85094   9.998   2.176  11.016  0.2359  0.2247  0.5196
27696SOL    HW185095   9.914   2.142  11.047  0.8307 -1.1145  0.7172
27696SOL    HW285096  10.031   2.229  11.089 -0.0412  0.0608  0.7649
27697SOL     OW85097   0.302   0.191   8.462 -0.0675  0.6526  0.0533
27697SOL    HW185098   0.232   0.255   8.444 -1.0092  0.0506  1.4402
27697SOL    HW285099   0.283   0.159   8.550  0.3916 -1.5293 -0.5942
27698SOL     OW85100   2.329   7.711   0.897  0.9437  0.4755  0.0585
27698SOL    HW185101   2.274   7.769   0.950  1.6063  0.3640  0.8868
27698SOL    HW285102   2.330   7.628   0.945 -0.8483 -0.6188 -1.6331
27699SOL     OW85103   6.416   6.106   7.845 -0.3819  0.4018  0.4406
27699SOL    HW185104   6.511   6.096   7.854 -0.3110  1.2481  0.6636
27699SOL    HW285105   6.404   6.154   7.763 -0.7699 -2.1306 -1.0943
27700SOL     OW85106  10.848   0.857   5.025  0.1672  0.1191  0.1883
27700SOL    HW185107  10.812   0.941   4.995 -1.2029 -0.5762 -0.1658
27700SOL    HW285108  10.771   0.803   5.044  1.0071 -0.5944  1.7890
27701SOL     OW85109   1.978   9.561   1.021 -0.1520  0.2353 -0.1833
27701SOL    HW185110   1.938   9.496   1.079 -1.4085 -0.1200 -1.4062
27701SOL    HW285111   1.970   9.524   0.933  2.6565  0.2829 -0.5515
27702SOL     OW85112   6.561   3.187   0.127  0.3802  0.3863 -0.4381
27702SOL    HW185113   6.471   3.203   0.155  0.8079 -1.7199  2.6798
27702SOL    HW285114   6.615   3.236   0.189  1.4196  1.0006 -1.7813
27703SOL     OW85115  10.432   6.002  10.010 -0.3113  0.2326 -0.8584
27703SOL    HW185116  10.481   6.015  10.091 -0.8981  0.2253 -0.4965
27703SOL    HW285117  10.347   5.970  10.038 -1.0786  1.7349 -1.3740
27704SOL     OW85118   2.839   5.096   7.464  0.1816 -0.2894 -0.2133
27704SOL    HW185119   2.859   5.078   7.372  1.2607 -0.1529 -0.0245
27704SOL    HW285120   2.769   5.162   7.461  0.3325 -0.1511 -0.9341
27705SOL     OW85121   7.846   2.980   3.062 -0.4826 -0.7820  0.0159
27705SOL    HW185122   7.862   3.025   2.978 -0.5795 -0.8706 -0.0502
27705SOL    HW285123   7.759   3.009   3.089  0.4038  0.9287  1.1587
27706SOL     OW85124   9.324   5.901   9.759  0.1236  0.4714  0.0988
27706SOL    HW185125   9.384   5.976   9.769 -1.4022  1.5978  1.3337
27706SOL    HW285126   9.297   5.880   9.848  0.0301 -1.1774 -0.2943
27707SOL     OW85127   6.822   0.035  10.016 -0.0757 -0.1134  0.2567
27707SOL    HW185128   6.749   0.092   9.992  0.0363  0.0585  0.3226
27707SOL    HW285129   6.849   0.066  10.102 -0.9329 -1.1827  0.9275
27708SOL     OW85130   3.271   9.655   2.104 -0.0179  0.6803  0.3520
27708SOL    HW185131   3.298   9.579   2.155 -2.2305 -0.7880 -0.5187
27708SOL    HW285132   3.269   9.623   2.014 -1.7721  1.5077  0.0648
27709SOL     OW85133   7.494   2.174   1.805  0.7220 -0.2969 -0.2710
27709SOL    HW185134   7.470   2.176   1.898 -0.7758  0.0846 -0.6339
27709SOL    HW285135   7.590   2.170   1.805  0.9212  2.3430  1.2670
27710SOL     OW85136   1.600   3.170   6.704  0.5686 -0.4177  0.4458
27710SOL    HW185137   1.564   3.251   6.667  0.8824  0.0467  1.1386
27710SOL    HW285138   1.603   3.110   6.629 -0.3386 -0.0318  0.0793
27711SOL     OW85139   7.151  10.759   1.938 -0.1027 -0.7841 -0.6619
27711SOL    HW185140   7.167  10.828   2.003 -0.4754 -0.0940 -1.2820
27711SOL    HW285141   7.068  10.720   1.966  1.0560 -2.3355  0.8161
27712SOL     OW85142   1.945   5.233   1.919  0.2165  0.3642 -0.2210
27712SOL    HW185143   1.853   5.257   1.903  0.7744  1.5002 -2.1027
27712SOL    HW285144   1.940   5.156   1.975 -1.8495  1.1263  0.7458
27713SOL     OW85145  10.691   1.995   8.594 -0.8980 -0.2021 -0.1178
27713SOL    HW185146  10.724   1.966   8.679  1.3699 -1.6290 -1.3581
27713SOL    HW285147  10.685   2.091   8.601 -2.5746 -0.4018  2.1597
27714SOL     OW85148   9.102   9.043   9.233  0.1841 -0.1139 -0.3257
27714SOL    HW185149   9.060   9.087   9.307  1.3965  1.2266 -0.3875
27714SOL    HW285150   9.063   8.955   9.232 -2.8400  1.1142 -0.6126
27715SOL     OW85151   0.542  10.487  10.903 -0.1289  0.7060  0.0995
27715SOL    HW185152   0.519  10.578  10.883  0.9170  1.5247  2.2952
27715SOL    HW285153   0.492  10.467  10.982 -1.1888 -1.0442 -0.9560
27716SOL     OW85154   0.942   7.053   9.685 -0.2324 -0.2617  0.3681
27716SOL    HW185155   1.035   7.031   9.677  0.0353  1.0856 -0.6501
27716SOL    HW285156   0.927   7.117   9.615 -1.5469  0.7277  1.5148
27717SOL     OW85157   7.956   5.165   2.765  0.1151  0.1592 -0.3796
27717SOL    HW185158   7.870   5.141   2.800  0.3144  0.0481  0.0421
27717SOL    HW285159   7.950   5.259   2.748 -0.1252  0.1296 -0.4617
27718SOL     OW85160   5.993  10.610   1.066  0.0246 -0.2723  0.9357
27718SOL    HW185161   6.050  10.682   1.040  0.9018 -1.8615 -2.1080
27718SOL    HW285162   5.959  10.575   0.983 -0.9026 -2.8986  2.2878
27719SOL     OW85163   2.907   2.733   3.412 -0.2387 -0.4100 -0.5516
27719SOL    HW185164   2.859   2.812   3.436  1.6696  0.2020  1.5658
27719SOL    HW285165   2.840   2.665   3.409 -1.9837  1.2423 -2.7269
27720SOL     OW85166   9.778   6.403  10.214 -0.1254 -0.0775  0.4829
27720SOL    HW185167   9.753   6.428  10.125 -2.8982  0.4880  1.3304
27720SOL    HW285168   9.835   6.475  10.243 -2.2995  1.8072  0.4180
27721SOL     OW85169  10.912   6.610   3.319  0.2776  0.4631 -0.0742
27721SOL    HW185170  10.824   6.621   3.355 -0.0084 -2.5681  0.4343
27721SOL    HW285171  10.970   6.650   3.384 -0.4393 -2.3556  2.5480
27722SOL     OW85172   7.055   3.101   8.945 -0.2073  0.5080  0.1375
27722SOL    HW185173   7.088   3.141   8.865  0.4702 -2.5428 -1.2485
27722SOL    HW285174   7.129   3.106   9.006  0.2309  0.4422 -0.3797
27723SOL     OW85175   1.077   4.249   3.637 -0.5375 -0.0337 -0.1565
27723SOL    HW185176   1.014   4.321   3.631 -0.8174 -0.3526 -1.4544
27723SOL    HW285177   1.029   4.178   3.680 -0.6091  0.1831  0.1264
27724SOL     OW85178   3.594   8.478   1.520 -0.5120  0.3638  0.0249
27724SOL    HW185179   3.604   8.383   1.528  0.7528  0.4902  0.0410
27724SOL    HW285180   3.571   8.506   1.609  0.0914  0.1865  0.2391
27725SOL     OW85181   9.236   9.724   9.135 -0.6208  0.0106 -0.4106
27725SOL    HW185182   9.238   9.697   9.226  1.8657 -1.8351 -0.8763
27725SOL    HW285183   9.169   9.669   9.095 -0.7399 -0.1788  0.0467
27726SOL     OW85184   0.779   9.924   6.703 -0.1990 -0.2151 -0.2125
27726SOL    HW185185   0.811   9.968   6.624 -0.4256 -3.3913 -2.2553
27726SOL    HW285186   0.825   9.840   6.704 -2.2549 -1.4292  1.5185
27727SOL     OW85187   5.948   8.660   2.113 -0.0704 -0.8130  0.1972
27727SOL    HW185188   6.016   8.678   2.178  0.7763 -2.4827 -0.1772
27727SOL    HW285189   5.890   8.736   2.117  1.6775  0.5608  0.7146
27728SOL     OW85190   9.232   0.864   1.646  0.0465  0.2648 -0.1926
27728SOL    HW185191   9.211   0.938   1.589 -0.0384 -0.3452 -0.9754
27728SOL    HW285192   9.173   0.874   1.720 -0.8269  0.3181 -0.8742
27729SOL     OW85193   4.489   1.220   4.615  0.0247  0.3662  0.8350
27729SOL    HW185194   4.476   1.285   4.685 -0.6819 -1.0494  2.0786
27729SOL    HW285195   4.492   1.136   4.661  0.3244 -0.5455 -0.7870
27730SOL     OW85196  10.136   4.515   7.830 -0.0923 -0.5538  0.5224
27730SOL    HW185197  10.083   4.561   7.895 -1.3770  1.5991 -1.8983
27730SOL    HW285198  10.224   4.553   7.840 -0.1666 -0.5684  1.2725
27731SOL     OW85199   4.886  10.155   2.657  0.8385 -0.1113  0.4184
27731SOL    HW185200   4.968  10.193   2.627  1.9331 -3.1453 -0.8178
27731SOL    HW285201   4.835  10.142   2.578  1.3461 -2.8735  0.4451
27732SOL     OW85202   6.918   1.272   0.589  0.1605 -0.1233  0.3185
27732SOL    HW185203   6.985   1.280   0.520  1.8704 -2.5642  1.5752
27732SOL    HW285204   6.845   1.227   0.546  0.1152  0.7094 -0.5276
27733SOL     OW85205   8.496   9.762   0.636 -0.3184  0.0426 -0.3707
27733SOL    HW185206   8.469   9.849   0.609 -0.7764 -0.7261 -2.6220
27733SOL    HW285207   8.576   9.745   0.586 -0.5354 -1.0220 -0.3853
27734SOL     OW85208   7.845   9.062   3.123  0.0426 -0.6491  0.1600
27734SOL    HW185209   7.758   9.066   3.163 -0.1609  1.5939 -0.3313
27734SOL    HW285210   7.883   8.981   3.156 -2.0180 -1.4127  0.8287
27735SOL     OW85211   6.468   8.107   9.101 -0.4743 -0.0249  0.3121
27735SOL    HW185212   6.389   8.107   9.155 -0.2681  1.4002  0.6616
27735SOL    HW285213   6.518   8.184   9.131 -0.1860  0.6133 -1.6454
27736SOL     OW85214   2.687   9.168   1.747  0.2391  0.4415  0.1111
27736SOL    HW185215   2.630   9.173   1.823  0.2212 -2.0376  0.3619
27736SOL    HW285216   2.638   9.115   1.684  2.0893 -1.6233  0.2674
27737SOL     OW85217   5.480   8.650   9.072  0.0803 -0.2527 -0.0230
27737SOL    HW185218   5.479   8.709   9.147  2.1210  0.4885 -0.5183
27737SOL    HW285219   5.397   8.603   9.077  0.6115 -1.0675  3.3485
27738SOL     OW85220   1.059   1.763   4.573  0.3442  0.2534 -0.5755
27738SOL    HW185221   1.032   1.710   4.498  0.0148  0.0848 -0.3421
27738SOL    HW285222   1.087   1.699   4.638  0.5661  0.3964 -0.5307
27739SOL     OW85223   0.835   8.878   5.617  0.8444  0.1857  0.5054
27739SOL    HW185224   0.875   8.965   5.614  0.1129  0.6277  2.1406
27739SOL    HW285225   0.858   8.845   5.704 -0.0820 -0.6468  0.4466
27740SOL     OW85226   6.844   3.039   6.673 -0.1590 -0.4446 -0.1288
27740SOL    HW185227   6.888   3.124   6.681 -3.0416  1.1307  0.5316
27740SOL    HW285228   6.813   3.037   6.583  0.5730 -1.2131 -0.3778
27741SOL     OW85229   7.591   6.112   6.225  0.4435 -0.1308  0.2963
27741SOL    HW185230   7.680   6.107   6.260 -0.1655  2.7201  2.5732
27741SOL    HW285231   7.559   6.198   6.251 -2.0440  0.1132 -2.9146
27742SOL     OW85232   7.266   2.529   1.104 -0.0249 -0.3347 -0.4756
27742SOL    HW185233   7.319   2.609   1.098 -0.5466  0.1173  0.5864
27742SOL    HW285234   7.177   2.561   1.118 -0.0700 -1.0786  1.1679
27743SOL     OW85235   6.608   8.917   5.036 -0.6312  0.1020  0.4459
27743SOL    HW185236   6.650   8.862   4.970 -1.4978  0.7090 -0.6271
27743SOL    HW285237   6.515   8.914   5.014 -1.2140 -1.1462  2.7106
27744SOL     OW85238   6.485   1.134   9.667  0.3843 -0.3839 -0.0680
27744SOL    HW185239   6.496   1.229   9.662  1.8726 -0.4082  1.7898
27744SOL    HW285240   6.449   1.110   9.581 -1.4264  1.9893 -0.0911
27745SOL     OW85241   9.930   2.855   2.757  0.0786  0.0502  0.3634
27745SOL    HW185242   9.964   2.800   2.828  1.0995 -0.5973 -0.5966
27745SOL    HW285243   9.973   2.822   2.678  0.0635  1.6673 -0.3661
27746SOL     OW85244   4.943   1.558   4.173  0.0534 -0.3163 -0.4363
27746SOL    HW185245   4.916   1.468   4.152  1.5637 -0.4618 -2.0319
27746SOL    HW285246   5.000   1.549   4.249 -1.0175 -0.4911  0.3711
27747SOL     OW85247   5.555   8.024  11.048 -0.0969  0.1711 -0.7272
27747SOL    HW185248   5.462   8.006  11.055  0.2234 -2.1648 -1.6760
27747SOL    HW285249   5.589   7.953  10.993  2.1874  1.1365 -0.6584
27748SOL     OW85250   7.927   2.651   9.692 -0.2440  0.0118  1.2256
27748SOL    HW185251   7.874   2.721   9.730 -1.6847 -0.0655 -0.4852
27748SOL    HW285252   7.950   2.595   9.766  0.2948  1.8451  2.5223
27749SOL     OW85253   2.998   9.095   6.689  0.3564  0.1919  0.7730
27749SOL    HW185254   2.917   9.073   6.735  1.8468 -1.7806  2.7039
27749SOL    HW285255   2.985   9.184   6.658 -2.9161 -0.4328  0.0613
27750SOL     OW85256  10.628   0.866   0.169  0.0604  0.2366 -0.1293
27750SOL    HW185257  10.556   0.869   0.232  1.6301  1.1850  1.6922
27750SOL    HW285258  10.585   0.854   0.084 -2.1999  0.3035  0.9482
27751SOL     OW85259   3.144   0.606   2.498 -0.5709  0.7271  0.3256
27751SOL    HW185260   3.221   0.557   2.469 -0.4611  2.3644 -2.4534
27751SOL    HW285261   3.173   0.653   2.576  0.2184 -1.1859  1.2292
27752SOL     OW85262   8.457   0.401   0.602 -0.5007 -0.2568 -0.0830
27752SOL    HW185263   8.367   0.430   0.617  0.6457  3.7879  0.2392
27752SOL    HW285264   8.474   0.424   0.511  0.6008  0.4646  0.2850
27753SOL     OW85265   9.562  10.900  10.486  0.0337 -0.0770  0.3145
27753SOL    HW185266   9.586  10.808  10.483 -1.5565 -0.4900 -1.2802
27753SOL    HW285267   9.608  10.939  10.411 -1.4478 -0.1836 -0.6916
27754SOL     OW85268   9.284   9.578   3.073  0.1983 -0.7443 -0.0300
27754SOL    HW185269   9.329   9.581   2.988  1.2326 -2.1315  0.4251
27754SOL    HW285270   9.352   9.601   3.137 -0.5078  0.0545  0.4558
27755SOL     OW85271   0.618   5.171   6.749  0.0326  0.4888  0.5450
27755SOL    HW185272   0.656   5.211   6.671 -1.2487  1.0977  0.2003
27755SOL    HW285273   0.687   5.115   6.784  1.6692  2.4931  0.6864
27756SOL     OW85274   3.496   5.139   1.552 -0.1144  0.5484  0.3943
27756SOL    HW185275   3.435   5.080   1.597  1.0759 -0.1566  1.1324
27756SOL    HW285276   3.516   5.095   1.470 -1.6085  1.4218 -0.4815
27757SOL     OW85277   3.493   3.592   8.717  0.5326 -0.0365 -0.7410
27757SOL    HW185278   3.557   3.594   8.645  2.2260 -0.0296  0.7080
27757SOL    HW285279   3.469   3.684   8.730  1.6963  0.1845 -0.0564
27758SOL     OW85280   1.662   3.300   5.456  0.2482  0.6937 -0.0180
27758SOL    HW185281   1.711   3.249   5.392  0.5483  3.1279 -1.9220
27758SOL    HW285282   1.727   3.324   5.523  0.6553  0.4544 -0.3242
27759SOL     OW85283   6.909   8.942   1.450 -0.3003 -0.3926 -0.4081
27759SOL    HW185284   6.981   8.885   1.478 -0.1434 -0.6683 -1.3453
27759SOL    HW285285   6.834   8.883   1.442 -0.4740 -0.2187 -0.0431
27760SOL     OW85286   5.575   3.277   7.880 -0.1191  0.6014 -0.3533
27760SOL    HW185287   5.522   3.338   7.930 -0.9437 -0.4177  0.0382
27760SOL    HW285288   5.659   3.274   7.927 -0.6909  0.0808  0.6456
27761SOL     OW85289   6.482   4.671   2.110 -0.1736  0.3690  0.4134
27761SOL    HW185290   6.403   4.618   2.116  1.3338 -2.0226  0.6613
27761SOL    HW285291   6.481   4.706   2.021 -2.8033  2.7384  1.2403
27762SOL     OW85292   4.289   7.773   5.433  0.1459 -0.1249  0.0618
27762SOL    HW185293   4.318   7.785   5.343 -0.4271 -0.9868 -0.2472
27762SOL    HW285294   4.295   7.860   5.472  0.3944  0.2542 -0.8024
27763SOL     OW85295   8.885   2.447   8.141  0.2973  0.2270 -0.4261
27763SOL    HW185296   8.877   2.482   8.230 -1.2813 -0.4341 -0.2742
27763SOL    HW285297   8.868   2.353   8.151 -0.2816  0.2079 -1.4809
27764SOL     OW85298  10.937   0.132  10.861 -0.0247 -0.9021  0.0157
27764SOL    HW185299  10.977   0.119  10.775  1.1190 -1.6730  0.6495
27764SOL    HW285300  10.905   0.045  10.885 -3.4956 -0.1057 -1.0977
27765SOL     OW85301   5.151   2.546   6.392  0.6654 -0.2427 -0.2766
27765SOL    HW185302   5.157   2.454   6.419  0.7886  0.3387  1.9364
27765SOL    HW285303   5.239   2.567   6.359  0.1342 -1.3576 -2.5514
27766SOL     OW85304   8.781   0.177   5.162  0.1324 -0.2835 -0.0813
27766SOL    HW185305   8.824   0.099   5.199  0.4051 -0.7337 -1.2930
27766SOL    HW285306   8.848   0.246   5.168  1.0936 -0.9767 -1.9449
27767SOL     OW85307   5.278   9.023   3.587  0.1029  0.8404 -0.3245
27767SOL    HW185308   5.220   8.957   3.627  0.2892  1.9061  1.8690
27767SOL    HW285309   5.220   9.074   3.532 -0.2201 -0.5738 -1.3570
27768SOL     OW85310   5.335   3.311   5.205 -0.4094 -0.4504  0.1005
27768SOL    HW185311   5.285   3.230   5.217 -1.1503  0.0690  0.5975
27768SOL    HW285312   5.426   3.282   5.203 -0.7441 -1.5097 -1.7136
27769SOL     OW85313   0.481   8.734   3.089 -0.6089 -0.1820  0.2970
27769SOL    HW185314   0.560   8.788   3.075 -0.2941 -0.6993  0.0208
27769SOL    HW285315   0.408   8.795   3.081 -0.4185 -0.2019 -2.7303
27770SOL     OW85316   9.790   3.772   1.286  0.0927  0.2305  0.4925
27770SOL    HW185317   9.782   3.735   1.374  3.2507  0.3160  0.9607
27770SOL    HW285318   9.779   3.697   1.227 -1.8729  0.1429  0.9253
27771SOL     OW85319  10.484   8.068   7.923  0.2607  0.7194 -0.0024
27771SOL    HW185320  10.461   8.023   8.004  0.0247 -0.4951 -0.7118
27771SOL    HW285321  10.508   8.156   7.950  1.0373  0.0830  1.4759
27772SOL     OW85322   9.223   4.168   0.088  0.7468 -0.6483  0.2643
27772SOL    HW185323   9.159   4.200   0.152  0.4241  1.4172 -1.0056
27772SOL    HW285324   9.308   4.192   0.125  0.6149 -0.3583  0.3779
27773SOL     OW85325   5.282   0.932   9.455 -0.0378 -0.0897 -0.2778
27773SOL    HW185326   5.321   0.962   9.373  0.1975 -2.2000 -1.0145
27773SOL    HW285327   5.357   0.916   9.513  0.1999 -2.7851 -1.2084
27774SOL     OW85328   2.621   7.225   2.341  0.5761  0.7853  0.0554
27774SOL    HW185329   2.600   7.248   2.432 -1.6602  0.3846 -0.2980
27774SOL    HW285330   2.573   7.289   2.289 -1.8241 -1.5579 -0.8579
27775SOL     OW85331   0.122   0.149   7.320 -0.8567 -0.8726  0.6086
27775SOL    HW185332   0.121   0.118   7.410 -0.8294  0.3137  1.0276
27775SOL    HW285333   0.065   0.225   7.320 -0.2536 -0.4074 -0.2064
27776SOL     OW85334  10.629   2.665   1.219 -0.0254  0.1418  0.2479
27776SOL    HW185335  10.716   2.624   1.223  0.4869  1.2109  0.3549
27776SOL    HW285336  10.574   2.608   1.274  0.3619 -1.0799 -0.5887
27777SOL     OW85337   5.775  10.152   0.850  0.1966 -0.9050 -0.8008
27777SOL    HW185338   5.846  10.181   0.908 -0.1798 -1.4434 -0.0472
27777SOL    HW285339   5.781  10.209   0.774  0.1006  0.4656  0.1887
27778SOL     OW85340   7.402   2.044  11.014 -0.4084  0.3210 -0.2527
27778SOL    HW185341   7.378   2.124  10.967 -0.4568  0.0323 -0.7231
27778SOL    HW285342   7.362   2.054  11.100 -1.7747  0.0916 -0.8319
27779SOL     OW85343   7.819  10.275   8.876  0.0361  0.2761 -0.2016
27779SOL    HW185344   7.734  10.315   8.891  0.0246  0.2539 -0.2065
27779SOL    HW285345   7.817  10.194   8.927 -1.0621 -1.2028 -2.4332
27780SOL     OW85346   0.404  10.413   8.035  0.1005 -0.4953 -0.4286
27780SOL    HW185347   0.468  10.436   8.102  1.9680 -0.4588 -2.1474
27780SOL    HW285348   0.364  10.497   8.011  0.7741 -0.2467 -0.6892
27781SOL     OW85349   7.139   1.930   9.925  0.0094  0.4279  0.2129
27781SOL    HW185350   7.127   2.006   9.868 -0.1845 -0.2683 -0.6930
27781SOL    HW285351   7.209   1.956   9.984  1.8753  0.3453 -1.8366
27782SOL     OW85352  10.758  10.916   5.204  1.0296  0.1229  0.9685
27782SOL    HW185353  10.746  11.004   5.238  2.9567  0.5674  0.6459
27782SOL    HW285354  10.853  10.906   5.195  0.7869 -0.6719 -2.3101
27783SOL     OW85355   1.362   6.041   1.856  0.1331 -0.3597  0.0103
27783SOL    HW185356   1.272   6.058   1.885  0.3044 -0.7678  0.8391
27783SOL    HW285357   1.416   6.072   1.929  0.8464  2.2840 -1.5162
27784SOL     OW85358   8.317   9.257   1.720  0.0390 -0.3055  0.4272
27784SOL    HW185359   8.258   9.318   1.676  0.3889 -0.6345 -0.5314
27784SOL    HW285360   8.311   9.279   1.812  0.6259  1.5868  0.0523
27785SOL     OW85361   4.815   6.941  10.716 -0.3509 -0.3031  0.5313
27785SOL    HW185362   4.778   6.967  10.631 -0.6624  0.9173  1.0203
27785SOL    HW285363   4.773   6.998  10.779 -0.9307 -1.9224  1.6769
27786SOL     OW85364   0.497   2.375   7.270  0.0304 -0.0972 -0.0976
27786SOL    HW185365   0.572   2.420   7.309 -1.4348  0.6190  2.0820
27786SOL    HW285366   0.534   2.294   7.234  1.8691  0.2755  0.8407
27787SOL     OW85367   1.935   4.339   2.967 -0.0100 -0.1670  0.1305
27787SOL    HW185368   1.931   4.435   2.968 -4.5930 -0.0546 -1.8860
27787SOL    HW285369   1.907   4.313   3.055 -0.3104  0.4295  0.2205
27788SOL     OW85370   5.676   3.427   1.937  0.1656  1.1534 -0.4568
27788SOL    HW185371   5.601   3.439   1.996  0.9154 -0.4944  0.9271
27788SOL    HW285372   5.708   3.339   1.958  0.2115  0.2772 -3.6834
27789SOL     OW85373   7.774   2.124   5.516  0.7606 -0.3825 -0.2603
27789SOL    HW185374   7.819   2.190   5.464 -1.3663 -0.1399 -1.9215
27789SOL    HW285375   7.769   2.162   5.604 -1.6693  2.4404 -1.4729
27790SOL     OW85376   8.915   9.807   7.645 -0.0955 -0.1600 -0.7959
27790SOL    HW185377   8.919   9.878   7.709  2.1608 -3.0289  2.6348
27790SOL    HW285378   8.921   9.851   7.560  0.3015  3.7585  1.0378
27791SOL     OW85379   9.648   6.163   2.334 -0.3175 -0.3257  0.1047
27791SOL    HW185380   9.676   6.075   2.309  0.1327  0.0694 -0.7909
27791SOL    HW285381   9.723   6.198   2.382 -0.6457 -0.5584  0.8117
27792SOL     OW85382   6.457   9.032   3.649 -0.2306 -0.0772  0.2045
27792SOL    HW185383   6.523   8.971   3.616  2.4266  2.2078  0.9000
27792SOL    HW285384   6.505   9.089   3.710 -3.1991  0.8316  1.9061
27793SOL     OW85385   1.226   5.050   4.085  0.2372 -0.6159  0.2645
27793SOL    HW185386   1.297   5.084   4.031  1.3749  1.2858  2.7411
27793SOL    HW285387   1.149   5.098   4.056  1.0474  1.2308  0.9600
27794SOL     OW85388   3.614   0.809   2.317  0.1226 -0.3208 -0.0927
27794SOL    HW185389   3.545   0.865   2.282 -0.2562  0.4883  1.8452
27794SOL    HW285390   3.689   0.824   2.259 -0.1225  1.8518  0.0689
27795SOL     OW85391   5.275   0.970   5.354  0.1125 -0.0258 -0.4307
27795SOL    HW185392   5.247   0.891   5.400 -0.6778  0.9632  0.8679
27795SOL    HW285393   5.371   0.967   5.359  0.1828 -1.6449 -1.7739
27796SOL     OW85394   4.884  10.853   1.669 -0.6525  0.0681 -0.1356
27796SOL    HW185395   4.902  10.825   1.759  0.2847 -1.6242 -0.7965
27796SOL    HW285396   4.923  10.784   1.615  0.0351  1.7417 -1.8792
27797SOL     OW85397   8.530   0.987   5.991 -0.1927  0.0296  0.3979
27797SOL    HW185398   8.528   1.067   6.042  2.1796  0.2292  0.2963
27797SOL    HW285399   8.609   0.995   5.937  0.0096 -2.2786  0.2450
27798SOL     OW85400   9.395   8.481  10.741 -0.3847  0.1632 -0.4095
27798SOL    HW185401   9.302   8.503  10.734 -0.5340 -0.5596 -0.7369
27798SOL    HW285402   9.438   8.540  10.679 -0.4428  1.5065  0.7675
27799SOL     OW85403  10.361   5.892   2.027 -0.3980  0.3339 -0.7040
27799SOL    HW185404  10.288   5.851   2.073  0.5017 -0.1773  0.3254
27799SOL    HW285405  10.329   5.978   2.001 -0.6597  1.0739  1.7809
27800SOL     OW85406   8.647   7.621  10.583 -0.0565  0.4235  0.6872
27800SOL    HW185407   8.721   7.648  10.529  0.1904 -2.9245 -0.9035
27800SOL    HW285408   8.572   7.667  10.546  0.5314  0.2403 -0.7894
27801SOL     OW85409   1.421   4.925   8.763 -0.5673  0.0497 -0.7640
27801SOL    HW185410   1.425   4.851   8.703  2.7302 -0.0657 -0.5464
27801SOL    HW285411   1.385   4.889   8.844  0.5063 -1.1992 -0.8269
27802SOL     OW85412   6.923   4.477   4.776  0.3182 -0.2234  0.2405
27802SOL    HW185413   6.847   4.481   4.719 -0.1082 -1.5421  0.6840
27802SOL    HW285414   6.898   4.418   4.846  1.6502 -0.4779  0.5410
27803SOL     OW85415   0.414   9.338  10.389  0.4199 -0.2542 -0.5050
27803SOL    HW185416   0.412   9.434  10.381  0.0934 -0.3042 -1.0555
27803SOL    HW285417   0.411   9.322  10.483  2.8927  0.3345 -0.2395
27804SOL     OW85418   6.044   5.673   1.350 -0.0464  0.0170  0.1190
27804SOL    HW185419   5.996   5.713   1.277 -0.2424  0.5369  0.5285
27804SOL    HW285420   5.976   5.637   1.407 -0.0192  1.3717  1.0630
27805SOL     OW85421   1.875   3.239   8.952  0.2336  0.1032  0.4464
27805SOL    HW185422   1.950   3.299   8.956 -0.5119  1.1273 -0.3150
27805SOL    HW285423   1.806   3.284   9.000  0.1616 -0.9643  1.3834
27806SOL     OW85424   3.926   3.175   5.829  0.0125 -1.1913 -0.6815
27806SOL    HW185425   3.909   3.235   5.756  0.0445  1.2451  1.1662
27806SOL    HW285426   3.979   3.226   5.890  2.0935 -3.9561 -0.0034
27807SOL     OW85427   0.672   6.074   7.494  0.2835 -0.2374 -0.3873
27807SOL    HW185428   0.695   6.048   7.405  2.2966  3.6194 -1.2099
27807SOL    HW285429   0.614   6.150   7.483 -0.3314 -0.3386  1.6360
27808SOL     OW85430   7.018   4.500   5.090  0.4694 -0.0468  0.0652
27808SOL    HW185431   7.013   4.569   5.024  0.5610 -0.2715 -0.1817
27808SOL    HW285432   7.112   4.484   5.100  0.4438 -0.2158  0.0357
27809SOL     OW85433   6.464   3.180   6.520 -0.9720 -0.0324  1.3075
27809SOL    HW185434   6.553   3.163   6.489 -1.1437  0.6418  0.4152
27809SOL    HW285435   6.471   3.261   6.570 -0.8430 -0.7113  2.4396
27810SOL     OW85436   0.258   0.203   8.169  0.4663  0.4227  0.5586
27810SOL    HW185437   0.311   0.145   8.115  0.0719  0.5234  0.0500
27810SOL    HW285438   0.286   0.186   8.258  1.5187  0.6549  0.2815
27811SOL     OW85439   9.747   0.614   0.663 -0.0855  0.2357  0.1012
27811SOL    HW185440   9.831   0.572   0.678 -1.0600 -1.8690  0.0274
27811SOL    HW285441   9.682   0.549   0.690 -1.7030  1.2255 -1.1753
27812SOL     OW85442   8.953  10.699   5.555 -0.3630  0.0520  0.2870
27812SOL    HW185443   9.007  10.625   5.582  1.7535  0.6746 -1.9068
27812SOL    HW285444   8.875  10.693   5.610 -0.1551 -3.5903  0.4168
27813SOL     OW85445   8.906   4.054   4.225 -0.5179  0.6568  0.0189
27813SOL    HW185446   8.882   3.971   4.184 -0.5417  0.3512  0.6363
27813SOL    HW285447   8.934   4.109   4.152  0.5586 -0.2518 -0.3011
27814SOL     OW85448   6.408   1.079   7.233 -0.6333 -0.0905 -0.8938
27814SOL    HW185449   6.426   1.036   7.316 -0.3344 -0.5640 -1.1963
27814SOL    HW285450   6.315   1.100   7.236 -0.0577  2.6780  0.8276
27815SOL     OW85451   0.715  10.725   6.023 -0.0677 -0.5854  0.6431
27815SOL    HW185452   0.789  10.687   5.975 -1.0219  0.0427 -1.4723
27815SOL    HW285453   0.734  10.819   6.028 -2.3201  0.3370 -3.4629
27816SOL     OW85454   8.513   3.009   9.125 -0.0941 -0.8489 -0.5514
27816SOL    HW185455   8.439   3.022   9.067 -0.9819  0.4087  0.7674
27816SOL    HW285456   8.474   2.996   9.212  1.1810  0.7091  0.3307
27817SOL     OW85457   7.231   8.800   5.505 -0.6585  0.0954  0.2770
27817SOL    HW185458   7.299   8.838   5.560 -2.4609  2.4588  1.0545
27817SOL    HW285459   7.187   8.876   5.466 -3.0034 -1.2980  0.0363
27818SOL     OW85460   7.496   1.663   0.997  0.2142 -0.0939  0.0200
27818SOL    HW185461   7.555   1.702   1.062  0.0202 -0.4825  0.4371
27818SOL    HW285462   7.486   1.572   1.026 -0.5598 -0.0408 -0.0656
27819SOL     OW85463   1.042   9.094  10.212  0.2286  0.4716  0.6435
27819SOL    HW185464   1.121   9.112  10.161  0.2047 -0.3599  0.2964
27819SOL    HW285465   1.068   9.023  10.271 -0.0123  0.8040  1.1600
27820SOL     OW85466  10.241   3.732   6.732 -0.5919  0.2242 -0.0041
27820SOL    HW185467  10.289   3.808   6.700  0.6012 -1.1764 -1.6815
27820SOL    HW285468  10.149   3.753   6.715 -0.1175  0.2546 -2.8827
27821SOL     OW85469   1.672   2.346   8.572  0.3730  0.6421 -0.1982
27821SOL    HW185470   1.613   2.419   8.552  0.8837  0.3293 -3.3288
27821SOL    HW285471   1.637   2.273   8.522 -0.9158 -1.8696  3.8674
27822SOL     OW85472   9.589   0.871  10.864  0.2278  0.4697  1.0143
27822SOL    HW185473   9.673   0.831  10.842  0.7536  1.3636  1.3384
27822SOL    HW285474   9.527   0.798  10.867  0.4983  0.0629 -1.4637
27823SOL     OW85475   6.714  10.414  10.177  0.2584  0.0318 -0.2306
27823SOL    HW185476   6.790  10.361  10.202  1.3458  0.7601 -1.7937
27823SOL    HW285477   6.694  10.387  10.088 -1.6381 -0.4523  0.3067
27824SOL     OW85478   6.085   5.371   2.242  0.0472 -0.1729 -0.5627
27824SOL    HW185479   6.167   5.380   2.290  0.2437  0.2378 -0.9696
27824SOL    HW285480   6.098   5.294   2.186  0.9014  1.0073 -2.0677
27825SOL     OW85481   9.669   2.988   8.465  0.4334  0.0904 -0.0911
27825SOL    HW185482   9.744   3.043   8.443  0.1525 -0.2253 -1.9320
27825SOL    HW285483   9.612   2.992   8.388 -1.6460  0.6123  1.3537
27826SOL     OW85484   2.901   6.857   9.112 -0.1056 -0.6099 -0.2163
27826SOL    HW185485   2.910   6.857   9.017 -0.0789 -1.2800 -0.2182
27826SOL    HW285486   2.856   6.939   9.132 -0.5586 -0.6954 -0.8501
27827SOL     OW85487   8.791   6.698   4.077 -0.0419 -0.0724 -0.1283
27827SOL    HW185488   8.838   6.759   4.020 -1.1444 -0.9278 -2.0443
27827SOL    HW285489   8.834   6.614   4.062 -0.7844 -0.4379 -0.2492
27828SOL     OW85490  10.076   8.215   5.115 -0.6616 -0.1785 -0.0499
27828SOL    HW185491  10.154   8.226   5.171  0.3379 -2.6813 -0.8053
27828SOL    HW285492  10.108   8.164   5.041 -2.9913 -1.0284 -0.5258
27829SOL     OW85493   9.898   2.308   7.205  0.3961 -0.1188  0.0897
27829SOL    HW185494   9.929   2.380   7.260 -2.6839  1.4508 -0.0534
27829SOL    HW285495   9.885   2.236   7.265  2.2824 -0.2368  0.4420
27830SOL     OW85496   4.510  11.101   3.143 -0.4501  0.3557  0.5231
27830SOL    HW185497   4.558  11.049   3.207  0.4495  2.0701  1.2928
27830SOL    HW285498   4.446  11.040   3.106  1.3574 -1.6321  0.4675
27831SOL     OW85499   4.672   1.985   9.382 -0.2606 -0.0116 -0.0429
27831SOL    HW185500   4.599   1.943   9.337  0.2852 -0.5112 -0.4785
27831SOL    HW285501   4.695   1.924   9.452  0.2958 -0.2828 -0.4510
27832SOL     OW85502   4.385   2.791   2.483  0.0231 -0.3098  0.2910
27832SOL    HW185503   4.295   2.824   2.479 -1.1793 -2.3358  4.2755
27832SOL    HW285504   4.433   2.856   2.534  0.4510  0.0676 -0.5769
27833SOL     OW85505   4.173   6.211   5.909  0.0438 -0.6483 -0.1795
27833SOL    HW185506   4.110   6.138   5.915  1.5544 -2.0746 -0.8307
27833SOL    HW285507   4.243   6.177   5.853  1.9239  0.4806  1.3773
27834SOL     OW85508   2.902   3.077   0.681 -0.5764 -0.1738 -0.1173
27834SOL    HW185509   2.814   3.108   0.701  0.2072  1.5840  0.9402
27834SOL    HW285510   2.944   3.070   0.767  0.2510 -1.1972 -0.5911
27835SOL     OW85511   2.847   1.996   4.314  0.1967  0.0252  0.2653
27835SOL    HW185512   2.929   2.037   4.286 -0.0235  1.7036  1.8919
27835SOL    HW285513   2.874   1.927   4.374  0.4770 -1.0660 -1.0498
27836SOL     OW85514   5.381   9.475   2.049  0.7893  0.3974  0.4564
27836SOL    HW185515   5.322   9.543   2.080  1.8923  1.7499 -0.3395
27836SOL    HW285516   5.466   9.517   2.042  1.7850 -1.3786  1.0986
27837SOL     OW85517   5.704   1.785   0.108  0.0647  0.0690 -0.2199
27837SOL    HW185518   5.683   1.710   0.052 -0.2528 -0.6633  0.8510
27837SOL    HW285519   5.799   1.792   0.103  0.3690 -1.8721  1.4260
27838SOL     OW85520   5.856   4.480   2.694  0.2220  0.1117  0.0504
27838SOL    HW185521   5.876   4.398   2.649  0.1789 -1.1111  2.1598
27838SOL    HW285522   5.787   4.457   2.757  1.0589  1.4765  1.5306
27839SOL     OW85523   9.400   4.928   4.637 -0.0678 -0.3412 -0.0017
27839SOL    HW185524   9.398   5.022   4.620 -0.9588 -0.0936  1.3336
27839SOL    HW285525   9.363   4.918   4.725 -0.2733 -1.9686 -0.2360
27840SOL     OW85526   2.090   9.566   3.072 -0.4251 -0.3338 -0.0829
27840SOL    HW185527   2.114   9.659   3.074  1.0413 -0.6518 -1.3807
27840SOL    HW285528   2.145   9.528   3.004 -0.6060 -2.2805  0.7800
27841SOL     OW85529   2.101  10.914   7.531 -0.1797  0.3864 -0.1460
27841SOL    HW185530   2.076  11.007   7.528 -1.2483  0.0898 -1.6888
27841SOL    HW285531   2.062  10.876   7.453 -1.6213 -1.8475  1.5360
27842SOL     OW85532   2.744   4.523   7.561 -0.2826 -0.6409 -0.3527
27842SOL    HW185533   2.665   4.487   7.520 -1.8633  2.5466 -0.4172
27842SOL    HW285534   2.722   4.528   7.654 -1.3719  2.6371 -0.6506
27843SOL     OW85535   8.602   2.359   1.419 -0.7727  0.1650  0.2002
27843SOL    HW185536   8.644   2.409   1.489  0.4560  1.2803 -1.2545
27843SOL    HW285537   8.559   2.425   1.365  0.6996 -0.2879 -1.6429
27844SOL     OW85538   8.928   6.871   4.410  0.4295  0.0684  1.1671
27844SOL    HW185539   8.833   6.870   4.398  0.2876  0.8580  2.0145
27844SOL    HW285540   8.960   6.792   4.367 -0.2396  1.3362 -1.9736
27845SOL     OW85541   9.265   5.859   6.498  0.0752 -0.8679 -0.3191
27845SOL    HW185542   9.232   5.777   6.535  1.7466 -0.9315  1.1744
27845SOL    HW285543   9.357   5.862   6.525 -0.2963  2.2674  1.0640
27846SOL     OW85544   6.364   8.505   9.537 -0.4511 -0.1981  0.1835
27846SOL    HW185545   6.440   8.565   9.533  0.5125 -1.4639 -1.1856
27846SOL    HW285546   6.374   8.461   9.621 -0.6291  0.8267  0.7666
27847SOL     OW85547   9.424  10.778   6.770  0.2803 -0.2499  0.3747
27847SOL    HW185548   9.388  10.721   6.838 -0.6799  0.3129  0.3583
27847SOL    HW285549   9.350  10.796   6.712  0.7817  0.3067 -0.1060
27848SOL     OW85550  10.762   6.874   4.127 -0.0610  0.3236  0.8278
27848SOL    HW185551  10.829   6.849   4.063 -1.4354 -0.9472 -0.1776
27848SOL    HW285552  10.791   6.834   4.209  1.0894  0.9545  0.7595
27849SOL     OW85553   4.403   5.946   1.900 -0.0294 -0.4115  0.5662
27849SOL    HW185554   4.366   5.871   1.946 -0.6350  0.7898  2.1538
27849SOL    HW285555   4.326   6.001   1.880  0.6331  1.4101  2.5758
27850SOL     OW85556   6.676   7.687   7.885  0.3311 -0.0286  0.4370
27850SOL    HW185557   6.680   7.600   7.924 -0.0624 -0.0573  0.4243
27850SOL    HW285558   6.700   7.746   7.957 -0.7961 -0.0530  0.8568
27851SOL     OW85559   2.468   8.784   2.147  0.1802 -0.3029  0.4234
27851SOL    HW185560   2.416   8.780   2.227  1.3425  0.4531  1.2609
27851SOL    HW285561   2.430   8.856   2.097 -2.4042 -2.5614 -1.1518
27852SOL     OW85562   0.454   0.488   8.889  0.1793  0.2944  0.4606
27852SOL    HW185563   0.433   0.501   8.981  1.3348 -3.1765  1.3544
27852SOL    HW285564   0.543   0.523   8.880  1.0823 -1.5925  1.4071
27853SOL     OW85565   2.233   3.542   7.120  0.7362 -0.0067 -0.0800
27853SOL    HW185566   2.217   3.611   7.056 -1.3855 -0.3364  0.0246
27853SOL    HW285567   2.216   3.461   7.072  0.8369 -0.3477  0.4557
27854SOL     OW85568   1.984   6.320   8.367  0.5328 -0.3391 -0.0832
27854SOL    HW185569   2.041   6.318   8.290  1.7014 -0.1728  0.7702
27854SOL    HW285570   1.898   6.293   8.333  1.4002 -1.9587 -1.1284
27855SOL     OW85571  10.049   0.513  10.167 -0.1073 -0.2826  0.0147
27855SOL    HW185572  10.043   0.531  10.261 -1.1701 -0.3165 -0.0360
27855SOL    HW285573  10.037   0.599  10.126 -3.1477 -0.7075 -0.1671
27856SOL     OW85574   3.834   5.735   3.748 -0.4694  0.1554  0.4917
27856SOL    HW185575   3.832   5.769   3.838  2.0393  0.2970  0.5443
27856SOL    HW285576   3.832   5.813   3.693  0.2603  0.1676  0.4825
27857SOL     OW85577   0.985   7.527   1.097 -0.4823 -0.1872  0.5416
27857SOL    HW185578   1.076   7.500   1.105  1.2282  4.4457 -0.2041
27857SOL    HW285579   0.954   7.537   1.187  0.4153  0.0006  0.8370
27858SOL     OW85580   3.841   8.801  10.902  0.0062 -0.7087 -0.4700
27858SOL    HW185581   3.761   8.823  10.949 -0.4823  0.6651 -1.8579
27858SOL    HW285582   3.885   8.885  10.888  1.0295 -1.2918 -0.8713
27859SOL     OW85583   9.333   2.796   2.597 -1.0595  0.6426 -0.4154
27859SOL    HW185584   9.322   2.888   2.624 -1.4567  0.8973 -1.3746
27859SOL    HW285585   9.286   2.746   2.663  0.5716  0.9655  1.0875
27860SOL     OW85586   0.485   2.277   1.895  0.2899  0.4231  0.0112
27860SOL    HW185587   0.548   2.260   1.825  0.7376 -0.4835  0.6237
27860SOL    HW285588   0.528   2.246   1.975 -1.2126 -0.9031  0.3455
27861SOL     OW85589   7.286   1.478   9.506 -0.4241  0.3054  0.3068
27861SOL    HW185590   7.328   1.481   9.592 -1.5256 -3.7599  1.2013
27861SOL    HW285591   7.352   1.439   9.449 -0.6527  0.3694 -0.0039
27862SOL     OW85592   5.096   7.629   3.903 -0.8638 -0.3052 -0.2638
27862SOL    HW185593   5.065   7.719   3.916  3.5060  1.5261 -0.8044
27862SOL    HW285594   5.093   7.615   3.809  0.2540  0.0542 -0.3615
27863SOL     OW85595   7.961   9.681   4.229 -0.5423 -0.0313  0.0487
27863SOL    HW185596   7.904   9.684   4.306  0.0291 -2.2769  0.6356
27863SOL    HW285597   7.995   9.591   4.228  2.3227  0.9673 -0.7610
27864SOL     OW85598   8.245   2.372  10.285  0.1975  0.4294  0.5441
27864SOL    HW185599   8.247   2.427  10.207 -0.2121 -0.0993  0.1587
27864SOL    HW285600   8.334   2.380  10.322  1.2082 -1.2583 -1.3526
27865SOL     OW85601   5.595   3.892   4.298  0.3519 -0.3699 -0.4052
27865SOL    HW185602   5.563   3.859   4.214 -1.4497 -0.1448  0.1577
27865SOL    HW285603   5.663   3.955   4.274  0.9183 -1.3892 -1.6204
27866SOL     OW85604   2.143   6.039   5.304 -0.2287  0.3262 -0.0031
27866SOL    HW185605   2.221   5.996   5.268  0.6233  2.8237 -1.3700
27866SOL    HW285606   2.103   5.972   5.361  2.5690 -1.2465  0.3099
27867SOL     OW85607   4.679   4.998   2.265 -0.3635  0.1185 -0.1097
27867SOL    HW185608   4.694   4.916   2.217 -0.9067 -1.1215  1.7299
27867SOL    HW285609   4.766   5.034   2.280  0.0222 -1.0486  0.5621
27868SOL     OW85610   0.207   6.132   3.902 -0.3697  0.3666  0.2730
27868SOL    HW185611   0.180   6.046   3.932 -1.6605  0.6905  0.1115
27868SOL    HW285612   0.127   6.171   3.866  0.6585  0.7683 -1.7093
27869SOL     OW85613   1.053  10.199   8.329  0.5464 -0.0359  0.2061
27869SOL    HW185614   1.006  10.118   8.351 -0.4237  0.2708 -0.6640
27869SOL    HW285615   0.990  10.269   8.346  1.6767  0.6553  1.8495
27870SOL     OW85616   0.749   7.465   4.603 -0.1439  0.0258 -0.3826
27870SOL    HW185617   0.677   7.527   4.593  0.4565  0.8129  0.1059
27870SOL    HW285618   0.708   7.385   4.636 -0.9312  0.1293 -1.0736
27871SOL     OW85619   9.620   4.895   1.688  0.6438 -0.2921  0.0169
27871SOL    HW185620   9.546   4.910   1.746 -0.2899  1.9083 -1.6127
27871SOL    HW285621   9.689   4.952   1.722 -0.1381  1.5536 -1.3400
27872SOL     OW85622   5.277   6.516   8.150 -0.0363  0.4636 -0.0290
27872SOL    HW185623   5.184   6.494   8.149  0.4412 -1.7251 -0.3911
27872SOL    HW285624   5.300   6.518   8.243 -0.5562  1.7024  0.0979
27873SOL     OW85625   1.605  10.088   0.986  0.0475 -0.6887  0.7797
27873SOL    HW185626   1.614  10.182   0.972 -0.8501 -0.8055 -0.9539
27873SOL    HW285627   1.550  10.080   1.064  2.4204  0.1263  2.6373
27874SOL     OW85628   6.835   8.872   4.262  0.7163 -0.3048  0.1055
27874SOL    HW185629   6.745   8.866   4.229  0.1950  3.8610  0.2826
27874SOL    HW285630   6.829   8.841   4.353 -0.7084  0.3790  0.2792
27875SOL     OW85631   2.419   9.092   4.294 -0.0304 -0.0145  0.4507
27875SOL    HW185632   2.465   9.152   4.236 -0.3334  2.1486  2.3049
27875SOL    HW285633   2.476   9.084   4.371  0.3274 -2.7374  0.0086
27876SOL     OW85634   0.514  10.239   1.232 -0.4924  0.5946 -0.0225
27876SOL    HW185635   0.578  10.176   1.198 -1.0371  0.1166 -0.1713
27876SOL    HW285636   0.446  10.242   1.165 -0.4348  1.3949 -0.0455
27877SOL     OW85637   6.685   3.189  10.316  0.0715  0.1033  0.4118
27877SOL    HW185638   6.671   3.283  10.317 -1.0626  0.0026 -1.4931
27877SOL    HW285639   6.608   3.153  10.360  0.9690  0.0702  2.0178
27878SOL     OW85640   7.348   6.022   2.839  0.7729  0.5126 -0.1050
27878SOL    HW185641   7.356   6.035   2.933 -2.3755 -1.5538  0.5964
27878SOL    HW285642   7.259   5.990   2.826  1.1632  0.4179 -3.7842
27879SOL     OW85643   3.820   6.389   0.631  0.2506  0.4399 -0.6422
27879SOL    HW185644   3.898   6.366   0.579 -1.4120 -2.2750 -2.1840
27879SOL    HW285645   3.787   6.469   0.590  2.9599  2.5521  1.0190
27880SOL     OW85646   8.962   0.947   2.981  0.4887  0.1141 -0.9285
27880SOL    HW185647   9.039   0.934   2.925  0.4147 -0.9209 -0.7960
27880SOL    HW285648   8.994   0.928   3.069 -0.0132 -0.6666 -0.9160
27881SOL     OW85649   4.845   0.034   1.609 -0.7656 -0.0179 -0.7782
27881SOL    HW185650   4.935   0.003   1.612 -0.9291 -0.4162  0.8410
27881SOL    HW285651   4.792  -0.044   1.623 -1.3126  0.4051 -0.4456
27882SOL     OW85652   6.575   3.452   9.639 -0.1855  0.5629  0.2243
27882SOL    HW185653   6.644   3.434   9.575 -0.4031 -1.3728  0.4700
27882SOL    HW285654   6.588   3.544   9.664  2.1222  0.3334  0.0751
27883SOL     OW85655   1.973   0.480   4.037 -0.1200 -0.3609 -0.3782
27883SOL    HW185656   1.952   0.457   4.127  1.5674 -2.8743 -0.5095
27883SOL    HW285657   2.012   0.567   4.043  2.7524 -1.6116  1.8812
27884SOL     OW85658   9.938   6.315   8.934 -0.6359  0.4438  0.7473
27884SOL    HW185659   9.877   6.240   8.934  0.2922 -0.4144 -1.6095
27884SOL    HW285660   9.931   6.351   8.846  1.5023  0.9699  0.7426
27885SOL     OW85661   0.984   5.042   8.635 -0.0494 -0.6101  0.3375
27885SOL    HW185662   1.013   5.109   8.572  0.7913 -0.6185  0.7095
27885SOL    HW285663   0.891   5.061   8.648 -0.9135 -2.0637 -2.7293
27886SOL     OW85664   0.480   9.056   8.571  0.1210  0.4203 -0.6808
27886SOL    HW185665   0.574   9.059   8.552  0.1280  2.3653 -0.5298
27886SOL    HW285666   0.439   9.101   8.498 -0.4582  1.6774  0.3719
27887SOL     OW85667  10.878   2.705   4.817  0.3536  0.1922 -0.3817
27887SOL    HW185668  10.871   2.644   4.891 -2.4500  1.1854  0.3209
27887SOL    HW285669  10.831   2.661   4.746 -2.4610  1.6945  0.3798
27888SOL     OW85670   1.047   0.245   0.628  0.6966  0.4090  0.2940
27888SOL    HW185671   1.018   0.336   0.630 -0.4950  0.0497  2.2511
27888SOL    HW285672   1.115   0.240   0.696  1.6312  0.0940 -0.6518
27889SOL     OW85673   6.611   4.970   0.961 -0.3679 -0.5733 -0.2199
27889SOL    HW185674   6.563   5.036   0.911 -1.6807 -0.8742  0.6222
27889SOL    HW285675   6.680   5.020   1.006 -1.7585  0.3820  0.9426
27890SOL     OW85676   9.119   7.600   8.185  0.0146  0.0295  0.1058
27890SOL    HW185677   9.062   7.523   8.180 -0.8583  0.7397 -2.1224
27890SOL    HW285678   9.201   7.566   8.220 -1.4680 -1.1679  2.6790
27891SOL     OW85679   3.375  10.489  10.931 -0.2248  0.3996 -0.0984
27891SOL    HW185680   3.292  10.482  10.883  0.0562 -2.2808 -0.3300
27891SOL    HW285681   3.442  10.495  10.863 -0.1000  0.6750  0.0480
27892SOL     OW85682   6.616   1.002   5.876  0.1710 -0.4021 -0.3210
27892SOL    HW185683   6.637   1.007   5.969  2.1957  1.1132 -0.8019
27892SOL    HW285684   6.624   0.910   5.854  0.0378 -0.7232  0.9169
27893SOL     OW85685   7.761   0.040   6.666  0.1668 -0.3577 -0.2155
27893SOL    HW185686   7.764  -0.051   6.695  0.6496  0.0598  1.1538
27893SOL    HW285687   7.709   0.039   6.586 -0.1794 -1.7747  0.0062
27894SOL     OW85688   4.830  10.489   4.792 -0.6619 -0.0938  0.2731
27894SOL    HW185689   4.757  10.454   4.741  0.7298 -0.6310 -1.4781
27894SOL    HW285690   4.836  10.581   4.766 -0.6581 -0.0796  0.3225
27895SOL     OW85691   2.960   3.534  10.214 -0.2169  0.3607  0.2448
27895SOL    HW185692   2.981   3.620  10.251 -1.7698  1.0869 -0.4619
27895SOL    HW285693   2.973   3.544  10.119 -1.2233  0.0919  0.0622
27896SOL     OW85694   3.093   7.805  10.935 -0.2611 -0.3598  0.5398
27896SOL    HW185695   3.164   7.815  10.999  1.3555  0.6699 -1.3136
27896SOL    HW285696   3.014   7.809  10.988  0.9662  1.3456  2.4398
27897SOL     OW85697   5.162   1.215   3.156  0.3038  1.0039 -0.6847
27897SOL    HW185698   5.120   1.268   3.089  1.9329  1.4112 -1.4329
27897SOL    HW285699   5.249   1.255   3.168  0.8960 -0.4052  0.0446
27898SOL     OW85700   3.452   9.118   5.529 -0.3730  0.1697  1.0796
27898SOL    HW185701   3.510   9.044   5.508 -0.3661 -0.5251  3.3329
27898SOL    HW285702   3.511   9.193   5.534  0.0322 -0.1694  1.4413
27899SOL     OW85703   4.060  10.218   8.357 -0.0773 -0.0740 -0.1722
27899SOL    HW185704   4.005  10.294   8.373 -0.4883 -0.3327 -0.3396
27899SOL    HW285705   4.132  10.252   8.303 -0.5906  0.0823 -0.7801
27900SOL     OW85706   0.594   8.461   8.766  0.0879  0.0865 -0.3016
27900SOL    HW185707   0.524   8.454   8.831  0.6901 -1.5169  0.2471
27900SOL    HW285708   0.601   8.554   8.747 -2.0071  0.3106 -0.1931
27901SOL     OW85709   7.580   5.374   7.676 -0.4565 -0.0658  0.0670
27901SOL    HW185710   7.596   5.323   7.596  1.8810 -0.2839  0.5925
27901SOL    HW285711   7.549   5.310   7.739  2.1259 -0.8811  0.6188
27902SOL     OW85712   3.155   6.166   2.851 -0.3827 -0.6186 -0.0913
27902SOL    HW185713   3.123   6.189   2.764 -2.0365  1.0985  0.8959
27902SOL    HW285714   3.090   6.105   2.886  0.0737 -1.0049  0.0998
27903SOL     OW85715   5.618   5.166   0.618 -0.7646  0.2132 -0.5267
27903SOL    HW185716   5.529   5.186   0.587 -0.7750  0.2239 -0.4901
27903SOL    HW285717   5.673   5.183   0.541 -0.8090  0.0772 -0.5893
27904SOL     OW85718   7.596   8.437   8.124 -0.3494  0.1985 -0.1955
27904SOL    HW185719   7.631   8.434   8.214  0.9171  0.6915 -0.6513
27904SOL    HW285720   7.539   8.514   8.123  1.9720  2.0461 -0.5706
27905SOL     OW85721   3.817   7.647  10.710 -0.0162 -0.1629 -0.2553
27905SOL    HW185722   3.774   7.563  10.730 -0.2617 -0.3881 -1.5970
27905SOL    HW285723   3.837   7.684  10.796  0.1568 -1.6212  0.3770
27906SOL     OW85724   1.183   2.952   1.167 -0.4397  0.0795  0.2464
27906SOL    HW185725   1.189   2.939   1.073 -0.0327 -2.6342  0.5713
27906SOL    HW285726   1.216   2.871   1.205 -3.2090 -0.0411  2.7241
27907SOL     OW85727   5.857   1.445   5.414  0.6868  0.2411  0.2033
27907SOL    HW185728   5.847   1.372   5.474 -1.1758 -1.6179 -2.1556
27907SOL    HW285729   5.947   1.439   5.383  1.0628  0.0327  1.2937
27908SOL     OW85730   9.562   9.051   2.528 -0.0343 -0.3477  0.1752
27908SOL    HW185731   9.471   9.073   2.549  0.3170  0.1389  1.2973
27908SOL    HW285732   9.608   9.135   2.531  0.9345 -0.8767  2.3628
27909SOL     OW85733   6.058   9.852   1.608  0.1250  0.9861  0.4327
27909SOL    HW185734   5.989   9.869   1.672 -1.3666  0.0291 -0.8597
27909SOL    HW285735   6.036   9.907   1.533 -0.5149 -0.8861 -0.8387
27910SOL     OW85736   8.121   1.217   5.023  0.1980 -0.1590 -0.8270
27910SOL    HW185737   8.088   1.182   5.106 -0.1548  0.2379 -0.7988
27910SOL    HW285738   8.057   1.187   4.958  0.3789 -0.3196 -0.9331
27911SOL     OW85739   5.286   9.821   8.277  1.0443  0.3957 -0.0906
27911SOL    HW185740   5.232   9.812   8.355  0.4475 -2.9001 -0.7248
27911SOL    HW285741   5.276   9.913   8.251 -0.7893  0.9449  2.2096
27912SOL     OW85742   3.241   6.815   9.649  0.6141 -0.2152  0.2154
27912SOL    HW185743   3.251   6.848   9.560  0.4500 -1.1970 -0.1738
27912SOL    HW285744   3.254   6.721   9.642  0.9684 -0.2606  1.2933
27913SOL     OW85745   4.837   6.491   8.421 -0.5047  0.4671  0.2352
27913SOL    HW185746   4.755   6.540   8.425 -0.9461 -0.3669  3.4776
27913SOL    HW285747   4.811   6.401   8.402 -0.4180  0.1594  1.4805
27914SOL     OW85748   0.729  10.965   7.464  0.4435  0.6076 -0.7024
27914SOL    HW185749   0.751  10.909   7.390 -0.0410  0.1991 -0.5369
27914SOL    HW285750   0.796  11.034   7.461 -0.1666  1.1852 -2.1289
27915SOL     OW85751   8.382   6.348   3.680  0.2135 -0.9228 -0.4627
27915SOL    HW185752   8.443   6.326   3.751  0.0947 -2.4179 -0.7824
27915SOL    HW285753   8.338   6.427   3.710  1.8541 -0.1673  0.0614
27916SOL     OW85754   4.146  10.305   2.091 -0.1689  0.2093 -0.9456
27916SOL    HW185755   4.105  10.221   2.069 -0.4811  0.3476 -0.9029
27916SOL    HW285756   4.079  10.351   2.142  0.0969  0.3799 -0.7482
27917SOL     OW85757   7.969   3.945   6.076  1.1147 -0.9505  0.0427
27917SOL    HW185758   7.910   4.010   6.037  0.5058 -0.5313  1.6074
27917SOL    HW285759   7.931   3.926   6.161  2.7239 -1.4294  0.6881
27918SOL     OW85760   5.122   9.054   1.970 -0.1097 -0.5956  0.2688
27918SOL    HW185761   5.111   9.140   2.010 -2.3017 -0.7390  0.0708
27918SOL    HW285762   5.161   9.073   1.884 -0.9765  0.2476  0.0481
27919SOL     OW85763   2.907   4.297   2.713  0.0955  0.2755  0.5716
27919SOL    HW185764   2.844   4.360   2.677 -1.1040 -1.4968 -0.5410
27919SOL    HW285765   2.935   4.337   2.796 -0.7157  2.1950 -0.0142
27920SOL     OW85766   4.812   2.747   8.895  0.0094 -0.1662  0.9669
27920SOL    HW185767   4.885   2.692   8.867 -0.2638 -0.9088  1.6741
27920SOL    HW285768   4.829   2.764   8.987  0.6169  1.8018  0.5450
27921SOL     OW85769  10.207   3.783   3.560 -0.0409 -0.4482 -0.2973
27921SOL    HW185770  10.247   3.861   3.522 -0.5615 -1.3941 -2.9809
27921SOL    HW285771  10.155   3.817   3.634  1.5444  1.4085  0.0482
27922SOL     OW85772   0.175   0.292   7.719  0.2044 -0.3257 -0.1142
27922SOL    HW185773   0.109   0.361   7.722  0.2102 -0.3317  0.1758
27922SOL    HW285774   0.259   0.338   7.729  0.3377 -0.1946 -1.5381
27923SOL     OW85775   2.016   1.036   3.879  0.3148 -0.2578 -0.2113
27923SOL    HW185776   2.022   1.060   3.972 -0.0444  0.2629 -0.3170
27923SOL    HW285777   2.031   1.119   3.832 -0.3974 -0.3424 -0.5985
27924SOL     OW85778   4.602  10.854   5.695  0.6341  0.8403  1.0218
27924SOL    HW185779   4.655  10.863   5.774  1.0712 -0.6976  0.9211
27924SOL    HW285780   4.655  10.895   5.627  1.5396 -0.3104  1.0038
27925SOL     OW85781   0.155   5.472  10.601  0.0214 -0.5914  0.1106
27925SOL    HW185782   0.067   5.504  10.619 -0.1495  1.0139 -3.0121
27925SOL    HW285783   0.160   5.388  10.648 -3.4855 -1.2051 -0.3567
27926SOL     OW85784   4.347   9.437   5.014  0.7434  0.1303 -0.7649
27926SOL    HW185785   4.308   9.524   5.011  2.2237  0.7827 -2.4466
27926SOL    HW285786   4.434   9.448   4.976  2.6921 -1.2443  2.7592
27927SOL     OW85787   8.234   7.210   1.319  0.2600 -0.1169  0.3217
27927SOL    HW185788   8.313   7.229   1.369 -0.5243  0.3012  1.4291
27927SOL    HW285789   8.183   7.290   1.323 -0.5591 -0.6265  0.2596
27928SOL     OW85790   5.245   0.307   4.520 -1.1827  0.2681 -0.3776
27928SOL    HW185791   5.337   0.301   4.497 -1.1728 -0.9658 -0.1139
27928SOL    HW285792   5.239   0.381   4.581  0.3041 -1.8364  2.5570
27929SOL     OW85793   7.970   3.710   4.345 -0.1547 -0.4230  0.2707
27929SOL    HW185794   7.891   3.757   4.372  0.1992  0.2445  0.1558
27929SOL    HW285795   7.957   3.693   4.252 -0.2075 -0.4207  0.2772
27930SOL     OW85796   1.805   5.561   6.431 -0.0109 -0.2137 -0.0432
27930SOL    HW185797   1.798   5.594   6.342  0.3340 -0.4832 -0.1747
27930SOL    HW285798   1.798   5.639   6.487 -2.5811 -0.2767 -0.1751
27931SOL     OW85799  10.056   2.971   5.712 -0.4283  0.5200  0.1574
27931SOL    HW185800  10.112   3.027   5.660 -1.3563  2.3735  1.0443
27931SOL    HW285801   9.991   2.938   5.650  0.9259 -0.7702 -0.6489
27932SOL     OW85802   7.114   8.474   0.637 -0.8555 -0.9587 -0.0210
27932SOL    HW185803   7.148   8.524   0.711 -2.3254 -0.8109  0.5911
27932SOL    HW285804   7.073   8.397   0.677 -1.9378 -0.7238 -0.6344
27933SOL     OW85805   1.523   2.195   6.136 -0.1429 -0.0507 -0.0509
27933SOL    HW185806   1.452   2.130   6.138  0.3196 -0.5739 -0.2932
27933SOL    HW285807   1.494   2.260   6.073  0.3831 -1.2015 -1.5228
27934SOL     OW85808   5.181   2.610   8.549  0.4600  0.4825  0.3218
27934SOL    HW185809   5.240   2.648   8.484  0.8287 -0.0460  0.3466
27934SOL    HW285810   5.123   2.553   8.499  1.3926 -0.7156  0.5659
27935SOL     OW85811   1.122   9.151   7.694  0.0577  0.6357  0.4768
27935SOL    HW185812   1.104   9.245   7.697 -1.7850  0.3624 -0.4907
27935SOL    HW285813   1.055   9.113   7.751 -0.8682 -0.2630 -1.1691
27936SOL     OW85814   3.705   1.899   3.107  0.4614 -0.0190 -0.0101
27936SOL    HW185815   3.697   1.983   3.152 -0.5326  0.2416 -0.6643
27936SOL    HW285816   3.663   1.836   3.166  2.9377 -0.4532  1.4332
27937SOL     OW85817   7.617   0.566   6.365 -0.3149 -0.1479  0.1898
27937SOL    HW185818   7.644   0.657   6.352 -2.0405  0.6682  1.8747
27937SOL    HW285819   7.676   0.532   6.431  2.5002 -1.4120 -2.7252
27938SOL     OW85820   3.443   0.886   8.027 -0.1907  0.2286  0.3937
27938SOL    HW185821   3.391   0.961   8.000 -1.9721 -1.4416 -1.1014
27938SOL    HW285822   3.380   0.823   8.062  1.3207 -0.3549  2.2873
27939SOL     OW85823   8.486   4.976   3.583 -0.5036 -0.2976  0.0173
27939SOL    HW185824   8.417   4.954   3.521  0.7221 -0.9955 -1.1413
27939SOL    HW285825   8.500   4.895   3.632 -1.3112  0.1879  1.0949
27940SOL     OW85826   7.447   9.488   5.773  0.5457  0.3520 -0.1473
27940SOL    HW185827   7.403   9.510   5.855  0.7676  0.2631 -0.0049
27940SOL    HW285828   7.495   9.408   5.792 -0.7963 -0.6523 -0.8545
27941SOL     OW85829   4.253  10.628   7.696 -0.1091 -0.4266  0.1535
27941SOL    HW185830   4.218  10.555   7.644  1.2727 -1.6802  0.8825
27941SOL    HW285831   4.178  10.683   7.715 -0.8669 -0.5316 -2.1867
27942SOL     OW85832  10.543   7.663   5.914 -0.2448  0.9212  0.1453
27942SOL    HW185833  10.607   7.727   5.882 -0.6966  0.5024 -1.7668
27942SOL    HW285834  10.461   7.687   5.870 -0.1744 -1.5552 -1.5801
27943SOL     OW85835   3.480   6.414   4.744  0.1539 -0.2168 -0.7557
27943SOL    HW185836   3.395   6.450   4.769 -0.0361 -0.2323 -1.3730
27943SOL    HW285837   3.459   6.337   4.692  0.5314  0.2524 -1.6244
27944SOL     OW85838   4.654  10.110   5.818 -0.1092  0.4131  0.2662
27944SOL    HW185839   4.678  10.202   5.821  0.0343  0.3923 -0.1565
27944SOL    HW285840   4.634  10.093   5.726 -0.4920  0.1125  0.3999
27945SOL     OW85841   7.379   8.634   8.162 -0.6869  0.0541 -0.1547
27945SOL    HW185842   7.328   8.658   8.085 -1.7623  0.3487  0.6399
27945SOL    HW285843   7.341   8.551   8.192  2.6357 -2.6156 -2.5580
27946SOL     OW85844  11.024   3.856   3.224 -0.1849 -0.4479 -0.7179
27946SOL    HW185845  11.039   3.924   3.290 -2.0592  0.0717 -0.7495
27946SOL    HW285846  11.046   3.898   3.141  1.2352 -0.7842 -0.5322
27947SOL     OW85847   3.667   0.247  10.108 -0.0021  0.0039 -0.4699
27947SOL    HW185848   3.609   0.252  10.183  0.7629  0.4313  0.1003
27947SOL    HW285849   3.724   0.323  10.115 -0.6676  0.7201 -2.1299
27948SOL     OW85850   1.862   4.881   4.916  0.1540  0.2460 -0.2673
27948SOL    HW185851   1.883   4.865   4.824  0.0476 -0.9181 -0.1094
27948SOL    HW285852   1.766   4.888   4.918  0.1454  0.1116 -0.2205
27949SOL     OW85853   5.151   0.932   6.591  0.4389  0.6070  0.0199
27949SOL    HW185854   5.062   0.930   6.556 -0.2396  1.8145  1.5696
27949SOL    HW285855   5.182   0.842   6.582 -1.0985  0.0561 -0.1309
27950SOL     OW85856   8.537   1.098   3.538  0.3976  0.0967 -0.4312
27950SOL    HW185857   8.621   1.120   3.496  0.0390  1.6005 -0.4062
27950SOL    HW285858   8.474   1.157   3.497 -0.9411 -1.8739 -1.3787
27951SOL     OW85859   2.921   9.216   9.625 -0.0077  0.4528  0.2468
27951SOL    HW185860   2.977   9.294   9.626 -0.8783  1.1047  0.5485
27951SOL    HW285861   2.838   9.247   9.662 -0.0476 -0.8710  1.3625
27952SOL     OW85862   9.328  11.085   0.953  0.0139  0.1315 -0.8287
27952SOL    HW185863   9.370  11.136   0.883  0.5347  3.5613  1.7117
27952SOL    HW285864   9.400  11.062   1.011 -0.7335 -0.1049  0.0174
27953SOL     OW85865   2.365   4.598   5.116  1.0190 -0.1228  0.0973
27953SOL    HW185866   2.296   4.549   5.072  1.3679 -0.8860  0.3817
27953SOL    HW285867   2.342   4.595   5.208  1.4179 -0.3721  0.1923
27954SOL     OW85868   8.089   9.863  10.987 -0.3240  0.0755 -0.6107
27954SOL    HW185869   8.107   9.922  10.914  0.6769  1.1371  0.4593
27954SOL    HW285870   8.129   9.780  10.960 -1.6013 -0.1280 -2.0547
27955SOL     OW85871  10.850   7.180   7.733  0.4198  0.4207 -0.2811
27955SOL    HW185872  10.925   7.235   7.758  0.6755  0.5849 -1.3517
27955SOL    HW285873  10.884   7.090   7.738 -0.1863  0.2737  2.1036
27956SOL     OW85874   7.484   2.729   7.006 -0.2244 -0.3660 -0.0292
27956SOL    HW185875   7.495   2.638   7.033 -0.7348 -0.5610 -0.4586
27956SOL    HW285876   7.390   2.745   7.016 -0.2579 -0.1269 -0.7067
27957SOL     OW85877   5.626   3.262   2.288  0.0126 -0.2468  0.0535
27957SOL    HW185878   5.619   3.354   2.262 -0.1972 -0.3528 -0.2770
27957SOL    HW285879   5.579   3.257   2.371 -1.5703 -0.4025 -0.8066
27958SOL     OW85880   2.846  11.031   1.046  0.4978  0.7000 -0.1223
27958SOL    HW185881   2.858  11.126   1.046 -1.1292  0.9704  2.0899
27958SOL    HW285882   2.755  11.019   1.020  0.7402 -0.3002 -0.5469
27959SOL     OW85883   4.910   2.726  10.457  0.5576 -0.5085 -0.2087
27959SOL    HW185884   4.895   2.635  10.483  0.5673 -0.0121  1.6948
27959SOL    HW285885   4.891   2.777  10.536  4.2812  0.8384  0.0111
27960SOL     OW85886   3.833   0.571   1.949 -0.3968 -0.3538 -0.2244
27960SOL    HW185887   3.918   0.609   1.929 -0.7587 -0.1910 -1.5364
27960SOL    HW285888   3.847   0.523   2.031  1.5246 -2.0881 -1.4609
27961SOL     OW85889   4.161  10.173   0.434  0.6924 -0.1474  0.1959
27961SOL    HW185890   4.178  10.087   0.472  0.3796 -0.4472 -0.3180
27961SOL    HW285891   4.065  10.182   0.438  0.7658  0.4438  0.8017
27962SOL     OW85892   0.828   2.487   5.785 -0.3679  0.1623 -0.2813
27962SOL    HW185893   0.737   2.496   5.757 -0.8136  0.6257  1.2549
27962SOL    HW285894   0.834   2.541   5.864  1.0970 -0.3226 -0.0436
27963SOL     OW85895   3.141   4.824   6.977 -0.5588  0.7757 -0.3665
27963SOL    HW185896   3.144   4.799   7.069 -1.0201 -2.4674 -1.1137
27963SOL    HW285897   3.232   4.848   6.956 -0.2324  0.5117  0.6775
27964SOL     OW85898   9.680   8.139   5.739  0.0442  0.1860  0.2344
27964SOL    HW185899   9.760   8.172   5.780  0.5850  1.5438 -1.7481
27964SOL    HW285900   9.707   8.058   5.695  0.0812  0.0916  0.4314
27965SOL     OW85901   9.334   0.777   6.315 -0.0571  0.4687  0.6433
27965SOL    HW185902   9.267   0.839   6.345 -0.9229  0.2279 -0.7269
27965SOL    HW285903   9.373   0.744   6.396 -1.8366  0.3335  1.4971
27966SOL     OW85904   3.213   5.350   4.560  0.1113 -0.4199 -0.0519
27966SOL    HW185905   3.220   5.444   4.573  0.1760 -0.3876 -0.3192
27966SOL    HW285906   3.144   5.338   4.496  1.6349 -0.4067 -1.7905
27967SOL     OW85907   9.132  10.805   9.646  0.0871  0.6512 -0.1335
27967SOL    HW185908   9.090  10.780   9.563  0.6707 -0.1163 -0.2122
27967SOL    HW285909   9.225  10.790   9.631  0.1354 -0.1872  0.8851
27968SOL     OW85910   8.890   6.754   8.303  0.0985 -0.1993 -0.1495
27968SOL    HW185911   8.942   6.827   8.269 -0.5576  1.3565  1.9969
27968SOL    HW285912   8.801   6.773   8.274 -0.0051 -0.4313  0.0165
27969SOL     OW85913   5.841   5.740   8.282  0.2535  0.2030  0.5114
27969SOL    HW185914   5.909   5.767   8.220  1.8444 -1.9498  1.2265
27969SOL    HW285915   5.888   5.725   8.364 -1.2689 -0.3250  1.3115
27970SOL     OW85916   5.474   6.519   7.069 -0.1391  0.1360 -0.6940
27970SOL    HW185917   5.507   6.554   7.151 -1.1540  0.6900 -0.5056
27970SOL    HW285918   5.463   6.426   7.085 -1.3991  0.4125  0.1843
27971SOL     OW85919   8.655  10.087   7.282  0.2297  0.2074 -0.4471
27971SOL    HW185920   8.747  10.093   7.308 -0.1555  1.5394  0.7900
27971SOL    HW285921   8.653  10.123   7.193  0.7532  1.3810 -0.0083
27972SOL     OW85922   0.477   0.010   3.386 -0.7161  0.1525 -0.2118
27972SOL    HW185923   0.490  -0.072   3.338  2.3428  1.7697 -2.4913
27972SOL    HW285924   0.540   0.006   3.458 -1.2319  0.1718  0.2555
27973SOL     OW85925   7.090   5.701   8.226  1.2753 -0.1856  0.7001
27973SOL    HW185926   7.027   5.764   8.259 -0.7804 -0.6058 -2.0743
27973SOL    HW285927   7.065   5.618   8.267  2.1804  0.2246  2.1438
27974SOL     OW85928   7.793   0.897   1.775 -0.2150  0.2431  0.5676
27974SOL    HW185929   7.785   0.816   1.824 -0.9390 -0.9986 -1.4835
27974SOL    HW285930   7.816   0.963   1.841 -1.9044 -1.1413  2.6927
27975SOL     OW85931   7.487   8.839  10.523  0.1857  0.7400 -0.5259
27975SOL    HW185932   7.570   8.815  10.480 -0.3064  0.2832 -1.2439
27975SOL    HW285933   7.435   8.879  10.453 -0.3844  0.5815 -0.1921
27976SOL     OW85934   9.774   3.207   0.992 -0.1413 -0.9046 -0.2480
27976SOL    HW185935   9.709   3.163   0.936 -0.8093  1.6908 -1.6600
27976SOL    HW285936   9.722   3.256   1.056  0.3477  1.1396 -1.3383
27977SOL     OW85937   5.770   9.736   3.998 -0.3247  0.0551  0.3127
27977SOL    HW185938   5.678   9.728   3.972 -0.2545  1.6801 -0.5763
27977SOL    HW285939   5.776   9.686   4.079 -2.0689  0.1537  0.5438
27978SOL     OW85940   5.452   0.991   0.376  0.4377  0.9328  0.1784
27978SOL    HW185941   5.527   0.977   0.318  0.0661  1.3946 -0.4289
27978SOL    HW285942   5.381   1.017   0.317 -0.3757 -0.1147  0.6780
27979SOL     OW85943   3.349  10.949  10.996  0.1945 -0.7355  0.1366
27979SOL    HW185944   3.418  10.925  10.935  1.2669  1.6727  0.3008
27979SOL    HW285945   3.395  10.991  11.069 -1.3527 -0.0337  0.7540
27980SOL     OW85946  10.300  10.774   7.438 -0.2169 -0.6412 -0.5074
27980SOL    HW185947  10.369  10.766   7.504  0.9189 -1.3581 -1.7387
27980SOL    HW285948  10.333  10.839   7.376 -0.9112 -0.5508 -0.7929
27981SOL     OW85949   0.427   9.520   0.201  0.1915 -0.5002  0.7101
27981SOL    HW185950   0.332   9.513   0.189 -0.0544  1.5961  1.0938
27981SOL    HW285951   0.462   9.518   0.112 -0.4349  0.8810  0.4020
27982SOL     OW85952   3.217  10.496   8.381 -0.4761 -0.2795 -0.1706
27982SOL    HW185953   3.161  10.507   8.304 -1.1530 -0.2803  0.3122
27982SOL    HW285954   3.303  10.473   8.345 -0.7424 -0.1267 -0.9293
27983SOL     OW85955   7.904   7.125   3.819 -0.5209  0.4656 -0.3272
27983SOL    HW185956   7.865   7.202   3.861 -1.2308  0.3947 -0.8404
27983SOL    HW285957   7.994   7.122   3.853 -0.3560  1.7422 -0.6068
27984SOL     OW85958   3.323   3.810  10.506  0.4443 -0.3757 -0.2619
27984SOL    HW185959   3.279   3.886  10.468  1.5174 -0.3751 -1.6056
27984SOL    HW285960   3.296   3.736  10.452 -1.4268 -1.1965  1.6771
27985SOL     OW85961   1.820   3.913   0.326 -0.0518  0.5971  0.5009
27985SOL    HW185962   1.810   3.865   0.243  1.6726  2.3874 -0.8480
27985SOL    HW285963   1.771   3.994   0.313  0.3374  0.9531  1.2019
27986SOL     OW85964   8.835   1.031   4.747  0.2006 -0.7105 -0.2811
27986SOL    HW185965   8.851   0.968   4.678  1.1607 -2.8453  1.7467
27986SOL    HW285966   8.742   1.054   4.738 -0.2913 -2.7604 -0.8416
27987SOL     OW85967  10.700   4.695   4.942 -0.1824  0.8243 -0.6878
27987SOL    HW185968  10.747   4.643   4.878 -0.9280  0.8204 -1.2447
27987SOL    HW285969  10.751   4.776   4.949  1.9498 -0.5455  1.4399
27988SOL     OW85970   0.440   4.070   5.691 -0.4789  0.6455  0.8666
27988SOL    HW185971   0.413   4.124   5.617 -0.7252 -0.4711  0.1207
27988SOL    HW285972   0.399   3.985   5.676  2.3927 -0.7733  0.2984
27989SOL     OW85973   2.004   8.373   3.319 -0.0737 -0.5943  0.1144
27989SOL    HW185974   2.088   8.344   3.354 -0.1889 -2.2486 -0.8733
27989SOL    HW285975   1.968   8.296   3.275 -1.4333  0.4863 -0.7736
27990SOL     OW85976   3.881   8.914   9.134 -0.2187  0.1848 -0.4621
27990SOL    HW185977   3.880   8.979   9.204  0.0309 -1.5645  1.2621
27990SOL    HW285978   3.970   8.916   9.101 -0.9186  2.7162 -2.5104
27991SOL     OW85979   2.989   5.986   5.469 -0.4037 -0.1723 -0.3032
27991SOL    HW185980   2.951   5.995   5.556  1.0398 -1.1270  0.4803
27991SOL    HW285981   3.055   6.055   5.464 -0.6478  0.0328 -0.7435
27992SOL     OW85982   3.104   8.605   3.217 -0.1337  0.2442  0.2973
27992SOL    HW185983   3.152   8.630   3.296  0.2475  0.0346  0.1341
27992SOL    HW285984   3.023   8.657   3.221 -0.0845  0.2914  0.7840
27993SOL     OW85985  10.770   5.378   8.484  0.6876  0.9453  0.2883
27993SOL    HW185986  10.738   5.387   8.574 -0.1909  1.3828 -0.0520
27993SOL    HW285987  10.808   5.291   8.481 -0.2642  0.4905  0.7916
27994SOL     OW85988   7.260   3.608  10.551  0.5013 -0.1807 -0.3218
27994SOL    HW185989   7.203   3.552  10.499  1.1763 -0.0236 -1.2767
27994SOL    HW285990   7.204   3.644  10.620 -0.5652  0.0601 -1.2921
27995SOL     OW85991   4.834  10.507   3.861  0.8520 -0.3965  0.1700
27995SOL    HW185992   4.753  10.501   3.810  0.8513  0.6349  0.0238
27995SOL    HW285993   4.805  10.506   3.952  0.4392  2.0739  0.1396
27996SOL     OW85994   6.662   6.467   8.618  0.6030 -0.1026 -0.5734
27996SOL    HW185995   6.677   6.389   8.565  1.2822 -0.8990  0.7349
27996SOL    HW285996   6.726   6.460   8.689 -0.1836  0.9887  0.2779
27997SOL     OW85997   6.801   4.990   8.286 -0.1416 -0.0225 -0.2175
27997SOL    HW185998   6.860   4.916   8.298 -1.1483 -1.0544 -1.3017
27997SOL    HW285999   6.765   4.978   8.198 -0.4879  1.6538 -0.3421
27998SOL     OW86000   9.180   6.113   6.518  0.0600  0.4043 -0.6297
27998SOL    HW186001   9.263   6.149   6.551  0.5439 -1.3622  0.1683
27998SOL    HW286002   9.194   6.019   6.514 -1.6706  0.1326 -1.2396
27999SOL     OW86003   8.400   9.591   3.358  0.1030  0.0900  0.2670
27999SOL    HW186004   8.465   9.631   3.415  0.3398  0.1100 -0.0116
27999SOL    HW286005   8.342   9.663   3.333  1.6007  0.7233 -1.7294
28000SOL     OW86006  10.641   9.335   2.318 -0.0328  0.6634 -0.1363
28000SOL    HW186007  10.592   9.315   2.238  0.2608 -2.6885  0.4006
28000SOL    HW286008  10.586   9.304   2.389 -0.3116  3.6265  1.1184
28001SOL     OW86009   8.754   1.585   6.747 -0.0109 -0.7254 -0.1238
28001SOL    HW186010   8.658   1.588   6.743 -0.1564 -0.8016  2.0525
28001SOL    HW286011   8.776   1.498   6.713 -0.7702 -0.9754 -0.0087
28002SOL     OW86012   2.607   2.838   1.118 -0.6413 -0.4367  0.8382
28002SOL    HW186013   2.663   2.785   1.175 -0.6193  0.4862  1.6886
28002SOL    HW286014   2.564   2.773   1.061 -1.1796 -1.4686  2.3350
28003SOL     OW86015   7.913   4.027   7.873 -1.0251 -0.4278  0.4601
28003SOL    HW186016   7.998   4.064   7.850 -1.0282  0.9493  2.3778
28003SOL    HW286017   7.926   3.932   7.866  1.1051 -0.3285  1.8973
28004SOL     OW86018   9.446   9.180   3.548 -0.0902  0.0570  0.5577
28004SOL    HW186019   9.452   9.155   3.641 -1.1559 -1.5567  0.2458
28004SOL    HW286020   9.502   9.118   3.503  0.0512  0.5420  0.0599
28005SOL     OW86021   6.294   5.368   2.896 -0.2730  0.3835  0.3507
28005SOL    HW186022   6.238   5.399   2.824 -0.5316 -0.6758  0.0772
28005SOL    HW286023   6.298   5.273   2.884 -1.5107 -0.0212  2.5735
28006SOL     OW86024   9.342   8.863   1.020  0.1952  0.0013  0.2941
28006SOL    HW186025   9.382   8.781   0.990  1.3236  0.7200 -0.2453
28006SOL    HW286026   9.416   8.923   1.032 -0.6867  1.2559 -0.2853
28007SOL     OW86027  10.536   3.590   2.218 -0.1897 -0.3523 -0.0987
28007SOL    HW186028  10.522   3.528   2.146  1.2479 -1.7737  0.7763
28007SOL    HW286029  10.551   3.535   2.294 -1.3889  1.1223  1.2682
28008SOL     OW86030   6.660   9.936  10.646 -0.6650  0.0602  0.2370
28008SOL    HW186031   6.714   9.992  10.589 -1.6786  1.3387  0.4905
28008SOL    HW286032   6.612   9.881  10.585 -0.0045 -0.2249 -0.0407
28009SOL     OW86033   7.573   0.291   2.798  0.1824  0.4503  0.2023
28009SOL    HW186034   7.533   0.204   2.809 -1.3699  1.1875  0.7443
28009SOL    HW286035   7.666   0.277   2.816  0.2144 -1.3495 -1.1195
28010SOL     OW86036   5.838   3.825   7.313 -0.2769  0.2297  0.0616
28010SOL    HW186037   5.847   3.746   7.261  1.9495  0.0081  0.6828
28010SOL    HW286038   5.836   3.795   7.404  0.8434  0.8504  0.3192
28011SOL     OW86039   1.156   4.902   1.119  0.0756  0.2915 -0.0788
28011SOL    HW186040   1.207   4.827   1.086  0.8777  0.5125  0.6201
28011SOL    HW286041   1.135   4.878   1.209  0.8864  1.1705  0.3556
28012SOL     OW86042   6.402   2.407   7.492  0.7597  0.4415 -0.2322
28012SOL    HW186043   6.312   2.384   7.468  0.7274  1.9096 -1.6632
28012SOL    HW286044   6.440   2.324   7.524 -0.2362 -0.8903 -2.2804
28013SOL     OW86045   7.214   8.595   2.967 -0.6763  0.4011 -0.3763
28013SOL    HW186046   7.148   8.614   3.033 -0.1131 -1.3401  0.7722
28013SOL    HW286047   7.289   8.562   3.017  0.0812 -0.1800 -1.8299
28014SOL     OW86048   0.354   1.984   9.762 -0.7770  0.0049 -0.4991
28014SOL    HW186049   0.387   2.023   9.843  0.9613 -1.8246 -0.2281
28014SOL    HW286050   0.389   2.039   9.692  1.6648 -0.9027 -0.1310
28015SOL     OW86051   3.269   3.943   4.972  0.0478 -0.3652 -0.1772
28015SOL    HW186052   3.208   3.914   4.903 -0.8037  0.5219  0.1826
28015SOL    HW286053   3.340   3.986   4.925 -1.3898  1.8315 -0.4745
28016SOL     OW86054  10.406   4.665   8.497 -0.3376 -0.2953  0.3043
28016SOL    HW186055  10.371   4.754   8.492 -2.1736 -1.0324 -2.1171
28016SOL    HW286056  10.329   4.608   8.489  0.7982 -2.1316  1.6952
28017SOL     OW86057   4.589   4.892   5.941 -0.2930 -0.1795 -0.0874
28017SOL    HW186058   4.646   4.887   5.865  0.9499  0.3136  0.7769
28017SOL    HW286059   4.580   4.802   5.971  0.2623 -0.2346 -0.0768
28018SOL     OW86060   4.732   9.511   4.820  0.8799 -0.3768 -0.1380
28018SOL    HW186061   4.641   9.516   4.793  0.6567 -0.2625  0.6017
28018SOL    HW286062   4.765   9.600   4.808  0.1763  0.2348  1.9402
28019SOL     OW86063   2.624   9.366   7.520  0.9320  0.1589  0.2666
28019SOL    HW186064   2.699   9.315   7.548  0.0721 -1.3605 -0.1209
28019SOL    HW286065   2.638   9.381   7.427  1.5459  1.3185  0.5209
28020SOL     OW86066   8.289   1.212   0.438 -0.0817 -0.6225  0.1690
28020SOL    HW186067   8.238   1.131   0.429  0.8048 -1.2479  0.6668
28020SOL    HW286068   8.300   1.223   0.532  0.5768 -0.4197  0.0713
28021SOL     OW86069  10.694   2.551  10.696 -0.2072  0.9645 -0.1156
28021SOL    HW186070  10.660   2.626  10.746 -0.6253 -0.2643  1.5371
28021SOL    HW286071  10.733   2.590  10.618 -3.6555  2.6554 -1.1932
28022SOL     OW86072  10.361   5.977   6.036 -0.0875  0.0607 -0.2615
28022SOL    HW186073  10.295   5.970   6.105 -0.3944 -0.0941 -0.5657
28022SOL    HW286074  10.330   6.050   5.982 -0.1358 -0.1590 -0.5356
28023SOL     OW86075   8.585   9.030   0.264 -0.6803  0.3775 -0.3682
28023SOL    HW186076   8.551   9.004   0.179 -1.0323  1.3425 -0.5284
28023SOL    HW286077   8.660   8.972   0.278  0.7939  1.6669 -2.3658
28024SOL     OW86078   5.075   8.401   0.987  0.0224  0.2780 -0.2561
28024SOL    HW186079   5.055   8.401   0.894  1.8629 -0.0135 -0.6962
28024SOL    HW286080   5.171   8.403   0.991  0.0323 -1.0654  1.6096
28025SOL     OW86081   0.872   0.857   7.114  1.0810  0.0930 -0.3158
28025SOL    HW186082   0.878   0.852   7.209  1.5457  1.0494 -0.2832
28025SOL    HW286083   0.786   0.895   7.097  0.8881 -0.3284 -0.2903
28026SOL     OW86084   6.868   4.389   7.099 -0.0620  0.2638  0.1980
28026SOL    HW186085   6.870   4.297   7.123 -0.5854  0.4185  0.8794
28026SOL    HW286086   6.944   4.402   7.043 -0.0994 -0.6244 -0.0668
28027SOL     OW86087   3.856   8.421   8.563  0.7336 -0.1761 -0.8155
28027SOL    HW186088   3.885   8.331   8.573  2.4030  0.5772  2.9004
28027SOL    HW286089   3.763   8.420   8.589  1.2015 -0.6494  0.9795
28028SOL     OW86090   9.346   7.985   3.576  0.0106  0.3930  0.1842
28028SOL    HW186091   9.410   7.914   3.584  0.6794  0.9623 -0.0375
28028SOL    HW286092   9.273   7.957   3.631  0.0372 -0.7100 -0.3157
28029SOL     OW86093   4.896  10.281   6.629  0.2748 -0.5297  0.1608
28029SOL    HW186094   4.869  10.313   6.543  0.1457 -1.4165 -0.1315
28029SOL    HW286095   4.840  10.330   6.690  0.2995  0.0325 -0.2589
28030SOL     OW86096   5.783   8.244   1.611 -0.0579  0.0672  0.1670
28030SOL    HW186097   5.831   8.324   1.591 -0.9533  0.5766 -0.0288
28030SOL    HW286098   5.842   8.173   1.586 -0.0787  0.6666 -1.7845
28031SOL     OW86099   6.136   7.152  10.483 -0.6388  0.3033 -0.5278
28031SOL    HW186100   6.119   7.084  10.418  0.9756 -0.2121 -0.4680
28031SOL    HW286101   6.054   7.160  10.532 -0.5622 -2.4918  0.2500
28032SOL     OW86102   4.341   6.550   9.750  0.1159  0.1090 -0.3773
28032SOL    HW186103   4.271   6.485   9.757  1.0415 -0.8146  1.1230
28032SOL    HW286104   4.387   6.529   9.669  0.2483 -0.9948 -0.0291
28033SOL     OW86105   5.690  10.022   0.306  0.7641 -0.0404 -0.3514
28033SOL    HW186106   5.723   9.941   0.268  0.0105 -0.3631 -0.3494
28033SOL    HW286107   5.674  10.080   0.231  1.2713  0.0972 -0.3550
28034SOL     OW86108   3.910   8.195   2.029 -0.2183  0.8011 -0.4147
28034SOL    HW186109   3.970   8.245   1.974  0.3963  1.5020  0.8568
28034SOL    HW286110   3.938   8.104   2.019 -0.0491  0.9361 -1.1735
28035SOL     OW86111   9.809   8.590   6.296 -0.8031 -0.2970  0.2850
28035SOL    HW186112   9.783   8.588   6.388  0.0004  4.3511  0.8436
28035SOL    HW286113   9.903   8.573   6.297 -0.6335  0.6168  0.4608
28036SOL     OW86114   9.240   4.644   8.253  0.4196  0.6203 -0.5638
28036SOL    HW186115   9.184   4.568   8.239  2.6923 -1.2060 -0.4935
28036SOL    HW286116   9.261   4.675   8.165  2.0488 -0.9549 -0.8111
28037SOL     OW86117   6.260   6.656   2.342  0.5753  0.6131  0.0564
28037SOL    HW186118   6.242   6.566   2.317 -0.9638  0.3863  1.7320
28037SOL    HW286119   6.217   6.666   2.427 -1.1671  3.5360 -1.0163
28038SOL     OW86120   7.132   2.394   6.606 -0.7774 -0.3321  0.6884
28038SOL    HW186121   7.101   2.303   6.607 -0.3741 -0.4740  0.2220
28038SOL    HW286122   7.225   2.388   6.626 -0.7540 -0.0141  0.6798
28039SOL     OW86123   2.374   5.361   7.301  0.0259  0.0551 -0.1944
28039SOL    HW186124   2.369   5.452   7.273 -1.0037  0.0989  0.0999
28039SOL    HW286125   2.408   5.314   7.225  3.0315  1.0187  0.4465
28040SOL     OW86126   7.900   1.624   0.316  0.3910 -0.1790  0.3687
28040SOL    HW186127   7.927   1.709   0.283 -2.0311 -0.3909 -2.7110
28040SOL    HW286128   7.834   1.644   0.382 -0.1199  0.3806 -0.2934
28041SOL     OW86129  10.395   8.438   3.907 -0.3029 -0.5735 -0.2588
28041SOL    HW186130  10.306   8.411   3.929 -0.7170 -1.0631 -2.3334
28041SOL    HW286131  10.403   8.422   3.813  1.8811 -0.2322 -0.1911
28042SOL     OW86132   9.986  10.788   3.040 -0.2039  0.4392 -0.4621
28042SOL    HW186133   9.928  10.722   3.003  0.5024 -1.0654  0.9516
28042SOL    HW286134  10.072  10.744   3.044  0.4696  1.7333 -0.2351
28043SOL     OW86135   5.770   0.741   6.058  0.1524  0.4941  0.5923
28043SOL    HW186136   5.865   0.753   6.056  0.1248  0.6601 -0.1242
28043SOL    HW286137   5.740   0.780   5.975 -0.6352  1.3217  1.2504
28044SOL     OW86138   9.105   8.760   9.781  0.3078  0.4255  0.8114
28044SOL    HW186139   9.115   8.753   9.686  0.0979  1.1201  0.7248
28044SOL    HW286140   9.169   8.700   9.817 -0.7658 -1.1397  0.2194
28045SOL     OW86141   7.410   0.664   9.180 -0.4763 -0.2515  0.3573
28045SOL    HW186142   7.320   0.690   9.201 -0.4007 -1.2727  2.2208
28045SOL    HW286143   7.402   0.572   9.153 -0.5492  0.9209 -4.5212
28046SOL     OW86144   6.264   3.200   8.284 -0.7268 -0.2752 -0.1720
28046SOL    HW186145   6.301   3.129   8.232  1.8279  0.9980 -0.2659
28046SOL    HW286146   6.201   3.158   8.342  0.5029 -2.5660 -0.3957
28047SOL     OW86147  10.630   6.947   8.644 -0.1553 -0.2893  1.1023
28047SOL    HW186148  10.653   6.861   8.680 -0.2908 -0.0261  1.8283
28047SOL    HW286149  10.639   6.936   8.549  1.4462 -0.6409  1.2545
28048SOL     OW86150   7.128   5.030   0.888 -0.2458  0.0601  0.0817
28048SOL    HW186151   7.140   5.121   0.915 -1.4728  0.2731 -0.0237
28048SOL    HW286152   7.102   4.985   0.969 -0.5504 -0.0073 -0.0543
28049SOL     OW86153   6.973   4.686   0.424  1.1871  0.4058 -0.2957
28049SOL    HW186154   6.990   4.745   0.351 -0.4316 -0.2192 -1.2324
28049SOL    HW286155   6.952   4.744   0.497 -2.8795  1.1884 -1.7990
28050SOL     OW86156   0.220   6.951  10.685  0.2383  0.1886  0.2850
28050SOL    HW186157   0.173   6.893  10.624 -1.1372  0.2707  1.2201
28050SOL    HW286158   0.301   6.973  10.639  0.4259 -1.8010 -0.4449
28051SOL     OW86159   1.632   8.514   5.422 -0.3072 -0.1599  0.4608
28051SOL    HW186160   1.568   8.481   5.359  1.7453  0.3521 -2.0164
28051SOL    HW286161   1.591   8.592   5.459 -1.3871 -0.2059 -0.5645
28052SOL     OW86162   4.373   3.204   9.884  0.4863 -0.2225 -0.4914
28052SOL    HW186163   4.360   3.168   9.797  0.8845 -1.8597  0.0870
28052SOL    HW286164   4.285   3.205   9.923  0.5791 -1.3879 -0.2259
28053SOL     OW86165   1.015   4.186   2.356  0.1522  0.7158 -0.0249
28053SOL    HW186166   1.037   4.210   2.446 -1.3419 -0.0312  0.5677
28053SOL    HW286167   0.986   4.095   2.361  1.5736  0.1212 -1.5407
28054SOL     OW86168   5.816   0.608   0.381  0.2650 -0.3973 -0.8572
28054SOL    HW186169   5.788   0.554   0.455 -1.3573 -0.4141 -1.4444
28054SOL    HW286170   5.839   0.692   0.420  2.4964 -1.3516  0.0280
28055SOL     OW86171   9.801   4.351   9.636 -0.4641  0.0867 -0.0781
28055SOL    HW186172   9.731   4.299   9.675 -0.3076  0.0223  0.1192
28055SOL    HW286173   9.796   4.436   9.680  0.1173 -0.1911  0.5518
28056SOL     OW86174  10.553  10.661   9.534  0.8843 -0.2869 -0.1388
28056SOL    HW186175  10.526  10.716   9.607  1.7412 -0.4582  0.3349
28056SOL    HW286176  10.503  10.580   9.545  0.0418  0.1775 -0.5103
28057SOL     OW86177   9.599   6.138   3.429  0.2718 -0.0625 -0.2376
28057SOL    HW186178   9.628   6.069   3.489 -1.1836 -0.3340  0.1949
28057SOL    HW286179   9.536   6.188   3.480 -0.2224  0.3341 -1.2161
28058SOL     OW86180   8.366   3.830   6.399  0.1998  0.4330  0.1322
28058SOL    HW186181   8.388   3.757   6.457 -0.6553 -0.7275 -0.9340
28058SOL    HW286182   8.434   3.828   6.331 -0.8844 -0.6509 -0.9746
28059SOL     OW86183   0.404   7.952   2.774 -0.4053 -0.6037  0.0647
28059SOL    HW186184   0.493   7.949   2.809  0.3513 -1.4998 -1.7804
28059SOL    HW286185   0.358   7.882   2.820 -0.1294 -0.2529  0.9000
28060SOL     OW86186   1.933   2.685   1.654  0.3726  0.1563 -0.2920
28060SOL    HW186187   1.878   2.724   1.586 -1.1280  1.0705  1.3520
28060SOL    HW286188   1.884   2.698   1.735  2.5972  0.1335  1.1508
28061SOL     OW86189   6.532   8.804   1.218 -0.2187  0.3843  0.6306
28061SOL    HW186190   6.508   8.728   1.165 -0.4415  0.5360  0.5130
28061SOL    HW286191   6.533   8.771   1.308  0.2768  0.0986  0.5201
28062SOL     OW86192   7.071  10.070   6.276  0.2980 -0.0517 -0.0740
28062SOL    HW186193   7.076  10.151   6.327 -0.5126  0.4723 -0.7938
28062SOL    HW286194   6.977  10.049   6.274  0.3339 -0.1736 -1.1508
28063SOL     OW86195   8.660  10.697   3.144 -0.6901  0.3192  0.5019
28063SOL    HW186196   8.745  10.742   3.149  0.6463 -2.0824  0.7993
28063SOL    HW286197   8.659  10.640   3.221 -1.0080 -2.2232 -1.2669
28064SOL     OW86198   9.247   4.702   0.805  0.2114  0.2212  0.0498
28064SOL    HW186199   9.324   4.654   0.776  1.5378  2.6612 -0.7689
28064SOL    HW286200   9.175   4.669   0.751  1.2965 -0.0468 -1.2579
28065SOL     OW86201   5.404   2.233   8.377  0.1269  0.2286 -0.2039
28065SOL    HW186202   5.376   2.305   8.433  1.0510  1.7657 -1.6345
28065SOL    HW286203   5.497   2.250   8.359  0.3453 -1.2631 -0.6704
28066SOL     OW86204  10.443   5.370   5.732 -0.1308  0.3187  0.4432
28066SOL    HW186205  10.505   5.423   5.782  0.9859 -2.3891  2.1510
28066SOL    HW286206  10.487   5.351   5.649 -0.2225  1.3489  0.1463
28067SOL     OW86207   0.919   8.193   9.186 -0.6011 -0.8685 -0.3263
28067SOL    HW186208   0.824   8.184   9.172 -0.4817  0.2737 -2.2967
28067SOL    HW286209   0.942   8.273   9.138  1.0356  0.0728  1.8951
28068SOL     OW86210   3.774   6.306   7.160  0.1238 -0.2094 -0.0151
28068SOL    HW186211   3.807   6.364   7.228 -1.0800 -0.0780  0.4722
28068SOL    HW286212   3.696   6.350   7.126 -0.7364 -1.4564  0.2742
28069SOL     OW86213  10.504   2.005  10.261 -0.3431 -0.3507 -0.7767
28069SOL    HW186214  10.582   1.967  10.300  0.1999 -0.1135 -1.6056
28069SOL    HW286215  10.536   2.053  10.185 -0.9855  1.9178  0.3188
28070SOL     OW86216   3.346   6.699   3.842  0.7527 -0.4277 -0.1412
28070SOL    HW186217   3.349   6.727   3.750  0.6237 -0.1539 -0.0647
28070SOL    HW286218   3.436   6.676   3.863  0.9139  0.2103 -0.1249
28071SOL     OW86219  10.091   4.341   7.641 -0.3280 -0.1599  0.6591
28071SOL    HW186220  10.129   4.395   7.572 -1.2151 -0.5445 -0.1449
28071SOL    HW286221  10.087   4.399   7.717 -1.2620  0.9290 -0.1878
28072SOL     OW86222   1.895   3.639   3.080 -0.6710  0.3699 -0.5450
28072SOL    HW186223   1.963   3.705   3.092  0.8867 -1.1582 -0.4424
28072SOL    HW286224   1.933   3.559   3.117 -1.3997 -1.1974 -2.9040
28073SOL     OW86225   3.631   8.550   9.061 -0.1561  0.7604 -0.0172
28073SOL    HW186226   3.658   8.505   9.141 -1.9712 -0.1664  0.1314
28073SOL    HW286227   3.558   8.498   9.027 -0.2582  1.8399 -1.5912
28074SOL     OW86228   1.806   4.732  10.714 -0.2911 -0.4208 -0.6597
28074SOL    HW186229   1.868   4.669  10.752 -0.9148 -1.6469 -1.6154
28074SOL    HW286230   1.750   4.679  10.657 -3.6984  0.2079  1.8188
28075SOL     OW86231   9.841   9.090   3.948 -0.5501 -0.2994  0.0086
28075SOL    HW186232   9.895   9.025   3.993 -0.0285  0.7181  0.8951
28075SOL    HW286233   9.883   9.174   3.968 -0.8321  0.2713 -1.6405
28076SOL     OW86234   4.016   7.732   4.917  0.1733  0.7600  0.2502
28076SOL    HW186235   3.993   7.642   4.894  0.4869  0.3262  1.5357
28076SOL    HW286236   3.934   7.769   4.950 -0.0250  1.0550 -0.5408
28077SOL     OW86237   6.317   5.322   1.780 -0.1019  0.6993 -0.4604
28077SOL    HW186238   6.247   5.360   1.833  0.4915  0.6266  0.4045
28077SOL    HW286239   6.272   5.265   1.718 -0.8239  0.8587 -0.0947
28078SOL     OW86240   2.892   4.812   0.651 -0.2061  0.2434 -0.7054
28078SOL    HW186241   2.927   4.889   0.696  1.1062 -0.1925 -0.9273
28078SOL    HW286242   2.899   4.832   0.558 -0.0134 -0.0765 -0.7611
28079SOL     OW86243   5.480   5.062   6.484  0.1618  0.1866 -0.0217
28079SOL    HW186244   5.538   5.005   6.533 -0.0515  0.4652  0.5685
28079SOL    HW286245   5.407   5.006   6.459  0.5970 -0.1218 -0.6169
28080SOL     OW86246   4.276  10.922   4.807  0.7515 -0.2529 -0.4886
28080SOL    HW186247   4.344  10.869   4.766 -1.1339 -1.7338 -1.9427
28080SOL    HW286248   4.218  10.946   4.734 -1.6267 -1.2137  0.9500
28081SOL     OW86249   9.574   0.903   4.748 -0.6398 -0.2289 -0.1637
28081SOL    HW186250   9.582   0.967   4.677 -2.4750 -0.2524 -0.4292
28081SOL    HW286251   9.487   0.865   4.737 -0.4570 -1.1686  1.3371
28082SOL     OW86252   5.515   4.669   7.116  0.2704 -0.5661 -0.0708
28082SOL    HW186253   5.421   4.675   7.101  0.2562 -1.1326 -0.2188
28082SOL    HW286254   5.535   4.745   7.170 -0.1219  0.0440 -0.7713
28083SOL     OW86255   0.480   5.471   7.866  0.0357 -0.1146 -0.3924
28083SOL    HW186256   0.509   5.507   7.950  1.3778 -1.0403 -0.4325
28083SOL    HW286257   0.559   5.468   7.812 -0.7105  0.0291 -1.5480
28084SOL     OW86258   1.522   4.900   9.829 -0.3180  0.0612 -0.1686
28084SOL    HW186259   1.472   4.822   9.807 -1.5183  1.5346 -3.1182
28084SOL    HW286260   1.611   4.867   9.846 -0.7714 -1.9386 -1.3688
28085SOL     OW86261  10.353   5.122   5.502  0.5021  0.9876 -0.5471
28085SOL    HW186262  10.371   5.062   5.430  1.6673  0.0877  0.4393
28085SOL    HW286263  10.429   5.180   5.504 -0.7210  2.6839 -1.6339
28086SOL     OW86264   7.816   7.358   0.281 -0.1813  0.0031  0.3309
28086SOL    HW186265   7.785   7.393   0.197  1.2570 -2.7482 -1.4781
28086SOL    HW286266   7.888   7.416   0.307 -0.1412  0.4385 -0.7281
28087SOL     OW86267   4.901   8.430  10.116 -0.1197  0.4753  0.4688
28087SOL    HW186268   4.909   8.389  10.030  0.8264  1.7304 -0.0714
28087SOL    HW286269   4.959   8.379  10.173 -0.3123 -0.0052  0.2398
28088SOL     OW86270   0.316   4.954   2.131  0.2447 -0.5614 -0.6464
28088SOL    HW186271   0.375   4.907   2.191 -1.2090 -1.5103  0.0816
28088SOL    HW286272   0.318   4.903   2.050 -1.2842 -1.9198  0.1229
28089SOL     OW86273   1.411   4.047  10.186 -0.1017  0.8195  0.0191
28089SOL    HW186274   1.319   4.060  10.163  0.3853  1.1328 -1.9099
28089SOL    HW286275   1.419   3.952  10.196 -0.0721  0.4354 -2.7665
28090SOL     OW86276   7.967  10.526   2.544 -0.3507  0.0880  0.0508
28090SOL    HW186277   7.924  10.443   2.528 -1.5284  0.6336  0.2545
28090SOL    HW286278   7.961  10.574   2.462  1.2069 -0.3776 -0.3735
28091SOL     OW86279   4.965  10.810   4.093 -0.0205 -0.0094 -0.4827
28091SOL    HW186280   5.004  10.837   4.010  2.0299  4.4122  1.5306
28091SOL    HW286281   4.874  10.790   4.073  0.3105  1.2305 -3.7087
28092SOL     OW86282   0.889   1.475   0.050 -0.2022 -0.3388  0.0986
28092SOL    HW186283   0.915   1.466  -0.042  0.0144  2.5219 -0.1919
28092SOL    HW286284   0.797   1.446   0.052 -0.2345 -0.3430 -1.0196
28093SOL     OW86285   8.174   1.078   1.738 -0.3037 -0.1828  0.2711
28093SOL    HW186286   8.204   1.033   1.660  1.8681 -0.5834  1.2754
28093SOL    HW286287   8.251   1.124   1.771 -1.1676  0.0385  2.1287
28094SOL     OW86288   8.997  11.037   2.754  1.0453 -0.0369 -0.0559
28094SOL    HW186289   9.078  11.089   2.754  0.6626  0.8430 -3.5666
28094SOL    HW286290   9.026  10.949   2.729  1.0737 -0.1099  0.2305
28095SOL     OW86291   7.659   9.324   9.374  0.6046 -0.3212 -0.0595
28095SOL    HW186292   7.673   9.418   9.361  1.8261 -0.4619  0.1658
28095SOL    HW286293   7.578   9.320   9.425 -1.0542  0.4572 -2.4418
28096SOL     OW86294   1.868   5.829   3.086  0.6650  0.2961 -0.1335
28096SOL    HW186295   1.869   5.809   2.993 -0.8963  1.4097 -0.4469
28096SOL    HW286296   1.813   5.908   3.093 -0.3386 -0.4890  1.8430
28097SOL     OW86297   3.503   6.601   9.910 -0.1948  0.5093 -0.9112
28097SOL    HW186298   3.511   6.696   9.908 -3.2771  0.9116  0.4366
28097SOL    HW286299   3.414   6.584   9.880 -0.1516 -1.8519  0.1215
28098SOL     OW86300   8.066  10.208  10.109 -0.2203 -0.3158  0.2846
28098SOL    HW186301   8.135  10.152  10.075  1.9454  2.0721  0.4744
28098SOL    HW286302   8.056  10.277  10.043 -2.7060 -0.7547  0.1062
28099SOL     OW86303   4.005   3.345   0.176  0.1428  0.7513  0.0833
28099SOL    HW186304   3.962   3.429   0.194 -1.9248 -0.2452  0.1177
28099SOL    HW286305   4.096   3.358   0.201 -0.2818  2.7676  0.7305
28100SOL     OW86306   2.646   7.947   3.388 -0.1208  0.4481  0.1956
28100SOL    HW186307   2.649   8.032   3.344 -0.3441  0.4602  0.2022
28100SOL    HW286308   2.569   7.952   3.444 -1.8437 -0.7734 -1.8979
28101SOL     OW86309   3.798   0.933   2.567  0.6263  0.1377 -0.0692
28101SOL    HW186310   3.743   0.956   2.492 -2.1880 -2.6589  0.9057
28101SOL    HW286311   3.744   0.951   2.644  0.6760 -3.1885  0.9249
28102SOL     OW86312  10.630   8.785   0.424  0.5472 -0.2792  0.1141
28102SOL    HW186313  10.635   8.864   0.370  1.0221  0.4811  1.2336
28102SOL    HW286314  10.536   8.768   0.433  0.4170  0.6195  0.5052
28103SOL     OW86315   2.000   2.900   6.977  0.1805 -0.9991 -0.0457
28103SOL    HW186316   2.056   2.882   6.901 -1.5654  0.0110 -1.6480
28103SOL    HW286317   1.918   2.930   6.939 -1.1338 -1.5123  2.2595
28104SOL     OW86318   2.798   3.782   4.571  0.8579 -0.3826  0.1243
28104SOL    HW186319   2.838   3.698   4.594 -0.0555 -0.4487  1.6029
28104SOL    HW286320   2.704   3.767   4.582  0.7669  1.3120  2.1644
28105SOL     OW86321   6.294   2.839   1.023 -0.0407 -0.2242 -0.1171
28105SOL    HW186322   6.304   2.887   1.105  0.4866 -0.8050  0.1737
28105SOL    HW286323   6.201   2.848   1.000  0.2083  1.6658 -0.5513
28106SOL     OW86324   6.884  10.277   3.395 -0.1310  0.4473 -0.2690
28106SOL    HW186325   6.852  10.320   3.316  0.4802  1.2295 -0.0977
28106SOL    HW286326   6.850  10.330   3.467  0.5571  0.6073 -0.0550
28107SOL     OW86327   6.835   2.399   9.476 -0.2909 -0.3443  0.5052
28107SOL    HW186328   6.838   2.314   9.520 -1.3006 -0.5559  0.1880
28107SOL    HW286329   6.918   2.404   9.427  0.1213 -0.7951  1.1417
28108SOL     OW86330   6.286   5.004   3.794  0.6297  0.0026 -0.4809
28108SOL    HW186331   6.205   4.953   3.787  0.8590 -0.3009 -0.8727
28108SOL    HW286332   6.281   5.067   3.722 -0.6895  2.0147  1.2363
28109SOL     OW86333  10.224   3.501   1.236  0.6708  0.9430 -0.6236
28109SOL    HW186334  10.287   3.430   1.224  0.7372  0.5602  1.5520
28109SOL    HW286335  10.138   3.460   1.222  0.5782 -0.1294  2.3127
28110SOL     OW86336   1.920   6.495   5.950 -0.1553  0.0387  0.4241
28110SOL    HW186337   1.950   6.586   5.944 -1.5914  0.4363 -1.6520
28110SOL    HW286338   1.836   6.501   5.996  0.4184 -0.4561  1.5848
28111SOL     OW86339   5.021   1.079   0.337 -0.1385  0.2550  0.5158
28111SOL    HW186340   4.947   1.089   0.396  0.3076  1.2495  0.9393
28111SOL    HW286341   5.097   1.075   0.396  0.2266  0.2971  0.0468
28112SOL     OW86342   3.510   4.615   9.508 -0.1799 -0.6022 -0.1867
28112SOL    HW186343   3.509   4.707   9.532  0.3855 -1.0712  1.8653
28112SOL    HW286344   3.425   4.581   9.540  0.8231 -1.3625  1.8952
28113SOL     OW86345   6.100  10.414   6.374 -0.0855  0.1163 -0.3078
28113SOL    HW186346   6.161  10.387   6.443  2.1097  2.8693 -0.9654
28113SOL    HW286347   6.019  10.436   6.420 -0.3855 -2.6830  0.7144
28114SOL     OW86348   5.876   2.335   5.906  0.3412  0.2140  1.0218
28114SOL    HW186349   5.960   2.380   5.912  0.8868 -0.9443  2.5691
28114SOL    HW286350   5.895   2.254   5.859 -0.0692  0.2837  0.7300
28115SOL     OW86351   4.232   5.626  10.819 -0.4039 -0.3054  0.0097
28115SOL    HW186352   4.190   5.579  10.891  1.2722 -0.0584  1.2144
28115SOL    HW286353   4.304   5.674  10.861 -0.5307  1.3363 -1.5667
28116SOL     OW86354   5.238   2.464   4.699  0.3540 -0.4780  0.3238
28116SOL    HW186355   5.247   2.558   4.719  0.8216 -0.1003 -1.5228
28116SOL    HW286356   5.167   2.459   4.635  0.3793 -1.3842  0.3540
28117SOL     OW86357   5.790   0.820   5.427 -0.7999  0.0099  0.0968
28117SOL    HW186358   5.796   0.756   5.355 -2.3672 -0.1798  0.0896
28117SOL    HW286359   5.880   0.848   5.441 -0.4744  0.4511 -2.2982
28118SOL     OW86360  10.857   2.758   3.877  0.1304  0.1384  0.2574
28118SOL    HW186361  10.847   2.727   3.787  2.1080 -1.3101  0.4649
28118SOL    HW286362  10.812   2.842   3.879  0.9173  0.7127 -2.3628
28119SOL     OW86363   1.294  10.093   0.991  0.1288  0.5638  0.5898
28119SOL    HW186364   1.349  10.036   0.938 -3.0429 -1.5157 -0.7797
28119SOL    HW286365   1.265  10.162   0.931 -1.7067 -0.5515  0.0979
28120SOL     OW86366   8.321   6.527   4.173 -0.0321 -0.1160 -0.6857
28120SOL    HW186367   8.400   6.489   4.136 -1.3373 -3.1490 -0.6314
28120SOL    HW286368   8.254   6.514   4.106 -0.7624  1.3353 -0.2770
28121SOL     OW86369   9.690   5.603   4.153 -0.8931  0.2019  0.2190
28121SOL    HW186370   9.699   5.508   4.159  0.9998  0.3617  0.2811
28121SOL    HW286371   9.628   5.617   4.081 -2.4857 -1.0881  1.2623
28122SOL     OW86372  10.641   7.557   0.699 -0.3238 -0.3945  0.1456
28122SOL    HW186373  10.622   7.466   0.678  0.7226 -0.6265  0.1856
28122SOL    HW286374  10.645   7.601   0.614  0.6716 -0.6907  0.0304
28123SOL     OW86375   6.921   0.584   2.422 -0.5189 -0.2313 -0.5766
28123SOL    HW186376   6.990   0.526   2.391 -2.4516 -2.2827 -1.3373
28123SOL    HW286377   6.891   0.630   2.343 -0.8292 -0.2358 -0.4617
28124SOL     OW86378   1.438   3.190  10.730  0.3469  0.6575 -0.4505
28124SOL    HW186379   1.355   3.156  10.697 -0.3430  1.0030  0.8523
28124SOL    HW286380   1.470   3.246  10.660 -1.0696  1.3837 -0.5654
28125SOL     OW86381   4.951   6.795   5.257 -0.3165  0.4337 -0.4759
28125SOL    HW186382   5.013   6.799   5.185  2.7012 -1.7206  1.7758
28125SOL    HW286383   4.936   6.887   5.280 -0.9659  1.1565 -3.3785
28126SOL     OW86384   6.172   5.836   8.815 -0.3243  0.0393 -0.1807
28126SOL    HW186385   6.086   5.847   8.774  0.2616 -0.7352 -1.6813
28126SOL    HW286386   6.180   5.912   8.872 -1.9312  0.2177 -0.1307
28127SOL     OW86387   4.267   2.516   4.361  0.5284  0.8416  0.5764
28127SOL    HW186388   4.302   2.588   4.413 -0.8687  2.9532 -1.2231
28127SOL    HW286389   4.284   2.541   4.270  0.1034 -1.1666 -0.1112
28128SOL     OW86390   6.423   0.824  10.810 -0.0215 -0.2976 -0.3158
28128SOL    HW186391   6.493   0.841  10.746 -0.8704 -1.1545 -1.5188
28128SOL    HW286392   6.343   0.819  10.757 -0.8705 -0.2133  0.9277
28129SOL     OW86393   2.401   0.124   7.663 -0.0453  0.3568 -0.5935
28129SOL    HW186394   2.346   0.115   7.586  0.3220  0.6730 -0.8963
28129SOL    HW286395   2.351   0.083   7.734 -0.4117  0.1310 -0.9828
28130SOL     OW86396   0.002   7.334   6.431 -0.2557 -0.4904  0.2821
28130SOL    HW186397   0.062   7.395   6.474 -0.5421 -0.8225  1.1758
28130SOL    HW286398   0.028   7.336   6.339 -1.1693  2.1144 -0.0251
28131SOL     OW86399   9.686  10.098   0.537 -0.1687 -0.2074 -0.1592
28131SOL    HW186400   9.624  10.145   0.592  0.7565  1.3904 -0.4234
28131SOL    HW286401   9.772  10.123   0.571  0.3571 -1.6481 -0.3790
28132SOL     OW86402   2.841   1.506   1.402  0.0770  0.8136  0.2827
28132SOL    HW186403   2.930   1.542   1.392  0.1500  0.6877  0.4564
28132SOL    HW286404   2.804   1.555   1.475 -0.3129  1.4667 -0.3536
28133SOL     OW86405   8.681   8.147   3.511 -0.0922  0.6175 -0.2061
28133SOL    HW186406   8.757   8.090   3.500 -0.2973  0.2174  0.4133
28133SOL    HW286407   8.700   8.198   3.590  0.8029  2.5760 -1.6089
28134SOL     OW86408   5.838   3.599   4.668  0.1975 -0.4370 -0.6262
28134SOL    HW186409   5.786   3.522   4.691  0.1475 -0.1019  0.4438
28134SOL    HW286410   5.812   3.620   4.578 -0.1122 -1.3994 -0.7714
28135SOL     OW86411   5.876   7.289  10.290  0.0155 -0.4200 -0.3766
28135SOL    HW186412   5.834   7.240  10.220  0.6290  0.9490 -1.7643
28135SOL    HW286413   5.964   7.306  10.258 -0.1198  1.4214  0.1078
28136SOL     OW86414   9.183   1.513   2.078 -0.6418  0.3466 -0.4497
28136SOL    HW186415   9.256   1.535   2.020 -0.7837 -0.3436 -0.8991
28136SOL    HW286416   9.223   1.506   2.165 -0.0609 -0.5340 -0.7719
28137SOL     OW86417  10.079  10.002   4.450 -0.2695  0.0669  0.0313
28137SOL    HW186418  10.064  10.032   4.360 -0.5549 -2.0667 -0.6983
28137SOL    HW286419  10.154   9.944   4.443  0.4347  0.7751  1.4125
28138SOL     OW86420   8.146   9.545   3.130  0.6538  0.1069 -0.3846
28138SOL    HW186421   8.110   9.580   3.049 -1.9306  1.9722  1.3984
28138SOL    HW286422   8.080   9.483   3.161  0.7146  0.7469  1.1186
28139SOL     OW86423   2.618   1.390   4.274  0.1021  0.3722  0.0257
28139SOL    HW186424   2.591   1.394   4.366  1.9843 -1.3785  0.7147
28139SOL    HW286425   2.583   1.307   4.243 -2.4664  1.9297 -1.5954
28140SOL     OW86426   8.775   1.762   7.212  0.3440  0.1903 -0.0840
28140SOL    HW186427   8.824   1.789   7.134  0.6360 -1.4599 -0.5171
28140SOL    HW286428   8.793   1.829   7.277  1.9666  0.4070 -0.7260
28141SOL     OW86429   9.497   6.197   0.196  0.3140 -0.0729  0.3249
28141SOL    HW186430   9.448   6.118   0.174  1.8409 -1.4000  1.3791
28141SOL    HW286431   9.431   6.261   0.221 -1.0629 -0.4807 -2.0271
28142SOL     OW86432   9.972   2.200   4.744 -0.6583  0.2471  0.1283
28142SOL    HW186433   9.986   2.250   4.824 -1.1669  1.7746 -0.6875
28142SOL    HW286434  10.059   2.169   4.719 -0.6296 -1.0799  1.7617
28143SOL     OW86435   8.596   4.677   6.322  0.1837 -0.1836  0.5553
28143SOL    HW186436   8.610   4.772   6.332  0.7403 -0.3128  1.0777
28143SOL    HW286437   8.603   4.643   6.412  0.9988 -0.8548  0.2423
28144SOL     OW86438   8.892   4.784   8.236 -0.5742 -0.0664 -0.4331
28144SOL    HW186439   8.873   4.706   8.183 -0.6469 -1.0401  0.9430
28144SOL    HW286440   8.967   4.824   8.194  0.9187 -2.1795  0.0610
28145SOL     OW86441   1.119   4.417   2.234  0.2417  0.8991  0.0618
28145SOL    HW186442   1.088   4.332   2.264  0.2526  0.7710 -0.2832
28145SOL    HW286443   1.042   4.474   2.241  0.4303  1.0458  0.9929
28146SOL     OW86444   3.819   7.351   5.042  0.5826  0.2388  0.0636
28146SOL    HW186445   3.891   7.393   4.994 -1.1700 -1.4497 -4.6480
28146SOL    HW286446   3.745   7.356   4.982 -2.6057 -0.5070  3.5595
28147SOL     OW86447   1.195   2.815   0.519 -0.0032 -0.1968 -0.1535
28147SOL    HW186448   1.237   2.901   0.518  0.3774 -0.3810 -1.3934
28147SOL    HW286449   1.224   2.775   0.601 -2.2441  1.8151  1.7609
28148SOL     OW86450   5.218   0.003   7.426 -0.2696  0.3332 -0.6243
28148SOL    HW186451   5.124  -0.009   7.445  0.1733 -3.3267 -0.0913
28148SOL    HW286452   5.245  -0.078   7.385  3.3369 -0.1690  2.2135
28149SOL     OW86453   8.859   9.522   9.820 -0.5232  0.0007 -0.1308
28149SOL    HW186454   8.818   9.607   9.834 -0.9917 -0.3532  0.7159
28149SOL    HW286455   8.798   9.475   9.764 -0.5357  0.0201 -0.1328
28150SOL     OW86456   7.450   8.546  10.537  0.5791 -0.0738  0.2499
28150SOL    HW186457   7.477   8.628  10.497 -3.1291  0.2418 -2.0452
28150SOL    HW286458   7.407   8.571  10.618  0.5207  0.1236  0.1573
28151SOL     OW86459   8.133   6.842   4.002 -0.2386 -0.1288 -0.3970
28151SOL    HW186460   8.044   6.876   4.007 -0.6124 -1.1763  0.0901
28151SOL    HW286461   8.187   6.911   4.041 -0.9411  0.0847  0.2051
28152SOL     OW86462   2.797   2.098   9.073 -0.6745  0.5533 -0.1335
28152SOL    HW186463   2.891   2.115   9.068 -0.6904  1.1208  1.1106
28152SOL    HW286464   2.790   2.015   9.120 -0.7275 -1.3009 -3.1324
28153SOL     OW86465   5.645   9.313   5.163 -0.6455 -0.1083 -0.3897
28153SOL    HW186466   5.581   9.356   5.220 -2.5088 -0.0960 -2.3860
28153SOL    HW286467   5.694   9.255   5.222 -1.0019  1.4831  1.5803
28154SOL     OW86468   1.389   1.029   8.362 -0.3153  0.0970  0.3235
28154SOL    HW186469   1.307   0.980   8.369  0.2105 -0.7523  0.6487
28154SOL    HW286470   1.454   0.964   8.334  0.8296  0.1223  2.6800
28155SOL     OW86471   9.970   1.904   6.037  0.1533 -0.1070 -0.6185
28155SOL    HW186472   9.886   1.872   6.069  1.6371 -1.5277  2.1472
28155SOL    HW286473  10.020   1.825   6.018  1.0102  0.7203 -1.9843
28156SOL     OW86474   3.508   6.595   8.596  0.0366 -0.4069  0.3157
28156SOL    HW186475   3.433   6.604   8.655  0.7582 -1.2597  1.4050
28156SOL    HW286476   3.484   6.522   8.538  0.2849 -1.1385  1.1095
28157SOL     OW86477   2.732   9.560   2.540 -0.1413 -0.5659  0.7047
28157SOL    HW186478   2.808   9.614   2.563  1.3373 -2.5151  0.6748
28157SOL    HW286479   2.758   9.471   2.566 -3.4037 -1.0019  3.0233
28158SOL     OW86480  10.709   8.067   4.945 -0.4351  0.1655  0.4237
28158SOL    HW186481  10.631   8.014   4.929  0.9435 -2.1057  0.8355
28158SOL    HW286482  10.749   8.078   4.859 -0.6528  0.4412  0.3564
28159SOL     OW86483  10.184   3.884   4.992 -0.1582  0.0473  0.0031
28159SOL    HW186484  10.194   3.873   4.897  1.6748  0.9571  0.0571
28159SOL    HW286485  10.239   3.959   5.014 -2.1431  1.1605  1.5218
28160SOL     OW86486   9.545   9.319   1.998  0.5716 -0.0340  0.2601
28160SOL    HW186487   9.638   9.307   2.015  0.1722 -0.8762  2.0800
28160SOL    HW286488   9.535   9.414   1.985  1.3469  0.4273  2.5659
28161SOL     OW86489   2.275   3.542   3.750 -0.8343 -0.1321 -0.1313
28161SOL    HW186490   2.281   3.563   3.656 -2.7559 -1.2158 -0.5587
28161SOL    HW286491   2.182   3.524   3.764 -0.4273 -0.9330  1.7819
28162SOL     OW86492   7.866  10.912   5.321 -0.1945 -0.1255  0.0560
28162SOL    HW186493   7.928  10.856   5.366  1.0290  1.0872 -0.0531
28162SOL    HW286494   7.783  10.865   5.326  0.9051 -2.3151 -0.7055
28163SOL     OW86495   3.052   1.362   7.500  0.1556 -0.0605  0.2629
28163SOL    HW186496   3.016   1.346   7.412 -1.6391  0.8183  0.7806
28163SOL    HW286497   3.089   1.278   7.526 -1.7757 -1.1499 -0.2589
28164SOL     OW86498  10.940   2.226   6.224  0.0433  0.5219  0.7603
28164SOL    HW186499  10.912   2.264   6.140  0.9087  0.6095  0.5066
28164SOL    HW286500  10.929   2.132   6.212  0.9396  0.4693  0.2413
28165SOL     OW86501   4.041   0.833   6.278  0.5825 -0.4855 -0.1440
28165SOL    HW186502   3.959   0.857   6.321  1.0192  0.6069  0.1233
28165SOL    HW286503   4.063   0.748   6.314 -1.7660 -2.0762 -2.1721
28166SOL     OW86504   9.277   2.097   4.607  0.0127  0.3455  0.4278
28166SOL    HW186505   9.367   2.119   4.581 -0.9772  0.0656 -4.0356
28166SOL    HW286506   9.276   2.002   4.612 -0.3371  0.2310 -1.2636
28167SOL     OW86507   1.011   3.383   4.475  0.1577  0.1985 -0.5450
28167SOL    HW186508   0.969   3.298   4.464  1.0480 -0.5970  1.6217
28167SOL    HW286509   0.973   3.419   4.556  3.2516 -0.4312  1.3584
28168SOL     OW86510   8.844   6.577   9.562 -0.1710  0.3068 -0.6054
28168SOL    HW186511   8.829   6.495   9.516 -1.8788  0.2492 -0.0159
28168SOL    HW286512   8.856   6.552   9.653  1.0055  0.5988 -0.6629
28169SOL     OW86513   0.127   3.365   7.245 -0.4022  0.4788 -0.1072
28169SOL    HW186514   0.073   3.287   7.236 -0.1695  0.3549 -0.4317
28169SOL    HW286515   0.115   3.413   7.163 -0.9643  1.0530  0.3022
28170SOL     OW86516   5.938   4.158   0.820 -0.2466  0.5974  0.5468
28170SOL    HW186517   5.996   4.082   0.825 -2.3665 -1.3344 -1.2920
28170SOL    HW286518   5.996   4.233   0.813  2.0158 -1.0986  0.0349
28171SOL     OW86519   5.337  10.631  10.182  0.0696 -0.0344  0.4012
28171SOL    HW186520   5.283  10.649  10.105  0.5300  2.2848  0.5502
28171SOL    HW286521   5.276  10.591  10.244 -0.0939 -2.9628 -1.4242
28172SOL     OW86522   7.686   9.501   8.005  0.3930 -0.2325  0.1713
28172SOL    HW186523   7.734   9.460   7.933  1.8435  1.8269 -0.1128
28172SOL    HW286524   7.602   9.455   8.007  0.4904 -0.6742 -2.5270
28173SOL     OW86525   7.245   0.922   0.915  0.0003 -0.9957  0.0736
28173SOL    HW186526   7.218   0.845   0.965 -0.6182 -0.9508 -0.1824
28173SOL    HW286527   7.271   0.986   0.981 -1.7049 -0.5931  0.4082
28174SOL     OW86528   6.134   6.160   1.519 -0.5909 -0.5229  0.5898
28174SOL    HW186529   6.202   6.155   1.452  0.6482 -0.8712  1.8153
28174SOL    HW286530   6.182   6.161   1.602 -2.0062  1.1505  1.4651
28175SOL     OW86531   2.931   5.422   5.578 -0.7092 -0.2307 -0.3129
28175SOL    HW186532   2.842   5.420   5.542  0.0398 -1.6128 -2.2459
28175SOL    HW286533   2.928   5.490   5.646 -3.0107  0.3310 -0.8925
28176SOL     OW86534   2.537  10.606   2.421  0.5806  0.8400  0.2703
28176SOL    HW186535   2.623  10.569   2.441  0.5647  0.9504  0.5561
28176SOL    HW286536   2.495  10.616   2.507  0.2661  0.7455  0.1286
28177SOL     OW86537   8.147   9.404   6.383 -0.4434  0.4284 -0.4037
28177SOL    HW186538   8.097   9.352   6.446  0.3293  1.7502  1.4386
28177SOL    HW286539   8.239   9.387   6.407 -0.0984  0.3914 -1.7001
28178SOL     OW86540   5.641   9.232   2.848 -0.3512 -0.9231 -0.3505
28178SOL    HW186541   5.621   9.292   2.776 -0.1865  1.9403  1.8172
28178SOL    HW286542   5.733   9.210   2.835  0.2116  1.0494 -0.0968
28179SOL     OW86543   5.413   5.987  10.638  0.1864  0.0597 -0.5391
28179SOL    HW186544   5.492   5.936  10.653 -0.0997 -0.3759 -0.4784
28179SOL    HW286545   5.402   5.986  10.542 -0.0734 -0.3972 -0.5096
28180SOL     OW86546   2.344   4.429   7.059  0.4471 -0.0492  0.5168
28180SOL    HW186547   2.329   4.523   7.051  1.9779  0.0956 -1.4937
28180SOL    HW286548   2.369   4.401   6.971  2.1010 -1.9404  1.4960
28181SOL     OW86549   5.984   4.690  10.939  0.1511 -0.0828 -0.4996
28181SOL    HW186550   5.903   4.650  10.969  0.3300  0.7374  1.2108
28181SOL    HW286551   6.030   4.621  10.892  0.1588 -1.7299  1.7798
28182SOL     OW86552   4.497   2.538   1.550 -0.0536  0.6492  0.0338
28182SOL    HW186553   4.559   2.567   1.484  0.3229 -1.9888 -0.8932
28182SOL    HW286554   4.439   2.613   1.564  0.8851  1.8251 -2.0255
28183SOL     OW86555   4.210   9.826   3.216  0.0814 -0.0196  0.5135
28183SOL    HW186556   4.237   9.842   3.306 -0.6919  2.7849  0.3489
28183SOL    HW286557   4.130   9.774   3.224 -0.8991  1.5511  1.6023
28184SOL     OW86558   6.268   7.170   2.492  0.3517 -0.3749  0.0531
28184SOL    HW186559   6.273   7.219   2.410  1.7786 -0.2860  0.1674
28184SOL    HW286560   6.174   7.163   2.510  0.0333  0.0027 -1.3407
28185SOL     OW86561   4.250   7.365  11.094 -0.7697  0.1201 -0.1126
28185SOL    HW186562   4.197   7.438  11.127 -1.4566  0.6973 -2.2556
28185SOL    HW286563   4.331   7.369  11.143 -2.7376 -0.9823  3.5575
28186SOL     OW86564  10.859   7.705   8.946  0.0240 -0.2227 -0.3349
28186SOL    HW186565  10.839   7.738   8.858 -0.1946 -1.3865 -0.7326
28186SOL    HW286566  10.819   7.770   9.005  2.7783  2.2704 -0.9723
28187SOL     OW86567   4.346   4.792   1.110  0.0363  0.3803  0.1462
28187SOL    HW186568   4.254   4.785   1.135  0.1050 -0.6534  0.1596
28187SOL    HW286569   4.347   4.766   1.018  0.6677 -2.5262  0.8768
28188SOL     OW86570   6.897  10.160   2.388  0.2424  0.3819  0.2791
28188SOL    HW186571   6.877  10.190   2.477  1.3921  2.4872 -0.1049
28188SOL    HW286572   6.991  10.142   2.389 -0.0580 -1.4283 -0.0588
28189SOL     OW86573   6.036   0.737   6.042  0.0295  0.5301  0.4602
28189SOL    HW186574   6.105   0.723   5.977 -0.8456  1.9222 -0.8344
28189SOL    HW286575   6.083   0.754   6.124  1.2072  0.7767 -0.2464
28190SOL     OW86576  10.326   9.035  10.524 -0.1112 -0.0316 -0.2828
28190SOL    HW186577  10.394   9.006  10.463 -1.3509 -0.5823 -1.4346
28190SOL    HW286578  10.371   9.098  10.581  1.8879 -1.9184  0.3702
28191SOL     OW86579   2.019   8.203   2.209 -0.2223 -0.1924  0.3233
28191SOL    HW186580   1.928   8.175   2.210  0.3494 -2.3597 -1.4024
28191SOL    HW286581   2.070   8.122   2.200  1.7808  1.0749 -0.7103
28192SOL     OW86582   8.929   0.311   5.406  1.0608  0.0557  0.5555
28192SOL    HW186583   9.021   0.284   5.398  1.1270  0.4537 -0.0574
28192SOL    HW286584   8.933   0.394   5.455  1.0886  0.4272 -0.0650
28193SOL     OW86585   8.810  10.945   7.381  0.0318  0.8268 -0.2847
28193SOL    HW186586   8.885  10.914   7.330 -0.4303  1.2835 -1.2588
28193SOL    HW286587   8.765  10.865   7.408  0.5931  0.5655 -0.0864
28194SOL     OW86588   7.254  10.055   4.624 -0.1092 -0.6003  0.2464
28194SOL    HW186589   7.302  10.131   4.655 -1.4173 -0.0298  0.9695
28194SOL    HW286590   7.245  10.068   4.530  0.9792 -0.6343  0.1325
28195SOL     OW86591   2.219   9.369   5.726  0.4672 -0.2029 -0.1645
28195SOL    HW186592   2.126   9.381   5.743  1.0703  2.4546  1.8720
28195SOL    HW286593   2.257   9.351   5.812  2.0406  0.4510 -0.6864
28196SOL     OW86594   5.329   0.589   3.219 -0.2859 -0.3242  0.7560
28196SOL    HW186595   5.299   0.628   3.137 -0.9189 -1.4409  0.4351
28196SOL    HW286596   5.296   0.647   3.287  0.5874  0.8352  0.2243
28197SOL     OW86597   5.566   9.694   2.466 -0.5980 -0.5628 -0.4459
28197SOL    HW186598   5.610   9.616   2.433  0.4769  0.2073 -0.8808
28197SOL    HW286599   5.635   9.744   2.510 -1.0251  0.6275 -1.0746
28198SOL     OW86600   4.248   2.312  10.214  0.0437 -0.3293  0.0954
28198SOL    HW186601   4.225   2.308  10.121 -1.5985 -0.7360  0.4751
28198SOL    HW286602   4.268   2.221  10.238  1.2129 -0.1155 -0.0104
28199SOL     OW86603   7.354   5.869   6.016  0.4731 -0.3250  0.2262
28199SOL    HW186604   7.319   5.958   6.009 -0.2429 -0.7155 -2.0150
28199SOL    HW286605   7.295   5.824   6.076  0.8972  0.7086  1.4601
28200SOL     OW86606   5.191   1.580  10.632  0.1561  0.4994 -0.6092
28200SOL    HW186607   5.242   1.501  10.613 -1.0983 -0.6787  0.6731
28200SOL    HW286608   5.216   1.642  10.563  2.1885 -0.5239 -0.8582
28201SOL     OW86609  10.851   8.651   9.937  0.3801 -0.1168  0.1742
28201SOL    HW186610  10.872   8.744   9.934  0.9777 -0.2150  1.0266
28201SOL    HW286611  10.852   8.623   9.845 -1.1086  0.9880 -0.2162
28202SOL     OW86612   3.027   2.721   7.329  0.0608  0.1695 -0.6156
28202SOL    HW186613   3.005   2.642   7.281 -0.5154 -1.6662  2.3995
28202SOL    HW286614   2.943   2.757   7.357  0.3938 -0.6243  1.6059
28203SOL     OW86615   9.650   9.247   6.397  0.0968  0.3026  0.2494
28203SOL    HW186616   9.739   9.248   6.363 -0.3783 -1.2370 -1.1357
28203SOL    HW286617   9.637   9.158   6.428 -0.9685  0.5076  0.4435
28204SOL     OW86618   9.672   5.033   9.842 -0.1532  0.2853 -0.1135
28204SOL    HW186619   9.745   4.988   9.799 -0.1445 -0.1050  0.3005
28204SOL    HW286620   9.701   5.124   9.850  0.4992  0.0357  0.4971
28205SOL     OW86621   9.048   4.573   0.679  0.2041  0.4451 -0.1621
28205SOL    HW186622   8.975   4.622   0.715 -0.6206  0.6205 -1.9669
28205SOL    HW286623   9.010   4.490   0.650  0.6599  0.6026 -1.2716
28206SOL     OW86624   9.607   2.085   0.600  0.0235  0.3138 -0.4714
28206SOL    HW186625   9.540   2.097   0.533 -1.1950 -1.9797  0.2092
28206SOL    HW286626   9.565   2.114   0.682 -1.0148 -2.8641  0.2808
28207SOL     OW86627   1.053   7.932   6.799 -0.1171 -0.0130  0.2913
28207SOL    HW186628   1.096   8.002   6.849  0.5497 -0.6074  0.5536
28207SOL    HW286629   0.963   7.934   6.830 -0.0944  0.6871  0.3475
28208SOL     OW86630   0.422  10.123  10.754 -0.2040 -0.3357 -0.3712
28208SOL    HW186631   0.363  10.198  10.746  0.2940  0.0114 -0.8782
28208SOL    HW286632   0.373  10.059  10.806 -0.1550  0.8363  1.1903
28209SOL     OW86633   7.802   6.261   6.317  0.1412 -0.0311 -0.1781
28209SOL    HW186634   7.789   6.356   6.319  0.9998  0.0873  1.0511
28209SOL    HW286635   7.817   6.237   6.409 -0.7975 -1.4713 -0.3695
28210SOL     OW86636   7.008   2.795   3.903  0.0430  0.2468 -0.0256
28210SOL    HW186637   7.072   2.812   3.835 -0.9687  3.2140 -0.3705
28210SOL    HW286638   7.054   2.815   3.985  0.7575 -1.7324  0.1063
28211SOL     OW86639   4.085   6.382   6.148  0.4226 -0.0325 -0.4823
28211SOL    HW186640   4.160   6.328   6.173  0.8658  1.3651  1.4691
28211SOL    HW286641   4.011   6.322   6.149  1.2448 -1.0762 -0.6995
28212SOL     OW86642   6.462   3.701   5.693  0.2487  0.2401  0.1707
28212SOL    HW186643   6.420   3.654   5.766  0.1408 -0.9529 -0.6345
28212SOL    HW286644   6.390   3.731   5.639  0.3010  1.6608  0.8327
28213SOL     OW86645   0.892   0.588   9.387 -0.0740 -0.0956  0.0722
28213SOL    HW186646   0.832   0.540   9.329 -0.5373 -0.1572  0.5987
28213SOL    HW286647   0.856   0.575   9.475 -0.4170  1.4822  0.2068
28214SOL     OW86648  11.036   3.417   3.653 -0.8241 -0.1219 -0.4477
28214SOL    HW186649  11.098   3.378   3.592 -0.6376  1.9311 -1.6392
28214SOL    HW286650  11.030   3.509   3.627 -1.0272  0.7799  2.3826
28215SOL     OW86651   4.826   6.684   3.012  0.1074  0.0044  1.0668
28215SOL    HW186652   4.841   6.590   3.021 -0.0499 -0.0715  0.5825
28215SOL    HW286653   4.890   6.724   3.070 -0.5780 -0.4289  2.1621
28216SOL     OW86654   5.001   7.693   8.960 -0.1074  0.1163  0.1249
28216SOL    HW186655   5.090   7.684   8.996 -0.4090  0.7120  1.0646
28216SOL    HW286656   4.990   7.616   8.904  0.3349 -0.9554  1.4565
28217SOL     OW86657   0.251   6.267   8.737 -0.2543  0.4909 -0.0543
28217SOL    HW186658   0.269   6.178   8.766  1.4354 -0.1009 -2.5050
28217SOL    HW286659   0.279   6.323   8.809  1.5685 -0.9044  0.3813
28218SOL     OW86660   9.750   6.852   5.856  0.4287 -0.2747 -0.5634
28218SOL    HW186661   9.793   6.819   5.935 -1.0441  0.9198  0.8138
28218SOL    HW286662   9.656   6.845   5.875  0.0065 -1.0063 -2.6892
28219SOL     OW86663   5.878   8.980   4.505  1.0313 -0.3562  0.4939
28219SOL    HW186664   5.849   9.009   4.591  2.0866 -0.4936  0.9181
28219SOL    HW286665   5.961   8.935   4.522 -0.6829 -4.0854 -0.0302
28220SOL     OW86666   3.269   6.558   8.138  0.0570 -0.3495  0.3080
28220SOL    HW186667   3.334   6.597   8.079  0.6992 -2.1496 -0.2467
28220SOL    HW286668   3.249   6.627   8.200  1.7830  0.5841 -0.0921
28221SOL     OW86669   7.776   6.692   4.448 -0.0601 -0.0894  0.4624
28221SOL    HW186670   7.775   6.672   4.354  1.4391 -3.5648  1.0390
28221SOL    HW286671   7.800   6.785   4.453  3.4613 -0.6120 -2.5798
28222SOL     OW86672   9.115   6.857   2.744 -0.6863  0.0464 -0.3737
28222SOL    HW186673   9.107   6.861   2.839  0.6189  0.1163 -0.2505
28222SOL    HW286674   9.124   6.949   2.717  2.0152 -0.1175 -0.2336
28223SOL     OW86675   7.135   9.768   4.265 -0.6182  0.7936 -0.5553
28223SOL    HW186676   7.115   9.799   4.177 -1.1207  0.5890 -0.5171
28223SOL    HW286677   7.180   9.842   4.307  1.0688  0.3272 -1.4837
28224SOL     OW86678   6.297   1.123   0.177 -0.9903  0.5780 -0.6480
28224SOL    HW186679   6.221   1.065   0.168  0.2989 -1.0542 -1.6028
28224SOL    HW286680   6.299   1.173   0.095  0.8859 -1.9257 -2.2919
28225SOL     OW86681   9.449   9.133   6.054  0.0447  0.3252  0.3935
28225SOL    HW186682   9.439   9.045   6.018  0.5294  0.1596  0.6520
28225SOL    HW286683   9.363   9.173   6.044 -0.9028 -0.9869  2.4267
28226SOL     OW86684   9.284   4.487   9.322  0.0189  0.3089  0.1661
28226SOL    HW186685   9.263   4.405   9.278 -0.4342  1.3656 -1.7303
28226SOL    HW286686   9.199   4.529   9.335  0.3283  1.1208 -0.2963
28227SOL     OW86687   8.158   2.376   9.468 -0.3928  0.2570 -0.6054
28227SOL    HW186688   8.063   2.375   9.454 -0.3004  1.8621 -1.6613
28227SOL    HW286689   8.170   2.330   9.551 -1.9474 -1.2058 -1.1202
28228SOL     OW86690   9.745  10.544   2.475  0.6980 -0.2587  0.4192
28228SOL    HW186691   9.817  10.493   2.439  0.1228 -1.0580  0.3617
28228SOL    HW286692   9.783  10.588   2.551  1.1006 -1.1728  0.7730
28229SOL     OW86693   7.410   5.582   7.559 -0.1803  0.1307  0.8888
28229SOL    HW186694   7.370   5.499   7.583  1.2937 -0.3158  1.9249
28229SOL    HW286695   7.368   5.647   7.615  0.3969 -0.3133  1.8673
28230SOL     OW86696  10.153   1.623   5.610 -0.0204 -0.2339  0.1169
28230SOL    HW186697  10.173   1.569   5.687 -0.0364 -0.7101 -0.2118
28230SOL    HW286698  10.239   1.647   5.576  0.0294  1.4618  1.2929
28231SOL     OW86699   9.557   1.669   6.832 -0.8121 -0.1309 -0.0286
28231SOL    HW186700   9.537   1.664   6.926  1.1077 -1.2903  0.3666
28231SOL    HW286701   9.643   1.711   6.828 -2.1202  2.6789 -1.5139
28232SOL     OW86702   6.711   8.333  10.186  0.2890  0.4997  0.0208
28232SOL    HW186703   6.769   8.359  10.115 -0.5639 -0.4887 -1.0707
28232SOL    HW286704   6.749   8.251  10.219  0.9903  1.2277  1.1110
28233SOL     OW86705  10.989   4.154   6.857 -0.6925  0.5346 -0.6652
28233SOL    HW186706  10.997   4.228   6.917  1.7490 -0.5131  0.4232
28233SOL    HW286707  11.056   4.169   6.791 -0.0774 -0.7307 -0.3599
28234SOL     OW86708   5.092  10.533   2.200 -0.6695 -0.0134  0.8673
28234SOL    HW186709   5.152  10.543   2.274  0.6227  1.7984 -0.3199
28234SOL    HW286710   5.017  10.588   2.223  0.5814  2.1640  0.1023
28235SOL     OW86711   5.961  10.201   1.702 -0.7200 -0.5489  0.7295
28235SOL    HW186712   5.980  10.140   1.630  0.9424 -0.1697  0.7915
28235SOL    HW286713   5.866  10.213   1.700 -0.7736 -1.0231 -1.0248
28236SOL     OW86714   1.234   3.527   1.037 -0.4909  0.6172  0.0033
28236SOL    HW186715   1.221   3.461   0.969  0.6529  0.8377 -0.4439
28236SOL    HW286716   1.194   3.607   1.000  0.8109  0.9367 -0.7648
28237SOL     OW86717   9.593   2.331   7.237 -0.0190  0.1877  0.4692
28237SOL    HW186718   9.571   2.424   7.250  0.0551  0.4244 -0.9314
28237SOL    HW286719   9.682   2.332   7.202  0.0299 -0.4215  0.5674
28238SOL     OW86720   8.746   2.398   4.481  0.0095 -0.0740 -0.4439
28238SOL    HW186721   8.838   2.375   4.480  0.0807  0.2094 -0.8457
28238SOL    HW286722   8.717   2.385   4.390  0.0477  1.3631 -0.7005
28239SOL     OW86723   9.406   2.488   2.068 -0.2476  0.0477 -0.4163
28239SOL    HW186724   9.444   2.547   2.002 -0.5853 -1.5878 -2.1561
28239SOL    HW286725   9.313   2.484   2.045 -0.2947 -0.8689 -0.0875
28240SOL     OW86726  10.736   3.857   5.693 -0.0315  0.4719 -0.6868
28240SOL    HW186727  10.779   3.938   5.719  0.1157  1.0443 -2.5483
28240SOL    HW286728  10.797   3.788   5.717 -0.7177  0.7298  2.1310
28241SOL     OW86729  10.031   7.793   8.832 -0.6112 -0.5434 -0.5730
28241SOL    HW186730  10.036   7.885   8.856 -0.3130 -0.5737 -0.5168
28241SOL    HW286731  10.037   7.746   8.916 -4.0992 -0.5545 -0.1732
28242SOL     OW86732  10.777   6.750  10.243 -0.1939  0.4816 -0.3142
28242SOL    HW186733  10.762   6.842  10.221 -2.2097  0.1662 -0.3907
28242SOL    HW286734  10.769   6.747  10.338  0.3760  0.4548 -0.2631
28243SOL     OW86735   3.950   8.743   5.200  0.6394  0.2501  0.8685
28243SOL    HW186736   3.971   8.676   5.135 -2.0982  0.6494 -0.5910
28243SOL    HW286737   3.919   8.693   5.276  0.9161 -0.1813  0.7044
28244SOL     OW86738   1.315   7.833   4.403 -0.0332 -0.2135 -0.0344
28244SOL    HW186739   1.282   7.921   4.422 -2.4273 -1.0559 -0.0388
28244SOL    HW286740   1.269   7.807   4.323  2.4331 -0.6011 -1.4350
28245SOL     OW86741   8.455   3.543   1.925 -0.1360 -0.1884  0.1818
28245SOL    HW186742   8.366   3.570   1.947  0.3079 -0.5280  2.7145
28245SOL    HW286743   8.460   3.451   1.953  1.1626  0.0000  0.6369
28246SOL     OW86744  10.440   4.273   4.315 -0.5444  0.4210  0.1607
28246SOL    HW186745  10.392   4.216   4.374  1.0265  1.7250  2.9072
28246SOL    HW286746  10.421   4.362   4.346  0.6371  1.1431 -1.0573
28247SOL     OW86747   4.000  10.864   1.036  0.2584 -0.4419  0.2489
28247SOL    HW186748   4.026  10.781   0.996  2.4487  0.5242 -0.4907
28247SOL    HW286749   3.997  10.926   0.963  0.3699  0.4879  1.0112
28248SOL     OW86750  10.484   6.197   5.743  0.7627  0.3244 -0.1346
28248SOL    HW186751  10.467   6.227   5.654 -0.8297 -0.4295 -0.1314
28248SOL    HW286752  10.575   6.169   5.743  0.8669  0.6317 -1.4412
28249SOL     OW86753  10.282   7.623   4.350  0.3458 -0.9682  0.0007
28249SOL    HW186754  10.187   7.622   4.346  0.2935 -0.8312  0.9662
28249SOL    HW286755  10.305   7.716   4.353  0.4909 -1.0103  0.1984
28250SOL     OW86756   0.178   6.623   7.843 -0.8280  0.4031  0.3001
28250SOL    HW186757   0.269   6.651   7.828 -0.2623 -1.2975  0.3466
28250SOL    HW286758   0.184   6.559   7.914 -1.7568 -1.3226 -1.0929
28251SOL     OW86759   1.881   6.538   0.808 -0.0251 -0.4740 -0.2575
28251SOL    HW186760   1.941   6.471   0.776 -0.4272 -0.9969  0.0721
28251SOL    HW286761   1.802   6.490   0.832 -1.0669  0.3452 -1.8868
28252SOL     OW86762   1.601   8.938   1.439 -0.7121  0.7323  0.8416
28252SOL    HW186763   1.644   8.936   1.525 -2.4623  0.4802  1.7619
28252SOL    HW286764   1.644   9.009   1.392  3.6536 -2.1034  0.0169
28253SOL     OW86765   8.510   1.595   1.167  0.5280  0.1142 -0.5238
28253SOL    HW186766   8.526   1.518   1.221  0.5453  0.3006 -0.2636
28253SOL    HW286767   8.499   1.667   1.229 -1.4826 -0.0089 -0.6706
28254SOL     OW86768   1.662   4.176  10.386 -0.5938 -0.1621 -0.3793
28254SOL    HW186769   1.698   4.146  10.302 -0.3452  0.0190 -0.3409
28254SOL    HW286770   1.723   4.244  10.414 -0.9384  0.1076 -0.2798
28255SOL     OW86771   5.442   0.305   2.626 -0.3564 -0.9683 -0.1242
28255SOL    HW186772   5.424   0.397   2.648 -1.2956 -1.1843  0.0662
28255SOL    HW286773   5.474   0.308   2.536  0.1267 -0.4102  0.0589
28256SOL     OW86774  10.998   7.925   6.218  0.7236  0.4175  0.0231
28256SOL    HW186775  11.026   7.992   6.280 -2.1063  2.2499 -0.5167
28256SOL    HW286776  10.987   7.846   6.271  0.5932  1.3412  1.4141
28257SOL     OW86777   5.891  10.383   9.000 -0.4487  0.2397 -0.7103
28257SOL    HW186778   5.962  10.318   8.998 -0.7676 -0.1799  0.5279
28257SOL    HW286779   5.935  10.467   9.002  0.0243 -0.0132 -0.1723
28258SOL     OW86780  10.902  10.707   5.999  0.6752  0.3296 -0.0419
28258SOL    HW186781  10.969  10.775   5.992  0.6526  0.2432 -1.3128
28258SOL    HW286782  10.851  10.715   5.919 -1.5001  1.0463  1.3260
28259SOL     OW86783   8.269   8.162   5.565  0.6981 -0.2427  0.6104
28259SOL    HW186784   8.177   8.179   5.587  0.8720 -0.5949  1.6264
28259SOL    HW286785   8.269   8.075   5.526  0.5015  0.0827 -0.1502
28260SOL     OW86786   6.233   3.094   4.704 -0.3856  0.4948 -0.3370
28260SOL    HW186787   6.251   3.184   4.680 -0.8540  0.4400 -0.9296
28260SOL    HW286788   6.203   3.099   4.795 -1.5724  1.0891 -0.7397
28261SOL     OW86789   0.586   5.697   6.686  0.0224  0.8433  0.0389
28261SOL    HW186790   0.616   5.652   6.607 -0.4855  0.0498  0.2873
28261SOL    HW286791   0.513   5.644   6.718 -0.2291  1.5412  0.6561
28262SOL     OW86792   6.980   0.069   5.316 -0.4572 -0.7428 -0.1693
28262SOL    HW186793   6.889   0.096   5.308 -1.0017 -1.9480  1.5115
28262SOL    HW286794   6.987   0.031   5.403  1.7885 -0.2512 -0.0636
28263SOL     OW86795  10.950   5.348  10.490  0.1222 -0.1793 -0.5218
28263SOL    HW186796  10.894   5.371  10.564  1.7174  0.2797  0.5890
28263SOL    HW286797  10.895   5.293  10.435 -0.3846 -2.7141  2.2464
28264SOL     OW86798  10.849   1.876   5.872  0.2628  0.2473 -0.7867
28264SOL    HW186799  10.907   1.883   5.948 -1.7845  2.1868  0.7305
28264SOL    HW286800  10.820   1.966   5.856 -1.5483 -0.5184 -2.0991
28265SOL     OW86801   7.849   1.539   2.528 -0.0690  0.0313 -0.0120
28265SOL    HW186802   7.814   1.583   2.451 -0.3784 -0.1361  0.0268
28265SOL    HW286803   7.886   1.457   2.494 -2.3912 -1.2408  0.2668
28266SOL     OW86804   4.933   0.690   9.162  0.4542 -0.0230 -0.1836
28266SOL    HW186805   4.948   0.661   9.072 -0.6697 -0.6613 -0.1758
28266SOL    HW286806   4.990   0.635   9.215  3.5497  2.3886 -0.6680
28267SOL     OW86807   7.153   2.939  10.543  0.4238  0.1573 -0.0832
28267SOL    HW186808   7.079   2.977  10.494  0.2981  0.1081  0.0681
28267SOL    HW286809   7.210   3.013  10.562 -0.1047  0.3686  0.7138
28268SOL     OW86810   2.935   3.229   0.338  1.3349 -0.1772  0.5239
28268SOL    HW186811   3.020   3.249   0.298  1.2486  1.7813  1.2106
28268SOL    HW286812   2.948   3.146   0.383  1.8530 -1.7305 -2.2399
28269SOL     OW86813   8.053   4.939   1.688 -0.1080  0.0781  0.0906
28269SOL    HW186814   8.083   4.953   1.598  1.3755 -0.4870  0.4659
28269SOL    HW286815   8.075   5.019   1.734  5.0040 -1.6780  1.3680
28270SOL     OW86816   0.824   6.106   3.837  0.7839  0.4779  0.2506
28270SOL    HW186817   0.897   6.055   3.804  1.6131  2.3099 -0.8787
28270SOL    HW286818   0.863   6.190   3.861 -0.7492  1.0523  0.8289
28271SOL     OW86819   7.175   8.088   1.255 -0.0267  0.1702  1.0465
28271SOL    HW186820   7.152   8.139   1.178 -0.6213  0.2511  1.2778
28271SOL    HW286821   7.267   8.109   1.270  0.9238 -1.8489 -1.1862
28272SOL     OW86822   1.251   3.990   6.485 -0.2629 -0.2838  0.5235
28272SOL    HW186823   1.216   4.076   6.512  0.8924  0.8663 -1.4511
28272SOL    HW286824   1.183   3.954   6.428  0.4753  0.6822 -1.0234
28273SOL     OW86825   7.055   6.142   6.268 -0.1561 -0.2340  0.1375
28273SOL    HW186826   6.995   6.199   6.220 -0.2089 -0.0308  0.4434
28273SOL    HW286827   7.141   6.162   6.230 -0.0379  0.7344  0.8729
28274SOL     OW86828   8.928   9.723   4.740 -0.3576 -0.4288 -0.6385
28274SOL    HW186829   8.915   9.657   4.808  0.8944 -1.5062 -1.3854
28274SOL    HW286830   8.896   9.804   4.779  0.5075 -0.9592  1.3175
28275SOL     OW86831   4.142   7.985   1.082 -0.1723 -0.5869 -0.3342
28275SOL    HW186832   4.124   8.052   1.015 -0.5087  0.7543  1.0343
28275SOL    HW286833   4.227   7.948   1.057 -1.0363 -1.3168 -2.4057
28276SOL     OW86834   8.017   7.250  10.222  0.5760  0.2811 -0.6579
28276SOL    HW186835   8.102   7.294  10.220  0.8287 -0.2262 -1.8218
28276SOL    HW286836   8.031   7.173  10.276  0.7907  0.3407 -0.6277
28277SOL     OW86837  10.837   4.066   1.197 -0.1538 -0.2445 -0.1447
28277SOL    HW186838  10.849   3.971   1.187 -0.7661 -0.3177 -0.2117
28277SOL    HW286839  10.864   4.102   1.113 -1.7790 -0.5416 -0.8442
28278SOL     OW86840   0.772   5.374   0.895  0.9674  0.0319  0.5410
28278SOL    HW186841   0.730   5.301   0.851 -2.1953  1.2999  1.1846
28278SOL    HW286842   0.812   5.425   0.825  2.7437 -1.9343  0.0389
28279SOL     OW86843   7.926   8.267   5.850  0.1692  0.3113 -0.4929
28279SOL    HW186844   7.956   8.180   5.874 -1.5880 -0.6176 -1.4753
28279SOL    HW286845   8.005   8.321   5.853  1.0390 -0.9495  1.6003
28280SOL     OW86846   9.076   1.919  10.693 -0.3092  0.4591 -0.2925
28280SOL    HW186847   9.026   1.843  10.723 -0.1041  1.3322  2.5092
28280SOL    HW286848   9.009   1.982  10.667 -0.5013 -0.1246 -1.2862
28281SOL     OW86849   6.327   1.483   5.625  0.7382 -0.6553 -0.3061
28281SOL    HW186850   6.415   1.521   5.619 -0.2132  1.7489 -0.2309
28281SOL    HW286851   6.329   1.432   5.707  1.5001  1.0764  0.8168
28282SOL     OW86852   3.393   5.009   4.208 -0.4120  0.7948 -0.4343
28282SOL    HW186853   3.425   4.972   4.290 -2.9193 -0.3599  0.1369
28282SOL    HW286854   3.467   5.002   4.148  1.5708  1.8629  1.7205
28283SOL     OW86855   8.288   9.843   4.258 -0.3357 -0.1655  0.0733
28283SOL    HW186856   8.198   9.858   4.286 -0.4197  2.2070 -1.1488
28283SOL    HW286857   8.291   9.874   4.167  0.9904 -3.2243 -1.0511
28284SOL     OW86858   7.631   5.740   5.547  0.6526 -0.4246 -0.4748
28284SOL    HW186859   7.702   5.678   5.562  0.0184 -0.6953  1.8109
28284SOL    HW286860   7.638   5.803   5.618  0.5870  1.5219 -2.1218
28285SOL     OW86861   0.864   8.489   0.098 -0.3234  0.2567 -0.2570
28285SOL    HW186862   0.860   8.585   0.103 -2.0027  0.1361  2.2228
28285SOL    HW286863   0.847   8.469   0.006 -0.5473  2.2959 -0.7106
28286SOL     OW86864   9.286   0.949   4.206 -0.2725  0.2851 -0.7157
28286SOL    HW186865   9.312   0.926   4.296 -0.2297  0.9916 -0.5341
28286SOL    HW286866   9.282   0.866   4.160 -2.8815 -0.4367  0.5904
28287SOL     OW86867   1.892   9.806   8.269 -0.0141  0.0914  0.8852
28287SOL    HW186868   1.822   9.770   8.324  0.2140 -0.2629  0.9508
28287SOL    HW286869   1.848   9.830   8.188 -0.0798 -0.8713  0.6240
28288SOL     OW86870   3.934  10.917   1.729 -0.2296 -0.5009  0.0363
28288SOL    HW186871   3.964  11.002   1.697  1.3850 -1.5648 -1.4809
28288SOL    HW286872   3.871  10.938   1.798 -0.7974  1.9155 -1.1020
28289SOL     OW86873   7.987   4.663   9.526 -0.7079 -0.2154  0.4583
28289SOL    HW186874   8.008   4.662   9.620 -1.2573 -1.6447  0.5973
28289SOL    HW286875   8.071   4.656   9.482 -0.3041  2.0329  0.7796
28290SOL     OW86876   1.568   7.185   8.225  0.2663 -0.1847  0.0593
28290SOL    HW186877   1.640   7.242   8.199 -0.6485  0.2212 -1.7299
28290SOL    HW286878   1.538   7.220   8.309  0.0455  1.7067 -0.7506
28291SOL     OW86879   3.572   9.251   2.974 -0.0357 -0.3544  0.8195
28291SOL    HW186880   3.621   9.226   3.053 -0.1461 -2.0235  0.3893
28291SOL    HW286881   3.504   9.184   2.966 -0.2535  0.0094 -0.4924
28292SOL     OW86882   1.128   3.567   2.377 -0.0015 -0.4387  0.0661
28292SOL    HW186883   1.033   3.569   2.389 -0.0261 -1.0545 -0.0024
28292SOL    HW286884   1.141   3.516   2.297  0.4019 -0.5561  0.2065
28293SOL     OW86885   0.258   2.125   1.916 -0.2313 -0.0233  0.8979
28293SOL    HW186886   0.303   2.055   1.963  1.4549  0.6132  0.3176
28293SOL    HW286887   0.326   2.191   1.901 -1.0803  0.4951 -1.0101
28294SOL     OW86888   2.711  10.446  10.890 -0.0527 -0.6846 -0.2888
28294SOL    HW186889   2.799  10.464  10.922 -0.3143  0.2613 -0.0744
28294SOL    HW286890   2.664  10.410  10.966  0.3900 -2.1136 -0.6467
28295SOL     OW86891   0.480   5.556   1.844 -0.2732 -0.0434 -0.5189
28295SOL    HW186892   0.508   5.604   1.766 -1.1526  0.8222 -0.3355
28295SOL    HW286893   0.401   5.511   1.817  0.2547 -0.9679 -0.5365
28296SOL     OW86894   7.508   3.059   6.443 -0.4633  0.3222 -0.3879
28296SOL    HW186895   7.508   2.970   6.407  0.2000  0.5244 -0.9211
28296SOL    HW286896   7.591   3.065   6.491 -0.3053  0.7863 -0.7124
28297SOL     OW86897   9.913   2.108   0.844  0.0462  0.4990  0.7602
28297SOL    HW186898   9.936   2.104   0.937 -2.8292 -0.9929  1.5595
28297SOL    HW286899   9.839   2.169   0.840  0.0770  0.4826 -0.5483
28298SOL     OW86900   3.661   8.627   5.991 -0.0741 -0.1158 -0.1479
28298SOL    HW186901   3.688   8.582   5.912 -0.7057  0.1647 -0.5362
28298SOL    HW286902   3.734   8.686   6.012  0.7606 -1.2883  0.3719
28299SOL     OW86903   2.323   8.657   8.857 -0.4131 -0.6528  0.3973
28299SOL    HW186904   2.411   8.656   8.893 -0.2453 -1.4540 -0.0167
28299SOL    HW286905   2.282   8.577   8.890  0.0016 -1.8422 -1.7706
28300SOL     OW86906   1.961   6.800   7.610  0.0489  0.3125  0.9621
28300SOL    HW186907   2.049   6.765   7.595  0.2038  0.1554  2.0739
28300SOL    HW286908   1.974   6.894   7.622  0.2732  0.1410  2.3377
28301SOL     OW86909   4.258   3.246   1.329 -0.2329  0.0764  0.8290
28301SOL    HW186910   4.310   3.183   1.279 -1.4348  0.9834 -1.7093
28301SOL    HW286911   4.184   3.196   1.362 -1.2728  0.0751 -1.3126
28302SOL     OW86912   1.248   0.236   6.373 -0.0248  0.3788  0.4411
28302SOL    HW186913   1.249   0.244   6.468 -1.0054  1.6569  0.3728
28302SOL    HW286914   1.156   0.220   6.351  0.1542  0.3589 -0.3040
28303SOL     OW86915   1.739  10.770   1.629 -0.1128 -0.7154 -0.4298
28303SOL    HW186916   1.780  10.824   1.562 -1.7598  0.5084 -0.4960
28303SOL    HW286917   1.669  10.824   1.665 -0.5462 -2.0818  0.9015
28304SOL     OW86918   3.076   6.973   5.644 -0.7491 -0.2021  0.2070
28304SOL    HW186919   3.045   6.976   5.554 -1.3322  2.1029  0.4240
28304SOL    HW286920   3.107   6.883   5.656 -1.1973 -0.7163 -2.0843
28305SOL     OW86921   1.638   3.566   8.244  0.1462  0.2866  0.7346
28305SOL    HW186922   1.615   3.501   8.178 -3.4759  1.8933  0.1954
28305SOL    HW286923   1.713   3.613   8.206  0.2732 -0.9511 -0.6566
28306SOL     OW86924   4.625  10.466   1.338  0.0908 -0.4987  0.2139
28306SOL    HW186925   4.669  10.435   1.258 -0.9618 -1.8314  0.1139
28306SOL    HW286926   4.666  10.416   1.409  1.1319  0.7948  0.5576
28307SOL     OW86927   2.197   0.225   2.917 -0.2464 -0.0283 -0.4707
28307SOL    HW186928   2.148   0.226   2.999  0.3772 -1.6669 -0.0357
28307SOL    HW286929   2.131   0.209   2.850 -0.6425  0.4020 -0.1906
28308SOL     OW86930   3.809   8.273   3.430 -0.0885  0.3242  0.0908
28308SOL    HW186931   3.814   8.355   3.380 -0.4037 -0.8037 -1.9000
28308SOL    HW286932   3.717   8.266   3.455  0.0343  0.7989  0.7095
28309SOL     OW86933   4.785   3.342   1.620  0.4629  0.3524  0.6435
28309SOL    HW186934   4.818   3.339   1.710 -1.1333  0.9614  1.2802
28309SOL    HW286935   4.850   3.293   1.569  0.7544 -1.1165  2.3264
28310SOL     OW86936   0.939   8.947   7.669  0.2215  1.1399 -0.6464
28310SOL    HW186937   0.902   8.865   7.635  1.2376 -0.1689  1.2243
28310SOL    HW286938   0.873   9.013   7.648 -1.6888 -0.5423 -0.2704
28311SOL     OW86939   6.275  10.030   9.717 -0.3827 -0.3007 -0.0037
28311SOL    HW186940   6.258  10.083   9.795 -0.4305 -0.8466  0.3596
28311SOL    HW286941   6.205   9.965   9.715 -1.6803  1.0385 -1.7150
28312SOL     OW86942   9.622   8.397  10.537  0.3199 -0.6003  0.4329
28312SOL    HW186943   9.625   8.356  10.623 -1.7305 -2.2801 -0.2375
28312SOL    HW286944   9.640   8.326  10.475  0.1445  0.2332 -0.6041
28313SOL     OW86945   2.298   0.120   6.676 -0.0962  0.2853  0.2328
28313SOL    HW186946   2.311   0.030   6.704 -1.7608  0.1439  0.6311
28313SOL    HW286947   2.204   0.127   6.657  0.0308  1.8695 -0.0007
28314SOL     OW86948  10.960   0.227   8.552  0.0715  0.8074  0.1151
28314SOL    HW186949  10.877   0.179   8.551  1.4809 -1.8330 -0.3465
28314SOL    HW286950  11.019   0.174   8.498  1.7877  3.1715 -0.5152
28315SOL     OW86951   6.209   3.487   8.797  0.4540  0.4517 -0.2555
28315SOL    HW186952   6.196   3.492   8.702  1.4089  1.3501 -0.3631
28315SOL    HW286953   6.256   3.404   8.810 -0.1472  0.0650 -0.5007
28316SOL     OW86954   3.762   8.478   4.381  0.1587  0.4286 -0.0500
28316SOL    HW186955   3.694   8.515   4.325 -1.1490  0.7834  1.6894
28316SOL    HW286956   3.737   8.503   4.470  3.2232  1.6268  0.6172
28317SOL     OW86957   6.310  10.233   1.143  0.3866 -0.0591 -0.6985
28317SOL    HW186958   6.346  10.145   1.153  1.1805  0.3526  0.2927
28317SOL    HW286959   6.296  10.243   1.049 -0.5511 -1.5507 -0.7268
28318SOL     OW86960   6.403   0.469   4.551 -0.3369  0.3624  0.1067
28318SOL    HW186961   6.348   0.519   4.611 -1.2898 -1.4709  0.8264
28318SOL    HW286962   6.474   0.434   4.605  0.9661  1.7725 -0.6033
28319SOL     OW86963   1.639   1.141   0.236  0.3872  0.3370 -0.2146
28319SOL    HW186964   1.595   1.056   0.244  1.5843 -0.5029 -1.8190
28319SOL    HW286965   1.577   1.196   0.189 -0.6707  0.5929  1.4271
28320SOL     OW86966   6.750   4.841   7.346  0.4458  0.4748  0.5043
28320SOL    HW186967   6.826   4.871   7.398  1.1358 -0.5892  0.1360
28320SOL    HW286968   6.713   4.922   7.310  1.4118  1.0220  0.6905
28321SOL     OW86969   6.104   0.265  10.415  0.3860 -0.5681  0.0025
28321SOL    HW186970   6.064   0.278  10.329 -0.4118  0.0903  0.4688
28321SOL    HW286971   6.089   0.346  10.462 -1.3894 -1.7636  1.6453
28322SOL     OW86972   3.059   7.822   5.792  0.2686 -0.0239  0.9202
28322SOL    HW186973   3.153   7.838   5.798  0.0728  1.4554  0.3845
28322SOL    HW286974   3.030   7.809   5.882  1.1900 -1.9573  0.9909
28323SOL     OW86975   4.933   1.091   2.881  0.0672 -0.6389 -0.2197
28323SOL    HW186976   4.967   1.177   2.858 -2.4026  0.5053  0.0255
28323SOL    HW286977   4.890   1.105   2.966 -1.0458 -1.9066 -0.5402
28324SOL     OW86978   4.855   2.076   6.188  0.1793 -0.5309 -0.1493
28324SOL    HW186979   4.917   2.147   6.167  0.2606  0.4504  2.9378
28324SOL    HW286980   4.908   2.011   6.235 -0.4201 -1.4576 -0.7338
28325SOL     OW86981   4.919   2.117   4.556  0.2845  0.8110  0.5504
28325SOL    HW186982   4.893   2.142   4.645 -0.3313 -3.1537  1.6942
28325SOL    HW286983   5.014   2.109   4.560  0.3101  1.1695  0.6778
28326SOL     OW86984  10.468   0.781   3.197  0.1016  0.3175  0.3653
28326SOL    HW186985  10.493   0.860   3.244  0.5042  0.5720 -0.2645
28326SOL    HW286986  10.422   0.813   3.119 -0.7156 -0.1016  0.6601
28327SOL     OW86987   3.506  10.074   3.245  0.1789  0.3069  0.3515
28327SOL    HW186988   3.461  10.155   3.221  0.3701  0.3077 -0.0201
28327SOL    HW286989   3.581  10.102   3.298  0.3800  0.3923  0.0235
28328SOL     OW86990   8.591   1.160   4.670  0.1875  0.3521 -0.5543
28328SOL    HW186991   8.604   1.255   4.668 -0.4204  0.4299 -1.8063
28328SOL    HW286992   8.503   1.149   4.706  0.9390  0.1483  1.3366
28329SOL     OW86993   8.664   8.744   2.525  0.2474 -0.5713  0.1162
28329SOL    HW186994   8.667   8.787   2.439 -0.9742  0.0272  0.3481
28329SOL    HW286995   8.691   8.654   2.508  1.2940 -0.1401 -0.6621
28330SOL     OW86996   3.707   7.777   0.643  0.1158  0.0451  0.2536
28330SOL    HW186997   3.690   7.869   0.667  3.6010  0.6401  1.0232
28330SOL    HW286998   3.677   7.727   0.719  0.2795  0.7902  0.8264
28331SOL     OW86999   9.229   1.662   2.885  0.3028  0.0245 -0.4850
28331SOL    HW187000   9.278   1.592   2.928  0.9377  1.8844  2.0487
28331SOL    HW287001   9.181   1.705   2.956 -2.1164  0.5885 -2.3452
28332SOL     OW87002   9.513   7.159  10.953 -0.1197  0.6023  0.0036
28332SOL    HW187003   9.505   7.095  10.882  0.8070  2.4170 -1.8566
28332SOL    HW287004   9.606   7.155  10.978 -0.3915  0.1492  0.9420
28333SOL     OW87005   5.353   9.186   4.136 -0.2727  0.4823  0.0152
28333SOL    HW187006   5.279   9.209   4.080 -0.8365 -0.8578  0.1774
28333SOL    HW287007   5.356   9.256   4.201 -0.4661  1.3250 -0.8563
28334SOL     OW87008   9.666   1.051   2.948  0.4100  0.1265  0.1986
28334SOL    HW187009   9.695   0.978   2.894 -0.2251 -0.9687  1.2999
28334SOL    HW287010   9.608   1.012   3.013  1.6172  1.2787  2.0819
28335SOL     OW87011   7.375   1.881   1.204  0.4407 -0.2484  0.5902
28335SOL    HW187012   7.416   1.894   1.118 -1.1784  1.1895 -0.0235
28335SOL    HW287013   7.415   1.948   1.259  1.4022 -1.1025  0.9626
28336SOL     OW87014   9.988   6.626   8.192 -0.1787  0.5770  0.6007
28336SOL    HW187015  10.051   6.649   8.124 -0.4252  1.1307  0.5561
28336SOL    HW287016   9.945   6.547   8.160 -0.9843  1.3760 -0.3493
28337SOL     OW87017   7.597   2.762   2.142 -0.1906 -0.3561  1.0109
28337SOL    HW187018   7.669   2.825   2.138  1.0605 -1.7828 -0.3787
28337SOL    HW287019   7.625   2.698   2.207 -0.3129 -0.7866  0.6426
28338SOL     OW87020  10.972   4.903   8.333  0.5671  0.1933  0.2516
28338SOL    HW187021  10.880   4.923   8.350  0.5087  0.8991 -0.7874
28338SOL    HW287022  10.970   4.840   8.261  0.8833  0.0151  0.4002
28339SOL     OW87023   1.231   3.367   8.984 -0.4727 -0.2951  0.1804
28339SOL    HW187024   1.264   3.443   8.938  0.8089 -1.3774 -0.7453
28339SOL    HW287025   1.241   3.389   9.077 -0.7151  0.8919 -0.0560
28340SOL     OW87026   9.421   6.322  10.355  0.6407 -0.2204 -0.6090
28340SOL    HW187027   9.446   6.378  10.429  0.1138  2.3301 -2.2321
28340SOL    HW287028   9.505   6.290  10.321  1.1475  1.1837 -0.7821
28341SOL     OW87029   0.392   7.196   1.602  0.7586 -0.1413  0.5843
28341SOL    HW187030   0.458   7.257   1.636  0.0316  0.6116  0.6884
28341SOL    HW287031   0.308   7.237   1.625  0.2515 -1.2159  0.6966
28342SOL     OW87032   6.814   2.091   0.136  0.1845 -0.2418 -0.7613
28342SOL    HW187033   6.736   2.138   0.166 -0.7642 -2.8712  1.3990
28342SOL    HW287034   6.886   2.153   0.149 -1.1991  1.2977 -0.0394
28343SOL     OW87035   5.714   7.814  10.910  0.5352 -0.5082  0.5894
28343SOL    HW187036   5.757   7.767  10.839 -0.4190 -0.1784 -0.2209
28343SOL    HW287037   5.734   7.762  10.988  0.4458 -1.6414 -0.1189
28344SOL     OW87038   1.587   5.757   9.815 -0.7344  0.4655  0.2088
28344SOL    HW187039   1.637   5.676   9.826  0.9542  1.5679  0.8704
28344SOL    HW287040   1.525   5.736   9.745  1.2186 -0.6878 -1.2772
28345SOL     OW87041   2.801   9.693   7.279 -0.1444  0.5616 -0.1315
28345SOL    HW187042   2.870   9.627   7.286 -0.3884  0.3119 -0.0815
28345SOL    HW287043   2.844   9.768   7.238  0.7865  1.2936  2.0545
28346SOL     OW87044   0.029   0.383   2.430  0.5547  0.8917 -0.0523
28346SOL    HW187045   0.058   0.337   2.509  0.7677  1.7599  0.3890
28346SOL    HW287046   0.076   0.339   2.359  1.1071  0.7172  0.4070
28347SOL     OW87047   6.829   6.766   3.175 -0.1725  0.4744 -0.2573
28347SOL    HW187048   6.865   6.845   3.134  1.5317  0.5170  1.1629
28347SOL    HW287049   6.880   6.694   3.138  1.4634  0.5227  1.7128
28348SOL     OW87050   5.477   7.041   4.447  0.0432 -0.0300 -0.5371
28348SOL    HW187051   5.556   7.034   4.395 -0.0943  1.3632 -0.9648
28348SOL    HW287052   5.506   7.026   4.537  0.2237 -2.8125 -0.9692
28349SOL     OW87053   7.700   1.755   3.041  0.3525 -0.0420  0.0799
28349SOL    HW187054   7.740   1.841   3.056 -1.8271  1.1318 -0.3235
28349SOL    HW287055   7.716   1.737   2.949 -2.5701  1.9790 -0.9945
28350SOL     OW87056   4.869   5.215   9.097 -0.0309 -0.5775  0.2241
28350SOL    HW187057   4.907   5.208   9.185  0.5957  0.1476  0.0250
28350SOL    HW287058   4.787   5.261   9.110  0.6685  0.7040  0.2969
28351SOL     OW87059   3.680   1.435   3.101 -0.0074 -0.0705  0.5594
28351SOL    HW187060   3.609   1.449   3.164 -1.3788 -0.0569 -0.9534
28351SOL    HW287061   3.753   1.487   3.137 -1.3099  1.3872  1.2273
28352SOL     OW87062   8.166   5.805   7.403 -0.0520 -0.5386  0.6498
28352SOL    HW187063   8.221   5.748   7.350 -2.3728 -1.8527 -0.4911
28352SOL    HW287064   8.107   5.847   7.341 -1.0053  0.0601  1.9084
28353SOL     OW87065   5.895  10.930   3.338  0.2499 -0.2287  0.4721
28353SOL    HW187066   5.801  10.934   3.356  0.0771  3.1853 -0.4429
28353SOL    HW287067   5.934  10.905   3.421 -1.3272  1.6296  1.8825
28354SOL     OW87068   1.685   5.920   8.565  0.6203 -0.1298 -0.1402
28354SOL    HW187069   1.605   5.938   8.516 -0.5799 -2.4453  0.8006
28354SOL    HW287070   1.739   5.868   8.505  1.4355  1.3732 -0.7505
28355SOL     OW87071   6.833  10.427   5.206  0.9278  0.0598 -0.4220
28355SOL    HW187072   6.928  10.435   5.194  0.7684 -0.5051 -2.3335
28355SOL    HW287073   6.810  10.343   5.167 -0.6672  1.2162 -2.1294
28356SOL     OW87074   6.743  10.455   8.950 -0.6444  0.0578 -0.1322
28356SOL    HW187075   6.784  10.391   8.893 -0.5868  0.1192 -0.1610
28356SOL    HW287076   6.650  10.435   8.946 -0.6461  0.0954 -0.2897
28357SOL     OW87077   4.527   5.682   7.410  0.0345  0.3040 -0.3058
28357SOL    HW187078   4.537   5.591   7.381 -0.4415 -0.6178  2.1506
28357SOL    HW287079   4.610   5.703   7.451 -0.4066  0.4003  0.5491
28358SOL     OW87080   6.542  10.704   7.561 -0.6097  0.0464  0.2064
28358SOL    HW187081   6.558  10.737   7.473 -0.0093 -0.9191 -0.0585
28358SOL    HW287082   6.452  10.732   7.580 -0.0329  2.1263  0.1607
28359SOL     OW87083   3.926   1.434   8.166  0.6545  0.2913 -0.0420
28359SOL    HW187084   3.833   1.418   8.182  0.8601  1.4955  3.3870
28359SOL    HW287085   3.972   1.370   8.222  1.9050 -0.0403 -1.3868
28360SOL     OW87086   0.260  10.230   6.270 -0.1212  0.7045 -0.0738
28360SOL    HW187087   0.334  10.197   6.322  0.2641  0.9202 -0.4742
28360SOL    HW287088   0.185  10.178   6.298  0.1334  0.6560  0.5225
28361SOL     OW87089   0.628   6.714   8.279 -0.1038  0.6794  0.1278
28361SOL    HW187090   0.606   6.764   8.358 -0.3957 -1.1502  1.2691
28361SOL    HW287091   0.630   6.623   8.309  0.6337  0.0214 -1.8153
28362SOL     OW87092  10.483  10.802   4.164 -0.0275 -0.2450  0.1652
28362SOL    HW187093  10.575  10.798   4.136 -0.1616  0.6012 -0.4336
28362SOL    HW287094  10.467  10.717   4.206  0.4258 -1.2798 -1.6348
28363SOL     OW87095   4.739   2.827   0.056  0.4222 -0.6301  0.4850
28363SOL    HW187096   4.703   2.915   0.051  0.6965 -0.5728 -0.5807
28363SOL    HW287097   4.669   2.775   0.096 -0.1029 -0.1299  0.2253
28364SOL     OW87098   3.559   3.620   5.468  0.4451  0.6452 -0.3247
28364SOL    HW187099   3.528   3.681   5.534  0.9817  0.3192  0.2433
28364SOL    HW287100   3.486   3.610   5.407 -0.9556 -0.8243  1.4684
28365SOL     OW87101   6.312   3.321   1.368  0.0711 -0.0902  0.4468
28365SOL    HW187102   6.314   3.407   1.410 -0.7993  0.7091 -1.0547
28365SOL    HW287103   6.269   3.264   1.432 -2.8822  1.4802  0.0547
28366SOL     OW87104   3.086   3.756   1.514  0.1621  0.1683 -0.0287
28366SOL    HW187105   2.997   3.724   1.500  0.8369 -2.8754  1.7156
28366SOL    HW287106   3.100   3.751   1.608  2.3555 -0.0066 -0.2945
28367SOL     OW87107   3.960   1.215   0.270  0.3589  0.0038  0.0747
28367SOL    HW187108   3.954   1.292   0.214  1.0325 -0.6955 -0.9803
28367SOL    HW287109   4.050   1.216   0.303 -0.5418  1.5446  2.8728
28368SOL     OW87110   9.188   9.764   7.575 -0.9142 -0.2851 -0.5084
28368SOL    HW187111   9.138   9.690   7.608  0.7732 -1.0783  0.4190
28368SOL    HW287112   9.145   9.841   7.611 -1.9170 -0.8786 -0.4047
28369SOL     OW87113   0.960   9.049   4.799 -0.0722  0.5158 -0.1002
28369SOL    HW187114   0.944   9.052   4.705 -0.2762  0.7697 -0.0591
28369SOL    HW287115   1.054   9.065   4.809  0.4151 -1.8137 -0.4007
28370SOL     OW87116   9.070   4.871   0.077 -0.7253  0.5087 -0.1534
28370SOL    HW187117   9.080   4.848   0.169 -1.3557 -1.2353 -0.4858
28370SOL    HW287118   8.978   4.853   0.057 -0.3269 -0.2614 -1.4105
28371SOL     OW87119   4.176   0.243   4.149 -0.1890  0.6419  0.9884
28371SOL    HW187120   4.124   0.199   4.217 -2.1379  2.0146  0.4729
28371SOL    HW287121   4.250   0.279   4.197 -0.9886  0.7184  2.2391
28372SOL     OW87122   8.466  10.139   8.535 -0.3427 -0.3755 -0.1855
28372SOL    HW187123   8.391  10.193   8.562  1.1624  0.6935  2.2409
28372SOL    HW287124   8.542  10.197   8.543  1.2686 -2.5344  1.8172
28373SOL     OW87125  10.365   1.158   5.070  0.0890 -0.4994  0.0433
28373SOL    HW187126  10.340   1.124   5.155 -0.4917  0.7724  0.3948
28373SOL    HW287127  10.461   1.166   5.075 -0.0393  0.8448  1.1004
28374SOL     OW87128   4.410   6.398   8.963 -0.2795 -1.0199  0.6327
28374SOL    HW187129   4.468   6.323   8.974 -0.4907 -1.3138 -0.1771
28374SOL    HW287130   4.359   6.378   8.884 -0.9821 -0.4438  0.9265
28375SOL     OW87131   5.157   8.297  10.660 -0.2391  0.1939  0.0519
28375SOL    HW187132   5.156   8.278  10.566  3.6733  0.0236 -0.1137
28375SOL    HW287133   5.099   8.231  10.698 -2.1177  0.4192 -2.1794
28376SOL     OW87134   7.373   0.154   1.102 -0.3475  0.3337  0.4235
28376SOL    HW187135   7.465   0.127   1.101  0.2588  2.2696  0.4295
28376SOL    HW287136   7.374   0.242   1.140 -2.1300  0.6530 -0.1822
28377SOL     OW87137   9.755   4.340  10.327  0.4664  0.1001  0.7636
28377SOL    HW187138   9.829   4.286  10.301  0.5664  0.3943  0.4361
28377SOL    HW287139   9.746   4.324  10.421 -1.9061 -3.5022  0.1340
28378SOL     OW87140   4.401   8.901   9.729  0.4000  0.5594  0.7790
28378SOL    HW187141   4.378   8.897   9.822  0.2559 -2.3787  0.7295
28378SOL    HW287142   4.332   8.953   9.689 -1.8857 -1.4801  1.7881
28379SOL     OW87143   1.929  10.764   7.015  0.4203  0.1833  0.4493
28379SOL    HW187144   1.871  10.831   7.051  0.1008  0.6552 -0.8580
28379SOL    HW287145   1.891  10.745   6.928 -0.0734 -2.4009  1.1450
28380SOL     OW87146   6.872   3.435   4.892 -0.7641 -0.6321  0.0235
28380SOL    HW187147   6.874   3.503   4.825 -0.5645  1.0016  1.6080
28380SOL    HW287148   6.907   3.357   4.848  3.4617  1.4074 -0.7109
28381SOL     OW87149   8.633   1.180   4.093  0.4685 -0.0164 -0.0065
28381SOL    HW187150   8.559   1.157   4.149  0.7748 -0.2746  0.3018
28381SOL    HW287151   8.703   1.204   4.154 -0.2699  3.2996 -0.3075
28382SOL     OW87152  10.773   8.012   4.450 -0.2924  0.0853 -0.2225
28382SOL    HW187153  10.785   8.098   4.409  2.4208 -0.0019  0.2206
28382SOL    HW287154  10.772   7.950   4.377  0.9474  0.2366 -0.3808
28383SOL     OW87155   0.455   3.308   2.487  0.2237 -0.4516 -0.2978
28383SOL    HW187156   0.508   3.384   2.510 -0.0836 -0.2717 -0.1851
28383SOL    HW287157   0.372   3.344   2.456 -0.2885 -0.7537  0.6630
28384SOL     OW87158   2.682   8.629   2.054  0.2899 -0.4885  0.1938
28384SOL    HW187159   2.604   8.678   2.082  1.0896  0.6941  0.4088
28384SOL    HW287160   2.719   8.682   1.984  0.1543 -1.7526 -0.8844
28385SOL     OW87161   2.112   9.939   8.846 -0.1605  1.0750  0.1164
28385SOL    HW187162   2.197   9.973   8.873  0.1826 -0.0705  0.5466
28385SOL    HW287163   2.132   9.869   8.783 -0.7843  0.8939  0.1047
28386SOL     OW87164   8.667   8.510   3.926  0.1908  0.1012 -0.6770
28386SOL    HW187165   8.728   8.442   3.954  0.7112  0.6864 -0.3445
28386SOL    HW287166   8.655   8.565   4.003  0.0182  0.5524 -1.0195
28387SOL     OW87167   1.186   8.497   3.007  0.3598  1.1792  0.5158
28387SOL    HW187168   1.175   8.543   3.091  0.2867  2.5702 -0.2345
28387SOL    HW287169   1.202   8.406   3.032 -1.2395  1.2485  2.0047
28388SOL     OW87170   4.878   1.553   1.335  0.5277  0.4909  0.4513
28388SOL    HW187171   4.786   1.556   1.364  0.4055 -0.2981  0.1501
28388SOL    HW287172   4.890   1.464   1.302  1.2343  0.7741 -0.0711
28389SOL     OW87173   5.669   4.441   5.145 -0.2258 -0.2166  0.3956
28389SOL    HW187174   5.732   4.476   5.082  0.2576  1.2503  1.6217
28389SOL    HW287175   5.679   4.346   5.139  1.3529 -0.0489 -0.1961
28390SOL     OW87176   4.337   5.915   9.958 -0.3413 -0.1495  0.3792
28390SOL    HW187177   4.295   5.858  10.023 -0.5707 -0.5372 -0.0998
28390SOL    HW287178   4.338   5.863   9.878  3.6266 -1.3092  0.9610
28391SOL     OW87179   5.609   8.260  10.551 -0.9012 -0.5212  0.2391
28391SOL    HW187180   5.668   8.214  10.491  0.1834  0.4849  0.4959
28391SOL    HW287181   5.608   8.206  10.630  1.1212  0.3018  0.9005
28392SOL     OW87182   1.968   0.908   7.205 -0.8749 -0.7679  0.4392
28392SOL    HW187183   1.940   0.883   7.293  0.2051  0.9244  1.3197
28392SOL    HW287184   1.890   0.946   7.165 -0.7485  0.9237  1.6828
28393SOL     OW87185   9.978  10.874   9.993  0.2964  0.5645 -0.0938
28393SOL    HW187186   9.927  10.802  10.031  1.1821 -0.6011 -1.0255
28393SOL    HW287187  10.059  10.833   9.962  0.8126  1.9582 -0.7021
28394SOL     OW87188   5.850   9.321   3.368 -0.2137 -0.2058  0.4508
28394SOL    HW187189   5.826   9.233   3.339 -0.1311 -0.5616  1.4202
28394SOL    HW287190   5.927   9.344   3.316 -0.0411 -0.8401  0.4152
28395SOL     OW87191   7.252   8.405   8.251 -0.4160 -0.1158 -0.1000
28395SOL    HW187192   7.173   8.362   8.218  0.3382 -2.2946  0.7150
28395SOL    HW287193   7.323   8.344   8.230  0.4559 -0.3272  2.9267
28396SOL     OW87194   8.420   2.848   6.318  0.0737 -0.3672 -0.4124
28396SOL    HW187195   8.396   2.873   6.229  1.4038 -2.2486 -1.3605
28396SOL    HW287196   8.515   2.858   6.321 -0.0187  0.3723  1.0562
28397SOL     OW87197   9.209   5.421   1.878 -0.7432 -0.2740  0.1248
28397SOL    HW187198   9.229   5.331   1.855 -2.2932 -0.8832  1.0459
28397SOL    HW287199   9.294   5.466   1.875  0.0298 -1.7203 -0.4512
28398SOL     OW87200   8.603   8.410   3.442 -0.5653 -0.0253  0.7742
28398SOL    HW187201   8.531   8.459   3.402 -1.0889  0.1932  1.9364
28398SOL    HW287202   8.564   8.326   3.468 -0.2649 -0.1162  0.9400
28399SOL     OW87203   6.509   2.831  10.204  0.8472  0.3426  0.0389
28399SOL    HW187204   6.557   2.805  10.125 -0.1573 -1.4701 -0.0366
28399SOL    HW287205   6.576   2.841  10.271  1.4619 -1.2862 -0.2745
28400SOL     OW87206   4.859  10.094   8.969 -0.1493 -0.1353  0.5999
28400SOL    HW187207   4.851  10.159   8.899  0.0510  1.3760  1.9179
28400SOL    HW287208   4.936  10.121   9.018 -0.3598 -1.0796  1.4812
28401SOL     OW87209   9.652   5.535   7.309 -0.1192 -0.2160  0.5495
28401SOL    HW187210   9.694   5.611   7.269 -1.4056  1.1547  1.6576
28401SOL    HW287211   9.593   5.502   7.241 -1.4459  1.3994  0.8224
28402SOL     OW87212   9.507   7.844   9.595 -0.0115  0.5861  0.2676
28402SOL    HW187213   9.593   7.837   9.556 -0.7966  1.6243 -1.7832
28402SOL    HW287214   9.495   7.760   9.642  1.2954 -0.3927 -1.0639
28403SOL     OW87215   3.507   1.744   7.341  0.0800 -0.1870  0.1354
28403SOL    HW187216   3.525   1.711   7.429  0.0076 -0.6706 -0.0301
28403SOL    HW287217   3.430   1.695   7.312 -1.1968  1.4156  0.5975
28404SOL     OW87218   5.222   8.367  10.225 -0.2270 -0.5161  0.1603
28404SOL    HW187219   5.287   8.418  10.274 -1.1491  1.1139 -0.2497
28404SOL    HW287220   5.186   8.307  10.290 -0.2194  0.4428  1.0828
28405SOL     OW87221   0.591   4.846   1.687  0.1036 -0.1161  0.3236
28405SOL    HW187222   0.585   4.785   1.614  1.8083  0.5393 -0.4239
28405SOL    HW287223   0.527   4.914   1.667  1.1722  0.5290 -1.0837
28406SOL     OW87224   2.832   9.178   7.557 -0.3425  0.2183 -0.7342
28406SOL    HW187225   2.863   9.241   7.622 -1.3179 -0.6394  0.6127
28406SOL    HW287226   2.910   9.153   7.509  0.2261  1.6904 -0.6298
28407SOL     OW87227   6.602   8.137   9.785 -1.0262  0.3336 -0.1597
28407SOL    HW187228   6.522   8.118   9.833 -1.2011  2.0853  0.3307
28407SOL    HW287229   6.581   8.116   9.694 -1.1917 -1.5729  0.2815
28408SOL     OW87230   3.039   8.385   3.530  0.7726 -0.3635  0.2706
28408SOL    HW187231   2.997   8.456   3.482 -0.0888 -1.1617 -0.2112
28408SOL    HW287232   3.045   8.416   3.620  0.3774  0.3005  0.0723
28409SOL     OW87233   2.330   3.016   3.209  0.6655  0.2512 -0.1014
28409SOL    HW187234   2.309   3.100   3.169 -0.2173  0.4151  0.6688
28409SOL    HW287235   2.402   3.037   3.269  0.5253  0.4384  0.0042
28410SOL     OW87236   2.380  11.028   5.523 -0.3980  0.4896  0.0900
28410SOL    HW187237   2.363  11.001   5.433 -1.5609  0.7909  0.2063
28410SOL    HW287238   2.390  10.946   5.572  1.9209  0.3034 -0.5786
28411SOL     OW87239  10.120   4.202   6.548  0.3985  0.2362  0.0013
28411SOL    HW187240  10.149   4.255   6.473  0.5857  1.8262  1.1293
28411SOL    HW287241  10.025   4.209   6.547  0.4021  0.2620 -0.1027
28412SOL     OW87242   8.541   1.328   2.873 -0.5804  0.5080  0.3308
28412SOL    HW187243   8.625   1.286   2.886 -1.0106 -0.7319 -0.6972
28412SOL    HW287244   8.487   1.297   2.945 -1.0652 -1.2422 -0.7253
28413SOL     OW87245  10.532   3.142   8.691  0.1380 -0.6010 -0.5469
28413SOL    HW187246  10.495   3.080   8.628 -2.3657 -0.3913  0.5837
28413SOL    HW287247  10.616   3.104   8.716 -0.8714 -3.0571 -0.6218
28414SOL     OW87248   9.680   8.742   1.366 -0.6168  0.8159  0.2295
28414SOL    HW187249   9.749   8.800   1.333 -0.5694  0.7881  0.2795
28414SOL    HW287250   9.721   8.655   1.367 -0.7861  0.7330 -0.1347
28415SOL     OW87251   6.196   6.573   9.105 -0.1784 -0.1236 -0.4558
28415SOL    HW187252   6.184   6.563   9.010 -0.5357  0.6082 -0.4997
28415SOL    HW287253   6.110   6.554   9.142  0.7602 -3.9756  0.0754
28416SOL     OW87254  10.797   0.106   3.446 -0.2577 -0.3215  0.3431
28416SOL    HW187255  10.728   0.168   3.421  2.0720  1.9619 -0.8552
28416SOL    HW287256  10.816   0.058   3.365 -0.9436 -1.5302  0.8753
28417SOL     OW87257   9.174  10.352   1.208 -0.0115 -1.0574  0.0979
28417SOL    HW187258   9.089  10.310   1.200 -0.3345 -0.5623  0.8771
28417SOL    HW287259   9.208  10.355   1.118 -1.1394 -0.5587 -0.3231
28418SOL     OW87260  10.960  10.721   3.665  0.0467 -0.8108  0.3419
28418SOL    HW187261  11.009  10.734   3.746  1.0553 -2.0079 -0.0497
28418SOL    HW287262  10.962  10.807   3.621 -0.3188 -0.2147  1.4550
28419SOL     OW87263   6.657   4.090   7.700  0.0306  0.1557  0.1922
28419SOL    HW187264   6.731   4.115   7.646  0.9232 -3.9627 -0.8113
28419SOL    HW287265   6.695   4.069   7.785 -0.0705 -1.1597 -0.0713
28420SOL     OW87266   5.111   7.145   4.974 -0.1930 -0.0461  0.5395
28420SOL    HW187267   5.150   7.155   4.887  3.0987  1.1766  1.9646
28420SOL    HW287268   5.074   7.231   4.994  0.1050  0.0314  0.7715
28421SOL     OW87269   3.245   3.340  10.141  0.0095  0.0559 -0.1675
28421SOL    HW187270   3.181   3.402  10.108  1.5799  2.4888  0.9941
28421SOL    HW287271   3.294   3.311  10.064  0.2597  1.5422 -0.5943
28422SOL     OW87272   3.583   8.041   4.112 -0.0684  0.2367  0.3148
28422SOL    HW187273   3.656   8.016   4.054  0.5517 -0.9241  1.5173
28422SOL    HW287274   3.626   8.067   4.194 -0.8685  2.7672  0.0108
28423SOL     OW87275   9.682   0.953  10.257 -0.1302 -0.0730  0.3485
28423SOL    HW187276   9.741   0.954  10.332  0.2830  0.5450  0.0204
28423SOL    HW287277   9.596   0.976  10.293 -0.0635 -0.4178  0.7309
28424SOL     OW87278   9.655   9.370   7.966 -0.2559 -0.0376 -0.0477
28424SOL    HW187279   9.677   9.463   7.961 -3.2260  0.7295 -0.6490
28424SOL    HW287280   9.652   9.341   7.875 -2.7723  0.2744 -0.1423
28425SOL     OW87281   5.728   8.684   5.660 -0.6188 -0.5017  1.0858
28425SOL    HW187282   5.805   8.645   5.700 -0.8204 -0.7330  1.2536
28425SOL    HW287283   5.703   8.621   5.591  1.2355  1.0945 -1.1932
28426SOL     OW87284   9.000  10.774   7.256  0.0877  0.6408  0.2679
28426SOL    HW187285   8.957  10.737   7.179  0.7022  1.5735 -0.5538
28426SOL    HW287286   9.067  10.832   7.220  1.6527 -0.3291  1.4991
28427SOL     OW87287   0.751   7.533   7.193 -0.2818 -0.4859 -0.2466
28427SOL    HW187288   0.771   7.622   7.223  0.9163 -1.5460  2.4271
28427SOL    HW287289   0.655   7.529   7.195 -0.3691  0.8568 -0.8002
28428SOL     OW87290   1.087   7.688   7.627 -0.0908  0.4620  1.0244
28428SOL    HW187291   1.107   7.702   7.534  0.7947  1.0218  1.2905
28428SOL    HW287292   1.151   7.742   7.674  1.6351 -2.2376  2.0436
28429SOL     OW87293   3.379   2.856   9.149 -0.7306 -0.2181  0.4043
28429SOL    HW187294   3.367   2.910   9.071  1.0372  0.0255  0.2574
28429SOL    HW287295   3.388   2.767   9.116 -2.5251 -0.5062  0.5650
28430SOL     OW87296   3.880   7.333   3.329  0.3777 -0.1483  0.3313
28430SOL    HW187297   3.941   7.337   3.255  1.8486 -4.2506  1.0729
28430SOL    HW287298   3.798   7.303   3.291  0.9250 -1.5562  0.2274
28431SOL     OW87299   4.916   1.513   6.417 -0.3274 -0.3303  0.3095
28431SOL    HW187300   4.902   1.545   6.328 -0.0021 -0.3797  0.2381
28431SOL    HW287301   4.834   1.469   6.440 -1.5461  2.2019  1.1455
28432SOL     OW87302   6.285   2.543   6.545  0.0688 -0.0759 -0.3186
28432SOL    HW187303   6.352   2.604   6.575 -0.2712  0.8082 -1.2893
28432SOL    HW287304   6.202   2.588   6.563 -0.2023 -0.4403 -0.6368
28433SOL     OW87305   5.055   2.437   7.265  0.5127  0.4866 -0.0297
28433SOL    HW187306   5.115   2.502   7.302 -0.3741  1.2697  0.0525
28433SOL    HW287307   5.109   2.388   7.203  1.0696  1.6464 -0.4868
28434SOL     OW87308  10.308   6.070   3.230 -0.0371 -0.2710  0.1816
28434SOL    HW187309  10.213   6.059   3.224  0.1271 -1.1663 -1.5116
28434SOL    HW287310  10.326   6.070   3.324 -1.8758  1.7996  0.6266
28435SOL     OW87311   5.498   0.888   5.665  0.7005 -0.0334 -0.6121
28435SOL    HW187312   5.523   0.975   5.634 -1.7323  2.9225  4.4212
28435SOL    HW287313   5.577   0.854   5.708  1.3803  0.0568 -1.7451
28436SOL     OW87314   8.913   0.792   8.068  0.5088 -0.4536  0.2184
28436SOL    HW187315   8.981   0.729   8.091 -0.9794 -2.2048 -0.0165
28436SOL    HW287316   8.913   0.794   7.972 -1.5615 -2.6148  0.0862
28437SOL     OW87317   7.466   6.654   7.438 -0.6664 -0.8328 -0.1727
28437SOL    HW187318   7.447   6.609   7.520 -0.9321 -0.3610  0.0193
28437SOL    HW287319   7.384   6.652   7.389 -0.9700  0.3534  0.2632
28438SOL     OW87320   0.255  10.407   4.046  0.2248  0.3882  0.0573
28438SOL    HW187321   0.204  10.347   3.991 -1.2111 -0.4115  2.1348
28438SOL    HW287322   0.345  10.397   4.014 -0.2369 -1.5916 -0.8036
28439SOL     OW87323   3.555   4.814   2.454  0.1775  0.1355  0.5034
28439SOL    HW187324   3.463   4.792   2.438  0.2131 -0.3073  0.8910
28439SOL    HW287325   3.556   4.849   2.543  0.2550  0.9424  0.1940
28440SOL     OW87326   3.073  10.961   0.310 -0.2666  0.0004 -0.0665
28440SOL    HW187327   3.020  10.998   0.239  0.0191 -0.8915 -0.7619
28440SOL    HW287328   3.054  10.868   0.308  1.1455 -0.3090 -0.1871
28441SOL     OW87329   5.961   5.233   8.595  0.0912  0.3806 -0.1293
28441SOL    HW187330   6.054   5.252   8.593 -0.1118  1.5768 -2.8264
28441SOL    HW287331   5.941   5.200   8.508 -2.0201  0.1992  0.3654
28442SOL     OW87332   3.879   6.852   5.305  0.3382 -0.4118 -0.3201
28442SOL    HW187333   3.877   6.912   5.231  1.5521 -0.7881 -0.6932
28442SOL    HW287334   3.788   6.842   5.331 -0.1603 -0.5800 -2.0252
28443SOL     OW87335   0.153   8.607   5.508 -0.0221  0.5074 -0.1013
28443SOL    HW187336   0.171   8.527   5.460 -2.7014  0.8617 -1.9390
28443SOL    HW287337   0.194   8.594   5.593  2.1387 -1.5252 -1.3386
28444SOL     OW87338   5.788   5.515   8.455 -0.1645 -0.5008 -0.2573
28444SOL    HW187339   5.880   5.499   8.436  0.5851  1.5838  1.2724
28444SOL    HW287340   5.761   5.581   8.390  0.1077  0.6104  0.7353
28445SOL     OW87341   2.664  10.048   3.418 -0.0927  0.2965  0.5793
28445SOL    HW187342   2.751  10.021   3.388  0.1418  0.2552  1.2764
28445SOL    HW287343   2.604  10.012   3.353  0.2709 -1.2338  1.0401
28446SOL     OW87344   3.643   9.090   8.938  0.2380  0.3574 -0.3004
28446SOL    HW187345   3.688   9.096   8.853  0.5083  0.2083 -0.1691
28446SOL    HW287346   3.647   8.997   8.960  0.5443  0.4576  0.0754
28447SOL     OW87347   8.647   7.593   4.931 -0.0585 -0.9129  0.4784
28447SOL    HW187348   8.670   7.531   5.000 -0.3684 -2.4849 -0.7744
28447SOL    HW287349   8.731   7.628   4.902  0.2495 -1.7126  0.3614
28448SOL     OW87350   7.726   1.104   7.818 -0.2502  0.0608  0.7228
28448SOL    HW187351   7.772   1.150   7.888  0.3124  2.7627 -1.2928
28448SOL    HW287352   7.635   1.099   7.849 -0.0706  1.4375  1.5309
28449SOL     OW87353   3.542   5.575   5.149  0.0153  0.2002 -0.7168
28449SOL    HW187354   3.498   5.647   5.193  0.8840 -0.2650  1.0130
28449SOL    HW287355   3.476   5.539   5.090 -1.1112  1.0628 -0.0335
28450SOL     OW87356   3.018   5.477   3.523  0.3088  0.0498  0.2012
28450SOL    HW187357   3.099   5.456   3.477 -0.1819 -1.2256 -0.1070
28450SOL    HW287358   2.962   5.518   3.457 -0.4278 -1.8580 -0.4140
28451SOL     OW87359   3.535   5.290   0.514  0.0496  0.2543  0.5600
28451SOL    HW187360   3.479   5.366   0.526 -0.1509  0.0679  0.7931
28451SOL    HW287361   3.519   5.235   0.590  0.9150  0.4276  0.8897
28452SOL     OW87362   7.975  10.216   6.914 -0.1321 -0.6675 -0.5908
28452SOL    HW187363   8.034  10.290   6.925 -0.1515 -0.5776 -1.0429
28452SOL    HW287364   8.032  10.142   6.895 -0.2024 -0.2940 -2.5147
28453SOL     OW87365   9.553   8.696   6.823 -0.2379  0.2429 -0.5712
28453SOL    HW187366   9.547   8.757   6.897  1.8715  0.7956 -0.7995
28453SOL    HW287367   9.488   8.728   6.761 -1.1113  0.5690  0.4679
28454SOL     OW87368   5.181   5.134   2.519  0.7771  0.1782  0.3548
28454SOL    HW187369   5.105   5.145   2.576 -0.7971  0.9663 -1.7823
28454SOL    HW287370   5.246   5.194   2.554  0.7262 -0.9308  2.5857
28455SOL     OW87371   9.661   3.390   8.507  0.3755  0.1876 -0.7382
28455SOL    HW187372   9.667   3.455   8.437  0.1404 -2.0320 -2.9619
28455SOL    HW287373   9.734   3.331   8.490  0.5451 -0.1869  1.1729
28456SOL     OW87374   6.457   7.278   8.084 -0.2637  0.2424 -0.7765
28456SOL    HW187375   6.456   7.191   8.123  0.5051  0.6690  0.2483
28456SOL    HW287376   6.514   7.270   8.008  0.2243 -0.0320 -0.3836
28457SOL     OW87377   3.630   6.304   6.503 -0.0763  0.4468 -0.8097
28457SOL    HW187378   3.661   6.325   6.591 -0.0783  0.8728 -0.9079
28457SOL    HW287379   3.570   6.376   6.480  1.7254  1.6410 -2.0788
28458SOL     OW87380   6.983   8.262   8.219  0.3714 -0.0681  0.2750
28458SOL    HW187381   6.921   8.296   8.155 -0.5501 -1.6921  0.2543
28458SOL    HW287382   6.929   8.218   8.284  1.5075 -2.5740 -0.3674
28459SOL     OW87383   1.030  10.687   3.054 -0.1202  0.9391 -0.7936
28459SOL    HW187384   0.951  10.741   3.046 -1.0726 -0.5145 -1.8683
28459SOL    HW287385   1.071  10.716   3.135 -2.2327  1.1637  0.2623
28460SOL     OW87386  10.698   6.847   5.270 -0.6777 -0.4620  0.0857
28460SOL    HW187387  10.728   6.818   5.184  0.8484 -0.8454  0.6991
28460SOL    HW287388  10.652   6.772   5.307  1.3435 -1.4570  0.7815
28461SOL     OW87389   7.563  10.603   9.217 -0.4441 -0.0863 -0.7333
28461SOL    HW187390   7.639  10.560   9.254 -0.7242  1.4940  1.9664
28461SOL    HW287391   7.522  10.648   9.291 -3.6437 -0.3124 -2.1903
28462SOL     OW87392   5.272   5.391   0.728  0.2768 -0.1498  0.3113
28462SOL    HW187393   5.333   5.399   0.801  0.8346 -0.0088 -0.1640
28462SOL    HW287394   5.187   5.412   0.766 -0.1200 -3.8088  1.8699
28463SOL     OW87395   1.612   9.583   6.186 -0.6780 -0.3701  0.0365
28463SOL    HW187396   1.531   9.545   6.149 -2.3962  2.2241  0.8692
28463SOL    HW287397   1.594   9.589   6.279 -0.0455  1.4214  0.0632
28464SOL     OW87398   8.732   2.725   7.874 -0.2311 -0.3287 -0.3383
28464SOL    HW187399   8.823   2.746   7.853  0.4791 -0.7750  1.9514
28464SOL    HW287400   8.730   2.722   7.970 -2.7810  0.1320 -0.2988
28465SOL     OW87401   9.272  11.056   1.321  0.8035  0.4077  0.2676
28465SOL    HW187402   9.202  11.119   1.338  0.8948  0.6297 -0.1492
28465SOL    HW287403   9.230  10.970   1.326  0.3527  0.5594 -0.6092
28466SOL     OW87404   4.496   2.648   1.153  0.6702 -0.1079 -0.1778
28466SOL    HW187405   4.441   2.573   1.173  2.2012 -1.4322 -0.7598
28466SOL    HW287406   4.438   2.724   1.166 -0.8938 -1.3517  0.4686
28467SOL     OW87407  11.027   4.600  10.587 -0.3113  0.5443  0.3795
28467SOL    HW187408  11.105   4.549  10.610 -0.3775  1.0236  1.7456
28467SOL    HW287409  11.030   4.676  10.644 -1.0402  1.3025 -0.5587
28468SOL     OW87410   2.729   1.156   6.240 -0.2729  0.0080  0.2005
28468SOL    HW187411   2.686   1.238   6.262 -1.2418 -0.5504  0.4238
28468SOL    HW287412   2.701   1.137   6.150  0.4796  0.2482 -0.0952
28469SOL     OW87413   4.508   4.643   7.436  0.2267  0.0201  0.2224
28469SOL    HW187414   4.427   4.646   7.384  0.8731  2.1032 -0.8020
28469SOL    HW287415   4.540   4.733   7.434  2.5914 -0.7584  0.6164
28470SOL     OW87416   6.892   8.616   3.207  0.1048 -0.4852 -0.4094
28470SOL    HW187417   6.821   8.570   3.163  0.4246  0.2502 -1.7525
28470SOL    HW287418   6.874   8.708   3.194 -0.0140 -0.2112  1.4297
28471SOL     OW87419   0.457   5.023   0.925  0.0401 -0.1874  0.3401
28471SOL    HW187420   0.479   4.932   0.906 -0.9804 -0.8470  2.0978
28471SOL    HW287421   0.370   5.019   0.964  0.5823  1.3791  1.8292
28472SOL     OW87422   4.438   5.443   6.244  0.0032  0.2677 -0.0923
28472SOL    HW187423   4.470   5.416   6.158 -0.9960 -1.8830  0.1481
28472SOL    HW287424   4.412   5.534   6.233  2.3845  0.8880 -1.3287
28473SOL     OW87425   2.695   0.856  10.563  0.3368 -0.4265 -0.6244
28473SOL    HW187426   2.781   0.823  10.536  0.2263  0.3387 -2.0251
28473SOL    HW287427   2.634   0.817  10.500 -0.0664  0.6596 -0.9301
28474SOL     OW87428   9.080   4.394   1.787 -0.1134 -0.1551 -0.4987
28474SOL    HW187429   9.152   4.383   1.850 -0.8662  0.9124  0.5880
28474SOL    HW287430   9.122   4.430   1.709  0.5100  0.6813  0.2039
28475SOL     OW87431   0.497   3.074   1.283  0.1891  0.2218 -0.3080
28475SOL    HW187432   0.518   3.001   1.341  0.7682 -0.2224 -1.0452
28475SOL    HW287433   0.532   3.152   1.327 -0.4166  0.0571  0.4759
28476SOL     OW87434  10.664  10.419   1.610 -0.3789  0.0707 -0.2806
28476SOL    HW187435  10.600  10.464   1.665 -0.9918 -0.9746 -0.0952
28476SOL    HW287436  10.733  10.393   1.671 -0.6707 -0.3880 -0.1384
28477SOL     OW87437   1.653  10.653  11.015  0.9658  0.4595  0.1308
28477SOL    HW187438   1.617  10.583  10.960  0.0157  2.3138 -1.7816
28477SOL    HW287439   1.579  10.684  11.065  1.1516  0.7541  0.2225
28478SOL     OW87440   7.156  10.890   6.704  0.4162 -1.0810  0.2289
28478SOL    HW187441   7.212  10.842   6.764  0.5510 -1.0644  0.1178
28478SOL    HW287442   7.147  10.977   6.743  2.3950 -0.2974 -0.9012
28479SOL     OW87443   5.134   4.110   7.736 -0.1945 -0.2057 -0.0308
28479SOL    HW187444   5.107   4.173   7.802 -1.3772  0.7168 -1.3523
28479SOL    HW287445   5.205   4.061   7.778 -0.0392  1.1945  1.4472
28480SOL     OW87446   1.583  10.659   7.028 -0.0212 -0.0121 -0.5246
28480SOL    HW187447   1.528  10.587   6.997  1.0704 -0.6391 -1.0836
28480SOL    HW287448   1.557  10.734   6.974 -1.8619  0.3039  0.7404
28481SOL     OW87449   9.176   4.687   2.503 -0.2672  0.7235  0.2448
28481SOL    HW187450   9.101   4.737   2.473 -0.4838  1.2521  1.6028
28481SOL    HW287451   9.225   4.748   2.559  2.5888  1.2739 -2.5147
28482SOL     OW87452   1.678  10.216   3.366 -0.1950  0.7601  0.7322
28482SOL    HW187453   1.714  10.290   3.318  1.5232  0.2746  1.2006
28482SOL    HW287454   1.701  10.232   3.457 -0.3628 -0.0358  0.9262
28483SOL     OW87455  10.671   1.851   4.209 -0.0496  0.0739  1.0762
28483SOL    HW187456  10.756   1.808   4.213  0.4067  0.9084  0.6216
28483SOL    HW287457  10.641   1.852   4.300 -0.3373 -1.6837  1.0282
28484SOL     OW87458   8.381   4.099   4.727 -0.9754  0.0850  0.4228
28484SOL    HW187459   8.328   4.154   4.670  0.2031  0.3386 -0.4706
28484SOL    HW287460   8.416   4.160   4.793 -2.6070 -0.2654  1.6627
28485SOL     OW87461   2.527   7.442   9.296  0.8104 -0.2857 -0.0141
28485SOL    HW187462   2.507   7.434   9.389  1.6354  1.7946  0.3949
28485SOL    HW287463   2.442   7.435   9.252  0.4664 -1.8222  0.8044
28486SOL     OW87464   0.594   8.272   5.702  0.1657  0.5457  0.1825
28486SOL    HW187465   0.689   8.284   5.712  0.3583  0.6217 -1.4740
28486SOL    HW287466   0.578   8.183   5.730  0.5209  0.9219  1.6682
28487SOL     OW87467   3.815   2.761   2.007 -0.3346  0.1751  0.3065
28487SOL    HW187468   3.867   2.837   2.033 -0.0892  0.4136 -0.8390
28487SOL    HW287469   3.830   2.752   1.913 -0.7279 -1.0145  0.3366
28488SOL     OW87470   5.129   5.362   1.920  0.0206  0.0336  0.2634
28488SOL    HW187471   5.058   5.307   1.954 -0.0162 -0.9077 -1.2292
28488SOL    HW287472   5.201   5.302   1.904  0.7813  0.8079  0.7344
28489SOL     OW87473   5.210  10.081   8.339 -0.1063  0.6190 -0.3558
28489SOL    HW187474   5.140  10.103   8.400 -0.8690  0.7363 -1.2574
28489SOL    HW287475   5.194  10.136   8.262 -0.5976 -1.2284 -1.6490
28490SOL     OW87476   8.214   4.905   3.485  0.4911  0.1282 -0.3977
28490SOL    HW187477   8.175   4.841   3.545 -0.0651  1.0652  0.2554
28490SOL    HW287478   8.211   4.988   3.532  1.3504  0.6223 -1.1742
28491SOL     OW87479   3.929   4.401   4.811  0.2060 -0.3522  0.1843
28491SOL    HW187480   3.839   4.382   4.784 -1.3563 -0.2110  4.4288
28491SOL    HW287481   3.920   4.474   4.873  3.3014 -0.1715  0.5624
28492SOL     OW87482   5.934   3.372   7.202  0.0236  0.5685 -0.2551
28492SOL    HW187483   5.867   3.308   7.226  0.4851  0.3131  0.3667
28492SOL    HW287484   5.889   3.432   7.142 -0.7553  0.3806  0.1271
28493SOL     OW87485   6.917   3.733   3.870 -0.6820  0.2095 -0.7970
28493SOL    HW187486   6.831   3.767   3.895 -0.1061  0.5385  0.8485
28493SOL    HW287487   6.980   3.795   3.908  0.3134  0.3250 -2.4817
28494SOL     OW87488   9.953   0.959   2.778  0.3320 -0.2098  0.2772
28494SOL    HW187489   9.970   0.972   2.684  3.3619  1.0970  0.8760
28494SOL    HW287490   9.914   0.872   2.783 -3.5506  1.0592 -2.4358
28495SOL     OW87491   3.344   2.569   9.842  0.3414  0.0220 -0.3637
28495SOL    HW187492   3.328   2.581   9.935  1.8182 -1.4407  0.1216
28495SOL    HW287493   3.266   2.603   9.799 -0.6937  0.0003  1.4434
28496SOL     OW87494   5.488   6.171   1.108 -0.2791 -0.1790  0.4917
28496SOL    HW187495   5.420   6.120   1.064 -1.3027  1.2620  0.3497
28496SOL    HW287496   5.450   6.193   1.193 -0.2180  1.0788  0.2077
28497SOL     OW87497   0.720   7.744   9.742  0.0804 -0.3829 -0.1244
28497SOL    HW187498   0.681   7.768   9.658  0.3693  0.6862  0.0340
28497SOL    HW287499   0.651   7.697   9.788 -0.4185 -0.0909 -0.5684
28498SOL     OW87500   0.999   5.192   3.942  0.1524  0.2090 -0.8142
28498SOL    HW187501   0.965   5.110   3.906  0.3629  0.6679 -2.1190
28498SOL    HW287502   0.921   5.242   3.966 -0.0270  0.2210 -1.4070
28499SOL     OW87503   4.584   0.141   5.868  0.3154 -0.9923 -0.0239
28499SOL    HW187504   4.521   0.070   5.860  1.5989 -2.0430 -1.5924
28499SOL    HW287505   4.587   0.180   5.780  0.3455  0.3796  0.5611
28500SOL     OW87506   8.794   5.555   4.087  0.4591  0.1441  0.3438
28500SOL    HW187507   8.738   5.479   4.102  1.8454 -1.1954 -0.8796
28500SOL    HW287508   8.760   5.622   4.146 -1.9320 -0.8275  0.1675
28501SOL     OW87509  10.874   8.334   0.022  0.2085  0.5899 -0.3597
28501SOL    HW187510  10.812   8.389  -0.027  0.9625  1.8757  0.0785
28501SOL    HW287511  10.908   8.272  -0.043 -0.2119  1.0340 -1.0156
28502SOL     OW87512   5.517   0.112   7.895  0.3227  0.1168 -0.6911
28502SOL    HW187513   5.568   0.075   7.968  0.7834  1.9053 -0.0656
28502SOL    HW287514   5.507   0.039   7.834  0.2768 -1.3312  0.9654
28503SOL     OW87515   6.878   9.784   5.578 -0.5173 -0.4834  0.5628
28503SOL    HW187516   6.910   9.731   5.505 -0.9015  0.3133 -0.1974
28503SOL    HW287517   6.940   9.766   5.649  0.4236 -0.5396 -0.2478
28504SOL     OW87518   2.580   4.484   7.788  0.1614  0.0977  0.4458
28504SOL    HW187519   2.539   4.398   7.790 -0.9990  0.5023 -1.9032
28504SOL    HW287520   2.531   4.535   7.853  1.2724 -1.0978  2.3124
28505SOL     OW87521   0.519   6.466   9.865  0.0030 -0.2592 -0.0374
28505SOL    HW187522   0.534   6.559   9.852 -2.0860  0.2557  0.7963
28505SOL    HW287523   0.503   6.457   9.959  1.3202 -1.6774  0.0965
28506SOL     OW87524   6.816   1.944   5.790  0.0944  0.0904  0.2002
28506SOL    HW187525   6.905   1.912   5.805 -0.7482 -2.0292  1.1589
28506SOL    HW287526   6.763   1.865   5.781 -1.4909  1.2816 -2.0059
28507SOL     OW87527   3.319   9.736   1.101  0.5386  0.1658  0.5097
28507SOL    HW187528   3.225   9.734   1.119 -0.4339 -1.3751 -3.6108
28507SOL    HW287529   3.350   9.648   1.119  0.4207 -0.2297 -1.0454
28508SOL     OW87530   7.370   8.772   3.844 -0.2414  0.0231  0.6096
28508SOL    HW187531   7.461   8.761   3.870  0.8060  0.1971 -2.4803
28508SOL    HW287532   7.330   8.686   3.857  0.2328  0.0323  2.3110
28509SOL     OW87533  10.244   7.345   9.974 -0.3096  0.2518  0.1455
28509SOL    HW187534  10.283   7.428   9.945  1.3194 -0.6998 -0.4882
28509SOL    HW287535  10.287   7.326  10.057 -1.7351  0.7222  1.0348
28510SOL     OW87536   0.870   6.052   5.574 -0.1140  0.4796 -0.9738
28510SOL    HW187537   0.875   6.063   5.479  0.4975  1.5767 -0.8348
28510SOL    HW287538   0.957   6.077   5.605  0.0328 -0.9119 -0.2099
28511SOL     OW87539   4.102   2.930   2.439 -0.3606  0.0490 -0.3477
28511SOL    HW187540   4.015   2.901   2.467  0.0828  0.0200  1.0964
28511SOL    HW287541   4.099   3.025   2.444  0.3819  0.0172  2.1289
28512SOL     OW87542   0.792   0.401   8.170 -0.4699  0.5509 -0.6491
28512SOL    HW187543   0.794   0.313   8.133 -1.2281  0.2745 -0.0648
28512SOL    HW287544   0.716   0.401   8.228  0.6379  0.9808  0.8855
28513SOL     OW87545   3.610   2.172   0.054  0.2167 -0.1903  0.4735
28513SOL    HW187546   3.553   2.238   0.013  1.5814 -0.4554 -2.0715
28513SOL    HW287547   3.586   2.090   0.011 -0.0314 -1.0172  2.1170
28514SOL     OW87548  10.413   6.429   8.432 -0.0080 -0.4334  0.0660
28514SOL    HW187549  10.449   6.517   8.426  1.0440 -0.6492  2.0648
28514SOL    HW287550  10.481   6.372   8.396 -0.8817 -0.4284 -1.6654
28515SOL     OW87551   3.442  10.047   8.172 -0.5280  0.1548  0.4607
28515SOL    HW187552   3.378  10.117   8.162  1.1999  1.5376 -1.8831
28515SOL    HW287553   3.508  10.083   8.231 -1.1701 -0.7453  1.7708
28516SOL     OW87554   9.861   6.239   6.378 -0.0200  0.4752 -0.3730
28516SOL    HW187555   9.844   6.185   6.300 -1.5406  0.2320  0.1019
28516SOL    HW287556   9.830   6.186   6.451  1.2266  0.7818  0.4085
28517SOL     OW87557   8.284   7.906   0.461  0.0054 -0.1092 -0.3680
28517SOL    HW187558   8.210   7.916   0.520  0.0842 -0.3274 -0.2268
28517SOL    HW287559   8.360   7.932   0.513  0.0082  0.2876 -0.5694
28518SOL     OW87560   9.673  10.734   4.225  0.0619  0.3371 -0.5532
28518SOL    HW187561   9.661  10.790   4.301 -1.0932  0.1501 -0.5787
28518SOL    HW287562   9.736  10.781   4.170  0.3660  0.8091  0.1805
28519SOL     OW87563   9.264  10.085   8.535  0.0283  0.0516  0.3264
28519SOL    HW187564   9.332  10.120   8.478 -0.5936 -0.2680 -0.6316
28519SOL    HW287565   9.225  10.013   8.486 -1.2777  0.4840  0.6694
28520SOL     OW87566   6.035   2.835   6.360  0.0174  0.1122  0.2055
28520SOL    HW187567   6.101   2.904   6.349 -0.0496  0.4804  1.8639
28520SOL    HW287568   6.012   2.839   6.453 -1.2338 -1.0305 -0.0340
28521SOL     OW87569   5.694   7.185   9.909 -0.1386  0.4202 -0.2987
28521SOL    HW187570   5.703   7.118   9.977  2.0156 -2.5771 -3.2375
28521SOL    HW287571   5.784   7.210   9.888 -0.6575  0.6025 -2.5624
28522SOL     OW87572   0.892   2.088   5.531  0.3208  0.8138  0.7341
28522SOL    HW187573   0.829   2.159   5.534 -0.0756  0.4724  0.5267
28522SOL    HW287574   0.971   2.124   5.573  0.7742  2.0049 -1.0449
28523SOL     OW87575   7.339  10.995   6.528 -0.0865 -0.4889 -0.3305
28523SOL    HW187576   7.409  10.931   6.513 -0.9304 -2.0204  1.7612
28523SOL    HW287577   7.290  10.960   6.602 -1.1369  2.1795  0.3513
28524SOL     OW87578   0.039   5.753   3.105 -0.0394 -0.0683 -0.5745
28524SOL    HW187579  -0.040   5.721   3.147  0.4279 -0.9596 -0.3490
28524SOL    HW287580   0.067   5.681   3.049  0.5962  0.2504 -0.6745
28525SOL     OW87581   4.084   7.396   7.398 -0.1983  0.5426 -0.0447
28525SOL    HW187582   4.162   7.438   7.363  0.7160 -1.4072 -0.4648
28525SOL    HW287583   4.102   7.385   7.491  0.3909 -0.5574 -0.2646
28526SOL     OW87584   9.064   8.398  10.427  0.5959 -0.5259  0.1876
28526SOL    HW187585   9.023   8.418  10.511  0.5897 -1.2506  0.3677
28526SOL    HW287586   9.137   8.340  10.449  0.2788 -1.1447 -0.3405
28527SOL     OW87587   9.338   2.806   5.488  0.4274  0.6177 -0.0491
28527SOL    HW187588   9.391   2.778   5.562  1.2159  5.5611  1.6066
28527SOL    HW287589   9.401   2.827   5.419 -0.0599 -0.6215 -0.9112
28528SOL     OW87590   1.955   4.864   2.778 -0.0289 -0.3635  0.1062
28528SOL    HW187591   2.014   4.911   2.836  0.0089  1.2606 -1.1836
28528SOL    HW287592   2.005   4.851   2.698 -0.3468 -1.8826  0.1122
28529SOL     OW87593   9.238   0.836   1.271  0.2950  0.4346 -0.3502
28529SOL    HW187594   9.286   0.878   1.343 -1.3765  2.4079 -0.2774
28529SOL    HW287595   9.306   0.802   1.213  1.7983  2.6381 -0.0059
28530SOL     OW87596   6.979   3.671   2.682 -0.0841  0.1112 -0.5009
28530SOL    HW187597   6.957   3.754   2.723  1.7067 -0.1576  1.1795
28530SOL    HW287598   6.975   3.607   2.753  0.5876 -0.8725 -1.3095
28531SOL     OW87599   9.078   6.004   4.172 -0.1606  0.6434 -0.6754
28531SOL    HW187600   9.066   5.911   4.152  1.6421  0.3485 -0.5338
28531SOL    HW287601   8.991   6.034   4.198 -0.4498 -1.4817  1.1675
28532SOL     OW87602   2.894   5.407   6.579  0.7926  0.4876  0.1397
28532SOL    HW187603   2.949   5.446   6.646 -0.1859  0.9696  0.6733
28532SOL    HW287604   2.908   5.312   6.589  2.5689  0.6371 -0.6523
28533SOL     OW87605   4.624   0.333   0.228  0.4995  0.3232 -0.1796
28533SOL    HW187606   4.553   0.327   0.164  0.6183 -2.2317 -0.1579
28533SOL    HW287607   4.704   0.338   0.176  0.5328 -0.7313 -0.2379
28534SOL     OW87608   5.610   9.628   8.852 -0.5771  0.7017 -0.3096
28534SOL    HW187609   5.553   9.695   8.816 -1.9414 -0.9364 -1.3872
28534SOL    HW287610   5.554   9.576   8.910  0.5280  0.6989  0.7900
28535SOL     OW87611   9.312   5.684   5.755  1.0395 -0.0811 -0.1209
28535SOL    HW187612   9.219   5.694   5.736  1.0540 -1.1205 -0.7962
28535SOL    HW287613   9.351   5.767   5.727  0.4757 -0.0793 -0.9531
28536SOL     OW87614   7.103   0.601   1.604 -0.6814 -0.2098  0.0999
28536SOL    HW187615   7.156   0.592   1.524  0.3632 -2.6111  0.9644
28536SOL    HW287616   7.014   0.581   1.576 -0.6119  0.5913 -0.7536
28537SOL     OW87617   2.113  10.080   1.012 -0.8283 -0.3982 -0.5233
28537SOL    HW187618   2.133  10.095   0.919  0.2265 -0.1416 -0.2675
28537SOL    HW287619   2.024  10.112   1.022 -0.2299  1.5701 -0.9968
28538SOL     OW87620   9.583   3.435  10.285 -0.7712 -0.0779 -0.2075
28538SOL    HW187621   9.493   3.451  10.254  0.1207 -1.2574 -3.9952
28538SOL    HW287622   9.627   3.519  10.273 -1.3171  0.5375  1.7743
28539SOL     OW87623   4.036   9.817   2.497 -0.7609  0.1716 -0.2526
28539SOL    HW187624   4.116   9.802   2.447 -0.4971  1.1212 -0.1301
28539SOL    HW287625   4.030   9.912   2.506 -0.0075  0.0370  2.8000
28540SOL     OW87626   4.573   2.431   5.661 -0.0852  0.1564  0.5261
28540SOL    HW187627   4.655   2.382   5.668 -2.4821 -4.7931 -1.5693
28540SOL    HW287628   4.529   2.417   5.745 -0.1863 -0.1008  0.4308
28541SOL     OW87629   4.705   9.681   2.624 -0.2621  0.1005  0.0789
28541SOL    HW187630   4.767   9.749   2.647  0.0920 -0.1982  0.0243
28541SOL    HW287631   4.652   9.668   2.703 -1.2706  1.4103 -0.3400
28542SOL     OW87632   2.497   6.263   2.926 -0.0374 -0.9903 -0.6578
28542SOL    HW187633   2.507   6.246   3.020  2.7841  0.1671 -0.6429
28542SOL    HW287634   2.404   6.281   2.915 -0.6843 -2.4449  1.6642
28543SOL     OW87635   7.634   3.736  10.836 -0.9341 -0.0942 -0.0749
28543SOL    HW187636   7.681   3.672  10.783 -0.8796 -0.1296  0.0167
28543SOL    HW287637   7.671   3.727  10.924 -0.1080  0.8482 -0.3053
28544SOL     OW87638   2.931   5.770   8.543 -0.1459 -0.0119  0.0911
28544SOL    HW187639   2.970   5.751   8.458 -3.1284  3.5633 -2.3538
28544SOL    HW287640   2.837   5.754   8.531 -0.9314  2.5560  2.0113
28545SOL     OW87641   9.367   7.109   7.083  0.1282  1.1071 -0.7375
28545SOL    HW187642   9.425   7.034   7.073 -1.4112 -0.1736 -0.3958
28545SOL    HW287643   9.383   7.139   7.173  0.8342  1.2794 -0.9130
28546SOL     OW87644   8.243   0.321   9.758  0.3135 -0.4190 -0.4918
28546SOL    HW187645   8.259   0.395   9.700  3.6711 -0.0996  0.6160
28546SOL    HW287646   8.323   0.268   9.752  0.0424 -1.3540  2.3903
28547SOL     OW87647   2.927   7.155   4.251  0.1213  0.3953  1.0127
28547SOL    HW187648   2.971   7.073   4.228  1.8024  0.4290  3.6031
28547SOL    HW287649   2.872   7.132   4.326 -0.7562  1.3166  0.6764
28548SOL     OW87650   5.811   8.747   9.528  0.2029  0.0427 -0.0687
28548SOL    HW187651   5.727   8.700   9.532 -0.5557  1.1706 -1.5964
28548SOL    HW287652   5.875   8.679   9.509 -0.6480 -0.6068 -0.7304
28549SOL     OW87653   8.176   6.525   3.008 -0.0372 -0.3355 -0.2947
28549SOL    HW187654   8.100   6.547   2.954 -0.2785 -1.6502 -0.5260
28549SOL    HW287655   8.158   6.566   3.092 -0.7113 -0.1129 -0.5377
28550SOL     OW87656   5.385   0.491   9.787 -0.2125 -0.2345 -0.2362
28550SOL    HW187657   5.302   0.538   9.781  1.8002  4.3536  2.4501
28550SOL    HW287658   5.433   0.517   9.708 -0.2649 -0.5648 -0.3802
28551SOL     OW87659   9.770   4.258   3.652  0.0350 -0.4885  0.2806
28551SOL    HW187660   9.797   4.203   3.579  0.9978 -1.4860  1.3419
28551SOL    HW287661   9.824   4.229   3.725 -1.4009 -0.0317  1.5792
28552SOL     OW87662   6.370   5.724   6.409  0.5461 -0.0072 -0.8032
28552SOL    HW187663   6.344   5.811   6.440  1.2485 -0.5114  1.3811
28552SOL    HW287664   6.325   5.714   6.325  0.1621  2.3067 -0.9300
28553SOL     OW87665   3.776   5.356   8.314  0.4640 -0.2057  0.0375
28553SOL    HW187666   3.829   5.301   8.256  1.5778 -0.2245  1.0585
28553SOL    HW287667   3.795   5.445   8.286  1.2129 -0.2026  0.5412
28554SOL     OW87668   2.502   7.561   4.047 -0.4626  0.1384  0.3888
28554SOL    HW187669   2.485   7.655   4.044 -1.1495  0.0239  0.6061
28554SOL    HW287670   2.531   7.545   4.137  2.0970  0.5359 -0.2895
28555SOL     OW87671   6.556   8.335   9.242  0.6280  0.1430 -0.3228
28555SOL    HW187672   6.596   8.386   9.313  1.5687 -0.5337 -0.3439
28555SOL    HW287673   6.463   8.360   9.244  0.4395 -0.4722  1.7128
28556SOL     OW87674   2.392   8.125   6.776 -0.4772 -0.1128 -0.2073
28556SOL    HW187675   2.333   8.193   6.744 -1.9783 -1.9596 -1.5327
28556SOL    HW287676   2.437   8.166   6.850 -2.8524  1.6420  0.3818
28557SOL     OW87677   2.108   8.477   8.205 -0.5543 -0.3431  0.0391
28557SOL    HW187678   2.116   8.393   8.250  1.5400  0.6412  1.6396
28557SOL    HW287679   2.053   8.530   8.263 -3.3270 -1.0143 -1.7619
28558SOL     OW87680   9.158   8.642   4.286 -0.6905  0.7675 -0.1163
28558SOL    HW187681   9.073   8.596   4.278 -0.3574  0.2667 -0.9080
28558SOL    HW287682   9.134   8.733   4.302 -1.3788  0.4921  0.5027
28559SOL     OW87683   9.296   6.597  10.402  0.0347 -0.1362  0.1544
28559SOL    HW187684   9.356   6.553  10.463 -2.1061 -2.2777  0.9008
28559SOL    HW287685   9.352   6.655  10.351  2.2005  0.5883  3.0771
28560SOL     OW87686   5.049   5.689   5.226 -0.0338  0.2255  0.3421
28560SOL    HW187687   4.988   5.714   5.156  1.0611  0.6641 -0.4875
28560SOL    HW287688   5.132   5.731   5.201  1.1725 -2.0321  0.3288
28561SOL     OW87689   8.655   7.603  10.860 -0.4143 -0.9195  0.1368
28561SOL    HW187690   8.628   7.598  10.769 -0.7525  2.2756 -0.0417
28561SOL    HW287691   8.739   7.649  10.858 -0.3908 -0.8467  1.4611
28562SOL     OW87692   0.177   9.653   5.342 -0.2145  0.0635 -0.1005
28562SOL    HW187693   0.121   9.582   5.312 -0.6567  0.1167  0.5819
28562SOL    HW287694   0.176   9.645   5.438 -0.8186  1.3959  0.0185
28563SOL     OW87695   4.983   0.185   2.893  0.1182 -0.2426 -0.2631
28563SOL    HW187696   4.895   0.174   2.855  0.3912 -2.2538 -0.4256
28563SOL    HW287697   5.042   0.181   2.817  0.4823 -1.2618  0.0634
28564SOL     OW87698   1.305   4.307   2.991  0.1258  0.3854 -0.2565
28564SOL    HW187699   1.342   4.255   2.920 -1.0859  1.8451 -2.0851
28564SOL    HW287700   1.230   4.255   3.022 -0.2193  0.3600 -1.0875
28565SOL     OW87701   0.931   3.807   3.867  0.0327  0.1558 -0.0415
28565SOL    HW187702   1.024   3.786   3.855  0.3351  1.4350 -0.0824
28565SOL    HW287703   0.892   3.725   3.897  0.8202 -0.9232 -1.7590
28566SOL     OW87704   9.392   0.348   3.346  0.3825 -0.6499  0.5631
28566SOL    HW187705   9.300   0.345   3.374  0.3768  2.9245  1.3673
28566SOL    HW287706   9.387   0.346   3.250 -0.4678 -0.9771  0.5978
28567SOL     OW87707  10.123   6.087  11.090  0.1834 -0.3115  0.1421
28567SOL    HW187708  10.213   6.079  11.123  0.2620  2.5364  0.8479
28567SOL    HW287709  10.134   6.113  10.998  0.0953  0.7584  0.4330
28568SOL     OW87710   0.472   9.116   9.987  0.0277 -0.3800  0.3323
28568SOL    HW187711   0.533   9.175   9.943  0.4438  1.0460  2.6605
28568SOL    HW287712   0.439   9.059   9.917  2.5796  0.0221 -1.3319
28569SOL     OW87713  11.041   8.371   1.038 -0.1187  0.0692  0.1618
28569SOL    HW187714  10.950   8.354   1.064 -0.2608  1.6226  0.8133
28569SOL    HW287715  11.038   8.458   0.998  0.8923 -0.3862 -0.9459
28570SOL     OW87716   2.337   2.109   7.211 -0.3554  0.1671  0.0660
28570SOL    HW187717   2.303   2.194   7.237  1.5125  1.1510 -0.5316
28570SOL    HW287718   2.301   2.094   7.123 -2.6182 -0.8383  1.0844
28571SOL     OW87719   0.400   8.244  10.092  0.0862  0.0713  0.1543
28571SOL    HW187720   0.330   8.242  10.027  0.0074  0.6093  0.2108
28571SOL    HW287721   0.468   8.300  10.053  0.4857 -0.4420  0.1013
28572SOL     OW87722   5.845   8.741   0.881 -0.2698  0.3841  0.1213
28572SOL    HW187723   5.900   8.771   0.954 -1.9107 -0.6145  1.8611
28572SOL    HW287724   5.814   8.654   0.908 -0.5348 -0.2268 -2.0109
28573SOL     OW87725   1.831   2.605   5.659 -0.7448 -0.3948 -0.0786
28573SOL    HW187726   1.769   2.584   5.589 -2.3808 -1.3163  1.5553
28573SOL    HW287727   1.824   2.532   5.720  0.3881  0.5207  1.2066
28574SOL     OW87728   4.444   2.801   0.870  0.5400 -0.0499 -0.1274
28574SOL    HW187729   4.507   2.750   0.922  0.7795  0.1278 -0.2386
28574SOL    HW287730   4.358   2.772   0.901  0.6668 -0.7374 -0.4009
28575SOL     OW87731   6.946   5.002   9.934 -0.0160  0.8961 -0.0083
28575SOL    HW187732   6.968   5.094   9.923  1.0038  0.7605  0.7468
28575SOL    HW287733   6.968   4.962   9.849  2.2108  0.8841  0.5114
28576SOL     OW87734  10.547   5.527   5.037 -0.6153  0.0037 -0.3743
28576SOL    HW187735  10.541   5.435   5.010 -2.4077  0.9832 -3.8005
28576SOL    HW287736  10.501   5.575   4.969 -0.5306  3.4236  1.7740
28577SOL     OW87737  10.255   7.311   7.703 -0.1117  0.1606  0.1910
28577SOL    HW187738  10.178   7.330   7.756 -0.6438 -0.8491 -0.1948
28577SOL    HW287739  10.325   7.363   7.742 -1.1309  1.6027  0.1451
28578SOL     OW87740   8.287   6.312   5.369 -0.7637  0.0176 -0.3459
28578SOL    HW187741   8.251   6.302   5.457  2.7329 -0.5490  1.1788
28578SOL    HW287742   8.287   6.223   5.332  0.7371 -0.3416  0.4399
28579SOL     OW87743   4.502   1.799   9.274  0.2323  0.8845 -0.3972
28579SOL    HW187744   4.570   1.740   9.239  1.6500  1.5383  1.1622
28579SOL    HW287745   4.440   1.740   9.316  0.8453  0.3776 -0.1724
28580SOL     OW87746   5.386   8.742  10.444 -0.0218  0.1493 -0.8266
28580SOL    HW187747   5.451   8.795  10.491  1.5391 -0.6585 -1.9621
28580SOL    HW287748   5.335   8.700  10.513  1.2084  0.1751  0.1377
28581SOL     OW87749   2.542   0.930   4.865  0.0714 -0.0993  0.6784
28581SOL    HW187750   2.557   0.879   4.944  1.3096 -0.6765  0.1004
28581SOL    HW287751   2.623   0.979   4.852  1.3772 -2.7212 -2.1667
28582SOL     OW87752   1.765  10.271   6.890  0.6991 -0.2624 -0.7951
28582SOL    HW187753   1.860  10.274   6.889  0.7922  0.3640  1.9085
28582SOL    HW287754   1.743  10.224   6.971 -1.2644  1.4429 -0.2519
28583SOL     OW87755   8.082   5.644  10.487  0.3858 -0.0732  0.8273
28583SOL    HW187756   8.044   5.701  10.553 -0.1763  1.9664 -1.1285
28583SOL    HW287757   8.017   5.575  10.475  0.0421  0.0914  1.6762
28584SOL     OW87758  10.553   0.504   4.582  0.4920  0.1570 -0.0079
28584SOL    HW187759  10.473   0.542   4.619  0.8808  0.5164  0.4809
28584SOL    HW287760  10.537   0.410   4.582  0.1337  0.2152  0.2488
28585SOL     OW87761   4.712   4.044  11.004 -1.0783 -0.1425 -0.7012
28585SOL    HW187762   4.648   4.072  11.069 -0.8642 -1.0876 -0.0722
28585SOL    HW287763   4.727   3.951  11.022  0.3674  0.0218 -0.9205
28586SOL     OW87764   3.024   1.101   2.404 -0.3547  0.2660 -0.3064
28586SOL    HW187765   2.936   1.066   2.388 -0.8076  1.8674 -1.5930
28586SOL    HW287766   3.015   1.152   2.485 -0.9442  1.4011 -1.0618
28587SOL     OW87767   7.983   9.754   8.335  0.3543  0.7205 -0.1133
28587SOL    HW187768   8.066   9.721   8.301 -0.0998 -1.2365  0.5150
28587SOL    HW287769   7.918   9.692   8.303 -0.3930  0.2176  2.1883
28588SOL     OW87770  10.104   1.859   8.436  0.3035  0.2640  0.2967
28588SOL    HW187771  10.092   1.911   8.356 -0.1790 -0.0081  0.1898
28588SOL    HW287772  10.048   1.783   8.424  1.9120 -0.9243 -0.0933
28589SOL     OW87773   2.118   8.235   8.310 -0.4456  0.0300 -0.5927
28589SOL    HW187774   2.166   8.170   8.258  0.2026  1.3006 -1.6383
28589SOL    HW287775   2.170   8.246   8.389  0.1441  0.2138 -0.9999
28590SOL     OW87776   8.477   7.927   5.284  0.2502  0.6991  0.5459
28590SOL    HW187777   8.422   7.874   5.226 -3.2993  2.1632  2.2644
28590SOL    HW287778   8.542   7.966   5.226 -0.7754 -0.7716 -1.7493
28591SOL     OW87779   3.298   7.608   0.433 -0.4964 -0.2151  0.5296
28591SOL    HW187780   3.249   7.653   0.364 -0.3034 -0.7183  0.0590
28591SOL    HW287781   3.301   7.517   0.405  1.9198  0.0051 -0.1938
28592SOL     OW87782  10.709   8.614   3.127  0.2824  0.0161 -0.7412
28592SOL    HW187783  10.643   8.620   3.057  0.0881 -0.7647 -0.6409
28592SOL    HW287784  10.659   8.624   3.208  0.1597 -1.3201 -0.6348
28593SOL     OW87785   0.148   4.948   7.314 -0.0803  0.8507  0.1290
28593SOL    HW187786   0.156   4.994   7.398  0.6239  0.1440  0.4676
28593SOL    HW287787   0.238   4.921   7.294 -0.2788  0.8453 -0.7543
28594SOL     OW87788   8.670   2.375  10.624 -0.4595  0.8767 -0.2600
28594SOL    HW187789   8.648   2.327  10.544  0.0700  0.4288 -0.1461
28594SOL    HW287790   8.758   2.408  10.608  0.2241 -0.4167  0.6717
28595SOL     OW87791   3.483   7.576  11.069  0.7255  0.6939  0.1349
28595SOL    HW187792   3.498   7.488  11.104 -3.7067 -0.5651 -0.4579
28595SOL    HW287793   3.514   7.572  10.979  2.0163  0.2893  0.5825
28596SOL     OW87794   7.142   1.165   2.671 -0.5134 -0.0144  0.0091
28596SOL    HW187795   7.231   1.195   2.656 -1.7116  3.5291 -1.1022
28596SOL    HW287796   7.138   1.147   2.765  1.4060 -0.5019  0.0334
28597SOL     OW87797  10.023   9.762  10.914 -0.2179  0.5345  0.0023
28597SOL    HW187798  10.006   9.724  11.000 -1.5658 -0.4344 -0.6580
28597SOL    HW287799  10.118   9.761  10.905 -0.1269 -0.6389  0.9158
28598SOL     OW87800   2.377   3.033   5.492  0.1038  0.6540 -0.0890
28598SOL    HW187801   2.365   3.119   5.452 -0.2563 -0.2990 -2.1785
28598SOL    HW287802   2.308   3.027   5.557 -1.3321  1.1123 -1.5041
28599SOL     OW87803   9.501   7.008   0.388 -0.7719  0.3693 -0.2846
28599SOL    HW187804   9.489   6.944   0.458  2.5019  1.8923  1.9334
28599SOL    HW287805   9.482   7.092   0.429  0.4696  1.2556 -1.4226
28600SOL     OW87806   7.697   8.752   9.519 -0.8871 -0.1211 -0.2462
28600SOL    HW187807   7.733   8.767   9.431  2.8488  0.6942  1.2295
28600SOL    HW287808   7.675   8.659   9.520  0.1925 -0.4385 -1.6924
28601SOL     OW87809   5.843  10.977  10.913 -0.2666  0.9075  0.0055
28601SOL    HW187810   5.808  10.924  10.985 -0.2721 -2.1673 -2.0243
28601SOL    HW287811   5.934  10.992  10.937  0.2659 -1.6717 -0.0293
28602SOL     OW87812   5.645   1.413   7.229 -0.0801  0.2114 -0.2566
28602SOL    HW187813   5.626   1.393   7.321  1.3727  2.1943  0.5656
28602SOL    HW287814   5.731   1.374   7.213  0.1982  0.8519 -0.3773
28603SOL     OW87815   5.224   9.899   3.696 -0.6842 -0.3711 -0.1173
28603SOL    HW187816   5.204   9.972   3.639  1.7580 -0.9516 -1.8542
28603SOL    HW287817   5.188   9.925   3.782 -0.2962  2.6130 -0.7569
28604SOL     OW87818   5.257   5.737   2.256  0.2388 -0.1146  0.0628
28604SOL    HW187819   5.273   5.760   2.165  3.5977  1.2118  0.8436
28604SOL    HW287820   5.213   5.814   2.293 -0.3412 -0.3092 -0.2032
28605SOL     OW87821   5.902   4.967   7.734 -0.3777  0.5330  0.3716
28605SOL    HW187822   5.953   5.023   7.793  0.1848 -0.0418  0.4480
28605SOL    HW287823   5.967   4.930   7.674 -0.5622 -0.8342  0.9653
28606SOL     OW87824   7.043   3.645  10.697  0.4675 -0.2443  0.2753
28606SOL    HW187825   6.984   3.610  10.764  3.7429 -0.2645  3.4460
28606SOL    HW287826   7.011   3.734  10.681 -1.4858 -0.8687  0.3837
28607SOL     OW87827   7.966   3.046   6.203  0.1811  0.2317  0.5496
28607SOL    HW187828   7.947   3.111   6.270 -0.5841 -1.0871  1.6614
28607SOL    HW287829   8.004   2.972   6.251 -0.2804 -0.6935 -0.4646
28608SOL     OW87830   6.751   9.270   9.611  0.1321  0.0714  0.0770
28608SOL    HW187831   6.698   9.270   9.690  1.2139  0.6927  0.8229
28608SOL    HW287832   6.689   9.290   9.541 -1.2007 -2.2800  0.4688
28609SOL     OW87833   3.274   6.351   3.756 -0.5391 -0.4619  0.2873
28609SOL    HW187834   3.298   6.324   3.668  0.9835 -0.3893  0.6591
28609SOL    HW287835   3.342   6.413   3.782 -1.5146  0.2820  1.1429
28610SOL     OW87836   4.449   5.782   7.869 -0.5262  0.1859 -0.1081
28610SOL    HW187837   4.402   5.812   7.791  3.0272 -0.2487 -2.6969
28610SOL    HW287838   4.484   5.696   7.843 -0.0951 -0.4730  2.4229
28611SOL     OW87839   8.205   2.503   1.612 -0.3772 -0.4493  0.0747
28611SOL    HW187840   8.276   2.539   1.560 -1.5305 -0.0291 -1.2671
28611SOL    HW287841   8.193   2.567   1.683 -0.4009  0.2568 -0.5509
28612SOL     OW87842   0.144   4.750   0.625  0.0308 -0.4977  0.2168
28612SOL    HW187843   0.059   4.790   0.607  1.2716  1.7293 -1.1657
28612SOL    HW287844   0.170   4.710   0.542  1.5423  1.3752 -0.2883
28613SOL     OW87845  10.226   6.532   6.073 -0.1413 -0.0760 -0.1758
28613SOL    HW187846  10.211   6.626   6.069  0.2998 -0.0252 -0.6767
28613SOL    HW287847  10.304   6.517   6.020  1.1226 -0.4414  1.6872
28614SOL     OW87848  10.322  10.938   2.505  0.0357  0.0125  0.0826
28614SOL    HW187849  10.297  10.854   2.466 -0.7227  1.5918 -3.0839
28614SOL    HW287850  10.245  10.994   2.494  1.0618  1.6232  0.6854
28615SOL     OW87851   3.180   4.278   5.923  0.3431  0.3852  0.2669
28615SOL    HW187852   3.183   4.241   5.835 -0.8212 -1.5459  0.9783
28615SOL    HW287853   3.092   4.316   5.930 -0.9538 -2.5518  1.6658
28616SOL     OW87854   5.066   0.007   5.615 -0.1054  0.0692 -0.2828
28616SOL    HW187855   5.123   0.051   5.678 -2.0153  0.4568  1.2742
28616SOL    HW287856   5.085   0.050   5.532 -1.5305  3.7077  1.0448
28617SOL     OW87857   3.458   8.098   5.633  0.4327 -0.3038 -0.0513
28617SOL    HW187858   3.539   8.078   5.586  1.9428  1.1238  1.7932
28617SOL    HW287859   3.469   8.188   5.664 -2.7258  0.6964 -1.3483
28618SOL     OW87860   1.777   5.055   9.391 -0.6184 -0.4195  0.3212
28618SOL    HW187861   1.774   5.076   9.297  1.7309 -1.1213  0.0344
28618SOL    HW287862   1.765   4.960   9.394 -2.1972 -0.2238  0.8858
28619SOL     OW87863  10.122   0.064   2.702  0.0926 -0.1537  0.6098
28619SOL    HW187864  10.126   0.155   2.731  0.7509 -0.1999  0.6683
28619SOL    HW287865  10.092   0.015   2.779  0.3472 -0.0710  0.7612
28620SOL     OW87866   8.082   8.190   3.727  0.0338  0.1167  0.4676
28620SOL    HW187867   8.082   8.173   3.633  0.2166  0.0599  0.4778
28620SOL    HW287868   8.030   8.270   3.737 -0.4497 -0.1871  0.3779
28621SOL     OW87869   2.147   8.570   1.463 -0.6748  0.1724 -0.1465
28621SOL    HW187870   2.225   8.526   1.497 -0.1332  0.8901 -0.4485
28621SOL    HW287871   2.177   8.658   1.441 -1.2487  0.0227 -1.5727
28622SOL     OW87872   2.177   6.575   0.204  0.0894 -0.2033 -0.4065
28622SOL    HW187873   2.162   6.576   0.110 -1.2112 -1.8476 -0.2470
28622SOL    HW287874   2.151   6.663   0.233 -0.4198 -0.0040 -1.4340
28623SOL     OW87875  10.782   6.050   1.219  0.3567  0.6087 -0.1259
28623SOL    HW187876  10.798   5.997   1.297  0.5280 -0.1270 -0.6511
28623SOL    HW287877  10.862   6.101   1.208 -0.4157  2.2728  1.3366
28624SOL     OW87878   6.745   2.274   3.139 -0.3000  0.2108  0.3945
28624SOL    HW187879   6.719   2.186   3.169 -1.4661  1.1398  2.3240
28624SOL    HW287880   6.675   2.331   3.171  1.0274  2.0136  0.2185
28625SOL     OW87881   9.697   7.963   1.244 -0.0212  0.0614 -0.1997
28625SOL    HW187882   9.663   7.966   1.155  1.0347  0.2559 -0.6108
28625SOL    HW287883   9.743   7.879   1.249 -1.6221 -0.8230  0.7733
28626SOL     OW87884   1.350   6.238   7.439 -0.3627 -1.0179 -0.9240
28626SOL    HW187885   1.347   6.170   7.505 -0.0242 -0.9461 -0.8308
28626SOL    HW287886   1.288   6.305   7.469 -1.3824 -1.6913 -1.4800
28627SOL     OW87887   8.668   2.761   3.428  0.0195 -0.3850 -0.2341
28627SOL    HW187888   8.746   2.727   3.385  1.0823 -0.8724  1.9913
28627SOL    HW287889   8.603   2.691   3.419  0.2940 -0.5728 -0.8137
28628SOL     OW87890   1.418   6.247   0.684  0.1607  0.5607  0.0047
28628SOL    HW187891   1.360   6.302   0.632 -1.0360 -0.4207  0.2718
28628SOL    HW287892   1.377   6.244   0.771 -1.0700 -2.5105 -0.5506
28629SOL     OW87893   8.158   3.537   1.939  0.1886  0.7075  0.0095
28629SOL    HW187894   8.181   3.449   1.969 -0.2964  0.9585  1.1769
28629SOL    HW287895   8.063   3.542   1.949  0.3596  1.8525  1.4068
28630SOL     OW87896   0.025   5.556   0.529 -0.0525 -0.5384  0.2651
28630SOL    HW187897   0.062   5.475   0.566  1.2050 -0.1349 -0.0855
28630SOL    HW287898   0.029   5.619   0.601 -0.6202 -0.6550  0.4033
28631SOL     OW87899   1.494   1.525   2.065 -0.3608  0.1659  0.3323
28631SOL    HW187900   1.545   1.469   2.006  1.2859  0.9022  0.9961
28631SOL    HW287901   1.558   1.556   2.129 -1.7831  0.6952  1.5327
28632SOL     OW87902   7.620   9.285   5.803  0.5956  0.1603  0.2380
28632SOL    HW187903   7.656   9.197   5.802  2.7663  0.9238  2.1350
28632SOL    HW287904   7.618   9.310   5.895 -1.1280  1.6653 -0.1488
28633SOL     OW87905   8.930   4.603   3.406 -0.5134  0.4784  0.0120
28633SOL    HW187906   8.917   4.622   3.313  1.5290  0.4017 -0.3479
28633SOL    HW287907   8.983   4.523   3.407 -0.2194  0.6636  1.2339
28634SOL     OW87908   1.108   4.995   3.408  0.1973  0.3520 -0.3075
28634SOL    HW187909   1.042   4.956   3.466 -1.9082  2.2824 -1.2468
28634SOL    HW287910   1.185   5.005   3.462 -2.0223  3.2383  2.7138
28635SOL     OW87911   0.806   3.515   0.934 -0.2268 -0.1689 -0.7297
28635SOL    HW187912   0.845   3.567   1.004 -0.5791 -1.4768  0.4926
28635SOL    HW287913   0.879   3.489   0.879  0.2340 -0.1373 -0.1438
28636SOL     OW87914   5.736   8.166   3.534 -0.2764 -0.0031 -0.0374
28636SOL    HW187915   5.683   8.128   3.465 -0.6765  0.6933 -0.1213
28636SOL    HW287916   5.825   8.135   3.515 -0.1693  1.1096 -1.5602
28637SOL     OW87917   4.597   3.143   9.749 -0.3956  0.4820  0.1403
28637SOL    HW187918   4.524   3.171   9.804 -0.0401 -1.5374  1.7251
28637SOL    HW287919   4.556   3.095   9.677 -0.7275  1.4453 -0.3447
28638SOL     OW87920   1.983   4.177   7.476 -0.2611 -0.0021 -0.1316
28638SOL    HW187921   2.014   4.264   7.501 -1.9936  0.2977  1.1301
28638SOL    HW287922   2.028   4.158   7.394 -0.3834  2.3965 -0.8160
28639SOL     OW87923   9.819   1.122   3.845 -0.2422 -0.0580 -0.1882
28639SOL    HW187924   9.784   1.151   3.929  1.4768 -2.3692  1.4662
28639SOL    HW287925   9.785   1.033   3.833  0.4051 -0.1778 -1.3943
28640SOL     OW87926  10.754   9.475   8.279  0.5438  0.7613 -0.3467
28640SOL    HW187927  10.712   9.543   8.226 -2.9544 -0.5777  0.4256
28640SOL    HW287928  10.703   9.396   8.262  1.2448 -0.4534  2.6021
28641SOL     OW87929   8.637   6.467   8.820 -0.7145  0.3088  0.4358
28641SOL    HW187930   8.720   6.496   8.856 -1.0760  1.8832  0.0606
28641SOL    HW287931   8.614   6.534   8.756 -1.2572 -1.1836 -0.9946
28642SOL     OW87932   2.285   1.156   1.251 -0.0826 -0.0068  0.1899
28642SOL    HW187933   2.340   1.215   1.200  0.8986  0.9529  2.2428
28642SOL    HW287934   2.217   1.128   1.190  0.3733  1.9443 -1.3231
28643SOL     OW87935   0.476   2.817   6.908  0.3151  0.4005 -0.3851
28643SOL    HW187936   0.412   2.815   6.980 -0.4165  2.5447 -0.9059
28643SOL    HW287937   0.560   2.828   6.952 -0.3415  4.6859  0.2538
28644SOL     OW87938   3.119   2.821   7.113 -0.0277 -0.3744  0.0090
28644SOL    HW187939   3.180   2.890   7.141  1.0090 -0.8370 -1.0342
28644SOL    HW287940   3.087   2.784   7.195 -1.2940  1.8778  0.6422
28645SOL     OW87941   1.869   1.048   5.067  0.3796  0.3948 -0.1416
28645SOL    HW187942   1.949   1.026   5.116  0.1638  0.0419  0.0565
28645SOL    HW287943   1.897   1.115   5.005  1.5871 -1.7835 -2.1483
28646SOL     OW87944   2.929   6.015   9.968 -0.9007  0.9442  0.0965
28646SOL    HW187945   3.017   6.047   9.984 -0.8637  0.1577  1.6570
28646SOL    HW287946   2.877   6.052  10.039 -1.2443 -0.7905  0.8051
28647SOL     OW87947   2.141   5.043   4.292 -0.1552  0.3932 -0.0406
28647SOL    HW187948   2.173   5.060   4.203 -1.6319 -0.7387 -0.8162
28647SOL    HW287949   2.054   5.083   4.295  0.5396  1.9407  1.4927
28648SOL     OW87950   5.094   5.485   2.610 -0.3012  0.1610  0.2459
28648SOL    HW187951   5.171   5.450   2.655 -0.9925  3.3719  4.4939
28648SOL    HW287952   5.034   5.411   2.606  1.8066 -1.6473 -0.5248
28649SOL     OW87953   2.346   4.691   2.732 -0.0142 -0.5175  0.1386
28649SOL    HW187954   2.338   4.762   2.795  0.8712  0.1370 -0.4569
28649SOL    HW287955   2.265   4.640   2.743  0.8876 -1.5133  3.0496
28650SOL     OW87956   4.114   7.468   2.468  0.6663 -0.0504 -0.4383
28650SOL    HW187957   4.080   7.554   2.492  1.9834  0.3843 -0.0342
28650SOL    HW287958   4.050   7.406   2.503  0.3887  0.7199  0.4596
28651SOL     OW87959   5.986   1.833   7.027  0.7102 -0.0326  0.6682
28651SOL    HW187960   6.058   1.869   6.977  0.9184  0.0437  1.0166
28651SOL    HW287961   6.008   1.741   7.039  0.1422 -0.2976 -0.2864
28652SOL     OW87962  10.662   8.237   5.937 -0.0107  0.5038 -0.4179
28652SOL    HW187963  10.751   8.203   5.946  0.0160  0.5312 -0.5757
28652SOL    HW287964  10.664   8.288   5.856 -0.0258  0.9704 -0.1257
28653SOL     OW87965   6.765   1.298   9.551  0.0248  0.2936  0.4498
28653SOL    HW187966   6.728   1.277   9.465 -0.1233 -0.0507  0.5971
28653SOL    HW287967   6.823   1.224   9.570 -2.4503 -1.3678  2.1383
28654SOL     OW87968  11.001   7.218   2.688  0.2705 -0.0196  0.0497
28654SOL    HW187969  10.975   7.237   2.599  1.7115  0.1618 -0.3607
28654SOL    HW287970  10.992   7.123   2.697  2.6952 -0.4356 -1.2107
28655SOL     OW87971   1.911   8.836   8.226  0.0005  0.6994  0.2595
28655SOL    HW187972   1.917   8.931   8.236  2.1616  0.6382 -0.0498
28655SOL    HW287973   1.852   8.824   8.151  1.2626  1.9097 -0.9960
28656SOL     OW87974   3.325  11.032   0.524  0.0453 -0.5111 -0.1455
28656SOL    HW187975   3.381  11.080   0.463  0.3479 -0.3331  0.2689
28656SOL    HW287976   3.342  11.072   0.609 -1.9618  0.7034 -0.2413
28657SOL     OW87977   3.468   1.620  10.183 -0.1520  0.0217  0.3295
28657SOL    HW187978   3.505   1.692  10.234  2.2901 -1.1189  0.3277
28657SOL    HW287979   3.482   1.542  10.237 -0.0450 -0.8363 -0.8767
28658SOL     OW87980   1.282   9.454   0.456 -0.3558 -0.1528 -0.0674
28658SOL    HW187981   1.273   9.521   0.388  1.7103  0.7647  0.4896
28658SOL    HW287982   1.334   9.385   0.415  0.3838  0.1292  0.3878
28659SOL     OW87983   2.521   4.612   6.099 -0.3291 -0.6262  0.1106
28659SOL    HW187984   2.489   4.549   6.034 -1.1104  0.9429 -1.1055
28659SOL    HW287985   2.600   4.648   6.060 -1.0580  0.6637 -0.2244
28660SOL     OW87986   4.830   0.029   2.512 -0.3687 -0.0928  0.5500
28660SOL    HW187987   4.832  -0.065   2.494 -0.4332 -0.0233  0.1777
28660SOL    HW287988   4.922   0.055   2.514 -0.3606 -0.1122  0.3947
28661SOL     OW87989   7.125   2.853   3.192  0.2011  0.3012  0.2800
28661SOL    HW187990   7.039   2.836   3.229 -0.8195  0.6821 -1.7757
28661SOL    HW287991   7.130   2.949   3.186  0.4216  0.2562 -0.3389
28662SOL     OW87992   7.515   6.675   7.840  0.0134  0.5251  0.0054
28662SOL    HW187993   7.610   6.682   7.839 -0.0311  1.4046 -1.1436
28662SOL    HW287994   7.496   6.607   7.904  1.3835  0.7540  0.6838
28663SOL     OW87995   4.869   5.165   7.281  0.0393  0.2093 -0.0662
28663SOL    HW187996   4.876   5.138   7.372 -0.8186 -0.9766 -0.3169
28663SOL    HW287997   4.831   5.089   7.237 -0.2159  1.0118 -1.2833
28664SOL     OW87998  10.928   1.103   9.069 -0.2631  0.5079 -0.6294
28664SOL    HW187999  10.943   1.172   9.004 -0.3400 -0.3573 -1.6099
28664SOL    HW288000  10.863   1.046   9.028 -1.4790  0.7598  0.8817
28665SOL     OW88001   9.724   5.791   3.087  0.0381  1.0232  0.3253
28665SOL    HW188002   9.817   5.769   3.080 -0.5402 -1.3865 -0.7935
28665SOL    HW288003   9.716   5.874   3.041  1.8100  1.9742  1.6114
28666SOL     OW88004   5.267   0.994   4.058 -0.4175  0.0443 -0.5213
28666SOL    HW188005   5.291   0.984   4.150 -2.2216 -1.0944 -0.1185
28666SOL    HW288006   5.277   0.906   4.021 -0.4613  0.3276 -1.2197
28667SOL     OW88007   1.156   7.470   8.413 -0.1745  0.1733  0.1336
28667SOL    HW188008   1.092   7.541   8.423 -0.9591 -0.5075  0.0982
28667SOL    HW288009   1.109   7.392   8.442  0.2143 -0.5497 -1.0938
28668SOL     OW88010   6.984   8.654   3.475  0.2968 -0.3702  0.0180
28668SOL    HW188011   6.956   8.631   3.386  1.4487  2.0719 -1.0569
28668SOL    HW288012   6.908   8.631   3.530 -0.5331 -1.7018 -1.5755
28669SOL     OW88013   5.005   4.186   8.573  0.3736 -0.0074  0.6350
28669SOL    HW188014   4.955   4.210   8.495 -0.3003  0.0872  1.0836
28669SOL    HW288015   4.948   4.210   8.646  0.2032 -1.7317  1.1351
28670SOL     OW88016   4.504   1.156   0.445 -0.7383 -0.0906 -0.5806
28670SOL    HW188017   4.552   1.171   0.364 -3.1250 -2.0595 -2.5596
28670SOL    HW288018   4.563   1.105   0.500  1.2034  1.9246 -0.6707
28671SOL     OW88019   9.243   4.768   3.065  0.2238  0.6761 -0.2363
28671SOL    HW188020   9.330   4.808   3.078 -0.4535  1.9722  0.5653
28671SOL    HW288021   9.261   4.686   3.020  1.7654  1.4990 -1.2244
28672SOL     OW88022   4.692   0.076   0.914 -0.1374 -0.3343  0.5312
28672SOL    HW188023   4.631   0.114   0.976 -0.2499  0.5872 -0.1331
28672SOL    HW288024   4.650   0.086   0.829  0.9036  0.2753  0.0701
28673SOL     OW88025  10.042  10.257   7.135  0.2084 -0.1004 -0.1285
28673SOL    HW188026  10.076  10.169   7.118  0.9888  0.4697 -1.7169
28673SOL    HW288027  10.063  10.274   7.227  1.3898 -0.9980 -0.2177
28674SOL     OW88028   8.553   9.492   2.238 -0.2782  0.2751  0.1415
28674SOL    HW188029   8.616   9.435   2.282 -1.1666 -1.2645 -0.4732
28674SOL    HW288030   8.552   9.572   2.290  1.0454 -0.2507  1.0365
28675SOL     OW88031   5.813   9.518   5.740 -0.1025  0.0290 -0.1715
28675SOL    HW188032   5.788   9.550   5.826 -0.7097 -1.2276  0.1403
28675SOL    HW288033   5.814   9.423   5.749 -1.0196 -0.1728 -1.7580
28676SOL     OW88034  10.143   8.947   6.348  0.0690 -0.3940 -0.6917
28676SOL    HW188035  10.159   9.039   6.327 -4.0358  0.5381 -0.6813
28676SOL    HW288036  10.182   8.935   6.434  1.8170  0.9241 -1.2604
28677SOL     OW88037   3.661   8.218   1.906  0.0021  0.4901 -0.5534
28677SOL    HW188038   3.734   8.258   1.953 -0.7507  0.4660  0.6946
28677SOL    HW288039   3.685   8.126   1.899  0.4613  0.6331 -0.8814
28678SOL     OW88040   5.321   4.453   5.822 -1.2572 -0.1531 -0.4974
28678SOL    HW188041   5.385   4.416   5.883 -0.3658  1.7845 -0.1929
28678SOL    HW288042   5.361   4.445   5.736 -1.8480 -1.4568 -0.6854
28679SOL     OW88043   6.698   9.776   6.788  0.4022 -0.0586 -0.0590
28679SOL    HW188044   6.779   9.767   6.838  1.9217  3.0072 -1.6689
28679SOL    HW288045   6.725   9.772   6.696 -1.3851  0.2462 -0.6521
28680SOL     OW88046   2.676   9.657   8.136  0.8912 -0.3056 -0.1947
28680SOL    HW188047   2.653   9.709   8.213  2.0696 -0.6975  0.4538
28680SOL    HW288048   2.594   9.613   8.111  0.4729 -0.1026  0.7854
28681SOL     OW88049   1.743   8.905   6.149 -0.2584  0.1484  0.0470
28681SOL    HW188050   1.797   8.985   6.156 -0.0474 -0.0737  1.2477
28681SOL    HW288051   1.704   8.910   6.062 -0.2793  1.5860  0.1124
28682SOL     OW88052  10.616   6.149   9.431 -0.1451  0.3360 -0.3128
28682SOL    HW188053  10.553   6.213   9.463 -0.7316 -0.2289 -0.3243
28682SOL    HW288054  10.578   6.064   9.453  0.9564 -0.0107  0.3497
28683SOL     OW88055   5.314  10.545   6.478 -0.3666  0.3992 -0.4759
28683SOL    HW188056   5.276  10.597   6.407  0.3057  0.5595 -0.7299
28683SOL    HW288057   5.320  10.606   6.552 -1.9766 -0.0242  0.0545
28684SOL     OW88058   2.961   1.032   0.486 -0.1812  0.5020 -0.1695
28684SOL    HW188059   2.956   1.103   0.551  0.2131 -0.8065  1.3624
28684SOL    HW288060   2.889   0.974   0.509 -0.8367  0.6561 -1.7528
28685SOL     OW88061   0.130   6.611   1.230 -0.7363  0.8905 -0.0182
28685SOL    HW188062   0.158   6.618   1.321  1.7513 -1.2040 -0.5123
28685SOL    HW288063   0.061   6.544   1.231 -0.4606  0.6083  0.2863
28686SOL     OW88064   0.088   9.872   7.124  0.5829 -0.4023  0.0989
28686SOL    HW188065   0.159   9.822   7.083  3.4173  2.4362  1.1789
28686SOL    HW288066   0.084   9.953   7.074  0.6153  0.9919  2.2599
28687SOL     OW88067  10.711  10.672   5.060  0.0817  0.1889 -0.2365
28687SOL    HW188068  10.677  10.733   4.995  0.8187  0.2253 -0.6066
28687SOL    HW288069  10.751  10.727   5.127  0.6570  0.1219 -0.5190
28688SOL     OW88070   9.398   6.258   3.587  0.0921  0.5266  0.2262
28688SOL    HW188071   9.459   6.322   3.625 -0.0298 -1.1386  3.5067
28688SOL    HW288072   9.329   6.249   3.652 -1.2646 -1.0498 -1.3512
28689SOL     OW88073   8.091   1.146   4.315 -0.3186  0.0329 -0.4101
28689SOL    HW188074   8.003   1.163   4.348  0.0469 -0.4768  0.8831
28689SOL    HW288075   8.078   1.089   4.239 -1.1750  1.1045 -1.0812
28690SOL     OW88076   3.323   2.590   9.080 -0.1852 -0.0311  0.5534
28690SOL    HW188077   3.305   2.564   9.170 -1.1439  1.1252  0.7196
28690SOL    HW288078   3.237   2.604   9.041  0.1744 -1.3238 -0.8238
28691SOL     OW88079   5.218  10.666   1.985  0.7604  0.5412 -0.0408
28691SOL    HW188080   5.125  10.647   1.993  0.7277  0.7890  0.1706
28691SOL    HW288081   5.223  10.762   1.978  0.9841  0.5176 -0.2396
28692SOL     OW88082   4.543  10.774   3.633 -0.0847 -0.3589 -0.2562
28692SOL    HW188083   4.638  10.764   3.639 -0.1143 -1.6468 -1.3515
28692SOL    HW288084   4.508  10.689   3.658 -1.0133  0.3431  0.9304
28693SOL     OW88085   6.450   6.412   2.195  0.6541  0.2718  0.0712
28693SOL    HW188086   6.472   6.336   2.249  1.0052  0.2037 -0.1648
28693SOL    HW288087   6.371   6.448   2.236  0.7596  0.0623  0.4683
28694SOL     OW88088   6.618   0.944  11.046  0.6289  0.3275 -0.2805
28694SOL    HW188089   6.587   0.858  11.016  1.4771  0.0843 -0.4748
28694SOL    HW288090   6.593   0.946  11.139  1.1058 -0.3828 -0.1214
28695SOL     OW88091   8.676   8.358   1.459  0.0611 -0.0505 -0.7975
28695SOL    HW188092   8.662   8.407   1.378 -0.4491 -1.7847 -1.8215
28695SOL    HW288093   8.761   8.314   1.447  0.1505 -0.0340 -0.2449
28696SOL     OW88094   0.647   2.883  10.182 -0.1627 -0.1646  0.6695
28696SOL    HW188095   0.584   2.951  10.160 -0.3335 -0.1905  1.0716
28696SOL    HW288096   0.652   2.884  10.278 -0.0899 -0.6433  0.6761
28697SOL     OW88097   9.142   2.071   3.624 -0.1130 -0.1756  0.5105
28697SOL    HW188098   9.091   2.140   3.582  0.1989 -0.1532  0.1568
28697SOL    HW288099   9.162   2.010   3.553 -1.1026 -1.0782  0.9812
28698SOL     OW88100  10.295  10.539   6.415 -0.1850 -0.2668 -0.2520
28698SOL    HW188101  10.266  10.630   6.414  0.6709  0.0155 -1.2432
28698SOL    HW288102  10.387  10.542   6.388  0.2992 -1.2943  1.1307
28699SOL     OW88103   0.472   9.802   3.033  0.0925 -0.0523  0.4354
28699SOL    HW188104   0.529   9.798   2.955  0.2700  1.6432  0.4495
28699SOL    HW288105   0.384   9.785   2.999  0.2026  0.4248 -0.1052
28700SOL     OW88106   8.958   0.444  10.092  0.6837  0.2177 -1.0591
28700SOL    HW188107   9.020   0.446  10.165  0.0948 -0.7699 -0.5144
28700SOL    HW288108   8.943   0.536  10.071 -0.1183  0.5887  0.9275
28701SOL     OW88109   7.763   2.259   5.779 -0.0171  0.1307  0.4618
28701SOL    HW188110   7.830   2.270   5.846 -1.6556 -1.5179  2.5355
28701SOL    HW288111   7.696   2.204   5.821 -0.2822 -2.6800 -3.1262
28702SOL     OW88112   9.215   8.701   1.820 -0.1515 -0.6168 -0.1434
28702SOL    HW188113   9.153   8.684   1.891 -0.2685 -0.1293 -0.1249
28702SOL    HW288114   9.271   8.771   1.853  2.1782 -2.8035  0.9286
28703SOL     OW88115   1.565   4.702   4.038 -0.0170 -0.2242  0.5389
28703SOL    HW188116   1.620   4.779   4.049  1.6797 -0.8057 -2.6850
28703SOL    HW288117   1.534   4.707   3.947 -0.9636 -2.6332  0.6509
28704SOL     OW88118   3.230   3.646   4.943  0.3869  0.2714  0.2269
28704SOL    HW188119   3.141   3.614   4.930  0.2889 -0.4021  2.2130
28704SOL    HW288120   3.228   3.736   4.911 -0.2588 -0.5467 -2.2221
28705SOL     OW88121   1.205   7.063   2.276 -0.4696  0.4898  0.1228
28705SOL    HW188122   1.158   7.032   2.354 -1.8731 -1.3910 -1.3610
28705SOL    HW288123   1.151   7.034   2.203  2.8467 -1.6482 -1.7464
28706SOL     OW88124   3.404   1.095   4.782  0.5797 -1.1290 -0.2582
28706SOL    HW188125   3.495   1.093   4.811  0.6989 -1.8141 -0.6402
28706SOL    HW288126   3.401   1.166   4.718  0.8081 -0.9954 -0.1210
28707SOL     OW88127   3.667   5.965   2.293  0.4115  0.3321  0.3803
28707SOL    HW188128   3.591   5.924   2.252  0.9903 -1.6586  1.2040
28707SOL    HW288129   3.690   6.037   2.234 -1.9059  0.8173 -0.0353
28708SOL     OW88130   2.886   8.929   5.038  0.4766 -0.0941 -1.0265
28708SOL    HW188131   2.850   8.878   4.965  1.7430 -0.6501 -1.2980
28708SOL    HW288132   2.871   8.875   5.115  1.4764 -0.7433 -1.2623
28709SOL     OW88133   9.084   6.123   0.665 -0.3969  0.7767 -0.1837
28709SOL    HW188134   9.088   6.103   0.571 -1.1070 -0.2847  0.0023
28709SOL    HW288135   9.030   6.053   0.703  0.4283  0.8060  1.1187
28710SOL     OW88136   5.497   9.222   3.446  0.8306  0.7048  0.3886
28710SOL    HW188137   5.509   9.272   3.366  0.6198  1.0038  0.5412
28710SOL    HW288138   5.411   9.250   3.479  0.3568 -0.3330  0.0695
28711SOL     OW88139   4.764   8.287   6.020 -0.4879 -0.4909 -0.5430
28711SOL    HW188140   4.759   8.235   5.940 -1.3338 -0.4157 -0.5524
28711SOL    HW288141   4.813   8.232   6.082 -1.3506 -1.3033 -0.5569
28712SOL     OW88142   5.737   5.725   4.621 -0.2880  0.2153 -0.3323
28712SOL    HW188143   5.778   5.806   4.590  0.0843 -0.0979 -0.6794
28712SOL    HW288144   5.807   5.660   4.617 -0.7817 -0.2983 -0.8032
28713SOL     OW88145   1.985   7.583   9.813 -0.2687 -0.4915 -0.5621
28713SOL    HW188146   1.903   7.599   9.766 -0.1403  0.0677 -0.6000
28713SOL    HW288147   1.999   7.488   9.804 -0.5242 -0.4775 -1.1993
28714SOL     OW88148   3.329   0.179   7.800 -0.0628 -0.1862 -0.2589
28714SOL    HW188149   3.416   0.218   7.809  1.0444 -2.0942 -1.6831
28714SOL    HW288150   3.268   0.253   7.804  1.5465  1.1194  1.5354
28715SOL     OW88151   8.324   2.774   3.384 -0.1723  0.2211  0.4959
28715SOL    HW188152   8.291   2.839   3.446 -0.3993 -0.3012  0.9377
28715SOL    HW288153   8.333   2.821   3.302 -0.6083  0.7381  0.7373
28716SOL     OW88154   1.103   0.808   8.875  0.2126 -0.5430 -0.5247
28716SOL    HW188155   1.133   0.855   8.797  0.5616 -2.6587 -1.7313
28716SOL    HW288156   1.052   0.735   8.841 -1.1764 -0.4987  1.3220
28717SOL     OW88157   8.124   7.092   3.177  0.8061  0.0998 -0.3353
28717SOL    HW188158   8.101   7.034   3.104 -0.1290 -0.0150  0.0370
28717SOL    HW288159   8.217   7.076   3.192  0.5815 -1.2858 -0.2698
28718SOL     OW88160   9.273   8.915   5.950  0.2563  0.5096  0.5728
28718SOL    HW188161   9.178   8.904   5.942  0.3331 -1.6918  1.7945
28718SOL    HW288162   9.306   8.893   5.863 -0.4129  3.5028 -0.5396
28719SOL     OW88163  10.376   5.236   8.437  0.2011 -0.8297  0.3428
28719SOL    HW188164  10.463   5.214   8.469  0.0230  0.7359  2.0644
28719SOL    HW288165  10.390   5.306   8.374  0.4126 -2.8372 -1.9583
28720SOL     OW88166   1.955   9.816   9.236 -0.2488  0.2114 -0.1590
28720SOL    HW188167   2.034   9.784   9.192 -0.1607 -0.7684  0.6898
28720SOL    HW288168   1.970   9.910   9.246 -0.0175  0.3651 -1.6684
28721SOL     OW88169   8.962   3.708   2.728  0.1393  0.4989  0.2673
28721SOL    HW188170   8.922   3.697   2.814 -0.2562 -0.8070 -0.0687
28721SOL    HW288171   9.015   3.630   2.715 -1.8609 -0.6277 -1.7443
28722SOL     OW88172   5.254   5.690   8.633 -0.1807 -0.2361  0.1671
28722SOL    HW188173   5.206   5.688   8.716 -0.9257 -0.2287 -0.2614
28722SOL    HW288174   5.187   5.695   8.566  0.4334  0.3503 -0.4218
28723SOL     OW88175   0.487   5.428   5.744 -0.1708  1.0509  0.6196
28723SOL    HW188176   0.544   5.359   5.777  0.7527  1.8567  0.7769
28723SOL    HW288177   0.417   5.435   5.809 -1.0249 -0.6045 -0.0578
28724SOL     OW88178   0.192   3.488   8.050 -0.1466 -0.1433 -0.0467
28724SOL    HW188179   0.099   3.487   8.071 -0.0471 -0.2126  0.3885
28724SOL    HW288180   0.218   3.580   8.058 -0.6298  0.2504 -2.2040
28725SOL     OW88181   1.122   6.151   5.632 -0.0168  0.0625 -0.0795
28725SOL    HW188182   1.118   6.178   5.540 -1.7581  0.2407  0.0133
28725SOL    HW288183   1.215   6.157   5.654  0.6091 -1.0692 -2.1342
28726SOL     OW88184   7.795   4.095   5.625  0.3702 -0.1385  0.7153
28726SOL    HW188185   7.710   4.135   5.608  1.4715  1.3135 -1.9280
28726SOL    HW288186   7.831   4.144   5.698 -0.0537  0.9386  0.2244
28727SOL     OW88187   4.467   5.336  10.057  0.2100  0.7474  0.3812
28727SOL    HW188188   4.545   5.390  10.054  0.5316  0.7805  4.1669
28727SOL    HW288189   4.397   5.395  10.085 -0.3255  0.0146  0.6474
28728SOL     OW88190   9.187   3.292   2.260 -0.3196  0.1397 -1.0604
28728SOL    HW188191   9.150   3.266   2.344  1.7491  0.5161  0.0328
28728SOL    HW288192   9.185   3.388   2.261 -1.7704  0.1520 -2.1788
28729SOL     OW88193   3.581   0.528   8.130  0.4278 -0.1767 -0.6538
28729SOL    HW188194   3.586   0.501   8.038 -1.6473 -0.4731 -0.7297
28729SOL    HW288195   3.573   0.446   8.179 -2.2381  0.0472 -0.5809
28730SOL     OW88196   8.492   9.945   7.882 -0.2578 -0.2093  0.4582
28730SOL    HW188197   8.524   9.910   7.798 -0.5433  0.6639 -0.0203
28730SOL    HW288198   8.510  10.038   7.877 -0.3243 -0.1444  1.3593
28731SOL     OW88199   2.182   6.209   3.833  0.6075  0.0325 -0.2741
28731SOL    HW188200   2.098   6.183   3.870 -0.8401  0.0627 -3.2444
28731SOL    HW288201   2.240   6.135   3.850  0.8901  0.9935  4.0519
28732SOL     OW88202   3.094   1.235   3.025 -0.3742 -0.2656  0.4866
28732SOL    HW188203   3.177   1.258   3.066  0.0569 -1.1289  0.1193
28732SOL    HW288204   3.085   1.141   3.040  0.2156 -0.8005 -2.1158
28733SOL     OW88205  10.673   0.826   9.644  0.0407 -0.1812  0.7331
28733SOL    HW188206  10.680   0.859   9.555 -0.5889  0.7833  1.0245
28733SOL    HW288207  10.594   0.771   9.643  1.5412 -2.4751  0.0385
28734SOL     OW88208   2.470   5.407   1.402 -0.3932  0.0169 -0.5398
28734SOL    HW188209   2.534   5.439   1.466  0.4122  0.4664 -1.5307
28734SOL    HW288210   2.522   5.392   1.323 -1.8114  2.5773 -2.1110
28735SOL     OW88211  10.529   1.442   6.848  0.3624 -0.3570  0.3780
28735SOL    HW188212  10.550   1.393   6.928  1.4312 -0.7690 -0.1409
28735SOL    HW288213  10.438   1.418   6.829  0.6380 -1.6030  0.5243
28736SOL     OW88214   1.965   8.881   1.758 -0.0882 -0.8122  0.0432
28736SOL    HW188215   2.039   8.856   1.703 -0.0139 -0.1220 -0.1776
28736SOL    HW288216   1.951   8.805   1.815  0.3187 -1.2348 -0.4076
28737SOL     OW88217  10.542   4.141   8.982  0.7000 -0.2575  0.0392
28737SOL    HW188218  10.455   4.161   8.947 -0.1570  1.1959  2.7075
28737SOL    HW288219  10.593   4.117   8.905 -1.9191 -0.8040 -1.6959
28738SOL     OW88220   6.286   7.872   9.442 -0.0960 -0.1878 -0.5559
28738SOL    HW188221   6.263   7.834   9.527  0.4703  0.8659  0.0831
28738SOL    HW288222   6.350   7.810   9.405  0.7414  0.0577  0.4261
28739SOL     OW88223   4.889   0.935   4.298 -0.0050  0.0568  0.4027
28739SOL    HW188224   4.956   0.955   4.233 -0.3305 -0.0044  0.0414
28739SOL    HW288225   4.899   0.842   4.315  0.4033  0.1742  0.8113
28740SOL     OW88226   4.524  10.809   8.201 -0.1701 -0.3112  0.1765
28740SOL    HW188227   4.601  10.858   8.230 -1.0636 -0.2751  2.7060
28740SOL    HW288228   4.452  10.872   8.206 -0.6466 -0.7671 -0.6684
28741SOL     OW88229  10.656   2.752   2.363  0.3464 -0.4281 -0.7360
28741SOL    HW188230  10.689   2.801   2.438 -0.2082 -1.5088  0.2483
28741SOL    HW288231  10.724   2.762   2.296  1.0549  0.1968  0.0601
28742SOL     OW88232   0.007   3.045   3.663  0.0199  0.2439 -0.7907
28742SOL    HW188233   0.010   2.950   3.671  0.2217  0.3548  0.9408
28742SOL    HW288234  -0.018   3.061   3.572 -0.5945 -1.4634 -0.9615
28743SOL     OW88235  10.258   3.207   9.179 -0.3764  0.1404  0.0338
28743SOL    HW188236  10.188   3.252   9.131  1.6722  2.1162 -1.2995
28743SOL    HW288237  10.301   3.277   9.229 -0.0442 -1.2488  1.7926
28744SOL     OW88238   9.903   4.402   2.953  0.8431  0.5667 -0.4105
28744SOL    HW188239   9.865   4.460   3.019  2.8928  1.6267 -0.0622
28744SOL    HW288240   9.911   4.458   2.875  2.0892  0.5567 -0.3148
28745SOL     OW88241   1.235   3.875   0.374  0.0401 -0.2845 -0.3192
28745SOL    HW188242   1.297   3.889   0.445  0.3762  1.1854 -0.8824
28745SOL    HW288243   1.260   3.790   0.337 -0.4926 -1.3628  1.6234
28746SOL     OW88244   1.661   1.416   0.820  0.2003  1.0548  0.1455
28746SOL    HW188245   1.660   1.506   0.789 -2.2800  1.0400 -0.0552
28746SOL    HW288246   1.596   1.414   0.891  0.0419 -0.6029  0.0052
28747SOL     OW88247   2.778   0.529   9.077  0.4238 -0.1330 -0.8421
28747SOL    HW188248   2.754   0.438   9.060 -1.7760  0.1640  0.3292
28747SOL    HW288249   2.696   0.572   9.099  1.6061  1.8329 -0.0028
28748SOL     OW88250   2.519   9.752   9.677  0.3927  1.0405  0.4109
28748SOL    HW188251   2.586   9.787   9.736 -0.1563  0.1606  1.5913
28748SOL    HW288252   2.495   9.668   9.715 -1.5351  1.4225  0.1503
28749SOL     OW88253  10.550   6.085   9.776 -0.5657  0.3173  0.5592
28749SOL    HW188254  10.510   6.045   9.852 -0.9174  0.5492  0.5000
28749SOL    HW288255  10.494   6.058   9.702 -0.0951 -0.1003  0.3474
28750SOL     OW88256   0.411   8.419   1.849 -0.3489 -0.9175 -0.2620
28750SOL    HW188257   0.455   8.496   1.886 -0.6587 -0.1372 -1.4684
28750SOL    HW288258   0.475   8.348   1.859  0.4876 -0.2019 -0.3981
28751SOL     OW88259  10.443  10.364   5.449  0.0415 -0.3479 -0.0897
28751SOL    HW188260  10.414  10.340   5.360 -0.8876 -3.9428  1.0092
28751SOL    HW288261  10.537  10.347   5.448  0.6723  2.6459 -1.1424
28752SOL     OW88262   9.441   7.686  10.255  1.1672 -0.8565  0.1766
28752SOL    HW188263   9.482   7.610  10.213  1.4483  0.2629 -1.6933
28752SOL    HW288264   9.352   7.657  10.275  1.3836 -1.7909 -0.1714
28753SOL     OW88265   2.696   0.698   3.442 -0.2660  0.3881  0.0620
28753SOL    HW188266   2.683   0.793   3.447  0.3060  0.5233 -0.9269
28753SOL    HW288267   2.610   0.661   3.463 -0.8757  1.1570 -0.9867
28754SOL     OW88268   4.766  10.861  10.222  0.4176 -0.3471 -0.2945
28754SOL    HW188269   4.804  10.946  10.245 -1.2405  0.1960  0.5366
28754SOL    HW288270   4.681  10.881  10.184 -1.5518 -1.6914  3.0008
28755SOL     OW88271   3.512   6.544  10.523  0.2457  0.8168 -0.1602
28755SOL    HW188272   3.478   6.543  10.434 -1.1426  1.1391  0.3465
28755SOL    HW288273   3.566   6.623  10.527  0.6926  0.5496 -0.8451
28756SOL     OW88274   6.621   3.357   1.596  0.1904 -0.2683  1.0277
28756SOL    HW188275   6.692   3.383   1.654 -0.2403 -0.1639  1.5076
28756SOL    HW288276   6.562   3.307   1.651  0.2232 -0.9361  0.4756
28757SOL     OW88277   6.873   9.704   5.967 -0.0020  0.1099  0.2727
28757SOL    HW188278   6.852   9.794   5.944  0.6252  0.1072 -0.3541
28757SOL    HW288279   6.936   9.676   5.901  0.1508 -0.6452  0.7160
28758SOL     OW88280   2.734  10.358   9.450  0.6001  0.0236  0.3526
28758SOL    HW188281   2.692  10.378   9.534  0.6804  0.5316  0.2778
28758SOL    HW288282   2.661  10.350   9.389  0.5307 -0.5123  0.4972
28759SOL     OW88283   6.079   7.918  10.043  0.4376 -0.1071  0.1583
28759SOL    HW188284   6.047   7.844  10.095 -1.0515 -0.4898 -1.2281
28759SOL    HW288285   6.149   7.956  10.096  0.4973 -1.8398  1.3923
28760SOL     OW88286   7.280  10.748   9.670 -0.1366  0.4643 -0.0923
28760SOL    HW188287   7.304  10.763   9.761  2.2193 -2.1749 -0.1522
28760SOL    HW288288   7.228  10.667   9.672 -0.0540  0.3773 -1.0862
28761SOL     OW88289   8.190   7.885   7.906  0.6099  0.0629  0.2575
28761SOL    HW188290   8.154   7.963   7.948  2.1770  0.6986  0.4975
28761SOL    HW288291   8.145   7.879   7.822  0.7591  1.4799  0.0603
28762SOL     OW88292   1.234   7.854   2.790  0.0249  0.6711  0.0648
28762SOL    HW188293   1.216   7.780   2.849  3.4659  0.8068  1.4905
28762SOL    HW288294   1.246   7.814   2.704 -1.8061  0.0786  0.0431
28763SOL     OW88295   9.563   0.248   0.153 -0.2377 -0.1240 -0.3418
28763SOL    HW188296   9.492   0.277   0.096 -0.7155 -0.8105 -0.1126
28763SOL    HW288297   9.592   0.328   0.197 -2.1441 -0.0811  0.9814
28764SOL     OW88298  11.025   9.925  10.798  0.7419 -0.2636  0.4311
28764SOL    HW188299  11.026   9.910  10.704  1.0607 -0.8344  0.5182
28764SOL    HW288300  10.986  10.012  10.809 -0.9409 -0.9205 -0.1241
28765SOL     OW88301   4.816   3.948   7.946  0.0379 -0.4355 -0.0273
28765SOL    HW188302   4.782   4.027   7.988 -1.1929 -0.6929 -0.5200
28765SOL    HW288303   4.792   3.957   7.854  2.0237 -0.2612 -0.5832
28766SOL     OW88304  10.469   1.933   2.397  0.1735  0.5996  0.0070
28766SOL    HW188305  10.485   2.027   2.405  0.4857  0.5893 -0.4930
28766SOL    HW288306  10.446   1.905   2.486 -2.1047  1.5409 -0.2009
28767SOL     OW88307   6.266   5.658   8.338  0.3046  0.8181  0.1367
28767SOL    HW188308   6.317   5.664   8.419 -2.4706  0.1835  2.0837
28767SOL    HW288309   6.194   5.598   8.360  0.5251 -1.0139 -3.4565
28768SOL     OW88310   0.241   7.182  10.036 -0.2977 -0.4349  0.4249
28768SOL    HW188311   0.184   7.216   9.968 -1.3999 -0.8884  1.1002
28768SOL    HW288312   0.326   7.172   9.993 -1.4333 -2.6908 -1.5016
28769SOL     OW88313   3.285   3.840   8.697 -0.1118 -0.2758 -0.1017
28769SOL    HW188314   3.229   3.773   8.659 -1.5859  1.2031 -0.6822
28769SOL    HW288315   3.324   3.885   8.622  0.5888 -0.2426  0.2686
28770SOL     OW88316   1.168   4.970   5.371 -0.2238 -0.3311 -0.1392
28770SOL    HW188317   1.185   5.064   5.373  1.6452 -0.6214 -0.0907
28770SOL    HW288318   1.092   4.958   5.428 -0.1688  1.0833  0.2725
28771SOL     OW88319   3.944   2.935   0.511 -0.1029  0.3465 -0.1746
28771SOL    HW188320   4.034   2.935   0.544  0.0433 -0.2011 -0.5590
28771SOL    HW288321   3.919   3.027   0.510 -0.4201  0.3689  2.2454
28772SOL     OW88322   6.553   2.758   8.316 -0.6755  0.3107  0.0171
28772SOL    HW188323   6.646   2.769   8.292 -0.0483 -2.4207  0.8457
28772SOL    HW288324   6.515   2.713   8.241 -0.5507 -1.2913  0.8679
28773SOL     OW88325   4.103   3.749   8.643 -0.3808 -0.2200 -0.2437
28773SOL    HW188326   4.043   3.729   8.715 -1.5582  0.9819 -0.8389
28773SOL    HW288327   4.179   3.790   8.685 -1.1246  0.6248  0.3242
28774SOL     OW88328   5.547   5.324   3.990 -0.1971 -0.4176 -0.9442
28774SOL    HW188329   5.610   5.396   3.997  0.0478 -0.7403  0.6250
28774SOL    HW288330   5.552   5.280   4.075  0.8579 -3.3144 -2.3867
28775SOL     OW88331   1.379   9.360   8.226  0.5150 -0.2465 -0.3129
28775SOL    HW188332   1.450   9.297   8.231  0.1190 -0.6134  1.1792
28775SOL    HW288333   1.401   9.416   8.152  1.7437 -1.0818 -0.5955
28776SOL     OW88334   5.491   7.987   6.410 -0.6515 -0.1651 -0.0905
28776SOL    HW188335   5.525   8.050   6.474  0.2198 -0.0776 -0.6187
28776SOL    HW288336   5.396   7.993   6.419 -0.5564  0.0405  1.0044
28777SOL     OW88337   6.588   5.757  10.537 -0.1702  1.0627  0.5708
28777SOL    HW188338   6.493   5.763  10.527 -0.1902  1.8655  1.1467
28777SOL    HW288339   6.617   5.847  10.551  0.3293  0.5916  3.2246
28778SOL     OW88340   7.905   3.207   5.380  0.4497 -0.6231 -0.8587
28778SOL    HW188341   7.938   3.281   5.329 -2.4572  1.2327 -0.2929
28778SOL    HW288342   7.935   3.224   5.469 -1.5018  0.8602 -0.4160
28779SOL     OW88343   7.862   6.669   8.439  0.3028 -1.1641 -0.2899
28779SOL    HW188344   7.943   6.714   8.416  0.0698 -0.1250  0.8498
28779SOL    HW288345   7.848   6.690   8.531 -1.5054 -0.9394 -0.5857
28780SOL     OW88346   8.016  11.078   2.799  0.2298 -0.2257 -0.1190
28780SOL    HW188347   8.069  11.157   2.800  0.1185 -0.1327 -0.8913
28780SOL    HW288348   7.940  11.101   2.745 -0.1244 -0.6544  0.1871
28781SOL     OW88349   4.917   8.206   5.246  0.3004 -0.3620  0.6310
28781SOL    HW188350   4.969   8.219   5.325 -1.9575 -2.5036  2.6340
28781SOL    HW288351   4.931   8.285   5.194  0.9679  1.6653  3.6999
28782SOL     OW88352   1.267   1.603   9.250 -0.4171 -0.4166  0.4880
28782SOL    HW188353   1.343   1.642   9.207  0.3100 -0.2946  1.8231
28782SOL    HW288354   1.215   1.677   9.280 -1.0314 -0.5004 -0.3149
28783SOL     OW88355   7.981   3.100   0.146 -0.0348  0.3978 -0.0250
28783SOL    HW188356   7.888   3.084   0.131  0.1512 -1.1147  0.2372
28783SOL    HW288357   7.988   3.194   0.158 -1.4133  0.6283 -0.8374
28784SOL     OW88358   6.315   8.672   1.373 -0.1610 -0.4057  0.1695
28784SOL    HW188359   6.271   8.632   1.448  2.5767 -1.9849  1.0642
28784SOL    HW288360   6.285   8.621   1.298  0.5376 -1.8549  0.8364
28785SOL     OW88361   1.680   4.898   2.455 -0.0644  0.8596 -0.3532
28785SOL    HW188362   1.693   4.843   2.532  1.6202 -0.1881 -1.3113
28785SOL    HW288363   1.611   4.854   2.405  1.9965 -1.1447 -1.6431
28786SOL     OW88364   9.653   3.516   6.379  0.0691  0.3090  0.0925
28786SOL    HW188365   9.640   3.422   6.393  0.6723  0.1358 -0.4458
28786SOL    HW288366   9.674   3.523   6.285 -0.2586  1.0114  0.0660
28787SOL     OW88367   9.237  10.233   2.892  1.0158  0.0918 -0.5899
28787SOL    HW188368   9.144  10.219   2.879  0.8675 -0.1957  0.6680
28787SOL    HW288369   9.279  10.185   2.820  0.2331 -0.4856 -0.6704
28788SOL     OW88370   4.837   2.898   7.263  0.7085 -0.0002 -0.2548
28788SOL    HW188371   4.889   2.868   7.189  1.9625  0.4773  0.4050
28788SOL    HW288372   4.827   2.992   7.250  0.2643 -0.0412 -0.2243
28789SOL     OW88373   9.124   2.630   0.366  0.4285  0.4366  0.0763
28789SOL    HW188374   9.150   2.616   0.456  1.6290 -0.2646 -0.3649
28789SOL    HW288375   9.029   2.643   0.370  0.1684 -1.5881  1.2169
28790SOL     OW88376   5.556   1.284   8.208  0.0618 -0.2939  0.5933
28790SOL    HW188377   5.499   1.332   8.268 -0.1369 -0.3448  0.4468
28790SOL    HW288378   5.503   1.210   8.178  0.3691 -0.6078  0.8203
28791SOL     OW88379   6.424   1.644   6.187  0.4222 -0.5863  0.1826
28791SOL    HW188380   6.394   1.731   6.216 -1.6066 -1.4067  0.7632
28791SOL    HW288381   6.478   1.613   6.260  0.0519 -0.3298  0.5786
28792SOL     OW88382   6.280  10.425   6.934  0.8371 -0.2664 -0.3116
28792SOL    HW188383   6.323  10.459   7.012  1.0152  0.2531 -0.6273
28792SOL    HW288384   6.274  10.331   6.948 -2.2425  0.1233  1.8854
28793SOL     OW88385   2.796   2.816   4.460  0.0214  0.2603 -1.1061
28793SOL    HW188386   2.837   2.901   4.481 -0.9223  0.2161  1.2388
28793SOL    HW288387   2.705   2.826   4.488  0.2807 -2.0158  0.8301
28794SOL     OW88388   9.924   3.318   6.495  0.3143  0.0858  0.5071
28794SOL    HW188389   9.840   3.277   6.473  0.6398 -1.3880  1.7606
28794SOL    HW288390   9.957   3.265   6.568  1.9848  1.1005  0.5336
28795SOL     OW88391   9.323   9.809  10.398  0.2784  0.4770  0.0741
28795SOL    HW188392   9.414   9.839  10.396  0.8538 -1.1627 -1.8498
28795SOL    HW288393   9.319   9.740  10.331 -2.2953  0.2394  0.3710
28796SOL     OW88394   3.692   9.100   9.485 -0.2623 -0.2340  0.5123
28796SOL    HW188395   3.764   9.041   9.505  0.2507  0.3917  0.5199
28796SOL    HW288396   3.693   9.109   9.390 -0.0721  0.0956  0.5439
28797SOL     OW88397   9.175   0.346   8.451  0.1704 -0.3687  0.5776
28797SOL    HW188398   9.254   0.383   8.413  0.4782  0.0525  1.5990
28797SOL    HW288399   9.124   0.316   8.376  0.7736  0.4061 -0.1588
28798SOL     OW88400   5.493   5.535   7.749  0.2189  0.4780  0.5103
28798SOL    HW188401   5.572   5.489   7.722  1.1096  0.2086  3.2201
28798SOL    HW288402   5.518   5.628   7.752  1.1861  0.2300  3.2591
28799SOL     OW88403   9.797  10.462   0.596  0.1643 -0.2603  0.2145
28799SOL    HW188404   9.708  10.483   0.568  0.5754  1.1283 -0.1495
28799SOL    HW288405   9.796  10.478   0.691  0.6996  2.6361 -0.1558
28800SOL     OW88406   0.260   1.432   2.601  0.0626 -0.8901 -0.2299
28800SOL    HW188407   0.216   1.384   2.531  2.0961 -2.5151 -0.4805
28800SOL    HW288408   0.188   1.471   2.652 -1.4911 -0.5585 -2.5412
28801SOL     OW88409   5.504   5.076   6.833  0.3877 -0.3962 -0.7548
28801SOL    HW188410   5.571   5.138   6.803  1.9699 -1.2979  0.6958
28801SOL    HW288411   5.544   4.990   6.820  0.1619 -0.9028  1.5184
28802SOL     OW88412  10.410   8.098   0.036 -0.5495  0.3932 -0.1339
28802SOL    HW188413  10.428   8.015   0.081 -0.4146 -1.0212 -2.6075
28802SOL    HW288414  10.480   8.105  -0.029 -1.7434  1.3870 -1.3579
28803SOL     OW88415  10.517   6.281   4.822  0.7948  0.0925 -0.2443
28803SOL    HW188416  10.503   6.302   4.915  1.0993 -0.1407 -0.1440
28803SOL    HW288417  10.612   6.270   4.815  0.5679 -2.5899 -0.0116
28804SOL     OW88418   8.808   0.499   4.842 -0.0894 -0.4336 -0.3030
28804SOL    HW188419   8.821   0.429   4.906 -1.2327 -0.4294 -0.0333
28804SOL    HW288420   8.792   0.453   4.760 -0.4747 -0.4935 -0.1992
28805SOL     OW88421   5.562   2.860  10.690  0.6425  0.1327  0.3848
28805SOL    HW188422   5.617   2.906  10.753  0.9132  0.3960 -0.0349
28805SOL    HW288423   5.473   2.884  10.714  0.7854  0.9517  0.1260
28806SOL     OW88424   0.597   4.978   6.545  0.5235  0.1832  0.1344
28806SOL    HW188425   0.590   5.011   6.635 -0.1718  0.8660 -0.1676
28806SOL    HW288426   0.627   4.887   6.556  1.0352  0.4448  1.0289
28807SOL     OW88427   7.558   1.136   4.530  0.0661 -0.3264 -0.3224
28807SOL    HW188428   7.518   1.091   4.456 -0.9814  0.6402 -0.3662
28807SOL    HW288429   7.508   1.107   4.606 -0.1857  0.2528 -0.2646
28808SOL     OW88430   7.854  10.976   7.168 -0.8356 -0.0501  0.4890
28808SOL    HW188431   7.855  11.011   7.079  0.5478 -0.9198  0.1280
28808SOL    HW288432   7.844  11.052   7.224  1.9445  0.9600 -0.2721
28809SOL     OW88433   3.137   8.425   8.190  0.2362 -0.2119 -0.5713
28809SOL    HW188434   3.066   8.361   8.186 -0.3023  0.4334 -2.9818
28809SOL    HW288435   3.092   8.509   8.199  0.4908  0.3506 -3.5887
28810SOL     OW88436   3.252   0.075   8.799  0.4229  0.4124 -0.5491
28810SOL    HW188437   3.200   0.133   8.856  0.1719 -0.3062 -0.0418
28810SOL    HW288438   3.292   0.012   8.859 -0.0344 -0.4997 -1.1867
28811SOL     OW88439  10.319   1.318  10.733  0.7344  0.1377  0.3657
28811SOL    HW188440  10.392   1.338  10.674  1.3336  2.8072  1.8804
28811SOL    HW288441  10.311   1.222  10.728  0.3302  0.1872 -4.3909
28812SOL     OW88442   7.175   1.182  10.783  0.2734 -0.4859  0.3140
28812SOL    HW188443   7.096   1.234  10.765  0.7480  0.3747  0.6347
28812SOL    HW288444   7.143   1.094  10.801 -0.6408 -0.0770  0.7454
28813SOL     OW88445   5.069   8.247   0.130  0.6336 -0.1211  0.1654
28813SOL    HW188446   5.024   8.166   0.107 -0.7857  1.1910 -2.0398
28813SOL    HW288447   5.162   8.224   0.125  0.2636 -1.5848 -0.6210
28814SOL     OW88448   3.212   4.280   2.378  0.0553 -0.2047  0.9191
28814SOL    HW188449   3.174   4.295   2.291 -1.8725  1.0945  1.9079
28814SOL    HW288450   3.306   4.270   2.361 -0.4866 -2.3198 -1.5364
28815SOL     OW88451   3.903   1.643   0.434 -0.7517  0.4424 -0.0600
28815SOL    HW188452   3.937   1.682   0.354  0.5163 -2.7513 -1.2771
28815SOL    HW288453   3.869   1.716   0.484  0.0003  2.8111 -2.7238
28816SOL     OW88454   2.341   4.114   5.520 -0.0482 -0.4087 -0.2531
28816SOL    HW188455   2.365   4.097   5.429  2.4735 -1.3607  0.5026
28816SOL    HW288456   2.317   4.207   5.521 -0.2824 -0.4205 -1.8969
28817SOL     OW88457   7.782   7.921   4.709 -0.6879  0.2064  0.2937
28817SOL    HW188458   7.810   7.829   4.706  0.0451  0.2913  2.6909
28817SOL    HW288459   7.689   7.917   4.688 -0.7179 -1.1292  0.5460
28818SOL     OW88460   7.920   8.752   6.654  0.6109  0.0779  0.2142
28818SOL    HW188461   7.942   8.785   6.567 -0.9950  0.2354 -0.1622
28818SOL    HW288462   7.902   8.659   6.641  0.3274  0.1108  0.3662
28819SOL     OW88463   7.487   2.025   1.437  0.0711  0.3558 -0.4157
28819SOL    HW188464   7.479   1.988   1.525 -0.7963 -0.9903 -1.0319
28819SOL    HW288465   7.578   2.055   1.432 -0.2134  1.6941  1.3788
28820SOL     OW88466   5.262   5.740   5.395  0.0977 -0.1717 -0.2368
28820SOL    HW188467   5.192   5.678   5.415  1.2513 -0.8995  1.9906
28820SOL    HW288468   5.234   5.822   5.436  1.5628 -1.1435  3.0750
28821SOL     OW88469   0.738  10.027   6.349  0.3019  0.0331  0.3660
28821SOL    HW188470   0.664  10.079   6.382  0.1632 -0.1367  0.3252
28821SOL    HW288471   0.698   9.963   6.290  0.5422  0.2808 -0.0677
28822SOL     OW88472   9.083   2.173   6.659 -0.0030  0.2248 -0.5195
28822SOL    HW188473   9.103   2.206   6.571 -0.3834 -0.7232 -0.9758
28822SOL    HW288474   9.169   2.157   6.699  0.1737 -0.3672 -1.1241
28823SOL     OW88475   3.492   7.957   9.536 -0.4564  0.1089 -0.0976
28823SOL    HW188476   3.534   7.946   9.451  0.9686  0.0272  0.6010
28823SOL    HW288477   3.416   8.013   9.517  1.0398  1.9029 -1.0863
28824SOL     OW88478   3.256   8.230   2.000 -0.3150 -0.3636  0.2325
28824SOL    HW188479   3.321   8.288   2.040  0.8181 -0.3584 -1.5171
28824SOL    HW288480   3.174   8.279   2.002  0.5021  1.0943 -0.6707
28825SOL     OW88481   8.476   1.289   9.811 -0.2141 -0.4787 -0.3070
28825SOL    HW188482   8.434   1.349   9.873  2.4926  1.3855 -0.0823
28825SOL    HW288483   8.466   1.332   9.726 -0.0829 -0.7716 -0.4712
28826SOL     OW88484   0.070   0.496   4.186  0.0970  0.3546  0.1167
28826SOL    HW188485   0.087   0.566   4.250 -0.1225  0.1290  0.4234
28826SOL    HW288486  -0.021   0.509   4.160  0.6299  1.4253 -1.3586
28827SOL     OW88487   5.292   4.379   6.218 -1.0102  0.3169 -0.1117
28827SOL    HW188488   5.240   4.452   6.252 -2.3532 -0.8307  0.3573
28827SOL    HW288489   5.367   4.373   6.278 -2.0140 -0.0391  1.1557
28828SOL     OW88490  10.236   1.472  10.938  0.0435  0.2672  0.1311
28828SOL    HW188491  10.263   1.428  10.858 -2.1550 -2.5380  0.7844
28828SOL    HW288492  10.161   1.526  10.912  0.2112  0.4546  0.0389
28829SOL     OW88493   6.350   2.804   9.051 -0.5284 -0.0448 -0.1636
28829SOL    HW188494   6.402   2.806   9.131  1.1982 -1.5230 -1.1822
28829SOL    HW288495   6.269   2.761   9.076  0.4562 -1.5647  0.5859
28830SOL     OW88496   2.637   0.745   8.031  0.5149  0.4410  0.5313
28830SOL    HW188497   2.668   0.691   7.958  0.5363  0.7089  0.3433
28830SOL    HW288498   2.696   0.819   8.034  1.4238 -0.2907  1.7549
28831SOL     OW88499   2.525  10.203   6.958  0.4722 -0.1903 -0.4084
28831SOL    HW188500   2.515  10.180   6.866 -0.4887 -2.8312  0.2663
28831SOL    HW288501   2.463  10.146   7.004 -2.6768  4.2221  1.5876
28832SOL     OW88502   6.920   5.362  10.712 -0.6381  0.1016 -0.3327
28832SOL    HW188503   6.868   5.372  10.632 -1.2745 -1.8434 -0.2228
28832SOL    HW288504   6.985   5.432  10.708 -1.5381  0.8916 -1.8553
28833SOL     OW88505   3.740   3.162   9.187  0.5408 -0.1240 -0.4857
28833SOL    HW188506   3.657   3.203   9.165 -0.0168 -1.0530 -0.1507
28833SOL    HW288507   3.790   3.231   9.232  0.2424  0.6485 -1.3168
28834SOL     OW88508   1.420  10.603   1.807 -0.5257  0.3122  0.4162
28834SOL    HW188509   1.434  10.675   1.867  2.8652 -0.8208  1.2162
28834SOL    HW288510   1.431  10.642   1.720  2.6897  0.6498  0.8667
28835SOL     OW88511   4.483   9.223   3.709  0.0076  0.2825 -0.0092
28835SOL    HW188512   4.478   9.245   3.802 -1.0562  0.8697 -0.1884
28835SOL    HW288513   4.538   9.291   3.671 -1.8408  1.7475 -0.2548
28836SOL     OW88514   1.171   2.347   9.052  0.7256 -0.1237 -0.6216
28836SOL    HW188515   1.153   2.304   8.968  0.6755 -0.8903 -0.2343
28836SOL    HW288516   1.089   2.341   9.099  0.6183  0.7349 -0.6946
28837SOL     OW88517   2.285   4.957   4.921 -0.2506  0.4117 -0.0160
28837SOL    HW188518   2.250   5.025   4.864 -1.2378 -1.3651 -1.6354
28837SOL    HW288519   2.370   4.935   4.882  0.8587  1.8235  1.4870
28838SOL     OW88520   0.399   0.254   3.275 -0.2790  0.4286  0.7287
28838SOL    HW188521   0.493   0.271   3.282 -0.2398  0.3010  0.5232
28838SOL    HW288522   0.386   0.172   3.323 -0.2107  0.2053  0.3671
28839SOL     OW88523   7.653   4.751   2.030 -0.3795  0.0198  0.4622
28839SOL    HW188524   7.700   4.701   2.097 -1.9572 -0.7446  1.0495
28839SOL    HW288525   7.603   4.685   1.982 -0.8481  0.7972 -0.1366
28840SOL     OW88526   4.984   2.755   1.391 -0.2502  0.1223 -0.2593
28840SOL    HW188527   4.888   2.753   1.385 -0.2030 -0.0002 -1.1401
28840SOL    HW288528   5.013   2.681   1.336  0.3852  1.1897 -1.4271
28841SOL     OW88529   9.067   6.346   6.466 -0.7377  0.1006 -0.2155
28841SOL    HW188530   9.094   6.254   6.467 -1.1019 -0.0171  1.5155
28841SOL    HW288531   9.147   6.395   6.487 -0.6537  0.1448 -0.6381
28842SOL     OW88532   8.881   7.303   4.405  0.6755 -0.3022 -0.3496
28842SOL    HW188533   8.802   7.283   4.455  0.7754  0.9357  0.3358
28842SOL    HW288534   8.849   7.353   4.329  0.5414 -2.0276 -1.4892
28843SOL     OW88535   5.484   5.229   2.930 -0.1171  0.5348  0.4131
28843SOL    HW188536   5.518   5.300   2.876 -3.1719  1.4302 -0.5457
28843SOL    HW288537   5.515   5.149   2.887 -0.4413  1.2709 -1.2565
28844SOL     OW88538   9.023   9.152   9.492  0.0830  0.6023 -0.2208
28844SOL    HW188539   9.093   9.087   9.501 -1.1112 -0.5776  1.0528
28844SOL    HW288540   8.949   9.113   9.538 -1.1064  2.2737 -0.6510
28845SOL     OW88541   2.963   6.928   2.346  0.6161  0.0663  0.1832
28845SOL    HW188542   2.970   7.023   2.357 -0.5716  0.2193 -0.3208
28845SOL    HW288543   2.900   6.900   2.413 -0.5111 -0.0861 -0.9121
28846SOL     OW88544  10.478   6.725   2.298 -0.3605 -0.6007  0.5434
28846SOL    HW188545  10.549   6.710   2.235 -0.1447  0.8805  0.4114
28846SOL    HW288546  10.489   6.816   2.325 -1.7864 -0.5663  1.0651
28847SOL     OW88547   0.752   1.147   7.284  0.3684 -0.1973  1.0155
28847SOL    HW188548   0.689   1.170   7.352 -0.5677  0.4123 -0.0104
28847SOL    HW288549   0.793   1.066   7.314 -1.2955 -0.9028  1.4735
28848SOL     OW88550   1.347   7.390   3.512  0.5351  0.4743  0.2877
28848SOL    HW188551   1.272   7.363   3.460 -0.1594  1.3475  0.8144
28848SOL    HW288552   1.326   7.479   3.542  2.1616  1.0914 -0.2750
28849SOL     OW88553   6.522   3.920   2.624  1.0893 -0.2761 -0.5500
28849SOL    HW188554   6.504   3.899   2.715 -0.1027  2.0370 -0.1833
28849SOL    HW288555   6.444   3.968   2.594  2.3841  1.0048 -2.0669
28850SOL     OW88556  10.453   7.048   8.020 -0.2552 -0.4929 -0.0198
28850SOL    HW188557  10.531   6.997   8.001 -0.7812 -1.0360 -0.7932
28850SOL    HW288558  10.480   7.139   8.008  0.0635 -0.7081 -1.0763
28851SOL     OW88559   7.157   3.142   3.895  0.1436  0.1160 -0.3755
28851SOL    HW188560   7.174   3.082   3.822 -0.1772 -0.1017 -0.2740
28851SOL    HW288561   7.206   3.106   3.968  2.6260  1.7334 -1.0919
28852SOL     OW88562   5.457   0.243   7.496  0.8739  0.2799  0.2501
28852SOL    HW188563   5.381   0.243   7.438  0.2728 -0.3139  1.0293
28852SOL    HW288564   5.479   0.150   7.507  1.1505  0.4041  0.7560
28853SOL     OW88565   5.945   9.573   9.457  0.4348 -0.3615 -0.7792
28853SOL    HW188566   6.038   9.550   9.452  0.4283 -1.3343  1.9895
28853SOL    HW288567   5.899   9.491   9.441  0.0875 -0.0940 -1.1539
28854SOL     OW88568   7.255  10.151   2.048 -0.1641 -0.3584  0.3727
28854SOL    HW188569   7.232  10.098   1.972 -2.7758  1.4226 -0.2245
28854SOL    HW288570   7.186  10.133   2.112  2.3852 -2.4365  2.8270
28855SOL     OW88571   8.705   3.307   8.477  0.3997 -0.2636  0.1436
28855SOL    HW188572   8.778   3.323   8.537  0.4165 -0.2029  0.1078
28855SOL    HW288573   8.664   3.393   8.466  1.2212  0.0179 -0.9884
28856SOL     OW88574   5.453   2.377   7.336 -0.8501  0.1235 -0.0755
28856SOL    HW188575   5.468   2.283   7.349 -1.2758  0.1233  0.4494
28856SOL    HW288576   5.391   2.381   7.263  1.9676  0.1429 -2.6959
28857SOL     OW88577   3.083   4.077   1.552 -0.1889 -0.2965  0.1852
28857SOL    HW188578   3.147   4.072   1.481 -0.9191  5.1632 -1.2826
28857SOL    HW288579   3.002   4.046   1.512 -0.2642  1.2640 -0.9438
28858SOL     OW88580   2.518   7.944   0.454 -0.2362  0.4584 -0.1847
28858SOL    HW188581   2.609   7.919   0.470  0.7525  2.7436 -1.6447
28858SOL    HW288582   2.523   8.004   0.379 -3.1907 -0.7915 -1.5048
28859SOL     OW88583   1.984   5.685   3.642 -0.0469 -0.5853 -0.5666
28859SOL    HW188584   2.031   5.682   3.725  0.1318  1.5141 -0.5418
28859SOL    HW288585   2.048   5.652   3.578  1.0534  0.9480 -0.3263
28860SOL     OW88586   0.315   2.280   0.109  0.1782  0.4014 -0.1582
28860SOL    HW188587   0.337   2.275   0.015  3.2046 -0.6998  0.4649
28860SOL    HW288588   0.283   2.192   0.130 -0.0433  0.5042 -0.0656
28861SOL     OW88589  10.802   8.205   1.089  0.4326  0.1816  0.2965
28861SOL    HW188590  10.864   8.145   1.132  2.1322  2.3342  1.0091
28861SOL    HW288591  10.825   8.200   0.996 -0.4056 -1.2844  0.1337
28862SOL     OW88592   5.219   7.085  10.782 -0.1618  1.1658  1.2305
28862SOL    HW188593   5.279   7.013  10.762 -0.0053  1.7144 -0.4297
28862SOL    HW288594   5.152   7.045  10.838  0.8578  0.1628  1.7846
28863SOL     OW88595  10.882   2.597   6.257  0.2261  0.4782  0.0974
28863SOL    HW188596  10.854   2.620   6.346  0.0427  3.2091 -0.5941
28863SOL    HW288597  10.800   2.582   6.210  0.3093 -0.5355  0.2524
28864SOL     OW88598   0.495  10.693   4.694 -0.4605  0.0397  0.0720
28864SOL    HW188599   0.456  10.700   4.782 -0.6620  1.4986 -0.1120
28864SOL    HW288600   0.577  10.646   4.709 -1.1154 -0.9300  0.8262
28865SOL     OW88601   9.979   4.604   8.635  0.6989  0.2529  0.6452
28865SOL    HW188602   9.921   4.546   8.585  1.0146  2.0988 -2.0990
28865SOL    HW288603   9.939   4.691   8.627  0.4960  0.6134  4.2285
28866SOL     OW88604   8.929   0.789   1.738 -0.2935  0.5522  0.6761
28866SOL    HW188605   8.840   0.756   1.747 -0.1253 -0.2451 -0.3124
28866SOL    HW288606   8.945   0.789   1.643  0.7636  0.6520  0.8356
28867SOL     OW88607   1.058   1.058   4.215 -0.4145  0.1077  0.0693
28867SOL    HW188608   1.023   1.100   4.137  1.1133  2.6041  0.6012
28867SOL    HW288609   1.116   1.124   4.254 -0.1057 -1.5044  2.6073
28868SOL     OW88610   3.596   2.146   3.013  0.5050 -0.4703  0.1797
28868SOL    HW188611   3.630   2.105   2.933 -0.1488  0.8483 -0.8145
28868SOL    HW288612   3.674   2.180   3.057  0.8612 -1.0973  0.0544
28869SOL     OW88613   3.971   5.567  10.075  0.1524  0.1586  0.3614
28869SOL    HW188614   3.992   5.475  10.091  0.9613  0.0332 -1.2139
28869SOL    HW288615   3.879   5.568  10.049 -0.6410  0.1528  2.9281
28870SOL     OW88616   3.485   3.220   2.923 -0.5786  0.1285  0.3757
28870SOL    HW188617   3.549   3.153   2.902 -1.3331 -0.7472  0.8186
28870SOL    HW288618   3.440   3.188   3.001 -2.4481  0.0694 -0.6508
28871SOL     OW88619   3.651   9.366   7.594 -0.2257 -0.0478 -0.3413
28871SOL    HW188620   3.710   9.432   7.558  1.2277 -0.3909  1.2565
28871SOL    HW288621   3.707   9.290   7.612 -1.4789 -0.9994 -0.2989
28872SOL     OW88622   9.755   0.010   5.577  0.4574 -0.5098  0.1848
28872SOL    HW188623   9.797   0.028   5.492 -1.4488  1.9172 -0.3534
28872SOL    HW288624   9.825   0.023   5.641  1.2584  0.4426 -0.8400
28873SOL     OW88625   4.401   7.445   9.583  0.1123 -0.3838 -0.0736
28873SOL    HW188626   4.462   7.509   9.618 -1.5604  1.3236 -0.1118
28873SOL    HW288627   4.394   7.466   9.490  0.4868 -1.4616 -0.3650
28874SOL     OW88628   7.819   0.672   7.635 -0.6545  0.4284  0.0603
28874SOL    HW188629   7.869   0.725   7.697  0.5646 -1.0795  0.4481
28874SOL    HW288630   7.777   0.735   7.577  2.0041  1.8125 -0.5173
28875SOL     OW88631   4.962   1.375  10.359  0.0317 -0.3146 -0.1505
28875SOL    HW188632   4.987   1.466  10.339  1.2342 -0.0114  2.3615
28875SOL    HW288633   4.901   1.351  10.289 -0.5661  2.5322 -0.7349
28876SOL     OW88634  10.904   3.062   4.755 -0.1253  0.4624 -0.4970
28876SOL    HW188635  10.815   3.035   4.779 -0.9304  2.8636 -0.5698
28876SOL    HW288636  10.958   3.035   4.829 -1.1992  0.4736  0.3059
28877SOL     OW88637   7.516   6.802   4.381 -0.9127  0.0364 -0.6094
28877SOL    HW188638   7.466   6.768   4.455 -0.7152  0.4748 -0.2725
28877SOL    HW288639   7.513   6.732   4.316  2.3928 -2.1848  1.3300
28878SOL     OW88640   0.916   1.470   6.853  0.6342 -0.2632 -0.4500
28878SOL    HW188641   0.976   1.414   6.903 -0.0707  1.8037  3.1027
28878SOL    HW288642   0.962   1.554   6.848 -1.0526  0.7885  0.6304
28879SOL     OW88643   4.827   7.837   0.897 -0.3073 -0.3375  0.2247
28879SOL    HW188644   4.869   7.811   0.979 -0.0311 -1.1389 -0.1525
28879SOL    HW288645   4.897   7.878   0.846  0.0746 -1.6760 -0.4053
28880SOL     OW88646   3.405   3.960   9.810  0.0800  0.7048  0.3937
28880SOL    HW188647   3.481   3.999   9.766  0.6683 -0.1939  0.5925
28880SOL    HW288648   3.349   4.035   9.830  2.0581  1.7810  2.5226
28881SOL     OW88649   5.894   9.186   0.039  0.3087  0.1155  0.4410
28881SOL    HW188650   5.838   9.195   0.116 -0.3275 -1.8217  0.2491
28881SOL    HW288651   5.836   9.204  -0.035  0.8185  1.5617  0.3669
28882SOL     OW88652  10.473   2.554   3.468  0.1243 -0.1881  0.3111
28882SOL    HW188653  10.510   2.602   3.542 -0.8116  0.4109  0.4136
28882SOL    HW288654  10.520   2.586   3.392  1.7723 -1.5083  0.7255
28883SOL     OW88655   8.174   0.506   1.606  0.3968  0.3245  0.4345
28883SOL    HW188656   8.252   0.562   1.612  0.1177  0.6023  3.6713
28883SOL    HW288657   8.198   0.425   1.652 -0.2351 -0.9415 -1.3649
28884SOL     OW88658   1.574   2.894  10.520 -0.1062 -0.3678  0.2149
28884SOL    HW188659   1.560   2.949  10.596 -0.2278  0.1029 -0.1456
28884SOL    HW288660   1.629   2.946  10.461  1.1388 -1.2528  0.5559
28885SOL     OW88661   7.424   2.830   0.069 -0.2434  0.2936  0.6540
28885SOL    HW188662   7.380   2.763   0.017 -0.4068  0.7430  0.2004
28885SOL    HW288663   7.414   2.910   0.018  3.2699  0.0250 -0.7996
28886SOL     OW88664   4.550   7.315   8.245 -0.5384 -0.4674  0.1904
28886SOL    HW188665   4.619   7.299   8.181 -1.7869 -1.6049 -0.9407
28886SOL    HW288666   4.514   7.400   8.220  0.8990  0.4982  1.2564
28887SOL     OW88667   0.628   7.014   7.048 -0.1371 -0.4562 -0.2829
28887SOL    HW188668   0.607   7.067   7.125  0.9846  3.1624 -2.2287
28887SOL    HW288669   0.718   6.984   7.063 -0.1346 -0.2841  0.0460
28888SOL     OW88670   5.295  10.956  10.688 -0.6089  0.0087  0.1194
28888SOL    HW188671   5.247  10.895  10.745 -2.7903 -0.7795 -2.3553
28888SOL    HW288672   5.236  11.029  10.675  1.8010  2.6610  2.6571
28889SOL     OW88673   3.230   5.899   6.006 -0.2728 -0.4053  0.1142
28889SOL    HW188674   3.200   5.866   6.091  0.9984 -1.7791  0.0750
28889SOL    HW288675   3.162   5.961   5.979 -1.3552 -0.9136  1.5307
28890SOL     OW88676   2.490   5.994   1.354  0.5184  0.2309  0.1885
28890SOL    HW188677   2.531   6.080   1.354 -0.4817  0.7727  2.2955
28890SOL    HW288678   2.446   5.988   1.269 -0.5941  2.4313  0.5282
28891SOL     OW88679   6.867   0.258   8.273 -0.2211 -0.0505 -0.1781
28891SOL    HW188680   6.887   0.329   8.333  0.6380 -1.1522  0.8944
28891SOL    HW288681   6.943   0.199   8.279 -0.6027 -0.7252 -1.5305
28892SOL     OW88682   7.934   4.207   2.232  0.5602  0.6030 -0.0714
28892SOL    HW188683   8.012   4.162   2.199  0.3838 -0.6766  1.1761
28892SOL    HW288684   7.862   4.145   2.218  0.0167  1.1693  0.1358
28893SOL     OW88685  10.942   8.464   4.166  0.6783 -0.3274 -0.8211
28893SOL    HW188686  10.940   8.419   4.082  2.0509 -0.7695 -0.6369
28893SOL    HW288687  10.904   8.550   4.148 -1.7259 -1.3894 -1.2396
28894SOL     OW88688   8.076   7.445   1.672  0.2523 -1.5154  0.5675
28894SOL    HW188689   8.057   7.360   1.712 -1.2929 -0.8569  1.3058
28894SOL    HW288690   8.157   7.474   1.713  0.1373 -2.0839  1.2067
28895SOL     OW88691   6.016   0.415   9.624  0.1801  0.5539 -0.3273
28895SOL    HW188692   6.044   0.506   9.614 -2.5522  1.7779  1.7025
28895SOL    HW288693   5.994   0.407   9.717 -1.1885 -1.6968 -0.7767
28896SOL     OW88694   0.617   7.638   6.582  0.4372  0.0122 -0.2573
28896SOL    HW188695   0.527   7.606   6.597  0.4930  0.4741  1.2041
28896SOL    HW288696   0.605   7.720   6.534  0.0507  0.3238  0.3604
28897SOL     OW88697   8.322   0.928   5.068 -0.5037  0.2444 -0.1783
28897SOL    HW188698   8.417   0.924   5.055 -0.5108  0.5244 -0.3127
28897SOL    HW288699   8.287   0.860   5.010 -0.6470  2.3083 -2.6788
28898SOL     OW88700   0.259   2.484   1.201  0.7965  0.6625  0.5139
28898SOL    HW188701   0.180   2.431   1.191  0.3105  1.1851  1.4226
28898SOL    HW288702   0.330   2.430   1.167 -0.0292  0.4119 -0.8828
28899SOL     OW88703   8.169   5.981   1.132 -0.0834  0.3588 -0.0880
28899SOL    HW188704   8.123   5.923   1.193  0.3888  0.4920  0.4018
28899SOL    HW288705   8.155   5.942   1.046 -0.6103  0.0700  0.1258
28900SOL     OW88706   9.609  10.723   8.594 -0.2068 -0.7906 -0.4161
28900SOL    HW188707   9.606  10.757   8.683 -1.8772  0.3129 -0.8467
28900SOL    HW288708   9.694  10.752   8.560  0.6861 -1.6851  0.9477
28901SOL     OW88709   9.445   3.631   5.229 -0.2234 -0.1415 -0.0192
28901SOL    HW188710   9.435   3.725   5.245 -4.3540  0.1035 -2.5014
28901SOL    HW288711   9.472   3.626   5.137 -1.7493 -1.3229 -0.4359
28902SOL     OW88712   5.587  10.989   3.303  0.5254 -0.2125  0.2308
28902SOL    HW188713   5.532  10.916   3.274  1.4547 -1.4937  1.5266
28902SOL    HW288714   5.541  11.026   3.378 -0.5960  1.4365 -1.2017
28903SOL     OW88715   2.873   7.867   2.406  0.1063 -0.1305  0.2349
28903SOL    HW188716   2.949   7.919   2.381 -2.2737  1.9270 -3.8727
28903SOL    HW288717   2.845   7.904   2.490  1.8987  1.1393  0.3280
28904SOL     OW88718   2.184   1.951   7.751  0.1488  0.2393  0.2207
28904SOL    HW188719   2.150   2.036   7.780 -0.9025 -0.1062  0.0296
28904SOL    HW288720   2.232   1.971   7.670  0.4752  0.7428  0.5333
28905SOL     OW88721   1.298  10.601   0.860  0.4280  0.3042 -0.4607
28905SOL    HW188722   1.229  10.666   0.846  0.4134  0.8545  1.7020
28905SOL    HW288723   1.377  10.642   0.824  0.2481  1.1638  0.0773
28906SOL     OW88724   8.643   4.307   0.033 -0.3555  0.5816 -0.1673
28906SOL    HW188725   8.574   4.258   0.079 -0.4294  0.0135 -0.8713
28906SOL    HW288726   8.668   4.250  -0.039  0.5479  0.9844 -0.1768
28907SOL     OW88727   6.389   8.130   1.498  0.0354 -0.1622  0.2110
28907SOL    HW188728   6.478   8.125   1.462 -0.2462  0.6203 -0.6522
28907SOL    HW288729   6.357   8.216   1.470 -0.7041 -0.0967  1.2099
28908SOL     OW88730   5.620   0.485   1.716 -0.3994  0.0375  0.3089
28908SOL    HW188731   5.552   0.495   1.649 -2.9280 -1.8478  2.3543
28908SOL    HW288732   5.689   0.546   1.690 -2.2357  1.0493 -2.6991
28909SOL     OW88733   2.274   5.875   2.705  0.0242  0.3892  0.1021
28909SOL    HW188734   2.359   5.890   2.745  0.1600  0.7983 -0.3250
28909SOL    HW288735   2.294   5.857   2.613 -0.1302 -2.4737  0.5515
28910SOL     OW88736   5.382   9.127   0.074 -0.6530 -0.3697 -0.3821
28910SOL    HW188737   5.467   9.139   0.031 -0.5027 -1.8114 -0.5299
28910SOL    HW288738   5.334   9.208   0.056  0.9105  0.7707  0.2580
28911SOL     OW88739   6.851  10.368   4.304 -0.5448 -0.0244  0.5827
28911SOL    HW188740   6.790  10.298   4.330 -0.0773 -0.8149 -0.3673
28911SOL    HW288741   6.834  10.439   4.365 -3.7377  0.5312 -0.7400
28912SOL     OW88742   2.746   8.153   3.232 -0.4081  0.2904 -0.2026
28912SOL    HW188743   2.677   8.213   3.206 -1.4311 -0.4238  0.7693
28912SOL    HW288744   2.795   8.135   3.152  0.4560  3.0414 -0.3648
28913SOL     OW88745   6.188   4.175   5.812  0.0192 -0.3180 -0.0727
28913SOL    HW188746   6.205   4.121   5.735  0.7740 -1.1227  0.6317
28913SOL    HW288747   6.093   4.181   5.816 -0.0309  0.5438 -1.5908
28914SOL     OW88748   0.091  10.775   8.555  0.4791 -0.2313  0.1008
28914SOL    HW188749   0.013  10.776   8.500  1.6946  1.7543 -1.7505
28914SOL    HW288750   0.148  10.710   8.513  1.4164  1.3019 -1.1340
28915SOL     OW88751   5.273   0.815   1.187  0.0882 -0.5332  0.2096
28915SOL    HW188752   5.367   0.805   1.173  0.1328  2.3609 -2.6514
28915SOL    HW288753   5.266   0.861   1.271  1.3170  0.2749 -0.1029
28916SOL     OW88754   1.811   5.646   4.845 -0.0011 -0.2225 -0.2434
28916SOL    HW188755   1.783   5.660   4.754  0.5051 -1.4378 -0.6074
28916SOL    HW288756   1.738   5.599   4.885 -1.1715  2.1759  0.6330
28917SOL     OW88757   2.568   5.949   6.467 -0.8816 -0.3236  0.1853
28917SOL    HW188758   2.625   6.024   6.482 -0.7708 -0.4656  0.4828
28917SOL    HW288759   2.601   5.909   6.387 -0.8486 -0.1379  0.1073
28918SOL     OW88760   1.852   4.135   0.612  0.6901 -0.2161 -0.4213
28918SOL    HW188761   1.892   4.145   0.699 -1.9764  3.1703  0.6658
28918SOL    HW288762   1.758   4.144   0.629 -0.4260 -4.1070 -3.2213
28919SOL     OW88763   2.250   1.493   4.795  0.0400  0.4415  0.2690
28919SOL    HW188764   2.158   1.518   4.804 -0.0228  0.5594 -0.6106
28919SOL    HW288765   2.252   1.437   4.718  0.5151 -0.6346  1.0285
28920SOL     OW88766   5.461   3.880   4.526 -0.1191 -0.3359 -0.1554
28920SOL    HW188767   5.394   3.815   4.505  0.7516 -1.3562  0.1281
28920SOL    HW288768   5.526   3.871   4.457 -0.0233  0.2838 -0.1482
28921SOL     OW88769  10.085   3.655   7.484  0.3970  0.0154  0.1791
28921SOL    HW188770  10.056   3.712   7.555 -2.5681  0.8992 -1.5749
28921SOL    HW288771  10.159   3.700   7.445 -0.7739  1.8282 -0.0486
28922SOL     OW88772   9.496   2.914   7.009  0.1793  0.0980  0.1362
28922SOL    HW188773   9.542   2.832   7.030  1.2382  0.7084  0.2751
28922SOL    HW288774   9.403   2.890   7.011  0.4872 -1.4097 -1.0863
28923SOL     OW88775  10.257   6.120   2.928  0.0953 -0.2651  0.0830
28923SOL    HW188776  10.173   6.084   2.899  1.6318 -1.4291 -3.5292
28923SOL    HW288777  10.258   6.106   3.022 -3.3323 -1.0494  0.1446
28924SOL     OW88778   1.333   0.072   4.649 -0.9124  0.5811  0.0246
28924SOL    HW188779   1.267   0.137   4.624 -1.4305  0.6717  1.5324
28924SOL    HW288780   1.319   0.058   4.742  2.3925  1.9236  0.8606
28925SOL     OW88781   4.492   2.738   0.230 -0.4382  0.0932  0.4072
28925SOL    HW188782   4.579   2.745   0.268 -0.3269  2.2309 -0.1090
28925SOL    HW288783   4.454   2.659   0.270  0.5554  0.8826  3.0771
28926SOL     OW88784   3.867   8.279   4.192 -0.1700  0.1877  0.1274
28926SOL    HW188785   3.859   8.324   4.276  2.0483  1.1683 -0.1220
28926SOL    HW288786   3.826   8.193   4.207 -1.8175  1.1473  1.4961
28927SOL     OW88787   7.452   5.207  10.555  0.0224 -0.1710  0.0113
28927SOL    HW188788   7.417   5.241  10.473 -0.1041  0.9075  0.4892
28927SOL    HW288789   7.401   5.128  10.572  0.9371 -1.1500 -1.5898
28928SOL     OW88790   2.209   5.422   3.839 -0.2265  0.4578  0.1874
28928SOL    HW188791   2.292   5.448   3.881 -1.0889  5.0811 -0.4013
28928SOL    HW288792   2.235   5.357   3.774  2.4071 -0.5936  2.0712
28929SOL     OW88793   0.985   5.682   3.916 -0.0551  0.3017  0.0978
28929SOL    HW188794   0.944   5.627   3.850  0.3804 -0.1416  0.1913
28929SOL    HW288795   0.964   5.640   3.999 -0.5262  0.8082  0.2346
28930SOL     OW88796   2.908   1.014   9.496 -0.0737  0.4070 -0.1761
28930SOL    HW188797   2.838   0.949   9.493 -1.0233  1.3175  0.9796
28930SOL    HW288798   2.888   1.068   9.573  1.4038  1.2587 -0.3331
28931SOL     OW88799   4.111   2.837   8.443  0.0205  0.0700  0.1499
28931SOL    HW188800   4.025   2.880   8.440 -0.5366 -0.9261  1.2377
28931SOL    HW288801   4.173   2.908   8.427 -0.9849  0.8458 -0.4639
28932SOL     OW88802   6.800  10.975   6.445  0.7168  0.2677 -0.2055
28932SOL    HW188803   6.895  10.968   6.438  0.6992 -0.3212  0.0692
28932SOL    HW288804   6.767  10.929   6.368  0.6319 -1.1722  0.6494
28933SOL     OW88805   4.007   2.717   7.477 -0.0350  0.0887  0.1156
28933SOL    HW188806   4.072   2.661   7.518  0.7137  0.1031 -0.9930
28933SOL    HW288807   4.057   2.792   7.444 -0.6183  0.1619 -0.6423
28934SOL     OW88808   2.715   3.432   1.739  0.4918 -0.0708 -0.2725
28934SOL    HW188809   2.807   3.456   1.748  0.1816  1.4320 -0.8539
28934SOL    HW288810   2.669   3.486   1.803 -0.0570 -0.3199 -0.4479
28935SOL     OW88811   4.389   9.021   3.994 -0.1237  0.1312  0.0749
28935SOL    HW188812   4.316   8.969   3.959  1.0684 -1.1890 -0.5585
28935SOL    HW288813   4.463   8.960   3.996  1.5903  2.0196 -1.5268
28936SOL     OW88814   4.408   9.409   7.414 -0.3862  0.1259  0.0554
28936SOL    HW188815   4.349   9.345   7.375  1.0757 -0.6066 -1.0097
28936SOL    HW288816   4.360   9.492   7.410 -1.2621 -0.4150 -0.9622
28937SOL     OW88817   4.534   0.525  10.870  0.5227  0.5966 -0.0732
28937SOL    HW188818   4.505   0.591  10.808  1.6862  0.7641 -0.4668
28937SOL    HW288819   4.629   0.521  10.858  0.6102 -0.2933  0.7854
28938SOL     OW88820   0.176   2.191   2.182 -0.0055  0.0467 -0.1584
28938SOL    HW188821   0.203   2.108   2.224  0.4762  0.0430 -0.4675
28938SOL    HW288822   0.188   2.175   2.089  0.0259  0.4459 -0.2217
28939SOL     OW88823   5.935   0.563  10.280 -0.1196 -0.1929  0.0790
28939SOL    HW188824   6.017   0.599  10.316 -0.1725 -1.7139  1.8546
28939SOL    HW288825   5.893   0.638  10.238  0.1129  1.7094  2.9391
28940SOL     OW88826   0.933   8.728   2.388 -0.6253  0.8997  0.5921
28940SOL    HW188827   0.955   8.763   2.475  2.3059  2.6513 -0.6994
28940SOL    HW288828   0.840   8.748   2.378 -1.4325 -0.5757  3.7633
28941SOL     OW88829  10.127   6.827   8.753 -0.0331  0.2247  0.5012
28941SOL    HW188830  10.111   6.864   8.840 -0.2009 -0.3240  0.7048
28941SOL    HW288831  10.041   6.820   8.713  0.0513  0.5492  0.2573
28942SOL     OW88832   9.536   9.525   5.351 -0.5498 -0.6426 -0.3493
28942SOL    HW188833   9.495   9.578   5.283 -3.1775  0.1911  1.6925
28942SOL    HW288834   9.607   9.478   5.306 -1.5313  0.5349 -3.3827
28943SOL     OW88835   0.432   5.059  10.568  0.0109  0.5026  0.1381
28943SOL    HW188836   0.503   5.122  10.564 -0.5099  1.1689  1.0212
28943SOL    HW288837   0.371   5.095  10.633 -2.6513  1.5608 -2.7033
28944SOL     OW88838   5.182   6.324   9.614  0.3030 -0.1644 -0.8658
28944SOL    HW188839   5.105   6.380   9.605  0.8462  0.7840  0.1111
28944SOL    HW288840   5.200   6.294   9.525 -0.6192  0.3743 -1.2514
28945SOL     OW88841   6.680   9.237   4.182 -0.1964 -0.1868  0.6573
28945SOL    HW188842   6.640   9.321   4.204  2.0835  2.0731 -2.7627
28945SOL    HW288843   6.752   9.227   4.243 -1.6689 -0.7855  2.3772
28946SOL     OW88844   4.666   5.808   0.916  0.5622  1.1976 -0.6067
28946SOL    HW188845   4.579   5.794   0.953  1.7529  1.0383  2.3669
28946SOL    HW288846   4.663   5.763   0.831 -1.8807  0.1882 -0.0667
28947SOL     OW88847   1.864   0.814   2.536 -0.5210 -0.0592  0.2575
28947SOL    HW188848   1.937   0.867   2.504  0.1028 -0.6144  0.7417
28947SOL    HW288849   1.829   0.864   2.610  1.2951 -1.1715  1.9836
28948SOL     OW88850   2.452   8.527   1.098 -0.1488 -1.1048 -1.0154
28948SOL    HW188851   2.394   8.574   1.157  1.4548 -0.9523  0.5274
28948SOL    HW288852   2.512   8.594   1.063  0.2827 -1.5327 -1.1157
28949SOL     OW88853   3.192   8.678   4.488 -0.0249 -0.1972  0.2178
28949SOL    HW188854   3.285   8.698   4.485 -0.1056  0.3785  1.1319
28949SOL    HW288855   3.180   8.630   4.570 -0.4215 -0.9097 -0.2435
28950SOL     OW88856   1.240   4.484  10.342 -0.5358  0.1177 -0.0695
28950SOL    HW188857   1.157   4.475  10.295 -1.5308  0.1227  1.6328
28950SOL    HW288858   1.269   4.573  10.323 -0.8702  0.0940 -0.7282
28951SOL     OW88859   3.430   0.623   6.706 -0.0597  0.1595 -0.4905
28951SOL    HW188860   3.422   0.585   6.619  0.3607  0.4496 -0.6562
28951SOL    HW288861   3.520   0.653   6.712 -0.5893  1.9426 -0.7162
28952SOL     OW88862   5.762   0.078   9.027  0.2563 -0.0617  0.0019
28952SOL    HW188863   5.758   0.056   8.934  1.6489  0.6901 -0.2593
28952SOL    HW288864   5.729   0.167   9.032  0.8614  0.1599  0.1162
28953SOL     OW88865   7.374   2.279  10.873 -0.1315 -0.1367  0.4949
28953SOL    HW188866   7.280   2.288  10.884  0.1536  4.1097  1.2709
28953SOL    HW288867   7.391   2.309  10.784  0.5594  1.4264  1.0979
28954SOL     OW88868   4.034   9.960   7.769  0.0292  0.4785 -0.5063
28954SOL    HW188869   3.963   9.895   7.768  0.5598 -0.1575  0.8555
28954SOL    HW288870   3.999  10.033   7.819  0.6601 -0.2781  1.1119
28955SOL     OW88871   2.134   2.887   2.809 -0.1197 -0.6064  0.3483
28955SOL    HW188872   2.093   2.876   2.894 -1.8046 -1.3871 -0.5134
28955SOL    HW288873   2.123   2.980   2.789  0.5599 -0.3587  1.0960
28956SOL     OW88874   6.067   8.116   5.002  0.3196 -0.1113  0.1926
28956SOL    HW188875   6.161   8.106   5.011  0.3111 -0.6514 -0.2859
28956SOL    HW288876   6.031   8.029   5.015 -0.2292  0.3040  1.6132
28957SOL     OW88877   5.857   4.347   9.610  0.2956  0.0746 -0.5069
28957SOL    HW188878   5.767   4.360   9.637  0.5401  1.2904 -0.2067
28957SOL    HW288879   5.904   4.329   9.692  0.3092 -0.7232 -0.6807
28958SOL     OW88880   9.216   1.815   7.089  0.2357  0.3703  0.3616
28958SOL    HW188881   9.228   1.909   7.074 -0.7965  0.3692 -0.6405
28958SOL    HW288882   9.304   1.778   7.079  0.7999  1.3052  1.5842
28959SOL     OW88883   3.211   9.418   8.044 -0.5067  0.1473 -0.1994
28959SOL    HW188884   3.247   9.503   8.021  1.7910 -0.7588 -0.2447
28959SOL    HW288885   3.119   9.423   8.020 -0.3683  2.4964 -0.4600
28960SOL     OW88886   4.548   1.521   0.574 -0.0632  0.7228  0.4743
28960SOL    HW188887   4.613   1.514   0.643 -1.5666 -0.7968  1.8265
28960SOL    HW288888   4.589   1.479   0.498  0.3779 -0.6955  1.4477
28961SOL     OW88889   2.600   9.664   6.938 -0.4692 -0.3041 -0.1725
28961SOL    HW188890   2.671   9.709   6.984  0.7977 -1.8533 -0.5696
28961SOL    HW288891   2.584   9.718   6.861  1.1659 -0.5996 -0.7464
28962SOL     OW88892   7.995   4.824  10.755 -0.6854 -0.7945 -0.1103
28962SOL    HW188893   8.018   4.751  10.698 -0.2218 -0.1517 -0.7724
28962SOL    HW288894   7.921   4.866  10.711  0.0152  0.0227 -0.5380
28963SOL     OW88895   2.830   5.118   0.823 -0.0557  0.0174 -0.1144
28963SOL    HW188896   2.841   5.098   0.730 -0.9513  3.3874 -1.0860
28963SOL    HW288897   2.893   5.188   0.840 -2.2942  1.9262  0.8255
28964SOL     OW88898   5.020  10.451   8.792 -0.1890  0.4306 -0.4021
28964SOL    HW188899   5.032  10.427   8.700 -0.1263 -2.2995  0.2467
28964SOL    HW288900   5.106  10.484   8.819  0.2180 -0.1846 -0.9224
28965SOL     OW88901   6.216   6.174   3.291  0.1308  0.2895 -0.3556
28965SOL    HW188902   6.123   6.193   3.278  0.0302  0.7807  0.9470
28965SOL    HW288903   6.251   6.256   3.327  0.2528 -1.0160  2.8474
28966SOL     OW88904   7.941   0.894   4.216  0.2248  0.5410  0.4244
28966SOL    HW188905   7.905   0.888   4.128  0.7759 -0.7344  0.2689
28966SOL    HW288906   7.867   0.925   4.270  0.1350  2.2016 -0.6053
28967SOL     OW88907   0.432   4.868   8.369  0.0061 -0.2064 -0.0065
28967SOL    HW188908   0.352   4.867   8.422  0.2705 -0.1921  0.4058
28967SOL    HW288909   0.404   4.896   8.282 -0.2551  1.0152  0.4441
28968SOL     OW88910   0.268   6.011   5.692  0.5677  0.3338  0.0680
28968SOL    HW188911   0.286   6.050   5.777  2.0470 -0.9647  0.4055
28968SOL    HW288912   0.287   6.080   5.628 -0.8460  1.4123  0.7630
28969SOL     OW88913   6.421   0.533   5.250 -0.3583 -0.9506 -0.0629
28969SOL    HW188914   6.490   0.467   5.257  0.1198 -0.3714  0.9824
28969SOL    HW288915   6.465   0.610   5.214  0.0931  0.0805  2.4319
28970SOL     OW88916   8.349   4.780   1.793 -0.3819 -0.1499 -0.0223
28970SOL    HW188917   8.284   4.794   1.862  0.3618  1.6320  0.3647
28970SOL    HW288918   8.392   4.698   1.818 -0.7212  0.0118  1.1654
28971SOL     OW88919   5.805   5.871   8.898  0.1162  0.0211  0.1573
28971SOL    HW188920   5.842   5.840   8.981  1.2913 -0.9812 -0.6907
28971SOL    HW288921   5.768   5.793   8.857 -0.1222  0.4291 -0.4261
28972SOL     OW88922   2.294   3.134   2.102 -0.3923 -0.3190  0.0243
28972SOL    HW188923   2.350   3.126   2.024 -1.3354 -1.7491 -0.5447
28972SOL    HW288924   2.225   3.194   2.075  2.3517  4.0778  1.7151
28973SOL     OW88925   1.625   7.675   2.030 -0.1093 -0.2291  0.3109
28973SOL    HW188926   1.685   7.705   1.961  0.8540 -2.4323  0.1093
28973SOL    HW288927   1.682   7.631   2.093 -1.0141  1.4205  2.4094
28974SOL     OW88928  10.287  10.314   7.804  0.5775  0.3137  0.1812
28974SOL    HW188929  10.214  10.374   7.819 -0.5925 -1.1411  0.5700
28974SOL    HW288930  10.321  10.338   7.718 -0.9560  0.4667 -0.4231
28975SOL     OW88931   3.714   7.015   4.988 -0.3679 -0.2679  0.1945
28975SOL    HW188932   3.737   7.082   5.053  0.8318  0.0361 -0.5210
28975SOL    HW288933   3.634   7.048   4.946 -0.3702  0.1963  0.5581
28976SOL     OW88934   4.067   0.069   7.377  0.7158  0.6941 -0.1264
28976SOL    HW188935   4.045  -0.011   7.329  1.9942 -0.5064  1.1896
28976SOL    HW288936   3.996   0.078   7.441  1.9424 -1.0310  1.5872
28977SOL     OW88937   2.950   6.057   7.850 -0.8563 -0.5334  0.0163
28977SOL    HW188938   3.028   6.002   7.856 -0.0839  0.6517  1.2289
28977SOL    HW288939   2.905   6.045   7.934 -0.5075  0.9094  0.4269
28978SOL     OW88940   5.036   0.362   9.057  0.5888  0.6328 -0.4381
28978SOL    HW188941   5.107   0.311   9.018  0.1446 -1.1944  0.9714
28978SOL    HW288942   4.958   0.308   9.044 -0.3737  2.1199 -1.0429
28979SOL     OW88943   0.678  10.717   8.247  0.0100  0.2743 -0.8858
28979SOL    HW188944   0.697  10.624   8.257 -2.1926 -0.2053 -0.6319
28979SOL    HW288945   0.648  10.727   8.157 -0.7727  0.5230 -0.6089
28980SOL     OW88946   5.964   6.848   7.897 -0.3802 -0.3180 -0.2810
28980SOL    HW188947   5.918   6.902   7.833  0.7309  1.0986  0.0628
28980SOL    HW288948   6.052   6.887   7.904  0.3597 -1.9595  0.2502
28981SOL     OW88949   3.439   3.628   5.204 -0.5272 -0.1714  0.6440
28981SOL    HW188950   3.398   3.642   5.119  0.6807 -2.3998 -0.3850
28981SOL    HW288951   3.432   3.534   5.219  1.2452 -0.1467  1.9513
28982SOL     OW88952   7.633   9.570   6.545  0.2955 -0.2638 -0.4584
28982SOL    HW188953   7.629   9.658   6.509  0.9325 -0.1360 -0.2260
28982SOL    HW288954   7.725   9.556   6.566 -0.0745 -0.2376  1.3610
28983SOL     OW88955   9.996  10.248   2.004  0.1837  0.1766 -0.5073
28983SOL    HW188956  10.009  10.198   1.924 -0.7382  0.0406 -0.5809
28983SOL    HW288957  10.084  10.278   2.028  0.5136 -0.0578 -1.3831
28984SOL     OW88958   3.438   5.743   1.261 -0.2951 -0.2909  0.4960
28984SOL    HW188959   3.413   5.720   1.172 -0.7088 -1.4922  0.9087
28984SOL    HW288960   3.402   5.830   1.275 -1.8517 -0.8546  0.1186
28985SOL     OW88961   5.673   0.314   0.817 -0.5628 -0.6066 -0.0335
28985SOL    HW188962   5.693   0.227   0.851 -1.8722 -0.4632  1.1951
28985SOL    HW288963   5.585   0.333   0.850 -0.5779  0.9084 -0.8547
28986SOL     OW88964   1.525  10.951   9.735  0.2283 -0.4846 -0.5933
28986SOL    HW188965   1.591  10.917   9.675 -1.0491 -0.9680 -1.8011
28986SOL    HW288966   1.509  10.879   9.796 -0.1113 -0.8628 -1.1163
28987SOL     OW88967   7.537   1.789   9.996  0.1650  0.2512  0.1998
28987SOL    HW188968   7.572   1.705  10.026 -0.0652  0.6682  1.7252
28987SOL    HW288969   7.612   1.836   9.962  1.1730  1.0556  3.2406
28988SOL     OW88970  10.596   2.882   6.356  0.2641 -0.2277  0.1040
28988SOL    HW188971  10.645   2.964   6.360  0.5028 -0.1954 -2.0611
28988SOL    HW288972  10.511   2.902   6.395 -0.0831  1.4166 -1.3471
28989SOL     OW88973   7.406   2.528   3.046  0.7979  0.0657  0.0216
28989SOL    HW188974   7.367   2.509   3.131  1.0461 -2.3391 -0.3156
28989SOL    HW288975   7.380   2.618   3.026  0.7341  0.6859  2.5984
28990SOL     OW88976   6.901   3.903   2.807 -0.5090 -0.3606  0.3738
28990SOL    HW188977   6.969   3.952   2.854 -1.8559  1.5762  0.4055
28990SOL    HW288978   6.856   3.969   2.754  0.5768 -2.3274 -3.3369
28991SOL     OW88979   5.789   0.884   1.788 -0.1687 -0.3949 -0.3555
28991SOL    HW188980   5.714   0.889   1.729 -0.6064  1.1197  0.2834
28991SOL    HW288981   5.775   0.955   1.851  1.1329 -0.9158  0.5642
28992SOL     OW88982   0.897   6.388   8.359 -0.7619  0.0750 -0.1811
28992SOL    HW188983   0.975   6.365   8.410 -1.4962 -1.7039  0.1810
28992SOL    HW288984   0.932   6.436   8.283  0.4000  2.2378  1.5884
28993SOL     OW88985   7.006   4.086   2.997 -0.0401  0.0204  0.7605
28993SOL    HW188986   7.073   4.144   2.960 -0.0903  1.3055  2.5152
28993SOL    HW288987   7.054   4.034   3.062  0.0629 -2.1950 -1.0010
28994SOL     OW88988   6.321   9.438   7.544 -0.3257  0.1848 -0.4183
28994SOL    HW188989   6.376   9.361   7.564  0.8775  0.0577 -3.6157
28994SOL    HW288990   6.383   9.511   7.542 -0.7457  0.5283 -1.2584
28995SOL     OW88991   9.445   6.023   5.812  0.3052  0.3221  0.1420
28995SOL    HW188992   9.414   6.085   5.878  0.5896 -0.9770  1.5402
28995SOL    HW288993   9.411   6.058   5.729  0.2534  2.1996  0.8905
28996SOL     OW88994   6.173   9.953   5.034 -0.1719  0.1247 -0.0460
28996SOL    HW188995   6.141   9.892   5.100  0.1179  0.6039  0.5401
28996SOL    HW288996   6.256   9.984   5.068 -0.0653  0.4547 -0.5917
28997SOL     OW88997   4.327   4.606   4.615 -0.3542 -0.4865 -0.3582
28997SOL    HW188998   4.265   4.659   4.665  0.3129  0.9546 -1.0028
28997SOL    HW288999   4.294   4.609   4.525 -0.3740 -1.2969 -0.3864
28998SOL     OW89000   7.786   2.964   7.856  0.0993 -0.7988 -0.6160
28998SOL    HW189001   7.805   2.896   7.792 -2.2924 -1.8098 -0.3614
28998SOL    HW289002   7.699   2.942   7.889 -0.3023  1.7721  0.2813
28999SOL     OW89003   6.359   1.630   9.710 -0.1096  0.2576  0.2721
28999SOL    HW189004   6.430   1.566   9.704 -2.0387 -1.8462 -2.6166
28999SOL    HW289005   6.398   1.712   9.679  1.6368 -0.2130  1.1069
29000SOL     OW89006   9.825   4.552   7.464  0.3334  0.1211  0.2020
29000SOL    HW189007   9.777   4.472   7.487  0.6228 -0.1351 -0.0605
29000SOL    HW289008   9.853   4.537   7.373  0.5638  0.4320  0.2208
29001SOL     OW89009   4.768   1.843   9.626 -0.0335  0.4307 -0.0744
29001SOL    HW189010   4.727   1.769   9.670  1.4888  0.1991  1.0426
29001SOL    HW289011   4.796   1.900   9.698  1.5929  0.5575 -0.7680
29002SOL     OW89012   4.530   5.597   7.002  0.2183  0.6148  0.2776
29002SOL    HW189013   4.573   5.546   6.934 -0.1269  0.1379  0.4133
29002SOL    HW289014   4.447   5.624   6.964  0.5811  1.4441  0.0549
29003SOL     OW89015   7.017   3.930  10.656 -0.4964  0.0339 -1.0351
29003SOL    HW189016   6.982   3.936  10.745  0.7192 -2.5597 -0.2749
29003SOL    HW289017   7.044   4.020  10.635  0.0689  0.5764  1.6020
29004SOL     OW89018   1.597   1.625   9.957  0.6584 -0.9027  0.0976
29004SOL    HW189019   1.631   1.673  10.033 -0.5273 -0.1963  0.2164
29004SOL    HW289020   1.554   1.692   9.904  0.8242 -1.5114 -0.8296
29005SOL     OW89021   0.604   3.125   3.730  0.4115  0.5181 -0.3652
29005SOL    HW189022   0.685   3.084   3.759 -0.0946 -0.1118  0.1962
29005SOL    HW289023   0.551   3.133   3.809 -0.3359  0.2960 -0.8320
29006SOL     OW89024   1.714   4.402   5.469  0.0925  0.1803 -0.2427
29006SOL    HW189025   1.809   4.408   5.461  0.1715 -0.8393 -0.1258
29006SOL    HW289026   1.685   4.493   5.478  1.0064  0.5324 -0.7798
29007SOL     OW89027  10.305   8.155   8.334 -0.1859 -0.8384 -0.0801
29007SOL    HW189028  10.223   8.199   8.310  0.6111  0.5230 -0.4489
29007SOL    HW289029  10.358   8.225   8.373 -0.1323 -2.2313  2.5248
29008SOL     OW89030   8.515   5.745   5.771 -0.8555  0.1333  0.5288
29008SOL    HW189031   8.437   5.692   5.788 -0.7599 -0.5063 -0.9209
29008SOL    HW289032   8.583   5.681   5.751 -0.8293  0.7729 -1.6448
29009SOL     OW89033   5.746   9.443   3.690  0.8673  0.2220  0.3277
29009SOL    HW189034   5.742   9.383   3.765  1.0884 -0.2865 -0.0639
29009SOL    HW289035   5.811   9.404   3.631  1.1951  0.9739  0.1749
29010SOL     OW89036   5.874   8.043   6.155  0.0867 -0.0205 -0.3181
29010SOL    HW189037   5.942   7.977   6.165  1.5523  1.4747  0.1679
29010SOL    HW289038   5.922   8.123   6.130 -1.3679  1.2978  0.8774
29011SOL     OW89039   4.753  10.479   7.675  0.3660  0.3381 -0.6398
29011SOL    HW189040   4.665  10.516   7.676  0.0144 -0.3067  2.4759
29011SOL    HW289041   4.750  10.409   7.610 -1.3330  0.4703 -0.7358
29012SOL     OW89042   9.572   8.546   3.526 -0.1949 -0.2247  0.3026
29012SOL    HW189043   9.550   8.636   3.552  0.3263 -0.1493  0.4924
29012SOL    HW289044   9.489   8.498   3.534 -0.8965  0.5937 -1.4512
29013SOL     OW89045  10.354  11.033   6.927 -0.6418  0.0588 -0.0898
29013SOL    HW189046  10.336  10.955   6.873  0.2753  0.1873 -0.5978
29013SOL    HW289047  10.402  11.092   6.869 -0.7422  0.7376  0.4986
29014SOL     OW89048   4.688   7.493   0.347  0.5096 -0.1971  0.2277
29014SOL    HW189049   4.665   7.413   0.392  0.4214 -1.6631 -2.2413
29014SOL    HW289050   4.659   7.563   0.406 -1.9992 -1.9434  1.2600
29015SOL     OW89051   0.624   9.652   1.062 -0.1291 -0.2627  0.5328
29015SOL    HW189052   0.655   9.574   1.108 -1.3190 -0.6941  0.6384
29015SOL    HW289053   0.549   9.682   1.114  1.3939  2.0692  1.5957
29016SOL     OW89054   2.535   5.801   9.306  0.1886 -0.1721  0.0213
29016SOL    HW189055   2.556   5.843   9.223  0.9809 -0.4038  0.0953
29016SOL    HW289056   2.618   5.764   9.336 -0.1792 -0.4676  0.7025
29017SOL     OW89057   1.775   9.835   0.383  0.4939 -0.9783 -0.0581
29017SOL    HW189058   1.857   9.877   0.408 -1.5685  4.7175 -1.3034
29017SOL    HW289059   1.725   9.828   0.464  0.9788 -1.2272  0.2174
29018SOL     OW89060   5.424   9.378   0.451  0.7916 -0.4820  0.5453
29018SOL    HW189061   5.510   9.372   0.493  0.5085 -1.0901  1.0580
29018SOL    HW289062   5.361   9.378   0.523  0.3403 -0.4736  0.1608
29019SOL     OW89063   1.233   1.131   9.532 -0.3176  0.8298 -0.0760
29019SOL    HW189064   1.314   1.169   9.564 -0.8131  0.6410  1.4627
29019SOL    HW289065   1.260   1.072   9.462  0.8882  0.6907  0.4874
29020SOL     OW89066   1.589   1.853   2.658  0.0022 -0.6638  0.0030
29020SOL    HW189067   1.551   1.776   2.700  1.9023 -1.7483 -0.1357
29020SOL    HW289068   1.661   1.818   2.605 -0.8264  0.9038 -2.3587
29021SOL     OW89069   5.165   6.521   1.486  0.4355  0.2204 -0.2968
29021SOL    HW189070   5.201   6.442   1.446  0.5333 -0.1119  0.4208
29021SOL    HW289071   5.071   6.503   1.494  0.7739 -0.8750  2.0943
29022SOL     OW89072   7.586   9.376  11.097  0.1819  0.8039 -0.3791
29022SOL    HW189073   7.544   9.358  11.181  2.7271 -0.8687  0.6230
29022SOL    HW289074   7.546   9.314  11.036 -1.2002  1.5875 -0.3378
29023SOL     OW89075   9.477   0.891   3.051 -0.5305  0.4621 -0.7309
29023SOL    HW189076   9.402   0.933   3.094 -0.2627  1.1536 -0.9234
29023SOL    HW289077   9.473   0.800   3.079  0.2435  1.0773  1.6231
29024SOL     OW89078   3.835   2.186   1.699  0.0076  0.4502  1.0176
29024SOL    HW189079   3.821   2.257   1.636 -0.2576 -1.1230 -0.8079
29024SOL    HW289080   3.925   2.198   1.728  0.4177  0.7924 -0.2893
29025SOL     OW89081  10.841   5.243   6.574 -0.2155 -0.4297  0.2105
29025SOL    HW189082  10.860   5.291   6.493  1.2185  0.6780  1.1535
29025SOL    HW289083  10.790   5.304   6.627  0.2945 -0.5000  0.8004
29026SOL     OW89084   6.945   9.540   1.169 -0.9882 -0.1303 -0.7089
29026SOL    HW189085   6.996   9.611   1.208 -2.1026 -0.4625  1.4849
29026SOL    HW289086   6.956   9.466   1.228 -2.6854 -0.7051 -1.0473
29027SOL     OW89087   8.588   3.734   9.838  0.7277  0.0710  0.1525
29027SOL    HW189088   8.610   3.794   9.909  2.7701 -0.9396  0.4416
29027SOL    HW289089   8.494   3.748   9.823  0.1560  0.1372  3.1961
29028SOL     OW89090   4.154   3.946   0.331  0.3216 -0.0614  0.0487
29028SOL    HW189091   4.110   3.920   0.411  0.7228 -1.0274 -0.0279
29028SOL    HW289092   4.171   3.864   0.285  2.1240  0.2718  0.0476
29029SOL     OW89093   9.111   7.139   3.801  0.2234  0.1620 -0.0677
29029SOL    HW189094   9.019   7.135   3.828  0.1317 -0.6068 -0.4831
29029SOL    HW289095   9.155   7.183   3.874 -0.5208  0.8246 -0.0016
29030SOL     OW89096  10.550   0.789   2.829  0.4518  0.3108  0.2358
29030SOL    HW189097  10.618   0.806   2.894  0.2041 -1.6560  1.0857
29030SOL    HW289098  10.494   0.723   2.870  1.2825 -2.3876 -2.5600
29031SOL     OW89099   3.156   6.471   5.428  0.0682  0.4431 -0.2593
29031SOL    HW189100   3.184   6.547   5.479  0.3019 -1.8168  3.3905
29031SOL    HW289101   3.234   6.443   5.381  0.8700  0.7245  0.8573
29032SOL     OW89102   0.617   1.489   7.986  0.8108 -0.1471 -0.4888
29032SOL    HW189103   0.639   1.486   8.079  0.3913  0.6257 -0.3504
29032SOL    HW289104   0.531   1.446   7.981 -1.1641  3.3011  0.1731
29033SOL     OW89105   5.988   7.740   2.499  0.4867  0.2673 -0.5423
29033SOL    HW189106   6.017   7.656   2.536 -1.3343  0.1315  0.6527
29033SOL    HW289107   5.908   7.718   2.451 -0.4550  1.4299  0.4496
29034SOL     OW89108   7.887   3.734   7.361 -0.8606  0.1967 -0.2492
29034SOL    HW189109   7.827   3.665   7.388 -1.3450 -0.2586 -2.3035
29034SOL    HW289110   7.853   3.814   7.401 -0.6760 -0.6096  1.6008
29035SOL     OW89111   6.223   7.958   3.301 -0.4373 -0.6982  0.3261
29035SOL    HW189112   6.238   7.999   3.386  0.8489  0.6010 -0.4875
29035SOL    HW289113   6.128   7.953   3.293 -0.6170  1.0637  0.9758
29036SOL     OW89114   2.416   5.720   9.713  0.1105 -0.5247  0.1996
29036SOL    HW189115   2.373   5.803   9.729  0.3090 -0.4849  0.5297
29036SOL    HW289116   2.348   5.654   9.729 -0.3386 -0.3928 -1.0561
29037SOL     OW89117   5.790   5.489   3.498  0.2530  0.0966 -0.5497
29037SOL    HW189118   5.764   5.575   3.466  0.7263 -0.3069 -2.0974
29037SOL    HW289119   5.848   5.454   3.430  1.3602 -0.7922  0.7929
29038SOL     OW89120   7.656   7.134   6.346 -0.3309  0.2843 -0.1740
29038SOL    HW189121   7.597   7.149   6.420  0.8819  1.9630  0.5018
29038SOL    HW289122   7.691   7.046   6.361  0.4439  0.8548  1.6875
29039SOL     OW89123   1.741   3.502   8.578  0.6174 -0.1463  0.1451
29039SOL    HW189124   1.651   3.477   8.557 -0.5152  1.6481  2.3992
29039SOL    HW289125   1.772   3.550   8.501  0.0395 -1.6089 -1.0418
29040SOL     OW89126  10.100   0.988   5.681  0.3246 -0.5258  0.3580
29040SOL    HW189127  10.144   0.918   5.728  0.0419  0.3105  1.9436
29040SOL    HW289128  10.092   0.956   5.591  0.1358 -2.5357  1.0475
29041SOL     OW89129   7.335   3.032   4.065  0.1482  0.5093  0.2458
29041SOL    HW189130   7.415   2.984   4.046 -0.0404  0.0294  0.6477
29041SOL    HW289131   7.365   3.121   4.085  0.5777  0.3473  0.3409
29042SOL     OW89132   7.498   3.786   5.327  0.2486  0.2554  0.1697
29042SOL    HW189133   7.486   3.814   5.417 -1.0516  0.5085 -0.0646
29042SOL    HW289134   7.517   3.867   5.278  3.2365 -0.1016  0.5041
29043SOL     OW89135   2.397   8.015   3.519  0.4184 -0.0937 -0.0888
29043SOL    HW189136   2.460   8.041   3.586  1.8937  1.0576 -1.8440
29043SOL    HW289137   2.346   7.946   3.560  0.0272  1.7895  2.8608
29044SOL     OW89138   7.050  10.226   2.744  0.6064  0.1466  0.0985
29044SOL    HW189139   7.129  10.246   2.694  0.2121  2.3058  0.2503
29044SOL    HW289140   6.980  10.273   2.699 -1.0894 -3.2868 -1.2095
29045SOL     OW89141   6.192   3.918   1.877  1.4851 -0.8700  0.2451
29045SOL    HW189142   6.273   3.903   1.829  0.7991 -1.0383 -0.9014
29045SOL    HW289143   6.129   3.858   1.837  0.3206  0.5423 -0.1512
29046SOL     OW89144  10.014   3.262  10.218 -0.0580  0.0545  0.2542
29046SOL    HW189145   9.987   3.192  10.277 -0.2015  2.1017  2.7548
29046SOL    HW289146  10.109   3.253  10.212 -0.1148 -0.5794  0.1901
29047SOL     OW89147   0.141   9.751   7.374  0.1566 -0.5267 -0.3238
29047SOL    HW189148   0.102   9.664   7.383  1.2663 -1.1952 -1.7272
29047SOL    HW289149   0.107   9.784   7.291  2.2087 -0.9704 -1.4005
29048SOL     OW89150   5.638   6.740   9.348 -0.0801  1.0774 -0.1332
29048SOL    HW189151   5.559   6.743   9.294  0.3385  0.6610 -0.7941
29048SOL    HW289152   5.675   6.827   9.341 -0.1485  1.0915 -0.3428
29049SOL     OW89153   6.240   6.537   2.885 -0.5448 -0.2073 -0.8033
29049SOL    HW189154   6.292   6.528   2.805  1.0691  1.1923  0.0275
29049SOL    HW289155   6.300   6.511   2.955 -0.5761  2.2972  0.2678
29050SOL     OW89156   0.282   1.879   8.499  0.6838  0.2195  0.8849
29050SOL    HW189157   0.225   1.864   8.574 -0.6358 -0.8905 -0.2869
29050SOL    HW289158   0.259   1.966   8.467  0.3743  0.1870  1.0232
29051SOL     OW89159   3.523   1.442   2.320 -0.1663  0.1159  0.5632
29051SOL    HW189160   3.534   1.385   2.243  0.9076 -1.0166  1.5110
29051SOL    HW289161   3.533   1.383   2.395  0.6569  1.5012  1.5865
29052SOL     OW89162   6.423   4.887   4.687 -0.0964 -0.0715  0.2734
29052SOL    HW189163   6.362   4.821   4.719 -0.1202  0.7465  2.0634
29052SOL    HW289164   6.403   4.896   4.594 -1.8515 -0.7188  0.5506
29053SOL     OW89165   1.280   5.831   8.601 -0.7578 -0.2905 -0.4484
29053SOL    HW189166   1.358   5.874   8.566 -0.0026 -0.4667  0.9628
29053SOL    HW289167   1.311   5.781   8.677 -1.9892 -1.6115 -0.7749
29054SOL     OW89168   2.134   2.827   5.697 -0.2781 -0.8476 -0.7469
29054SOL    HW189169   2.182   2.758   5.742  1.2900  0.0292 -0.9998
29054SOL    HW289170   2.047   2.827   5.739  0.5980 -1.0994  1.2029
29055SOL     OW89171   1.541   0.591   3.040  0.1218  0.1720 -0.1650
29055SOL    HW189172   1.563   0.629   3.125 -1.0481  3.4037 -1.1845
29055SOL    HW289173   1.625   0.560   3.006  0.9594  0.7639  1.2725
29056SOL     OW89174   0.622   7.414   9.728 -0.6553 -0.5497 -0.7258
29056SOL    HW189175   0.612   7.498   9.684  1.6795 -0.6659 -1.6188
29056SOL    HW289176   0.538   7.399   9.772 -0.7862  2.7230  0.3726
29057SOL     OW89177   2.581   4.523   4.080  0.2158  0.2996 -0.0572
29057SOL    HW189178   2.651   4.516   4.146  0.5349  1.2865 -0.2696
29057SOL    HW289179   2.605   4.600   4.028 -0.0191 -0.4791 -1.3593
29058SOL     OW89180   6.761   4.431  10.343  0.5304  0.3976  0.7277
29058SOL    HW189181   6.841   4.414  10.294 -0.3940  2.5591 -1.8053
29058SOL    HW289182   6.713   4.348  10.342  1.8996 -0.4135  0.6946
29059SOL     OW89183   4.024  10.486   4.539 -0.1028 -0.1810 -0.5614
29059SOL    HW189184   3.968  10.474   4.615 -0.0961  1.4621 -0.2580
29059SOL    HW289185   4.104  10.437   4.560 -0.1449  0.1576  0.4475
29060SOL     OW89186   2.709   5.827   5.672  0.3507 -0.3903  0.0665
29060SOL    HW189187   2.747   5.793   5.590 -0.0314  0.7154 -0.5973
29060SOL    HW289188   2.766   5.901   5.695 -1.5986  1.6229 -1.2209
29061SOL     OW89189   9.993   9.595   0.608 -0.6102 -0.5753  0.3846
29061SOL    HW189190   9.920   9.543   0.572  0.9729 -2.8236  0.1948
29061SOL    HW289191  10.025   9.645   0.534 -0.8546 -0.9392  0.0230
29062SOL     OW89192   9.029   3.882   0.825  0.1709  0.1051 -0.3888
29062SOL    HW189193   9.020   3.808   0.885 -0.6048  0.6818  0.2244
29062SOL    HW289194   9.007   3.958   0.877  0.0821  0.6878 -1.2526
29063SOL     OW89195   1.939   2.604  10.539  0.1324  0.0233 -0.2757
29063SOL    HW189196   1.899   2.588  10.624 -0.4137  0.2750 -0.4807
29063SOL    HW289197   2.029   2.574  10.549 -0.6262 -2.5853 -0.4378
29064SOL     OW89198   3.687   1.927   1.185 -0.2245  0.4788  0.7296
29064SOL    HW189199   3.754   1.909   1.251 -0.2933 -1.0310  0.4446
29064SOL    HW289200   3.607   1.888   1.222 -0.4371  0.3272  0.1188
29065SOL     OW89201  10.827   7.650   3.488 -0.4094  0.1176 -0.4303
29065SOL    HW189202  10.812   7.745   3.481  0.0035  0.4964  2.6352
29065SOL    HW289203  10.741   7.611   3.468 -1.4906  1.3720  1.4709
29066SOL     OW89204   6.098   5.808   5.369  0.5402  0.3734 -0.3126
29066SOL    HW189205   6.080   5.724   5.413  0.6311 -0.9127 -2.5662
29066SOL    HW289206   6.183   5.836   5.405  1.8022 -1.8615 -1.3114
29067SOL     OW89207   2.620   8.006  10.912 -0.2736  0.9676  0.2811
29067SOL    HW189208   2.695   7.950  10.891  1.2862  2.8712  0.3873
29067SOL    HW289209   2.594   8.043  10.828 -0.2403  1.2848  0.4078
29068SOL     OW89210   1.358   9.600   8.548  0.0496  0.5101 -0.3220
29068SOL    HW189211   1.291   9.539   8.580 -0.2605  1.3078  0.6082
29068SOL    HW289212   1.424   9.601   8.617  0.1181  1.1014 -0.3926
29069SOL     OW89213   7.247   4.454  10.259 -0.3816 -0.2397 -0.6829
29069SOL    HW189214   7.198   4.408  10.327 -0.7454 -0.4980 -1.1100
29069SOL    HW289215   7.181   4.478  10.194 -0.0103 -0.1683 -1.0377
29070SOL     OW89216  10.089   0.597   9.068  0.2932 -0.3170  0.0255
29070SOL    HW189217  10.124   0.666   9.012  2.3301 -0.6895  0.7376
29070SOL    HW289218  10.101   0.516   9.018 -0.9848 -0.3060 -0.3271
29071SOL     OW89219   2.603   6.500   0.983  0.3369 -0.3467 -0.2131
29071SOL    HW189220   2.523   6.479   1.031 -2.5534  0.7429 -3.9969
29071SOL    HW289221   2.622   6.421   0.933  0.2489  0.0840 -0.9511
29072SOL     OW89222   5.066   8.233   9.006  0.2037  0.4603  0.2368
29072SOL    HW189223   5.006   8.200   9.073  0.8324  0.7841  0.9784
29072SOL    HW289224   5.067   8.328   9.020  0.2286  0.5456 -0.3332
29073SOL     OW89225  10.310   3.238   3.010 -0.2106  0.2166 -0.6455
29073SOL    HW189226  10.325   3.145   2.995  0.4763  0.4368 -1.3553
29073SOL    HW289227  10.333   3.252   3.102 -1.7143 -0.5828 -0.1038
29074SOL     OW89228   1.267   4.738   6.238  0.5374  1.3579  0.2038
29074SOL    HW189229   1.270   4.805   6.169 -1.1167  1.9096  0.6213
29074SOL    HW289230   1.300   4.783   6.316 -0.2518  1.6276  0.4024
29075SOL     OW89231   8.983   9.140   9.788 -0.2669 -0.3066  0.3074
29075SOL    HW189232   8.966   9.073   9.855 -0.7182  0.3882  0.9071
29075SOL    HW289233   9.065   9.181   9.815 -0.5614  0.1214  0.5670
29076SOL     OW89234   2.267   0.943  10.860  0.1013  0.1509  0.0160
29076SOL    HW189235   2.334   0.972  10.921  1.1985  0.0888 -1.1155
29076SOL    HW289236   2.255   1.017  10.800 -0.5441  0.0081 -0.0414
29077SOL     OW89237   0.010   4.865   3.685  0.6483 -0.1132  0.4615
29077SOL    HW189238   0.008   4.873   3.589  1.6533  1.4635  0.5345
29077SOL    HW289239   0.075   4.797   3.702  1.1680  0.2653  0.0350
29078SOL     OW89240   6.620   3.991  10.120 -0.1795  0.4361  0.1827
29078SOL    HW189241   6.590   3.908  10.083  3.5720 -0.6612 -0.8569
29078SOL    HW289242   6.578   4.058  10.067 -1.9955 -0.7968 -0.0257
29079SOL     OW89243   8.645   2.661   3.952  0.3731  0.0920 -0.4535
29079SOL    HW189244   8.593   2.595   3.907  1.9384 -1.2055 -0.4600
29079SOL    HW289245   8.631   2.741   3.901 -1.0845 -0.3484 -0.8042
29080SOL     OW89246   6.483   2.519   4.038  0.2156  0.1217  0.1352
29080SOL    HW189247   6.394   2.517   4.073  0.6206  2.1019  1.4762
29080SOL    HW289248   6.517   2.605   4.065  2.4861 -0.5248 -0.4571
29081SOL     OW89249   8.820   2.767   4.469  0.3056  0.3491  0.4761
29081SOL    HW189250   8.890   2.738   4.411 -0.4806  0.0486 -0.3469
29081SOL    HW289251   8.740   2.749   4.420 -0.3039  1.6331  0.9777
29082SOL     OW89252   2.214   5.667   5.081 -0.2606 -0.3706  0.0124
29082SOL    HW189253   2.252   5.671   4.993  0.4903 -0.7748  0.3135
29082SOL    HW289254   2.152   5.740   5.083  0.6389  0.4283 -0.4268
29083SOL     OW89255   9.837   4.595   6.935  0.5607 -0.9029  0.3852
29083SOL    HW189256   9.884   4.659   6.883 -0.4924 -1.5557 -1.4596
29083SOL    HW289257   9.744   4.613   6.918  0.1117 -0.5359  2.8102
29084SOL     OW89258   9.529   3.095   8.252 -0.5710  0.3262 -0.0673
29084SOL    HW189259   9.443   3.137   8.242  0.0245  1.9911  1.3406
29084SOL    HW289260   9.590   3.153   8.207 -0.1505 -0.8469 -1.0506
29085SOL     OW89261   5.607   9.140   4.279  0.1860 -1.0417 -0.0350
29085SOL    HW189262   5.515   9.130   4.255 -0.0796 -0.3788  0.6533
29085SOL    HW289263   5.605   9.160   4.373  0.9958 -0.4968 -0.1252
29086SOL     OW89264   0.349   3.520   5.768 -0.7851 -0.2787 -0.2595
29086SOL    HW189265   0.287   3.541   5.698 -0.1097  3.2164  0.0058
29086SOL    HW289266   0.435   3.523   5.726 -0.5114 -0.4472  0.2736
29087SOL     OW89267   0.264   1.682   0.410  0.7763  0.4927  0.5392
29087SOL    HW189268   0.344   1.704   0.459  0.7351  1.7660  0.0573
29087SOL    HW289269   0.267   1.737   0.333  0.9078 -1.5825 -1.0216
29088SOL     OW89270   9.162   4.882   6.694 -0.3455 -0.2866  0.0565
29088SOL    HW189271   9.203   4.877   6.780  1.9722  0.1852 -0.9435
29088SOL    HW289272   9.118   4.967   6.694 -0.5576 -0.3892  0.8450
29089SOL     OW89273   8.386   0.322   4.589 -0.0050  0.6583 -0.2065
29089SOL    HW189274   8.435   0.354   4.664 -2.3573 -1.4312  2.4247
29089SOL    HW289275   8.444   0.258   4.548  1.0016  1.2079  0.3074
29090SOL     OW89276   9.763   8.609   0.802  0.4366 -0.0293 -0.3816
29090SOL    HW189277   9.803   8.664   0.869  0.2457  1.3894 -1.3945
29090SOL    HW289278   9.676   8.588   0.836  0.0769  1.2487 -0.4577
29091SOL     OW89279   5.441   7.185   2.941 -0.0134 -0.2608  0.0201
29091SOL    HW189280   5.486   7.119   2.887 -0.3374 -0.9927  0.6218
29091SOL    HW289281   5.485   7.181   3.025  0.1691  0.5312 -0.0349
29092SOL     OW89282   0.903   6.214   6.869  0.0489 -0.1997  0.4593
29092SOL    HW189283   0.978   6.244   6.817  0.3768  0.0924  1.0884
29092SOL    HW289284   0.872   6.293   6.914 -1.0305 -0.1861 -0.2645
29093SOL     OW89285   4.698   0.685   3.915  0.6379  0.1833 -0.3890
29093SOL    HW189286   4.646   0.669   3.837 -1.8052  0.4717  1.0795
29093SOL    HW289287   4.762   0.613   3.916 -1.2052 -1.5467 -1.1036
29094SOL     OW89288   6.242   5.282   9.349 -0.4252  0.5632 -0.0771
29094SOL    HW189289   6.304   5.213   9.372 -2.2234 -1.2653 -0.4021
29094SOL    HW289290   6.208   5.255   9.264 -0.0093  2.7525 -0.9889
29095SOL     OW89291   6.230   3.864   2.963  0.0734 -0.0652 -0.2869
29095SOL    HW189292   6.191   3.780   2.937 -0.4415  0.9966 -3.3542
29095SOL    HW289293   6.157   3.925   2.967  0.7181  0.7192 -0.2437
29096SOL     OW89294  10.087   0.182   0.063  0.9766 -0.6043  0.5151
29096SOL    HW189295  10.043   0.221  -0.012  0.6861 -0.5772  0.6970
29096SOL    HW289296  10.059   0.235   0.138 -0.0321 -1.6193  0.8810
29097SOL     OW89297   2.087   2.098   9.169  0.9929  0.6230 -0.3680
29097SOL    HW189298   2.114   2.032   9.106  1.2627 -0.1970  0.5766
29097SOL    HW289299   2.132   2.178   9.141  3.1511 -0.3204  0.2008
29098SOL     OW89300   7.879   2.316   5.340  0.2547 -0.1754  0.2244
29098SOL    HW189301   7.958   2.358   5.306  0.6526 -0.9167  0.1962
29098SOL    HW289302   7.835   2.280   5.263 -0.1865  0.3476  0.2261
29099SOL     OW89303  10.785   6.523  10.039 -0.8351 -0.2509  0.1285
29099SOL    HW189304  10.782   6.571  10.122  1.2780 -3.1803  2.0523
29099SOL    HW289305  10.696   6.489  10.028 -0.9419 -0.5359  1.6755
29100SOL     OW89306   0.008   3.167   1.172  0.1155  0.3738 -0.1929
29100SOL    HW189307   0.032   3.076   1.185 -0.8740 -0.1374 -1.7089
29100SOL    HW289308  -0.032   3.170   1.085 -2.3974  1.7370  0.9021
29101SOL     OW89309   1.288   4.138   3.915 -0.1694 -0.1326  0.1666
29101SOL    HW189310   1.270   4.232   3.910  1.1356  0.0959 -0.6095
29101SOL    HW289311   1.204   4.097   3.894 -0.6282  0.8563 -0.0095
29102SOL     OW89312   1.934   4.323   9.665 -0.4132 -0.0281  0.4198
29102SOL    HW189313   1.929   4.264   9.589  1.0596 -1.1616  1.1395
29102SOL    HW289314   2.028   4.341   9.674 -0.6815  0.9728  1.3323
29103SOL     OW89315  10.384   0.618   1.819  0.1644 -0.4906 -0.2434
29103SOL    HW189316  10.356   0.611   1.910 -1.5693  0.4031 -0.6492
29103SOL    HW289317  10.478   0.604   1.821 -0.0593 -2.1127  1.4636
29104SOL     OW89318   6.198   9.879   3.069 -0.3902 -0.2813 -0.5248
29104SOL    HW189319   6.150   9.959   3.045  1.1602  1.1627  0.9682
29104SOL    HW289320   6.222   9.892   3.161  0.3170 -2.2741 -0.3884
29105SOL     OW89321   9.051   3.271   6.646 -0.1478  0.7647 -0.0090
29105SOL    HW189322   9.054   3.355   6.693  0.4859  1.5819 -1.4482
29105SOL    HW289323   9.142   3.244   6.640 -0.4062 -0.4103  1.0581
29106SOL     OW89324   0.840   5.228   0.450 -0.2436 -0.1558 -0.0510
29106SOL    HW189325   0.931   5.205   0.469 -0.2133 -1.0377 -1.1334
29106SOL    HW289326   0.844   5.319   0.419  0.9692 -1.4115 -4.2319
29107SOL     OW89327   7.479   8.365   3.329  0.3672 -0.5103  0.2849
29107SOL    HW189328   7.566   8.330   3.313  0.0228 -0.8308 -1.0130
29107SOL    HW289329   7.453   8.404   3.245  0.3135  1.9738  1.3523
29108SOL     OW89330   1.939   6.116   2.449 -0.1283 -0.2248 -0.7974
29108SOL    HW189331   2.003   6.141   2.382 -0.8172 -0.2076 -1.4663
29108SOL    HW289332   1.946   6.184   2.516 -0.0500  0.2532 -1.2830
29109SOL     OW89333   4.594   8.964   6.337  0.0928 -0.2756 -0.0059
29109SOL    HW189334   4.650   8.933   6.266 -1.1737 -1.1871 -0.6501
29109SOL    HW289335   4.505   8.941   6.309 -0.5386  0.4128  1.3418
29110SOL     OW89336   5.151  10.089  10.853 -0.3805 -0.2422  0.6513
29110SOL    HW189337   5.201  10.021  10.897 -0.9777 -0.3858  1.1231
29110SOL    HW289338   5.088  10.042  10.798 -1.5309 -0.1155  1.7986
29111SOL     OW89339  10.174   6.517  10.417  0.1544  0.1335 -0.7326
29111SOL    HW189340  10.243   6.451  10.413 -0.4358 -0.4274 -3.1271
29111SOL    HW289341  10.177   6.561  10.332 -0.5805  2.0626  0.1853
29112SOL     OW89342  10.473   5.655   1.866 -0.4696 -0.3144 -0.4089
29112SOL    HW189343  10.406   5.685   1.928 -0.9472 -0.7407 -0.7099
29112SOL    HW289344  10.461   5.560   1.861  2.7529 -1.0815  2.5720
29113SOL     OW89345   3.355   1.508   6.832 -0.5199 -0.0895 -0.0791
29113SOL    HW189346   3.437   1.525   6.785 -0.7965 -1.7926 -1.2630
29113SOL    HW289347   3.289   1.558   6.784 -0.2428  1.1084  0.7451
29114SOL     OW89348   0.132  10.336   2.747  0.2324 -0.8794 -0.2297
29114SOL    HW189349   0.061  10.345   2.683 -0.8899 -0.5652  1.0008
29114SOL    HW289350   0.209  10.314   2.695 -0.6920 -0.8946 -1.6503
29115SOL     OW89351  11.078  10.681   0.193  0.0181  0.3544  0.1358
29115SOL    HW189352  11.055  10.699   0.284 -0.5528  0.3535 -0.0024
29115SOL    HW289353  11.165  10.641   0.197 -0.0884  0.1733  0.6960
29116SOL     OW89354   8.428   6.455   6.477 -0.4397  0.5905  0.5227
29116SOL    HW189355   8.344   6.441   6.432 -1.1235 -0.6628  2.1007
29116SOL    HW289356   8.440   6.550   6.476 -1.8003  0.7864  0.1251
29117SOL     OW89357  10.129   6.552   1.094 -0.8321  0.1018  0.1748
29117SOL    HW189358  10.087   6.482   1.143 -1.1315 -1.3886 -2.0669
29117SOL    HW289359  10.141   6.622   1.158 -1.6119 -1.5229  2.2185
29118SOL     OW89360   6.763  10.301   8.067 -0.2340 -0.0535 -0.1207
29118SOL    HW189361   6.829  10.369   8.059 -0.3393  0.0071 -0.5323
29118SOL    HW289362   6.687  10.335   8.018 -0.4596 -0.2516  0.0858
29119SOL     OW89363   4.209   1.927   6.139  0.4811  0.1327 -0.4358
29119SOL    HW189364   4.266   1.948   6.213 -0.5442  0.5140  0.2677
29119SOL    HW289365   4.121   1.951   6.169  0.1320  0.9560 -2.0257
29120SOL     OW89366  10.943   5.777  10.870 -0.5350 -0.6964 -0.5443
29120SOL    HW189367  10.864   5.735  10.836 -0.6736 -0.1702 -0.8877
29120SOL    HW289368  11.014   5.736  10.821 -0.4905 -1.9380  0.5185
29121SOL     OW89369   1.171   5.605   3.678 -0.0983  0.2544 -0.3277
29121SOL    HW189370   1.174   5.529   3.736  1.0259  1.4570  1.3101
29121SOL    HW289371   1.263   5.622   3.656 -0.1700  1.9280  0.4954
29122SOL     OW89372   7.676  10.449   0.947 -0.1990 -0.6894 -0.1601
29122SOL    HW189373   7.603  10.402   0.907 -2.4295  0.7581  1.9307
29122SOL    HW289374   7.720  10.384   1.001 -1.6627 -1.0197  0.6879
29123SOL     OW89375   6.783   3.175   5.738  0.1787  0.4958 -0.3832
29123SOL    HW189376   6.804   3.172   5.832 -0.5644  2.0111 -0.1301
29123SOL    HW289377   6.847   3.117   5.697  0.5632 -0.1468  1.0477
29124SOL     OW89378   6.189   0.372   1.727  0.4675 -0.5756 -0.0074
29124SOL    HW189379   6.115   0.323   1.764 -0.7373  0.8155 -0.4726
29124SOL    HW289380   6.230   0.415   1.803  0.6107 -1.0937  0.2126
29125SOL     OW89381   3.957   1.604   2.210 -0.2152 -0.3531 -0.0347
29125SOL    HW189382   3.942   1.516   2.245 -0.6042 -0.7237 -1.0993
29125SOL    HW289383   3.871   1.634   2.182  0.1474 -0.2636 -1.0954
29126SOL     OW89384   7.130  10.565   4.658  0.0260  0.7962  0.4870
29126SOL    HW189385   7.121  10.508   4.733 -0.0680  2.1636  1.5601
29126SOL    HW289386   7.040  10.580   4.628  0.1204 -0.5600 -0.5739
29127SOL     OW89387   4.091  10.776   9.499  0.0748 -0.2258 -0.4488
29127SOL    HW189388   4.030  10.720   9.547 -0.0033  0.9157  0.8521
29127SOL    HW289389   4.156  10.802   9.564  0.7025  0.3519 -1.2784
29128SOL     OW89390  10.128   9.608   1.513  0.3505  0.3772  0.4586
29128SOL    HW189391  10.094   9.666   1.445  2.0900 -0.3623 -1.1576
29128SOL    HW289392  10.050   9.571   1.555 -0.7766  1.5696 -0.5123
29129SOL     OW89393  10.343   9.358   3.698  0.5968  0.1801  0.5777
29129SOL    HW189394  10.264   9.384   3.746  1.5104 -1.1315  2.9876
29129SOL    HW289395  10.385   9.293   3.755  1.7053 -1.6807 -2.1342
29130SOL     OW89396   2.076   6.720   5.428  0.3982  0.4539  0.0232
29130SOL    HW189397   2.156   6.760   5.394  0.8278  0.7653  1.3185
29130SOL    HW289398   2.023   6.793   5.459 -0.2174  0.2195 -0.4529
29131SOL     OW89399   7.143   2.314   0.377  0.4155  0.0425 -0.1453
29131SOL    HW189400   7.056   2.274   0.383  1.2197 -1.5967  2.1078
29131SOL    HW289401   7.194   2.270   0.445  2.8396  1.4309 -0.9440
29132SOL     OW89402   1.331   3.629   9.052 -0.4332 -0.0638  0.3853
29132SOL    HW189403   1.345   3.590   9.138 -2.3438  1.8052  1.6365
29132SOL    HW289404   1.418   3.630   9.012  0.5675 -0.6869  2.4013
29133SOL     OW89405   1.557  10.155   1.988  0.0604 -1.1073 -0.3620
29133SOL    HW189406   1.497  10.080   1.990 -1.5356  0.1135  0.1434
29133SOL    HW289407   1.500  10.230   1.967  0.9079  0.5144  2.5657
29134SOL     OW89408   3.173   0.257   3.727 -0.1679  0.0566  1.0636
29134SOL    HW189409   3.213   0.226   3.646  0.0787  0.7211  0.9244
29134SOL    HW289410   3.186   0.352   3.726 -0.3042  0.0921  1.8040
29135SOL     OW89411   2.508   1.020   6.074 -0.1186 -0.2160 -0.1406
29135SOL    HW189412   2.432   0.987   6.027 -0.1740  0.5994 -0.6293
29135SOL    HW289413   2.521   1.109   6.042 -1.5819  1.3049  3.0395
29136SOL     OW89414  10.026   5.085   8.384  0.3551  0.0090  0.4442
29136SOL    HW189415   9.991   5.160   8.336  1.3670  0.0813 -0.2115
29136SOL    HW289416   9.998   5.101   8.475 -1.7270 -0.2292 -0.1033
29137SOL     OW89417   1.564   1.237   7.955 -0.7231 -0.3316  0.0515
29137SOL    HW189418   1.565   1.280   8.041  2.3133 -1.2115  0.5727
29137SOL    HW289419   1.643   1.270   7.911 -0.4766 -2.3012 -1.0995
29138SOL     OW89420   2.743   3.752  10.205 -0.1255  1.0446 -0.5207
29138SOL    HW189421   2.792   3.741  10.123 -0.0825  0.3115 -0.4066
29138SOL    HW289422   2.652   3.754  10.178 -0.2729 -1.4216 -0.4384
29139SOL     OW89423   4.557   7.992   9.191 -0.2289  0.3619 -0.1072
29139SOL    HW189424   4.475   8.042   9.181 -0.2352  0.1422 -1.3308
29139SOL    HW289425   4.546   7.916   9.134  1.1868  0.7922 -0.9979
29140SOL     OW89426   3.037   9.651   0.817 -0.3814 -0.1727 -0.0645
29140SOL    HW189427   3.017   9.636   0.909  1.6111 -0.9603  0.3036
29140SOL    HW289428   3.049   9.746   0.811 -2.3714  0.1096  0.0397
29141SOL     OW89429   9.695   1.463   7.029  0.2709  0.4126 -0.4796
29141SOL    HW189430   9.712   1.499   6.942 -0.8141 -0.2280 -0.9862
29141SOL    HW289431   9.705   1.368   7.018 -0.0662  0.3076  0.0392
29142SOL     OW89432   9.426   0.210  10.593 -0.9171  0.3601 -0.9408
29142SOL    HW189433   9.388   0.208  10.506  0.4404 -2.2912 -1.5785
29142SOL    HW289434   9.487   0.284  10.591 -2.1382  1.3770 -1.6298
29143SOL     OW89435   6.414   4.738  11.040  0.5361 -0.7706  0.0455
29143SOL    HW189436   6.346   4.718  11.105  0.1360 -2.8136 -0.9308
29143SOL    HW289437   6.385   4.821  11.001 -0.8097 -1.0339  0.4147
29144SOL     OW89438   8.571   1.617   7.321  0.3985  0.3914  0.0076
29144SOL    HW189439   8.515   1.695   7.316  0.5616  0.4638 -0.8116
29144SOL    HW289440   8.653   1.644   7.281  1.0622  0.2996  1.2509
29145SOL     OW89441   0.533   7.188   6.692  0.1371  0.2259 -0.7166
29145SOL    HW189442   0.529   7.242   6.771  1.2494 -0.9451  0.1875
29145SOL    HW289443   0.442   7.163   6.676  0.0624 -1.0817  1.3644
29146SOL     OW89444   9.032   6.426   0.784 -0.1953 -0.3006 -0.3135
29146SOL    HW189445   9.121   6.392   0.779 -0.2746 -0.5009 -0.3691
29146SOL    HW289446   8.985   6.363   0.838 -0.0263  0.4124  0.6911
29147SOL     OW89447   1.866   6.854   9.511 -0.4221  0.4934 -0.2867
29147SOL    HW189448   1.846   6.932   9.459  1.1968  1.0761 -0.0951
29147SOL    HW289449   1.900   6.889   9.593 -1.2232 -0.4368  0.4612
29148SOL     OW89450   7.071   9.595   3.230  0.5721  0.4454  0.2362
29148SOL    HW189451   7.089   9.616   3.138  0.0351 -1.8194 -0.4434
29148SOL    HW289452   7.051   9.501   3.230 -1.2128  0.7411  2.4016
29149SOL     OW89453   8.121   2.978   8.725  0.5283  1.0429  0.3901
29149SOL    HW189454   8.177   2.999   8.650  0.0533  1.3220  0.1016
29149SOL    HW289455   8.046   2.933   8.686  0.7229  0.3475  0.8137
29150SOL     OW89456   3.566   1.242   4.127 -0.0178 -0.9392  0.1899
29150SOL    HW189457   3.619   1.313   4.091  1.4868 -1.7325  0.7784
29150SOL    HW289458   3.561   1.261   4.221 -0.5470 -1.0352  0.1871
29151SOL     OW89459  10.638   4.062   9.743  0.1861 -0.4258  0.1777
29151SOL    HW189460  10.570   4.025   9.687 -0.6563  1.0238  0.1998
29151SOL    HW289461  10.597   4.073   9.828  0.9828 -1.1210  0.6724
29152SOL     OW89462   2.298   6.050   3.366 -0.2665  0.0187 -0.0752
29152SOL    HW189463   2.268   6.073   3.278  0.5483  0.4417 -0.2570
29152SOL    HW289464   2.263   5.962   3.382 -0.4087 -0.0647 -0.8271
29153SOL     OW89465   7.839   7.039   6.137  0.1995 -0.4400 -0.4510
29153SOL    HW189466   7.863   6.969   6.197  1.7685  0.0699 -0.4515
29153SOL    HW289467   7.857   7.003   6.050 -0.2972 -0.5048 -0.5337
29154SOL     OW89468   8.915   9.887   3.589  0.3680  0.2776  0.1001
29154SOL    HW189469   8.940   9.810   3.538  1.1130  0.6723 -0.1509
29154SOL    HW289470   8.864   9.853   3.662  0.8882 -0.4822  0.1163
29155SOL     OW89471   0.383  10.746   1.885  0.4141  0.0304  0.6116
29155SOL    HW189472   0.329  10.789   1.819 -0.7380 -0.1976  1.3761
29155SOL    HW289473   0.471  10.782   1.871 -0.0722  0.9643 -0.1888
29156SOL     OW89474   5.422   5.597   2.844 -0.2494  0.5680 -0.6245
29156SOL    HW189475   5.422   5.559   2.932 -1.9671 -0.2570 -0.9348
29156SOL    HW289476   5.434   5.691   2.858  0.9747  0.2800  0.3745
29157SOL     OW89477   8.794   1.392   1.250 -0.6764  0.1406 -0.1678
29157SOL    HW189478   8.799   1.488   1.242  0.8345  0.0888 -0.0654
29157SOL    HW289479   8.782   1.361   1.161 -2.8576  0.4694 -0.0505
29158SOL     OW89480   9.828   5.126   5.159  0.1673  0.3620 -0.4122
29158SOL    HW189481   9.869   5.154   5.241 -0.4118 -0.2107  0.0805
29158SOL    HW289482   9.836   5.031   5.159 -0.7193  0.2770 -0.5361
29159SOL     OW89483   6.258   1.516   9.262 -0.2078 -0.2745 -0.1426
29159SOL    HW189484   6.323   1.499   9.331 -1.0615  1.9575  1.3309
29159SOL    HW289485   6.234   1.608   9.275 -2.8801 -0.7374 -1.3180
29160SOL     OW89486   9.185   7.099   0.028  0.4371 -0.3676 -0.7169
29160SOL    HW189487   9.119   7.137  -0.031 -0.0962 -0.0262  0.0779
29160SOL    HW289488   9.186   7.158   0.103 -0.7422 -2.1107  0.7633
29161SOL     OW89489  10.815   0.265   4.206  0.1552  0.2950 -0.1930
29161SOL    HW189490  10.780   0.211   4.277  1.4787 -0.6410 -0.2411
29161SOL    HW289491  10.878   0.323   4.249  0.3153  0.3331 -0.4797
29162SOL     OW89492   5.204   6.957   5.970  0.1475 -0.0367 -0.1972
29162SOL    HW189493   5.191   7.032   6.028 -1.1914  0.7543 -1.4388
29162SOL    HW289494   5.134   6.897   5.994 -1.2222  0.8470 -1.7586
29163SOL     OW89495   3.417   4.060   1.969  0.1072 -0.0689 -0.7623
29163SOL    HW189496   3.427   4.003   1.893 -0.7441 -0.9818 -0.2019
29163SOL    HW289497   3.496   4.046   2.021  0.2190 -0.2017 -0.9679
29164SOL     OW89498   3.973   2.330   2.902 -0.0542 -0.0791  0.3176
29164SOL    HW189499   4.029   2.300   2.830 -2.0212 -0.1209 -1.2619
29164SOL    HW289500   3.889   2.287   2.886 -0.3691 -0.6365  3.0564
29165SOL     OW89501   3.123   2.152   9.755  0.6043  0.1121  0.2852
29165SOL    HW189502   3.180   2.181   9.827  0.5967 -0.9014  0.7213
29165SOL    HW289503   3.054   2.100   9.799  1.7613 -2.3320 -0.5954
29166SOL     OW89504   5.689   9.691   0.848  0.2341 -0.6920  0.5627
29166SOL    HW189505   5.729   9.728   0.927  0.8828 -0.1122 -0.0183
29166SOL    HW289506   5.754   9.705   0.780  1.4205 -4.7344  0.6439
29167SOL     OW89507   7.835   0.378   5.169 -0.6791  0.5717 -0.4276
29167SOL    HW189508   7.892   0.355   5.095  0.4748  1.3811  0.1839
29167SOL    HW289509   7.751   0.400   5.128 -0.6203 -0.7555 -1.3394
29168SOL     OW89510   6.057   0.875   5.486 -0.2043 -0.1204  0.3024
29168SOL    HW189511   6.076   0.967   5.505  0.6359  0.3450 -2.4110
29168SOL    HW289512   6.142   0.834   5.478 -0.5516 -0.8063  0.0666
29169SOL     OW89513   9.681   2.952   5.232  0.4784  1.1698 -0.0399
29169SOL    HW189514   9.601   2.907   5.206  0.3062  2.2275 -1.4449
29169SOL    HW289515   9.652   3.039   5.261  1.1475  1.7884 -1.1539
29170SOL     OW89516  10.420   0.844   0.772  0.0431  0.1623  0.0703
29170SOL    HW189517  10.450   0.935   0.780  2.8159 -0.6265 -0.5922
29170SOL    HW289518  10.411   0.814   0.863  1.1425  0.4799  0.2935
29171SOL     OW89519   8.344  10.563   8.758  0.2865 -0.0776 -0.8621
29171SOL    HW189520   8.337  10.641   8.813  2.9382 -0.9433  0.8728
29171SOL    HW289521   8.437  10.542   8.757 -0.2828 -3.0006 -1.5615
29172SOL     OW89522   5.809   3.877   6.450  0.2149  0.1185  0.1233
29172SOL    HW189523   5.742   3.851   6.514 -0.3842  1.9641  0.3069
29172SOL    HW289524   5.813   3.804   6.389  0.8821 -1.7829  2.2818
29173SOL     OW89525   0.115   6.196   1.470  0.0786  0.1991 -0.2236
29173SOL    HW189526   0.207   6.182   1.446 -0.1648 -1.0368 -0.4498
29173SOL    HW289527   0.096   6.128   1.534 -1.4074 -1.1773 -2.0406
29174SOL     OW89528   9.938   2.150   8.663 -0.1025 -0.1798 -0.0164
29174SOL    HW189529   9.933   2.089   8.737  2.1333 -3.8583 -2.5732
29174SOL    HW289530  10.031   2.163   8.648 -0.5021  1.0966 -1.7788
29175SOL     OW89531   4.837   9.631   4.108  0.0561 -0.8458  0.3352
29175SOL    HW189532   4.775   9.573   4.153  1.3666 -2.5983 -0.0255
29175SOL    HW289533   4.919   9.618   4.154  0.4495  0.5910  0.0868
29176SOL     OW89534   8.195   4.328   8.468  0.4068  0.2668 -0.0387
29176SOL    HW189535   8.222   4.265   8.401 -1.6528 -2.8661  1.8142
29176SOL    HW289536   8.224   4.289   8.550  2.4658  3.7752  1.0860
29177SOL     OW89537   0.526   9.931   0.799  0.0666 -0.3221 -0.0257
29177SOL    HW189538   0.535   9.931   0.704  2.0448  0.5123  0.1105
29177SOL    HW289539   0.543   9.841   0.825  1.7389 -0.1400 -0.3509
29178SOL     OW89540   3.648   7.162   4.591 -0.3802  0.0750  0.0247
29178SOL    HW189541   3.635   7.236   4.530 -1.2984 -0.2950 -0.2471
29178SOL    HW289542   3.638   7.084   4.536 -0.9003 -0.2600  0.5901
29179SOL     OW89543   9.611   0.871   5.938 -0.2068  0.0908 -0.4949
29179SOL    HW189544   9.534   0.823   5.905  0.1422 -1.3272  0.6579
29179SOL    HW289545   9.575   0.935   5.999 -0.4367 -1.5759  1.2152
29180SOL     OW89546   3.286   0.643  10.551  0.2901  0.4005  0.2804
29180SOL    HW189547   3.309   0.723  10.598  1.2059  0.3811 -0.1190
29180SOL    HW289548   3.300   0.665  10.458 -0.9220  0.2548  0.0414
29181SOL     OW89549   1.930   8.597   8.334  0.9160  0.1794 -0.0406
29181SOL    HW189550   1.946   8.675   8.281 -1.4531 -0.8236 -2.4328
29181SOL    HW289551   1.858   8.622   8.393  0.6938  0.0464 -0.2542
29182SOL     OW89552   2.891   3.493   5.577 -0.4122  0.4326 -0.7482
29182SOL    HW189553   2.929   3.556   5.638 -0.8224 -0.3214  0.3113
29182SOL    HW289554   2.967   3.446   5.542 -0.1484  1.1209 -1.1274
29183SOL     OW89555   9.826   2.971   9.015 -0.5569  0.7617 -0.0298
29183SOL    HW189556   9.829   2.996   9.107 -1.6028  2.6840 -0.4520
29183SOL    HW289557   9.917   2.975   8.986  0.0539 -1.7416  1.3087
29184SOL     OW89558   6.053   4.655   6.317 -0.0838  0.1414  0.0523
29184SOL    HW189559   6.129   4.713   6.311 -0.2674  0.2589 -1.2455
29184SOL    HW289560   6.045   4.636   6.411  0.1364  1.9912  0.4722
29185SOL     OW89561   7.015   8.846   6.180  0.7630 -0.2314  0.4442
29185SOL    HW189562   7.037   8.754   6.170  0.1386 -0.1741 -2.0261
29185SOL    HW289563   7.087   8.882   6.233  0.9923 -2.0958  1.4693
29186SOL     OW89564   4.396   9.901   8.271  0.1980  0.0023  0.7176
29186SOL    HW189565   4.342   9.975   8.244  0.7082  0.1752  0.1351
29186SOL    HW289566   4.416   9.856   8.189 -0.1310 -0.8022  1.0721
29187SOL     OW89567   0.601   2.473   8.331  0.3105 -0.2308 -0.1336
29187SOL    HW189568   0.589   2.539   8.263  1.5847 -1.4495 -1.6468
29187SOL    HW289569   0.662   2.514   8.393 -0.3302  0.6573 -0.0735
29188SOL     OW89570  10.425   1.241   6.671  0.0302  0.4197 -0.3842
29188SOL    HW189571  10.414   1.155   6.630 -0.9228 -0.0226  0.7500
29188SOL    HW289572  10.510   1.235   6.716  0.7164  0.6441 -1.6035
29189SOL     OW89573   8.392   8.355   4.073  0.2540 -0.8127 -0.3286
29189SOL    HW189574   8.431   8.422   4.129 -0.3296 -0.3648 -0.4414
29189SOL    HW289575   8.351   8.405   4.002 -1.6576 -1.1574  0.4696
29190SOL     OW89576   1.359  10.576   8.482 -0.5933 -0.6011 -0.1422
29190SOL    HW189577   1.372  10.607   8.393 -0.7284 -0.9980 -0.3025
29190SOL    HW289578   1.442  10.596   8.527 -0.6210 -0.1665 -0.2840
29191SOL     OW89579  10.785   5.898   4.712  0.2080 -0.0502  0.6565
29191SOL    HW189580  10.695   5.866   4.707 -0.1602  1.1475 -2.7016
29191SOL    HW289581  10.839   5.819   4.719 -0.9776 -1.0149 -0.5750
29192SOL     OW89582   7.270   2.276   7.159 -0.3685  0.0557  0.1059
29192SOL    HW189583   7.249   2.226   7.080  0.3861 -1.2530  0.7040
29192SOL    HW289584   7.198   2.257   7.219 -0.4303  0.2521  0.0967
29193SOL     OW89585   8.572  10.721   7.881 -0.3963  0.1113  0.7767
29193SOL    HW189586   8.554  10.751   7.792 -0.7173 -0.0762  0.7767
29193SOL    HW289587   8.581  10.802   7.932 -0.4542  0.2163  0.6225
29194SOL     OW89588  10.644  10.676   5.831 -0.2285  0.1911  0.3839
29194SOL    HW189589  10.708  10.635   5.773  0.0023  1.4187 -0.2581
29194SOL    HW289590  10.570  10.699   5.774 -0.4021  0.5555  0.7485
29195SOL     OW89591   4.929   9.284   5.131 -0.1401 -0.1202 -0.3974
29195SOL    HW189592   4.977   9.237   5.063  1.6047 -1.3253  1.5601
29195SOL    HW289593   4.985   9.357   5.155 -0.7402  0.2995 -0.2400
29196SOL     OW89594   3.577   0.113   5.699  0.2520  0.2929  0.8389
29196SOL    HW189595   3.529   0.072   5.770  1.8967 -0.1709  1.7384
29196SOL    HW289596   3.660   0.065   5.696 -1.3329 -2.9596 -4.4244
29197SOL     OW89597   9.830   9.868   5.346 -0.3334 -0.4677  0.1403
29197SOL    HW189598   9.740   9.834   5.346 -0.5074 -0.0510  1.6028
29197SOL    HW289599   9.821   9.959   5.318 -0.7338  0.3702  2.7696
29198SOL     OW89600   6.217   2.716   3.809  0.2304 -0.3685 -0.4410
29198SOL    HW189601   6.262   2.795   3.842 -1.2500 -0.2668  1.4800
29198SOL    HW289602   6.170   2.746   3.731  0.8766  0.2816 -0.5928
29199SOL     OW89603   6.470  10.602   1.518 -0.3194 -0.6840  0.2076
29199SOL    HW189604   6.461  10.639   1.431  0.2576 -0.5506  0.2046
29199SOL    HW289605   6.541  10.538   1.510 -0.7499 -1.1977  0.4089
29200SOL     OW89606   0.517   0.053   5.067 -0.2276 -0.2280  0.2152
29200SOL    HW189607   0.584  -0.015   5.061  1.1565  1.2081 -1.9244
29200SOL    HW289608   0.434   0.005   5.064  0.7010 -1.9137  0.5508
29201SOL     OW89609   2.691   8.721   1.022  0.2516 -0.6378  0.0638
29201SOL    HW189610   2.664   8.811   1.003 -0.3384 -0.8734 -0.2691
29201SOL    HW289611   2.720   8.723   1.113 -2.5897 -0.7132  1.0685
29202SOL     OW89612   2.633   1.132   0.958  0.6356 -0.2018 -0.1291
29202SOL    HW189613   2.612   1.215   1.001  0.7181 -0.1770 -0.1363
29202SOL    HW289614   2.721   1.145   0.923 -0.4719  0.8188 -2.8152
29203SOL     OW89615   3.352   2.074   3.473  0.2730  0.5466  0.3854
29203SOL    HW189616   3.312   2.003   3.422 -0.9856  0.7851  1.0114
29203SOL    HW289617   3.311   2.154   3.438 -0.6892  0.7077  1.8020
29204SOL     OW89618   8.301   6.556   9.124 -0.3185 -0.2112 -0.1790
29204SOL    HW189619   8.293   6.546   9.218  1.4368  2.6291  0.3813
29204SOL    HW289620   8.335   6.471   9.094 -1.7222 -1.4514  1.5662
29205SOL     OW89621   3.993   9.712   3.625  0.0030  0.6108 -0.0289
29205SOL    HW189622   4.025   9.650   3.691 -1.5720 -0.5089 -0.2820
29205SOL    HW289623   4.037   9.685   3.544  3.1998  2.9630  0.7170
29206SOL     OW89624   8.471   7.828   3.570 -0.2796  0.0331  0.0252
29206SOL    HW189625   8.435   7.900   3.518  0.6861  0.2634 -0.3511
29206SOL    HW289626   8.433   7.749   3.531 -1.7828  0.3407  0.7948
29207SOL     OW89627  10.367   2.975   6.477 -0.1789  0.6457  0.1212
29207SOL    HW189628  10.360   2.904   6.541 -0.3467  0.8743  0.3574
29207SOL    HW289629  10.394   3.051   6.527 -0.3074  0.8255 -0.0798
29208SOL     OW89630   7.999   4.975   8.022  0.4030 -0.1408  0.0173
29208SOL    HW189631   7.964   4.942   7.939  0.3879  0.8958 -0.4131
29208SOL    HW289632   7.996   5.070   8.012  4.5006  0.1265 -0.6193
29209SOL     OW89633   7.426   0.788   7.917  0.8716  0.2731 -0.4108
29209SOL    HW189634   7.403   0.783   7.824  0.8235  1.1334 -0.4470
29209SOL    HW289635   7.522   0.794   7.917  0.8157  1.2082 -0.4458
29210SOL     OW89636   7.485  10.204   1.711  0.8191 -0.2278  0.1605
29210SOL    HW189637   7.505  10.245   1.796  3.5059 -0.7377 -0.1304
29210SOL    HW289638   7.416  10.259   1.674  0.3233  0.6375  2.2113
29211SOL     OW89639   2.674   8.781   6.853 -0.6235 -1.1263 -0.0219
29211SOL    HW189640   2.617   8.706   6.834  1.0098 -2.8085  1.2611
29211SOL    HW289641   2.680   8.783   6.948  0.3013 -0.0956 -0.0799
29212SOL     OW89642   2.090   0.193   7.414  0.1362  0.1158 -0.5550
29212SOL    HW189643   2.106   0.287   7.403 -1.1341  0.4206  0.0054
29212SOL    HW289644   2.166   0.151   7.374  1.8267  1.4315  1.0760
29213SOL     OW89645   5.950   8.974   5.097 -0.5803 -0.4194  0.3543
29213SOL    HW189646   5.946   9.067   5.117  0.2401 -0.5578  1.2866
29213SOL    HW289647   6.041   8.950   5.114 -0.9982 -1.5866  1.1144
29214SOL     OW89648   1.659   1.221   5.520  0.1423 -0.2090  0.7390
29214SOL    HW189649   1.622   1.216   5.432  0.4092 -1.3524  0.6772
29214SOL    HW289650   1.584   1.229   5.578 -0.0386  0.4714  0.4234
29215SOL     OW89651   6.958   9.235   7.060  0.5281  0.0216  0.2931
29215SOL    HW189652   7.035   9.184   7.035  0.3309 -0.3494  0.4477
29215SOL    HW289653   6.890   9.170   7.078 -0.0535  0.3706 -0.5919
29216SOL     OW89654   0.434   9.919  11.100  0.1353 -0.2423 -0.0230
29216SOL    HW189655   0.428   9.839  11.048  1.6831 -1.7621  1.9794
29216SOL    HW289656   0.392   9.986  11.045  1.9137 -1.6040 -3.3320
29217SOL     OW89657   5.576   3.894   8.713  0.4834  0.3024 -0.3565
29217SOL    HW189658   5.610   3.805   8.728 -1.2064 -0.4889 -0.9211
29217SOL    HW289659   5.628   3.926   8.639  2.2627  0.4874  0.8988
29218SOL     OW89660   6.964   5.449   2.907 -0.8091  0.3824  0.4392
29218SOL    HW189661   6.994   5.488   2.825  1.4424  0.0880  1.0561
29218SOL    HW289662   6.967   5.521   2.970  1.4703 -0.2490  1.1384
29219SOL     OW89663   5.924   3.687   3.934 -0.0471 -0.1704 -0.6774
29219SOL    HW189664   5.916   3.620   3.867 -1.6891 -1.2983  0.5630
29219SOL    HW289665   5.862   3.755   3.907  0.8139  0.3715 -1.3540
29220SOL     OW89666  10.908   9.342   8.495  0.5087  0.2911 -0.1638
29220SOL    HW189667  10.953   9.377   8.418 -0.9820 -1.3785 -1.8790
29220SOL    HW289668  10.970   9.277   8.531  0.6388  0.0405 -0.8239
29221SOL     OW89669  10.997   0.996   1.962 -0.6810  0.0982 -0.1557
29221SOL    HW189670  10.992   1.070   2.023 -1.4476  1.0515 -1.3223
29221SOL    HW289671  10.933   0.933   1.995  0.4119 -0.3330  1.1970
29222SOL     OW89672  10.134   3.887   6.433 -0.4835 -0.3749 -0.3463
29222SOL    HW189673  10.187   3.965   6.448 -0.1287 -0.6933  0.0949
29222SOL    HW289674  10.060   3.897   6.493 -0.3651 -0.4428 -0.1881
29223SOL     OW89675   4.757   2.082   0.922  0.3618 -0.7327  0.1400
29223SOL    HW189676   4.778   2.173   0.903 -0.8698 -0.2079  1.1710
29223SOL    HW289677   4.744   2.042   0.836 -0.3453  0.3780 -0.2932
29224SOL     OW89678   8.737   0.985   9.289  0.1514  0.3711 -0.3831
29224SOL    HW189679   8.832   0.993   9.289  0.0866  1.4262  1.0603
29224SOL    HW289680   8.712   0.995   9.197  1.5612 -2.2334 -1.1638
29225SOL     OW89681  10.536   9.833   8.494 -0.4544  0.2641 -0.0254
29225SOL    HW189682  10.626   9.865   8.491  0.6170 -2.3073  1.5405
29225SOL    HW289683  10.509   9.828   8.402  2.0985 -1.6532 -0.7948
29226SOL     OW89684   1.786   3.975   2.876 -0.4216  0.4666 -0.1769
29226SOL    HW189685   1.876   4.007   2.877 -0.2045 -0.1313  1.0846
29226SOL    HW289686   1.744   4.020   2.949 -1.0188  0.3629 -0.4493
29227SOL     OW89687   0.376   4.047   2.106 -0.3513 -0.0293  0.2928
29227SOL    HW189688   0.334   3.962   2.092  0.6245 -0.2992 -1.3573
29227SOL    HW289689   0.461   4.039   2.062  1.2782  0.6488  3.0631
29228SOL     OW89690   2.093   8.447   1.205  0.1707 -0.1978  0.3240
29228SOL    HW189691   2.059   8.464   1.117  1.2137 -1.7218 -0.4290
29228SOL    HW289692   2.084   8.530   1.251  0.7892  1.0216 -1.6291
29229SOL     OW89693   4.516   8.399   6.121 -0.4575 -0.1597  0.1499
29229SOL    HW189694   4.554   8.486   6.129 -0.2616 -0.1072 -1.1218
29229SOL    HW289695   4.590   8.343   6.097 -1.0317 -0.1772 -1.7032
29230SOL     OW89696   9.294  10.570   0.831  0.2346 -0.8787  0.1602
29230SOL    HW189697   9.204  10.539   0.834 -0.0573 -0.0572  0.1891
29230SOL    HW289698   9.289  10.662   0.857  1.0085 -0.6786 -0.3463
29231SOL     OW89699   3.781  11.077   9.282  0.8461  0.3481  0.1707
29231SOL    HW189700   3.803  11.042   9.368 -0.0864 -1.4902 -0.2781
29231SOL    HW289701   3.688  11.098   9.289  0.0878 -2.1963 -1.0414
29232SOL     OW89702   2.864   5.181   5.807  0.5077 -0.1799  0.1265
29232SOL    HW189703   2.803   5.185   5.733  0.8482 -1.1586 -0.2299
29232SOL    HW289704   2.815   5.140   5.877 -0.4799  2.5501  1.1830
29233SOL     OW89705   3.314  10.354   2.956 -0.0268  1.2390 -0.8838
29233SOL    HW189706   3.225  10.390   2.953  0.4674  2.6062 -0.2798
29233SOL    HW289707   3.333  10.329   2.866 -1.2711  0.2795 -0.8946
29234SOL     OW89708   8.567   0.796  10.591 -0.1801 -0.4172 -0.2523
29234SOL    HW189709   8.569   0.871  10.531 -1.6527  0.4088  0.6529
29234SOL    HW289710   8.474   0.783  10.610  0.0167 -2.6086 -0.5001
29235SOL     OW89711   7.481   0.456   6.890  0.2749 -0.0666  0.4948
29235SOL    HW189712   7.465   0.366   6.862 -1.3358  0.2823  0.1785
29235SOL    HW289713   7.415   0.472   6.958  1.2961  0.5221  1.3808
29236SOL     OW89714   9.931   1.550   2.988  0.3741  0.5078  0.5612
29236SOL    HW189715   9.938   1.518   3.079 -0.3948  0.5735  0.6543
29236SOL    HW289716   9.842   1.584   2.982 -1.3706 -3.6139 -1.4910
29237SOL     OW89717   2.249   5.193   2.848 -0.2915  0.2553 -0.1633
29237SOL    HW189718   2.222   5.215   2.759 -0.7392  0.4136  0.0105
29237SOL    HW289719   2.179   5.227   2.904 -0.2849 -0.3416  0.2124
29238SOL     OW89720   8.628   9.796   9.909  0.9028  0.1724 -0.0338
29238SOL    HW189721   8.543   9.838   9.893  0.4930  0.7419  2.9871
29238SOL    HW289722   8.693   9.859   9.877  0.2517 -0.1606 -2.1485
29239SOL     OW89723   2.603   5.392   0.627  0.4292  0.2449  0.2833
29239SOL    HW189724   2.571   5.473   0.666  0.3739 -0.6271  2.1172
29239SOL    HW289725   2.525   5.338   0.615  0.2913  0.8301 -2.0204
29240SOL     OW89726   1.793   3.461   5.009 -0.5320 -0.2114  0.6088
29240SOL    HW189727   1.773   3.417   4.927 -2.6332 -0.9965  1.4696
29240SOL    HW289728   1.812   3.552   4.984 -1.5382 -0.3397 -0.7180
29241SOL     OW89729   3.616   4.924   3.502 -0.0897 -0.1451 -0.1191
29241SOL    HW189730   3.611   4.855   3.436  0.3747  0.0300 -0.3388
29241SOL    HW289731   3.679   4.892   3.566 -2.3126 -1.4416  1.5897
29242SOL     OW89732   7.278   1.350   2.232 -0.1517  0.3852  0.1705
29242SOL    HW189733   7.217   1.415   2.268 -0.7739  0.9497 -1.7986
29242SOL    HW289734   7.222   1.283   2.192  0.4729  0.7322 -1.3522
29243SOL     OW89735   9.461   6.577   3.000  0.0111  0.4968 -0.2683
29243SOL    HW189736   9.383   6.590   2.947  0.2459 -2.0908 -1.4332
29243SOL    HW289737   9.430   6.577   3.091 -1.1353  0.7082 -0.6525
29244SOL     OW89738   6.693  11.081   7.927 -0.0039 -0.1900  0.0649
29244SOL    HW189739   6.652  10.995   7.940  0.7973 -0.7398 -0.9302
29244SOL    HW289740   6.654  11.136   7.995 -0.4002 -1.3870  0.8467
29245SOL     OW89741   1.512   7.911  10.795 -0.1782 -0.0964  0.0268
29245SOL    HW189742   1.590   7.961  10.771  1.9506 -2.3717  1.7665
29245SOL    HW289743   1.485   7.869  10.713  1.1534 -0.1777 -0.4019
29246SOL     OW89744   7.692   0.879   7.523  0.0856  0.3998  0.4910
29246SOL    HW189745   7.709   0.860   7.431  1.5613 -0.1619  0.8543
29246SOL    HW289746   7.668   0.972   7.525  1.6855  0.8602 -0.2770
29247SOL     OW89747   8.514   1.512   2.357  0.2497  0.0649  0.4656
29247SOL    HW189748   8.588   1.451   2.355  0.2079  0.0298 -0.3379
29247SOL    HW289749   8.544   1.587   2.306 -0.3736 -0.0716 -0.1080
29248SOL     OW89750   3.356   7.242   9.198  0.3958 -0.3134  0.1919
29248SOL    HW189751   3.424   7.177   9.182 -1.7476 -2.7611  0.2836
29248SOL    HW289752   3.294   7.198   9.256 -1.9862  1.2045 -1.0205
29249SOL     OW89753   0.622   2.401   0.816 -0.0020  0.2175  0.1128
29249SOL    HW189754   0.677   2.360   0.750  1.2090  2.1036 -0.1228
29249SOL    HW289755   0.591   2.482   0.776 -1.1660  0.2532  1.0293
29250SOL     OW89756   0.312   6.993   0.962  0.5105  0.0738 -0.1840
29250SOL    HW189757   0.230   7.036   0.988  0.9927  1.3396 -0.7042
29250SOL    HW289758   0.380   7.057   0.979  1.4252 -0.9778  0.2514
29251SOL     OW89759   2.893   7.287   0.936 -0.1923  0.0052 -0.1121
29251SOL    HW189760   2.945   7.207   0.950 -1.0963 -0.4726  0.5937
29251SOL    HW289761   2.956   7.358   0.946  0.7476 -0.6252 -1.2964
29252SOL     OW89762  10.411   8.718   5.806  0.0335  0.6532 -1.0389
29252SOL    HW189763  10.319   8.693   5.800 -0.1647  0.7680  0.7525
29252SOL    HW289764  10.453   8.673   5.733 -1.1192 -1.0828 -0.7069
29253SOL     OW89765  10.908   1.382   9.420  0.6253 -0.0221  0.0590
29253SOL    HW189766  10.897   1.473   9.391 -1.6052 -0.7267 -1.6492
29253SOL    HW289767  10.818   1.351   9.435  1.4381 -1.4088  2.4799
29254SOL     OW89768  10.886   8.101   6.044 -0.6595 -0.1939  0.1729
29254SOL    HW189769  10.947   8.047   6.094  2.5391  1.4867 -1.5907
29254SOL    HW289770  10.846   8.158   6.109  1.3772  0.1421  1.2241
29255SOL     OW89771   3.318   3.039  10.535 -0.6191 -0.0004  0.3314
29255SOL    HW189772   3.366   3.072  10.611 -1.2009  0.8159  0.3580
29255SOL    HW289773   3.383   3.039  10.464  0.5422 -2.8299  1.2601
29256SOL     OW89774   2.648   8.092   0.246 -0.3766 -0.7522 -0.2917
29256SOL    HW189775   2.601   8.170   0.217  0.6687 -0.4273 -1.1607
29256SOL    HW289776   2.651   8.035   0.169 -1.5370 -1.8921  0.4530
29257SOL     OW89777   8.473   7.066   8.830 -0.1554 -0.3052  0.5456
29257SOL    HW189778   8.444   7.154   8.808  1.2451  0.1778  0.5372
29257SOL    HW289779   8.446   7.054   8.921 -0.4037  0.1051  0.5279
29258SOL     OW89780   6.080  10.985   9.889 -0.2223 -0.2118 -0.3704
29258SOL    HW189781   6.153  10.947   9.839  1.2021  0.7358  0.8815
29258SOL    HW289782   6.089  11.080   9.875 -2.1985 -0.1453 -1.4462
29259SOL     OW89783  10.953   3.479  10.179 -0.1045 -1.0050 -0.2094
29259SOL    HW189784  10.994   3.532  10.111 -0.5551 -1.7925 -1.1329
29259SOL    HW289785  11.003   3.398  10.180 -0.7944 -1.4446 -0.4107
29260SOL     OW89786   1.431   0.867   1.032 -0.2873 -0.5016 -0.3506
29260SOL    HW189787   1.448   0.891   1.124 -1.7487 -2.8396  0.6177
29260SOL    HW289788   1.362   0.801   1.037 -1.9348  0.7969 -3.3065
29261SOL     OW89789   9.625   5.683   7.786  0.0883  0.2990  0.2258
29261SOL    HW189790   9.629   5.611   7.722 -0.8663  0.0639  0.4177
29261SOL    HW289791   9.532   5.695   7.803  0.2802  1.0814  0.7756
29262SOL     OW89792   3.141   0.157   7.612  1.3921  0.7595  0.0193
29262SOL    HW189793   3.207   0.148   7.681  0.9306  0.5118  0.4295
29262SOL    HW289794   3.080   0.086   7.627  0.6135  1.4283  0.1001
29263SOL     OW89795   3.901   8.542   1.641 -0.6425  0.2744 -0.0756
29263SOL    HW189796   3.895   8.511   1.732  0.7239 -0.2541 -0.1376
29263SOL    HW289797   3.929   8.465   1.591 -0.5501  0.7740 -0.8076
29264SOL     OW89798   1.764   6.085   3.116 -0.1585  0.1344 -0.5179
29264SOL    HW189799   1.782   6.170   3.155 -0.5400  1.4054 -2.9213
29264SOL    HW289800   1.669   6.084   3.103 -0.2170 -0.8670 -0.1255
29265SOL     OW89801   3.840   5.797   7.439 -0.0675 -0.2166 -0.1845
29265SOL    HW189802   3.913   5.766   7.387 -0.9461 -0.3398 -1.3752
29265SOL    HW289803   3.871   5.792   7.530  0.4969 -2.7114 -0.4658
29266SOL     OW89804   0.778   6.003   0.943  0.1006 -0.5611 -0.2945
29266SOL    HW189805   0.778   5.934   0.877  1.6845  0.1787 -1.1294
29266SOL    HW289806   0.807   5.959   1.024  0.7991 -0.9418 -0.7434
29267SOL     OW89807   4.111   2.236   8.163 -0.0804  0.6172 -0.1122
29267SOL    HW189808   4.133   2.305   8.100 -0.1645 -0.5597 -1.4712
29267SOL    HW289809   4.052   2.178   8.115 -0.9198  0.1963  1.3798
29268SOL     OW89810  10.813   9.520   7.218  0.6554  0.0972 -0.5772
29268SOL    HW189811  10.819   9.555   7.307 -4.2977  1.3809 -0.4518
29268SOL    HW289812  10.850   9.590   7.163 -0.1043  1.2537  0.3152
29269SOL     OW89813   0.018   8.329   7.171 -0.0883 -0.2439  0.1856
29269SOL    HW189814   0.084   8.391   7.141 -0.7064  0.4301  0.2000
29269SOL    HW289815   0.023   8.256   7.108  0.4029 -0.0283 -0.0283
29270SOL     OW89816   2.000   0.606  10.133  0.2676  0.1799  0.3221
29270SOL    HW189817   1.951   0.548  10.076  1.0821  0.6471 -0.8943
29270SOL    HW289818   2.007   0.688  10.084  1.5206  0.3938  0.8203
29271SOL     OW89819   8.448  10.450  10.175  0.7705 -0.7752  0.4290
29271SOL    HW189820   8.360  10.420  10.150 -0.3323  2.0791  0.4718
29271SOL    HW289821   8.471  10.515  10.109  2.0462 -0.1403  1.4509
29272SOL     OW89822   2.725   1.461   0.565  0.1045 -0.5188  0.1353
29272SOL    HW189823   2.657   1.490   0.626  0.4413  2.2067 -0.6280
29272SOL    HW289824   2.804   1.505   0.596  0.4751  0.1793 -1.6502
29273SOL     OW89825   3.673   2.716   9.463  0.1814 -0.3138 -0.3393
29273SOL    HW189826   3.644   2.781   9.398  0.3275  1.0109  0.8693
29273SOL    HW289827   3.595   2.697   9.514  0.7180  1.0792  1.0879
29274SOL     OW89828   7.203   1.297   8.284  0.0149 -0.4422 -0.0200
29274SOL    HW189829   7.277   1.338   8.240  0.9161  0.1611  1.9370
29274SOL    HW289830   7.144   1.370   8.304  0.1062 -0.5495  0.6551
29275SOL     OW89831   6.684   9.689   1.285 -0.0028 -0.1064 -0.7743
29275SOL    HW189832   6.612   9.658   1.230 -1.1091 -1.2164  1.1662
29275SOL    HW289833   6.752   9.623   1.275  0.1143  0.1018 -1.3802
29276SOL     OW89834   6.341   8.144   5.864 -0.2168  0.0534 -0.2012
29276SOL    HW189835   6.265   8.087   5.860 -0.1899  0.0008  0.0141
29276SOL    HW289836   6.351   8.178   5.775 -1.1532  0.9244  0.0171
29277SOL     OW89837   4.571   3.210   7.558  0.2245 -0.1290  0.6118
29277SOL    HW189838   4.501   3.249   7.611 -0.5682  1.6224 -1.5962
29277SOL    HW289839   4.625   3.163   7.622 -1.4976  0.6017  2.7513
29278SOL     OW89840   2.883   1.632  10.337 -0.1324 -0.1562 -0.6602
29278SOL    HW189841   2.839   1.603  10.417 -0.2647  0.5322 -0.4708
29278SOL    HW289842   2.815   1.632  10.270 -0.7526  1.9563 -0.1264
29279SOL     OW89843  10.583   5.269   7.809 -0.5540  0.5839  0.0647
29279SOL    HW189844  10.652   5.262   7.743 -0.2389 -1.0412  0.5277
29279SOL    HW289845  10.539   5.352   7.789  0.6094  0.9470 -1.1227
29280SOL     OW89846   1.640   7.615   5.257  0.4783 -0.2841 -0.2363
29280SOL    HW189847   1.619   7.601   5.165 -2.8835  0.7217  0.2337
29280SOL    HW289848   1.668   7.706   5.262  1.2026 -0.4975 -0.3169
29281SOL     OW89849   9.223   2.160   1.526 -0.1309  0.2314  0.2659
29281SOL    HW189850   9.282   2.088   1.547 -0.7479 -0.7844 -1.2450
29281SOL    HW289851   9.169   2.126   1.454 -0.7677  2.0429 -0.1670
29282SOL     OW89852   6.105   8.711  10.140  0.4623 -0.9210  0.4853
29282SOL    HW189853   6.187   8.758  10.124 -0.5620  0.5133 -0.8256
29282SOL    HW289854   6.102   8.699  10.235  2.0757 -0.8327  0.5774
29283SOL     OW89855  10.551   3.857   4.247 -0.6903 -0.3782 -0.4492
29283SOL    HW189856  10.571   3.816   4.163 -1.3828 -0.7804 -0.4274
29283SOL    HW289857  10.497   3.793   4.293  1.1911 -0.9614  1.0832
29284SOL     OW89858  10.475   9.633   9.557  0.1981  0.7104  0.0717
29284SOL    HW189859  10.567   9.654   9.544  0.5490 -0.8141 -0.1103
29284SOL    HW289860  10.465   9.630   9.652  0.9597 -1.4653  0.1397
29285SOL     OW89861   3.597  10.950   9.907 -0.4858 -0.1128 -0.4349
29285SOL    HW189862   3.657  10.947   9.982 -0.9072 -0.6960 -0.1094
29285SOL    HW289863   3.569  10.859   9.896 -0.8312  0.0552 -0.9765
29286SOL     OW89864   6.361  10.199   0.834 -0.0656  0.4443 -0.2230
29286SOL    HW189865   6.446  10.244   0.831  0.3956 -0.4385 -0.9333
29286SOL    HW289866   6.383  10.107   0.846 -0.8955  0.1207 -1.0434
29287SOL     OW89867  10.808   5.463   7.374  0.0859 -0.1436  0.4627
29287SOL    HW189868  10.787   5.464   7.281  0.7955 -0.2142  0.2988
29287SOL    HW289869  10.819   5.370   7.396 -0.7873 -0.1811  0.7854
29288SOL     OW89870   2.998   0.578   7.046  0.1384 -0.4760 -0.7077
29288SOL    HW189871   3.064   0.576   6.976  1.5924 -1.6975  0.6432
29288SOL    HW289872   3.010   0.496   7.093 -1.1936  0.0662  0.6554
29289SOL     OW89873   1.567   2.493  10.797  0.1895  0.2548 -0.5514
29289SOL    HW189874   1.498   2.510  10.734  0.6581  2.3208 -0.5592
29289SOL    HW289875   1.641   2.545  10.767  0.3162  1.6399  1.8510
29290SOL     OW89876   5.950   8.156   3.223 -0.3213  0.4716 -0.0254
29290SOL    HW189877   6.024   8.211   3.198 -1.1329  1.4090 -0.4320
29290SOL    HW289878   5.968   8.132   3.314  1.5145 -1.0737 -0.7472
29291SOL     OW89879   9.588   4.779   6.813 -0.4187  0.3589 -0.3898
29291SOL    HW189880   9.559   4.713   6.751  1.2389  0.3402 -1.2094
29291SOL    HW289881   9.518   4.844   6.814 -1.4821 -0.7508 -0.5409
29292SOL     OW89882   7.705  10.379   1.551 -0.0216 -0.5282  0.2823
29292SOL    HW189883   7.768  10.441   1.588 -1.6254  0.8367  0.8391
29292SOL    HW289884   7.708  10.303   1.609  1.3699 -0.6561  0.0693
29293SOL     OW89885   9.591   3.417   4.537 -0.9031  0.7644 -0.2387
29293SOL    HW189886   9.499   3.432   4.557 -0.5552  0.0412  2.3531
29293SOL    HW289887   9.630   3.391   4.621  1.6055  0.7485 -1.2993
29294SOL     OW89888   7.979   0.446   4.933 -0.6735  0.5984 -0.3438
29294SOL    HW189889   8.026   0.387   4.873 -0.6118 -0.0269  0.3092
29294SOL    HW289890   8.048   0.485   4.987 -0.4755  2.8819 -2.1092
29295SOL     OW89891   7.472   8.194   5.136 -0.1188 -0.1967  0.8796
29295SOL    HW189892   7.436   8.182   5.223 -0.6753 -1.2684  0.5240
29295SOL    HW289893   7.496   8.286   5.132 -1.6071  0.2495  1.5867
29296SOL     OW89894   3.238  10.567   4.969 -0.3269 -0.2169 -0.2437
29296SOL    HW189895   3.231  10.488   5.023  2.5687  0.2347  1.0170
29296SOL    HW289896   3.277  10.632   5.028 -0.3239  1.3721 -1.9380
29297SOL     OW89897   3.913   5.835   8.043 -0.3214 -0.6434  0.4859
29297SOL    HW189898   3.908   5.875   8.130 -1.5133 -0.5845  0.3996
29297SOL    HW289899   3.847   5.765   8.045  0.1620 -1.1275 -0.1314
29298SOL     OW89900   3.364   4.335   8.070 -0.2264  0.0170 -0.2153
29298SOL    HW189901   3.426   4.273   8.033  1.5500  0.2646  2.0980
29298SOL    HW289902   3.380   4.417   8.022 -0.6552 -0.5730 -1.4002
29299SOL     OW89903   6.947   5.797   0.311  0.2374 -0.2624  0.2153
29299SOL    HW189904   6.859   5.761   0.326  0.3751 -1.1597 -1.0171
29299SOL    HW289905   6.937   5.891   0.328 -0.9932 -0.3274 -0.0434
29300SOL     OW89906   9.539   7.841   9.244  0.0691  0.4655 -0.5872
29300SOL    HW189907   9.627   7.869   9.271  0.6819 -1.0932 -0.8271
29300SOL    HW289908   9.510   7.908   9.184  1.2872  0.8131 -0.8207
29301SOL     OW89909   5.005   5.725   5.644 -0.4280 -0.4496 -0.1682
29301SOL    HW189910   4.976   5.747   5.733 -0.1612 -0.9731  0.0560
29301SOL    HW289911   5.073   5.658   5.657  0.0882 -0.0495 -0.7342
29302SOL     OW89912   4.542   3.830  10.940 -0.5006  0.2465 -0.0831
29302SOL    HW189913   4.621   3.789  10.975 -2.4583 -3.5847  0.3889
29302SOL    HW289914   4.511   3.887  11.010  0.5347 -0.1210  0.6908
29303SOL     OW89915   1.031   0.379   7.453  0.3061  0.2501 -0.1190
29303SOL    HW189916   1.020   0.295   7.497  0.4403 -0.4673 -1.4185
29303SOL    HW289917   1.100   0.423   7.504  1.9886 -1.4400 -0.8059
29304SOL     OW89918   9.917   7.587   0.912 -0.1697  0.8081 -0.2945
29304SOL    HW189919   9.937   7.494   0.925 -1.1249  0.4088 -1.4219
29304SOL    HW289920   9.985   7.634   0.960 -0.5006 -0.4705  1.5156
29305SOL     OW89921   1.288   7.496   9.969  0.1877  0.0093  0.2614
29305SOL    HW189922   1.225   7.475   9.901  1.7697  0.6693 -1.4970
29305SOL    HW289923   1.259   7.446  10.045 -1.8068 -0.5362 -0.7883
29306SOL     OW89924   6.741   7.816   0.581  0.7517 -0.6340 -0.1387
29306SOL    HW189925   6.711   7.725   0.587  0.9529 -0.6587  0.5695
29306SOL    HW289926   6.814   7.813   0.519 -1.1224 -0.4488 -2.5224
29307SOL     OW89927   3.433   0.841   0.301 -0.6253 -0.2491 -0.5170
29307SOL    HW189928   3.425   0.773   0.368 -2.0735  0.7367  0.3771
29307SOL    HW289929   3.364   0.904   0.323  1.3695  2.0955 -0.6334
29308SOL     OW89930   5.127   1.169   6.493 -0.5378 -0.0197 -0.0153
29308SOL    HW189931   5.134   1.074   6.506 -0.4435  0.1948  1.8606
29308SOL    HW289932   5.036   1.189   6.513 -0.7144  0.2262 -1.0199
29309SOL     OW89933   2.871   7.703   3.686  0.1272  0.1747 -0.1174
29309SOL    HW189934   2.917   7.624   3.656  0.0627  0.0841  0.0198
29309SOL    HW289935   2.936   7.749   3.739  0.4599  0.6753 -0.9376
29310SOL     OW89936   3.862  10.086   9.025 -0.1771 -0.1754 -0.1339
29310SOL    HW189937   3.828  10.146   8.959  2.2671 -0.0428 -1.3915
29310SOL    HW289938   3.943  10.127   9.056 -0.2666 -1.1731  1.5798
29311SOL     OW89939   2.029   4.096   2.880 -0.0667 -0.0569  0.2870
29311SOL    HW189940   1.976   4.163   2.922  0.5386 -1.3878  3.4640
29311SOL    HW289941   2.102   4.144   2.841 -0.6504  1.2901  0.7967
29312SOL     OW89942   6.288   1.212   3.454 -0.4051 -0.5971 -0.1759
29312SOL    HW189943   6.299   1.137   3.396  0.5196  0.6620 -1.7235
29312SOL    HW289944   6.208   1.255   3.424 -0.4996 -0.5319  0.1671
29313SOL     OW89945   5.120   5.945   0.062 -0.3446  0.5203  0.1324
29313SOL    HW189946   5.120   6.040   0.074  1.1672  0.3863  1.5224
29313SOL    HW289947   5.048   5.914   0.116 -0.3995  0.8178  0.2296
29314SOL     OW89948   3.696   4.774   4.993  0.0031 -0.2698 -0.0312
29314SOL    HW189949   3.725   4.723   4.918 -0.4598 -2.1798  1.0342
29314SOL    HW289950   3.691   4.712   5.066  2.9147  1.9262  2.3105
29315SOL     OW89951   6.447   3.050   9.767  0.2703  0.0646 -0.5708
29315SOL    HW189952   6.448   3.004   9.683  0.9544  0.3374 -0.7137
29315SOL    HW289953   6.395   2.993   9.824 -1.1498  0.4033 -1.4693
29316SOL     OW89954   3.076   7.648   1.858  0.1638 -0.4773  0.0581
29316SOL    HW189955   3.035   7.734   1.853  2.3141  0.5251 -3.4073
29316SOL    HW289956   3.123   7.649   1.942  0.6094  1.9967 -0.1443
29317SOL     OW89957   1.473   8.151   7.225 -0.3287 -0.3675  0.1563
29317SOL    HW189958   1.400   8.212   7.213  0.3197  0.5011  0.4861
29317SOL    HW289959   1.519   8.151   7.142 -1.9530 -2.6957 -0.8741
29318SOL     OW89960   0.156  10.256   3.554  0.1582 -0.3343 -0.4843
29318SOL    HW189961   0.126  10.167   3.535  0.6239 -0.6923  0.3703
29318SOL    HW289962   0.244  10.244   3.590  0.9311  0.6092 -1.9683
29319SOL     OW89963   1.693   2.686   7.559 -0.4328 -0.4264  0.2942
29319SOL    HW189964   1.692   2.665   7.465 -1.3400 -0.4193  0.2936
29319SOL    HW289965   1.743   2.767   7.564  0.2687 -0.8217 -0.0917
29320SOL     OW89966   8.609  10.139   8.865  0.5454 -0.1286 -0.1055
29320SOL    HW189967   8.661  10.064   8.838  0.4891 -0.2303  0.0691
29320SOL    HW289968   8.618  10.202   8.792 -2.1359 -1.6131 -1.8843
29321SOL     OW89969  10.507   3.053  10.284  0.2181  0.3494  0.2115
29321SOL    HW189970  10.471   3.141  10.294  0.9189  0.5739  0.8060
29321SOL    HW289971  10.468   3.003  10.355 -2.7134 -0.7181 -1.9242
29322SOL     OW89972   1.510   2.238   2.188  0.4183 -0.6315  0.3205
29322SOL    HW189973   1.532   2.327   2.214 -0.5670 -0.7641  1.7301
29322SOL    HW289974   1.417   2.242   2.165  0.1358 -1.4683  1.2701
29323SOL     OW89975  10.020  10.046  10.374  0.2399  0.2974 -0.2249
29323SOL    HW189976   9.932  10.081  10.360 -0.4002 -1.0342  0.3758
29323SOL    HW289977  10.010   9.951  10.370  1.4821  0.0973  0.8226
29324SOL     OW89978  10.425   7.681   1.784 -0.0284 -0.8645  0.6632
29324SOL    HW189979  10.343   7.635   1.765 -0.2681 -1.0163  1.9846
29324SOL    HW289980  10.425   7.691   1.879  0.5238  0.9586  0.4942
29325SOL     OW89981   7.838   2.741   0.605  0.0852 -0.1954  0.6645
29325SOL    HW189982   7.875   2.813   0.656  0.0906 -0.7673  1.4970
29325SOL    HW289983   7.833   2.775   0.516 -0.1242  0.9138  1.0744
29326SOL     OW89984   5.679   7.072  10.153  0.2964 -0.6398 -0.1121
29326SOL    HW189985   5.583   7.071  10.146 -0.0422  2.5315  2.1689
29326SOL    HW289986   5.697   7.033  10.238  1.2792 -2.9689 -1.3067
29327SOL     OW89987   1.628   4.025  10.602  0.4120  0.1531 -0.6116
29327SOL    HW189988   1.722   4.012  10.590  0.3180  0.4664 -1.8501
29327SOL    HW289989   1.602   4.084  10.531 -0.7550 -0.1056 -0.4324
29328SOL     OW89990   3.498   4.824   5.895  0.5958  0.0315 -0.0828
29328SOL    HW189991   3.526   4.888   5.961 -1.6078  1.3988 -0.3517
29328SOL    HW289992   3.439   4.873   5.838 -1.9233 -2.3925  0.2103
29329SOL     OW89993  11.074   0.663   9.440 -0.3983  0.4812  0.2607
29329SOL    HW189994  10.991   0.629   9.473  0.8380 -1.5140  1.4976
29329SOL    HW289995  11.101   0.728   9.504 -0.5235  0.4104  0.3844
29330SOL     OW89996   6.261   9.750   2.108  0.3998 -0.5642  0.5703
29330SOL    HW189997   6.235   9.666   2.069 -0.9777  0.3870 -0.6639
29330SOL    HW289998   6.190   9.770   2.169  0.9806 -0.5219  1.2392
29331SOL     OW89999  10.363  10.404   0.879  0.0859  0.3718 -0.0552
29331SOL    HW190000  10.327  10.332   0.827 -0.9993  0.3603  0.6886
29331SOL    HW290001  10.306  10.478   0.861  0.2738  0.6305  0.3841
29332SOL     OW90002   1.500   1.521   2.472  0.3349  0.8558  0.0431
29332SOL    HW190003   1.426   1.571   2.437  1.1331  2.6296  0.7363
29332SOL    HW290004   1.571   1.537   2.410  0.3664 -0.2036 -0.2121
29333SOL     OW90005  11.056   7.518   0.963 -0.3193 -0.0880 -0.3047
29333SOL    HW190006  11.147   7.542   0.980 -0.8911  1.3379  0.9480
29333SOL    HW290007  11.056   7.488   0.872  1.4063 -0.1550 -0.3072
29334SOL     OW90008   9.769   9.826   7.540  0.2023 -0.0998  0.0157
29334SOL    HW190009   9.681   9.787   7.537 -0.2164  0.7193  1.0281
29334SOL    HW290010   9.793   9.824   7.632  0.9009  0.4724 -0.1478
29335SOL     OW90011   9.945   7.701   3.883  0.6610  0.3320 -0.3917
29335SOL    HW190012   9.896   7.655   3.814  1.3700 -1.1160  0.0349
29335SOL    HW290013   9.940   7.793   3.858 -1.9665  0.2235 -0.5593
29336SOL     OW90014   9.550   1.056   7.535 -0.7536 -0.6904  0.7758
29336SOL    HW190015   9.519   1.009   7.612 -0.6034 -0.0195  1.2464
29336SOL    HW290016   9.643   1.072   7.552 -1.0467  0.7398  1.1198
29337SOL     OW90017   0.031   6.814   5.723 -0.4600 -0.6487  0.1810
29337SOL    HW190018  -0.029   6.881   5.757 -1.2926  0.5013 -3.1325
29337SOL    HW290019  -0.020   6.769   5.655  1.5338 -1.6050 -0.7555
29338SOL     OW90020   8.754   2.349   1.020  0.0962 -0.6091 -0.2080
29338SOL    HW190021   8.817   2.361   0.950  1.1796  1.7604  1.0523
29338SOL    HW290022   8.789   2.276   1.072  1.0311 -0.2409 -0.3104
29339SOL     OW90023  10.701   9.249   9.411 -0.5793  0.0947  0.0605
29339SOL    HW190024  10.788   9.227   9.445 -0.9716 -2.5390 -0.5091
29339SOL    HW290025  10.664   9.166   9.382 -1.6045  1.6721 -3.7874
29340SOL     OW90026   0.725   0.513   5.033 -0.2792  0.3231  0.7700
29340SOL    HW190027   0.740   0.437   4.977 -1.9477  0.3907  0.1605
29340SOL    HW290028   0.749   0.588   4.979 -3.3460  0.4990 -0.5740
29341SOL     OW90029   5.446   0.724   1.710  0.3406  0.5162  0.1675
29341SOL    HW190030   5.457   0.637   1.749  1.5004  0.5531 -0.0311
29341SOL    HW290031   5.353   0.742   1.717 -0.1782 -1.3624 -1.1141
29342SOL     OW90032   7.819   6.441   8.064 -0.1334 -0.1669 -0.0953
29342SOL    HW190033   7.851   6.513   8.010  0.3683  1.2525  1.9930
29342SOL    HW290034   7.870   6.365   8.034  0.5226  0.6836 -1.2202
29343SOL     OW90035   4.739   1.397   5.949 -0.6960 -0.0353 -0.2857
29343SOL    HW190036   4.790   1.383   6.028 -2.2464  0.4275  0.8427
29343SOL    HW290037   4.803   1.391   5.877  0.8588  0.2647  1.0283
29344SOL     OW90038   0.419   2.069   2.486  0.5397 -0.0164  0.4766
29344SOL    HW190039   0.458   1.982   2.477  1.2099  0.0920  2.0631
29344SOL    HW290040   0.477   2.127   2.438  0.4117 -0.3509 -0.0928
29345SOL     OW90041   5.422  10.141  10.760 -0.0820 -0.0640  0.7104
29345SOL    HW190042   5.347  10.092  10.727 -0.3758 -0.1001  1.4224
29345SOL    HW290043   5.498  10.094  10.727 -0.3241 -1.6539  2.2554
29346SOL     OW90044   8.277   0.638   7.644  0.3033 -0.0700  0.4419
29346SOL    HW190045   8.353   0.589   7.676 -0.3074 -1.2430  0.1603
29346SOL    HW290046   8.207   0.573   7.639  0.0493  0.2953 -2.0954
29347SOL     OW90047   0.774   2.997   3.340 -0.2787 -0.7692 -0.3746
29347SOL    HW190048   0.865   2.973   3.361 -0.2779 -0.3863  0.0652
29347SOL    HW290049   0.769   2.992   3.244 -0.0348 -1.6559 -0.3507
29348SOL     OW90050   4.528   8.029   7.042 -0.4564 -0.1232  0.1086
29348SOL    HW190051   4.606   7.980   7.018  0.8938  0.7474  2.3627
29348SOL    HW290052   4.526   8.104   6.982  0.7704  0.1284  0.3607
29349SOL     OW90053  10.454   3.374   8.513  0.2991 -0.3608 -0.4011
29349SOL    HW190054  10.407   3.315   8.572  0.0998  2.6110  2.7385
29349SOL    HW290055  10.547   3.360   8.534  0.1934  1.5133  1.7305
29350SOL     OW90056   7.148   2.576  10.523 -0.7655 -0.2440 -0.5660
29350SOL    HW190057   7.214   2.610  10.463 -0.6634 -1.3320 -1.0855
29350SOL    HW290058   7.192   2.574  10.608  0.3637 -2.2370 -1.1426
29351SOL     OW90059   3.555   6.144   3.120 -0.1720 -0.7377  0.4936
29351SOL    HW190060   3.609   6.102   3.053 -0.5315  0.5173 -0.6431
29351SOL    HW290061   3.471   6.160   3.076 -1.0442 -1.5118  1.8314
29352SOL     OW90062   4.435   1.329   4.872 -0.3644 -0.1579 -0.2220
29352SOL    HW190063   4.372   1.377   4.820 -0.3358  0.2746  0.1352
29352SOL    HW290064   4.474   1.395   4.930 -0.0956 -0.5482  0.0496
29353SOL     OW90065  10.610   7.758   8.119 -0.3848 -0.1449 -0.2076
29353SOL    HW190066  10.565   7.841   8.134  1.8562  1.1149  0.0652
29353SOL    HW290067  10.643   7.764   8.029 -1.0074 -1.1920 -0.5303
29354SOL     OW90068  10.258  10.859   3.766  0.1967 -0.1283 -1.1524
29354SOL    HW190069  10.301  10.907   3.837 -0.0601  0.5638 -1.4622
29354SOL    HW290070  10.191  10.918   3.733 -1.3384 -1.3580 -0.3910
29355SOL     OW90071   9.349   2.150   2.620 -0.6565  0.1552 -0.0401
29355SOL    HW190072   9.318   2.111   2.702 -0.9927  0.1619 -0.1632
29355SOL    HW290073   9.425   2.203   2.646 -1.9333  1.7559  0.6075
29356SOL     OW90074   3.168  10.869   5.595 -0.0412  0.0999 -0.0551
29356SOL    HW190075   3.225  10.874   5.519 -0.3838  1.1042 -0.2604
29356SOL    HW290076   3.114  10.948   5.590  0.6742  0.7454  1.8188
29357SOL     OW90077  10.163   7.673   0.311 -0.0630 -0.8021 -0.5159
29357SOL    HW190078  10.166   7.585   0.273 -3.4329 -1.3316  0.1399
29357SOL    HW290079  10.202   7.664   0.397 -1.0093 -1.8490 -0.1812
29358SOL     OW90080   5.956   3.848   1.753 -0.3197 -0.0758 -0.3329
29358SOL    HW190081   5.914   3.879   1.673  0.0497 -1.5754 -1.1524
29358SOL    HW290082   5.907   3.769   1.776 -0.4878  0.3960  0.9964
29359SOL     OW90083   7.716   3.055   0.112  0.4244  0.4006  0.0015
29359SOL    HW190084   7.684   2.968   0.089 -3.4556  1.2166  1.5996
29359SOL    HW290085   7.643   3.114   0.090  1.2245  2.6713  2.8779
29360SOL     OW90086   7.983   5.774   3.653  0.0635 -1.0323 -0.3972
29360SOL    HW190087   8.070   5.764   3.613  0.6097  0.5926  0.3112
29360SOL    HW290088   7.939   5.839   3.599  0.6868  0.9279  1.3081
29361SOL     OW90089   9.854   1.706   9.362 -0.1570  0.9395 -0.0559
29361SOL    HW190090   9.822   1.736   9.277  0.3957  0.1158 -0.5661
29361SOL    HW290091   9.779   1.661   9.401  0.3851 -1.2786 -1.3875
29362SOL     OW90092   4.341   3.915   3.018  0.0306 -0.0057 -0.0628
29362SOL    HW190093   4.407   3.980   2.993  0.7566  0.0832  1.9115
29362SOL    HW290094   4.313   3.876   2.935  2.9212 -0.4002 -0.9552
29363SOL     OW90095   3.030   9.414  10.380 -0.1947 -0.2450  0.4219
29363SOL    HW190096   2.995   9.482  10.323  3.1515  1.6092  0.3595
29363SOL    HW290097   3.019   9.333  10.331  0.6357  0.9980 -1.9685
29364SOL     OW90098   2.742   1.274   8.404 -0.0490 -0.2814  0.1248
29364SOL    HW190099   2.697   1.355   8.382 -0.0270 -0.7144 -1.6134
29364SOL    HW290100   2.823   1.276   8.353  0.6621 -0.7407  1.1877
29365SOL     OW90101   0.716  10.506   1.539 -0.3256 -0.0814 -0.3274
29365SOL    HW190102   0.671  10.507   1.455 -2.7919  0.3384  0.9025
29365SOL    HW290103   0.774  10.431   1.534 -0.4671 -0.1096 -2.3558
29366SOL     OW90104   3.200   6.700   0.761  0.2647  1.1482 -0.7015
29366SOL    HW190105   3.113   6.674   0.732 -0.1175  0.7983  0.6562
29366SOL    HW290106   3.259   6.668   0.693 -0.6271  0.9556 -1.3962
29367SOL     OW90107   5.924   0.161  11.039  0.0159  0.1880 -0.4061
29367SOL    HW190108   5.911   0.174  10.944 -1.2613 -0.8433 -0.4002
29367SOL    HW290109   5.945   0.249  11.072  0.1059  0.6338 -1.5864
29368SOL     OW90110   4.681   7.859  10.290 -0.1419 -0.2373  0.7416
29368SOL    HW190111   4.697   7.912  10.368  1.4032  1.0363 -0.3673
29368SOL    HW290112   4.734   7.780  10.303  1.7321  0.8727  0.1451
29369SOL     OW90113   6.079   0.464   7.172  0.0343  0.4062  0.1000
29369SOL    HW190114   6.087   0.498   7.083 -0.3065 -1.8217 -0.8520
29369SOL    HW290115   5.986   0.474   7.193  0.5212  3.3404  1.3210
29370SOL     OW90116   5.768   8.655   6.337  0.1111 -0.7261 -0.3841
29370SOL    HW190117   5.744   8.641   6.428  0.8113 -1.3058 -0.2776
29370SOL    HW290118   5.864   8.654   6.337  0.1582  0.9790 -0.8752
29371SOL     OW90119   1.321   3.238   1.781 -0.7569 -0.0700  1.3005
29371SOL    HW190120   1.306   3.332   1.795  0.9316  0.2553  1.1419
29371SOL    HW290121   1.336   3.230   1.687  5.0419  0.5838  1.8256
29372SOL     OW90122   0.106   0.561   9.778 -0.2414  0.6514  0.1065
29372SOL    HW190123   0.182   0.559   9.720 -0.1908 -0.3306  0.2028
29372SOL    HW290124   0.042   0.503   9.736  0.4728 -1.5831  1.9329
29373SOL     OW90125   9.725   2.373   0.346 -0.6027  0.1973 -0.7839
29373SOL    HW190126   9.642   2.403   0.385  0.3810  2.5881 -0.3508
29373SOL    HW290127   9.730   2.420   0.262  0.4377  0.3066 -0.6724
29374SOL     OW90128   9.872  10.099   8.381 -0.1777 -0.2584  0.1355
29374SOL    HW190129   9.893  10.106   8.474  1.3079  0.7961 -0.2449
29374SOL    HW290130   9.785  10.138   8.373 -1.2209 -2.1627  1.3431
29375SOL     OW90131   3.644   6.402   4.140 -0.2099  0.6936  0.3050
29375SOL    HW190132   3.737   6.414   4.123 -0.5441  2.6872 -0.3839
29375SOL    HW290133   3.640   6.372   4.231  1.0886  0.6486  0.3623
29376SOL     OW90134   9.206   5.742   7.912  1.0258  0.0502 -0.5779
29376SOL    HW190135   9.165   5.826   7.931  1.3982  0.5190 -1.7142
29376SOL    HW290136   9.272   5.762   7.846  1.3397 -1.0871 -0.6395
29377SOL     OW90137   1.021  10.677   2.147  0.3714 -0.2174 -0.1798
29377SOL    HW190138   1.079  10.604   2.166  0.4050  0.1285  1.1487
29377SOL    HW290139   1.080  10.751   2.133  0.4795 -0.7896 -3.7072
29378SOL     OW90140   2.597   1.004   3.202 -0.2477  0.4182 -0.4772
29378SOL    HW190141   2.585   0.980   3.294  2.6796 -2.0279 -0.5876
29378SOL    HW290142   2.546   0.939   3.154 -0.2128  0.5067 -0.6338
29379SOL     OW90143   7.826   2.023   9.999  0.5709  0.0618 -0.6150
29379SOL    HW190144   7.794   1.972   9.925  1.8158 -1.5257 -0.1057
29379SOL    HW290145   7.829   1.961  10.072 -2.3275  1.9603  1.3554
29380SOL     OW90146   7.355   7.312   0.623 -0.2907 -0.8910  0.5785
29380SOL    HW190147   7.434   7.306   0.568  0.8225  2.3505  1.5905
29380SOL    HW290148   7.386   7.292   0.711 -0.8131 -0.5672  0.8384
29381SOL     OW90149   5.425   7.651   9.231 -0.4426 -0.2944 -0.2680
29381SOL    HW190150   5.334   7.675   9.246 -0.9115 -2.5805  1.0558
29381SOL    HW290151   5.472   7.686   9.307 -0.6143 -0.9501  0.1499
29382SOL     OW90152   8.321   7.201   0.693 -0.1469  0.0415  0.1437
29382SOL    HW190153   8.276   7.185   0.610 -0.7613 -1.3806  0.7125
29382SOL    HW290154   8.267   7.266   0.738  0.5861  1.3737 -0.8503
29383SOL     OW90155  10.418   5.795   9.317  0.4324  0.2523 -0.1465
29383SOL    HW190156  10.363   5.871   9.339  0.2320 -0.2982  1.3601
29383SOL    HW290157  10.410   5.737   9.392  1.2537 -0.9012 -0.9152
29384SOL     OW90158   2.145   2.255   6.728 -0.0163  0.4496  0.4831
29384SOL    HW190159   2.156   2.324   6.794  0.3564  0.0385  0.8677
29384SOL    HW290160   2.234   2.222   6.715  0.0628  1.1516 -0.9331
29385SOL     OW90161   1.170   3.079  10.630 -0.5233  0.4276 -0.4859
29385SOL    HW190162   1.141   3.105  10.542  0.0127  0.6232 -0.6128
29385SOL    HW290163   1.131   3.144  10.688  1.1173  1.8083 -0.8395
29386SOL     OW90164   3.904   6.084   8.836 -0.2883 -0.4364 -0.6407
29386SOL    HW190165   3.980   6.030   8.858 -0.5364 -1.6015 -2.5407
29386SOL    HW290166   3.878   6.123   8.920  2.7811  0.5541 -0.0062
29387SOL     OW90167   7.254   0.891   4.042 -0.7207  0.3943  0.2454
29387SOL    HW190168   7.231   0.890   3.949 -0.0443 -0.5173  0.0716
29387SOL    HW290169   7.252   0.799   4.068  3.2248  0.0710  0.0111
29388SOL     OW90170   3.994   2.885   0.037 -0.5469  0.4451  0.3346
29388SOL    HW190171   4.001   2.799  -0.005 -2.0466 -0.4585  1.7790
29388SOL    HW290172   4.073   2.892   0.090 -0.6874 -0.3455  0.6736
29389SOL     OW90173   9.040   7.864   5.450  0.5728  0.4163 -0.1884
29389SOL    HW190174   8.974   7.911   5.399 -2.7159 -1.6502  1.8374
29389SOL    HW290175   9.060   7.923   5.523 -2.1642 -0.4164  1.3509
29390SOL     OW90176   3.864   1.805   4.689  0.0296 -0.1376 -0.0123
29390SOL    HW190177   3.866   1.847   4.604 -2.2566 -0.0137 -0.0524
29390SOL    HW290178   3.876   1.712   4.671 -2.9393 -0.4526 -0.8143
29391SOL     OW90179   7.873   1.243   5.576  0.0197  0.4352  0.7372
29391SOL    HW190180   7.910   1.284   5.655  1.2205  2.1587 -0.6354
29391SOL    HW290181   7.944   1.189   5.542 -0.6800 -0.7370  1.1070
29392SOL     OW90182   4.613   9.471   3.362 -0.6515  0.9083 -0.2766
29392SOL    HW190183   4.697   9.499   3.325 -0.0455  0.0208  0.3902
29392SOL    HW290184   4.566   9.433   3.288 -0.5274  1.5367 -0.6856
29393SOL     OW90185   0.642   6.445   3.325  0.0141 -0.1089 -0.3453
29393SOL    HW190186   0.701   6.437   3.400  0.7190 -1.6313 -1.0140
29393SOL    HW290187   0.613   6.356   3.307 -1.3545  0.4198 -0.9585
29394SOL     OW90188   9.175  10.871   6.656  0.7887 -0.6574 -0.0377
29394SOL    HW190189   9.175  10.966   6.668  1.0617 -0.8076  1.2701
29394SOL    HW290190   9.094  10.853   6.610  0.6164  0.1901 -0.0828
29395SOL     OW90191   6.138   1.612   0.740 -0.0297  1.0294  0.8313
29395SOL    HW190192   6.097   1.628   0.655 -0.2102 -2.3330  0.1699
29395SOL    HW290193   6.231   1.627   0.725 -0.0867  0.6753  0.1019
29396SOL     OW90194   3.305   9.378  10.226  0.4021 -0.1898  0.3893
29396SOL    HW190195   3.314   9.304  10.285 -0.0247 -1.6754 -1.3013
29396SOL    HW290196   3.236   9.432  10.264  0.4928 -0.8307  1.4858
29397SOL     OW90197   0.342  10.550   3.213 -0.1828  0.5536  0.0001
29397SOL    HW190198   0.325  10.473   3.158 -0.2458  2.5209 -2.9417
29397SOL    HW290199   0.438  10.555   3.218 -0.1843 -0.1529  0.9045
29398SOL     OW90200   8.085   1.226   8.836 -0.0009  0.3171  0.3146
29398SOL    HW190201   8.115   1.304   8.883 -1.8133  1.7436 -0.7830
29398SOL    HW290202   8.162   1.168   8.834  0.9750  1.4330  2.3986
29399SOL     OW90203   1.087   4.941   5.114 -0.7132  0.0189  0.2772
29399SOL    HW190204   1.098   4.954   5.208 -0.4368  1.3433  0.0876
29399SOL    HW290205   1.003   4.982   5.094 -0.5823  0.1071 -0.1053
29400SOL     OW90206   6.456   9.900   4.745 -0.3866  0.2368  0.1226
29400SOL    HW190207   6.538   9.940   4.715 -0.4039  0.5363  0.4746
29400SOL    HW290208   6.447   9.821   4.691 -0.6058  0.9535 -0.9093
29401SOL     OW90209   6.368   3.895   3.230 -0.2306 -0.0472  0.0642
29401SOL    HW190210   6.371   3.810   3.273 -2.2074 -0.0288  0.3257
29401SOL    HW290211   6.318   3.881   3.150 -1.2422  1.0008  0.4926
29402SOL     OW90212   5.669   5.931  10.671  0.3809 -0.2912 -0.0252
29402SOL    HW190213   5.694   5.920  10.763  1.7280 -1.3605 -0.4964
29402SOL    HW290214   5.697   6.020  10.650 -2.7512  1.1941  1.4032
29403SOL     OW90215   7.555   9.591   5.550 -0.1320 -0.1675 -0.6560
29403SOL    HW190216   7.511   9.572   5.467 -1.3668 -0.6294  0.0740
29403SOL    HW290217   7.509   9.538   5.615  0.7919  0.2004  0.3363
29404SOL     OW90218   0.011   8.590  10.984  0.6839  0.7663  0.8642
29404SOL    HW190219   0.044   8.564  10.898 -1.6009  1.7817 -0.4109
29404SOL    HW290220  -0.050   8.662  10.966 -1.3727 -0.2798  3.1138
29405SOL     OW90221  10.489   4.006   8.253  0.0780  0.1846  0.5319
29405SOL    HW190222  10.537   4.014   8.171  1.1443 -1.7175  0.9163
29405SOL    HW290223  10.454   4.094   8.269 -1.5929  0.2971 -2.7675
29406SOL     OW90224  10.841   9.349   0.931 -0.6503 -0.3655  0.1583
29406SOL    HW190225  10.864   9.427   0.982 -2.1406 -0.1230  0.5000
29406SOL    HW290226  10.813   9.286   0.997  3.7691 -2.5699  0.3137
29407SOL     OW90227   4.864   4.132   2.783 -0.0228  0.3228 -0.0824
29407SOL    HW190228   4.839   4.044   2.811 -1.2504  0.3790 -0.9178
29407SOL    HW290229   4.784   4.169   2.747  0.7007  1.4500 -0.5881
29408SOL     OW90230   5.375   8.279   3.286  0.1162 -0.4390 -0.4505
29408SOL    HW190231   5.343   8.273   3.376 -1.3715  0.3020 -0.8961
29408SOL    HW290232   5.431   8.356   3.286  2.5007 -2.0549  0.4691
29409SOL     OW90233   7.054   7.084   7.467 -0.4882  0.4863 -0.0726
29409SOL    HW190234   6.992   7.124   7.529 -0.3142 -0.8131  0.9852
29409SOL    HW290235   7.133   7.069   7.519  0.9894  2.5721 -1.5105
29410SOL     OW90236   7.085   3.216   7.951 -0.6767 -0.7779 -0.3443
29410SOL    HW190237   7.117   3.170   7.874 -1.2067 -1.5272 -0.1325
29410SOL    HW290238   7.129   3.301   7.949  1.9491 -2.0138  0.3628
29411SOL     OW90239   0.053   8.471  10.722  0.0698 -0.0209  0.1292
29411SOL    HW190240   0.030   8.476  10.629 -0.9582  0.1979  0.3763
29411SOL    HW290241   0.010   8.391  10.753  1.9795 -1.1286  0.0141
29412SOL     OW90242   8.052   2.176   8.289 -0.9699  0.0883 -0.4326
29412SOL    HW190243   8.136   2.131   8.284 -0.9018  0.2299 -0.5805
29412SOL    HW290244   8.025   2.165   8.380 -0.1170  1.2278  0.0004
29413SOL     OW90245  10.994   4.875   7.680  0.6007  0.2313  0.7073
29413SOL    HW190246  10.931   4.877   7.607  1.9073 -1.4463 -0.5442
29413SOL    HW290247  11.030   4.787   7.678  1.1234  0.3327  3.0600
29414SOL     OW90248   1.217   5.146   1.000  0.1442  0.2529  0.5229
29414SOL    HW190249   1.192   5.075   1.059 -2.8583  1.6353  1.0686
29414SOL    HW290250   1.211   5.109   0.912 -1.3846 -0.2096  0.8039
29415SOL     OW90251   3.659   9.819   8.806 -0.2143  0.1249  0.9122
29415SOL    HW190252   3.746   9.834   8.767 -0.4520  0.3135  0.4540
29415SOL    HW290253   3.629   9.737   8.765 -0.3095  0.1314  0.9708
29416SOL     OW90254   8.004   7.686   2.429 -0.2562 -0.0730  0.1696
29416SOL    HW190255   7.996   7.694   2.334  1.8725  2.2176  0.0987
29416SOL    HW290256   8.070   7.617   2.441 -0.9891 -0.8201  0.0576
29417SOL     OW90257   7.284   3.597   0.465 -0.5095  0.0132 -0.1467
29417SOL    HW190258   7.326   3.533   0.523 -0.5086 -0.8269 -1.0399
29417SOL    HW290259   7.230   3.544   0.406 -1.2490  0.9176 -0.3065
29418SOL     OW90260   5.829   9.803   8.970  0.0774 -0.5061 -0.6011
29418SOL    HW190261   5.857   9.783   9.059 -0.7581 -0.0360 -0.2290
29418SOL    HW290262   5.741   9.766   8.963  0.0172 -0.2758 -1.1332
29419SOL     OW90263   2.637   5.086   7.856  0.4879  0.7568  0.2327
29419SOL    HW190264   2.640   5.110   7.764 -1.4415 -0.1715 -0.1018
29419SOL    HW290265   2.681   5.159   7.901 -0.4642  2.2859 -1.2089
29420SOL     OW90266   2.585  10.494   9.101 -0.5365  0.2212  0.0946
29420SOL    HW190267   2.497  10.524   9.123 -0.7797 -0.0570 -0.4601
29420SOL    HW290268   2.599  10.418   9.157 -0.3270  0.7398  0.7585
29421SOL     OW90269   2.841   0.263   3.106  0.1542 -0.5274 -0.0327
29421SOL    HW190270   2.838   0.330   3.037 -0.2786 -1.0564 -0.5393
29421SOL    HW290271   2.843   0.313   3.187 -1.2247  0.1196 -0.3576
29422SOL     OW90272   8.613   5.131   7.144 -0.8257  0.4162 -0.8436
29422SOL    HW190273   8.596   5.043   7.110 -0.8363 -0.2247  0.7296
29422SOL    HW290274   8.537   5.150   7.200  0.7634 -0.0914  1.6610
29423SOL     OW90275   7.320   4.272   4.223  0.2808  0.1276  0.4237
29423SOL    HW190276   7.340   4.355   4.180  0.0375 -0.7274 -1.4168
29423SOL    HW290277   7.228   4.281   4.249 -0.5553 -0.4559 -2.0731
29424SOL     OW90278   0.347  10.828   5.591 -0.3218  0.2110  0.5353
29424SOL    HW190279   0.310  10.868   5.670 -0.5424 -0.3568  0.7282
29424SOL    HW290280   0.415  10.888   5.562  0.3474 -0.0004  1.6490
29425SOL     OW90281   4.036   3.492  10.042  0.0140 -0.7911 -0.3387
29425SOL    HW190282   4.093   3.448  10.104 -1.2563  0.1182  1.5576
29425SOL    HW290283   4.036   3.435   9.965  2.0368 -1.6929  0.2732
29426SOL     OW90284   6.250   6.885   8.525  0.1704 -0.1785  0.1680
29426SOL    HW190285   6.167   6.915   8.564  0.9856  0.3016  1.6036
29426SOL    HW290286   6.285   6.823   8.589  1.5255  0.5861  0.2011
29427SOL     OW90287   3.239   2.828  10.311  0.4196  0.4516 -0.2084
29427SOL    HW190288   3.168   2.880  10.346 -0.9870 -1.2010 -0.4776
29427SOL    HW290289   3.279   2.787  10.388 -1.2034 -1.3565 -0.2457
29428SOL     OW90290   5.833   2.702   8.253  0.3968 -0.4396  0.3441
29428SOL    HW190291   5.860   2.610   8.260  2.0147  0.0298  0.6440
29428SOL    HW290292   5.886   2.747   8.319 -0.2382  0.7472  0.0673
29429SOL     OW90293   7.514   3.194   7.977  0.0686 -0.3538  0.2374
29429SOL    HW190294   7.509   3.102   7.950  0.3190 -0.8123  1.6831
29429SOL    HW290295   7.454   3.201   8.050 -2.7842  1.5494 -2.0567
29430SOL     OW90296   0.675   6.841   0.913  0.7797  0.0786  0.4805
29430SOL    HW190297   0.731   6.893   0.970  0.7887 -0.6632  1.1806
29430SOL    HW290298   0.699   6.750   0.932 -0.8800 -0.2866  1.0730
29431SOL     OW90299   2.713   7.575   2.797 -0.5334 -0.2854  0.0243
29431SOL    HW190300   2.628   7.603   2.830 -1.0418 -2.2484  0.4666
29431SOL    HW290301   2.707   7.588   2.702 -1.1932 -0.0812  0.0873
29432SOL     OW90302   7.315   4.988   8.624 -0.1442 -0.0388  0.1866
29432SOL    HW190303   7.221   5.003   8.626 -0.3818 -1.1075  3.3755
29432SOL    HW290304   7.326   4.910   8.569 -1.2548 -0.4640  0.5471
29433SOL     OW90305   8.823   0.865   9.612  0.3363  0.2390 -0.2947
29433SOL    HW190306   8.759   0.932   9.636 -2.8313 -2.0512 -1.6507
29433SOL    HW290307   8.844   0.883   9.520  0.3691  0.0309 -0.3284
29434SOL     OW90308   5.971   7.889   5.115 -0.3988  0.0803 -0.7394
29434SOL    HW190309   5.886   7.882   5.071  1.3688 -3.8214 -4.2414
29434SOL    HW290310   5.969   7.818   5.180  0.2722 -0.3451 -1.1708
29435SOL     OW90311   6.664   1.345   8.706 -0.4719 -0.3484  0.2474
29435SOL    HW190312   6.753   1.374   8.724 -0.1411 -1.2154  0.0320
29435SOL    HW290313   6.641   1.386   8.623  0.1478 -1.0293 -0.2694
29436SOL     OW90314   2.972   6.119  10.751  0.7522 -0.6309 -0.4223
29436SOL    HW190315   2.946   6.066  10.827  0.4158  0.1496  0.0097
29436SOL    HW290316   2.943   6.068  10.676  0.0318 -0.8580 -0.0004
29437SOL     OW90317   1.943   7.123   8.244  0.2882  0.5740  0.2331
29437SOL    HW190318   1.921   7.159   8.158 -3.7887  0.0544  0.8486
29437SOL    HW290319   2.017   7.065   8.228  1.5214  2.6799 -2.3167
29438SOL     OW90320   5.088   2.465   5.666 -0.2319 -0.1407 -0.2451
29438SOL    HW190321   5.161   2.504   5.714  0.5608 -1.3879 -0.4128
29438SOL    HW290322   5.124   2.444   5.580 -0.7760 -0.7785 -0.3272
29439SOL     OW90323   6.732   5.429   4.408 -0.0064 -0.4717  0.0458
29439SOL    HW190324   6.649   5.390   4.435  0.1395 -0.1297  1.0152
29439SOL    HW290325   6.718   5.523   4.416 -0.1751 -0.3079 -1.7576
29440SOL     OW90326  10.522   4.405  10.994 -0.1272  0.1055 -0.2530
29440SOL    HW190327  10.584   4.476  10.974 -0.2510 -0.3222 -2.3898
29440SOL    HW290328  10.538   4.340  10.925 -3.8741  0.6132 -1.8318
29441SOL     OW90329   5.378   5.949   8.465 -0.1978  0.1202  0.3275
29441SOL    HW190330   5.436   5.880   8.498  1.1588  1.9987  2.1341
29441SOL    HW290331   5.298   5.903   8.441  1.3970 -2.3648 -0.6754
29442SOL     OW90332   1.689   1.197  10.348  0.3208  0.3931 -0.1903
29442SOL    HW190333   1.725   1.117  10.388  1.7206  0.7019 -0.8068
29442SOL    HW290334   1.749   1.218  10.277 -1.5727  0.4256 -1.8844
29443SOL     OW90335   9.086   4.503   8.903  0.5286 -0.1140 -0.6296
29443SOL    HW190336   9.124   4.591   8.905  1.7994 -0.5279 -2.8995
29443SOL    HW290337   9.007   4.512   8.851  0.7272 -0.3175 -0.9742
29444SOL     OW90338  10.231   3.348   9.864  0.0021 -0.1666 -0.3093
29444SOL    HW190339  10.202   3.403   9.937  0.4313 -2.1359  1.4489
29444SOL    HW290340  10.260   3.410   9.797  0.2235  1.7395  1.4557
29445SOL     OW90341   8.597   2.276  10.377 -0.3546  0.1919 -0.2803
29445SOL    HW190342   8.689   2.252  10.378 -0.6837 -1.2630  1.2919
29445SOL    HW290343   8.561   2.231  10.301  0.4698  2.0489 -1.8516
29446SOL     OW90344   5.693   2.768   1.210  0.5090  0.0387  0.0150
29446SOL    HW190345   5.616   2.777   1.266 -0.3575 -3.4336 -0.3882
29446SOL    HW290346   5.761   2.819   1.254 -1.1393  0.5582  2.1493
29447SOL     OW90347   9.169   4.718   4.811  0.2486 -0.1866  0.3598
29447SOL    HW190348   9.166   4.664   4.891 -0.6094 -0.5521  0.1027
29447SOL    HW290349   9.134   4.660   4.743 -2.5442  1.2633  0.4311
29448SOL     OW90350   6.142   6.311   4.202  0.3613 -0.1698 -0.0555
29448SOL    HW190351   6.176   6.390   4.160 -0.9350  0.3277 -0.2167
29448SOL    HW290352   6.101   6.342   4.283 -1.3763 -0.4512 -0.7802
29449SOL     OW90353   5.954   5.644   0.688  0.8557 -1.1880 -0.1842
29449SOL    HW190354   6.038   5.676   0.719 -0.3265  1.1393  0.8371
29449SOL    HW290355   5.939   5.563   0.738  1.9357 -0.9887  0.4784
29450SOL     OW90356   2.484   4.549  10.007 -0.1244 -0.3556  0.3808
29450SOL    HW190357   2.494   4.499  10.088 -2.1771  1.3902  1.8128
29450SOL    HW290358   2.561   4.605  10.003  1.7218 -2.7862 -0.7449
29451SOL     OW90359   5.261   1.758   6.179  0.6985 -0.7186 -0.9424
29451SOL    HW190360   5.176   1.760   6.135 -0.1579 -3.6099  0.3542
29451SOL    HW290361   5.242   1.788   6.269  1.1672 -0.8293 -0.8049
29452SOL     OW90362   2.376  10.162   8.931  0.1798  0.5463  0.4547
29452SOL    HW190363   2.310  10.212   8.979  0.1845  0.8509  0.1476
29452SOL    HW290364   2.446  10.225   8.914  0.6557  0.1721  0.9746
29453SOL     OW90365   9.097   0.217  10.691 -0.6056  0.2909 -0.2419
29453SOL    HW190366   9.063   0.129  10.704 -1.5882  0.5130 -1.1774
29453SOL    HW290367   9.047   0.271  10.753 -0.2753  0.2480  0.0612
29454SOL     OW90368   3.366   6.366   3.245  0.1749  0.3646  0.1740
29454SOL    HW190369   3.435   6.345   3.307 -0.6807  0.6858  1.2822
29454SOL    HW290370   3.410   6.415   3.175  1.1906 -0.1688  0.4257
29455SOL     OW90371   7.438  10.803   7.523 -0.1978  0.1783 -0.1964
29455SOL    HW190372   7.364  10.756   7.561 -0.2455 -0.3003 -0.8675
29455SOL    HW290373   7.446  10.768   7.435  2.2205 -1.4100  0.5642
29456SOL     OW90374   5.746  10.398   2.795 -0.0920  0.0763 -1.0215
29456SOL    HW190375   5.705  10.314   2.817 -0.1022  0.2407 -0.4036
29456SOL    HW290376   5.838  10.387   2.823 -0.1452  0.3459 -0.7308
29457SOL     OW90377   7.880   5.360  10.767  0.1762  0.6460 -0.5030
29457SOL    HW190378   7.903   5.413  10.844 -1.1735  0.1957  0.2468
29457SOL    HW290379   7.844   5.423  10.705 -0.9993  0.7128  0.2098
29458SOL     OW90380   7.896   8.449   9.317  0.6866 -0.4074 -0.1719
29458SOL    HW190381   7.926   8.358   9.318  0.3469 -0.5171  0.2446
29458SOL    HW290382   7.970   8.498   9.280  0.5363 -0.9632 -1.2654
29459SOL     OW90383   2.969   4.971   7.862  0.0298  0.0531 -0.2834
29459SOL    HW190384   3.017   5.036   7.810  0.2049 -0.0221 -0.2193
29459SOL    HW290385   2.946   4.903   7.800  1.0856 -0.5101 -0.0942
29460SOL     OW90386   9.841  10.653   9.668  0.2060  0.4939 -0.1031
29460SOL    HW190387   9.927  10.656   9.708  0.7724 -1.5206 -1.0331
29460SOL    HW290388   9.780  10.644   9.742  1.1073 -1.6054  0.4699
29461SOL     OW90389   2.237   7.645  10.465  0.5022  0.1920  0.9319
29461SOL    HW190390   2.199   7.704  10.530 -0.7297 -1.3898  1.7272
29461SOL    HW290391   2.167   7.582  10.446  0.9797  0.2966 -1.5983
29462SOL     OW90392   8.769   1.046   7.427 -0.5508 -0.3868  0.2200
29462SOL    HW190393   8.815   0.969   7.461  0.6670 -0.5755 -1.6766
29462SOL    HW290394   8.700   1.064   7.491 -0.7575 -2.9340  0.7893
29463SOL     OW90395   4.353   8.588   9.022  0.0566  0.2904  0.4584
29463SOL    HW190396   4.366   8.587   9.117  0.4541  0.4593  0.4057
29463SOL    HW290397   4.375   8.677   8.995 -1.6158  0.7314  0.4175
29464SOL     OW90398   3.589   0.571   4.010 -0.1120  0.2564  0.1744
29464SOL    HW190399   3.580   0.529   4.096 -0.6596 -2.1800 -0.9728
29464SOL    HW290400   3.615   0.661   4.030 -1.2797  0.1003  2.9086
29465SOL     OW90401   4.632   6.834   3.133  0.4429 -0.3915 -0.2159
29465SOL    HW190402   4.637   6.912   3.078 -2.0774 -1.7913 -2.7027
29465SOL    HW290403   4.687   6.770   3.087  0.4264 -0.8438  0.3861
29466SOL     OW90404  10.788   5.200   5.640 -0.4547 -0.6423  0.3925
29466SOL    HW190405  10.872   5.159   5.661 -1.1277 -2.5379 -0.3759
29466SOL    HW290406  10.755   5.232   5.724  0.1466 -1.6770  1.0537
29467SOL     OW90407   1.257   3.633   6.219 -0.0751 -0.5543 -0.1497
29467SOL    HW190408   1.232   3.628   6.127 -1.9564 -0.3047  0.3126
29467SOL    HW290409   1.296   3.719   6.229 -4.5881  1.7533  0.2421
29468SOL     OW90410   9.305   9.074   2.637  0.6369 -0.2289  0.1604
29468SOL    HW190411   9.320   9.001   2.698  1.3645 -1.0613 -0.9605
29468SOL    HW290412   9.225   9.049   2.590  0.2177  0.2850  0.6024
29469SOL     OW90413   6.197   2.998   8.489  0.0651  0.6865  0.6001
29469SOL    HW190414   6.200   3.033   8.579  0.5586 -0.0797  0.8861
29469SOL    HW290415   6.271   2.939   8.484 -1.8200 -1.8489  0.7641
29470SOL     OW90416   0.453   4.135   9.041 -0.5024  0.0234 -0.4406
29470SOL    HW190417   0.366   4.096   9.038 -1.9666  3.1191 -1.4297
29470SOL    HW290418   0.477   4.147   8.949  0.7268 -0.1804 -0.1678
29471SOL     OW90419   6.522   3.085   8.851  0.0243  0.1228  0.4491
29471SOL    HW190420   6.545   2.992   8.859 -0.1555 -0.1461 -1.7586
29471SOL    HW290421   6.573   3.128   8.920  0.0848 -1.5959  1.5413
29472SOL     OW90422   8.336  10.002   9.777  0.6413  0.1788  0.6913
29472SOL    HW190423   8.403  10.022   9.712  0.5988 -0.0473  0.5734
29472SOL    HW290424   8.366  10.043   9.857 -0.5377  2.6494 -0.0382
29473SOL     OW90425   6.948   9.352   3.169  0.1877 -0.1826  0.2127
29473SOL    HW190426   6.853   9.360   3.184  0.2359  1.7420 -0.2200
29473SOL    HW290427   6.955   9.313   3.081 -0.2296  0.6262 -0.1895
29474SOL     OW90428   5.821   8.215   9.875  0.4493  0.1082 -0.1747
29474SOL    HW190429   5.833   8.284   9.941  1.5334  1.2598 -1.5181
29474SOL    HW290430   5.908   8.177   9.864 -0.3733 -2.4712  1.5108
29475SOL     OW90431   7.858   0.100   8.709 -0.2221  0.8122  0.1911
29475SOL    HW190432   7.890   0.014   8.735  0.5610  0.9315 -0.3470
29475SOL    HW290433   7.910   0.123   8.632 -1.0439  1.3801 -0.2070
29476SOL     OW90434  10.800   8.623   9.678  0.4354  0.3009  0.7331
29476SOL    HW190435  10.772   8.547   9.628 -1.9990 -0.4028  2.9105
29476SOL    HW290436  10.792   8.696   9.617  1.4233 -0.9666 -0.9883
29477SOL     OW90437   2.140   5.103   2.626  0.3941 -0.1088 -0.1805
29477SOL    HW190438   2.060   5.088   2.676 -0.3126  0.5095 -1.0968
29477SOL    HW290439   2.159   5.018   2.586 -1.0316  0.2367 -1.6825
29478SOL     OW90440   5.928   2.109   0.625  0.1785 -0.6242  0.2054
29478SOL    HW190441   5.997   2.103   0.559  0.8672  0.2900  0.8295
29478SOL    HW290442   5.862   2.045   0.596  0.0594  0.3563 -1.8454
29479SOL     OW90443   7.946   9.793   3.309 -0.4497  0.2415 -0.4454
29479SOL    HW190444   7.919   9.882   3.285  0.3929  1.5071  2.7937
29479SOL    HW290445   7.879   9.763   3.370 -0.1380 -0.9043 -0.6455
29480SOL     OW90446   2.316   6.187   6.887 -0.1123 -0.1696  0.0296
29480SOL    HW190447   2.277   6.110   6.845  2.7858 -3.0680  2.2082
29480SOL    HW290448   2.297   6.176   6.980 -1.3889  2.9843  0.2606
29481SOL     OW90449   1.681   3.705  10.844  0.0524 -0.1531 -0.4157
29481SOL    HW190450   1.678   3.628  10.900  2.2373 -1.2012 -1.6173
29481SOL    HW290451   1.712   3.775  10.901  3.1961 -1.4141 -0.3743
29482SOL     OW90452  10.456   0.641   6.300 -0.2748 -0.2309  0.8577
29482SOL    HW190453  10.429   0.549   6.293 -0.2841 -0.1597 -0.1925
29482SOL    HW290454  10.374   0.690   6.301 -0.3522 -0.3004  3.2123
29483SOL     OW90455   8.538   9.212   3.693  0.3447 -0.0777  0.1590
29483SOL    HW190456   8.585   9.294   3.711 -1.1400  0.9136 -0.3087
29483SOL    HW290457   8.499   9.188   3.777  1.2504 -0.6400  0.4329
29484SOL     OW90458   9.523   3.983   3.470 -0.0186 -0.4984  0.0369
29484SOL    HW190459   9.462   4.006   3.540 -0.7163 -2.3524  0.0987
29484SOL    HW290460   9.499   4.041   3.398 -1.3817 -0.6724  0.3159
29485SOL     OW90461  10.907   2.009   2.586  0.8306  0.6592  0.0640
29485SOL    HW190462  10.960   1.931   2.574 -0.6830 -0.7594  1.8863
29485SOL    HW290463  10.872   2.029   2.499  0.0776 -1.6142 -0.1989
29486SOL     OW90464   2.855   2.294   9.426  0.0176 -0.4228  0.4163
29486SOL    HW190465   2.799   2.328   9.357  1.5651  0.3181 -0.5316
29486SOL    HW290466   2.804   2.224   9.466 -1.5292  0.1486 -0.4465
29487SOL     OW90467   0.754   0.305   9.586  0.1415 -0.4252 -0.1859
29487SOL    HW190468   0.750   0.258   9.670  1.4011 -1.6456 -0.7814
29487SOL    HW290469   0.832   0.271   9.543  1.0398  2.1091 -0.7325
29488SOL     OW90470   5.163   4.291   0.886 -0.3327 -0.0700  0.5834
29488SOL    HW190471   5.257   4.289   0.903 -0.1720  1.2535  0.0135
29488SOL    HW290472   5.150   4.232   0.812  0.3367  0.9870 -0.4274
29489SOL     OW90473   3.674   3.609   0.063 -0.0994  0.1604  0.3403
29489SOL    HW190474   3.704   3.555  -0.010 -0.9851  1.0900 -0.7579
29489SOL    HW290475   3.613   3.553   0.112  0.5477 -0.4907  0.4126
29490SOL     OW90476   9.006   3.148   3.485 -0.1774 -0.0192 -0.1276
29490SOL    HW190477   9.016   3.240   3.458 -0.6093 -0.0058 -0.2373
29490SOL    HW290478   9.032   3.098   3.407 -0.1272  0.0117 -0.1307
29491SOL     OW90479   2.014   9.159   5.421  0.3254  0.1230 -0.5898
29491SOL    HW190480   2.031   9.113   5.504  1.2903  1.3766 -0.0642
29491SOL    HW290481   2.095   9.149   5.371  0.4574  1.0123 -0.5723
29492SOL     OW90482   9.318   1.511   1.487  0.4481 -0.6212  0.1548
29492SOL    HW190483   9.249   1.473   1.541  1.8732 -1.9269  1.1437
29492SOL    HW290484   9.374   1.437   1.464  1.9537  0.5072  0.0590
29493SOL     OW90485   2.634   6.790   0.196 -0.0713 -0.2555 -0.6967
29493SOL    HW190486   2.570   6.721   0.181  1.3825 -1.7125 -0.4510
29493SOL    HW290487   2.590   6.850   0.257 -0.5751 -2.1941  0.9794
29494SOL     OW90488   5.956   2.017  10.737 -0.1297  0.9905  0.0738
29494SOL    HW190489   5.927   2.096  10.691  1.0226  2.5203  1.8513
29494SOL    HW290490   5.899   2.012  10.814  0.4706  0.6626  0.4961
29495SOL     OW90491   1.277   8.585  10.701 -0.1449  0.8752  0.2839
29495SOL    HW190492   1.321   8.505  10.673  0.3534  1.4468 -0.6229
29495SOL    HW290493   1.187   8.558  10.718  0.3825 -0.1945  1.5895
29496SOL     OW90494   9.145   6.669   6.759  0.3596  0.5954 -0.3274
29496SOL    HW190495   9.054   6.656   6.787  0.8187  1.8964  2.0398
29496SOL    HW290496   9.147   6.759   6.727  0.8787  0.7235  0.0499
29497SOL     OW90497  10.761   0.134   1.845 -0.5218  0.0931  0.3941
29497SOL    HW190498  10.766   0.173   1.932 -0.2263  1.3216 -0.1506
29497SOL    HW290499  10.846   0.092   1.832 -1.1860 -1.6278  1.3691
29498SOL     OW90500   7.005   1.424   5.044  0.4614  0.1281 -0.0925
29498SOL    HW190501   7.091   1.384   5.030  0.6665  0.5639 -0.1075
29498SOL    HW290502   6.952   1.393   4.972  1.5817  2.5978 -2.1358
29499SOL     OW90503   1.964   4.275   3.465 -0.4511  0.3832  0.0793
29499SOL    HW190504   2.032   4.229   3.415 -2.0481  0.0499 -1.9457
29499SOL    HW290505   1.899   4.208   3.485 -2.5034  1.4704 -2.3522
29500SOL     OW90506  10.700  10.674  10.162  0.0503  0.4933 -0.5979
29500SOL    HW190507  10.685  10.742  10.096 -0.4160 -1.0426 -2.1390
29500SOL    HW290508  10.794  10.655  10.156  0.0160  0.3853 -0.7961
29501SOL     OW90509   0.228   0.547  10.152  0.1284  0.7254  0.1646
29501SOL    HW190510   0.138   0.570  10.175  0.0537 -2.1352  3.6416
29501SOL    HW290511   0.280   0.572  10.229  1.8875  0.0083 -0.7206
29502SOL     OW90512   6.439   4.023   3.971 -0.0565  0.0355 -0.0540
29502SOL    HW190513   6.459   4.001   4.062  1.0257 -1.3083 -0.5759
29502SOL    HW290514   6.372   4.091   3.976 -2.1296 -2.0001  1.7100
29503SOL     OW90515   0.994   0.908   3.765  0.0793 -0.0780 -0.1436
29503SOL    HW190516   0.993   0.867   3.852  0.6895  2.8529  1.3981
29503SOL    HW290517   0.913   0.959   3.761  0.3140  0.2462 -1.0693
29504SOL     OW90518   9.104   5.881   4.631  0.6981 -0.0566 -0.0860
29504SOL    HW190519   9.148   5.898   4.548 -1.1454  0.5125 -0.9971
29504SOL    HW290520   9.015   5.914   4.619 -0.2342 -1.8065  1.4013
29505SOL     OW90521   1.231  10.795   2.365  0.0301 -0.3637  0.3517
29505SOL    HW190522   1.258  10.860   2.430 -0.0129  0.0347 -0.0252
29505SOL    HW290523   1.256  10.832   2.281 -1.5888 -0.0069 -0.0189
29506SOL     OW90524  10.755   6.509   7.621  0.3571 -0.2045 -0.0538
29506SOL    HW190525  10.806   6.558   7.556 -2.5690  2.1929 -0.7980
29506SOL    HW290526  10.714   6.577   7.674 -0.7207 -2.0435  1.5877
29507SOL     OW90527   7.684   2.639   7.254 -0.4017 -0.2765  0.7132
29507SOL    HW190528   7.717   2.684   7.177 -0.3751  1.1115  1.5063
29507SOL    HW290529   7.608   2.590   7.223 -0.7386  0.7205 -0.0823
29508SOL     OW90530   4.334   8.521   0.295 -0.0278  0.1477 -0.3543
29508SOL    HW190531   4.262   8.492   0.352 -0.7704  0.7233 -0.9766
29508SOL    HW290532   4.306   8.607   0.262  1.1872  0.6266 -0.1961
29509SOL     OW90533   3.055   2.524   3.254  0.0648  0.0836  0.1534
29509SOL    HW190534   3.027   2.435   3.234  1.0788  0.2196 -2.2203
29509SOL    HW290535   2.987   2.581   3.218  1.2219  0.2987 -1.8644
29510SOL     OW90536  10.337   4.454   5.451 -0.4938  0.3550  0.3038
29510SOL    HW190537  10.349   4.359   5.455 -1.6705  0.1294 -0.8472
29510SOL    HW290538  10.255   4.469   5.498 -0.4311  0.7686  0.2814
29511SOL     OW90539   8.689   2.362   3.033  0.8808 -0.3785  0.1226
29511SOL    HW190540   8.692   2.312   2.951  0.2033  1.1440 -0.8567
29511SOL    HW290541   8.629   2.434   3.016 -0.7098 -0.9934  2.5383
29512SOL     OW90542   9.136   4.170   7.019 -0.4659  0.8817  0.7350
29512SOL    HW190543   9.205   4.212   7.070  0.7460  0.4126 -0.4567
29512SOL    HW290544   9.143   4.077   7.042  0.5715  0.5543 -0.7556
29513SOL     OW90545   6.314   1.763   7.748  0.5538  0.1062 -1.0582
29513SOL    HW190546   6.287   1.707   7.820  2.3897 -0.2852 -0.6131
29513SOL    HW290547   6.243   1.825   7.737 -0.2663 -0.5522  0.3232
29514SOL     OW90548   9.306   7.238   3.061 -0.0815  0.2092 -0.3615
29514SOL    HW190549   9.347   7.185   2.993  1.3297  1.3715 -0.4581
29514SOL    HW290550   9.225   7.271   3.021 -1.0676 -1.8940 -0.2607
29515SOL     OW90551   6.500   4.079   6.292  0.3612  0.1991 -0.5585
29515SOL    HW190552   6.493   4.159   6.241 -0.3678  0.0288 -0.7449
29515SOL    HW290553   6.410   4.046   6.297  0.1674  0.9096  1.9658
29516SOL     OW90554   9.042   0.766   6.114  0.7180 -0.2600 -0.3019
29516SOL    HW190555   8.975   0.751   6.047  0.7554 -1.2069 -0.1369
29516SOL    HW290556   9.103   0.827   6.073  0.3783 -0.3000 -0.8842
29517SOL     OW90557   5.929   0.255   2.654 -0.2087  0.9582  0.4975
29517SOL    HW190558   5.877   0.205   2.591  2.3395 -3.6128  1.5992
29517SOL    HW290559   5.887   0.238   2.739  0.8615  0.3346  0.9266
29518SOL     OW90560   7.986   8.014   7.642  0.8143 -0.1914  0.1453
29518SOL    HW190561   8.029   8.099   7.650  0.2111 -0.0605  2.5776
29518SOL    HW290562   8.055   7.956   7.608  2.2285  0.5429  1.6472
29519SOL     OW90563   5.700   8.182   9.572 -0.2557  0.1470  0.0047
29519SOL    HW190564   5.706   8.189   9.667 -0.0753 -0.9226  0.0906
29519SOL    HW290565   5.662   8.095   9.557 -0.0807  0.2165 -0.9049
29520SOL     OW90566   9.473   1.633   5.249 -0.1156  0.1944  0.4551
29520SOL    HW190567   9.422   1.654   5.171  0.3104  1.6784  0.5388
29520SOL    HW290568   9.539   1.571   5.219  1.3179  2.2304 -0.8788
29521SOL     OW90569   2.059   4.724  10.072  0.1399 -0.3822 -0.2369
29521SOL    HW190570   1.992   4.726  10.004  0.2974  0.6750 -0.3669
29521SOL    HW290571   2.030   4.787  10.137 -0.6699 -2.2725  1.3499
29522SOL     OW90572   6.609   0.384   6.420 -0.0648  1.1628 -0.0507
29522SOL    HW190573   6.547   0.317   6.391 -0.4458  2.1602 -1.6190
29522SOL    HW290574   6.662   0.340   6.487 -0.5185 -0.5962 -0.7972
29523SOL     OW90575   4.014   0.674   9.547 -0.1216 -0.6171  0.1734
29523SOL    HW190576   4.019   0.616   9.623  1.8118  0.7291  1.1608
29523SOL    HW290577   4.001   0.761   9.583  1.7530  0.1845 -0.9199
29524SOL     OW90578   2.770   2.361   4.351  0.3328  0.2470 -0.0696
29524SOL    HW190579   2.821   2.431   4.312  0.0310 -0.0853 -1.0764
29524SOL    HW290580   2.792   2.364   4.444 -0.6988  2.5546  0.1592
29525SOL     OW90581   4.180   6.232   2.263 -0.0873  1.2024 -0.3434
29525SOL    HW190582   4.271   6.228   2.232  0.5708 -2.1853  1.5252
29525SOL    HW290583   4.188   6.248   2.357 -1.1572 -1.7221  0.3470
29526SOL     OW90584   7.048   1.827   5.843 -0.1786  0.3795  0.4229
29526SOL    HW190585   7.134   1.855   5.814 -0.1284  0.7457  0.8997
29526SOL    HW290586   7.038   1.738   5.809 -0.5554  1.1405 -1.5855
29527SOL     OW90587   5.156   3.218   4.207  0.3886  0.1228 -0.1892
29527SOL    HW190588   5.111   3.257   4.282  1.4503 -0.5140  0.7898
29527SOL    HW290589   5.144   3.283   4.137  0.8693  1.5636  1.0000
29528SOL     OW90590   6.619  11.045   3.142  0.2307 -0.0200  0.0583
29528SOL    HW190591   6.542  11.053   3.085 -0.7866  0.3562  1.4162
29528SOL    HW290592   6.608  10.959   3.185  1.1836 -0.4711 -0.5782
29529SOL     OW90593   6.845   3.132  10.041  0.2116 -0.0803 -0.4510
29529SOL    HW190594   6.767   3.145  10.095  1.1800  1.3979  0.6687
29529SOL    HW290595   6.910   3.190  10.078  1.8071 -1.0981 -1.5072
29530SOL     OW90596   6.710   3.435   6.531  0.8695  0.1464 -0.3976
29530SOL    HW190597   6.640   3.483   6.574 -0.5286 -2.3512  0.3180
29530SOL    HW290598   6.671   3.404   6.449  0.8377 -1.7791  0.2830
29531SOL     OW90599   1.737   5.062   6.420  0.4173  0.3885  0.2555
29531SOL    HW190600   1.657   5.109   6.442 -0.7879 -1.7394  0.7443
29531SOL    HW290601   1.788   5.060   6.501 -0.4979 -0.8602  0.8427
29532SOL     OW90602   9.142  10.723   4.450 -0.0394  0.1026  0.6861
29532SOL    HW190603   9.213  10.662   4.428  0.5306  0.3152  1.8288
29532SOL    HW290604   9.063  10.681   4.418  0.5478 -0.4092 -0.1138
29533SOL     OW90605   8.801  10.263   9.072  0.3263  0.1941  0.3739
29533SOL    HW190606   8.710  10.277   9.046  0.1919  0.5253  0.9983
29533SOL    HW290607   8.819  10.172   9.050 -0.5489 -0.2449  1.3782
29534SOL     OW90608   4.380   4.351   9.377 -0.3960  0.6710 -0.2441
29534SOL    HW190609   4.321   4.276   9.387  0.3013  0.0741 -0.5678
29534SOL    HW290610   4.368   4.401   9.457 -0.1665 -0.2866  0.4046
29535SOL     OW90611   1.104   5.302   1.770 -0.6146  0.1482  0.4183
29535SOL    HW190612   1.032   5.266   1.820 -0.7838  0.0367  0.0929
29535SOL    HW290613   1.166   5.230   1.760 -0.3119  0.3250  0.9605
29536SOL     OW90614   0.402   0.441   7.122  0.0813 -0.4736  0.1234
29536SOL    HW190615   0.485   0.396   7.104 -0.1498 -2.1914  2.7721
29536SOL    HW290616   0.427   0.516   7.176 -0.0951 -1.4589  1.6276
29537SOL     OW90617   2.472   8.349   3.307  0.4629  0.0678 -0.1304
29537SOL    HW190618   2.414   8.424   3.294  0.4173 -0.2167 -1.8680
29537SOL    HW290619   2.524   8.345   3.226  0.0741 -2.0787 -0.3335
29538SOL     OW90620   1.909   9.152   8.211  0.1561 -0.2879 -0.2933
29538SOL    HW190621   1.816   9.160   8.228  0.0357 -0.4053 -0.8610
29538SOL    HW290622   1.915   9.143   8.115  0.7864  0.3162 -0.3151
29539SOL     OW90623   0.614   7.689   2.745 -0.4538 -0.4444  0.0289
29539SOL    HW190624   0.527   7.722   2.723 -0.6535 -0.7144  0.4120
29539SOL    HW290625   0.626   7.712   2.837 -0.6011 -1.4502  0.3072
29540SOL     OW90626   9.447   5.491   8.472  0.1883 -0.1178  0.9973
29540SOL    HW190627   9.452   5.551   8.547  1.1642 -0.3912  1.1706
29540SOL    HW290628   9.394   5.418   8.503 -0.9848  0.6146  0.7972
29541SOL     OW90629   6.070   4.581   4.789  0.3187  0.1193 -1.2697
29541SOL    HW190630   6.144   4.531   4.824 -0.2712 -0.7578 -1.2650
29541SOL    HW290631   6.079   4.668   4.829 -1.3442 -1.2892  2.6703
29542SOL     OW90632   6.339   8.202   3.042 -0.0558 -1.0332  0.5673
29542SOL    HW190633   6.333   8.126   2.984  1.5633  0.6826 -2.0384
29542SOL    HW290634   6.419   8.246   3.015 -1.0239  1.7033  1.8525
29543SOL     OW90635  10.494   1.896   5.217 -0.2137  0.2112  0.0389
29543SOL    HW190636  10.559   1.967   5.211 -0.0401  0.4170  2.7948
29543SOL    HW290637  10.505   1.863   5.306 -2.1009 -1.5539 -0.3365
29544SOL     OW90638   0.477   5.471   2.765  0.4658  0.5916 -0.4266
29544SOL    HW190639   0.437   5.423   2.692  0.6645 -1.2732  0.6088
29544SOL    HW290640   0.404   5.519   2.805  0.3413  1.5583 -1.7648
29545SOL     OW90641   4.851   3.345   1.888  0.0963 -0.1197 -0.0711
29545SOL    HW190642   4.887   3.384   1.967  2.0125 -1.1266 -0.3715
29545SOL    HW290643   4.809   3.264   1.917 -0.5165  0.2580  0.0942
29546SOL     OW90644   4.168   1.356   5.431 -0.5498 -1.1637 -0.2313
29546SOL    HW190645   4.076   1.382   5.443  0.2397  2.0519 -0.2883
29546SOL    HW290646   4.176   1.342   5.337 -0.4532  1.1965 -0.6285
29547SOL     OW90647   7.709   0.008   9.384  0.2585 -1.0739 -0.1172
29547SOL    HW190648   7.795   0.017   9.341  0.4932 -0.6240  0.4349
29547SOL    HW290649   7.728  -0.031   9.469 -0.0617 -0.7788  0.0925
29548SOL     OW90650   5.155   7.711   2.296  0.0047 -0.1194  0.4447
29548SOL    HW190651   5.122   7.744   2.213  0.1437 -1.7247 -0.2926
29548SOL    HW290652   5.079   7.709   2.354  0.3367  3.1872  1.1617
29549SOL     OW90653   7.297   9.840   7.264  0.1366 -0.0171 -0.0511
29549SOL    HW190654   7.217   9.816   7.218 -0.4853  0.5257  0.7168
29549SOL    HW290655   7.292   9.791   7.347  0.9140 -0.4707 -0.2595
29550SOL     OW90656  10.792   3.117   2.116  0.2213  0.3213 -0.0008
29550SOL    HW190657  10.829   3.033   2.090 -2.6417 -1.1057  0.1430
29550SOL    HW290658  10.818   3.178   2.047  1.0786 -1.0344 -0.9028
29551SOL     OW90659   3.627   0.643   1.782  0.3800 -0.1320  0.4799
29551SOL    HW190660   3.676   0.628   1.701  0.0718 -0.8824  0.4197
29551SOL    HW290661   3.685   0.612   1.851  0.0867 -0.8131  0.4265
29552SOL     OW90662  10.193   1.845   5.418 -0.4741 -0.6831  0.2003
29552SOL    HW190663  10.247   1.899   5.475 -0.4358 -2.3473  1.8336
29552SOL    HW290664  10.135   1.798   5.478 -1.3688 -1.4979 -1.2552
29553SOL     OW90665   1.817   0.573   4.691  0.3806  0.3721 -0.3109
29553SOL    HW190666   1.723   0.587   4.680  0.1260 -1.4650 -0.7562
29553SOL    HW290667   1.837   0.615   4.775 -0.0411  4.0221 -1.8299
29554SOL     OW90668   6.794   6.306   2.245  0.0255  0.0630  0.0928
29554SOL    HW190669   6.839   6.329   2.327  0.1616 -0.0696  0.0558
29554SOL    HW290670   6.720   6.252   2.273 -1.2166  1.7962  0.3274
29555SOL     OW90671   5.248   1.050   4.949 -0.4382 -0.2618  0.0433
29555SOL    HW190672   5.210   1.038   4.862  0.3820  0.0978 -0.3763
29555SOL    HW290673   5.287   0.965   4.971  0.4974  0.0057 -0.5191
29556SOL     OW90674   1.946   3.708  10.718  0.1942  0.3934 -0.0673
29556SOL    HW190675   2.007   3.683  10.788 -0.8630  0.5060  0.9315
29556SOL    HW290676   1.860   3.682  10.751 -0.2314 -0.6342 -1.8544
29557SOL     OW90677   6.662   2.186   8.223 -0.3327  0.6165  0.7483
29557SOL    HW190678   6.644   2.117   8.287 -0.7366  2.4794  2.7591
29557SOL    HW290679   6.607   2.164   8.148  0.8642 -2.1586  0.5721
29558SOL     OW90680   1.759   2.611   0.922 -0.2092  0.0486 -0.4194
29558SOL    HW190681   1.825   2.647   0.863  0.8452  2.3224  1.9170
29558SOL    HW290682   1.686   2.673   0.916  0.1734  0.6931  1.0148
29559SOL     OW90683  10.121   3.131   8.189 -0.5249  0.2079  0.5341
29559SOL    HW190684  10.175   3.182   8.249  0.9984 -1.0165  0.2595
29559SOL    HW290685  10.150   3.041   8.200 -1.9383 -0.3920 -0.2620
29560SOL     OW90686   4.097   9.301   5.023 -0.0060 -0.5071  0.6925
29560SOL    HW190687   4.181   9.337   4.994  0.2192  1.1609  3.0636
29560SOL    HW290688   4.116   9.210   5.045  0.4230 -1.0156 -1.5413
29561SOL     OW90689  10.609   6.456   3.657  0.0017  0.0423 -0.4218
29561SOL    HW190690  10.614   6.434   3.565 -1.7265 -0.8086 -0.3443
29561SOL    HW290691  10.633   6.549   3.661  0.3745  0.0091 -1.6723
29562SOL     OW90692   5.846   0.201   9.596 -0.3125 -0.3897  0.3602
29562SOL    HW190693   5.904   0.276   9.612  0.6679 -1.0078 -0.2244
29562SOL    HW290694   5.855   0.184   9.502 -0.9215 -0.9195  0.3974
29563SOL     OW90695  10.218   3.624   5.044 -0.2620 -0.2965  0.5206
29563SOL    HW190696  10.212   3.719   5.048  0.8984 -0.2508  3.4517
29563SOL    HW290697  10.287   3.607   4.980 -1.7912  0.6803 -1.4881
29564SOL     OW90698   8.866   5.883   3.046 -0.3702  0.4804 -0.0866
29564SOL    HW190699   8.831   5.972   3.044 -1.5350  0.0383 -0.3810
29564SOL    HW290700   8.795   5.829   3.011 -0.3093 -0.7849  1.6386
29565SOL     OW90701   1.456  10.329   2.265  0.3576  0.8085  0.2448
29565SOL    HW190702   1.402  10.393   2.311 -0.0060  1.3955 -0.9537
29565SOL    HW290703   1.456  10.358   2.174  0.5884 -0.6288 -0.2476
29566SOL     OW90704   3.035  10.552   1.865  0.5490 -0.0284  0.8202
29566SOL    HW190705   3.022  10.603   1.784 -0.6484  0.2945  1.1978
29566SOL    HW290706   3.115  10.502   1.849  1.4650  1.5557  0.2172
29567SOL     OW90707  10.284   3.120   9.645  0.1212 -0.1125 -0.2315
29567SOL    HW190708  10.335   3.135   9.725  0.1336 -0.5140 -0.1579
29567SOL    HW290709  10.325   3.043   9.606 -1.0175 -1.0417  0.3249
29568SOL     OW90710   0.709   9.457   8.842  0.1649  0.5023 -0.0859
29568SOL    HW190711   0.761   9.437   8.919 -0.2808  1.0700  0.3652
29568SOL    HW290712   0.627   9.494   8.876 -1.1045 -1.5157 -0.6992
29569SOL     OW90713   2.479   5.312   4.385  0.1409 -0.4426  0.5900
29569SOL    HW190714   2.446   5.394   4.420 -1.5638 -0.6040 -0.5205
29569SOL    HW290715   2.441   5.306   4.297 -1.4027 -3.2693  1.3102
29570SOL     OW90716   0.197   7.580  10.178  0.3668  0.1642  0.6235
29570SOL    HW190717   0.181   7.490  10.205  1.0719  0.6060  2.6873
29570SOL    HW290718   0.264   7.612  10.239  0.8061  1.8078 -0.6453
29571SOL     OW90719   4.896   0.267   5.300 -0.9099  0.0633 -0.7675
29571SOL    HW190720   4.814   0.297   5.262 -1.0825  0.2912 -0.2305
29571SOL    HW290721   4.954   0.343   5.297 -1.2551  0.3859  0.3339
29572SOL     OW90722   5.550  10.208   5.310  0.0003 -0.2611 -0.0034
29572SOL    HW190723   5.606  10.162   5.372  0.6913  2.0516  1.1973
29572SOL    HW290724   5.596  10.289   5.290 -2.4370  1.3392  0.3424
29573SOL     OW90725   5.726   5.973   7.602 -0.1026  0.2336  0.0705
29573SOL    HW190726   5.810   5.937   7.629  0.4602  1.9790  0.7692
29573SOL    HW290727   5.664   5.900   7.613  1.2419 -1.0042 -0.2307
29574SOL     OW90728   7.371   1.775   8.522  0.2318 -0.3230  0.2199
29574SOL    HW190729   7.286   1.818   8.532  0.3345 -0.1820  0.5395
29574SOL    HW290730   7.361   1.691   8.566  0.4713 -0.0003  0.9172
29575SOL     OW90731   2.793   9.171   2.216  0.3059 -0.4868 -0.4195
29575SOL    HW190732   2.708   9.216   2.210  0.4033 -0.2245  0.1252
29575SOL    HW290733   2.774   9.082   2.187 -0.4437 -0.7803  0.8799
29576SOL     OW90734   6.245   9.586   2.677 -0.1728  0.3877 -0.2446
29576SOL    HW190735   6.229   9.678   2.698  1.6126  0.6916 -0.0363
29576SOL    HW290736   6.238   9.541   2.761 -0.7280  0.3823 -0.2933
29577SOL     OW90737   4.685  10.674   1.903 -0.0247  0.7167  0.2178
29577SOL    HW190738   4.658  10.766   1.902  0.2591  0.8138 -1.2743
29577SOL    HW290739   4.643  10.637   1.981  2.4053  2.8120  2.7321
29578SOL     OW90740   3.710   8.432   0.045  1.0635 -0.0722  0.0048
29578SOL    HW190741   3.630   8.480   0.025  0.9950 -0.3675 -0.4435
29578SOL    HW290742   3.701   8.409   0.138  0.7546  0.1302  0.0273
29579SOL     OW90743   6.379  10.699   5.418  0.1085 -0.2544  0.3723
29579SOL    HW190744   6.307  10.662   5.366  0.0854 -0.0252  0.2412
29579SOL    HW290745   6.453  10.641   5.401  0.3168  0.2653 -0.5311
29580SOL     OW90746   1.775   0.956   0.042 -0.2831  0.1144  0.6282
29580SOL    HW190747   1.774   1.042   0.083  0.4205 -0.1497  1.2282
29580SOL    HW290748   1.867   0.941   0.020 -0.1584 -1.0724  1.8310
29581SOL     OW90749  11.046   6.299   6.328 -0.1839 -0.4947  0.3299
29581SOL    HW190750  11.065   6.210   6.358 -2.0857 -1.2339 -0.4783
29581SOL    HW290751  11.031   6.290   6.234  1.4688  1.0399 -0.1250
29582SOL     OW90752   7.152   1.588   8.938  0.1952 -0.1478  0.1102
29582SOL    HW190753   7.124   1.576   9.028 -0.3894  1.7556  0.2255
29582SOL    HW290754   7.078   1.557   8.885 -1.3390  2.6928  0.3931
29583SOL     OW90755   5.368   4.040   1.879  0.2165 -0.1118 -0.1308
29583SOL    HW190756   5.420   4.115   1.908 -0.3412  0.2761 -0.1330
29583SOL    HW290757   5.336   3.999   1.959  2.1542 -1.5574 -0.0059
29584SOL     OW90758  10.407   2.567   7.524  0.4522 -0.3893 -0.0401
29584SOL    HW190759  10.444   2.506   7.460  0.3889 -1.0247  0.5171
29584SOL    HW290760  10.398   2.515   7.604 -0.1262  0.2053  0.2882
29585SOL     OW90761   0.253   1.439   3.477  0.3736 -0.1745 -0.1837
29585SOL    HW190762   0.304   1.403   3.405 -1.4770  0.2835 -1.7910
29585SOL    HW290763   0.309   1.506   3.515  0.1636  2.0513 -3.4465
29586SOL     OW90764   2.246   9.792   8.661 -0.0876  0.0786 -0.5463
29586SOL    HW190765   2.336   9.778   8.692 -0.8193 -2.6895  0.6884
29586SOL    HW290766   2.252   9.786   8.566  1.1273  0.7555 -0.5357
29587SOL     OW90767   6.906   2.006   2.259  0.2461 -0.6119  0.2066
29587SOL    HW190768   6.927   2.098   2.276  1.5558 -0.9253  0.4476
29587SOL    HW290769   6.877   2.004   2.168  2.5118 -0.2651 -0.6058
29588SOL     OW90770   4.215   2.167   3.029 -0.5742 -0.3045  0.3405
29588SOL    HW190771   4.127   2.170   2.990 -0.0412 -3.7466 -1.5490
29588SOL    HW290772   4.224   2.077   3.060  2.1998  0.0295  0.7613
29589SOL     OW90773  10.740   6.511   2.574  0.0110 -0.1740  0.7984
29589SOL    HW190774  10.796   6.464   2.512  0.2281  1.6682 -0.4894
29589SOL    HW290775  10.799   6.572   2.617 -0.6207  0.3237  0.9689
29590SOL     OW90776   4.531   3.471   3.044  0.2474  0.0730  0.1088
29590SOL    HW190777   4.462   3.507   2.987  0.5280 -1.0080 -0.9379
29590SOL    HW290778   4.524   3.376   3.033  2.3982 -0.0544 -0.6398
29591SOL     OW90779   6.491   0.229   8.648 -0.1079 -0.7307 -0.2460
29591SOL    HW190780   6.403   0.192   8.635 -0.0629 -0.9218 -0.0152
29591SOL    HW290781   6.546   0.183   8.585 -0.5093  0.6725 -1.6818
29592SOL     OW90782   3.670   5.655   9.279  0.3316  0.4568 -0.0328
29592SOL    HW190783   3.654   5.651   9.373  2.2623  0.7183  0.3513
29592SOL    HW290784   3.603   5.599   9.240  2.1448 -3.3650  1.8479
29593SOL     OW90785   9.737   1.908  10.686  0.4148  0.1561 -0.1736
29593SOL    HW190786   9.818   1.954  10.703  0.9875 -0.7248 -0.4416
29593SOL    HW290787   9.743   1.882  10.594 -0.4653  0.6461 -0.3881
29594SOL     OW90788   2.191   9.785   2.747  0.3976  0.1639 -0.2318
29594SOL    HW190789   2.278   9.794   2.787  1.1073 -1.8552 -1.1777
29594SOL    HW290790   2.183   9.692   2.728 -2.2025  0.2335  0.2111
29595SOL     OW90791   5.182   2.864   6.088  0.2801  0.2076 -0.6111
29595SOL    HW190792   5.087   2.864   6.075  0.2403  2.2154 -0.6099
29595SOL    HW290793   5.217   2.909   6.012  1.2839 -0.6528 -0.6959
29596SOL     OW90794   9.719   5.025   7.969  0.5895  0.4825 -0.1331
29596SOL    HW190795   9.636   5.071   7.984  1.0951  1.2649  0.3355
29596SOL    HW290796   9.736   4.980   8.051 -0.4958 -1.5759 -0.9642
29597SOL     OW90797   8.366   8.762   7.140  0.2850 -0.5321  0.0156
29597SOL    HW190798   8.386   8.779   7.047  1.3171  0.5433  0.4061
29597SOL    HW290799   8.362   8.667   7.146  0.4559 -0.6256 -1.0984
29598SOL     OW90800   0.947   9.337  10.303  0.7428  0.1594  0.5852
29598SOL    HW190801   0.958   9.244  10.283  0.9935  0.1995  0.5308
29598SOL    HW290802   1.012   9.355  10.371  1.8628  0.6726 -0.5714
29599SOL     OW90803   1.901   0.733   2.812 -0.0069 -0.0233 -0.3963
29599SOL    HW190804   1.810   0.725   2.841 -0.5608  3.0373 -1.0318
29599SOL    HW290805   1.922   0.646   2.776 -2.0408 -1.3357  1.3469
29600SOL     OW90806   9.713   7.200   5.828 -0.3316 -0.0759  0.4454
29600SOL    HW190807   9.783   7.262   5.845 -1.4178  2.1291 -2.3496
29600SOL    HW290808   9.725   7.173   5.737 -4.0498  1.9298 -0.8555
29601SOL     OW90809   8.644   0.271   2.587 -0.4072  0.2948 -0.2474
29601SOL    HW190810   8.672   0.179   2.591  0.9652  0.7021 -0.1862
29601SOL    HW290811   8.552   0.268   2.612 -0.3641 -1.0559 -0.1414
29602SOL     OW90812   1.311   5.384   2.668 -0.2017  0.7070  0.1160
29602SOL    HW190813   1.346   5.422   2.587 -2.0803 -0.3877 -1.3083
29602SOL    HW290814   1.362   5.304   2.681 -0.5299  0.3678 -0.5862
29603SOL     OW90815  10.177   0.280   5.440 -0.4892  0.0090  0.3001
29603SOL    HW190816  10.123   0.255   5.514 -0.8906  0.9758  0.3483
29603SOL    HW290817  10.124   0.342   5.391  0.4380  0.7214  0.1604
29604SOL     OW90818   0.438   3.205   5.719  0.9308  1.0513 -0.2185
29604SOL    HW190819   0.429   3.121   5.674  0.9716  1.3504 -0.7976
29604SOL    HW290820   0.352   3.220   5.760  1.3574  0.0698  1.0761
29605SOL     OW90821   0.387   3.192   2.720 -0.4939  0.1720 -0.1633
29605SOL    HW190822   0.418   3.260   2.660 -0.1564  0.8592  0.7702
29605SOL    HW290823   0.309   3.156   2.678 -0.1737  0.5314 -1.0826
29606SOL     OW90824   7.537   5.587   8.533 -0.1499  0.2908 -0.0252
29606SOL    HW190825   7.453   5.628   8.515 -0.1174  0.4007  0.0722
29606SOL    HW290826   7.519   5.493   8.532 -0.3834  0.3271  0.5394
29607SOL     OW90827   1.655   8.438   3.319  0.4497  0.0861  0.2903
29607SOL    HW190828   1.616   8.418   3.234  1.1486 -3.9571  0.7166
29607SOL    HW290829   1.582   8.466   3.373  0.0211  2.9775 -1.5760
29608SOL     OW90830   2.138  10.962  10.488  0.0882  0.0625 -0.6025
29608SOL    HW190831   2.091  10.885  10.520  0.4378 -0.4325 -1.2468
29608SOL    HW290832   2.156  11.013  10.566  1.3630 -1.3562  0.0794
29609SOL     OW90833   7.941   9.937   5.236  0.1457  0.0395 -1.0091
29609SOL    HW190834   8.034   9.928   5.253  0.1713 -1.7161 -1.7904
29609SOL    HW290835   7.935   9.998   5.162  0.6418  0.3846 -0.7663
29610SOL     OW90836   9.565   8.355   3.299  0.1785  0.2201  0.5466
29610SOL    HW190837   9.578   8.436   3.348  0.6273  0.0757  0.6731
29610SOL    HW290838   9.509   8.302   3.355  0.2591  0.2625  0.6687
29611SOL     OW90839   6.790   0.535   5.109 -0.4255  0.1565  0.2647
29611SOL    HW190840   6.796   0.464   5.045 -0.2910  1.7180 -1.5539
29611SOL    HW290841   6.773   0.491   5.192  3.2214 -2.3140 -0.0315
29612SOL     OW90842   9.901   3.317  10.982 -0.1939  0.0445  0.0861
29612SOL    HW190843   9.900   3.286  10.892  0.3895  0.4570 -0.0697
29612SOL    HW290844   9.809   3.318  11.008 -0.2399 -1.9746  0.1699
29613SOL     OW90845   1.884   6.585   6.372  0.1126  1.0213  0.2216
29613SOL    HW190846   1.913   6.514   6.315 -1.4752 -0.1401  0.7774
29613SOL    HW290847   1.964   6.624   6.406  1.0695  1.0939 -1.9788
29614SOL     OW90848  10.212   1.967   6.549  0.0013 -0.5276 -0.7550
29614SOL    HW190849  10.258   2.051   6.549  0.0768 -0.5324  0.8957
29614SOL    HW290850  10.135   1.983   6.604 -2.0748 -0.4965 -3.4957
29615SOL     OW90851   1.319   2.047   7.795  0.2264 -0.1874  0.1011
29615SOL    HW190852   1.316   1.962   7.751  1.6378  0.0959 -0.6107
29615SOL    HW290853   1.376   2.100   7.740  0.1590  0.9207  1.0624
29616SOL     OW90854   3.907   3.894   1.739  0.4924 -0.4741 -0.2127
29616SOL    HW190855   3.928   3.943   1.660 -1.0570 -0.8175 -0.8723
29616SOL    HW290856   3.934   3.952   1.811  0.7296  0.3930 -0.9816
29617SOL     OW90857   4.648   4.191   8.919 -0.8452 -0.1176  0.0719
29617SOL    HW190858   4.734   4.169   8.956 -1.0597  2.9061  2.7604
29617SOL    HW290859   4.585   4.160   8.983 -1.6749 -0.2944 -0.7989
29618SOL     OW90860   2.433   0.606   0.061 -0.1787 -0.4823  0.4932
29618SOL    HW190861   2.496   0.565   0.002  0.1629 -1.0940  1.2791
29618SOL    HW290862   2.366   0.642   0.002  0.8352  0.1026 -0.3487
29619SOL     OW90863  10.745   6.952   8.008  0.0786 -0.6214  0.3713
29619SOL    HW190864  10.823   6.972   8.060 -0.8838  2.6141  0.7569
29619SOL    HW290865  10.769   6.978   7.919 -0.1559 -0.9128  0.2200
29620SOL     OW90866   1.023   1.966   4.962  0.4258 -0.1867 -0.4379
29620SOL    HW190867   1.007   1.874   4.983  1.0677  0.0879  1.3812
29620SOL    HW290868   1.118   1.974   4.958  0.4689  0.8308  1.6245
29621SOL     OW90869   9.140   8.809   5.360  0.1126  0.2168  0.1061
29621SOL    HW190870   9.219   8.777   5.402  0.4938  1.0944  0.0747
29621SOL    HW290871   9.164   8.894   5.324 -0.9396  0.6595  0.4103
29622SOL     OW90872   9.892   3.673   2.816 -0.1502 -0.4203  0.0894
29622SOL    HW190873   9.966   3.729   2.835  0.2041 -0.5076 -0.9479
29622SOL    HW290874   9.822   3.734   2.790 -0.5577 -0.3181  1.3564
29623SOL     OW90875   3.862   1.975   4.468 -0.2007 -0.3384  0.2990
29623SOL    HW190876   3.903   2.002   4.386 -1.6631 -2.4138 -1.2319
29623SOL    HW290877   3.782   2.027   4.474 -0.5959 -0.8922 -0.1261
29624SOL     OW90878   1.050   9.414   7.657 -0.1940  0.2025  0.1414
29624SOL    HW190879   0.958   9.436   7.647 -0.0224  0.7338 -0.3050
29624SOL    HW290880   1.096   9.473   7.597  0.5314  0.7464  1.1834
29625SOL     OW90881   8.268   4.881  10.087  0.1755 -0.3963  0.5678
29625SOL    HW190882   8.199   4.861  10.023 -2.4421 -0.4474  3.2207
29625SOL    HW290883   8.302   4.796  10.113 -0.1761 -0.4898  0.7196
29626SOL     OW90884   6.028   5.017   9.282  0.7306  0.3570 -0.4896
29626SOL    HW190885   5.948   4.965   9.275  1.2846 -0.5886 -0.0304
29626SOL    HW290886   6.015   5.091   9.223  0.4307 -0.9845 -2.1537
29627SOL     OW90887   9.014   9.304   8.110  0.1149 -0.1252 -0.1513
29627SOL    HW190888   9.098   9.328   8.150  0.0223 -0.4802  0.2552
29627SOL    HW290889   9.006   9.210   8.124 -0.3515 -0.0940 -0.1914
29628SOL     OW90890   8.242   6.123   9.639 -0.3931 -0.4265 -0.1202
29628SOL    HW190891   8.270   6.111   9.730  1.2608 -1.1984 -0.6866
29628SOL    HW290892   8.257   6.216   9.621  1.1157 -0.6598 -0.1614
29629SOL     OW90893   5.683  10.053   7.617 -0.0547  0.1070 -0.1845
29629SOL    HW190894   5.747  10.101   7.670 -1.5746  0.0501  1.8046
29629SOL    HW290895   5.616  10.118   7.597 -0.6232 -0.4369 -0.0561
29630SOL     OW90896   7.999   1.927   7.130 -0.2474 -0.5384  0.0775
29630SOL    HW190897   7.950   1.850   7.158 -1.9225  0.4121 -0.1349
29630SOL    HW290898   7.933   1.993   7.112  1.1291  0.8622 -0.0848
29631SOL     OW90899  11.060   7.599   1.889 -0.2146  0.1980  0.0341
29631SOL    HW190900  11.009   7.549   1.826 -1.8146 -0.1006  1.5209
29631SOL    HW290901  11.022   7.687   1.886  1.7077  1.0603 -1.5843
29632SOL     OW90902   2.137   5.266  10.933 -0.6610 -0.4244  0.1022
29632SOL    HW190903   2.159   5.232  11.020 -0.6525 -2.2850 -0.5805
29632SOL    HW290904   2.193   5.343  10.923 -0.5634 -0.2469  1.6770
29633SOL     OW90905   5.574   5.478   3.689  0.6666  0.3386 -0.0012
29633SOL    HW190906   5.597   5.462   3.597  0.0203 -0.7466  0.0155
29633SOL    HW290907   5.645   5.439   3.739  0.9654  0.8376 -0.0255
29634SOL     OW90908   7.168   1.004   0.192 -0.0208 -0.6818 -0.3739
29634SOL    HW190909   7.078   1.007   0.158 -0.3837 -0.8239  0.5369
29634SOL    HW290910   7.222   1.033   0.119 -0.7858 -0.8467 -1.0234
29635SOL     OW90911   9.663   1.420   7.942  0.5641 -0.3250  0.0290
29635SOL    HW190912   9.697   1.359   8.008  0.2355 -0.7832 -0.2203
29635SOL    HW290913   9.572   1.435   7.968 -0.0656 -1.7554 -1.1854
29636SOL     OW90914   6.535   4.499   8.013  0.1213 -0.4182 -0.0888
29636SOL    HW190915   6.443   4.526   8.014  0.6832  1.6304  0.7993
29636SOL    HW290916   6.532   4.405   7.991 -1.9608  0.2383 -3.3728
29637SOL     OW90917   3.705   6.597   1.335  0.5934  0.5036  0.2837
29637SOL    HW190918   3.729   6.514   1.377  0.5932  0.7925  0.8638
29637SOL    HW290919   3.667   6.571   1.251  2.1458 -0.0009 -0.2970
29638SOL     OW90920  10.396   6.306  10.282  0.3024 -0.2268 -0.9440
29638SOL    HW190921  10.320   6.297  10.225  0.5526  0.7389 -1.4538
29638SOL    HW290922  10.381   6.243  10.352 -0.1039 -1.2955 -1.9629
29639SOL     OW90923   4.947  10.018   0.684 -0.2476 -0.1004  0.1969
29639SOL    HW190924   5.029   9.969   0.691  1.1637  1.7240 -2.0231
29639SOL    HW290925   4.920  10.007   0.593 -2.5576 -0.6806  0.8917
29640SOL     OW90926   7.532   7.281  10.779 -0.0055 -0.1603 -0.5878
29640SOL    HW190927   7.492   7.273  10.692 -0.5386  2.0227 -0.5800
29640SOL    HW290928   7.625   7.292  10.761 -0.2713  1.6660 -0.9942
29641SOL     OW90929   9.354   9.486   0.262 -0.0703  0.5976  0.4757
29641SOL    HW190930   9.260   9.471   0.268 -0.2281  0.4735 -1.6332
29641SOL    HW290931   9.390   9.445   0.341 -1.3371 -3.3348 -0.7631
29642SOL     OW90932   4.825   8.111   5.819  0.2940  0.4041  0.1932
29642SOL    HW190933   4.851   8.051   5.888 -0.9655  0.7670  1.0209
29642SOL    HW290934   4.862   8.074   5.739 -2.3357 -2.8413  0.2684
29643SOL     OW90935   4.274   4.487   9.935 -0.1137  0.5388  0.1972
29643SOL    HW190936   4.366   4.471   9.914 -0.2882 -0.3235  0.0124
29643SOL    HW290937   4.229   4.482   9.850 -0.4061  0.3344  0.3622
29644SOL     OW90938   9.092   3.269   7.415  0.6571  0.6251  0.5025
29644SOL    HW190939   9.045   3.231   7.490  2.2805 -1.1339  0.6961
29644SOL    HW290940   9.177   3.296   7.451  1.5077 -0.3697 -0.6952
29645SOL     OW90941   9.144   0.829   2.178 -0.3103  0.1665 -0.5009
29645SOL    HW190942   9.160   0.736   2.197 -0.8324  0.1247 -0.2681
29645SOL    HW290943   9.059   0.830   2.136 -0.4402  0.5770 -0.2250
29646SOL     OW90944  10.459   1.199   4.782 -0.0130  0.0367  0.6278
29646SOL    HW190945  10.439   1.176   4.872  1.2303  1.3783  1.2834
29646SOL    HW290946  10.462   1.295   4.781 -2.2811  0.1956 -1.3758
29647SOL     OW90947   3.528   3.783  10.934 -0.1197  0.1319 -0.7796
29647SOL    HW190948   3.620   3.760  10.924  0.1876 -0.7526  2.7262
29647SOL    HW290949   3.493   3.717  10.994 -2.7065  1.2775 -0.8842
29648SOL     OW90950   6.610   0.348   2.990 -0.0276 -0.8137 -0.0445
29648SOL    HW190951   6.533   0.369   2.938 -1.5959 -2.4553  1.4820
29648SOL    HW290952   6.682   0.394   2.946 -1.8961  1.0769 -1.3144
29649SOL     OW90953   0.883   2.859   5.002  0.4257  0.0238  0.1240
29649SOL    HW190954   0.833   2.781   4.977 -0.9548  1.0054 -0.3362
29649SOL    HW290955   0.943   2.874   4.929  0.3268 -0.3201 -0.0277
29650SOL     OW90956   7.842   4.085   8.441  0.1756  0.5475  0.2889
29650SOL    HW190957   7.907   4.015   8.444 -0.0673  0.2956 -0.3054
29650SOL    HW290958   7.864   4.135   8.363 -0.9885 -0.1873 -0.5396
29651SOL     OW90959   1.785   3.894   2.070 -0.1168  0.4933 -0.0178
29651SOL    HW190960   1.744   3.909   1.984  1.5716 -0.5495 -1.0605
29651SOL    HW290961   1.836   3.973   2.086 -0.2893  0.6131 -0.0547
29652SOL     OW90962   0.105   2.138   4.222  0.6851  0.4012  0.4834
29652SOL    HW190963   0.157   2.128   4.142  0.7952  3.0166  0.1380
29652SOL    HW290964   0.170   2.143   4.292  0.8160  1.5454  0.2991
29653SOL     OW90965   0.416   9.726   8.651 -0.6876 -0.5440 -0.5176
29653SOL    HW190966   0.355   9.778   8.703 -2.0903 -1.8906 -0.7313
29653SOL    HW290967   0.496   9.779   8.646 -1.6350  1.0142  0.2705
29654SOL     OW90968   6.316   1.864   3.769  0.2523  0.1895 -0.6154
29654SOL    HW190969   6.277   1.816   3.696 -0.1659  0.4784 -0.5865
29654SOL    HW290970   6.280   1.952   3.761  1.2362  0.5898 -0.8469
29655SOL     OW90971   9.619   1.510   8.564 -0.2912  0.3487  0.6096
29655SOL    HW190972   9.703   1.466   8.552 -1.3657 -2.0295  1.1617
29655SOL    HW290973   9.575   1.503   8.480  0.4579  2.6684 -0.0475
29656SOL     OW90974   1.043   8.742   4.546 -0.0190 -0.3324 -0.0504
29656SOL    HW190975   1.080   8.825   4.518 -0.1495  0.8717  2.9729
29656SOL    HW290976   1.113   8.678   4.532  0.7302  0.6246 -0.7520
29657SOL     OW90977   5.595   4.920   8.091 -0.2226 -0.4328  0.0699
29657SOL    HW190978   5.510   4.888   8.061  0.2127 -0.6861 -0.9608
29657SOL    HW290979   5.635   4.957   8.012 -0.3105  1.8129  0.9999
29658SOL     OW90980  10.243   9.250   3.053 -0.0651  0.2320 -0.0540
29658SOL    HW190981  10.152   9.250   3.025  0.0583 -2.8304 -0.7987
29658SOL    HW290982  10.244   9.199   3.134  0.8222  1.4820  0.7572
29659SOL     OW90983  10.050   6.092   5.570 -0.1206 -0.3968  0.3401
29659SOL    HW190984  10.002   6.169   5.541  0.3058 -0.2375  0.0340
29659SOL    HW290985  10.138   6.103   5.532 -0.3408 -1.5070 -0.5451
29660SOL     OW90986   2.289   4.250  10.209 -0.4626 -0.6271 -0.1302
29660SOL    HW190987   2.264   4.220  10.296 -0.8698 -0.7414 -0.2829
29660SOL    HW290988   2.226   4.208  10.150 -1.4158  0.9312 -0.2899
29661SOL     OW90989  10.035   7.946   1.910 -0.7816 -0.0766  0.4173
29661SOL    HW190990  10.086   8.027   1.910  0.2606 -0.7055 -0.5147
29661SOL    HW290991  10.065   7.899   1.832 -0.9668 -1.5980  1.2263
29662SOL     OW90992   0.394   2.761   7.797 -0.5564 -0.0518  0.2653
29662SOL    HW190993   0.366   2.761   7.889 -1.5788 -0.4452 -0.0295
29662SOL    HW290994   0.462   2.828   7.793 -0.3544 -0.1732  1.3523
29663SOL     OW90995   4.125   5.546   4.339 -0.2431  0.4696  0.0764
29663SOL    HW190996   4.083   5.594   4.268 -0.2432 -0.4394 -0.5465
29663SOL    HW290997   4.169   5.473   4.296 -2.1260 -1.4234  1.1999
29664SOL     OW90998  10.887   8.041   1.497  0.4506  0.5772  0.1741
29664SOL    HW190999  10.960   8.049   1.435  1.0782 -1.2980  0.6096
29664SOL    HW291000  10.809   8.040   1.442  0.9911 -1.0161 -0.6473
29665SOL     OW91001   2.982   7.191   7.299 -0.2226  0.2126 -0.1732
29665SOL    HW191002   3.057   7.133   7.287  0.3800  1.2418 -1.7119
29665SOL    HW291003   2.975   7.238   7.216 -1.8990  0.9421  0.3370
29666SOL     OW91004   8.567   4.729   3.707 -0.3189 -0.1767  0.3967
29666SOL    HW191005   8.500   4.663   3.724  0.5583 -1.9488 -2.4316
29666SOL    HW291006   8.643   4.679   3.677  1.9497  1.8480  2.3673
29667SOL     OW91007   2.589   0.828  10.079 -0.0353 -0.0420 -0.7220
29667SOL    HW191008   2.648   0.901  10.097  0.0927 -0.4634  0.7379
29667SOL    HW291009   2.642   0.765  10.031  0.2769  0.2128 -0.7099
29668SOL     OW91010   3.292   1.924   3.719  0.7014 -0.2944  0.0243
29668SOL    HW191011   3.247   1.841   3.702  3.1458 -2.1020  1.5973
29668SOL    HW291012   3.275   1.977   3.642 -2.0785 -1.7185 -0.4715
29669SOL     OW91013   2.967   1.033   8.598  0.0939 -0.2315  0.4144
29669SOL    HW191014   3.016   1.035   8.516 -2.1897 -1.7204 -1.0846
29669SOL    HW291015   3.027   0.991   8.660  1.1875 -0.8530 -1.0015
29670SOL     OW91016   8.379  10.070   1.336  0.1026  0.7177  0.0979
29670SOL    HW191017   8.386  10.012   1.260 -1.6842  0.1184  0.3413
29670SOL    HW291018   8.404  10.156   1.303 -0.0296  0.3471 -1.0133
29671SOL     OW91019   7.557   0.573   5.629 -0.2719  0.2668  0.4187
29671SOL    HW191020   7.567   0.488   5.588  1.8148  1.1214 -1.0391
29671SOL    HW291021   7.583   0.559   5.720  0.5248 -0.5820  0.0797
29672SOL     OW91022   4.477   3.388   9.582  0.0945 -0.2757 -0.1345
29672SOL    HW191023   4.462   3.350   9.495  1.4452  1.3469 -1.1469
29672SOL    HW291024   4.572   3.392   9.591  0.2204 -4.2539  3.2966
29673SOL     OW91025   0.051   9.534   8.879  0.8996  0.1387  0.7534
29673SOL    HW191026  -0.013   9.595   8.914  0.3934 -0.5860  1.1252
29673SOL    HW291027   0.126   9.540   8.938  1.6903  1.8585 -0.3500
29674SOL     OW91028   8.118  10.090   9.673  0.2501  0.1928 -0.0523
29674SOL    HW191029   8.148  10.167   9.625  1.5083 -0.9893 -1.2589
29674SOL    HW291030   8.196  10.059   9.719 -0.1839 -0.4711  0.2551
29675SOL     OW91031  10.725   1.589   2.479 -0.5037 -0.5621 -0.2384
29675SOL    HW191032  10.775   1.508   2.469 -0.4086 -0.4953 -0.3058
29675SOL    HW291033  10.786   1.658   2.453 -0.3384 -0.4060  0.5253
29676SOL     OW91034  10.572   4.241   6.610  0.6984 -0.1992  0.2350
29676SOL    HW191035  10.594   4.249   6.517 -1.6120  0.1752 -0.3334
29676SOL    HW291036  10.603   4.323   6.648 -1.9625  1.5665 -1.0784
29677SOL     OW91037   7.658   8.253   9.686  0.0872 -0.3299 -0.2297
29677SOL    HW191038   7.632   8.187   9.622 -0.4582  0.3924 -0.7612
29677SOL    HW291039   7.720   8.208   9.743  0.8651 -0.8796 -1.4797
29678SOL     OW91040   7.678   0.232   1.165 -0.5263 -0.2091  0.1292
29678SOL    HW191041   7.623   0.306   1.191  0.9992  1.2169 -0.4743
29678SOL    HW291042   7.667   0.226   1.070  1.9183  1.5439 -0.3595
29679SOL     OW91043  10.892  10.363   9.020 -0.1972  0.6007  0.5649
29679SOL    HW191044  10.850  10.448   9.031  0.4329  1.0182 -0.1080
29679SOL    HW291045  10.923  10.364   8.929  2.4019  0.8581  1.3835
29680SOL     OW91046   7.842   9.704   7.767  0.1423 -0.7030  0.0473
29680SOL    HW191047   7.842   9.609   7.758 -0.2420 -0.7536  0.5286
29680SOL    HW291048   7.849   9.719   7.862 -1.2577 -0.2823  0.1056
29681SOL     OW91049   8.181   9.881   1.302 -0.3936  0.6677  0.4268
29681SOL    HW191050   8.089   9.877   1.329 -0.5419  1.0106 -0.0002
29681SOL    HW291051   8.213   9.964   1.338 -0.7939  1.4865 -0.9953
29682SOL     OW91052  10.949   2.938   5.641 -1.1320  0.0292  0.3006
29682SOL    HW191053  10.951   3.033   5.634 -3.1697  0.1296  0.6688
29682SOL    HW291054  10.982   2.907   5.556  0.8264  0.9916  0.6388
29683SOL     OW91055   2.669   9.742   8.383 -0.1955  0.4298  0.5764
29683SOL    HW191056   2.686   9.654   8.416 -0.0197  0.1273 -0.2952
29683SOL    HW291057   2.753   9.787   8.390  0.1463  0.0011 -0.5200
29684SOL     OW91058   5.877   1.340   2.112  0.1391 -0.1102  0.0793
29684SOL    HW191059   5.927   1.398   2.055 -0.1198 -0.2906 -0.3371
29684SOL    HW291060   5.788   1.377   2.111 -0.3453 -1.2312 -1.2242
29685SOL     OW91061   2.189   2.389   2.575 -0.4709 -0.1278 -1.0385
29685SOL    HW191062   2.237   2.456   2.525  2.0585 -1.0720 -0.0377
29685SOL    HW291063   2.182   2.425   2.663 -0.7013 -0.4452 -0.9257
29686SOL     OW91064   2.827   1.918  11.025 -0.0451  0.5188  0.5693
29686SOL    HW191065   2.895   1.981  10.999  0.6462  0.5935  2.4029
29686SOL    HW291066   2.824   1.855  10.953  2.6819 -0.0293  0.7953
29687SOL     OW91067  10.612   7.109   7.263  0.1609  0.6803 -0.2734
29687SOL    HW191068  10.636   7.192   7.303  0.3090  1.2523 -1.5145
29687SOL    HW291069  10.516   7.111   7.259  0.2155  1.3606 -1.4620
29688SOL     OW91070   3.142   7.334   5.945 -0.4405 -0.2112 -0.3316
29688SOL    HW191071   3.160   7.240   5.943 -1.5333 -0.4198 -1.9866
29688SOL    HW291072   3.092   7.347   6.026  0.6156 -0.8393  0.4547
29689SOL     OW91073   5.893   5.981   1.684  0.3061  0.6843  0.1791
29689SOL    HW191074   5.848   6.065   1.693 -1.2724  0.2141 -2.3383
29689SOL    HW291075   5.963   5.999   1.620 -1.1809 -0.2119 -1.8115
29690SOL     OW91076   2.238   7.492   3.579  0.3956  0.6375 -0.7935
29690SOL    HW191077   2.303   7.444   3.528  1.5162  0.4869  0.7086
29690SOL    HW291078   2.288   7.531   3.651 -1.2571 -0.0709  0.8105
29691SOL     OW91079   6.410   8.855   0.896  0.6179  0.0177 -0.9152
29691SOL    HW191080   6.487   8.912   0.887  0.2883  0.5068 -0.6633
29691SOL    HW291081   6.382   8.866   0.987 -1.0536  1.5408 -1.5544
29692SOL     OW91082   4.101   9.741  10.305  0.5375  0.0608 -0.5818
29692SOL    HW191083   4.087   9.685  10.382 -0.3666  0.8017 -0.1834
29692SOL    HW291084   4.196   9.748  10.298  0.7229 -2.1188 -1.1108
29693SOL     OW91085   1.973   6.184   8.613  0.6708 -0.3444 -0.6281
29693SOL    HW191086   1.931   6.237   8.681 -0.2707 -1.7022 -0.1128
29693SOL    HW291087   1.964   6.235   8.533  2.3624  1.5907  0.3143
29694SOL     OW91088   8.232   7.705   6.257 -0.3834  0.2219 -0.5199
29694SOL    HW191089   8.196   7.622   6.226  1.1626 -0.2552 -1.1651
29694SOL    HW291090   8.307   7.680   6.312 -0.3527  1.1719 -0.1040
29695SOL     OW91091   1.693   4.697   6.666  0.0546 -0.5371 -0.9300
29695SOL    HW191092   1.632   4.624   6.676  1.6723 -2.3503 -3.2159
29695SOL    HW291093   1.677   4.729   6.577  1.4591 -0.1400 -1.0581
29696SOL     OW91094   9.644   2.633   1.051  0.9949 -0.0628  0.7936
29696SOL    HW191095   9.653   2.613   1.145 -2.2852  2.3178  1.8079
29696SOL    HW291096   9.567   2.584   1.023  1.0681  0.4194 -0.2894
29697SOL     OW91097   6.740   0.797   6.994  0.1153  0.0512 -0.5950
29697SOL    HW191098   6.766   0.707   6.976 -1.0914 -0.1286 -1.5797
29697SOL    HW291099   6.819   0.849   6.975  0.7850 -0.7676 -0.1066
29698SOL     OW91100   5.676   3.888   7.016 -0.0586  0.0057  0.2651
29698SOL    HW191101   5.755   3.860   6.969 -0.6002 -1.0958 -0.0100
29698SOL    HW291102   5.695   3.978   7.042  0.2717  0.6685 -2.0490
29699SOL     OW91103   3.193   4.612   6.387  0.0746 -0.1915  0.0263
29699SOL    HW191104   3.217   4.532   6.340 -0.3438 -1.1360  1.3512
29699SOL    HW291105   3.270   4.669   6.380  0.5345 -0.8747 -0.5888
29700SOL     OW91106   1.487   5.366   1.960  0.2304  0.2177 -0.7776
29700SOL    HW191107   1.565   5.418   1.977  0.0117  0.4606 -0.5031
29700SOL    HW291108   1.419   5.406   2.015  0.0384 -0.2977 -0.6323
29701SOL     OW91109   8.910   6.789   6.582 -0.2561 -0.1622 -0.0228
29701SOL    HW191110   8.989   6.819   6.537  1.4718 -3.4622  0.4904
29701SOL    HW291111   8.856   6.751   6.512 -1.0361  1.2812 -0.2421
29702SOL     OW91112   6.735   2.157   1.403  0.6307 -0.1521 -0.1584
29702SOL    HW191113   6.789   2.227   1.438  0.4404 -0.2479  0.3306
29702SOL    HW291114   6.758   2.080   1.456 -0.9134  0.0987  0.9281
29703SOL     OW91115   2.444   1.603   9.066  0.4969  0.4151  0.4374
29703SOL    HW191116   2.375   1.648   9.017  1.1545  1.5428  0.5141
29703SOL    HW291117   2.504   1.570   8.999  0.7289  0.8511  0.4269
29704SOL     OW91118   0.790   9.606   6.178 -0.3829  0.0935  0.1651
29704SOL    HW191119   0.795   9.695   6.213 -0.2306 -0.7231  2.3235
29704SOL    HW291120   0.881   9.576   6.176 -0.3142  0.3093 -1.5593
29705SOL     OW91121   0.372   8.947   6.996 -0.0802 -0.2670  0.5259
29705SOL    HW191122   0.325   9.017   6.952 -0.3114 -0.7361  0.0196
29705SOL    HW291123   0.330   8.940   7.082  0.3694  0.6444  0.8257
29706SOL     OW91124   4.446   2.621  10.512 -0.0400  0.5687 -0.3950
29706SOL    HW191125   4.509   2.549  10.519  1.6019  2.0946  1.3961
29706SOL    HW291126   4.481   2.677  10.443 -1.5531 -0.4622 -2.1004
29707SOL     OW91127   6.809   3.588   1.008 -0.2509 -0.0285  0.1225
29707SOL    HW191128   6.843   3.501   0.990  1.6252  0.4126  1.2269
29707SOL    HW291129   6.862   3.646   0.953  0.8891  0.6773  1.8708
29708SOL     OW91130   0.648   9.146   1.755  0.0419  0.5064  0.2003
29708SOL    HW191131   0.615   9.215   1.698 -2.0787 -0.2007  0.4578
29708SOL    HW291132   0.569   9.109   1.795  1.3482  0.0208  2.4947
29709SOL     OW91133   6.808   0.987   9.576 -0.3178  0.1135 -0.1847
29709SOL    HW191134   6.737   0.930   9.547  0.1866  0.3363 -2.0274
29709SOL    HW291135   6.806   0.982   9.671 -2.5755 -0.1450 -0.1856
29710SOL     OW91136   7.327   0.134  10.063 -0.2127  0.2313 -0.1176
29710SOL    HW191137   7.295   0.086  10.139 -0.6894  1.1106  0.2519
29710SOL    HW291138   7.418   0.154  10.084  0.0924 -0.7644 -0.4140
29711SOL     OW91139   1.095   4.033   0.857  0.2258  0.6043  0.4306
29711SOL    HW191140   1.034   4.037   0.783  0.9449  2.0046 -0.1089
29711SOL    HW291141   1.068   4.105   0.914 -0.8974 -0.9934  2.0430
29712SOL     OW91142   1.017  10.686   6.618 -0.1516  0.0893 -0.0807
29712SOL    HW191143   0.975  10.600   6.617  1.1670 -0.5833 -0.2255
29712SOL    HW291144   0.967  10.738   6.555 -0.1443 -1.0014 -1.0137
29713SOL     OW91145   2.173   3.190   2.622  0.0278  0.7370  0.9727
29713SOL    HW191146   2.191   3.152   2.536 -0.5375  0.4949  0.9538
29713SOL    HW291147   2.079   3.208   2.621 -0.2125 -0.3428  1.9575
29714SOL     OW91148  10.304   5.877   1.473  0.1326  0.8891 -0.5160
29714SOL    HW191149  10.243   5.857   1.402 -3.7542  0.1979  2.6750
29714SOL    HW291150  10.316   5.972   1.469 -1.4964  1.0972 -1.0367
29715SOL     OW91151   0.018   3.970   4.723  0.1561 -0.1323 -1.1941
29715SOL    HW191152  -0.039   3.960   4.647  0.3643 -1.9496 -1.1785
29715SOL    HW291153   0.072   3.890   4.722  0.3824 -0.0426  0.6711
29716SOL     OW91154   0.716   4.421   0.454 -0.1831 -0.3273 -0.6906
29716SOL    HW191155   0.666   4.485   0.403  0.0366  0.4948  0.1054
29716SOL    HW291156   0.800   4.464   0.472 -0.2969 -0.5555  0.4505
29717SOL     OW91157   9.851   4.205   7.026 -0.1542  0.5166 -0.2116
29717SOL    HW191158   9.829   4.199   7.119 -1.3481 -0.3322 -0.5209
29717SOL    HW291159   9.927   4.148   7.016 -2.0290 -2.1391 -0.3001
29718SOL     OW91160   8.560   6.621   6.152 -0.1314  0.3183  0.7677
29718SOL    HW191161   8.560   6.534   6.193  0.5991  0.7199  1.6468
29718SOL    HW291162   8.473   6.656   6.173 -0.3236 -0.0838  0.6571
29719SOL     OW91163   7.786  10.929   7.996  0.0622  0.9536  0.0555
29719SOL    HW191164   7.781  11.015   8.038 -0.1422  1.5034 -1.0434
29719SOL    HW291165   7.754  10.944   7.907  0.0323 -0.2653 -0.1593
29720SOL     OW91166  11.092   9.023   8.052 -0.1553 -0.7661  0.1482
29720SOL    HW191167  11.144   9.029   7.972 -0.9574  0.0816 -0.3389
29720SOL    HW291168  11.018   9.081   8.036  2.1531  3.7426  3.3986
29721SOL     OW91169   3.138   1.439   2.378  0.2340  0.0952 -0.2541
29721SOL    HW191170   3.069   1.377   2.399 -1.5030  0.8136 -3.2588
29721SOL    HW291171   3.157   1.484   2.461 -3.0218 -0.0385  0.6934
29722SOL     OW91172   9.475   2.346   7.818  0.6491  0.3429  0.1408
29722SOL    HW191173   9.566   2.319   7.806  0.2330 -0.8631 -0.5055
29722SOL    HW291174   9.427   2.301   7.748 -0.6440 -0.1426  1.2910
29723SOL     OW91175   7.798   6.808   9.416 -0.2617  0.0068 -0.1056
29723SOL    HW191176   7.785   6.887   9.469  0.9019 -0.6408  1.2393
29723SOL    HW291177   7.713   6.765   9.416 -0.5446  0.5485  0.3622
29724SOL     OW91178   7.009   3.763   0.582 -0.6471  0.2464  0.7365
29724SOL    HW191179   7.093   3.731   0.550 -0.9012 -1.0490  1.2770
29724SOL    HW291180   6.944   3.714   0.532 -1.0477 -0.8839  2.2863
29725SOL     OW91181   9.812   7.888   3.539 -0.2499  0.2215 -0.3676
29725SOL    HW191182   9.738   7.858   3.486  0.3201 -2.6217  0.2649
29725SOL    HW291183   9.886   7.890   3.479 -0.1689 -0.3586 -0.3016
29726SOL     OW91184  10.908   0.800   8.721  0.3110 -0.1303  0.9882
29726SOL    HW191185  10.958   0.824   8.643 -2.6488  1.2939 -0.6211
29726SOL    HW291186  10.929   0.708   8.736  1.8476 -0.1137 -0.7504
29727SOL     OW91187   9.176   4.121   9.450  0.0602  0.4998  0.2113
29727SOL    HW191188   9.096   4.158   9.487 -1.4732 -1.1274 -1.2753
29727SOL    HW291189   9.181   4.160   9.362 -0.6705 -1.4156 -0.7424
29728SOL     OW91190   0.774   9.157   7.628 -0.0376 -0.2599 -0.3920
29728SOL    HW191191   0.829   9.173   7.551  0.5753 -0.1470  0.0691
29728SOL    HW291192   0.717   9.234   7.634  1.0630  0.5170  0.2471
29729SOL     OW91193   7.058   8.681   4.401 -0.1878  0.0189  0.9227
29729SOL    HW191194   6.977   8.731   4.417 -0.3708  0.6316 -1.4575
29729SOL    HW291195   7.028   8.601   4.358  0.4785  1.0970 -1.7664
29730SOL     OW91196   3.281   0.851   5.248 -0.2961  0.4491  0.3192
29730SOL    HW191197   3.316   0.939   5.262  2.0083 -0.4364  0.5920
29730SOL    HW291198   3.312   0.801   5.324 -2.3959 -0.4100  0.6726
29731SOL     OW91199   7.484   3.865   2.169  0.3440  0.3243 -0.6581
29731SOL    HW191200   7.407   3.922   2.169 -0.2795 -0.3641 -3.1487
29731SOL    HW291201   7.490   3.832   2.258 -1.6488  1.1793 -0.1580
29732SOL     OW91202   1.087  10.003   3.991  0.3390  0.0718 -0.1120
29732SOL    HW191203   0.999  10.035   3.977  1.5560  2.8338 -2.4167
29732SOL    HW291204   1.104  10.017   4.084 -1.2311  0.5253  0.1312
29733SOL     OW91205   6.010  10.470   8.556  0.1788 -0.0338 -0.6533
29733SOL    HW191206   5.962  10.543   8.516  0.0665  0.0319 -0.3997
29733SOL    HW291207   6.039  10.417   8.482 -1.0583 -0.5762 -0.7797
29734SOL     OW91208   7.341   9.564  10.607  0.5241  0.5650 -0.0171
29734SOL    HW191209   7.357   9.623  10.680  2.0304  1.6286 -1.1576
29734SOL    HW291210   7.416   9.576  10.549 -0.2213 -0.8547 -1.3544
29735SOL     OW91211   7.865   2.946   8.950 -0.1620  0.2011 -0.1154
29735SOL    HW191212   7.819   2.986   8.876 -0.6000  2.1311  1.1431
29735SOL    HW291213   7.956   2.975   8.941 -0.8304  3.3509  1.8694
29736SOL     OW91214   3.647   6.628   2.794  0.5207  0.2348  0.4743
29736SOL    HW191215   3.682   6.683   2.723  0.6084 -0.8989 -0.3834
29736SOL    HW291216   3.558   6.661   2.808  0.5196  0.5082 -0.1238
29737SOL     OW91217   3.347   6.311   1.320 -0.2700  0.0854  0.0988
29737SOL    HW191218   3.388   6.377   1.376  1.0933 -0.8386  0.2352
29737SOL    HW291219   3.258   6.303   1.355  0.1674  0.4110  1.3627
29738SOL     OW91220   4.734   5.750  10.867  0.0676  0.2131  0.3716
29738SOL    HW191221   4.738   5.703  10.950  1.3661 -0.3960 -0.0006
29738SOL    HW291222   4.800   5.819  10.876 -1.7046  1.9161  0.8513
29739SOL     OW91223   8.777   9.952   4.789  0.0285  0.2223 -0.2718
29739SOL    HW191224   8.758  10.024   4.729  0.4125  0.6373  0.0995
29739SOL    HW291225   8.713   9.962   4.860 -0.7995 -0.6037 -0.8818
29740SOL     OW91226   7.321   6.153   5.304  0.2482 -0.4496  0.2221
29740SOL    HW191227   7.279   6.163   5.390 -0.2625  0.3868 -0.1172
29740SOL    HW291228   7.413   6.135   5.325  0.2720  0.4587  0.9453
29741SOL     OW91229   9.204   7.444   0.638 -0.0089 -0.3684 -0.7233
29741SOL    HW191230   9.143   7.451   0.711  1.2866 -0.4884  0.4042
29741SOL    HW291231   9.228   7.351   0.635  2.0056  0.0559  0.4811
29742SOL     OW91232   9.932   2.024   6.954  0.6512  0.7871  0.0595
29742SOL    HW191233   9.919   2.118   6.945  0.3800  0.6772 -0.7807
29742SOL    HW291234  10.014   2.016   7.003  0.0001  1.4506  1.3122
29743SOL     OW91235   3.686   1.679  10.667 -0.3148  0.4545 -0.5147
29743SOL    HW191236   3.593   1.674  10.688 -0.1077  2.7904  1.3982
29743SOL    HW291237   3.720   1.750  10.723  2.9804 -1.4626  0.1898
29744SOL     OW91238   4.872   9.589  10.254 -0.2237 -0.5937 -0.0867
29744SOL    HW191239   4.925   9.653  10.208 -1.0134  0.6807  0.7327
29744SOL    HW291240   4.934   9.541  10.310 -0.0019  1.4930  1.5711
29745SOL     OW91241   6.094   6.207   9.835  0.0686 -0.4431 -0.4347
29745SOL    HW191242   6.004   6.217   9.867  0.1903  1.2627 -0.5420
29745SOL    HW291243   6.129   6.296   9.832  1.6339 -1.0279 -0.8110
29746SOL     OW91244   7.409   1.364   0.727 -0.1431  1.0379 -0.2399
29746SOL    HW191245   7.335   1.416   0.695 -2.7649 -1.6450  1.0236
29746SOL    HW291246   7.434   1.406   0.810 -0.7710  1.5058 -0.2821
29747SOL     OW91247   8.412   0.320   7.815  0.4132 -0.8329 -0.3710
29747SOL    HW191248   8.383   0.229   7.823  2.7175 -1.4586  2.4793
29747SOL    HW291249   8.376   0.364   7.891  0.3847  0.3584 -1.0452
29748SOL     OW91250   3.591   0.519   5.485  0.3160  0.3060  0.3969
29748SOL    HW191251   3.544   0.528   5.569 -0.9529  0.0950 -0.2562
29748SOL    HW291252   3.576   0.427   5.460  0.1448  0.5295 -0.3484
29749SOL     OW91253   9.903   5.358  10.860 -0.9348  0.5213  0.5378
29749SOL    HW191254   9.972   5.312  10.908 -2.0070  0.8172  2.4978
29749SOL    HW291255   9.928   5.451  10.865 -1.9521  0.7416  2.1890
29750SOL     OW91256   4.982   2.541   2.283 -0.0731  0.5669 -0.3094
29750SOL    HW191257   5.052   2.517   2.343 -1.1969 -1.2236  0.3859
29750SOL    HW291258   4.983   2.472   2.217 -2.1638 -0.4346  0.6185
29751SOL     OW91259   4.632  10.505   3.273 -0.3407  0.0300 -0.5590
29751SOL    HW191260   4.557  10.523   3.329  0.6684 -2.7502  1.8984
29751SOL    HW291261   4.706  10.545   3.319  0.4201 -1.7949 -0.1260
29752SOL     OW91262   3.540   7.488   4.516 -0.4194  0.3229 -0.0006
29752SOL    HW191263   3.629   7.522   4.512 -1.4361  3.2182 -0.6524
29752SOL    HW291264   3.528   7.441   4.433  0.4213  0.0422  0.0294
29753SOL     OW91265   9.941   0.094  10.232 -0.8004  0.4387  0.1189
29753SOL    HW191266   9.927   0.014  10.282  0.2634 -0.2701 -0.6739
29753SOL    HW291267   9.884   0.159  10.273  0.0213 -0.1050  2.2299
29754SOL     OW91268   1.692  10.562   7.264  0.0027 -0.0602 -0.5819
29754SOL    HW191269   1.669  10.616   7.188 -0.5415 -0.8756 -1.0122
29754SOL    HW291270   1.756  10.614   7.312 -1.7186  1.6994 -0.0871
29755SOL     OW91271   7.814   2.280   2.882  0.0801  0.3443 -0.3904
29755SOL    HW191272   7.840   2.257   2.972  0.8306  0.9165 -0.4448
29755SOL    HW291273   7.724   2.310   2.890  0.2348  0.6622  0.2281
29756SOL     OW91274   5.961   2.693   7.385 -0.0794  0.0337 -0.5904
29756SOL    HW191275   6.016   2.645   7.323  1.0427 -3.5698  2.7178
29756SOL    HW291276   5.945   2.630   7.455 -2.2308  3.3435  2.2253
29757SOL     OW91277   9.271   6.544   7.083 -0.1701 -0.0299 -0.1018
29757SOL    HW191278   9.346   6.557   7.141 -1.4216 -0.1198  1.6087
29757SOL    HW291279   9.310   6.528   6.997  1.7154  1.3200  0.4383
29758SOL     OW91280   2.249   7.525   3.241  0.2281  0.0388 -0.2776
29758SOL    HW191281   2.234   7.436   3.274 -0.0274 -0.8526 -2.5929
29758SOL    HW291282   2.333   7.551   3.279  0.3318 -1.2135  0.3996
29759SOL     OW91283   2.343   4.513   2.308  0.5616  0.6087  0.3821
29759SOL    HW191284   2.254   4.484   2.290  0.3553  0.8529  0.9949
29759SOL    HW291285   2.398   4.443   2.273  0.1514  0.6991 -0.4596
29760SOL     OW91286   2.994   5.688   6.822  0.3800 -0.0852  0.2307
29760SOL    HW191287   2.936   5.761   6.802  1.4028  0.6013 -0.3260
29760SOL    HW291288   2.936   5.612   6.828 -0.7588  0.8328  1.2939
29761SOL     OW91289   1.431  10.910   2.945  0.6107 -0.6842 -0.0427
29761SOL    HW191290   1.442  10.912   2.850  1.5504  1.3686  0.0478
29761SOL    HW291291   1.470  10.827   2.972  0.8709 -1.0288 -1.3838
29762SOL     OW91292   8.097   9.032   9.205 -0.0740  0.0995 -0.4176
29762SOL    HW191293   8.144   9.089   9.143 -0.4780 -1.1310 -1.9402
29762SOL    HW291294   8.017   9.080   9.226  0.1395  0.6106 -0.7383
29763SOL     OW91295   3.933  10.352   0.097 -0.5159 -0.0013  0.2126
29763SOL    HW191296   3.870  10.404   0.148  0.0448 -1.1655  2.2135
29763SOL    HW291297   4.017  10.371   0.138  0.2271  0.2170 -1.3372
29764SOL     OW91298   7.444   4.211   8.951  0.1975 -0.1919 -0.3547
29764SOL    HW191299   7.491   4.285   8.912 -0.1520  1.3389  1.9499
29764SOL    HW291300   7.361   4.206   8.902  1.3093 -0.8525 -2.2917
29765SOL     OW91301  10.467   4.145   8.647 -0.1117  0.0036 -0.0063
29765SOL    HW191302  10.544   4.122   8.595  0.7387 -1.1497  1.6681
29765SOL    HW291303  10.397   4.089   8.612 -0.0624  0.5732 -1.0854
29766SOL     OW91304   3.863   1.383   0.887  0.1064  0.0664 -0.3187
29766SOL    HW191305   3.795   1.426   0.939 -1.1020 -0.8686 -1.0578
29766SOL    HW291306   3.940   1.381   0.944 -0.7565  0.3241  0.8894
29767SOL     OW91307  10.409   2.111   2.805  0.1775 -0.1852  0.4931
29767SOL    HW191308  10.396   2.016   2.811  0.2422 -0.1724  0.8923
29767SOL    HW291309  10.375   2.145   2.888 -0.9191  0.2690 -0.1224
29768SOL     OW91310  10.640   2.494   5.330  0.1020 -0.2250 -0.3520
29768SOL    HW191311  10.579   2.552   5.286 -2.2413 -2.9181 -0.9329
29768SOL    HW291312  10.710   2.480   5.267  0.5834  1.6648 -0.2921
29769SOL     OW91313   3.879   7.001  10.550 -0.1595  0.0968 -0.9519
29769SOL    HW191314   3.946   7.019  10.484  1.8988 -2.0817  0.3726
29769SOL    HW291315   3.928   6.991  10.632 -2.3741  0.5110  0.5187
29770SOL     OW91316   4.539   3.069   3.883  0.0630  0.7179 -0.3875
29770SOL    HW191317   4.632   3.091   3.886 -0.0271  1.3377 -1.6394
29770SOL    HW291318   4.520   3.031   3.969  1.1414  1.8710  0.3803
29771SOL     OW91319   7.017   5.665   3.070 -0.4220 -0.0327 -0.5326
29771SOL    HW191320   7.112   5.662   3.083 -0.5237  2.2320  1.3322
29771SOL    HW291321   7.001   5.752   3.035 -2.0155  0.6150  1.6439
29772SOL     OW91322   7.359   0.015   1.897  0.8688 -0.0006  0.4964
29772SOL    HW191323   7.416   0.090   1.914  0.3771  0.0954  1.8270
29772SOL    HW291324   7.390  -0.020   1.814 -0.7376  3.4464 -1.7939
29773SOL     OW91325   0.235   4.899   5.719  0.9069 -1.0197  0.2709
29773SOL    HW191326   0.225   4.992   5.742  0.3091 -0.7890 -0.8287
29773SOL    HW291327   0.272   4.859   5.797  0.5512  0.0253  1.0053
29774SOL     OW91328   6.184   5.985   6.762  0.5299  0.1157 -0.1073
29774SOL    HW191329   6.098   5.966   6.725  1.3718 -1.4883 -1.3934
29774SOL    HW291330   6.205   5.907   6.814  1.5275  0.1167 -0.4908
29775SOL     OW91331   5.104   2.990   3.627  0.2814  0.5528 -0.4607
29775SOL    HW191332   5.173   3.056   3.636 -0.1565  0.9325  0.2414
29775SOL    HW291333   5.023   3.041   3.621  0.0592  0.1126 -1.2652
29776SOL     OW91334   0.661   4.409   1.437  0.1397  0.5130 -0.1687
29776SOL    HW191335   0.753   4.387   1.452  0.0235  1.0444  1.6643
29776SOL    HW291336   0.648   4.400   1.343  1.6427 -1.1714 -0.2571
29777SOL     OW91337   4.055   9.653   7.882  0.2226 -0.0313  0.1848
29777SOL    HW191338   3.966   9.682   7.861 -0.1965 -0.2568  1.5593
29777SOL    HW291339   4.044   9.593   7.956  1.6710  1.4623  1.7093
29778SOL     OW91340   9.968   4.302   4.670 -0.0763 -0.7178  0.0613
29778SOL    HW191341   9.979   4.391   4.703  0.4899 -1.2212  1.2955
29778SOL    HW291342   9.978   4.310   4.575  2.6126  0.1887  0.3188
29779SOL     OW91343   2.090  10.908   7.256 -0.9378 -0.4218  0.1442
29779SOL    HW191344   2.045  10.857   7.187  0.2371 -0.1790 -0.8369
29779SOL    HW291345   2.165  10.854   7.280 -0.7291  0.0046  0.4528
29780SOL     OW91346   6.525  10.808   5.755 -0.2984 -0.4419 -0.6653
29780SOL    HW191347   6.561  10.824   5.668  0.3017 -0.6647 -0.4656
29780SOL    HW291348   6.488  10.720   5.751 -1.6036  0.1065 -1.1175
29781SOL     OW91349   2.538  10.326   0.000 -0.0047  0.6722  0.0687
29781SOL    HW191350   2.568  10.386   0.069  0.4574  0.6870 -0.1462
29781SOL    HW291351   2.448  10.303   0.026  0.9061 -1.1337  1.9427
29782SOL     OW91352   6.165   9.795   6.917  0.3799  0.2377 -0.4395
29782SOL    HW191353   6.163   9.867   6.979 -0.3841  0.8279 -1.1212
29782SOL    HW291354   6.257   9.785   6.893  0.5302  0.7497 -0.0778
29783SOL     OW91355   8.571   3.015   2.989 -0.3383 -0.0330  0.4350
29783SOL    HW191356   8.496   2.960   3.011 -0.1437 -1.2764 -1.6555
29783SOL    HW291357   8.550   3.051   2.903  1.5822 -0.7242 -0.3808
29784SOL     OW91358   0.085   2.279   4.728  0.1467  0.0404  0.1620
29784SOL    HW191359   0.013   2.309   4.673  0.1742  1.2845  0.7803
29784SOL    HW291360   0.047   2.208   4.780  0.0239 -0.9043 -1.1558
29785SOL     OW91361   5.794   6.593   2.861 -0.1138 -0.1629  0.6319
29785SOL    HW191362   5.810   6.501   2.885 -1.4343 -0.1449  1.6753
29785SOL    HW291363   5.845   6.605   2.781  0.8335 -1.5370  0.9762
29786SOL     OW91364  10.338   6.353   7.716  0.1203  0.2055 -0.0918
29786SOL    HW191365  10.369   6.443   7.704 -0.3253  0.2633 -0.8392
29786SOL    HW291366  10.273   6.340   7.647 -1.8233  0.2132  1.6483
29787SOL     OW91367   0.441   1.475   4.093  0.4226  0.4383  0.5117
29787SOL    HW191368   0.440   1.408   4.162  0.5482 -1.2890 -1.0840
29787SOL    HW291369   0.378   1.540   4.122  2.5260  1.2958  3.6491
29788SOL     OW91370   6.014   0.675   4.932 -0.9044 -0.2647 -0.5980
29788SOL    HW191371   6.023   0.683   5.027  1.2910 -3.6373 -0.3467
29788SOL    HW291372   5.919   0.672   4.917 -1.2852 -0.1701  1.5563
29789SOL     OW91373   3.726   8.276   8.305 -0.2117 -0.2799  0.4997
29789SOL    HW191374   3.657   8.277   8.371 -1.1181  0.2162 -0.4234
29789SOL    HW291375   3.725   8.364   8.267 -0.2615 -0.7772 -0.7175
29790SOL     OW91376   6.244   0.160   3.343 -0.8490 -0.0328  0.3879
29790SOL    HW191377   6.316   0.224   3.341 -2.0996  1.3944 -0.2199
29790SOL    HW291378   6.287   0.078   3.369  0.8305  0.9888  1.0285
29791SOL     OW91379   0.261   7.983   7.161  0.0327 -0.4387 -0.4770
29791SOL    HW191380   0.356   7.976   7.173 -0.1020 -0.1027  1.0364
29791SOL    HW291381   0.224   7.937   7.237 -0.9562  2.0934  0.7060
29792SOL     OW91382   8.909   6.816   9.785  0.5838 -0.4847 -0.5567
29792SOL    HW191383   8.978   6.751   9.798  2.3922  1.4061 -0.1391
29792SOL    HW291384   8.911   6.835   9.691  1.3198  0.2602 -0.3982
29793SOL     OW91385   1.931   2.729   4.482 -0.0438 -1.0530 -0.1676
29793SOL    HW191386   1.993   2.658   4.464  0.6432 -0.7994  1.0914
29793SOL    HW291387   1.968   2.805   4.437  1.9581 -0.2864  2.5039
29794SOL     OW91388   5.960   9.071   6.732  0.1509 -0.0762 -0.4915
29794SOL    HW191389   5.998   9.112   6.654  1.2797 -0.4265 -0.1582
29794SOL    HW291390   6.028   9.081   6.799  0.8370 -3.0544 -0.5832
29795SOL     OW91391   5.460   6.936   2.073  0.0172  0.1349 -0.5618
29795SOL    HW191392   5.544   6.930   2.027  1.1149  0.0100  1.3205
29795SOL    HW291393   5.394   6.924   2.005  1.5359 -0.4771 -2.0088
29796SOL     OW91394   5.319   0.102  10.910  0.3519 -0.5825  0.2900
29796SOL    HW191395   5.409   0.134  10.907  0.4303 -0.2635  3.1547
29796SOL    HW291396   5.323   0.025  10.967 -1.2775 -0.0237  1.2377
29797SOL     OW91397   2.751  10.973   8.655  0.0440 -0.2069  0.3063
29797SOL    HW191398   2.798  10.903   8.699 -1.2111 -0.7276  0.8599
29797SOL    HW291399   2.796  11.053   8.683  0.5736 -0.6789  0.8381
29798SOL     OW91400   2.561   3.292   1.534 -0.1699  1.0034  0.1699
29798SOL    HW191401   2.596   3.312   1.621  3.1994 -2.7822 -0.0285
29798SOL    HW291402   2.609   3.350   1.475 -2.8803  4.0086  0.6166
29799SOL     OW91403   7.909  10.135   7.577  0.3009 -1.1315  0.3782
29799SOL    HW191404   7.836  10.156   7.518  0.4704 -0.9939  0.2177
29799SOL    HW291405   7.867  10.110   7.659  0.0534 -1.5972  0.1117
29800SOL     OW91406   2.239   5.727   8.023 -0.2654  0.3346 -0.2801
29800SOL    HW191407   2.165   5.784   8.045 -0.6744 -0.6125  0.8577
29800SOL    HW291408   2.204   5.638   8.031  1.7218 -0.2819  3.2728
29801SOL     OW91409   9.224   6.607   5.769 -0.1216  0.4759  0.2501
29801SOL    HW191410   9.306   6.629   5.812  0.2395  1.9092 -1.0755
29801SOL    HW291411   9.164   6.586   5.840  1.1071  0.3931  1.2902
29802SOL     OW91412  11.072   4.031   5.709  0.1244 -0.0055  0.3784
29802SOL    HW191413  11.122   3.988   5.779  1.4306 -0.2235 -0.6555
29802SOL    HW291414  11.059   3.963   5.643 -1.0861  0.2043  0.3783
29803SOL     OW91415   1.012   5.701   4.625  0.5113 -0.0914 -0.0909
29803SOL    HW191416   0.977   5.666   4.707  0.2974 -0.2022 -0.2304
29803SOL    HW291417   1.094   5.654   4.612 -0.0944 -1.0261 -0.6245
29804SOL     OW91418   6.929   3.082   6.136 -0.1306  0.4242 -0.5943
29804SOL    HW191419   6.979   3.080   6.054 -0.6484 -3.2677 -0.9832
29804SOL    HW291420   6.837   3.080   6.107 -0.3163 -0.8860  0.0433
29805SOL     OW91421   5.436   9.200   8.677  0.3654  0.1731  0.0824
29805SOL    HW191422   5.492   9.167   8.606  0.2855 -0.2736  0.2225
29805SOL    HW291423   5.438   9.131   8.743  0.3122  0.5210  0.4486
29806SOL     OW91424   2.325   6.872   9.754  0.0326 -0.2087  0.6569
29806SOL    HW191425   2.406   6.922   9.742  0.6555 -1.4942 -0.8930
29806SOL    HW291426   2.257   6.928   9.719  0.4037  0.4437  0.9637
29807SOL     OW91427   5.565   4.565   6.712  0.0277 -0.3720  0.3556
29807SOL    HW191428   5.610   4.636   6.666 -1.1584 -0.0053 -0.2747
29807SOL    HW291429   5.599   4.569   6.801 -0.8924  1.8005  0.6790
29808SOL     OW91430   0.220   9.183   4.492 -0.7522  0.0570 -0.0258
29808SOL    HW191431   0.215   9.226   4.407  0.6082  0.7444  0.2222
29808SOL    HW291432   0.253   9.095   4.474  1.4583  0.8322 -0.0671
29809SOL     OW91433   7.488  10.231   7.699 -0.2141 -0.2667 -0.0756
29809SOL    HW191434   7.462  10.141   7.716  0.8807 -0.7408 -0.8275
29809SOL    HW291435   7.553  10.251   7.766 -2.0448  0.7669  1.5125
29810SOL     OW91436   6.101   1.028  10.687 -0.1178 -0.3119  0.2313
29810SOL    HW191437   6.112   1.047  10.780 -0.8031  0.9446  0.0749
29810SOL    HW291438   6.126   1.109  10.643  1.1445 -1.2040 -0.7478
29811SOL     OW91439   1.545   4.316   5.223 -0.4397  0.0712  0.1724
29811SOL    HW191440   1.590   4.296   5.305 -1.2720  1.6207  1.0374
29811SOL    HW291441   1.585   4.397   5.192 -1.7146  0.7717  0.2895
29812SOL     OW91442   4.560   9.231   9.717  0.1045 -0.0404 -0.2496
29812SOL    HW191443   4.587   9.152   9.765 -0.2517  0.2988  0.5149
29812SOL    HW291444   4.535   9.293   9.785 -0.0358  0.5880 -0.8667
29813SOL     OW91445   3.204   1.623  11.020 -0.0735 -0.2597 -0.0291
29813SOL    HW191446   3.184   1.675  10.942 -0.4189 -0.1757  0.1154
29813SOL    HW291447   3.225   1.689  11.087 -1.3178 -0.2603  0.3868
29814SOL     OW91448   0.744   2.891   6.582 -0.2327 -0.1939  0.1647
29814SOL    HW191449   0.810   2.960   6.584 -0.4366  0.1509 -2.5174
29814SOL    HW291450   0.780   2.822   6.639  1.4292  0.8291  0.4108
29815SOL     OW91451   9.715   6.604   0.625 -0.2408  0.3451 -0.1143
29815SOL    HW191452   9.697   6.656   0.703  1.8150  2.2427 -0.8170
29815SOL    HW291453   9.799   6.635   0.593 -0.2338 -1.5133 -2.1955
29816SOL     OW91454   0.203   3.166   6.369  0.3364 -0.2374 -0.3004
29816SOL    HW191455   0.243   3.150   6.455  1.0940 -0.3227 -0.6580
29816SOL    HW291456   0.138   3.097   6.360 -0.7927  0.6371  0.8288
29817SOL     OW91457   9.603   6.449   0.402  0.1003 -0.2885 -0.4829
29817SOL    HW191458   9.633   6.491   0.482 -0.8756 -0.1100 -0.1931
29817SOL    HW291459   9.570   6.363   0.431  2.4043 -1.4603 -1.1128
29818SOL     OW91460   8.803   7.073   3.787  0.4623 -0.7743  0.6834
29818SOL    HW191461   8.763   7.069   3.700  1.3078 -2.4947  0.3333
29818SOL    HW291462   8.737   7.115   3.842  0.3755  1.4947 -1.0088
29819SOL     OW91463  10.494   3.564   1.267 -0.1866 -0.4680  0.7353
29819SOL    HW191464  10.404   3.561   1.234 -0.5174 -4.3468  1.5570
29819SOL    HW291465  10.487   3.601   1.355 -0.9003 -0.2169  0.5738
29820SOL     OW91466  10.895   9.355   5.850 -0.4249  0.5147  0.3660
29820SOL    HW191467  10.822   9.305   5.886 -1.3930  0.6166 -1.3633
29820SOL    HW291468  10.863   9.444   5.844  0.6382  1.0230  1.6356
29821SOL     OW91469   0.023   4.240   1.895  0.0812 -0.2509 -0.0135
29821SOL    HW191470  -0.023   4.176   1.841 -2.1818  1.1459  0.1437
29821SOL    HW291471  -0.003   4.219   1.985  0.1134  0.2570  0.1198
29822SOL     OW91472   6.587   7.618   1.817 -0.8390  0.0524 -0.8073
29822SOL    HW191473   6.656   7.579   1.764 -0.0457  1.2746 -0.6850
29822SOL    HW291474   6.601   7.582   1.905  1.3240  2.2865 -0.1427
29823SOL     OW91475   0.497   4.838   3.738  0.0755  0.0883 -0.1120
29823SOL    HW191476   0.496   4.743   3.729 -1.1604  0.1967 -1.5245
29823SOL    HW291477   0.475   4.871   3.650  4.3116  1.8017 -0.7869
29824SOL     OW91478   2.849   5.113   6.615  0.2411  0.0406  0.1476
29824SOL    HW191479   2.883   5.043   6.559 -0.3172  0.5872 -0.9218
29824SOL    HW291480   2.761   5.086   6.638  0.5352 -0.2713  0.9502
29825SOL     OW91481   1.076  10.549   6.235  0.1291 -0.2590  0.3021
29825SOL    HW191482   1.084  10.642   6.260  2.6490 -0.5846  1.0104
29825SOL    HW291483   1.095  10.548   6.141 -1.2485  0.0503 -0.0046
29826SOL     OW91484   6.753   9.477   9.209 -0.6495 -0.1378 -0.2285
29826SOL    HW191485   6.809   9.432   9.272 -1.5553 -0.7546  0.1750
29826SOL    HW291486   6.802   9.474   9.126 -0.7647 -2.1697 -0.2934
29827SOL     OW91487   8.144   1.309   9.093 -0.3467  0.3167  0.5044
29827SOL    HW191488   8.096   1.226   9.104 -2.5049  1.5370  0.8944
29827SOL    HW291489   8.224   1.284   9.046 -0.3748 -2.1390  1.5759
29828SOL     OW91490   0.024   0.827   6.463  0.0788  0.3786 -0.0663
29828SOL    HW191491   0.077   0.761   6.509 -1.0621  0.8739  2.0975
29828SOL    HW291492   0.059   0.911   6.494  0.1451  0.7791 -1.1806
29829SOL     OW91493   1.419   0.679   8.824 -0.1286 -0.7432  0.6318
29829SOL    HW191494   1.440   0.589   8.848 -1.7864 -1.3831 -0.1378
29829SOL    HW291495   1.378   0.672   8.738  2.2250  1.0849 -0.7563
29830SOL     OW91496   8.641   8.560   8.768 -0.6478  0.4650  0.2296
29830SOL    HW191497   8.732   8.548   8.738 -0.7786 -1.2137  0.3863
29830SOL    HW291498   8.589   8.560   8.687 -0.5747  0.6882  0.1827
29831SOL     OW91499   2.720   0.556   7.844 -0.3880  0.0167 -0.1644
29831SOL    HW191500   2.763   0.599   7.770  0.2093 -1.2509 -0.5964
29831SOL    HW291501   2.680   0.478   7.806 -1.2949  0.0879  0.6097
29832SOL     OW91502   1.765   9.193   3.438  0.3960  0.2071 -0.0133
29832SOL    HW191503   1.833   9.186   3.505  0.6021 -2.8293 -0.3985
29832SOL    HW291504   1.813   9.199   3.355  0.1314  2.1897 -0.0724
29833SOL     OW91505   0.701   6.122  11.006 -0.0844  0.6665 -0.7081
29833SOL    HW191506   0.647   6.200  11.021 -0.6408  0.2425 -0.4818
29833SOL    HW291507   0.640   6.049  11.012  0.6316  0.1199  0.2989
29834SOL     OW91508   1.521   0.810   7.943 -0.0461 -0.4116  0.1424
29834SOL    HW191509   1.545   0.854   8.024 -0.3561 -0.8177  0.4557
29834SOL    HW291510   1.564   0.725   7.946  2.1318  0.5468 -1.3318
29835SOL     OW91511   9.294   5.478   2.951 -0.1970 -0.2043 -0.4973
29835SOL    HW191512   9.245   5.398   2.931  0.8667 -1.3905  1.3540
29835SOL    HW291513   9.348   5.455   3.026  2.2283  1.4311 -1.6203
29836SOL     OW91514   0.647   3.134   8.940 -0.4790 -0.4372  0.1677
29836SOL    HW191515   0.585   3.200   8.909  0.6447  0.6239  0.1111
29836SOL    HW291516   0.720   3.139   8.879  1.8325  1.7374  2.8308
29837SOL     OW91517   2.344   6.074   6.293  0.3354  1.5856 -0.4003
29837SOL    HW191518   2.438   6.077   6.273  0.6002 -4.2749 -1.7686
29837SOL    HW291519   2.300   6.085   6.209  0.4694 -2.8273 -1.3222
29838SOL     OW91520  10.065   8.999   5.216  0.2536  0.6857 -0.1924
29838SOL    HW191521  10.117   9.012   5.136 -1.0928 -2.5700 -1.8037
29838SOL    HW291522   9.988   8.951   5.186 -1.7543  1.8483  2.7237
29839SOL     OW91523   1.045   3.474  10.384 -1.2321  0.5228 -0.3894
29839SOL    HW191524   1.100   3.534  10.434 -1.1661 -0.7246  1.1115
29839SOL    HW291525   0.967   3.525  10.362 -1.3346  1.0743  1.1512
29840SOL     OW91526   1.817   2.223   2.385  0.4753  0.0572  0.3275
29840SOL    HW191527   1.750   2.286   2.358  0.8699  0.1256 -0.5250
29840SOL    HW291528   1.818   2.229   2.480  0.8690  1.7342  0.2536
29841SOL     OW91529   4.867   2.965   1.599 -0.1414 -0.6597 -0.2329
29841SOL    HW191530   4.833   2.910   1.528 -0.2769 -0.6469 -0.1797
29841SOL    HW291531   4.904   3.041   1.554 -2.4011  0.5554 -0.2154
29842SOL     OW91532   4.778   4.791   2.106 -0.3174  0.3444 -0.1258
29842SOL    HW191533   4.743   4.793   2.017  1.4328 -2.4048 -1.0066
29842SOL    HW291534   4.872   4.780   2.095  0.0757  0.8368  2.1053
29843SOL     OW91535  10.427   3.097   7.122 -0.0181  0.5911 -0.7413
29843SOL    HW191536  10.383   3.057   7.197  0.6194  1.0677 -0.1017
29843SOL    HW291537  10.356   3.131   7.067 -0.6516 -2.1546 -1.7785
29844SOL     OW91538   6.025  10.521  10.796  0.0736  0.2046  0.0410
29844SOL    HW191539   5.935  10.494  10.817  0.0808  0.0243 -0.1564
29844SOL    HW291540   6.021  10.617  10.795 -1.0012  0.2720 -3.5818
29845SOL     OW91541  10.044   6.645  10.745  0.2966 -0.0133  0.5154
29845SOL    HW191542  10.097   6.572  10.713  0.5855 -0.1278  1.2330
29845SOL    HW291543   9.970   6.604  10.790 -0.9349  0.1442 -1.2854
29846SOL     OW91544   7.257   2.078   5.316 -0.2120 -0.1025 -0.0362
29846SOL    HW191545   7.170   2.072   5.275  0.0008 -2.5700 -0.2824
29846SOL    HW291546   7.240   2.118   5.402 -1.6806 -0.8151  0.0491
29847SOL     OW91547  10.389   4.168   2.526 -0.0324  0.0350  0.2021
29847SOL    HW191548  10.414   4.241   2.469  0.5512 -0.3108  0.0089
29847SOL    HW291549  10.327   4.207   2.588  0.3800  0.7254  0.1926
29848SOL     OW91550   2.162   7.628   3.993  0.1720  0.2668  0.0680
29848SOL    HW191551   2.074   7.629   3.956 -0.5156  2.1271  1.5735
29848SOL    HW291552   2.153   7.586   4.078  0.7666  0.3173  0.1631
29849SOL     OW91553   7.281   8.167   7.868  0.2434 -0.2666  0.0534
29849SOL    HW191554   7.193   8.132   7.880  0.8244 -1.1389  2.2218
29849SOL    HW291555   7.270   8.262   7.870 -0.6478 -0.3698  0.1285
29850SOL     OW91556   5.683  10.096  10.193  0.1437  0.1989 -1.1555
29850SOL    HW191557   5.760  10.039  10.185  0.3680  0.3624 -0.2190
29850SOL    HW291558   5.716  10.175  10.236 -0.2546  0.8830 -2.0647
29851SOL     OW91559   1.178   0.875   8.050 -0.3963 -0.5215  0.0632
29851SOL    HW191560   1.192   0.947   7.988 -0.1720 -0.4552  0.1873
29851SOL    HW291561   1.153   0.801   7.996 -1.8163 -0.0412  0.0294
29852SOL     OW91562   8.290   1.209   5.740  0.1612  0.0360 -0.5446
29852SOL    HW191563   8.276   1.134   5.798  2.6736  0.6614  1.0396
29852SOL    HW291564   8.221   1.271   5.765  0.6898 -0.0434  1.2570
29853SOL     OW91565   7.139   1.436   1.338 -0.3114 -0.0621 -0.2509
29853SOL    HW191566   7.061   1.452   1.390  1.0330  1.2593  1.4970
29853SOL    HW291567   7.191   1.374   1.390 -0.5600 -1.7394 -1.8574
29854SOL     OW91568   9.391  10.396   2.649 -0.5371  0.3031  0.2326
29854SOL    HW191569   9.415  10.433   2.734 -1.0745  0.0297  0.5083
29854SOL    HW291570   9.471  10.354   2.618 -0.4622  0.0043  0.8159
29855SOL     OW91571   5.472   5.278   7.538 -0.1426 -0.5491  0.4920
29855SOL    HW191572   5.463   5.204   7.597  0.4335  0.0660  1.3676
29855SOL    HW291573   5.382   5.310   7.526 -0.2330 -0.4721  1.3087
29856SOL     OW91574   1.210   5.927   6.964 -0.0183 -0.1992 -0.8761
29856SOL    HW191575   1.243   5.911   7.053 -1.2995 -0.3389 -0.4106
29856SOL    HW291576   1.223   6.020   6.950 -0.3529 -0.0600 -0.3027
29857SOL     OW91577   2.083   1.354  10.262 -0.1286  0.1368  0.3819
29857SOL    HW191578   2.119   1.272  10.296 -0.3184 -0.8985 -1.7134
29857SOL    HW291579   2.026   1.386  10.332 -0.6908 -1.9763  0.9632
29858SOL     OW91580   6.398   9.569   6.214  0.1509  0.4356 -0.4734
29858SOL    HW191581   6.418   9.640   6.153 -0.7063 -0.1384 -1.4594
29858SOL    HW291582   6.320   9.600   6.261  0.0580  0.3541 -0.5717
29859SOL     OW91583   0.123   7.572   6.493  0.5008  0.5288 -0.3566
29859SOL    HW191584   0.171   7.648   6.459  1.4880  0.1428  0.1410
29859SOL    HW291585   0.031   7.592   6.474  0.9484  0.4569 -2.9783
29860SOL     OW91586   7.197   2.897   3.721  0.1057  0.2929 -0.7177
29860SOL    HW191587   7.274   2.879   3.666 -0.7677  0.6650 -2.1118
29860SOL    HW291588   7.128   2.917   3.658 -1.5987 -1.6796  0.4122
29861SOL     OW91589   9.803   9.557   7.167  0.3109  0.1963 -0.6522
29861SOL    HW191590   9.865   9.525   7.233  1.1864  3.5402  0.3257
29861SOL    HW291591   9.747   9.618   7.215 -0.0781  1.5276 -2.6797
29862SOL     OW91592   0.227   4.203   4.028  0.6178  0.9203 -0.2013
29862SOL    HW191593   0.184   4.213   4.113  2.2822  0.2320  0.7665
29862SOL    HW291594   0.317   4.232   4.043  1.7358 -1.8451 -0.9453
29863SOL     OW91595   4.059   2.601   0.002  0.8897 -0.8919  0.4543
29863SOL    HW191596   4.020   2.532   0.055  0.9448 -1.3225 -0.0570
29863SOL    HW291597   4.128   2.557  -0.048 -1.0237 -1.1767 -2.1439
29864SOL     OW91598  10.588   9.464   0.817  0.7895 -0.4789  0.4330
29864SOL    HW191599  10.675   9.502   0.802 -0.3588  2.2507  0.0317
29864SOL    HW291600  10.538   9.536   0.854 -2.0187 -1.1780 -1.7187
29865SOL     OW91601   9.862  10.615   4.436  0.1637 -0.0140 -0.2008
29865SOL    HW191602   9.948  10.656   4.448 -0.3937  1.1920 -0.2029
29865SOL    HW291603   9.809  10.652   4.506 -0.0315 -1.7530  0.6303
29866SOL     OW91604   7.614   9.097  10.014 -0.1092  0.4773  0.7769
29866SOL    HW191605   7.622   9.015   9.965 -1.2841 -0.7836  2.6238
29866SOL    HW291606   7.538   9.141   9.975  1.6070  1.6913 -1.4841
29867SOL     OW91607   7.309   9.449   7.183  0.5802  0.1161 -0.8791
29867SOL    HW191608   7.260   9.502   7.246  1.5485  0.4315 -0.3512
29867SOL    HW291609   7.401   9.470   7.201  1.0612 -2.2511 -0.1504
29868SOL     OW91610   1.277   8.061   4.727  0.4572 -0.8151 -0.2542
29868SOL    HW191611   1.270   7.973   4.765 -4.3791 -0.3544  0.6391
29868SOL    HW291612   1.256   8.049   4.634  1.4505 -0.7713 -0.4866
29869SOL     OW91613   4.664   3.069   5.815  0.0025 -0.4626  0.3325
29869SOL    HW191614   4.661   3.157   5.779 -0.0095 -0.2173  0.9229
29869SOL    HW291615   4.590   3.066   5.876 -1.2292 -1.5300 -1.1247
29870SOL     OW91616   9.232   3.056  10.026  0.3500 -0.3415 -0.1656
29870SOL    HW191617   9.311   3.003  10.034 -1.4137 -2.9785  1.2794
29870SOL    HW291618   9.205   3.072  10.117 -1.1584 -0.1374 -0.6226
29871SOL     OW91619   3.649   9.128   3.297  0.7012 -0.4297  0.0442
29871SOL    HW191620   3.734   9.112   3.336  0.5771  1.2913  1.1284
29871SOL    HW291621   3.598   9.169   3.366 -0.7885 -0.7806 -0.8027
29872SOL     OW91622   7.223   5.938   2.008  0.3771  0.1492  0.4555
29872SOL    HW191623   7.196   5.967   2.096  1.2551 -0.6669  1.0085
29872SOL    HW291624   7.141   5.907   1.968 -0.2255  1.4917  0.5702
29873SOL     OW91625   3.232   7.468   3.410  0.7438  0.0014  0.0697
29873SOL    HW191626   3.267   7.412   3.341  1.0824  0.9435 -0.5460
29873SOL    HW291627   3.260   7.556   3.386  0.7277  0.3704  1.3365
29874SOL     OW91628   2.112   9.977   8.324  0.5352  0.2412 -0.1260
29874SOL    HW191629   2.181   9.911   8.316 -0.2146 -0.7339  1.1349
29874SOL    HW291630   2.031   9.927   8.328  0.0263  1.1188  2.1357
29875SOL     OW91631   7.021   0.909   1.222 -0.1153 -0.2192 -0.2350
29875SOL    HW191632   7.112   0.939   1.233  1.2403 -3.9285 -0.1337
29875SOL    HW291633   7.007   0.910   1.128 -0.5486  1.6180 -0.2032
29876SOL     OW91634   0.231   5.768  10.072  0.1531 -0.0726  0.3120
29876SOL    HW191635   0.261   5.853  10.103  0.8228  0.4685 -1.6786
29876SOL    HW291636   0.307   5.711  10.080  0.3901  0.1228 -0.4959
29877SOL     OW91637  10.712  10.058   9.479 -0.6980 -0.0028 -0.0152
29877SOL    HW191638  10.794  10.096   9.447 -0.0705 -1.2594 -0.0015
29877SOL    HW291639  10.718   9.966   9.453 -2.1651 -0.0878 -0.0972
29878SOL     OW91640   1.848   6.434   1.676 -0.2819  0.2254  0.7434
29878SOL    HW191641   1.776   6.468   1.623 -0.0516  0.0385  0.3117
29878SOL    HW291642   1.901   6.382   1.615  0.7686  1.1662  0.8227
29879SOL     OW91643   0.827  10.491  10.154  0.3585  0.9690 -0.6136
29879SOL    HW191644   0.792  10.438  10.082 -1.1295  0.9748  0.0576
29879SOL    HW291645   0.770  10.470  10.228  2.8041 -0.2393  1.0290
29880SOL     OW91646  10.412   7.678   5.191 -0.4626  0.3563  0.1947
29880SOL    HW191647  10.416   7.586   5.217 -0.5829 -0.7911 -3.3244
29880SOL    HW291648  10.502   7.710   5.203 -0.6390  0.1748  2.4330
29881SOL     OW91649   5.695   4.051   7.309 -0.6475  0.9341 -0.5666
29881SOL    HW191650   5.757   4.118   7.281  1.2360  0.4598  2.1006
29881SOL    HW291651   5.736   3.968   7.286 -1.4289  0.6246 -0.8925
29882SOL     OW91652   6.891   2.089   7.185 -0.4371 -0.3764  0.0226
29882SOL    HW191653   6.896   2.040   7.268  2.0350  0.0453  0.1863
29882SOL    HW291654   6.852   2.173   7.209  1.4372  0.2432  1.0683
29883SOL     OW91655   6.491   5.572   1.934  0.0422 -0.7529  0.3768
29883SOL    HW191656   6.462   5.591   1.845  2.8522 -1.1088 -0.7104
29883SOL    HW291657   6.455   5.485   1.952 -0.3186 -0.8011 -0.5025
29884SOL     OW91658   9.011  11.078   5.277 -0.2207 -0.0707  0.0255
29884SOL    HW191659   9.095  11.068   5.321  0.3987  1.1726 -0.8176
29884SOL    HW291660   9.009  11.007   5.213 -0.2935 -0.7441  0.7709
29885SOL     OW91661  10.244  10.677   6.080 -0.0034  0.7891 -0.1986
29885SOL    HW191662  10.315  10.675   6.143  0.6554  1.4141 -0.9006
29885SOL    HW291663  10.238  10.769   6.053  1.4759  0.1704 -2.9557
29886SOL     OW91664   2.000   1.980  10.493 -0.3596  0.9663 -0.2316
29886SOL    HW191665   2.015   1.889  10.467 -0.5213  0.9142 -0.1400
29886SOL    HW291666   1.950   2.017  10.421 -1.2183  0.6946  0.2094
29887SOL     OW91667   9.976   5.716   4.223 -0.0189  0.2284  0.0185
29887SOL    HW191668   9.882   5.708   4.240  0.4391 -3.0561  1.9332
29887SOL    HW291669   9.995   5.645   4.162  1.1601  1.4352 -1.0888
29888SOL     OW91670   7.692  10.591   1.249  0.0126  0.4970 -0.1167
29888SOL    HW191671   7.618  10.572   1.307  0.6178  0.9285  0.8290
29888SOL    HW291672   7.722  10.678   1.277  0.0627  0.9048 -1.3693
29889SOL     OW91673  10.338  10.918   0.622 -0.1304  0.2750  0.3676
29889SOL    HW191674  10.354  10.995   0.676 -2.7646  0.5736  0.8881
29889SOL    HW291675  10.268  10.871   0.668 -0.9201 -0.6344 -1.6460
29890SOL     OW91676   8.824   5.030   6.621 -0.3615  0.9549  0.0130
29890SOL    HW191677   8.768   5.017   6.698  0.9207 -0.7495  0.7450
29890SOL    HW291678   8.890   5.093   6.650  1.3335 -1.1818  1.1105
29891SOL     OW91679   5.066   8.751   0.617  0.0617  0.6961  0.7002
29891SOL    HW191680   5.036   8.783   0.532  1.6592 -1.1359 -0.6693
29891SOL    HW291681   5.162   8.748   0.609  0.2793  0.8454  2.7309
29892SOL     OW91682   8.648   7.362   7.039  0.3522  0.4096 -0.3895
29892SOL    HW191683   8.696   7.428   7.090  0.6443  0.0176 -0.1494
29892SOL    HW291684   8.694   7.359   6.956  1.8114 -1.1519  0.4194
29893SOL     OW91685   3.894   9.442   2.725  0.2977  0.0876 -0.1573
29893SOL    HW191686   3.957   9.370   2.732  0.1604  0.0558  0.7965
29893SOL    HW291687   3.867   9.460   2.815 -0.8434  0.3048 -0.5243
29894SOL     OW91688   0.928   6.251   0.994 -0.0517  0.1374  0.0658
29894SOL    HW191689   0.871   6.176   0.980 -0.4021 -0.0011  1.9104
29894SOL    HW291690   0.951   6.282   0.907  1.8121 -3.3936 -0.8831
29895SOL     OW91691   7.885   4.939   0.173  0.3133 -0.2990 -0.2166
29895SOL    HW191692   7.928   5.001   0.114 -0.8166 -1.7571 -2.7853
29895SOL    HW291693   7.791   4.949   0.154  0.0481 -2.1168 -0.0880
29896SOL     OW91694   7.331   5.325   5.703  0.4472  0.0473  0.3286
29896SOL    HW191695   7.308   5.238   5.737 -0.6953 -0.0666 -0.6693
29896SOL    HW291696   7.423   5.335   5.725  0.5565 -1.3468  0.6317
29897SOL     OW91697   3.078   8.488   2.262  0.3208  0.1133  0.3856
29897SOL    HW191698   3.024   8.567   2.264  0.1492 -0.0119  1.7105
29897SOL    HW291699   3.057   8.446   2.178  0.4075  1.4497 -0.3285
29898SOL     OW91700   8.001   2.648   0.184  0.1117  0.0683 -0.2559
29898SOL    HW191701   8.044   2.718   0.134  0.9456  0.3524  0.8381
29898SOL    HW291702   7.924   2.690   0.222 -1.1946 -0.4361 -2.2010
29899SOL     OW91703   4.618   6.243   6.086 -0.4025  0.3379 -0.2748
29899SOL    HW191704   4.642   6.158   6.124 -1.2969  0.6018  0.9711
29899SOL    HW291705   4.670   6.250   6.006  1.4905 -0.3085  0.8436
29900SOL     OW91706   7.997   9.520   5.764 -0.1777 -0.5348 -0.3520
29900SOL    HW191707   8.036   9.463   5.697 -1.2169 -0.7135 -0.8353
29900SOL    HW291708   7.998   9.467   5.844  1.7652 -0.0486 -0.0048
29901SOL     OW91709   8.076   8.014  11.098  0.9121  0.3845  0.1375
29901SOL    HW191710   8.169   7.996  11.086  1.3097  0.8766  2.1503
29901SOL    HW291711   8.073   8.089  11.158 -0.7790  0.8168 -0.4394
29902SOL     OW91712   3.129  10.081   0.574 -0.9672 -0.7914  0.4039
29902SOL    HW191713   3.215  10.060   0.609 -1.1177 -0.7863  0.7813
29902SOL    HW291714   3.095  10.148   0.634 -0.7654  0.0392 -0.3915
29903SOL     OW91715   7.541   8.941   9.048 -0.6084 -0.5808 -0.4743
29903SOL    HW191716   7.550   9.018   8.993  0.3951 -0.8895 -0.7718
29903SOL    HW291717   7.608   8.880   9.015 -1.8948 -1.8952 -0.7696
29904SOL     OW91718   7.510   2.671   8.065 -0.4681  0.1495 -0.3768
29904SOL    HW191719   7.440   2.730   8.093 -0.7216 -1.0521  1.7619
29904SOL    HW291720   7.468   2.585   8.059  0.8642 -0.7028  1.4963
29905SOL     OW91721   8.658   9.254   1.886  1.0083  0.5902 -0.0530
29905SOL    HW191722   8.735   9.307   1.905  2.1272 -0.9618 -0.1623
29905SOL    HW291723   8.653   9.254   1.790  2.9061 -2.0552 -0.2303
29906SOL     OW91724  11.050   6.037   1.661 -0.2516  0.2002  0.0398
29906SOL    HW191725  11.119   5.982   1.698 -0.1604  0.4561  0.2529
29906SOL    HW291726  10.970   5.985   1.670  0.0898 -0.5930 -1.2902
29907SOL     OW91727   9.831   2.393   5.125  0.2746 -0.0158  0.2608
29907SOL    HW191728   9.846   2.361   5.214 -0.6830 -0.2348  0.3650
29907SOL    HW291729   9.783   2.322   5.082  1.6281 -0.3498 -0.7674
29908SOL     OW91730   9.565  10.901   3.084  0.0756 -0.4145  0.8483
29908SOL    HW191731   9.541  10.881   2.994  0.7651 -1.8405  0.9585
29908SOL    HW291732   9.618  10.980   3.078  0.5406 -0.7798 -0.0648
29909SOL     OW91733   2.232   5.508   2.857  0.2293 -0.0907  0.2153
29909SOL    HW191734   2.310   5.513   2.802 -1.4951  3.5743 -2.2606
29909SOL    HW291735   2.263   5.533   2.944  2.2349 -1.3757 -0.0767
29910SOL     OW91736   7.556   1.954   3.949  0.5370 -0.2209  0.0358
29910SOL    HW191737   7.488   1.887   3.940 -0.2241  0.3874  1.0619
29910SOL    HW291738   7.556   1.999   3.865 -0.8937  0.2731  0.2630
29911SOL     OW91739   5.390   1.417   4.442 -1.0445 -0.0995 -0.3200
29911SOL    HW191740   5.332   1.355   4.399 -1.6696  1.9144 -2.5731
29911SOL    HW291741   5.416   1.478   4.373  0.9074  1.1645  1.4008
29912SOL     OW91742   8.977   0.418   1.341 -0.3615  0.1336  0.6023
29912SOL    HW191743   9.060   0.407   1.388  0.3307 -1.8208 -0.9171
29912SOL    HW291744   9.004   0.438   1.251 -1.4860 -1.2175 -0.0795
29913SOL     OW91745   5.352   7.793   7.255 -0.1905  0.1915  0.5773
29913SOL    HW191746   5.445   7.771   7.263 -0.2474 -0.5487 -0.5434
29913SOL    HW291747   5.350   7.861   7.187 -0.6131 -1.1119 -0.7560
29914SOL     OW91748   6.239   8.270   4.589  0.0084  0.3825  0.1461
29914SOL    HW191749   6.321   8.246   4.547 -0.2387  2.2323 -1.5308
29914SOL    HW291750   6.204   8.187   4.623  1.3762 -0.8162 -1.2410
29915SOL     OW91751   1.283   1.538   8.154 -0.1783  0.4755 -0.0566
29915SOL    HW191752   1.211   1.601   8.143 -0.7192 -0.0562  0.3855
29915SOL    HW291753   1.244   1.466   8.203  0.5665  0.0108 -0.1417
29916SOL     OW91754   8.877   1.060   5.217  0.1017 -0.3199 -0.4551
29916SOL    HW191755   8.933   1.137   5.222 -0.4455  0.0018  1.0155
29916SOL    HW291756   8.908   1.014   5.138  4.5067 -1.7310  1.7321
29917SOL     OW91757   6.160   3.892   6.078  0.1020  0.5030  0.2961
29917SOL    HW191758   6.238   3.901   6.022  0.2519  0.6161  0.5220
29917SOL    HW291759   6.136   3.800   6.070 -0.2162  0.6415 -0.4058
29918SOL     OW91760   0.384   4.966   1.565  0.0708 -0.0905  0.6940
29918SOL    HW191761   0.367   4.879   1.530  0.9381 -0.0101  0.0197
29918SOL    HW291762   0.363   5.025   1.492  0.4591  0.1867  0.8013
29919SOL     OW91763   9.407   7.525   2.061 -0.0261 -0.1964  0.3705
29919SOL    HW191764   9.398   7.559   2.150  1.3650 -0.4888  0.6468
29919SOL    HW291765   9.337   7.568   2.012 -0.4843  0.3759  1.4800
29920SOL     OW91766   9.222   6.730  10.875 -0.4347 -0.2883  0.1432
29920SOL    HW191767   9.224   6.692  10.786  0.5444 -1.1416  0.5064
29920SOL    HW291768   9.166   6.807  10.867 -0.5246 -0.4670 -1.1762
29921SOL     OW91769   9.836   3.909   4.575  0.2329  0.1169  0.0358
29921SOL    HW191770   9.789   3.975   4.627 -1.1943 -0.9738  0.2220
29921SOL    HW291771   9.804   3.922   4.486 -0.0830 -0.3142  0.0794
29922SOL     OW91772   4.039   9.731   6.940  0.6801  0.0823  0.0909
29922SOL    HW191773   3.970   9.792   6.913 -0.2520 -1.1922 -0.5661
29922SOL    HW291774   4.103   9.733   6.869  0.1148 -0.4583 -0.4573
29923SOL     OW91775   1.612   0.039   2.302 -0.1223 -0.1535 -0.2666
29923SOL    HW191776   1.517   0.034   2.288 -0.9707  0.8735  3.8373
29923SOL    HW291777   1.634   0.130   2.285  0.3058 -0.5091 -1.7541
29924SOL     OW91778   2.094   7.607  10.920  0.5887 -0.2607 -0.5331
29924SOL    HW191779   2.141   7.540  10.970 -1.6775 -1.1674  0.5703
29924SOL    HW291780   2.096   7.684  10.977  0.8514 -0.2611 -0.5424
29925SOL     OW91781   2.703   6.995   3.909  1.1205  0.0665  0.5354
29925SOL    HW191782   2.665   7.067   3.858  0.3931 -0.2324  0.6541
29925SOL    HW291783   2.682   7.017   4.000  1.2006 -0.1223  0.5992
29926SOL     OW91784   0.513   9.608   5.676 -1.0006 -0.3012 -0.1481
29926SOL    HW191785   0.445   9.668   5.707  0.3955  1.3277 -0.0959
29926SOL    HW291786   0.588   9.626   5.732  0.1194 -0.5802 -1.5079
29927SOL     OW91787   4.519   1.007  10.223 -0.3126 -0.5518 -0.6164
29927SOL    HW191788   4.485   1.052  10.300  0.7977  0.9731 -0.9726
29927SOL    HW291789   4.525   0.915  10.249 -1.6651 -0.3473  0.4790
29928SOL     OW91790   5.954   9.739   5.576  1.2599  0.7547  0.3734
29928SOL    HW191791   5.963   9.800   5.502 -0.4396  3.0971  1.9750
29928SOL    HW291792   6.042   9.736   5.614  1.7049  1.0512 -0.5802
29929SOL     OW91793   4.660   0.544   6.792 -0.4977  0.9090 -0.2158
29929SOL    HW191794   4.569   0.516   6.776 -0.0403 -0.1460 -1.1585
29929SOL    HW291795   4.667   0.549   6.887 -0.5691 -2.6189  0.1006
29930SOL     OW91796   8.856   9.772   3.823  0.2438  0.5136 -0.2191
29930SOL    HW191797   8.779   9.769   3.881 -0.2526 -3.5723 -0.7408
29930SOL    HW291798   8.929   9.789   3.882 -0.6400  0.1094  1.0639
29931SOL     OW91799   8.106   6.905   6.375 -0.2767 -0.2613  0.5443
29931SOL    HW191800   8.115   6.998   6.397  1.1259 -0.2494  0.0594
29931SOL    HW291801   8.054   6.868   6.446 -0.0435  0.7120  1.2459
29932SOL     OW91802   2.498   7.691   3.087 -0.2006  0.8629 -0.1008
29932SOL    HW191803   2.571   7.662   3.142  0.3829 -1.2684 -1.8545
29932SOL    HW291804   2.522   7.779   3.060  1.2124  0.5979  0.2054
29933SOL     OW91805   1.235   6.908   5.632  0.2355 -0.0796 -1.0191
29933SOL    HW191806   1.184   6.978   5.672  0.9964 -0.4632  0.7103
29933SOL    HW291807   1.287   6.951   5.564  0.0538  0.8728 -0.5702
29934SOL     OW91808   8.886   0.979   3.980 -0.0622 -0.1383  0.4438
29934SOL    HW191809   8.896   0.920   4.055  1.4253 -0.3243  0.1204
29934SOL    HW291810   8.791   0.989   3.970 -0.3022 -1.0414  1.6152
29935SOL     OW91811   7.845   4.612   7.260  0.0039  0.5497  0.2361
29935SOL    HW191812   7.873   4.532   7.304  0.5944  0.7887  0.3061
29935SOL    HW291813   7.753   4.598   7.240 -0.8301  1.1170  3.1471
29936SOL     OW91814   3.798   9.018   3.060  0.1956 -0.6940 -0.4138
29936SOL    HW191815   3.881   9.036   3.104 -0.5008  0.8210  0.3724
29936SOL    HW291816   3.731   9.044   3.124 -0.8679 -0.7327 -1.4823
29937SOL     OW91817   0.395  10.538   9.935  0.1636  0.1590  0.4189
29937SOL    HW191818   0.414  10.508  10.024 -0.4742 -0.8991  0.2190
29937SOL    HW291819   0.414  10.462   9.880 -4.6520 -1.1919  0.2033
29938SOL     OW91820   6.175   0.236   2.157  0.1407 -0.2545 -0.1014
29938SOL    HW191821   6.183   0.289   2.078  0.3986  0.8004  0.6048
29938SOL    HW291822   6.124   0.160   2.130  0.3220  0.0302 -1.3018
29939SOL     OW91823   5.129   8.937   9.260 -0.1289 -0.4709 -0.3366
29939SOL    HW191824   5.037   8.947   9.233 -0.3161 -0.4951  0.2848
29939SOL    HW291825   5.148   9.016   9.309  0.3974 -0.1492 -1.0340
29940SOL     OW91826   9.590   7.188   3.105 -0.3938  0.4969 -0.1777
29940SOL    HW191827   9.595   7.265   3.163 -1.3602  0.0084  0.5898
29940SOL    HW291828   9.595   7.224   3.017  1.6496  1.2216  0.1793
29941SOL     OW91829   0.507   7.486  10.488 -0.4078  0.1936  0.8130
29941SOL    HW191830   0.476   7.419  10.549  2.1268 -1.7779  0.1285
29941SOL    HW291831   0.515   7.440  10.404  1.9576  1.1318  0.4461
29942SOL     OW91832   0.504   9.729   4.353 -0.2872 -0.0748 -0.2503
29942SOL    HW191833   0.459   9.645   4.361 -2.0625  0.8125 -0.5305
29942SOL    HW291834   0.543   9.743   4.440 -0.0622 -1.1108 -0.1664
29943SOL     OW91835   7.188   3.659   4.618 -0.1744  0.0737 -0.6520
29943SOL    HW191836   7.142   3.667   4.702  0.5281 -2.0135 -0.0238
29943SOL    HW291837   7.124   3.618   4.560  0.0911 -0.6501 -0.4462
29944SOL     OW91838   2.847   5.064   8.098 -0.2285  0.3280  0.0014
29944SOL    HW191839   2.842   5.159   8.084  1.6408  0.4509  0.0319
29944SOL    HW291840   2.865   5.027   8.012 -2.0744 -0.1507 -0.2313
29945SOL     OW91841   4.729   3.296   1.302  0.9394 -0.3194  0.0177
29945SOL    HW191842   4.681   3.236   1.245  2.4402 -0.3418 -1.2565
29945SOL    HW291843   4.662   3.330   1.362 -0.4106 -1.3184 -0.8729
29946SOL     OW91844   4.212   5.206   9.274  0.3779  0.2208 -0.3484
29946SOL    HW191845   4.164   5.264   9.333  0.0524  0.2931 -0.6811
29946SOL    HW291846   4.146   5.178   9.210 -0.3590 -3.0669  1.6160
29947SOL     OW91847   8.657   3.963   5.958 -0.0099 -0.2817  0.3696
29947SOL    HW191848   8.690   3.989   6.044 -0.2832  1.5362 -0.0218
29947SOL    HW291849   8.572   4.007   5.951 -0.1622 -0.7064 -0.6759
29948SOL     OW91850   4.412   7.858  10.273  0.0357 -0.0474 -0.2454
29948SOL    HW191851   4.507   7.872  10.266  0.5504 -0.9676  2.9921
29948SOL    HW291852   4.390   7.887  10.362 -2.5851 -0.6263 -0.6153
29949SOL     OW91853   2.046  10.492   9.482 -0.3188  0.1606  0.1799
29949SOL    HW191854   2.140  10.492   9.500 -0.2341  0.3688 -0.2214
29949SOL    HW291855   2.024  10.585   9.474 -0.7152  0.1470  1.0166
29950SOL     OW91856   9.101  11.065   4.062  0.6267 -0.5808 -0.1828
29950SOL    HW191857   9.125  11.057   3.970  1.0597 -1.9129  0.0294
29950SOL    HW291858   9.180  11.039   4.110  0.2908 -0.2574  0.5625
29951SOL     OW91859   4.689   6.877   6.247 -0.0844 -0.5479 -0.2981
29951SOL    HW191860   4.636   6.888   6.169  0.7783  1.5184 -0.6576
29951SOL    HW291861   4.647   6.933   6.313 -0.2420 -1.5047  0.4327
29952SOL     OW91862   6.256   0.130   7.582  0.1462  0.1557  0.2504
29952SOL    HW191863   6.206   0.050   7.566  1.0670 -0.4439  0.2805
29952SOL    HW291864   6.299   0.148   7.498  0.3049  0.3581  0.3739
29953SOL     OW91865   7.493   0.419   1.197  0.1949 -0.0602  0.0755
29953SOL    HW191866   7.435   0.432   1.272  0.4716 -0.2998  0.3278
29953SOL    HW291867   7.473   0.493   1.139 -1.2505 -0.7796 -0.4173
29954SOL     OW91868   7.356   1.734   1.467 -0.7986  0.7389  0.0754
29954SOL    HW191869   7.352   1.790   1.389  0.3939  1.3917  0.4591
29954SOL    HW291870   7.346   1.795   1.540  1.1231  0.5769  0.5244
29955SOL     OW91871   6.962   4.219   3.299 -0.1127 -0.1733 -0.4476
29955SOL    HW191872   6.906   4.181   3.368 -1.3475  0.8855 -0.8237
29955SOL    HW291873   6.963   4.152   3.230 -0.4572 -0.4395 -0.1977
29956SOL     OW91874  11.067  10.808   0.690 -0.6193 -0.5934  0.0657
29956SOL    HW191875  11.037  10.766   0.770  0.8349  0.1595  1.0507
29956SOL    HW291876  11.156  10.775   0.677 -0.2621  0.5003 -0.3604
29957SOL     OW91877   5.808   1.668   9.357 -0.1045 -0.4983  0.3489
29957SOL    HW191878   5.830   1.662   9.264 -0.9733 -0.7208  0.1475
29957SOL    HW291879   5.880   1.719   9.395 -0.7055  1.3266 -0.8019
29958SOL     OW91880   7.082   8.278   5.858  0.3936 -0.1463  0.5597
29958SOL    HW191881   6.994   8.293   5.892  0.4711 -0.7282  1.0331
29958SOL    HW291882   7.112   8.364   5.829 -0.4642 -0.0033  0.0632
29959SOL     OW91883   8.529   1.873   8.947  0.3552  0.1298  0.2692
29959SOL    HW191884   8.574   1.911   8.872 -0.4906 -1.9509 -1.3877
29959SOL    HW291885   8.553   1.780   8.945  0.5962  0.0703  2.8177
29960SOL     OW91886   8.206  10.424  10.003 -0.5445  0.1460 -0.0594
29960SOL    HW191887   8.244  10.503   9.967  0.3515 -0.5943 -0.7872
29960SOL    HW291888   8.132  10.404   9.944 -0.8546  0.5015  0.2036
29961SOL     OW91889  10.193   7.262   2.590 -0.3215  0.1258 -0.0496
29961SOL    HW191890  10.123   7.229   2.534 -0.3682 -1.3077  0.8099
29961SOL    HW291891  10.263   7.196   2.582 -0.4773 -0.3214  1.8461
29962SOL     OW91892  10.830   8.789   3.642  0.1018  1.0701 -0.0581
29962SOL    HW191893  10.902   8.837   3.684  0.3817  1.3934 -0.8838
29962SOL    HW291894  10.874   8.719   3.594 -0.2061  0.7716  0.0936
29963SOL     OW91895   6.936   6.720   5.589  0.9715 -0.1955  0.0590
29963SOL    HW191896   6.856   6.699   5.637  0.9613 -0.6712 -0.1674
29963SOL    HW291897   6.960   6.807   5.621 -0.0388  0.2696 -0.3873
29964SOL     OW91898   9.379   2.317   3.270 -0.0153 -0.2883  0.0659
29964SOL    HW191899   9.325   2.355   3.201 -1.2488 -1.6469  0.2259
29964SOL    HW291900   9.390   2.388   3.334 -1.4419  0.0862 -0.0793
29965SOL     OW91901  10.415   4.496   9.349 -0.0547 -0.7970  0.4575
29965SOL    HW191902  10.385   4.411   9.317 -2.8722  0.3800 -0.3187
29965SOL    HW291903  10.361   4.514   9.426 -0.8058  1.0080 -0.4187
29966SOL     OW91904   3.194   1.409   1.903  0.7233 -0.0420  0.1285
29966SOL    HW191905   3.196   1.504   1.891  2.3672 -0.2812 -2.2998
29966SOL    HW291906   3.103   1.389   1.924  0.3392  2.0431  0.7018
29967SOL     OW91907   4.933   0.609   4.749  0.2230 -0.0550 -0.2996
29967SOL    HW191908   5.023   0.637   4.769  0.4018 -0.9938  0.2922
29967SOL    HW291909   4.878   0.678   4.787  0.6667 -0.1657  0.5818
29968SOL     OW91910   1.250   4.235   5.509 -0.1692  0.1520 -0.0974
29968SOL    HW191911   1.174   4.253   5.564 -0.8530  0.1338 -1.0146
29968SOL    HW291912   1.283   4.322   5.485 -0.0314  0.1617  0.1286
29969SOL     OW91913   8.105   1.225  10.526  0.7772  0.3016  0.2630
29969SOL    HW191914   8.148   1.159  10.582 -0.6277 -0.3143  0.6479
29969SOL    HW291915   8.040   1.176  10.477  0.7087  1.1764 -0.5378
29970SOL     OW91916   9.229   2.689   3.890 -0.0687  0.1307 -0.2594
29970SOL    HW191917   9.314   2.726   3.867  0.9116 -1.8391 -0.0263
29970SOL    HW291918   9.204   2.735   3.970  0.3773  1.2877 -0.7586
29971SOL     OW91919   8.006   9.220   5.750 -0.1993  0.2601  0.2592
29971SOL    HW191920   7.977   9.131   5.772  0.5500  0.3455  1.7634
29971SOL    HW291921   7.979   9.272   5.826  1.2660  0.8850  0.3802
29972SOL     OW91922   8.084   9.849   3.822 -0.0146 -0.2700  0.0046
29972SOL    HW191923   8.116   9.885   3.740  1.4788 -2.3914 -0.4297
29972SOL    HW291924   8.032   9.773   3.797  0.0924 -0.6958  0.9991
29973SOL     OW91925   9.718   5.785   1.077  0.2673 -0.6362 -0.6781
29973SOL    HW191926   9.668   5.860   1.045  1.3939 -0.7438 -2.9346
29973SOL    HW291927   9.673   5.758   1.157 -2.1078  0.4257 -1.5611
29974SOL     OW91928   5.799   1.595   7.686  0.0085 -0.0312 -0.1620
29974SOL    HW191929   5.805   1.531   7.756  0.2454  0.6130  0.4226
29974SOL    HW291930   5.707   1.594   7.660  0.4902 -2.6907 -2.1906
29975SOL     OW91931   4.417   0.863   8.556 -0.3510 -0.0110 -0.7026
29975SOL    HW191932   4.474   0.814   8.616 -0.7078  1.2296  0.7033
29975SOL    HW291933   4.442   0.831   8.469  2.4964  0.4644 -0.1791
29976SOL     OW91934   4.317   9.831  10.712  0.2645  0.3211 -0.4476
29976SOL    HW191935   4.291   9.805  10.623  0.2858  1.1319 -0.7015
29976SOL    HW291936   4.396   9.883  10.699 -0.5888  1.7532 -0.1033
29977SOL     OW91937   0.739   9.045   0.707 -0.6440 -0.4469 -0.6574
29977SOL    HW191938   0.676   9.038   0.779  1.8006 -0.6720  1.6366
29977SOL    HW291939   0.825   9.032   0.749  1.1116  1.6055 -3.2568
29978SOL     OW91940   9.010   3.762   7.485 -0.0549  0.6583  0.0621
29978SOL    HW191941   8.941   3.744   7.549 -0.9193 -0.6462 -1.1756
29978SOL    HW291942   9.091   3.742   7.531 -0.7372 -1.7579  0.3352
29979SOL     OW91943   2.783   8.272   9.159 -0.9442 -0.3689 -0.1810
29979SOL    HW191944   2.692   8.278   9.185 -1.2669 -1.8644 -0.8841
29979SOL    HW291945   2.786   8.200   9.096  0.5140  0.4023 -1.0732
29980SOL     OW91946   4.038   6.881   2.064 -0.5148 -0.4691 -0.1499
29980SOL    HW191947   4.003   6.858   1.978 -0.0454  1.6575 -0.9985
29980SOL    HW291948   3.968   6.931   2.106 -0.3174 -0.4987  0.2193
29981SOL     OW91949  10.310   5.582   7.478 -0.9270  0.0161  0.5974
29981SOL    HW191950  10.274   5.671   7.483 -0.0383  0.3275  1.9994
29981SOL    HW291951  10.351   5.578   7.392 -1.0967  0.9253  0.4649
29982SOL     OW91952   7.103   1.792   7.405  0.2193 -0.0487 -0.5146
29982SOL    HW191953   7.033   1.853   7.429 -0.1304 -1.2025  1.7237
29982SOL    HW291954   7.177   1.847   7.382  0.1443  1.3098  2.1163
29983SOL     OW91955   1.612   4.245   3.856 -0.5088 -0.2822  0.3082
29983SOL    HW191956   1.549   4.313   3.833 -1.2539 -0.9218  0.4303
29983SOL    HW291957   1.661   4.282   3.930  1.1315  1.3228 -1.4276
29984SOL     OW91958   1.824   8.054   2.403  0.6700  0.3451 -0.1260
29984SOL    HW191959   1.879   7.981   2.428 -0.7810 -0.3060  1.3566
29984SOL    HW291960   1.735   8.017   2.401  0.1293  1.6153 -1.2951
29985SOL     OW91961   6.873   1.933   4.186  0.3610 -0.0702  0.3179
29985SOL    HW191962   6.843   1.920   4.276 -0.5248  0.1210  0.0518
29985SOL    HW291963   6.874   2.028   4.175  2.3279  0.0038  0.7341
29986SOL     OW91964   3.401   1.201   5.257 -0.0397  0.0656  0.5228
29986SOL    HW191965   3.349   1.190   5.177  1.8710 -0.2174 -0.7409
29986SOL    HW291966   3.485   1.160   5.237  1.3155  2.0498  1.8356
29987SOL     OW91967   5.054   4.265   7.998 -0.6190  0.1671 -0.0092
29987SOL    HW191968   5.075   4.357   8.015  2.3060 -0.4031 -0.1204
29987SOL    HW291969   5.043   4.227   8.086 -0.1761  0.2716  0.0921
29988SOL     OW91970  11.038  10.670   1.646  0.2888 -0.1500  0.2108
29988SOL    HW191971  11.002  10.599   1.593 -0.7246  0.6625 -0.2044
29988SOL    HW291972  11.132  10.651   1.650  0.1150 -1.2024 -0.3635
29989SOL     OW91973   3.582   9.784   1.114 -0.5692  0.1974  0.7120
29989SOL    HW191974   3.518   9.848   1.082  0.5776  1.6983  1.2911
29989SOL    HW291975   3.550   9.700   1.082 -1.5402  1.1775 -1.0532
29990SOL     OW91976   9.187   6.532  10.676  0.3399 -0.4700  0.4912
29990SOL    HW191977   9.258   6.468  10.683  1.0161  0.3577  1.6957
29990SOL    HW291978   9.107   6.481  10.690  0.3931 -1.8498 -3.1359
29991SOL     OW91979   9.962   1.709   2.244 -0.0027  0.0130 -0.4821
29991SOL    HW191980  10.046   1.665   2.229  0.0797 -0.3889  1.0459
29991SOL    HW291981   9.924   1.664   2.319 -1.7528 -0.0087 -1.3452
29992SOL     OW91982   1.546   2.020   4.832  0.2953 -0.1618  0.1392
29992SOL    HW191983   1.579   1.932   4.813  0.2253 -0.1739  0.0743
29992SOL    HW291984   1.618   2.078   4.806  1.5686 -0.3287  2.9716
29993SOL     OW91985   1.957   9.262   1.886  0.0521  0.1551  0.7146
29993SOL    HW191986   1.969   9.285   1.794  0.9847 -0.1758  0.7410
29993SOL    HW291987   1.872   9.299   1.910  0.9354  2.5092  0.4424
29994SOL     OW91988   7.614   9.044   0.039 -0.2751  0.7940 -0.7734
29994SOL    HW191989   7.559   9.079  -0.031 -0.5662  2.0403  0.0364
29994SOL    HW291990   7.679   8.990  -0.006 -0.0143  2.1255 -2.0871
29995SOL     OW91991   4.686   4.157   6.443  0.5086  0.1935 -0.0765
29995SOL    HW191992   4.695   4.063   6.457 -1.4553  0.0085  0.1920
29995SOL    HW291993   4.657   4.191   6.527  2.0286  1.2156  0.0827
29996SOL     OW91994   9.611  10.577  10.515 -0.6525  0.4002  0.2565
29996SOL    HW191995   9.637  10.497  10.562 -1.4157 -0.2801 -0.4547
29996SOL    HW291996   9.641  10.563  10.426  2.2782  2.3847  0.7663
29997SOL     OW91997   0.081   6.531   9.446  0.2663  0.2235 -0.1049
29997SOL    HW191998   0.019   6.587   9.492  1.2022  0.2229  1.2269
29997SOL    HW291999   0.072   6.445   9.487 -0.5902 -0.4324 -1.5896
29998SOL     OW92000   5.119   7.505  10.236  0.1938 -0.5428  0.0602
29998SOL    HW192001   5.032   7.536  10.212  0.4711 -1.7919 -2.9883
29998SOL    HW292002   5.171   7.584  10.248 -0.7511  0.1995 -0.6217
29999SOL     OW92003   1.183   2.340   6.719  0.1374 -0.2308 -0.1126
29999SOL    HW192004   1.109   2.312   6.665 -0.2109  0.6725 -0.1233
29999SOL    HW292005   1.227   2.259   6.743  0.5842 -0.6380 -2.1453
30000SOL     OW92006   0.581   5.970   4.061 -0.1627 -0.1479  0.2587
30000SOL    HW192007   0.504   6.022   4.081  1.5088  1.9601  1.7651
30000SOL    HW292008   0.600   5.990   3.969  1.7982  4.2191  1.3075
30001SOL     OW92009   8.814   5.687   0.550  0.1825 -0.4688 -0.1744
30001SOL    HW192010   8.759   5.764   0.561  0.4805 -0.2937  0.1241
30001SOL    HW292011   8.811   5.667   0.456 -2.2724 -1.8820  0.1282
30002SOL     OW92012   5.535   3.141   2.879 -1.0681  0.1344  0.7837
30002SOL    HW192013   5.466   3.186   2.832 -1.3092 -1.6745 -0.7397
30002SOL    HW292014   5.517   3.157   2.971 -1.2470  2.8626  0.3515
30003SOL     OW92015   2.715   1.447   8.721  0.1019 -0.8260  0.3483
30003SOL    HW192016   2.625   1.426   8.696  0.4758 -2.2815  0.1769
30003SOL    HW292017   2.756   1.363   8.740  2.4305 -0.6659 -2.9065
30004SOL     OW92018  10.645   6.262   6.430 -0.4297  0.2057 -0.1016
30004SOL    HW192019  10.714   6.306   6.380  0.0553  1.0122  1.2227
30004SOL    HW292020  10.596   6.213   6.365  0.4078  0.9131 -1.3088
30005SOL     OW92021   6.508   5.923   2.599 -0.1232  0.6169 -0.2635
30005SOL    HW192022   6.441   5.947   2.663 -0.9510 -2.1193  0.0073
30005SOL    HW292023   6.590   5.923   2.649 -0.3809  0.9524  0.1651
30006SOL     OW92024   1.019   0.207  10.106  0.3419 -0.1195 -0.2559
30006SOL    HW192025   0.975   0.286  10.137  1.3632 -0.7487  3.1270
30006SOL    HW292026   1.046   0.229  10.016  0.4804  3.3019  0.4809
30007SOL     OW92027   6.831   7.929   4.145 -0.5306 -0.3790  0.2221
30007SOL    HW192028   6.792   7.919   4.058  2.3934 -1.2630 -1.0977
30007SOL    HW292029   6.795   7.856   4.196 -1.5498 -0.4077 -0.5035
30008SOL     OW92030   8.848   2.714   0.356  0.1646  0.0272  0.1279
30008SOL    HW192031   8.783   2.660   0.311 -0.8053 -0.0351  1.5337
30008SOL    HW292032   8.812   2.726   0.444  1.6677  0.7024  0.6818
30009SOL     OW92033   9.166   7.700   6.402  0.5841  0.0248 -0.5977
30009SOL    HW192034   9.154   7.789   6.432  0.8549  0.2241 -1.0578
30009SOL    HW292035   9.240   7.705   6.341  1.1980 -0.6643  0.0592
30010SOL     OW92036   9.654   3.130   6.081  0.0107 -0.0267 -0.2606
30010SOL    HW192037   9.740   3.158   6.114 -0.0916 -0.6813  0.6029
30010SOL    HW292038   9.674   3.059   6.019  0.1229  0.1950 -0.4782
30011SOL     OW92039   8.823   0.965   0.157  0.2173 -0.0976  0.0594
30011SOL    HW192040   8.833   0.979   0.252 -1.0672  3.0217 -0.1595
30011SOL    HW292041   8.866   1.040   0.118  2.2559 -2.1818 -2.0254
30012SOL     OW92042   1.356   9.815   2.381 -0.3700 -0.2674 -0.5304
30012SOL    HW192043   1.383   9.769   2.460  0.5598  0.3084 -0.5007
30012SOL    HW292044   1.345   9.906   2.408  0.6135  0.0640 -1.1895
30013SOL     OW92045   5.442  10.653   5.503 -0.4630  0.0661 -0.3843
30013SOL    HW192046   5.404  10.569   5.477  0.7702 -0.5699 -0.2156
30013SOL    HW292047   5.448  10.649   5.599  0.3214  0.0103 -0.4274
30014SOL     OW92048   8.788   1.114  10.238 -0.1441  0.1973  0.5277
30014SOL    HW192049   8.870   1.072  10.263  0.2648 -0.9803 -2.3967
30014SOL    HW292050   8.752   1.148  10.320  2.5623 -0.4570  2.0870
30015SOL     OW92051   3.071  10.052  10.331 -0.2152  0.0578  0.1853
30015SOL    HW192052   3.079  10.044  10.236  0.8521  0.7858  0.1995
30015SOL    HW292053   3.045  10.143  10.346 -0.9774 -0.2077  0.5797
30016SOL     OW92054   3.740   1.480   7.892 -0.3990  0.1583 -0.3041
30016SOL    HW192055   3.828   1.517   7.895  0.4537 -1.7125  2.9211
30016SOL    HW292056   3.748   1.404   7.834 -0.4614  1.0858 -1.5734
30017SOL     OW92057   7.575   3.310   4.802  0.0194  0.3868 -0.0984
30017SOL    HW192058   7.610   3.242   4.859  2.8445 -0.1155 -2.2283
30017SOL    HW292059   7.543   3.262   4.725  0.0279  1.3177 -0.6930
30018SOL     OW92060  10.618  10.995   7.455  0.2515  0.0366  0.2127
30018SOL    HW192061  10.639  11.051   7.530 -0.0029 -0.6353  0.7939
30018SOL    HW292062  10.682  11.020   7.388  1.4388 -0.3647  1.1569
30019SOL     OW92063   8.791   9.757  10.895 -0.3033  0.0770  0.5681
30019SOL    HW192064   8.718   9.694  10.894  0.8034 -1.2484 -0.4060
30019SOL    HW292065   8.848   9.728  10.824  2.1153 -0.0707  2.4536
30020SOL     OW92066   8.403  10.946   8.350 -0.8468  0.2370  0.6917
30020SOL    HW192067   8.486  10.966   8.306 -0.7775 -0.8154  0.3193
30020SOL    HW292068   8.418  10.861   8.391 -2.2998 -0.8163 -0.8693
30021SOL     OW92069   4.222   9.588   8.087 -0.4161 -0.2103  0.0617
30021SOL    HW192070   4.305   9.561   8.129 -0.9719  0.1404  1.4568
30021SOL    HW292071   4.249   9.639   8.011  0.6507 -1.5729 -0.5264
30022SOL     OW92072   9.926   7.872   2.845 -0.0255  0.5477 -0.3217
30022SOL    HW192073   9.847   7.828   2.814 -0.5265  0.9301  0.3768
30022SOL    HW292074   9.900   7.963   2.856  0.6252  0.7561 -0.4498
30023SOL     OW92075  10.604   9.786   2.259  0.8401 -0.9658  0.0354
30023SOL    HW192076  10.562   9.745   2.335  0.7630 -0.9631 -0.0055
30023SOL    HW292077  10.582   9.879   2.267  0.7006 -0.9897 -0.0753
30024SOL     OW92078  11.067   9.884  10.523 -0.5531  0.4288  1.1555
30024SOL    HW192079  10.990   9.828  10.526  0.0276 -0.3387  1.8600
30024SOL    HW292080  11.077   9.905  10.430  1.5989 -4.0389  0.0836
30025SOL     OW92081   5.086  11.001   5.189  0.7134  0.2053  0.2615
30025SOL    HW192082   5.108  10.928   5.247  1.5731  1.0332  1.0087
30025SOL    HW292083   5.006  11.039   5.227 -0.6292 -1.2285 -0.9891
30026SOL     OW92084   4.782   5.448   4.656  0.3182 -0.4560  0.1474
30026SOL    HW192085   4.861   5.426   4.705 -0.2957 -0.1415  1.3198
30026SOL    HW292086   4.785   5.543   4.646  0.7764 -0.5725 -1.0628
30027SOL     OW92087   6.837   7.983  10.183 -0.1392  0.1430 -0.3700
30027SOL    HW192088   6.933   7.979  10.187 -0.0584  1.5895  0.0238
30027SOL    HW292089   6.817   7.984  10.090  0.4096  1.8967 -0.5196
30028SOL     OW92090   6.039   1.842   5.446 -0.4227 -0.0407  1.1687
30028SOL    HW192091   6.079   1.822   5.361 -0.2316  0.0676  1.2349
30028SOL    HW292092   6.071   1.773   5.504  0.9235  0.9301  1.6128
30029SOL     OW92093   8.509   7.953   6.098 -0.0096 -0.1308  0.8524
30029SOL    HW192094   8.602   7.961   6.121  0.2301 -0.9296  0.2089
30029SOL    HW292095   8.508   7.897   6.021 -0.7386  2.9290 -1.5686
30030SOL     OW92096   0.244   5.841   4.856  0.0359  0.0948  0.5644
30030SOL    HW192097   0.191   5.763   4.842  0.2538 -0.2390  1.5027
30030SOL    HW292098   0.223   5.868   4.946  0.4999  0.7018  0.4980
30031SOL     OW92099   1.227   3.727   4.066  0.4485  0.3147  0.0935
30031SOL    HW192100   1.225   3.754   4.158 -0.3092 -2.6585  1.0424
30031SOL    HW292101   1.249   3.808   4.018 -0.9003  2.3705  2.6673
30032SOL     OW92102   9.066   0.367   3.235 -0.1125 -0.2389 -0.1126
30032SOL    HW192103   9.106   0.414   3.162  1.4325 -1.6181 -0.2392
30032SOL    HW292104   9.071   0.427   3.309  2.5585 -0.4134 -0.0627
30033SOL     OW92105   7.779   4.983   1.729 -0.0428 -0.4763 -0.3430
30033SOL    HW192106   7.771   4.989   1.824 -0.4518  0.2357 -0.4170
30033SOL    HW292107   7.860   4.934   1.715  1.0693  1.0415  0.3727
30034SOL     OW92108   7.257   9.102   9.710 -0.4504  0.2345  0.1201
30034SOL    HW192109   7.341   9.059   9.693 -0.5469  0.3130 -0.5533
30034SOL    HW292110   7.219   9.117   9.624 -0.8663  0.7864  0.3939
30035SOL     OW92111   3.433   6.397   8.393 -0.0361 -0.1066 -0.8316
30035SOL    HW192112   3.441   6.302   8.402  1.8779 -0.0947 -1.8662
30035SOL    HW292113   3.442   6.414   8.299  1.9358  1.2252 -0.4660
30036SOL     OW92114   5.271   9.619   0.908 -0.0003  0.4973 -0.0028
30036SOL    HW192115   5.246   9.632   1.000  2.8322  0.6567  0.8440
30036SOL    HW292116   5.322   9.697   0.885 -1.8651  1.1690 -2.2663
30037SOL     OW92117   9.292   5.048  10.217  0.2085 -0.0788 -0.0005
30037SOL    HW192118   9.207   5.085  10.193 -1.0503 -2.7438 -0.0055
30037SOL    HW292119   9.309   5.082  10.305 -1.6803 -0.6958  0.6627
30038SOL     OW92120   5.927   9.736   4.916 -0.0706  0.2802 -0.0446
30038SOL    HW192121   5.832   9.727   4.928  0.1343 -0.9788  0.8239
30038SOL    HW292122   5.957   9.775   4.998  0.0032  2.1567 -0.9145
30039SOL     OW92123   4.982   1.640   5.922 -0.5734  0.5777  0.1437
30039SOL    HW192124   4.917   1.645   5.852 -0.4871  1.5737  0.1225
30039SOL    HW292125   5.045   1.574   5.891 -0.1574  1.4901 -1.0502
30040SOL     OW92126   2.879   8.123   5.304  0.1161  0.6302  0.1361
30040SOL    HW192127   2.817   8.176   5.254 -0.4530 -1.7014 -1.7830
30040SOL    HW292128   2.930   8.077   5.238  0.9570 -0.8116  1.7136
30041SOL     OW92129   5.061   2.533   9.712  0.2761  0.5811  0.0514
30041SOL    HW192130   5.045   2.543   9.806  2.0532  0.5699  0.3863
30041SOL    HW292131   5.154   2.552   9.702  0.1824  0.2364 -1.6710
30042SOL     OW92132  10.928   7.244   1.999 -0.1509  0.0816  0.3389
30042SOL    HW192133  10.930   7.162   1.950  1.8813 -1.4892  2.7966
30042SOL    HW292134  10.835   7.266   2.007 -0.6630 -1.2650 -1.4464
30043SOL     OW92135   8.178   2.000   9.854 -0.0286  0.1967 -0.0512
30043SOL    HW192136   8.230   1.970   9.779  2.3086 -1.3692  2.0136
30043SOL    HW292137   8.108   1.935   9.862 -1.2350  1.2213 -1.6913
30044SOL     OW92138   0.480   9.253   1.154  0.1355  0.7630 -0.2886
30044SOL    HW192139   0.398   9.289   1.119 -0.1313  0.9466  0.5050
30044SOL    HW292140   0.536   9.329   1.170  0.6258  0.6076 -1.2201
30045SOL     OW92141   0.591   9.748   3.288 -0.3247  0.1487  0.1388
30045SOL    HW192142   0.548   9.784   3.210 -0.8767 -1.9998 -0.5987
30045SOL    HW292143   0.670   9.802   3.298 -0.9077  1.3030 -1.1109
30046SOL     OW92144   1.784   4.431   2.737  0.1897 -0.4558  0.9377
30046SOL    HW192145   1.783   4.450   2.831 -3.0887 -2.7089  1.5286
30046SOL    HW292146   1.850   4.362   2.727 -0.2528 -1.0302  1.8223
30047SOL     OW92147   3.371  10.199   9.765 -0.0611 -0.4626  0.7213
30047SOL    HW192148   3.285  10.213   9.805  0.1747  0.5355  0.9139
30047SOL    HW292149   3.362  10.234   9.676 -0.7070 -3.0435 -0.3299
30048SOL     OW92150   5.432   3.422   4.387 -0.4857 -0.1748  0.7419
30048SOL    HW192151   5.368   3.351   4.374  0.7613 -1.0028 -1.4445
30048SOL    HW292152   5.383   3.502   4.366 -0.7322 -0.8526 -1.5684
30049SOL     OW92153   6.254   4.409   4.928 -0.2118  0.2659 -0.6506
30049SOL    HW192154   6.228   4.410   5.020  0.2489 -1.4930 -0.4676
30049SOL    HW292155   6.349   4.399   4.929 -0.2802 -0.6417 -1.2950
30050SOL     OW92156   2.755  10.691   4.920 -0.0203 -0.7838 -0.0525
30050SOL    HW192157   2.796  10.703   4.834  0.9979  0.1402  0.5471
30050SOL    HW292158   2.828  10.690   4.982 -0.5640 -3.3810  0.6700
30051SOL     OW92159   9.720   2.526   8.733  0.1073  0.1811 -0.4106
30051SOL    HW192160   9.669   2.566   8.662 -0.7718  0.1692  0.2075
30051SOL    HW292161   9.750   2.600   8.786 -2.4410  0.0693  1.3684
30052SOL     OW92162   3.816  10.610  10.438 -0.1329  0.8012  0.9171
30052SOL    HW192163   3.838  10.536  10.381 -0.7392  1.4846 -0.2463
30052SOL    HW292164   3.759  10.572  10.505  4.2040 -1.0588  4.0927
30053SOL     OW92165   9.173   7.496   9.970  0.3293 -0.0477  0.2166
30053SOL    HW192166   9.212   7.456   9.893 -0.4522  0.5531 -0.5149
30053SOL    HW292167   9.145   7.422  10.024  1.2379 -0.4747  0.1168
30054SOL     OW92168   5.874   3.839   6.778 -0.3426 -0.1540 -0.1155
30054SOL    HW192169   5.912   3.751   6.784 -0.6460 -0.3002 -0.2944
30054SOL    HW292170   5.915   3.878   6.701 -0.4723 -0.2710 -0.2442
30055SOL     OW92171   3.585   7.305   0.109 -0.2495 -0.0222  0.5381
30055SOL    HW192172   3.615   7.221   0.074 -1.5952 -0.9751  1.5574
30055SOL    HW292173   3.663   7.343   0.150  0.3275 -0.8716  0.2528
30056SOL     OW92174   9.127   3.078   4.685  0.1023 -0.2337  0.4284
30056SOL    HW192175   9.210   3.083   4.733 -0.8277 -0.3202  2.1253
30056SOL    HW292176   9.147   3.024   4.608  1.4584 -0.8336  1.1604
30057SOL     OW92177   2.608   3.190   3.982 -0.2173  0.4751  0.2365
30057SOL    HW192178   2.534   3.131   3.992 -0.0765 -0.2682 -2.4001
30057SOL    HW292179   2.685   3.133   3.981 -0.2217  0.0870 -4.9025
30058SOL     OW92180   4.525   4.335   3.820 -0.9995 -0.3320  1.0057
30058SOL    HW192181   4.619   4.319   3.811 -0.6649 -0.5289  3.7598
30058SOL    HW292182   4.493   4.344   3.731  1.3932 -1.6531 -0.0897
30059SOL     OW92183   6.145   1.688   5.633 -0.4545  0.4288  0.4301
30059SOL    HW192184   6.217   1.625   5.628  1.5806  2.4095  2.4369
30059SOL    HW292185   6.094   1.659   5.708 -1.0312 -0.2456 -0.2096
30060SOL     OW92186   3.073   2.666   9.006  0.0287 -0.0425  0.1099
30060SOL    HW192187   3.015   2.598   8.972 -0.7874  1.9572 -2.8738
30060SOL    HW292188   3.023   2.707   9.077 -0.7872 -0.5542 -0.1567
30061SOL     OW92189   3.585   2.508   8.933 -0.0527 -0.8618  0.2488
30061SOL    HW192190   3.504   2.495   8.983 -0.4226 -3.0056 -0.7920
30061SOL    HW292191   3.641   2.435   8.960  1.3592  0.3138  0.5708
30062SOL     OW92192   0.275   7.348   9.006  0.1628  0.0284 -0.3945
30062SOL    HW192193   0.265   7.436   9.044  1.2246 -1.1580  2.9919
30062SOL    HW292194   0.186   7.314   9.003 -0.0742  0.5843  0.0165
30063SOL     OW92195   1.366   2.461   6.958  0.3877 -0.5832  0.0964
30063SOL    HW192196   1.414   2.452   6.876 -0.0269  0.2668 -0.2492
30063SOL    HW292197   1.375   2.554   6.981 -0.6356 -0.5245  0.3014
30064SOL     OW92198   8.036   3.693   1.360  0.5524 -0.2618  0.4430
30064SOL    HW192199   8.109   3.749   1.333 -0.1731  0.0909 -0.8242
30064SOL    HW292200   8.001   3.735   1.439  1.2544 -0.0371  0.6437
30065SOL     OW92201   1.868   3.749   7.434  0.1012 -0.1040 -0.0452
30065SOL    HW192202   1.866   3.762   7.339 -0.9856  1.6490  0.1888
30065SOL    HW292203   1.799   3.805   7.468 -0.4215 -1.6969  1.7100
30066SOL     OW92204   7.005   1.406   2.918  0.3839 -0.0099 -0.1688
30066SOL    HW192205   6.930   1.413   2.979  0.4200  1.3197 -0.2423
30066SOL    HW292206   7.048   1.325   2.943 -0.5522 -0.3289  0.4987
30067SOL     OW92207   0.404   4.500   6.486  0.6211  0.1737  0.0668
30067SOL    HW192208   0.327   4.470   6.534  1.2155 -0.1764  0.8242
30067SOL    HW292209   0.371   4.523   6.399  0.1677 -3.1909 -0.8136
30068SOL     OW92210   7.161   9.496   3.996 -0.6442 -0.4651  0.4403
30068SOL    HW192211   7.071   9.521   4.017 -0.4455 -0.4458  1.3045
30068SOL    HW292212   7.183   9.429   4.061  0.2172  0.0671  0.7171
30069SOL     OW92213   1.940   3.824   7.173 -0.1490  1.0171  0.3592
30069SOL    HW192214   1.899   3.738   7.177 -1.8720  1.8004  0.8244
30069SOL    HW292215   1.921   3.856   7.085  1.6068  0.4546 -0.2718
30070SOL     OW92216   8.375   9.688   1.718 -0.0952  0.1082  0.6837
30070SOL    HW192217   8.443   9.650   1.661 -0.4028  1.9152 -0.9748
30070SOL    HW292218   8.293   9.666   1.674 -0.4607  0.0046  1.4062
30071SOL     OW92219   4.409   2.627   3.792  0.0412 -0.3210 -0.6050
30071SOL    HW192220   4.444   2.714   3.776  1.4807 -0.5700  0.8974
30071SOL    HW292221   4.477   2.567   3.762  2.6986 -0.8072  5.0980
30072SOL     OW92222   6.574   4.537   6.867  0.6201  0.2005  0.4603
30072SOL    HW192223   6.638   4.566   6.933  0.7578  2.2410 -0.4936
30072SOL    HW292224   6.489   4.554   6.907  0.6156 -2.2012  1.5984
30073SOL     OW92225  10.730   8.410   3.422 -0.0962  0.1812  0.0829
30073SOL    HW192226  10.731   8.314   3.417 -1.2398  0.0322  2.0380
30073SOL    HW292227  10.787   8.437   3.350 -2.6138 -1.8191 -2.9536
30074SOL     OW92228   4.752   3.870   6.551  0.1235 -0.0711 -0.2330
30074SOL    HW192229   4.766   3.800   6.615  1.5838  2.8253  2.8980
30074SOL    HW292230   4.658   3.886   6.553  0.1800  0.2113  1.5388
30075SOL     OW92231   7.479   4.114  10.127 -0.2436 -0.2488 -0.7577
30075SOL    HW192232   7.453   4.197  10.088  0.0312  0.2481  0.0960
30075SOL    HW292233   7.430   4.110  10.210  0.3157 -0.5851 -0.4389
30076SOL     OW92234  10.997   7.311   4.675  0.2776 -0.7993 -0.0104
30076SOL    HW192235  11.040   7.235   4.635  0.0627 -0.5949 -0.6386
30076SOL    HW292236  10.946   7.274   4.747  0.3832 -1.2183 -0.1467
30077SOL     OW92237   1.334   3.787   2.842  0.0751 -0.0394  0.7999
30077SOL    HW192238   1.345   3.761   2.934 -1.7585 -2.6751  0.4001
30077SOL    HW292239   1.262   3.732   2.811  1.5702 -0.2716 -2.6324
30078SOL     OW92240  10.759   1.497   3.691  0.5483  0.1795 -0.3712
30078SOL    HW192241  10.675   1.532   3.723  0.2251 -1.2133  0.3623
30078SOL    HW292242  10.819   1.572   3.696 -0.3860  0.9238  0.1105
30079SOL     OW92243   9.492   9.632   8.594 -0.4395 -0.1784  0.2573
30079SOL    HW192244   9.412   9.621   8.543  0.9355  0.1501 -2.0815
30079SOL    HW292245   9.505   9.727   8.597 -0.0774 -0.2352  0.5660
30080SOL     OW92246   5.393   0.375   0.924 -0.1585  0.0441  0.5567
30080SOL    HW192247   5.341   0.426   0.987 -0.4209  1.9663 -1.1079
30080SOL    HW292248   5.337   0.370   0.846  0.4002 -1.7502  0.2428
30081SOL     OW92249   0.095   7.161   2.903  0.6121 -0.5614  0.0306
30081SOL    HW192250   0.017   7.200   2.864  0.1616 -0.7815  0.6798
30081SOL    HW292251   0.062   7.083   2.948  0.9770  0.0890  1.4838
30082SOL     OW92252   6.871   5.459   7.982  0.6079 -0.7538  0.1530
30082SOL    HW192253   6.828   5.545   7.981  0.6983 -0.6926 -1.6714
30082SOL    HW292254   6.845   5.420   8.066  0.3952  0.9582  0.9148
30083SOL     OW92255   7.848   2.346   7.882 -0.0648  0.4567  0.1622
30083SOL    HW192256   7.874   2.410   7.817  1.3015  0.7387  0.9494
30083SOL    HW292257   7.868   2.387   7.966 -2.0888  0.2438  0.8167
30084SOL     OW92258  10.834   1.656   9.175  0.0884  0.2828  0.9733
30084SOL    HW192259  10.861   1.592   9.109 -2.4952  0.6555 -0.5881
30084SOL    HW292260  10.761   1.614   9.221 -2.1309  2.2447 -0.5596
30085SOL     OW92261   1.888   5.246  10.290 -0.0133 -0.0300  0.7235
30085SOL    HW192262   1.891   5.340  10.309 -2.1824  0.6433 -1.8388
30085SOL    HW292263   1.878   5.205  10.376 -0.3418  2.1548  1.7943
30086SOL     OW92264   7.077   7.458   7.247  0.1621  0.4959  0.3244
30086SOL    HW192265   7.127   7.539   7.253 -0.5666  0.8755  1.4947
30086SOL    HW292266   7.009   7.466   7.313 -0.1465 -0.9224  0.2228
30087SOL     OW92267   8.145   0.725  10.835  0.8183  0.4549 -0.0626
30087SOL    HW192268   8.186   0.766  10.759 -0.2478  1.5269 -0.0927
30087SOL    HW292269   8.148   0.792  10.903 -0.2909  0.3494  0.1175
30088SOL     OW92270  10.547  10.838   7.213 -0.3770  0.0293  0.2442
30088SOL    HW192271  10.488  10.889   7.268 -1.8608  0.4189 -1.5912
30088SOL    HW292272  10.552  10.888   7.131  1.0176 -0.9830 -0.3325
30089SOL     OW92273   8.225   1.959   8.540  0.4379  0.4625 -0.3948
30089SOL    HW192274   8.254   1.927   8.625  1.9014  1.3241 -0.5316
30089SOL    HW292275   8.303   1.956   8.485 -0.5315 -0.3152 -1.8117
30090SOL     OW92276   7.690  10.328   7.908 -0.7383 -0.9893  0.5812
30090SOL    HW192277   7.693  10.235   7.933  1.5528 -0.8550  1.0309
30090SOL    HW292278   7.718  10.374   7.987 -0.8510  0.0175  0.0421
30091SOL     OW92279   5.554   6.063   2.790 -0.0222 -0.0743  0.6269
30091SOL    HW192280   5.488   6.131   2.777 -0.6093 -0.7919 -0.3191
30091SOL    HW292281   5.525   5.991   2.734  0.7142 -1.0096  1.4167
30092SOL     OW92282   9.842   0.030   9.988  0.2358 -0.4281 -0.3609
30092SOL    HW192283   9.867  -0.062   9.974 -0.8472 -0.8452  0.2684
30092SOL    HW292284   9.897   0.058  10.061  0.8693 -0.4439 -0.8283
30093SOL     OW92285   7.826   1.173   2.970 -0.5453  0.4549 -0.0149
30093SOL    HW192286   7.880   1.227   3.027  1.0398 -0.8688 -0.1748
30093SOL    HW292287   7.856   1.195   2.881  0.4068 -0.9065 -0.0641
30094SOL     OW92288  10.312  10.180   0.739 -0.2043 -0.2074  0.3358
30094SOL    HW192289  10.397  10.157   0.701 -0.3903 -0.6005  0.1590
30094SOL    HW292290  10.290  10.106   0.795 -0.4569 -0.1324  0.3364
30095SOL     OW92291   3.339   0.236   2.949 -0.5592 -0.7035  0.2075
30095SOL    HW192292   3.358   0.313   2.897  0.9863 -0.6833  0.7583
30095SOL    HW292293   3.368   0.258   3.037  1.6037 -2.4808  0.0410
30096SOL     OW92294  10.543   1.079   1.624  0.0122  0.3404  0.3055
30096SOL    HW192295  10.599   1.002   1.624 -2.3847 -1.5221  1.3690
30096SOL    HW292296  10.525   1.096   1.717 -2.2465 -0.0045 -0.0059
30097SOL     OW92297   2.716   6.216  10.836  0.2525  0.9440 -0.1096
30097SOL    HW192298   2.755   6.275  10.771  1.3586 -1.2679 -1.5766
30097SOL    HW292299   2.769   6.136  10.830 -1.4748 -0.3946  1.4420
30098SOL     OW92300   1.579   9.090   9.243  0.2935 -0.1178  0.5644
30098SOL    HW192301   1.639   9.030   9.289 -0.2439 -1.5344 -0.5036
30098SOL    HW292302   1.636   9.148   9.195  0.8667 -1.5668 -0.5836
30099SOL     OW92303   9.381  10.880   4.828 -0.3731  0.1657  0.0820
30099SOL    HW192304   9.320  10.820   4.785 -0.3941 -0.3803  0.8525
30099SOL    HW292305   9.336  10.908   4.907 -0.0756  0.6542  0.0841
30100SOL     OW92306   3.906   4.916   8.852  0.4124 -0.7381  0.2185
30100SOL    HW192307   3.919   4.830   8.813  0.2365  0.2091 -2.1350
30100SOL    HW292308   3.963   4.974   8.801 -0.2233  0.6802  1.0578
30101SOL     OW92309   8.484   5.597   7.380  0.4432  0.1983  0.3094
30101SOL    HW192310   8.432   5.631   7.307 -0.3800 -0.4566  0.5830
30101SOL    HW292311   8.501   5.674   7.435 -0.2243  0.4238  0.2061
30102SOL     OW92312   6.526   2.147   8.871 -0.0946  0.5301  0.5198
30102SOL    HW192313   6.497   2.098   8.794  0.4253 -0.9566  1.2374
30102SOL    HW292314   6.476   2.228   8.868 -1.6538 -0.4119 -0.2319
30103SOL     OW92315   6.649   8.841   8.492 -0.3755 -0.0133 -0.4905
30103SOL    HW192316   6.713   8.875   8.430 -0.2415  1.7641  0.5500
30103SOL    HW292317   6.618   8.918   8.540  0.7376 -1.3807  2.7612
30104SOL     OW92318   0.464   9.732   8.012 -0.1487 -0.0189 -0.1524
30104SOL    HW192319   0.459   9.710   8.105 -2.3983  1.8344  0.2602
30104SOL    HW292320   0.531   9.801   8.008 -1.5389  1.4340  0.5058
30105SOL     OW92321  10.238   8.946   6.087  0.0399  0.1313 -0.2111
30105SOL    HW192322  10.212   8.949   6.179 -1.3709  2.8445 -0.5696
30105SOL    HW292323  10.170   8.893   6.045  0.3316 -0.5850  0.2165
30106SOL     OW92324  10.715   2.945   4.969  0.5717 -0.2683  0.0640
30106SOL    HW192325  10.793   2.905   4.930 -0.4941 -2.0552 -0.3507
30106SOL    HW292326  10.649   2.876   4.966 -1.4016  1.5368 -0.7084
30107SOL     OW92327   0.643   7.434   5.650 -0.4235 -0.3310 -0.5008
30107SOL    HW192328   0.711   7.484   5.606  3.2954  0.2843  5.0028
30107SOL    HW292329   0.597   7.498   5.704 -3.7030 -1.2510 -1.9300
30108SOL     OW92330   7.015   2.215   5.906  0.1811  0.9541 -0.5698
30108SOL    HW192331   6.971   2.170   5.978  1.4585  1.9392  0.8761
30108SOL    HW292332   6.947   2.270   5.867 -0.3576  0.9235  0.3062
30109SOL     OW92333   4.324   9.867   1.470 -0.2017  0.2590  0.2669
30109SOL    HW192334   4.346   9.936   1.407  2.5536 -0.8935 -0.1585
30109SOL    HW292335   4.270   9.912   1.536  0.2866  2.4661 -0.7320
30110SOL     OW92336   5.619   7.538   9.577 -0.1681 -0.2346 -0.3578
30110SOL    HW192337   5.599   7.451   9.542  0.4129 -0.7641  0.5923
30110SOL    HW292338   5.612   7.529   9.672  1.3601  0.3698 -0.1581
30111SOL     OW92339   7.714   2.548   8.696  0.2498 -0.1531  0.0277
30111SOL    HW192340   7.765   2.620   8.656 -0.9979  0.4350 -0.5525
30111SOL    HW292341   7.756   2.469   8.663  0.9646  0.3139 -0.2262
30112SOL     OW92342   2.074  10.655   0.783  0.3997 -0.6142 -0.6898
30112SOL    HW192343   2.139  10.597   0.823 -0.8771 -1.0620  0.8615
30112SOL    HW292344   2.125  10.719   0.735  2.0534 -0.4932  1.0900
30113SOL     OW92345   4.461   3.726   8.413 -0.0443  0.7112  0.2705
30113SOL    HW192346   4.534   3.747   8.353  0.3315  2.7362  1.3524
30113SOL    HW292347   4.486   3.642   8.452  1.2749  0.9191 -0.0629
30114SOL     OW92348   3.964   3.689   6.802  0.1821  0.2377 -0.0963
30114SOL    HW192349   4.024   3.684   6.876  0.8300 -0.4690 -0.6495
30114SOL    HW292350   4.021   3.701   6.726 -0.1824 -2.3516 -0.8790
30115SOL     OW92351   9.332   3.309   5.910  0.3662 -0.3468  0.1788
30115SOL    HW192352   9.369   3.333   5.825  2.1068  2.5678  1.5870
30115SOL    HW292353   9.247   3.354   5.912  1.8166  2.6416  1.1657
30116SOL     OW92354   6.886   4.052   1.383 -0.4127 -0.3070 -0.4394
30116SOL    HW192355   6.830   4.126   1.360 -3.5393 -2.8869 -1.8910
30116SOL    HW292356   6.935   4.033   1.303 -0.6534 -0.6268 -0.5129
30117SOL     OW92357   3.007   9.844   0.165 -0.1941  0.2379 -0.3578
30117SOL    HW192358   2.925   9.886   0.138 -2.1355 -2.7255  0.4292
30117SOL    HW292359   3.028   9.785   0.093 -0.0717 -0.6981  0.4223
30118SOL     OW92360   7.407   7.354   9.095 -0.0396  0.2207 -0.2432
30118SOL    HW192361   7.400   7.406   9.014  0.8369  0.6078 -0.0759
30118SOL    HW292362   7.386   7.264   9.067 -0.7006  0.5022 -0.7036
30119SOL     OW92363   6.235   8.541   9.873 -0.3519 -0.4512  0.1342
30119SOL    HW192364   6.190   8.590   9.805 -3.0782 -3.9885 -0.8866
30119SOL    HW292365   6.165   8.511   9.931  0.9487 -3.7008  0.2039
30120SOL     OW92366  10.070  10.352   9.810 -0.1157  0.1767  0.5330
30120SOL    HW192367  10.066  10.345   9.905 -2.4897 -0.7829  0.4314
30120SOL    HW292368  10.126  10.280   9.783  0.7808  0.6097  1.1997
30121SOL     OW92369   2.799   7.607   1.057 -1.0196  0.3871  0.2367
30121SOL    HW192370   2.827   7.698   1.066 -1.7572  0.4918  1.6678
30121SOL    HW292371   2.734   7.594   1.125 -1.5198 -0.9989 -0.4549
30122SOL     OW92372   2.228   0.470   2.457  0.9412 -0.4041 -0.5647
30122SOL    HW192373   2.259   0.548   2.411  0.1362  0.0770 -0.3336
30122SOL    HW292374   2.305   0.415   2.468  1.5311  0.3812 -0.7110
30123SOL     OW92375   8.235   8.402   0.743 -0.5010  0.1188 -0.3542
30123SOL    HW192376   8.158   8.457   0.753 -0.5486 -0.1239  0.7729
30123SOL    HW292377   8.207   8.315   0.773 -0.9819 -1.0633 -3.8450
30124SOL     OW92378   1.029  10.659  10.243  0.2658  0.1707  0.1695
30124SOL    HW192379   0.966  10.594  10.214  1.9388 -2.5038  2.1406
30124SOL    HW292380   0.984  10.743  10.231 -2.1360 -1.2980 -2.1041
30125SOL     OW92381   9.830   3.393   2.790 -0.2447  0.0233  0.3459
30125SOL    HW192382   9.922   3.364   2.786 -0.0502  0.0839  2.8305
30125SOL    HW292383   9.834   3.480   2.828 -1.3148  0.3825 -0.3150
30126SOL     OW92384   7.759   4.510   8.194 -0.2826 -0.2206 -0.0836
30126SOL    HW192385   7.682   4.538   8.243  0.2990  2.8266 -0.6574
30126SOL    HW292386   7.833   4.529   8.252  0.2254  0.4681 -0.9308
30127SOL     OW92387   6.383  10.559   8.037 -0.2841 -0.3611  1.0543
30127SOL    HW192388   6.354  10.476   8.002 -0.3987  0.4549 -0.8911
30127SOL    HW292389   6.451  10.589   7.977 -2.8887  2.7353 -0.6776
30128SOL     OW92390   8.528   0.349   6.050  0.2606  0.2232  0.5020
30128SOL    HW192391   8.590   0.384   6.114 -0.4449  1.5973  0.4822
30128SOL    HW292392   8.581   0.297   5.990  1.2107  0.4653  1.1104
30129SOL     OW92393   3.227   3.047   5.991 -0.3026  0.1314 -0.4362
30129SOL    HW192394   3.251   2.984   6.058  0.3096  0.3523 -0.4449
30129SOL    HW292395   3.216   3.130   6.038 -1.2202  0.0016 -0.4065
30130SOL     OW92396  10.951   2.892   7.219 -0.1764 -0.2266 -0.7581
30130SOL    HW192397  10.946   2.890   7.314  0.3213 -0.7753 -0.7396
30130SOL    HW292398  10.896   2.967   7.194 -1.2584 -0.7666 -0.1116
30131SOL     OW92399   4.726   5.788   2.542  0.8507  0.4346 -0.2249
30131SOL    HW192400   4.797   5.763   2.601 -1.3331 -1.0936  1.9704
30131SOL    HW292401   4.688   5.867   2.582 -0.1394 -0.1322 -0.0116
30132SOL     OW92402   0.561   8.662   7.021 -0.2086 -0.5090  0.4148
30132SOL    HW192403   0.510   8.657   7.102  0.6244  1.0842  1.0924
30132SOL    HW292404   0.528   8.741   6.977 -0.5731 -1.2936 -0.7723
30133SOL     OW92405   3.253   5.107   7.748  0.4118  0.1297  0.6736
30133SOL    HW192406   3.230   5.159   7.825  3.0553  0.1810  1.5118
30133SOL    HW292407   3.322   5.157   7.704  0.9114 -1.2462 -0.1831
30134SOL     OW92408   1.465   5.392   1.081  1.4086 -0.2040  0.2079
30134SOL    HW192409   1.487   5.372   0.990 -0.1888 -0.9550 -0.0464
30134SOL    HW292410   1.481   5.310   1.127  0.6435 -0.3139  0.2889
30135SOL     OW92411   3.288   0.877   3.777  0.1960  0.8019 -1.1432
30135SOL    HW192412   3.195   0.855   3.785  0.3482  0.3391 -0.5862
30135SOL    HW292413   3.324   0.864   3.864  0.9344  0.2794 -1.5105
30136SOL     OW92414   6.526   5.165   0.787 -0.2711  0.3443  0.6997
30136SOL    HW192415   6.542   5.253   0.819 -0.9590  0.9433 -0.5199
30136SOL    HW292416   6.431   5.153   0.795 -0.4402  0.4409 -0.8323
30137SOL     OW92417   5.951   9.101   3.076 -0.2644 -0.1876 -0.1481
30137SOL    HW192418   5.918   9.146   2.998 -0.2193  1.9721  0.9903
30137SOL    HW292419   5.874   9.094   3.133  0.5895  2.8261  1.5891
30138SOL     OW92420   6.090   9.647   8.810 -0.7530  0.9644 -0.2732
30138SOL    HW192421   6.012   9.681   8.765 -3.2314  0.5572  3.2637
30138SOL    HW292422   6.144   9.724   8.827 -2.2419  1.9204  0.3747
30139SOL     OW92423   9.398   6.164   7.028 -0.2335 -0.3925  0.7974
30139SOL    HW192424   9.492   6.174   7.015 -0.2343  0.7792  1.5999
30139SOL    HW292425   9.380   6.075   6.999  1.2218 -0.8441  1.1885
30140SOL     OW92426   7.635  10.934  10.374 -0.6728 -0.1480 -0.3507
30140SOL    HW192427   7.645  10.949  10.468 -2.5285  1.4971 -0.3632
30140SOL    HW292428   7.708  10.980  10.334  0.7703 -1.7815  0.2982
30141SOL     OW92429   3.272   1.979   8.590 -0.2590 -0.2958  0.1280
30141SOL    HW192430   3.270   2.009   8.681  0.5473  0.1647  0.0048
30141SOL    HW292431   3.286   2.058   8.539  1.5210 -0.7924 -0.2313
30142SOL     OW92432   0.338   9.265   9.503  0.6135 -1.3735  0.5245
30142SOL    HW192433   0.275   9.313   9.557 -0.8753 -3.5490  0.8680
30142SOL    HW292434   0.418   9.265   9.555  0.4079 -0.0532  0.8901
30143SOL     OW92435   3.227   6.492   1.006  0.3450 -0.2279 -0.3818
30143SOL    HW192436   3.152   6.499   0.946  1.0283  1.8786 -1.0980
30143SOL    HW292437   3.204   6.547   1.080  0.1809 -1.5580  0.5935
30144SOL     OW92438   9.165   8.768   2.422 -0.0744  0.1265 -0.0488
30144SOL    HW192439   9.091   8.708   2.436 -1.5125  1.0920 -2.6836
30144SOL    HW292440   9.139   8.847   2.469 -1.1771  0.7408 -1.6150
30145SOL     OW92441   8.169   4.329   2.502 -0.6123 -0.5171  0.3075
30145SOL    HW192442   8.251   4.327   2.551 -0.7947 -0.8903  0.5934
30145SOL    HW292443   8.102   4.351   2.567 -0.9570 -1.7142  0.3761
30146SOL     OW92444   6.345   9.234   9.798 -0.4235  0.1127  0.4538
30146SOL    HW192445   6.289   9.195   9.866 -0.1505  1.8537  1.7456
30146SOL    HW292446   6.334   9.328   9.810  1.1418  0.4648 -0.6863
30147SOL     OW92447   7.276   5.552  10.914 -0.4634  0.4866  0.2333
30147SOL    HW192448   7.213   5.532  10.983 -0.1531  0.6020  0.5531
30147SOL    HW292449   7.361   5.527  10.951 -0.0696  2.2199  0.5997
30148SOL     OW92450   4.507   0.422   1.855  0.4385 -0.4827  0.2226
30148SOL    HW192451   4.534   0.355   1.792  1.2603  0.6115 -0.6215
30148SOL    HW292452   4.574   0.490   1.848 -1.0406  1.0172  0.1292
30149SOL     OW92453   8.816   7.795   6.886 -0.0277 -0.5287 -0.4396
30149SOL    HW192454   8.759   7.859   6.843  1.1764  1.1992  0.4156
30149SOL    HW292455   8.834   7.833   6.972  2.6560 -0.8002 -0.7951
30150SOL     OW92456   8.733   0.408   4.611 -0.6347  0.2860  1.2231
30150SOL    HW192457   8.742   0.388   4.518 -0.2485  0.6831  1.1751
30150SOL    HW292458   8.650   0.456   4.617 -1.0104 -0.3391  1.1877
30151SOL     OW92459   4.176   8.170  10.915 -0.8618  0.2445  0.0482
30151SOL    HW192460   4.110   8.114  10.954  0.0679 -0.7305  0.2621
30151SOL    HW292461   4.184   8.140  10.825  1.8914 -2.2376  0.9494
30152SOL     OW92462   8.262   8.748   8.650  0.5198 -0.5278  0.5075
30152SOL    HW192463   8.316   8.759   8.572  2.7137 -0.0851  1.9860
30152SOL    HW292464   8.238   8.837   8.675  2.3471 -0.3633  1.9191
30153SOL     OW92465   1.060   5.921   7.968 -0.4851 -0.2611  0.4426
30153SOL    HW192466   1.086   5.974   8.043 -0.3595 -2.4079  2.0198
30153SOL    HW292467   0.966   5.909   7.979 -0.3246 -1.3069  0.7897
30154SOL     OW92468   2.399   2.572  10.374 -0.6340 -0.5490 -0.3276
30154SOL    HW192469   2.466   2.583  10.307 -0.2422  0.5178  0.2319
30154SOL    HW292470   2.330   2.521  10.330 -0.3144 -0.0010 -1.4870
30155SOL     OW92471   2.875   3.242   8.039  0.2791 -0.7630  0.2946
30155SOL    HW192472   2.825   3.237   8.121 -1.1277 -0.5474 -0.5133
30155SOL    HW292473   2.892   3.151   8.016  0.4799 -0.8326  0.7128
30156SOL     OW92474   5.479   2.030   8.632  0.4467  0.0058  0.2207
30156SOL    HW192475   5.453   1.945   8.596  2.8164 -1.2525  1.2586
30156SOL    HW292476   5.427   2.094   8.583 -0.7513 -1.9742 -1.2241
30157SOL     OW92477   9.467   2.741   0.518  0.1672  0.0448  0.0981
30157SOL    HW192478   9.451   2.734   0.424  0.1118 -1.5121  0.1849
30157SOL    HW292479   9.383   2.718   0.559  0.1754  0.7591  0.5385
30158SOL     OW92480  10.799   0.595   5.114 -0.0720  0.0179 -0.4699
30158SOL    HW192481  10.797   0.513   5.164  2.9287 -1.3253 -2.2477
30158SOL    HW292482  10.852   0.654   5.167  1.7238 -0.8446 -1.2481
30159SOL     OW92483   2.751   3.147   7.339 -0.0307  0.5041  0.3379
30159SOL    HW192484   2.837   3.126   7.303  0.7969  3.5373  0.2852
30159SOL    HW292485   2.751   3.107   7.426  1.8967  1.2917  0.7547
30160SOL     OW92486   1.276   0.759   3.443  0.0112 -0.6470 -0.2730
30160SOL    HW192487   1.194   0.723   3.411  0.6122 -1.5283 -0.8742
30160SOL    HW292488   1.256   0.850   3.466 -0.6664 -0.2611 -2.2613
30161SOL     OW92489   0.758   2.479   8.586 -0.0481  0.1646  0.4571
30161SOL    HW192490   0.842   2.466   8.541  0.2140 -1.4591  1.3581
30161SOL    HW292491   0.766   2.428   8.666 -0.1246  3.6120  2.9031
30162SOL     OW92492   1.958   2.518   4.931  0.0340 -0.7519  0.0223
30162SOL    HW192493   2.039   2.544   4.976  0.5721  1.7062 -2.1313
30162SOL    HW292494   1.895   2.504   5.002  0.9926  2.3481  1.6759
30163SOL     OW92495  10.765   8.720   5.783 -0.1441  0.0525  0.4958
30163SOL    HW192496  10.830   8.769   5.732  0.9548 -0.9623  0.8732
30163SOL    HW292497  10.709   8.787   5.822  0.9878  0.9896  0.5689
30164SOL     OW92498   0.075  10.691   7.963  0.0485 -0.4095  0.9758
30164SOL    HW192499   0.105  10.603   7.943  3.0008  0.3151  1.6677
30164SOL    HW292500   0.122  10.747   7.901 -1.1402  0.7654  1.0862
30165SOL     OW92501   0.277   7.388   7.949 -0.5422 -0.5455 -0.2454
30165SOL    HW192502   0.326   7.335   7.886 -0.3909 -0.5620 -0.1155
30165SOL    HW292503   0.328   7.469   7.956 -1.7811  0.4553 -1.9178
30166SOL     OW92504   3.562   7.274  10.820 -0.0142 -0.0223  0.3868
30166SOL    HW192505   3.507   7.313  10.887 -0.7147  0.2124 -0.3106
30166SOL    HW292506   3.525   7.304  10.737  1.1485  0.1238 -0.1110
30167SOL     OW92507   0.726   8.810   6.195 -0.1484  0.4908  0.0436
30167SOL    HW192508   0.698   8.865   6.268  0.4914  0.6774  0.1587
30167SOL    HW292509   0.803   8.764   6.228 -1.3167 -1.3580  0.3450
30168SOL     OW92510   7.964   8.830   4.682 -0.4947  0.6416  0.0641
30168SOL    HW192511   7.936   8.906   4.733 -0.6292  0.9402 -0.4507
30168SOL    HW292512   8.013   8.776   4.745  1.9985  2.4575 -0.1523
30169SOL     OW92513   9.744   5.012  10.100  0.7902  0.0350  0.5145
30169SOL    HW192514   9.712   5.017  10.009  0.1124  0.8148  0.7798
30169SOL    HW292515   9.834   4.980  10.092  0.4239 -0.8491 -0.3658
30170SOL     OW92516   7.075   3.149   5.911 -0.0715 -0.2533 -0.3744
30170SOL    HW192517   7.140   3.119   5.848  2.9023  1.7853  1.4371
30170SOL    HW292518   7.048   3.235   5.879 -3.2175 -1.6498 -1.8858
30171SOL     OW92519   0.609   2.063   0.320 -0.2893 -0.5831  0.0508
30171SOL    HW192520   0.663   2.142   0.313 -0.8828 -0.3087 -2.8210
30171SOL    HW292521   0.519   2.095   0.324 -0.5228 -1.0654 -0.9188
30172SOL     OW92522   9.435   7.406   5.642  0.4408  0.4754 -0.5477
30172SOL    HW192523   9.414   7.380   5.732  0.2512 -0.2082 -0.7835
30172SOL    HW292524   9.357   7.453   5.612 -0.6308 -1.6688 -1.2692
30173SOL     OW92525   0.254  10.818   3.222 -0.0822  0.3118  0.1386
30173SOL    HW192526   0.334  10.872   3.215  2.0589 -1.8880  4.1043
30173SOL    HW292527   0.286  10.728   3.217 -2.4051 -0.6378  1.1832
30174SOL     OW92528   4.976   1.430  10.786 -0.1972 -0.4304  0.3716
30174SOL    HW192529   4.946   1.511  10.826  0.3617  0.0850 -0.2283
30174SOL    HW292530   5.040   1.458  10.720  0.2655 -1.3746  0.4015
30175SOL     OW92531   8.442   4.395  10.027  0.0187  0.0766  0.5515
30175SOL    HW192532   8.402   4.334  10.089 -0.6034  1.4304  1.5299
30175SOL    HW292533   8.422   4.482  10.062  2.8299  0.8677  0.4490
30176SOL     OW92534   4.653   5.032  10.706 -0.4123 -0.1167 -0.0208
30176SOL    HW192535   4.577   5.019  10.763 -1.7137  2.7729 -0.8966
30176SOL    HW292536   4.620   5.018  10.618  0.3255  0.1797 -0.3517
30177SOL     OW92537  10.542   4.987   0.998 -0.3678 -0.7819 -0.6027
30177SOL    HW192538  10.481   4.956   1.065  0.5646  0.1181  0.7170
30177SOL    HW292539  10.501   5.066   0.962  0.2459  0.1769  0.7149
30178SOL     OW92540   6.574   1.156   2.382  0.7719  0.8718  0.0352
30178SOL    HW192541   6.591   1.200   2.299  0.4572 -1.2183 -1.1798
30178SOL    HW292542   6.546   1.227   2.441 -1.0609  2.1179 -2.1999
30179SOL     OW92543   8.474   4.391   1.663  0.0273  0.1621 -0.0822
30179SOL    HW192544   8.424   4.351   1.593  1.1377 -1.0269 -0.2259
30179SOL    HW292545   8.543   4.440   1.618  0.2345  0.0942  0.1615
30180SOL     OW92546   3.287   0.344   4.403 -0.4380 -0.0640  0.6686
30180SOL    HW192547   3.330   0.430   4.402 -0.2492 -0.1579  0.8617
30180SOL    HW292548   3.204   0.360   4.449  0.4123 -0.3772  2.3484
30181SOL     OW92549   0.729  10.558   3.718  0.2101 -0.1282 -0.0012
30181SOL    HW192550   0.783  10.538   3.795  0.7818  0.4120 -0.2530
30181SOL    HW292551   0.643  10.581   3.755  0.5575  0.3991  0.5018
30182SOL     OW92552  11.076   2.483   5.685  0.4251 -0.4981  0.0694
30182SOL    HW192553  11.033   2.447   5.762  0.2310 -0.3849  0.0142
30182SOL    HW292554  11.161   2.513   5.717 -0.3011  1.0768  0.5988
30183SOL     OW92555   6.286  10.419   5.545  0.6991 -0.2504  0.2842
30183SOL    HW192556   6.345  10.348   5.518 -0.6356 -0.3548 -2.7678
30183SOL    HW292557   6.324  10.498   5.508  0.4205  0.1317  0.7943
30184SOL     OW92558   4.953   0.671   0.139  0.4075 -0.5306  0.7877
30184SOL    HW192559   4.977   0.763   0.146 -2.5702  0.3970  0.3340
30184SOL    HW292560   4.984   0.632   0.221 -1.2440  1.6936  2.6187
30185SOL     OW92561   0.213   1.790   1.180 -0.3179  0.0866  0.1363
30185SOL    HW192562   0.202   1.726   1.251  4.5575 -1.8843 -0.4562
30185SOL    HW292563   0.165   1.751   1.106 -0.1182 -1.2387  0.6646
30186SOL     OW92564   9.765   6.207   1.115  0.1905  0.5787 -0.1829
30186SOL    HW192565   9.700   6.146   1.080 -2.5796  2.8582  0.6331
30186SOL    HW292566   9.823   6.226   1.041 -1.7096  0.4824 -1.7711
30187SOL     OW92567   2.822  10.982   9.118  0.1091 -0.3768  0.1989
30187SOL    HW192568   2.752  11.034   9.159 -0.6124 -0.3514 -1.0225
30187SOL    HW292569   2.782  10.897   9.102  0.5438 -0.5410 -0.0148
30188SOL     OW92570   7.276   8.309   9.563 -0.1289 -0.0363  0.3750
30188SOL    HW192571   7.351   8.304   9.623  0.3907  0.4865 -0.2113
30188SOL    HW292572   7.217   8.373   9.603 -1.7291 -2.5855  2.3870
30189SOL     OW92573   2.322   6.207   8.342  0.0627  0.2040  0.5233
30189SOL    HW192574   2.414   6.192   8.366 -0.2223 -1.0203  0.9213
30189SOL    HW292575   2.306   6.147   8.270  0.4556  2.7445 -1.8424
30190SOL     OW92576   4.928  10.567   5.831 -0.5165 -0.0499 -0.4475
30190SOL    HW192577   4.977  10.599   5.756 -1.3042  2.0716 -0.1466
30190SOL    HW292578   4.981  10.497   5.867  1.6173  1.2227 -0.9396
30191SOL     OW92579  10.409   7.254   1.310 -0.3513 -0.7064  0.7629
30191SOL    HW192580  10.436   7.176   1.358  1.4095 -1.8783 -1.9037
30191SOL    HW292581  10.332   7.286   1.356 -1.3055 -4.1700  1.8108
30192SOL     OW92582   6.726   1.557   9.163  0.9836  0.1744  0.0861
30192SOL    HW192583   6.757   1.542   9.252 -0.2357 -1.4409  0.2748
30192SOL    HW292584   6.729   1.652   9.153 -1.5542  0.7184  2.9265
30193SOL     OW92585   4.289   2.822   9.185 -0.3056 -0.6766 -0.1316
30193SOL    HW192586   4.367   2.835   9.131  0.1092 -1.5083  0.2472
30193SOL    HW292587   4.225   2.781   9.127 -0.7374  0.6672 -0.6433
30194SOL     OW92588   4.599   6.336   6.334 -0.3202  0.4385  1.0642
30194SOL    HW192589   4.571   6.314   6.245 -0.9513  3.4906  0.4238
30194SOL    HW292590   4.694   6.321   6.333 -0.5534 -1.2712  0.4820
30195SOL     OW92591   5.422   2.834   3.271  0.2573  0.2221 -0.0366
30195SOL    HW192592   5.382   2.837   3.358 -0.5830 -0.1685 -0.3907
30195SOL    HW292593   5.445   2.925   3.251  1.5845  0.1549  1.0840
30196SOL     OW92594   2.019   0.300  10.226 -0.5575  0.3261  0.0384
30196SOL    HW192595   2.042   0.281  10.136 -0.5553  4.5181 -1.0661
30196SOL    HW292596   1.923   0.306  10.226 -0.5843 -0.0602  0.4113
30197SOL     OW92597   3.334   4.600  11.049  0.2100 -0.1768 -0.3623
30197SOL    HW192598   3.396   4.528  11.045  0.0154 -0.3593 -0.1063
30197SOL    HW292599   3.293   4.592  11.135 -0.3360 -0.1990 -0.6161
30198SOL     OW92600   0.686   6.964   0.344  0.4659 -0.3363 -0.2676
30198SOL    HW192601   0.631   6.986   0.269 -0.0342 -0.2287  0.1306
30198SOL    HW292602   0.673   7.036   0.405  0.6788 -0.5502  0.0308
30199SOL     OW92603   8.163   2.952   1.641 -0.8263 -0.3473 -0.2079
30199SOL    HW192604   8.226   2.962   1.713  0.5976  0.8690 -1.5501
30199SOL    HW292605   8.215   2.915   1.569 -1.8775 -0.2360 -1.0543
30200SOL     OW92606   9.999   6.703   9.552 -0.4628  0.0634 -0.6230
30200SOL    HW192607  10.019   6.680   9.462 -0.1589  0.4087 -0.6466
30200SOL    HW292608   9.975   6.620   9.593  1.8624 -0.5529 -0.3770
30201SOL     OW92609   1.385   9.898   6.910  0.3307  0.0727  0.1081
30201SOL    HW192610   1.380   9.961   6.983  0.2019  1.6346 -1.1876
30201SOL    HW292611   1.295   9.872   6.896  0.2861  0.1969  0.1546
30202SOL     OW92612   8.807  10.333   3.783 -0.3682  0.7894  0.2788
30202SOL    HW192613   8.828  10.241   3.793  0.5276  0.9489  0.0224
30202SOL    HW292614   8.717  10.342   3.814 -1.3484 -0.6119 -1.9322
30203SOL     OW92615   8.061   7.191   9.198 -0.0267 -0.5733  0.0017
30203SOL    HW192616   8.103   7.117   9.153 -0.0453 -0.8128  0.3779
30203SOL    HW292617   7.986   7.152   9.243  2.4651 -1.2644  4.0805
30204SOL     OW92618   4.242   8.610   9.644 -0.3495  0.4295  0.5920
30204SOL    HW192619   4.303   8.684   9.647 -2.3461  2.2668 -0.7106
30204SOL    HW292620   4.229   8.587   9.736  0.3551  1.6962  1.0351
30205SOL     OW92621   7.899   5.639   0.837  0.1115  0.2075  0.2185
30205SOL    HW192622   7.836   5.568   0.842  0.7541 -0.3805 -0.0138
30205SOL    HW292623   7.944   5.638   0.922  0.4926 -0.0167  0.0182
30206SOL     OW92624   1.499   2.544   8.503  0.1289  0.6369 -0.2189
30206SOL    HW192625   1.459   2.601   8.569  2.5904  2.7512 -0.4277
30206SOL    HW292626   1.474   2.583   8.419  0.4829  0.4437 -0.4184
30207SOL     OW92627   8.683   4.295   9.970 -0.1855 -0.1522  0.2042
30207SOL    HW192628   8.594   4.323   9.991 -0.2152  0.0134 -0.1443
30207SOL    HW292629   8.699   4.329   9.882  0.7531  1.0665  0.8151
30208SOL     OW92630   6.133   2.277   7.603 -0.6023  0.0192 -0.2542
30208SOL    HW192631   6.102   2.362   7.634 -0.9109  0.4488 -1.6585
30208SOL    HW292632   6.150   2.290   7.509  1.7684 -0.7973  0.0013
30209SOL     OW92633  10.698   3.782   8.980 -0.7100  0.1365  0.4379
30209SOL    HW192634  10.750   3.707   9.009 -0.2160  1.5865  3.7878
30209SOL    HW292635  10.615   3.774   9.027 -1.1734  0.9859 -0.1943
30210SOL     OW92636   1.113   6.537   2.133  0.1980 -0.2453  0.2726
30210SOL    HW192637   1.092   6.614   2.185 -0.0274  0.4022 -0.7536
30210SOL    HW292638   1.115   6.568   2.043  0.0581 -1.4475 -0.1679
30211SOL     OW92639   2.766   3.131   1.376 -0.1236 -0.4669  0.1265
30211SOL    HW192640   2.826   3.125   1.451 -0.3490  1.0031  0.4537
30211SOL    HW292641   2.679   3.128   1.414 -0.2770 -1.7660 -0.2798
30212SOL     OW92642   4.724  10.598  11.039  0.4696  0.0353  0.8751
30212SOL    HW192643   4.814  10.619  11.063  0.3520  1.2136  0.3500
30212SOL    HW292644   4.718  10.619  10.946 -0.3344 -0.0959  0.8840
30213SOL     OW92645   0.457   8.556   3.959  0.3524  0.0940  0.1754
30213SOL    HW192646   0.386   8.559   3.895  0.6741  0.0169 -0.1857
30213SOL    HW292647   0.475   8.648   3.980  0.6273  0.1415 -0.2664
30214SOL     OW92648   9.883   4.960  11.096 -0.8944 -0.1893  0.0460
30214SOL    HW192649   9.975   4.960  11.124 -0.8944 -0.6668  0.0541
30214SOL    HW292650   9.886   4.992  11.006 -0.8551  0.9882  0.4468
30215SOL     OW92651  10.071   6.831  10.005 -0.7392  0.0193 -0.2001
30215SOL    HW192652  10.110   6.773  10.071 -0.5897 -1.1988 -1.3342
30215SOL    HW292653  10.100   6.796   9.921 -0.0912  2.1484 -0.9318
30216SOL     OW92654   3.547   5.612   3.939 -0.2993  0.1624 -0.2294
30216SOL    HW192655   3.513   5.564   4.015 -0.2034  1.2930  0.5580
30216SOL    HW292656   3.642   5.610   3.951 -0.3254  1.3049  0.3213
30217SOL     OW92657   6.623   4.346   0.944 -0.1881  0.2458  0.0877
30217SOL    HW192658   6.567   4.385   1.011  0.4742  0.7933  0.3314
30217SOL    HW292659   6.571   4.273   0.909 -0.5402 -0.0660  1.2054
30218SOL     OW92660   2.380   1.943   2.585 -0.0351 -0.4753 -0.2380
30218SOL    HW192661   2.305   2.002   2.583  0.8372  0.6638 -0.8533
30218SOL    HW292662   2.381   1.902   2.498  0.4936  0.1174 -0.5241
30219SOL     OW92663   3.829   4.378   8.641 -0.2470 -0.0892  0.3045
30219SOL    HW192664   3.869   4.341   8.719  1.8332  0.5526 -0.4085
30219SOL    HW292665   3.888   4.448   8.613 -2.0732  1.2046 -0.5908
30220SOL     OW92666   3.487   0.875   9.569 -0.6367  0.4550 -0.2622
30220SOL    HW192667   3.555   0.909   9.510 -0.4785  0.2093 -0.2238
30220SOL    HW292668   3.472   0.786   9.538 -2.2418  1.0771 -1.4377
30221SOL     OW92669   4.426   4.572   1.961  0.5106 -0.3479 -0.0530
30221SOL    HW192670   4.492   4.540   1.899 -0.2588  1.3025 -1.8487
30221SOL    HW292671   4.461   4.656   1.991  0.5618 -0.8294  1.2915
30222SOL     OW92672   7.251   5.401   1.252  0.3373 -0.4670  0.5121
30222SOL    HW192673   7.254   5.365   1.340  0.6508  0.0109  0.7021
30222SOL    HW292674   7.334   5.447   1.242  0.2222 -0.3542  0.0376
30223SOL     OW92675   0.890   5.151   6.138 -0.0104 -0.2495  0.1960
30223SOL    HW192676   0.795   5.147   6.147 -0.2053 -1.4384 -1.7098
30223SOL    HW292677   0.914   5.235   6.175 -1.7211 -0.2080  1.3263
30224SOL     OW92678  11.083   8.856   3.232  0.2371 -0.4752  0.1005
30224SOL    HW192679  11.039   8.939   3.253  0.0514 -1.0208  2.1210
30224SOL    HW292680  11.098   8.860   3.138  2.8594  3.1534  0.4473
30225SOL     OW92681   3.509   9.214   0.279 -0.1760 -0.2655  0.7153
30225SOL    HW192682   3.485   9.126   0.309 -0.4761  0.0672  1.4685
30225SOL    HW292683   3.472   9.221   0.191  3.3206 -2.4208 -1.1572
30226SOL     OW92684   5.058   8.378   1.275  0.6875  0.5599  0.2144
30226SOL    HW192685   5.087   8.465   1.302 -0.8225  1.2649 -0.3042
30226SOL    HW292686   5.076   8.376   1.180 -2.2375  1.6338 -0.4551
30227SOL     OW92687   3.250   2.159   2.618  0.0759 -0.0898 -0.9368
30227SOL    HW192688   3.287   2.183   2.533  1.4069  0.9766 -0.1018
30227SOL    HW292689   3.288   2.074   2.637  2.7011  1.1965  0.1316
30228SOL     OW92690   3.592   8.635   2.031  0.1956  0.4319  0.5041
30228SOL    HW192691   3.636   8.647   2.115 -0.7663 -0.6133  1.1650
30228SOL    HW292692   3.539   8.714   2.020  0.4991  0.6747  0.7471
30229SOL     OW92693   0.634   3.049   8.052 -0.1802  0.3927 -0.1978
30229SOL    HW192694   0.603   3.082   7.968  0.2920  0.0058 -0.5321
30229SOL    HW292695   0.728   3.032   8.039 -0.5777 -2.0482 -0.3954
30230SOL     OW92696   6.378  10.191  10.158 -0.7068  0.6991 -0.2366
30230SOL    HW192697   6.315  10.125  10.185 -1.8450  2.2212  1.0493
30230SOL    HW292698   6.337  10.233  10.082  0.5827 -0.8182 -1.8512
30231SOL     OW92699  10.648   1.509   8.818  0.1381 -0.4907  0.0655
30231SOL    HW192700  10.689   1.502   8.904 -2.5121 -1.7277  1.3357
30231SOL    HW292701  10.615   1.422   8.800  0.1784 -0.1191 -2.0081
30232SOL     OW92702   3.804   2.294   8.425 -0.4065 -0.4118 -0.4462
30232SOL    HW192703   3.782   2.201   8.420 -0.3822 -0.5464  1.2960
30232SOL    HW292704   3.742   2.330   8.487 -1.5321  1.1485 -2.3642
30233SOL     OW92705   7.777   4.831   7.046 -0.0975 -0.3162  0.2574
30233SOL    HW192706   7.780   4.753   7.101 -1.9279 -2.1441 -2.0461
30233SOL    HW292707   7.845   4.816   6.980 -0.9868 -0.3733 -0.6611
30234SOL     OW92708   1.228   1.134   7.313  0.8597 -0.1785  0.2101
30234SOL    HW192709   1.234   1.227   7.337 -1.3119 -0.1646  0.8949
30234SOL    HW292710   1.162   1.131   7.244  0.0083 -1.3083  1.0319
30235SOL     OW92711   6.484   7.944   1.888 -0.0562  0.1728 -0.3545
30235SOL    HW192712   6.564   7.896   1.907 -0.4560  0.1578  1.4553
30235SOL    HW292713   6.447   7.900   1.812  2.2776  0.9806 -2.0806
30236SOL     OW92714   1.025   2.357   6.069  0.0999  0.1966 -0.4594
30236SOL    HW192715   1.067   2.404   6.141  0.3782 -1.0034  0.2043
30236SOL    HW292716   0.933   2.382   6.073 -0.3801 -1.6399  1.8666
30237SOL     OW92717   9.980   3.051  10.733  0.0199 -0.5164 -0.2442
30237SOL    HW192718  10.062   3.100  10.734 -0.5901  0.5476  1.1586
30237SOL    HW292719   9.911   3.118  10.731 -0.8514 -1.1670  2.5900
30238SOL     OW92720   3.236  10.388   5.746 -0.5588  0.4779  0.0896
30238SOL    HW192721   3.287  10.393   5.827  0.4036  1.4144 -0.5434
30238SOL    HW292722   3.236  10.478   5.713 -1.6196  0.2568 -0.5468
30239SOL     OW92723   1.544   9.282   1.098 -0.2409 -0.3874 -0.1000
30239SOL    HW192724   1.547   9.377   1.093  0.1885 -0.4169 -0.4769
30239SOL    HW292725   1.488   9.263   1.173 -0.0294  0.1634  0.1996
30240SOL     OW92726   3.916   3.853   3.323  0.4052  0.4180  0.3885
30240SOL    HW192727   3.836   3.807   3.295  1.0826 -0.2826 -0.4737
30240SOL    HW292728   3.890   3.944   3.331 -0.2677  0.3449 -0.7801
30241SOL     OW92729   4.210   2.133   9.976 -0.3810 -0.3164  0.7186
30241SOL    HW192730   4.167   2.174   9.901 -0.3272  1.1238  1.4410
30241SOL    HW292731   4.303   2.129   9.950 -0.7298 -2.4911 -0.4224
30242SOL     OW92732   8.976   0.070   1.966  0.5367 -0.5749  0.6021
30242SOL    HW192733   8.995   0.059   1.873  1.4893  2.5271  0.2988
30242SOL    HW292734   9.018  -0.005   2.008  4.2675  0.3194 -1.1033
30243SOL     OW92735   4.912   0.125   3.596 -0.1617 -0.2939  0.0060
30243SOL    HW192736   4.888   0.183   3.524 -0.0474  2.3465  1.9356
30243SOL    HW292737   4.829   0.103   3.638 -0.0572  0.0379  0.3893
30244SOL     OW92738   0.726   8.718  10.956  0.3421  0.1507 -0.1005
30244SOL    HW192739   0.641   8.700  10.996  0.5215 -4.5028 -1.2036
30244SOL    HW292740   0.706   8.754  10.870 -0.6084 -1.2717 -0.5056
30245SOL     OW92741   0.387   3.919   6.865  0.1073 -0.1242 -0.0858
30245SOL    HW192742   0.468   3.968   6.851  0.7615 -1.5507 -1.7478
30245SOL    HW292743   0.410   3.853   6.930 -0.3849  0.8381  1.1054
30246SOL     OW92744   2.498   5.732   2.907  0.3097 -0.1215  0.0106
30246SOL    HW192745   2.407   5.741   2.937 -0.2017 -0.1900 -1.4616
30246SOL    HW292746   2.549   5.779   2.974 -1.1498  3.1443 -0.9550
30247SOL     OW92747   1.282   3.968   4.241 -0.4075 -0.4684 -0.0705
30247SOL    HW192748   1.347   3.941   4.306 -0.5853 -0.7077  0.0109
30247SOL    HW292749   1.311   4.054   4.212 -0.8565  0.0865  1.0452
30248SOL     OW92750   5.313   0.982   0.964 -0.1050 -0.0512 -0.8107
30248SOL    HW192751   5.278   0.978   0.874 -1.9252 -1.8682 -0.1053
30248SOL    HW292752   5.261   0.918   1.012  2.4637 -0.9195  1.0219
30249SOL     OW92753   6.368   2.863  10.718  0.4684  0.2735 -0.2453
30249SOL    HW192754   6.441   2.803  10.729 -0.4886 -0.8417  0.3109
30249SOL    HW292755   6.300   2.811  10.675  0.0394  1.3096 -0.8437
30250SOL     OW92756   7.927   7.683   7.207  0.4068  0.3795 -0.1517
30250SOL    HW192757   7.893   7.757   7.258  0.0575 -0.3230  0.6533
30250SOL    HW292758   7.971   7.627   7.271  1.3385  0.2501 -0.8681
30251SOL     OW92759   4.684   7.870   1.271 -0.4460  0.0576 -0.7749
30251SOL    HW192760   4.679   7.777   1.252 -1.0484 -0.4420  1.4979
30251SOL    HW292761   4.777   7.886   1.289 -0.3434 -0.1142 -1.1606
30252SOL     OW92762   3.549   2.577   6.065  0.3724 -0.7574  0.5158
30252SOL    HW192763   3.519   2.546   5.980 -1.7097  1.3433  0.4017
30252SOL    HW292764   3.470   2.582   6.119  0.6362  3.0880  0.8339
30253SOL     OW92765   1.794   9.170   2.875 -0.3663  0.0771 -0.5530
30253SOL    HW192766   1.734   9.236   2.844 -1.6250 -0.2951  0.9638
30253SOL    HW292767   1.880   9.211   2.870 -0.9756  1.3530 -0.8112
30254SOL     OW92768   2.843   7.572   3.332  0.7493  1.1239 -0.2812
30254SOL    HW192769   2.873   7.545   3.419  1.1428 -0.0679 -0.7809
30254SOL    HW292770   2.849   7.668   3.334  0.3652  1.1365  1.1393
30255SOL     OW92771   2.709   4.461   3.812 -0.1088  0.0178  0.0083
30255SOL    HW192772   2.707   4.372   3.777  2.6553  0.4272 -1.4313
30255SOL    HW292773   2.623   4.497   3.790  0.0483 -1.1002 -2.8825
30256SOL     OW92774   3.614   4.490   9.281  0.4244  0.4705  0.2572
30256SOL    HW192775   3.547   4.466   9.217  2.2155 -0.6452 -1.3152
30256SOL    HW292776   3.565   4.528   9.354 -1.7312  2.2686 -1.9231
30257SOL     OW92777   3.079   4.886   1.756 -0.4976  0.3431  0.4542
30257SOL    HW192778   2.999   4.917   1.799  0.0914 -0.7935  2.4747
30257SOL    HW292779   3.089   4.796   1.785  0.3473 -0.2636 -1.5615
30258SOL     OW92780   7.417   3.283   5.968 -0.4235 -0.0406 -0.1404
30258SOL    HW192781   7.379   3.241   6.045 -1.8483 -0.7044 -1.1665
30258SOL    HW292782   7.359   3.258   5.896  1.5023 -0.3832 -1.6526
30259SOL     OW92783   7.500   7.362   3.139 -0.2864 -0.6784  0.2469
30259SOL    HW192784   7.533   7.282   3.097  0.7802 -0.1683  0.0558
30259SOL    HW292785   7.548   7.367   3.222  0.0072 -0.0003  0.0427
30260SOL     OW92786   3.872   2.880   2.594  0.1936 -0.6847 -0.2104
30260SOL    HW192787   3.871   2.824   2.672  0.2694  1.4015  1.3836
30260SOL    HW292788   3.780   2.890   2.571 -0.3160  2.2924  2.4761
30261SOL     OW92789   0.005   4.968  10.471  0.0939  0.0556 -0.2226
30261SOL    HW192790  -0.065   5.031  10.482 -0.0432 -0.2548  0.8011
30261SOL    HW292791   0.009   4.921  10.554 -0.6050 -2.0946 -1.3116
30262SOL     OW92792   1.176   2.806   8.694 -0.2655  1.1995  0.2906
30262SOL    HW192793   1.264   2.817   8.657  0.1804  1.8745  1.4760
30262SOL    HW292794   1.166   2.712   8.705  0.0324  1.0696 -0.4863
30263SOL     OW92795   9.297   5.156   5.399  0.1570 -0.2345  0.1754
30263SOL    HW192796   9.208   5.131   5.422  0.8555 -1.4618  1.7434
30263SOL    HW292797   9.345   5.152   5.482  2.2202 -2.1676 -1.0079
30264SOL     OW92798  10.172  10.204  10.083 -0.6414 -0.0197 -0.7857
30264SOL    HW192799  10.133  10.116  10.078 -0.8306 -0.0016  0.1236
30264SOL    HW292800  10.254  10.197  10.034 -0.1160 -1.0096  0.1885
30265SOL     OW92801   5.009   2.143   7.311 -0.2319  0.0085  0.5306
30265SOL    HW192802   5.066   2.202   7.360  0.4881 -0.4602  0.2829
30265SOL    HW292803   5.070   2.080   7.270 -0.8812 -0.1339 -0.2378
30266SOL     OW92804   3.347   6.789   6.775 -0.5310 -0.3297 -0.5220
30266SOL    HW192805   3.390   6.783   6.860 -1.2631 -0.2772 -0.1463
30266SOL    HW292806   3.409   6.748   6.714  1.5908  2.6573 -0.5984
30267SOL     OW92807   3.056   1.445   6.494  0.3273 -0.0666 -0.4137
30267SOL    HW192808   3.118   1.374   6.477  0.9772  0.1979  0.6917
30267SOL    HW292809   3.105   1.506   6.549 -0.6702  0.5456 -0.1781
30268SOL     OW92810   4.210   6.033   4.887  0.0762  0.1709 -0.2807
30268SOL    HW192811   4.272   6.072   4.826 -1.2977  0.7252 -1.3947
30268SOL    HW292812   4.135   6.008   4.832 -0.2720 -1.4269  0.8493
30269SOL     OW92813   2.117   9.814   2.363 -0.1335  0.6233  0.3110
30269SOL    HW192814   2.207   9.795   2.389  0.5463  0.5223 -1.8701
30269SOL    HW292815   2.122   9.900   2.322 -0.8445  0.2588 -0.5766
30270SOL     OW92816  11.053   3.839   5.519 -0.4009  0.1978  0.5072
30270SOL    HW192817  10.967   3.840   5.477  0.5234  1.3525 -1.5303
30270SOL    HW292818  11.065   3.748   5.546 -1.9802 -0.1222  0.2346
30271SOL     OW92819   8.234   8.873   0.850  0.2266  0.1360  0.2106
30271SOL    HW192820   8.262   8.895   0.761  3.0144  1.6476  1.3254
30271SOL    HW292821   8.316   8.864   0.899 -1.2032  1.6829  3.1419
30272SOL     OW92822   7.814   9.977   3.659  0.2601 -0.1095 -0.3946
30272SOL    HW192823   7.822   9.889   3.622 -1.1128  0.3483 -1.9145
30272SOL    HW292824   7.834  10.035   3.587 -0.0850  0.8322  0.2528
30273SOL     OW92825   9.074   0.123   1.369 -0.2101  0.3326  0.5539
30273SOL    HW192826   9.008   0.078   1.316 -0.2849  1.2364 -0.1544
30273SOL    HW292827   9.050   0.216   1.363 -0.0281  0.4858  1.9261
30274SOL     OW92828   7.613  10.976   4.354  0.0964 -0.3530 -0.1707
30274SOL    HW192829   7.636  10.972   4.261  0.3421  2.7363 -0.3593
30274SOL    HW292830   7.696  10.995   4.398 -0.3269  0.0906  0.4452
30275SOL     OW92831   7.171   1.472   1.060  0.1985 -0.2796  0.1783
30275SOL    HW192832   7.182   1.563   1.033  0.2149  0.0652  1.2969
30275SOL    HW292833   7.155   1.477   1.154 -1.4292 -1.3221 -0.0006
30276SOL     OW92834   5.573   6.887   7.049  0.5131  0.1437  0.3886
30276SOL    HW192835   5.659   6.902   7.088  0.9655  0.2846 -0.6506
30276SOL    HW292836   5.518   6.860   7.123  1.3563  0.3815  1.1189
30277SOL     OW92837   1.342   3.730   3.105 -0.2560 -0.2178 -0.1934
30277SOL    HW192838   1.383   3.802   3.152 -0.6745  0.7493 -1.2729
30277SOL    HW292839   1.412   3.665   3.095  1.1410  1.4517 -2.1156
30278SOL     OW92840   0.793   7.257   5.258 -0.1057  0.3839  0.2728
30278SOL    HW192841   0.805   7.331   5.198 -0.2388 -0.5427 -0.9304
30278SOL    HW292842   0.824   7.290   5.343 -1.1963  2.1879  0.0365
30279SOL     OW92843   5.461   6.281   0.679  0.3627 -0.2217 -0.0167
30279SOL    HW192844   5.373   6.289   0.714  0.1932 -3.0581  0.4214
30279SOL    HW292845   5.449   6.270   0.585 -0.0624 -3.0599  0.2716
30280SOL     OW92846   2.937   6.582   0.995  0.7824  0.3403  0.1554
30280SOL    HW192847   2.957   6.666   1.036 -0.1633 -0.0222  1.4515
30280SOL    HW292848   2.841   6.577   0.997  0.7910 -0.3780 -0.7249
30281SOL     OW92849   7.348   9.440   0.457  0.5374  0.0053  0.9211
30281SOL    HW192850   7.333   9.534   0.472  0.1892  0.0371  0.3908
30281SOL    HW292851   7.372   9.406   0.543 -1.4656  0.1664  1.5829
30282SOL     OW92852   2.643   3.357   5.550 -0.7363  0.6357  0.0127
30282SOL    HW192853   2.734   3.377   5.526 -1.1134  1.9550 -0.4386
30282SOL    HW292854   2.592   3.384   5.473 -1.2283 -4.3192 -1.7276
30283SOL     OW92855   4.417   2.214   0.679 -0.3091 -0.2267  0.0702
30283SOL    HW192856   4.449   2.178   0.762 -1.7211  0.0986  0.7856
30283SOL    HW292857   4.324   2.192   0.678 -0.5684  0.8375 -0.8541
30284SOL     OW92858   9.123  10.769   7.847  0.0574  0.2213 -0.0474
30284SOL    HW192859   9.149  10.825   7.774  0.8584 -0.4497 -0.2852
30284SOL    HW292860   9.171  10.804   7.922 -0.8225  0.9578  0.1951
30285SOL     OW92861   5.806  10.473   8.741  0.0831 -0.5409 -0.5238
30285SOL    HW192862   5.898  10.463   8.719 -0.5695 -2.0397 -2.9028
30285SOL    HW292863   5.798  10.437   8.829  2.0810  1.6325  0.6758
30286SOL     OW92864  11.008  10.122   7.742 -0.3289  0.4816  0.8583
30286SOL    HW192865  10.914  10.109   7.728 -0.2390 -0.2925  0.9279
30286SOL    HW292866  11.046  10.036   7.727  0.5888  1.1459 -0.9758
30287SOL     OW92867   7.711   3.365   9.493 -0.3132 -0.2025 -0.3549
30287SOL    HW192868   7.719   3.455   9.522 -3.8980  0.2446 -0.2480
30287SOL    HW292869   7.633   3.365   9.437 -0.1228 -3.1340 -0.7990
30288SOL     OW92870   2.551   5.181   8.619 -0.3671  0.4073  0.4649
30288SOL    HW192871   2.517   5.140   8.540  1.0068 -1.3654  0.7263
30288SOL    HW292872   2.644   5.197   8.600 -0.0041 -0.0871  1.7055
30289SOL     OW92873   4.291   6.642   9.197  0.2842 -0.5764 -0.2380
30289SOL    HW192874   4.307   6.665   9.105 -1.4824 -0.5369 -0.5794
30289SOL    HW292875   4.272   6.548   9.195  1.0127 -0.7422  0.2157
30290SOL     OW92876   6.636   2.953   1.682 -0.4381 -0.0995 -0.3948
30290SOL    HW192877   6.621   2.874   1.734 -0.3208  0.9393  1.2776
30290SOL    HW292878   6.714   2.993   1.721  0.3641  0.1272 -2.1338
30291SOL     OW92879  10.430  10.176  10.291 -0.2727  0.2279  0.2681
30291SOL    HW192880  10.401  10.155  10.380  1.6804 -0.0438  0.8714
30291SOL    HW292881  10.506  10.120  10.276 -0.9941 -0.2823 -1.8754
30292SOL     OW92882   9.983  10.846   2.340 -0.6224 -0.3871  0.3503
30292SOL    HW192883  10.031  10.910   2.392  0.9094 -0.0419 -1.3982
30292SOL    HW292884  10.030  10.841   2.257 -3.7727  0.1945 -1.6387
30293SOL     OW92885   4.107   0.535   8.684 -0.1860 -0.6241 -0.7433
30293SOL    HW192886   4.030   0.567   8.731 -0.3227 -0.7704 -0.8674
30293SOL    HW292887   4.181   0.558   8.740  0.0866  2.8789 -2.2583
30294SOL     OW92888   9.425  10.242   9.645  0.5050 -0.2498 -0.1032
30294SOL    HW192889   9.459  10.171   9.700 -0.3731  1.3150  2.7078
30294SOL    HW292890   9.503  10.288   9.614  1.0747 -0.2741  1.1986
30295SOL     OW92891   0.656   5.827   2.257  0.2519  0.2269  0.0605
30295SOL    HW192892   0.636   5.767   2.186 -0.2877  1.2496 -0.6880
30295SOL    HW292893   0.626   5.913   2.225  3.7335  1.5143 -0.1984
30296SOL     OW92894  10.620   9.958   1.273 -0.3771  0.0549 -0.2312
30296SOL    HW192895  10.586   9.974   1.185  1.9718  1.2989 -1.0042
30296SOL    HW292896  10.560  10.005   1.331 -0.0861  2.0800 -1.4986
30297SOL     OW92897   3.493  11.097   1.578 -0.7842 -0.1299 -0.1225
30297SOL    HW192898   3.421  11.153   1.549 -1.0734 -0.2234  0.4131
30297SOL    HW292899   3.535  11.069   1.497 -1.3825 -0.1177 -0.4429
30298SOL     OW92900   6.692  10.972  10.363  0.0859  0.0739  0.4088
30298SOL    HW192901   6.783  10.992  10.341  0.3267  0.1757  1.4394
30298SOL    HW292902   6.684  10.996  10.455 -0.0702 -2.9589  1.2858
30299SOL     OW92903   4.207   4.969   3.193  0.3344  0.8015 -0.4371
30299SOL    HW192904   4.209   5.026   3.116 -1.0605 -1.0658 -1.9336
30299SOL    HW292905   4.115   4.962   3.216  0.5463 -0.2618  0.1556
30300SOL     OW92906   4.353   8.911   5.503 -0.2545  0.6416 -0.5369
30300SOL    HW192907   4.432   8.948   5.465 -0.0167  1.3561  0.6261
30300SOL    HW292908   4.318   8.980   5.560 -0.0420 -0.6949  1.3207
30301SOL     OW92909   9.449   2.184   9.020 -0.2983 -0.4289 -0.5629
30301SOL    HW192910   9.494   2.135   9.088 -0.8045  0.6039  0.5516
30301SOL    HW292911   9.370   2.134   9.001 -1.4647  0.5185  1.4732
30302SOL     OW92912   3.510   0.903   8.485 -0.6512  0.0133  0.1085
30302SOL    HW192913   3.525   0.927   8.394 -1.2323  1.3901  0.3489
30302SOL    HW292914   3.436   0.842   8.483  0.2568 -1.1095 -0.4383
30303SOL     OW92915   1.005   7.030   2.818 -0.4642  0.2234 -0.5479
30303SOL    HW192916   0.955   7.080   2.754 -2.2740 -0.8609 -0.0474
30303SOL    HW292917   0.943   7.012   2.889  0.1939 -2.3515 -0.5067
30304SOL     OW92918   4.133   1.285   6.387 -0.1425  0.1469 -0.5213
30304SOL    HW192919   4.061   1.312   6.443 -1.8465 -1.7916 -1.6788
30304SOL    HW292920   4.109   1.198   6.356  2.5508 -0.4367 -1.2295
30305SOL     OW92921   3.119   1.338   5.984 -0.0339 -0.3712 -0.9009
30305SOL    HW192922   3.172   1.323   6.062  0.2738 -2.0626 -1.3808
30305SOL    HW292923   3.028   1.329   6.013  0.0182  0.5463 -0.4515
30306SOL     OW92924   6.629   2.856   8.939  0.1987 -0.2760 -0.1305
30306SOL    HW192925   6.704   2.859   8.999  0.4824  1.1623 -0.5183
30306SOL    HW292926   6.557   2.821   8.992  0.6231  0.2747  0.8415
30307SOL     OW92927   8.664   0.500   3.735 -0.0666 -0.5693 -0.0798
30307SOL    HW192928   8.621   0.430   3.686  0.9720  0.1811 -2.2466
30307SOL    HW292929   8.593   0.558   3.763 -0.6555 -0.3683 -1.8652
30308SOL     OW92930  10.901   7.160   4.075 -0.5708 -0.0695  0.1235
30308SOL    HW192931  10.891   7.076   4.031  0.7140  0.0377 -0.4088
30308SOL    HW292932  10.813   7.198   4.074 -1.0454 -1.1271 -0.1630
30309SOL     OW92933   3.742   8.703   2.229 -0.5464 -0.5199 -0.0853
30309SOL    HW192934   3.770   8.637   2.292 -1.1277  0.8599  1.7123
30309SOL    HW292935   3.806   8.774   2.238 -0.2438 -0.5661 -1.5783
30310SOL     OW92936   4.258   3.225   8.308  0.6295  0.1600  0.0128
30310SOL    HW192937   4.274   3.149   8.363 -0.9806 -1.1985 -1.3056
30310SOL    HW292938   4.345   3.262   8.291  1.5889 -2.1672 -0.4109
30311SOL     OW92939   2.109   4.298   6.490  0.0923  0.1836 -0.1636
30311SOL    HW192940   2.101   4.368   6.555 -2.1372 -0.8142  0.7558
30311SOL    HW292941   2.022   4.292   6.450 -0.1061 -2.6327  0.4451
30312SOL     OW92942   0.753   8.531   2.722 -0.0628  0.7755  0.1151
30312SOL    HW192943   0.800   8.492   2.649 -0.1341 -0.9499  0.9532
30312SOL    HW292944   0.663   8.541   2.691 -0.4187 -1.2395  0.3865
30313SOL     OW92945  10.993   6.419   7.756 -0.4503  0.3532  0.5026
30313SOL    HW192946  10.921   6.392   7.699 -2.0077  1.8797  1.6353
30313SOL    HW292947  11.010   6.510   7.731  0.8263  0.1573  0.5595
30314SOL     OW92948   7.524   3.232   0.091 -0.1670  0.0342  0.3801
30314SOL    HW192949   7.521   3.272   0.178  1.8651 -0.9397  0.9706
30314SOL    HW292950   7.589   3.283   0.043  0.2564 -0.6795  0.1629
30315SOL     OW92951  10.941   1.787   6.962  0.1998 -0.3905  0.0709
30315SOL    HW192952  10.994   1.846   6.908  1.3721  1.2526  2.7404
30315SOL    HW292953  10.851   1.814   6.945  0.3813 -1.0229 -2.1663
30316SOL     OW92954   3.543   1.723   7.797 -0.2478  0.0896 -0.0078
30316SOL    HW192955   3.483   1.790   7.831  0.1657  0.8706 -0.7968
30316SOL    HW292956   3.587   1.688   7.875 -0.5711  0.6313  0.4223
30317SOL     OW92957   9.475   7.596   3.320 -0.7637  0.2744 -0.3442
30317SOL    HW192958   9.433   7.673   3.281 -1.0665 -0.0455 -0.6701
30317SOL    HW292959   9.509   7.547   3.245 -1.1383 -0.2296 -0.1915
30318SOL     OW92960   5.577   9.675   3.427  0.8572 -0.4125 -0.9755
30318SOL    HW192961   5.625   9.703   3.505 -1.0910 -1.0384  0.5343
30318SOL    HW292962   5.485   9.692   3.448  0.2037 -1.3902 -2.8138
30319SOL     OW92963   4.445   6.213  10.856  0.8761 -0.8673 -0.9042
30319SOL    HW192964   4.449   6.191  10.950  3.3313 -2.4891 -1.2936
30319SOL    HW292965   4.392   6.143  10.818 -1.0772  0.3972 -0.6587
30320SOL     OW92966   2.413   5.231   4.793  0.8236  0.2788 -0.7158
30320SOL    HW192967   2.454   5.270   4.870 -0.2922  1.8889 -0.8871
30320SOL    HW292968   2.319   5.232   4.812  0.5715  0.0812 -1.8323
30321SOL     OW92969   5.090   7.051   7.352 -0.7883  0.4493  0.7836
30321SOL    HW192970   5.040   7.079   7.429 -1.1932  1.9024  0.0468
30321SOL    HW292971   5.140   7.129   7.327  0.3185 -0.3867  0.3162
30322SOL     OW92972   2.873   5.214   4.822 -0.8969  0.3939  0.2456
30322SOL    HW192973   2.900   5.200   4.732 -0.0334 -0.7310  0.6478
30322SOL    HW292974   2.899   5.305   4.841  0.0726  0.2370 -0.2633
30323SOL     OW92975   1.515   4.776   0.450 -0.0908  0.4837 -0.4784
30323SOL    HW192976   1.457   4.753   0.378 -2.5335  3.1390  0.4757
30323SOL    HW292977   1.600   4.789   0.408 -1.1700  0.8794 -2.7161
30324SOL     OW92978   9.119   2.759  11.036  0.1648  0.2085  0.7360
30324SOL    HW192979   9.094   2.758  11.128  2.2131  0.4426  1.3577
30324SOL    HW292980   9.181   2.831  11.028  2.0584 -1.4039 -0.2001
30325SOL     OW92981   9.660   1.544   6.555 -1.3716  0.1724 -0.6151
30325SOL    HW192982   9.652   1.639   6.543 -0.4871  0.3053 -0.1750
30325SOL    HW292983   9.589   1.522   6.615 -2.2296  0.3863 -1.5189
30326SOL     OW92984  10.180   3.386  10.475 -0.1473  0.8720 -0.3218
30326SOL    HW192985  10.142   3.363  10.559  0.6868  1.4236  0.2177
30326SOL    HW292986  10.129   3.460  10.444 -0.8819  0.2512 -0.6258
30327SOL     OW92987  10.844   5.035   7.855 -0.4639  0.1613 -0.4291
30327SOL    HW192988  10.904   4.960   7.847  1.2132  1.1771  1.6627
30327SOL    HW292989  10.844   5.074   7.767 -0.5093 -1.6240 -1.2686
30328SOL     OW92990   0.697   4.786   0.106  0.1406  0.2457  0.0869
30328SOL    HW192991   0.638   4.712   0.093 -0.5691  0.8088  0.0647
30328SOL    HW292992   0.780   4.745   0.133  0.3047 -0.6589 -1.6437
30329SOL     OW92993   0.607   0.495   0.493 -0.0448 -0.8780  0.7994
30329SOL    HW192994   0.550   0.492   0.570  1.0687 -1.2452  1.6337
30329SOL    HW292995   0.639   0.405   0.484 -1.7133 -1.3586 -1.3419
30330SOL     OW92996   5.953   2.475   0.933 -0.4063  0.2402 -0.2553
30330SOL    HW192997   5.924   2.565   0.918  2.3881  1.8353  2.4982
30330SOL    HW292998   6.029   2.464   0.876 -0.9868 -0.5612 -0.8934
30331SOL     OW92999   8.157   8.399   5.865  0.2244 -0.3207 -0.2097
30331SOL    HW193000   8.208   8.480   5.871 -0.7956  0.2755  0.8546
30331SOL    HW293001   8.196   8.342   5.931 -0.5885  0.2242  0.7773
30332SOL     OW93002   0.123   5.595   1.051 -0.2192  0.0975  0.5217
30332SOL    HW193003   0.115   5.690   1.049 -0.3275  0.0831 -1.7110
30332SOL    HW293004   0.034   5.563   1.059 -0.7196  0.2062 -3.0801
30333SOL     OW93005   2.085   9.005   1.211  0.3819 -0.2403 -0.2775
30333SOL    HW193006   2.115   9.094   1.192  2.2502 -1.1385 -1.9043
30333SOL    HW293007   2.093   8.996   1.306  1.2469  0.9668 -0.2205
30334SOL     OW93008   4.087   8.177   6.908 -0.7468 -0.8063  0.3101
30334SOL    HW193009   4.113   8.085   6.915  1.9937 -0.0159  1.9964
30334SOL    HW293010   4.053   8.185   6.819  1.2631 -2.9789 -0.7759
30335SOL     OW93011   2.987   7.493  10.541 -0.2271 -0.0236  0.1859
30335SOL    HW193012   2.990   7.400  10.520  0.6242 -0.2394  1.1823
30335SOL    HW293013   2.909   7.525  10.496  0.2431 -0.9071 -1.3379
30336SOL     OW93014   4.417   2.026   9.129  0.3608 -0.1228  0.2555
30336SOL    HW193015   4.492   2.085   9.126  0.3823  0.2601  3.7913
30336SOL    HW293016   4.448   1.949   9.177 -0.6692 -1.4203 -1.0655
30337SOL     OW93017   1.095   3.483   4.030  0.3423 -0.0675  0.2101
30337SOL    HW193018   1.150   3.562   4.028  0.0787  0.1140 -0.7709
30337SOL    HW293019   1.036   3.497   4.104  1.9561 -0.5252  1.6415
30338SOL     OW93020   5.607   3.241   9.446  0.0067 -0.3528 -0.2792
30338SOL    HW193021   5.658   3.272   9.371  1.9708 -0.6924  0.8489
30338SOL    HW293022   5.528   3.296   9.446  0.1569 -0.0806 -2.3219
30339SOL     OW93023   0.259   0.613   6.569 -0.0690  0.5097 -0.0459
30339SOL    HW193024   0.279   0.527   6.531 -1.1793  1.2120 -2.4409
30339SOL    HW293025   0.334   0.668   6.544  0.7634  0.2409  1.7007
30340SOL     OW93026   0.807   0.862   7.732 -0.1177  0.0668  0.0768
30340SOL    HW193027   0.809   0.849   7.827 -0.1733 -0.8780 -0.0503
30340SOL    HW293028   0.884   0.816   7.700 -0.8187 -0.7390 -0.4711
30341SOL     OW93029   8.258   2.198   2.578 -0.3172 -0.6460 -0.9882
30341SOL    HW193030   8.202   2.154   2.642  2.1282 -1.0883  0.9859
30341SOL    HW293031   8.341   2.211   2.623  0.3887  2.4058 -2.8780
30342SOL     OW93032   8.273   1.548   2.507  0.2091 -0.3964  0.5273
30342SOL    HW193033   8.352   1.526   2.459  0.2902  0.5325  0.2069
30342SOL    HW293034   8.205   1.554   2.440  0.1595  0.1400  0.6226
30343SOL     OW93035   9.554   9.793   8.101  0.7461  0.1757  0.4154
30343SOL    HW193036   9.490   9.742   8.150  0.0056  0.9085  0.2303
30343SOL    HW293037   9.584   9.860   8.163 -1.1018  1.8883 -0.4269
30344SOL     OW93038   3.818   0.021  10.885  0.5339  0.3968  0.6370
30344SOL    HW193039   3.865   0.080  10.825 -1.1023  0.8627 -0.2712
30344SOL    HW293040   3.877  -0.053  10.897  1.4574  0.9058 -0.5119
30345SOL     OW93041   0.475   3.978   7.144 -0.1964 -0.0412  0.2870
30345SOL    HW193042   0.395   3.934   7.173  0.0136 -0.4815  0.2039
30345SOL    HW293043   0.537   3.964   7.216  0.5100 -1.6317 -0.5741
30346SOL     OW93044   7.809   7.924   3.026  0.3477  0.0364 -0.0364
30346SOL    HW193045   7.766   7.861   3.083  0.8320  0.0400  0.3315
30346SOL    HW293046   7.897   7.890   3.014  0.2959  0.1095 -0.6657
30347SOL     OW93047  10.649   9.592   1.442  0.1633 -0.2388  0.4028
30347SOL    HW193048  10.599   9.510   1.436 -0.6906  0.2311  0.8559
30347SOL    HW293049  10.598   9.646   1.502 -1.4692  2.1675 -2.8321
30348SOL     OW93050   3.909   8.599   7.786 -0.1300  0.0018  0.9667
30348SOL    HW193051   3.978   8.620   7.849 -0.5859 -2.8008  2.5809
30348SOL    HW293052   3.827   8.617   7.834 -0.5826 -5.0016  2.6754
30349SOL     OW93053   0.619   8.867   0.984 -0.0305 -0.4458  0.4548
30349SOL    HW193054   0.526   8.890   0.993 -0.3048 -1.0876 -0.4697
30349SOL    HW293055   0.661   8.905   1.060 -0.7507  1.4456 -0.0389
30350SOL     OW93056   8.275   6.307   2.719  0.0122  0.0796 -0.1206
30350SOL    HW193057   8.246   6.276   2.805  0.9420 -0.3108  0.0617
30350SOL    HW293058   8.327   6.236   2.683 -1.7327 -0.4549 -1.7614
30351SOL     OW93059   7.508   0.544   3.914  0.0439 -0.4600  0.5948
30351SOL    HW193060   7.594   0.567   3.951  0.6959 -0.9158 -0.5923
30351SOL    HW293061   7.445   0.584   3.974  1.0786 -0.0999  1.4842
30352SOL     OW93062   8.299  10.948   5.582 -0.0250  0.1590 -0.3674
30352SOL    HW193063   8.280  11.019   5.521 -0.5409  0.2168 -0.1444
30352SOL    HW293064   8.390  10.960   5.605 -0.2446  1.0525  0.0636
30353SOL     OW93065  10.589   4.810   6.639  0.0167  0.0332 -0.1185
30353SOL    HW193066  10.596   4.875   6.709  0.3281 -0.8345  0.6757
30353SOL    HW293067  10.610   4.727   6.681 -2.4150 -0.9121 -0.6140
30354SOL     OW93068   7.883   6.605   4.719 -0.6340 -0.3988 -0.3318
30354SOL    HW193069   7.840   6.649   4.645  0.3382 -1.4958 -1.5974
30354SOL    HW293070   7.811   6.582   4.778 -1.5956 -0.6404 -1.5548
30355SOL     OW93071   8.694   1.411   0.939  0.1660  0.1301  0.1972
30355SOL    HW193072   8.705   1.498   0.977  4.2854 -0.3220  0.4896
30355SOL    HW293073   8.768   1.401   0.879 -0.3033 -3.0497 -0.0411
30356SOL     OW93074  10.303   0.291   6.647 -0.5581 -0.3792  0.7152
30356SOL    HW193075  10.237   0.341   6.598 -1.0620 -1.4722  0.2575
30356SOL    HW293076  10.254   0.244   6.714 -0.0478 -0.0638  1.3241
30357SOL     OW93077   4.227   7.083   1.875 -0.3331  0.2739 -0.3824
30357SOL    HW193078   4.301   7.118   1.825  0.6409 -2.2722 -0.8792
30357SOL    HW293079   4.184   7.022   1.815 -1.3553 -0.1182  0.7074
30358SOL     OW93080   7.136  10.440  10.964 -0.6909  0.1512 -0.3399
30358SOL    HW193081   7.221  10.435  11.008 -0.8606  0.1416 -0.0137
30358SOL    HW293082   7.148  10.505  10.895 -0.2680 -0.2278 -0.6305
30359SOL     OW93083   7.367   3.310   4.122  0.0979  0.1000  0.2607
30359SOL    HW193084   7.281   3.351   4.112 -0.3973  0.5268  4.5506
30359SOL    HW293085   7.412   3.364   4.188  1.6617 -2.8983  1.8578
30360SOL     OW93086   0.506   7.952   3.322  0.0686 -0.0402  0.4395
30360SOL    HW193087   0.500   7.860   3.346  1.8001 -0.0643  0.9234
30360SOL    HW293088   0.537   7.951   3.231 -1.2056  0.0818 -0.0163
30361SOL     OW93089   3.758   5.314   4.476  0.0078  0.4131  0.4573
30361SOL    HW193090   3.690   5.379   4.493  0.1239  0.4940  0.6130
30361SOL    HW293091   3.828   5.362   4.431  0.5803  0.6549  1.5603
30362SOL     OW93092   1.159   8.191   6.695 -0.0198 -0.1670  0.0663
30362SOL    HW193093   1.235   8.138   6.672 -0.9808 -1.5592  0.0158
30362SOL    HW293094   1.175   8.219   6.785  1.2612  0.8775 -0.4477
30363SOL     OW93095   8.570   0.833   7.645  0.4160  0.0442  0.0762
30363SOL    HW193096   8.545   0.746   7.614  0.5139 -0.4853  1.4039
30363SOL    HW293097   8.517   0.894   7.593 -0.0133 -0.8256 -0.5228
30364SOL     OW93098   5.542   9.117   4.606 -0.2361  0.6686 -0.0388
30364SOL    HW193099   5.596   9.142   4.681 -0.2348 -1.2904  0.6478
30364SOL    HW293100   5.452   9.137   4.634 -0.1862  0.4968  0.2470
30365SOL     OW93101   2.165   1.089  10.070  0.1194 -0.5010 -0.7955
30365SOL    HW193102   2.176   1.058  10.160  1.2307 -1.7840 -1.3391
30365SOL    HW293103   2.237   1.151  10.056  1.8018 -2.5154 -1.6711
30366SOL     OW93104  10.057   9.019   7.008 -0.4470  0.1889  0.1334
30366SOL    HW193105   9.986   9.080   6.988 -0.2602  0.1808 -0.5926
30366SOL    HW293106  10.128   9.045   6.949  0.6120  0.9816  1.6705
30367SOL     OW93107   8.042   0.916   4.588 -0.0101 -0.1139 -0.0437
30367SOL    HW193108   8.077   0.943   4.504 -1.2402  1.2176 -0.1640
30367SOL    HW293109   8.037   0.821   4.583 -0.2912 -0.0289 -1.5615
30368SOL     OW93110   1.263   9.508  10.466  0.5413 -0.1721 -0.2352
30368SOL    HW193111   1.297   9.487  10.554  0.1332 -1.0616 -0.2834
30368SOL    HW293112   1.252   9.423  10.424  1.1708  0.2706 -1.3314
30369SOL     OW93113   0.408   5.945   7.880  0.1929 -0.0992  0.9333
30369SOL    HW193114   0.347   5.874   7.900  0.2039 -0.0628  1.1012
30369SOL    HW293115   0.429   5.934   7.787  2.3513 -2.0274  1.5435
30370SOL     OW93116   0.783   0.872   5.726 -0.1245 -0.0808 -0.2374
30370SOL    HW193117   0.731   0.827   5.793 -2.4892  0.1622 -1.7729
30370SOL    HW293118   0.873   0.862   5.754 -1.0150  0.6690  3.4016
30371SOL     OW93119   8.180   3.100   5.275 -0.3075  0.0198 -0.3627
30371SOL    HW193120   8.126   3.054   5.210 -0.5492 -0.4618  0.1731
30371SOL    HW293121   8.245   3.147   5.222  0.3868 -1.4818 -0.9092
30372SOL     OW93122   3.121   4.224   8.460 -0.2662 -0.0694  0.0350
30372SOL    HW193123   3.030   4.207   8.485 -0.5802 -0.6120 -1.4270
30372SOL    HW293124   3.128   4.319   8.457 -0.5387 -0.0070  0.9757
30373SOL     OW93125   5.934   9.468   8.404  0.0035  0.5079  0.6261
30373SOL    HW193126   5.976   9.466   8.318  1.0116 -0.2817  1.1047
30373SOL    HW293127   5.956   9.383   8.443 -1.4756  0.3416  1.1926
30374SOL     OW93128  10.497   8.185   3.641 -0.8326  0.1656  0.4532
30374SOL    HW193129  10.535   8.209   3.725 -2.2584  1.5502  0.7570
30374SOL    HW293130  10.404   8.174   3.659 -1.0144 -0.4870 -0.7589
30375SOL     OW93131   2.014   8.676   4.552 -0.2658  0.0194  0.9969
30375SOL    HW193132   1.969   8.732   4.615  0.9287  0.6339  1.3324
30375SOL    HW293133   2.107   8.684   4.574  0.5091  2.1282 -2.2189
30376SOL     OW93134   2.011   5.469   1.628  0.4096 -0.2796  0.1112
30376SOL    HW193135   2.056   5.392   1.593  2.2450  1.1281 -0.8022
30376SOL    HW293136   1.932   5.477   1.574  0.9057 -0.7193 -0.7023
30377SOL     OW93137   8.607   0.581   8.760  0.8212  0.3777 -0.8429
30377SOL    HW193138   8.560   0.633   8.826  1.0552 -1.4305  0.8562
30377SOL    HW293139   8.668   0.643   8.720 -0.0319  1.7737 -0.0690
30378SOL     OW93140   0.897   1.481   3.982 -0.2932 -0.6486  0.0814
30378SOL    HW193141   0.853   1.563   3.959 -0.6843 -1.0033 -0.4713
30378SOL    HW293142   0.979   1.508   4.022 -0.2010  0.0105 -0.5275
30379SOL     OW93143   1.126   2.470  11.036 -0.0834 -0.0968 -0.1634
30379SOL    HW193144   1.111   2.512  10.951  1.4486  3.7788  1.2406
30379SOL    HW293145   1.048   2.491  11.088  1.1489  2.1795  0.8879
30380SOL     OW93146   8.333   3.374   9.185  0.5200  0.4546  1.0069
30380SOL    HW193147   8.400   3.381   9.117 -0.4158  0.8156  0.0978
30380SOL    HW293148   8.362   3.302   9.240  0.9959 -0.2455 -0.1293
30381SOL     OW93149   7.118   0.846   2.448 -0.0573  0.2031  0.1148
30381SOL    HW193150   7.097   0.849   2.542  0.8139  4.0865  0.3572
30381SOL    HW293151   7.034   0.834   2.405 -0.3506 -2.8871  1.3040
30382SOL     OW93152   8.610   9.758   3.952 -0.7294 -0.5682 -0.4381
30382SOL    HW193153   8.539   9.761   3.888  0.9731  0.2366 -2.4215
30382SOL    HW293154   8.605   9.842   3.997 -0.9852 -0.4885 -0.6122
30383SOL     OW93155   7.327   2.754   2.092 -0.2028 -0.3483 -0.3224
30383SOL    HW193156   7.423   2.759   2.094 -0.2210 -0.2886  1.1198
30383SOL    HW293157   7.303   2.716   2.176 -1.5494  1.3631  0.1052
30384SOL     OW93158   1.408   1.220   4.069 -0.8151  0.2472 -0.7190
30384SOL    HW193159   1.332   1.239   4.014 -1.8606 -1.4680  0.0681
30384SOL    HW293160   1.403   1.126   4.087  0.2618  0.4941  1.1673
30385SOL     OW93161   3.938  10.842   9.794  0.1791  0.1690 -0.1726
30385SOL    HW193162   3.939  10.925   9.746 -0.1305 -0.0253 -0.5174
30385SOL    HW293163   3.984  10.861   9.876 -0.5812  0.8893  0.0983
30386SOL     OW93164   9.904   5.089   2.050  0.7676  0.7701 -0.2039
30386SOL    HW193165   9.877   5.007   2.092  4.0689 -0.4689 -0.1703
30386SOL    HW293166   9.836   5.152   2.074 -1.8927 -1.8880 -0.1848
30387SOL     OW93167   9.952   9.025   9.930  0.0156  0.6428  0.4436
30387SOL    HW193168  10.035   9.047   9.972 -1.7088  1.8166  3.5957
30387SOL    HW293169   9.947   8.930   9.934  0.3633  0.6721  2.1302
30388SOL     OW93170   5.230   5.996   1.976  0.3573  0.6751 -0.5140
30388SOL    HW193171   5.280   5.917   1.956 -0.8929 -1.0437  2.4196
30388SOL    HW293172   5.141   5.976   1.948 -0.0012  0.9549  0.3904
30389SOL     OW93173   7.404   0.152   6.951  0.6459  0.7941 -0.0032
30389SOL    HW193174   7.463   0.078   6.936  1.4846  1.4610 -0.0730
30389SOL    HW293175   7.322   0.127   6.908  0.9744 -0.0228 -0.1570
30390SOL     OW93176  11.084   5.583  10.228  0.6552 -0.0776  0.7666
30390SOL    HW193177  11.111   5.657  10.284 -1.8824  1.8267 -0.3104
30390SOL    HW293178  11.086   5.507  10.286  1.4893  1.1871  2.4797
30391SOL     OW93179   6.847   6.950   2.535  0.2728 -0.4239  0.2350
30391SOL    HW193180   6.809   6.948   2.623 -0.5242  0.8433 -0.0566
30391SOL    HW293181   6.821   6.867   2.496 -0.2758 -0.5386  0.8349
30392SOL     OW93182   6.485   9.724   5.952 -0.3364 -0.0872  0.5136
30392SOL    HW193183   6.525   9.725   5.865 -1.0642  0.5863  0.1736
30392SOL    HW293184   6.546   9.773   6.007 -1.0799  1.6998 -0.1943
30393SOL     OW93185   5.555   7.529   3.864  0.3644 -0.0103  0.2899
30393SOL    HW193186   5.513   7.615   3.862  0.8975  0.2923  1.6124
30393SOL    HW293187   5.649   7.548   3.863  0.5184 -0.6537 -1.3481
30394SOL     OW93188   2.361   9.571   5.623  0.2101 -0.2139 -0.6082
30394SOL    HW193189   2.312   9.492   5.646  0.0540  0.0792  0.1091
30394SOL    HW293190   2.376   9.615   5.707  0.6174  0.3301 -0.9592
30395SOL     OW93191  10.712   2.753   3.606 -0.3960 -0.0727 -0.3578
30395SOL    HW193192  10.647   2.749   3.677  1.1686  1.4726  1.2893
30395SOL    HW293193  10.695   2.837   3.563 -1.4516 -1.0868 -1.9914
30396SOL     OW93194   5.790   1.191   1.541 -0.4229 -0.2045  0.0307
30396SOL    HW193195   5.709   1.193   1.491  0.3300 -2.5410 -1.4640
30396SOL    HW293196   5.843   1.262   1.506 -0.2900 -1.1969 -1.8742
30397SOL     OW93197   1.874   5.920   0.459 -0.3297 -0.2887  0.7719
30397SOL    HW193198   1.835   5.850   0.407 -0.4985  1.5042 -1.6911
30397SOL    HW293199   1.966   5.895   0.468 -0.1732 -0.4163 -0.9022
30398SOL     OW93200   8.378  10.215   7.691  0.0539 -0.2256  0.7439
30398SOL    HW193201   8.466  10.189   7.719  0.0388 -1.6095 -0.3850
30398SOL    HW293202   8.382  10.214   7.596 -0.4516  2.4050  0.6132
30399SOL     OW93203   0.827   5.595   9.162 -0.5637  0.1485 -0.3026
30399SOL    HW193204   0.801   5.684   9.187 -1.4981 -0.1920 -0.0156
30399SOL    HW293205   0.923   5.599   9.158 -0.6079  1.2603 -0.6677
30400SOL     OW93206   3.580   1.802   2.896 -0.4012 -0.4977 -0.3800
30400SOL    HW193207   3.566   1.856   2.974  0.0326  0.9386 -1.2614
30400SOL    HW293208   3.669   1.768   2.907 -1.4197 -3.0096  1.2753
30401SOL     OW93209   7.721   1.080   1.982  1.0347 -0.0365 -1.0880
30401SOL    HW193210   7.679   1.160   1.953  0.6433  0.2459  0.2077
30401SOL    HW293211   7.683   1.062   2.068  2.4233 -0.6159 -0.5645
30402SOL     OW93212   0.704   9.138   8.870 -0.4335 -0.1249  0.2193
30402SOL    HW193213   0.798   9.141   8.888 -0.4013 -1.8524  0.4489
30402SOL    HW293214   0.697   9.141   8.775 -0.2274  1.0938  0.2222
30403SOL     OW93215  10.578   3.337   2.346 -0.4120  0.1022  0.3228
30403SOL    HW193216  10.486   3.352   2.323  0.0425  1.3109 -0.8911
30403SOL    HW293217  10.597   3.250   2.314 -0.2265  1.1622 -2.7320
30404SOL     OW93218   0.740   5.069   0.199  0.1355 -0.0335 -0.4363
30404SOL    HW193219   0.720   4.988   0.151 -0.3025  0.1557 -0.5725
30404SOL    HW293220   0.793   5.040   0.273  0.1204 -0.4256 -0.5755
30405SOL     OW93221   6.324   1.569   2.550  0.2249 -0.3841 -0.1955
30405SOL    HW193222   6.396   1.511   2.573  0.3769  0.3163  1.1750
30405SOL    HW293223   6.366   1.652   2.528 -0.0139 -0.6575 -1.8130
30406SOL     OW93224   7.863   6.852   0.749  0.5386  0.2836 -0.4133
30406SOL    HW193225   7.813   6.881   0.825 -1.7677 -0.5841 -1.4979
30406SOL    HW293226   7.879   6.759   0.765  0.1215  0.1181 -0.9170
30407SOL     OW93227   5.124   4.172  10.177 -0.6195  0.4166 -0.2981
30407SOL    HW193228   5.218   4.167  10.163 -0.5786  0.4656 -0.0598
30407SOL    HW293229   5.111   4.257  10.221 -0.6114 -0.1727  0.8890
30408SOL     OW93230   9.966  10.545   2.850 -0.6728  0.4502 -0.0126
30408SOL    HW193231  10.062  10.540   2.846 -0.4874  3.0170 -0.2948
30408SOL    HW293232   9.940  10.573   2.762 -1.6047  0.6603  0.3178
30409SOL     OW93233   6.870   1.168   6.265 -0.6211  0.2176  0.4912
30409SOL    HW193234   6.902   1.252   6.298 -0.2054  0.6614 -0.9481
30409SOL    HW293235   6.775   1.180   6.257 -0.3259  1.5308 -2.1395
30410SOL     OW93236   6.958   1.607   5.631  0.1639  0.1885  0.7893
30410SOL    HW193237   6.972   1.553   5.553 -1.2382  0.3304  0.4211
30410SOL    HW293238   7.007   1.688   5.612  1.4390 -0.5176  0.9163
30411SOL     OW93239   7.211   4.034   8.400  0.4946 -0.0376 -0.8392
30411SOL    HW193240   7.206   3.968   8.469  1.0547  0.6144 -0.1545
30411SOL    HW293241   7.124   4.033   8.359  0.3162 -0.7843 -0.4615
30412SOL     OW93242   6.431   8.153   8.679  0.4211 -0.5428 -0.7063
30412SOL    HW193243   6.482   8.230   8.706 -2.0063  0.8894  0.1829
30412SOL    HW293244   6.374   8.186   8.610 -1.2155 -1.3154  0.2345
30413SOL     OW93245   1.662   2.411   0.295  0.0842 -0.0162  0.3105
30413SOL    HW193246   1.588   2.472   0.294  0.8018  0.8826  0.8811
30413SOL    HW293247   1.621   2.325   0.302 -0.9012  0.5034  1.2438
30414SOL     OW93248   6.346   7.920   6.354 -0.4136 -0.2685  1.0507
30414SOL    HW193249   6.421   7.866   6.379 -0.9957 -1.8237 -0.3956
30414SOL    HW293250   6.270   7.864   6.372 -0.9648 -0.5800 -1.8465
30415SOL     OW93251   9.766   4.649   8.386 -0.5280 -0.3976 -0.3511
30415SOL    HW193252   9.826   4.694   8.327 -0.3739 -0.0485  0.0665
30415SOL    HW293253   9.680   4.657   8.343 -0.3458 -0.5540 -0.7520
30416SOL     OW93254   5.138  10.271   2.825 -0.5362  0.1500 -0.5586
30416SOL    HW193255   5.172  10.330   2.893 -2.0592  0.9128 -0.4115
30416SOL    HW293256   5.158  10.315   2.743  0.8327 -0.5178 -0.6116
30417SOL     OW93257   8.421   9.525   1.502  0.2377  0.6149 -0.3967
30417SOL    HW193258   8.333   9.502   1.531  0.2798  1.1687  0.2015
30417SOL    HW293259   8.478   9.462   1.547  0.0915 -0.4134 -1.5815
30418SOL     OW93260   4.457   4.392   1.478 -0.0651 -0.0732 -0.4885
30418SOL    HW193261   4.447   4.382   1.573 -1.2921 -0.0483 -0.5955
30418SOL    HW293262   4.453   4.486   1.463 -1.1191 -0.1382 -0.6729
30419SOL     OW93263   8.893   6.666   2.936  0.1479  0.6284  0.5889
30419SOL    HW193264   8.803   6.635   2.940  0.6776 -0.9611  1.2691
30419SOL    HW293265   8.920   6.651   2.846 -0.2228  0.9550  0.4258
30420SOL     OW93266   1.280   4.077   3.498  0.2000 -0.4961  0.1465
30420SOL    HW193267   1.371   4.103   3.513  0.7176 -1.2862 -1.4264
30420SOL    HW293268   1.233   4.111   3.575  1.7261  0.3148  0.7785
30421SOL     OW93269   9.459  10.355   7.904 -0.3440 -0.4923  0.8114
30421SOL    HW193270   9.401  10.403   7.963 -1.1757  1.0733 -1.1647
30421SOL    HW293271   9.539  10.407   7.900 -0.6579 -0.0641 -0.1460
30422SOL     OW93272   2.373   1.241   0.512 -0.0366  1.0263 -0.3792
30422SOL    HW193273   2.423   1.317   0.484  0.5910  0.7266 -0.1088
30422SOL    HW293274   2.321   1.215   0.435  1.3352  0.4631 -1.1480
30423SOL     OW93275   3.895   5.174   2.988  0.4871  0.0394  0.4542
30423SOL    HW193276   3.886   5.243   2.922 -0.2759  1.1833  1.7084
30423SOL    HW293277   3.806   5.154   3.014  0.7987  0.0606  1.5826
30424SOL     OW93278  10.870   7.314   1.335  0.1122 -0.0916 -0.1948
30424SOL    HW193279  10.871   7.311   1.431  1.1417  2.1765 -0.0772
30424SOL    HW293280  10.962   7.309   1.309 -0.2307 -2.9077 -1.2704
30425SOL     OW93281   9.712   2.864   0.182  0.6663  0.0426  0.5913
30425SOL    HW193282   9.715   2.770   0.199 -1.2663  0.1604  1.8778
30425SOL    HW293283   9.804   2.891   0.177  1.2682 -1.9915 -0.4376
30426SOL     OW93284   2.108   9.157   2.498 -0.0789 -0.2162  0.0341
30426SOL    HW193285   2.139   9.225   2.438 -1.9387 -1.1730 -2.1772
30426SOL    HW293286   2.013   9.169   2.500 -0.5690 -3.1004 -1.0260
30427SOL     OW93287   2.438   8.647   8.597  0.0720 -0.1045  0.1295
30427SOL    HW193288   2.402   8.656   8.685  1.7627 -2.8702  1.2570
30427SOL    HW293289   2.460   8.736   8.571 -1.3701  0.9059  2.0771
30428SOL     OW93290   8.242   3.439   8.360 -0.3451 -0.3003  0.5536
30428SOL    HW193291   8.330   3.475   8.369 -0.9152  0.6697  3.0002
30428SOL    HW293292   8.250   3.375   8.289  1.7009  1.5529 -1.0392
30429SOL     OW93293   4.649   1.855   0.189 -0.0550  0.3148  0.8049
30429SOL    HW193294   4.586   1.882   0.122 -0.4106  0.8754  1.3578
30429SOL    HW293295   4.732   1.845   0.141 -0.8097 -1.7815 -0.2031
30430SOL     OW93296   9.666   8.222   5.150  0.1074  0.4008 -0.9563
30430SOL    HW193297   9.673   8.307   5.193  0.9468  0.1107 -0.4947
30430SOL    HW293298   9.602   8.236   5.081  0.0141  1.3333 -0.7011
30431SOL     OW93299   2.219   1.697   0.172  0.2321  0.2090  0.9238
30431SOL    HW193300   2.221   1.642   0.094 -1.6375 -1.4952  1.9794
30431SOL    HW293301   2.127   1.720   0.183  0.4883  0.6084  2.5011
30432SOL     OW93302   7.289   1.394  10.584 -0.1066 -1.1255  0.4038
30432SOL    HW193303   7.276   1.327  10.517 -1.5242 -1.0779  0.6193
30432SOL    HW293304   7.207   1.398  10.632  1.0922 -1.6735  2.6494
30433SOL     OW93305   9.711   5.106   0.753  0.3165 -0.1154 -0.7579
30433SOL    HW193306   9.710   5.197   0.783  1.9322  0.7286 -2.9816
30433SOL    HW293307   9.762   5.059   0.819  1.9763  1.2265 -1.0331
30434SOL     OW93308   5.506   9.890   5.446 -0.2882  0.3972 -0.4785
30434SOL    HW193309   5.557   9.832   5.502 -1.1041 -1.2381 -1.3786
30434SOL    HW293310   5.533   9.978   5.472 -1.4806 -0.1784  3.3286
30435SOL     OW93311  10.421   3.374   0.674 -0.1449  0.3833  0.7124
30435SOL    HW193312  10.463   3.325   0.745 -0.0770 -1.4005 -0.4937
30435SOL    HW293313  10.358   3.430   0.718  0.2016 -0.3555  2.2173
30436SOL     OW93314   7.350   4.335   1.971 -0.0736 -0.8080  0.0304
30436SOL    HW193315   7.288   4.341   2.044  0.2992  0.3277  0.2698
30436SOL    HW293316   7.295   4.318   1.895 -0.8393  1.3265  0.0517
30437SOL     OW93317   1.439   6.684   5.930  0.1254 -0.7865  0.5762
30437SOL    HW193318   1.523   6.646   5.902 -0.0076  0.7036 -2.1998
30437SOL    HW293319   1.373   6.629   5.889 -0.0844  1.2028 -1.9865
30438SOL     OW93320   5.117   1.217   3.839  0.3250  0.4636 -0.0133
30438SOL    HW193321   5.141   1.208   3.747 -1.2894  0.9872 -0.5051
30438SOL    HW293322   5.106   1.127   3.870  1.7710  0.2451 -0.0504
30439SOL     OW93323   6.997   3.035   0.904  0.1911 -0.3661 -0.1947
30439SOL    HW193324   6.965   3.109   0.851  0.6617 -0.7156 -0.9872
30439SOL    HW293325   6.986   2.959   0.847 -1.4130 -1.1149  1.0487
30440SOL     OW93326   6.381   2.387   1.391  0.2923  0.0569  0.4546
30440SOL    HW193327   6.421   2.356   1.472 -0.1538  1.8949  1.4459
30440SOL    HW293328   6.419   2.474   1.378 -1.1837  0.6409 -0.1654
30441SOL     OW93329   3.104   1.294   0.983 -0.7218  0.1435 -1.1862
30441SOL    HW193330   3.049   1.255   0.915  0.6264 -3.9657 -0.2022
30441SOL    HW293331   3.056   1.281   1.064  0.2535 -0.5438 -0.6972
30442SOL     OW93332   3.329   4.812   1.275 -0.2018 -0.5794 -0.0386
30442SOL    HW193333   3.375   4.828   1.192 -0.5299  1.8913  0.1734
30442SOL    HW293334   3.380   4.860   1.340 -1.4583 -0.2011  0.6993
30443SOL     OW93335   6.478   4.767   9.441  0.3280  0.1802 -0.3672
30443SOL    HW193336   6.466   4.861   9.457 -0.1124 -0.5097  4.9401
30443SOL    HW293337   6.539   4.738   9.508  1.0212 -3.3214 -2.2516
30444SOL     OW93338   6.054   2.768   8.831  0.0738  0.2939  0.2932
30444SOL    HW193339   6.003   2.691   8.804 -0.1237  0.5184  0.0307
30444SOL    HW293340   5.990   2.826   8.872  0.4837 -0.3602  1.9587
30445SOL     OW93341   0.439  11.062   3.052 -0.0847 -0.8597 -0.0718
30445SOL    HW193342   0.489  11.140   3.029  0.4906 -0.5340  2.1259
30445SOL    HW293343   0.506  10.997   3.075 -0.5890 -1.7715 -1.0513
30446SOL     OW93344   9.015   6.425   5.840  0.1816  0.4283 -0.1030
30446SOL    HW193345   8.937   6.448   5.790  0.5880  0.9143 -0.5274
30446SOL    HW293346   9.017   6.329   5.840  0.8896  0.4121 -2.1682
30447SOL     OW93347  10.601   3.638  10.270  0.1655 -0.5792 -0.4391
30447SOL    HW193348  10.528   3.696  10.292  0.6719 -0.4707  1.0345
30447SOL    HW293349  10.675   3.673  10.320  0.7989 -1.7234 -0.5503
30448SOL     OW93350   1.679   3.078   1.627  1.2240 -0.2583  0.8398
30448SOL    HW193351   1.681   3.040   1.715 -0.3007  1.6878  1.7892
30448SOL    HW293352   1.674   3.173   1.642 -0.1463  0.0730 -1.3172
30449SOL     OW93353  10.625  10.604   7.360 -0.3243 -0.4596  0.3680
30449SOL    HW193354  10.717  10.616   7.382 -0.2125 -1.4001  0.4317
30449SOL    HW293355  10.608  10.670   7.293  0.0350  0.6182  1.2963
30450SOL     OW93356   1.469  10.641   3.102  0.0378  0.5992 -0.7639
30450SOL    HW193357   1.389  10.691   3.119 -1.5582 -2.1612  0.7828
30450SOL    HW293358   1.521  10.651   3.182 -1.3104 -1.7390  0.5396
30451SOL     OW93359   7.592   1.965   5.342  0.0335 -0.3485  0.2641
30451SOL    HW193360   7.643   2.005   5.413  1.4352  1.8066 -1.8113
30451SOL    HW293361   7.617   1.872   5.344  2.2982  0.2027  0.8062
30452SOL     OW93362   4.096   8.862   0.766  0.0204 -0.0580  0.6693
30452SOL    HW193363   4.136   8.793   0.713 -0.1886  1.1994 -1.1912
30452SOL    HW293364   4.167   8.923   0.784 -0.2356  0.2556  0.6218
30453SOL     OW93365  10.737   7.809   1.303  0.4845  0.2883 -0.8087
30453SOL    HW193366  10.674   7.764   1.360  0.9070 -2.4335 -2.3002
30453SOL    HW293367  10.709   7.900   1.303 -0.3060  0.1839  2.6460
30454SOL     OW93368   3.887   7.595   6.725 -0.3254  0.1228  0.8176
30454SOL    HW193369   3.842   7.573   6.807 -0.8556 -0.8939  0.2702
30454SOL    HW293370   3.956   7.657   6.751 -2.1187  1.8895  1.6786
30455SOL     OW93371   1.039   3.312   1.674  0.2321 -0.3457 -0.0002
30455SOL    HW193372   1.083   3.376   1.730 -0.8363 -0.8251  1.4380
30455SOL    HW293373   1.016   3.361   1.595 -2.4507  1.7275  1.9034
30456SOL     OW93374   7.381   1.887   1.693  0.5570 -0.1217 -0.2608
30456SOL    HW193375   7.293   1.877   1.730  1.6447  1.0413  3.0339
30456SOL    HW293376   7.404   1.978   1.711  1.9889  0.0047 -2.3223
30457SOL     OW93377   7.144   8.720   7.527  0.2611 -0.0721 -0.0051
30457SOL    HW193378   7.222   8.739   7.476 -0.1018  0.4361 -0.3810
30457SOL    HW293379   7.158   8.766   7.610 -0.0167  0.7481 -0.4012
30458SOL     OW93380   9.306   3.999   8.262 -0.1808  0.1289 -0.3413
30458SOL    HW193381   9.337   3.942   8.193 -2.2651  2.0076 -3.0243
30458SOL    HW293382   9.316   3.947   8.342  0.8893 -2.7297 -2.1727
30459SOL     OW93383   7.621   1.519   7.549  0.1050  0.0950  0.2840
30459SOL    HW193384   7.715   1.519   7.569  0.7393  1.5429 -2.2621
30459SOL    HW293385   7.588   1.599   7.590  0.1619  0.0528  0.4133
30460SOL     OW93386   4.109  10.407   7.562 -0.0835  0.2921  0.0468
30460SOL    HW193387   4.136  10.318   7.540 -3.2172 -1.0015  0.8820
30460SOL    HW293388   4.045  10.431   7.495  0.7522  2.0129 -0.2085
30461SOL     OW93389   8.712   6.507   8.553 -0.5167 -0.4079  0.3449
30461SOL    HW193390   8.772   6.440   8.586  0.2021 -1.2851 -2.4477
30461SOL    HW293391   8.729   6.510   8.459 -2.3567  1.9161 -0.0130
30462SOL     OW93392  11.007  10.976   5.115  0.0395  0.1266 -0.1524
30462SOL    HW193393  11.100  10.989   5.129  0.1831 -1.0579  0.0487
30462SOL    HW293394  10.983  11.043   5.050  1.1319  0.0877 -0.6195
30463SOL     OW93395   4.713   2.675   1.349  0.0085  0.2882 -0.0473
30463SOL    HW193396   4.662   2.688   1.269 -0.8352  1.5690  0.6605
30463SOL    HW293397   4.735   2.582   1.349 -0.6262  0.1229 -1.3883
30464SOL     OW93398   0.007   4.415   6.756 -0.0144 -0.4515  0.3821
30464SOL    HW193399   0.061   4.430   6.834 -0.7357  1.2222  0.5906
30464SOL    HW293400   0.019   4.322   6.737 -0.9430 -1.2933  3.3565
30465SOL     OW93401   2.088   2.694  11.044 -0.0960  0.8492  0.1416
30465SOL    HW193402   2.043   2.689  11.128 -0.8641 -2.0497 -0.3585
30465SOL    HW293403   2.120   2.606  11.027 -0.3505  1.1949 -2.8262
30466SOL     OW93404   7.521   1.820   6.618 -0.6357 -0.1204 -0.4967
30466SOL    HW193405   7.529   1.857   6.706 -0.2343 -0.3340 -0.4416
30466SOL    HW293406   7.431   1.841   6.592 -1.6473 -2.2735  0.9632
30467SOL     OW93407   7.154   6.265   5.117 -0.3554 -0.3638  0.3823
30467SOL    HW193408   7.068   6.276   5.158 -0.5526 -2.0619  0.4900
30467SOL    HW293409   7.207   6.222   5.184  1.0018  1.7509  0.7619
30468SOL     OW93410   4.427   3.056   1.206 -0.0823 -0.0011 -0.3425
30468SOL    HW193411   4.467   3.057   1.119 -0.5977  1.3469 -0.5923
30468SOL    HW293412   4.335   3.039   1.189  0.3189 -3.4821  0.2570
30469SOL     OW93413   2.739   2.791   2.237  0.4256  0.1115 -0.0913
30469SOL    HW193414   2.731   2.853   2.164  2.4920 -1.3074 -1.6145
30469SOL    HW293415   2.710   2.841   2.313 -2.5242  1.4654 -1.8839
30470SOL     OW93416   7.953   3.478   6.895 -0.9258 -0.2291  0.0080
30470SOL    HW193417   8.032   3.516   6.858  0.4246 -1.3118  1.6378
30470SOL    HW293418   7.954   3.387   6.866 -2.5125  0.1221 -1.3346
30471SOL     OW93419   3.867   0.226   2.417  0.2425 -0.4248  0.1497
30471SOL    HW193420   3.855   0.300   2.476 -0.2318 -1.1968  1.0555
30471SOL    HW293421   3.859   0.263   2.330  0.6182  0.6866  0.5771
30472SOL     OW93422   2.195  11.039   4.764 -0.1453  0.2764  1.2898
30472SOL    HW193423   2.200  11.109   4.698  1.8592 -0.3954  0.6402
30472SOL    HW293424   2.269  10.982   4.743 -0.6285 -1.0339  2.9547
30473SOL     OW93425   7.341   6.389   9.287  0.2268  0.3012  0.1914
30473SOL    HW193426   7.329   6.320   9.221  0.2892  1.8873 -1.5546
30473SOL    HW293427   7.382   6.344   9.362  1.2754 -1.3534 -1.2937
30474SOL     OW93428   8.077   2.671   2.650 -0.0206 -0.4701 -0.0840
30474SOL    HW193429   8.131   2.660   2.572  1.0781  0.7020  0.4579
30474SOL    HW293430   8.120   2.617   2.717 -1.7327 -2.5528 -0.5965
30475SOL     OW93431   5.645   3.291   8.805 -0.1283 -0.1073 -0.0192
30475SOL    HW193432   5.686   3.206   8.819  1.1950  0.6254  0.6808
30475SOL    HW293433   5.603   3.284   8.719 -0.9927 -1.8214  0.5105
30476SOL     OW93434   3.205   6.046   9.771 -0.0521  0.5497  0.2258
30476SOL    HW193435   3.227   5.953   9.770  1.4193  0.8611 -1.8882
30476SOL    HW293436   3.192   6.066   9.864  1.5354 -1.3364  0.9360
30477SOL     OW93437   9.415   0.092   3.785  0.5922  0.0802  0.4391
30477SOL    HW193438   9.419   0.046   3.702  3.0818  0.0417  0.5002
30477SOL    HW293439   9.330   0.069   3.822  0.7173 -2.4646 -0.6647
30478SOL     OW93440   5.122   3.390   7.861  0.0391 -0.6166 -0.2157
30478SOL    HW193441   5.135   3.373   7.954  0.8185 -0.5728 -0.3070
30478SOL    HW293442   5.111   3.485   7.855 -2.2824 -0.8163  0.0673
30479SOL     OW93443   5.663   7.774   4.011 -0.5404  0.2602 -0.3396
30479SOL    HW193444   5.698   7.786   4.099 -1.1992 -0.0581 -0.0248
30479SOL    HW293445   5.728   7.718   3.967 -0.4185  0.0603  0.0827
30480SOL     OW93446   5.920   4.383   6.318 -0.5239  0.0489  0.2559
30480SOL    HW193447   5.857   4.346   6.380 -1.2642  3.8808  2.1044
30480SOL    HW293448   5.970   4.447   6.369  2.1488  0.0577 -2.1040
30481SOL     OW93449   8.934   6.360   0.417  0.1339 -0.2337  0.3192
30481SOL    HW193450   8.999   6.308   0.371  1.9669  0.8661  1.5416
30481SOL    HW293451   8.967   6.450   0.413 -0.8723  0.2433  1.6580
30482SOL     OW93452  10.132   2.103   1.625 -0.2210  0.3688 -0.5205
30482SOL    HW193453  10.201   2.075   1.686 -0.3530 -2.3942 -1.4962
30482SOL    HW293454  10.178   2.151   1.557  0.3625  0.8100  0.1753
30483SOL     OW93455   0.835   3.004   0.689  0.6096 -1.5339 -0.1097
30483SOL    HW193456   0.842   2.922   0.640 -1.7617  0.7555 -4.8744
30483SOL    HW293457   0.881   3.069   0.635 -0.8067  0.9837  1.5187
30484SOL     OW93458  10.481   9.602   4.476 -0.5972  0.0045 -0.1622
30484SOL    HW193459  10.428   9.668   4.431 -0.1186  1.5904  1.4664
30484SOL    HW293460  10.528   9.556   4.405 -0.9747  1.3835 -1.3531
30485SOL     OW93461   6.601   5.046   2.925  0.3098 -1.0734  0.0303
30485SOL    HW193462   6.548   4.995   2.986 -2.3557 -0.0682 -1.2716
30485SOL    HW293463   6.601   5.135   2.961  0.2037 -0.8381 -0.5354
30486SOL     OW93464   7.678   0.040   2.315 -0.0583 -0.4236  0.3604
30486SOL    HW193465   7.600   0.060   2.367 -0.1480 -0.1919  0.1360
30486SOL    HW293466   7.679   0.106   2.246  0.6555 -0.0651  0.7075
30487SOL     OW93467   4.495   6.810   3.998 -0.4419 -0.3913 -0.0296
30487SOL    HW193468   4.430   6.872   3.965  0.2308 -0.4383 -1.5583
30487SOL    HW293469   4.446   6.753   4.058 -1.1815  1.2477  0.9709
30488SOL     OW93470   6.221   3.579   7.432  0.0909  0.2118 -0.0828
30488SOL    HW193471   6.164   3.526   7.488 -3.6214  1.8439 -1.9129
30488SOL    HW293472   6.289   3.611   7.490 -1.3452 -1.2159  2.5878
30489SOL     OW93473   1.943   1.428   3.493  0.4992 -0.4850 -0.8590
30489SOL    HW193474   1.914   1.517   3.514 -1.8165 -1.7141  1.7360
30489SOL    HW293475   1.863   1.384   3.465  0.4163 -2.9773  2.6885
30490SOL     OW93476   6.431   0.697   1.916 -0.1694  0.4804 -0.2328
30490SOL    HW193477   6.466   0.753   1.846  0.0046  0.3746 -0.2310
30490SOL    HW293478   6.382   0.757   1.972  0.0245  0.6318 -0.2254
30491SOL     OW93479   0.672  10.111   6.910 -0.1130 -0.6301 -0.1580
30491SOL    HW193480   0.687  10.054   6.835  1.0859  1.3732 -1.5627
30491SOL    HW293481   0.632  10.190   6.872 -0.6562 -0.0578  1.5131
30492SOL     OW93482   1.651   3.370   9.326 -0.2807 -0.0437  0.4977
30492SOL    HW193483   1.724   3.308   9.338  0.8194  0.4886 -2.6132
30492SOL    HW293484   1.582   3.318   9.286 -0.7096  0.0109  1.1490
30493SOL     OW93485   3.698   5.710   4.221  0.5170 -0.0062 -0.5055
30493SOL    HW193486   3.660   5.729   4.307 -0.8493  0.0312 -1.0932
30493SOL    HW293487   3.687   5.791   4.172  1.1361 -0.0832 -0.7834
30494SOL     OW93488   2.228   9.161   7.416  0.4338 -0.2085 -0.1427
30494SOL    HW193489   2.298   9.112   7.373  0.4424  1.2774 -1.9243
30494SOL    HW293490   2.253   9.161   7.509  3.5820  1.4351 -0.8598
30495SOL     OW93491   9.320   8.120   5.407  0.2173 -0.2358 -0.0367
30495SOL    HW193492   9.236   8.153   5.438  0.5493 -0.8389  1.6205
30495SOL    HW293493   9.385   8.171   5.454  0.7367 -1.7720  0.9985
30496SOL     OW93494  10.791   5.084   1.514 -0.1793  0.0520 -0.0115
30496SOL    HW193495  10.790   5.177   1.536  0.1775 -0.2167  1.2425
30496SOL    HW293496  10.727   5.075   1.444  1.1440  1.5302 -1.4773
30497SOL     OW93497   5.998  10.789   4.428  0.4866  0.4577 -0.3105
30497SOL    HW193498   6.054  10.723   4.469  0.4446  0.7623  0.2437
30497SOL    HW293499   5.967  10.843   4.501 -1.1840 -0.1879 -0.4899
30498SOL     OW93500   3.810   3.161   8.174 -0.5024 -0.3463 -0.4514
30498SOL    HW193501   3.714   3.164   8.171 -0.8041 -1.0275  3.2385
30498SOL    HW293502   3.832   3.070   8.159 -0.6641 -0.6108  0.7888
30499SOL     OW93503   2.226   3.417   5.791 -0.3909 -0.3176 -0.1279
30499SOL    HW193504   2.156   3.358   5.763 -1.2561  0.9637 -0.7253
30499SOL    HW293505   2.280   3.363   5.850 -1.7998 -1.3657  0.2534
30500SOL     OW93506   6.261   5.067   8.171 -0.6016 -0.5324 -0.2415
30500SOL    HW193507   6.322   5.100   8.105 -1.5140  1.7219 -0.0486
30500SOL    HW293508   6.207   5.004   8.123 -1.4089  1.2309 -1.7816
30501SOL     OW93509   3.674  10.901   4.077  0.3167 -0.0750  0.0162
30501SOL    HW193510   3.732  10.937   4.145 -0.3127 -0.8242  0.9770
30501SOL    HW293511   3.672  10.807   4.095 -1.2963 -0.0560  0.0928
30502SOL     OW93512   4.488   1.071   9.920  0.6127 -0.3458 -0.0084
30502SOL    HW193513   4.475   1.088  10.013 -0.0914  1.3107 -0.3773
30502SOL    HW293514   4.525   0.983   9.916 -0.9263 -1.1053  1.7194
30503SOL     OW93515   3.020   2.146   5.811 -0.0846 -0.5625 -0.1510
30503SOL    HW193516   2.977   2.183   5.888  1.0441  1.4228 -0.4038
30503SOL    HW293517   2.975   2.186   5.737 -0.4739 -1.6592 -0.5267
30504SOL     OW93518   0.470   5.945   4.395 -0.6704 -0.0987  0.1650
30504SOL    HW193519   0.525   6.023   4.395 -2.2482  1.0767  0.6282
30504SOL    HW293520   0.457   5.924   4.488  1.5760 -2.3583  0.0896
30505SOL     OW93521   1.862   1.433   9.202 -0.1830 -0.4976  0.5872
30505SOL    HW193522   1.948   1.472   9.190 -1.2143  1.4124 -1.4882
30505SOL    HW293523   1.870   1.346   9.164  0.9239 -0.4865  0.7648
30506SOL     OW93524   3.119   5.505   2.437 -0.8495 -0.5312 -0.0066
30506SOL    HW193525   3.027   5.493   2.462 -1.0359  1.0565  0.1827
30506SOL    HW293526   3.121   5.491   2.343 -1.5257  0.6407 -0.2030
30507SOL     OW93527   9.974   5.235   5.384  0.5311  0.0464 -0.5150
30507SOL    HW193528   9.887   5.265   5.412  1.2371  0.3440  1.5622
30507SOL    HW293529  10.035   5.295   5.428  1.9031 -2.4518  1.2243
30508SOL     OW93530   3.603  10.117   2.778 -0.5544 -0.4483 -0.3959
30508SOL    HW193531   3.643  10.153   2.699  1.8237 -0.2196  0.8286
30508SOL    HW293532   3.524  10.073   2.747  0.0696  0.0139 -2.8223
30509SOL     OW93533   6.883   6.557   2.989 -0.7824 -1.1161  0.7412
30509SOL    HW193534   6.917   6.617   2.923 -0.3407 -0.2092  1.7651
30509SOL    HW293535   6.800   6.527   2.952 -1.4445  0.7858  0.5490
30510SOL     OW93536   1.549   3.970   1.012  0.4876 -0.1079  0.3116
30510SOL    HW193537   1.576   4.061   1.023  1.0757 -0.0247 -1.4647
30510SOL    HW293538   1.550   3.933   1.101  1.1356  1.3626  0.9401
30511SOL     OW93539   7.169  10.442   4.037 -0.0251 -0.5181  0.1017
30511SOL    HW193540   7.238  10.504   4.012 -0.8590  0.3684 -0.0289
30511SOL    HW293541   7.121  10.486   4.107  0.4607 -1.7610  1.2603
30512SOL     OW93542   9.716  10.120   8.868 -0.0439  0.3910 -0.6463
30512SOL    HW193543   9.763  10.197   8.899  0.4506  0.7899 -2.3239
30512SOL    HW293544   9.759  10.096   8.787 -0.3308 -1.5449 -0.2777
30513SOL     OW93545   3.998   3.097   2.677 -0.0620 -0.3551 -0.4979
30513SOL    HW193546   4.022   3.149   2.600 -1.5359 -2.2095 -2.3304
30513SOL    HW293547   3.970   3.013   2.641  0.5729 -1.8340  2.2186
30514SOL     OW93548   0.983   7.714   9.726 -0.3868  0.7544  0.0937
30514SOL    HW193549   0.889   7.731   9.731 -0.8916 -1.2559 -1.4655
30514SOL    HW293550   1.022   7.800   9.711 -1.9268  1.6593  1.0485
30515SOL     OW93551   2.012   0.213   3.137 -0.0959  0.2419 -0.7680
30515SOL    HW193552   2.071   0.208   3.212 -1.0749  0.1360  0.0101
30515SOL    HW293553   1.927   0.235   3.174 -0.5026  0.6662 -1.9025
30516SOL     OW93554   2.987  10.508   4.249 -0.1165 -0.6609  0.9691
30516SOL    HW193555   2.966  10.532   4.339 -0.9844 -0.8258  0.8225
30516SOL    HW293556   2.903  10.514   4.202 -0.0873 -2.4791  0.5998
30517SOL     OW93557   2.866   4.789   8.145 -0.3897  0.9826 -0.3976
30517SOL    HW193558   2.818   4.762   8.066  1.8897  2.0129 -2.2645
30517SOL    HW293559   2.854   4.884   8.148 -2.3384  0.7369  1.9021
30518SOL     OW93560   0.675   1.592   9.112  0.0292  0.4512  0.0168
30518SOL    HW193561   0.581   1.588   9.131  0.0094 -0.2155 -0.1687
30518SOL    HW293562   0.703   1.677   9.145 -0.3534  0.0828  1.3605
30519SOL     OW93563   4.925   6.960   8.896  0.0147 -0.7532 -0.2107
30519SOL    HW193564   4.874   6.962   8.815 -0.4423  0.7511  0.0701
30519SOL    HW293565   4.861   6.978   8.965  0.7268  0.1303  0.2531
30520SOL     OW93566   3.744   9.755   2.315  0.2979 -0.2849  0.2553
30520SOL    HW193567   3.760   9.719   2.402 -2.9198 -1.2014  0.5964
30520SOL    HW293568   3.809   9.713   2.259  0.7401 -1.7218  1.7720
30521SOL     OW93569   9.207   1.826   4.654 -0.1112  0.2550  0.2275
30521SOL    HW193570   9.179   1.742   4.688  0.6199  0.3553  1.1288
30521SOL    HW293571   9.153   1.840   4.576 -0.5036 -0.8589  0.2821
30522SOL     OW93572   7.947   6.197   8.457 -0.8230 -0.0898  0.1671
30522SOL    HW193573   7.918   6.243   8.379 -1.5776  1.7722  1.4894
30522SOL    HW293574   8.038   6.224   8.469 -0.9023  0.1166  0.2953
30523SOL     OW93575   2.636   5.143   2.976 -0.6544  0.0215 -0.5453
30523SOL    HW193576   2.560   5.132   3.035 -1.5340 -0.5809 -1.7540
30523SOL    HW293577   2.707   5.098   3.022 -1.5657 -1.3249 -0.3680
30524SOL     OW93578   8.227   6.575   1.511  0.3360 -0.1323 -0.0021
30524SOL    HW193579   8.162   6.605   1.447  0.6404 -2.5474 -1.5604
30524SOL    HW293580   8.218   6.636   1.584 -2.3582  0.7483 -0.9435
30525SOL     OW93581  10.672   5.882   0.766 -0.2116  0.0852 -0.3154
30525SOL    HW193582  10.669   5.801   0.817 -0.6756 -1.3681 -2.5229
30525SOL    HW293583  10.766   5.900   0.755 -0.0832  0.8700  1.6064
30526SOL     OW93584   7.900   1.539   1.847  0.4093 -0.4445 -0.1970
30526SOL    HW193585   7.942   1.623   1.866  0.3780 -0.2676 -0.8985
30526SOL    HW293586   7.859   1.514   1.930 -0.4185  0.7080 -0.2472
30527SOL     OW93587   3.157   6.315  10.753  0.4927  0.0803 -0.5570
30527SOL    HW193588   3.099   6.374  10.801  0.7642  0.1672 -0.3359
30527SOL    HW293589   3.101   6.242  10.727  0.3764 -0.0323  0.0099
30528SOL     OW93590  10.410   3.011   0.352  0.3211 -0.1105  0.5076
30528SOL    HW193591  10.459   2.933   0.329  0.2408 -0.2677  0.8513
30528SOL    HW293592  10.425   3.022   0.446  1.0611  0.8084  0.2918
30529SOL     OW93593   9.436   6.888   2.616  0.0022 -0.0986  0.0749
30529SOL    HW193594   9.469   6.799   2.629 -0.5323 -0.3641 -0.3762
30529SOL    HW293595   9.353   6.877   2.569  0.6008  0.6858 -1.2425
30530SOL     OW93596   5.885   1.650   2.312 -0.1619 -0.5315  0.0250
30530SOL    HW193597   5.958   1.605   2.354 -0.7690 -1.5868  0.0087
30530SOL    HW293598   5.903   1.643   2.219  0.3103  0.2616  0.0563
30531SOL     OW93599   1.067  10.581   3.604 -0.1000  0.4580 -0.3779
30531SOL    HW193600   1.058  10.660   3.658  1.7667 -1.3667  2.9484
30531SOL    HW293601   1.159  10.557   3.613 -0.5130 -1.8610 -1.6956
30532SOL     OW93602   5.677   4.561   6.954 -0.3182 -0.1353  0.0210
30532SOL    HW193603   5.616   4.613   7.007 -2.8486 -1.0302 -1.8397
30532SOL    HW293604   5.705   4.491   7.013  0.6360  1.4835  1.5651
30533SOL     OW93605   6.091   3.307  11.074  0.1858 -0.1578 -0.2351
30533SOL    HW193606   6.042   3.244  11.022  0.6316  0.0753 -0.9540
30533SOL    HW293607   6.162   3.335  11.017  0.9420 -0.2071  0.6479
30534SOL     OW93608   4.432   2.252   6.357 -0.5443 -0.2257 -0.5113
30534SOL    HW193609   4.491   2.246   6.281 -0.8718  0.9688 -0.8691
30534SOL    HW293610   4.369   2.320   6.334  0.3024  1.3179  1.4725
30535SOL     OW93611   3.878   2.975   8.632 -0.7856 -0.3393  0.1292
30535SOL    HW193612   3.873   3.065   8.600  0.8844 -1.2692 -3.2967
30535SOL    HW293613   3.939   2.979   8.706 -2.8314  1.6186  1.8376
30536SOL     OW93614   2.977   7.313   3.884  0.1652 -0.0416  0.1492
30536SOL    HW193615   3.032   7.382   3.849 -1.3872  1.0748 -0.1938
30536SOL    HW293616   2.888   7.338   3.858 -0.6160 -1.2371  1.5540
30537SOL     OW93617   8.853   8.640   8.546 -0.4184  0.3791  0.0740
30537SOL    HW193618   8.791   8.695   8.497  0.2344  1.5575  0.5140
30537SOL    HW293619   8.869   8.689   8.627  1.4456  0.3572 -0.2339
30538SOL     OW93620   1.151   9.093   8.657  0.2075  0.5672  0.8031
30538SOL    HW193621   1.080   9.156   8.641  0.2685  0.1533 -1.4170
30538SOL    HW293622   1.124   9.014   8.612  1.6687  0.1098  0.6730
30539SOL     OW93623   8.367  10.712   2.347  0.6897  0.1311 -0.3169
30539SOL    HW193624   8.354  10.761   2.266 -0.8683 -1.8948 -1.3739
30539SOL    HW293625   8.279  10.697   2.381  1.3090  0.8897  1.7621
30540SOL     OW93626   6.248  10.989   4.820 -0.5433  0.3537 -0.0378
30540SOL    HW193627   6.169  11.018   4.773 -0.8078 -1.3807 -0.7328
30540SOL    HW293628   6.306  10.956   4.751 -0.5871 -1.4366  0.7285
30541SOL     OW93629   9.807  10.642   3.717  0.2478 -0.5260 -0.1808
30541SOL    HW193630   9.803  10.736   3.731 -2.5036 -0.4214 -1.1998
30541SOL    HW293631   9.790  10.604   3.803 -0.4852 -0.0639 -0.1165
30542SOL     OW93632   1.508   2.708   5.099 -0.0360 -0.2518  0.8602
30542SOL    HW193633   1.541   2.669   5.018 -1.6652  1.0808 -0.5243
30542SOL    HW293634   1.456   2.638   5.139  1.4867 -1.1998  1.2452
30543SOL     OW93635  10.737   2.945   9.509  0.0995 -0.0186  0.0294
30543SOL    HW193636  10.791   2.975   9.582 -0.0692  0.6710 -0.1204
30543SOL    HW293637  10.758   2.853   9.500  2.9762  0.6744 -1.4562
30544SOL     OW93638   9.014   2.777   6.476 -0.6345 -0.2735  0.0474
30544SOL    HW193639   8.978   2.691   6.497 -0.5795  0.0166  1.4399
30544SOL    HW293640   9.059   2.764   6.393  0.2387 -1.8453  0.7158
30545SOL     OW93641   3.383   0.218   6.154 -0.2634  0.1494  0.4834
30545SOL    HW193642   3.422   0.235   6.240  3.0198 -0.5058 -0.7188
30545SOL    HW293643   3.344   0.131   6.162 -0.6465  0.3973  1.4823
30546SOL     OW93644   5.707   6.668   3.116  0.2449  0.1573 -0.3149
30546SOL    HW193645   5.783   6.713   3.153  0.8183 -0.9113 -0.1609
30546SOL    HW293646   5.726   6.662   3.022  0.5420 -0.4576 -0.2191
30547SOL     OW93647   3.415   8.287   0.223 -0.1848 -0.3175 -0.0368
30547SOL    HW193648   3.367   8.245   0.151 -1.4256  1.0237 -0.0221
30547SOL    HW293649   3.395   8.380   0.216  2.1391  0.2870  0.2184
30548SOL     OW93650   4.865   8.284   3.459  0.0585  0.0619  0.2442
30548SOL    HW193651   4.811   8.345   3.510 -1.2197  0.9149 -2.0106
30548SOL    HW293652   4.859   8.316   3.369  1.3782 -2.0044 -0.6449
30549SOL     OW93653   9.923   7.917   5.270 -0.2005  0.4280 -0.2260
30549SOL    HW193654  10.014   7.926   5.299 -0.2103  2.1760 -0.6016
30549SOL    HW293655   9.874   7.980   5.323 -0.8680  0.8454 -1.3045
30550SOL     OW93656   2.504   1.892   1.617 -0.2432 -0.3503  0.1103
30550SOL    HW193657   2.522   1.956   1.548 -0.6297 -1.9066 -1.5154
30550SOL    HW293658   2.586   1.886   1.665 -0.4950  2.0907  1.0166
30551SOL     OW93659   3.336   0.840   4.697  0.6290 -0.2633 -0.5984
30551SOL    HW193660   3.342   0.930   4.729  0.2131 -0.4971  0.1466
30551SOL    HW293661   3.341   0.786   4.775  0.7179 -0.8922 -1.0270
30552SOL     OW93662  10.771   2.057   2.816  1.1457 -0.2048 -0.0193
30552SOL    HW193663  10.704   2.001   2.853  0.3502  0.8817  0.2193
30552SOL    HW293664  10.808   2.006   2.744  0.3698 -0.9841  0.1251
30553SOL     OW93665   6.634   9.218   6.720 -0.0908  0.5532  0.8974
30553SOL    HW193666   6.709   9.179   6.765  0.0065  0.9028  1.0376
30553SOL    HW293667   6.650   9.312   6.723  0.5164  0.5475 -0.8853
30554SOL     OW93668   4.175   1.822   2.083 -0.1110  0.0519  0.1243
30554SOL    HW193669   4.097   1.846   2.132 -0.4981 -1.0390  0.0718
30554SOL    HW293670   4.161   1.731   2.060  0.6471  0.1885 -0.9187
30555SOL     OW93671   3.736   9.076   5.416  0.7664 -0.3142 -0.4414
30555SOL    HW193672   3.820   9.113   5.389  1.2667 -0.7947  0.3892
30555SOL    HW293673   3.760   9.004   5.475 -0.1345 -2.2641 -2.2994
30556SOL     OW93674  10.175   1.830  11.020  0.4823 -0.0318 -0.3506
30556SOL    HW193675  10.250   1.781  11.053  0.1593  0.2328  0.8320
30556SOL    HW293676  10.210   1.881  10.947  0.4664 -3.3481 -2.9633
30557SOL     OW93677   5.459   8.055   5.504  0.4075  0.3262 -0.0882
30557SOL    HW193678   5.447   8.030   5.412  1.6354 -0.6329 -0.0134
30557SOL    HW293679   5.450   7.973   5.553  3.2932  0.1275  0.2794
30558SOL     OW93680   9.722   9.242   2.747  0.2385 -1.2528  0.2518
30558SOL    HW193681   9.773   9.227   2.826  0.4328  0.7276  0.5368
30558SOL    HW293682   9.683   9.328   2.758 -1.2316 -1.6947 -1.0237
30559SOL     OW93683   3.186   7.086   4.713  0.0451 -0.3663 -0.0829
30559SOL    HW193684   3.141   7.021   4.659 -1.3135  0.0663  0.4938
30559SOL    HW293685   3.166   7.170   4.672 -0.9836 -0.0347  1.0521
30560SOL     OW93686   9.680   4.128   9.501 -0.0956 -0.3655 -0.1932
30560SOL    HW193687   9.764   4.084   9.510 -0.8716 -1.4608  2.5212
30560SOL    HW293688   9.702   4.220   9.483  1.7103 -0.4579  1.3045
30561SOL     OW93689   2.286   7.545   5.762 -0.1587  0.6674  0.6204
30561SOL    HW193690   2.335   7.467   5.737  0.4813  1.5904 -1.1993
30561SOL    HW293691   2.200   7.533   5.721 -1.0773 -0.3601  2.7406
30562SOL     OW93692   0.268   0.479   9.563  0.2343  0.7879 -0.0440
30562SOL    HW193693   0.269   0.526   9.480  1.6579  0.4988 -0.2189
30562SOL    HW293694   0.359   0.452   9.577 -0.2987 -0.7726  0.7042
30563SOL     OW93695   9.506   6.043  10.544  0.2826  0.0394 -0.0720
30563SOL    HW193696   9.575   6.091  10.590  0.7793 -1.4843  0.8546
30563SOL    HW293697   9.439   6.109  10.526  1.3325  1.2523  0.3353
30564SOL     OW93698  10.946   3.240   7.903 -0.0423  0.3877  0.1413
30564SOL    HW193699  10.904   3.261   7.820 -4.4775  0.0702  2.0239
30564SOL    HW293700  11.040   3.249   7.886 -0.7427  0.9637 -4.6302
30565SOL     OW93701   7.419   8.753   5.277 -0.0384  0.2708 -0.0065
30565SOL    HW193702   7.471   8.808   5.218 -0.2472 -0.0127 -0.4660
30565SOL    HW293703   7.334   8.798   5.282 -0.2508 -0.0594 -0.4813
30566SOL     OW93704   7.356   3.573   4.881 -1.6098 -0.4051 -0.0654
30566SOL    HW193705   7.427   3.630   4.850 -3.0777  2.3590  1.2614
30566SOL    HW293706   7.376   3.557   4.973 -2.0812 -0.6667 -0.0033
30567SOL     OW93707   4.148   5.836   3.853 -0.7671 -0.0825 -0.4152
30567SOL    HW193708   4.165   5.823   3.760 -3.1566 -1.6238 -0.7271
30567SOL    HW293709   4.208   5.776   3.897 -0.6096 -0.3911 -1.0325
30568SOL     OW93710   8.739   4.194  10.566 -0.2630 -0.8213  0.0771
30568SOL    HW193711   8.798   4.245  10.620 -1.5647  0.0637  0.7169
30568SOL    HW293712   8.792   4.121  10.534  0.4359 -1.6861  2.9492
30569SOL     OW93713   7.346  10.827   6.877 -0.2562  0.6737  0.5648
30569SOL    HW193714   7.369  10.881   6.952  0.1269  0.6825  0.4449
30569SOL    HW293715   7.429  10.791   6.847 -0.7027 -1.6006  1.8382
30570SOL     OW93716   5.035   5.476  10.150 -0.6867 -0.4117  0.2715
30570SOL    HW193717   5.024   5.520  10.234  2.4267 -1.4818  1.3466
30570SOL    HW293718   5.047   5.547  10.087  2.2961  0.4402  1.6599
30571SOL     OW93719  10.233   6.823   3.756  0.5320  0.1858 -0.1494
30571SOL    HW193720  10.255   6.905   3.800  2.2065  0.2800 -1.0872
30571SOL    HW293721  10.311   6.769   3.765  0.9932  0.2253 -2.9639
30572SOL     OW93722   9.559   8.025   4.112 -1.4171 -0.0542  0.4790
30572SOL    HW193723   9.587   8.113   4.086 -1.4162 -0.1139  0.2742
30572SOL    HW293724   9.551   7.978   4.030  0.0220 -0.6712  0.6681
30573SOL     OW93725   7.192   9.633   6.283  0.0579  0.0087  0.9969
30573SOL    HW193726   7.227   9.562   6.336  2.0012 -0.1790 -0.4218
30573SOL    HW293727   7.103   9.607   6.262 -0.2880 -0.5451  2.9909
30574SOL     OW93728   7.516   9.520   1.907  0.1877 -0.3761  0.0065
30574SOL    HW193729   7.500   9.612   1.886 -3.0441 -0.7603  0.2035
30574SOL    HW293730   7.475   9.508   1.993  0.1445 -2.0661 -0.2147
30575SOL     OW93731   7.071   3.915   4.314  0.0189  0.0263  0.3438
30575SOL    HW193732   7.143   3.937   4.255 -0.9945  3.4223  0.1552
30575SOL    HW293733   7.025   3.997   4.327 -3.8527 -1.9611  0.5132
30576SOL     OW93734   0.703   8.896   8.258 -0.3271  0.6002 -0.5582
30576SOL    HW193735   0.674   8.987   8.267  0.5744  0.8684 -0.2689
30576SOL    HW293736   0.629   8.852   8.216 -2.4025  0.6105  2.6555
30577SOL     OW93737   2.146   5.705   2.109 -0.2869  0.7647  0.4327
30577SOL    HW193738   2.088   5.699   2.033  1.2801 -1.8186 -0.7156
30577SOL    HW293739   2.104   5.651   2.176 -1.1655  2.2360  1.1301
30578SOL     OW93740   8.947   5.541   8.407  0.3891 -0.2590  0.1235
30578SOL    HW193741   8.958   5.450   8.434  0.8100 -0.2486 -0.0092
30578SOL    HW293742   8.951   5.591   8.489  2.8227 -0.1166 -0.0252
30579SOL     OW93743   2.254   5.911   3.719  0.0080 -0.1968  0.4817
30579SOL    HW193744   2.173   5.872   3.754  1.5568 -0.9095  3.7085
30579SOL    HW293745   2.311   5.836   3.700  0.2412  0.3198 -0.9604
30580SOL     OW93746   9.958   7.209   4.082 -0.1503 -0.1320  0.6913
30580SOL    HW193747   9.887   7.235   4.023  1.8923  2.7098 -0.8018
30580SOL    HW293748   9.922   7.221   4.170 -2.0971 -0.7630  0.0355
30581SOL     OW93749   2.357   0.082   9.378  0.2586 -0.3341  0.3578
30581SOL    HW193750   2.434   0.029   9.359  0.7641  1.0490 -1.7199
30581SOL    HW293751   2.391   0.163   9.415 -0.0937  0.6404 -1.3764
30582SOL     OW93752   2.420   9.671  10.852  0.0780  0.4602  0.2910
30582SOL    HW193753   2.380   9.607  10.794  0.3562 -0.3218  0.9496
30582SOL    HW293754   2.512   9.645  10.858 -0.0715  0.1665  1.5495
30583SOL     OW93755   3.000   0.599   7.421  0.0627  0.2984 -0.1102
30583SOL    HW193756   3.004   0.558   7.507  0.9549  1.5902  0.4842
30583SOL    HW293757   3.081   0.573   7.377  2.1469  3.6865  1.3827
30584SOL     OW93758   3.575   4.083   9.474  0.2068  0.3299 -0.2868
30584SOL    HW193759   3.638   4.154   9.488 -0.8556  1.0900  0.8507
30584SOL    HW293760   3.610   4.010   9.525  1.4316 -0.0808 -1.6561
30585SOL     OW93761   5.511   4.328   9.804  0.2403  0.0458 -0.6321
30585SOL    HW193762   5.547   4.329   9.892  0.6157 -1.2487 -0.7409
30585SOL    HW293763   5.461   4.246   9.800 -1.1688  0.8862 -1.0956
30586SOL     OW93764  10.462   5.251  10.213 -0.1015  0.5186 -0.7458
30586SOL    HW193765  10.371   5.277  10.194  0.0900  0.9872 -1.0268
30586SOL    HW293766  10.513   5.289  10.142  0.3382  0.3829 -0.5054
30587SOL     OW93767   6.855   4.490   9.922 -0.0174 -0.4485  0.1319
30587SOL    HW193768   6.776   4.530   9.959  0.7570 -0.8280  2.3458
30587SOL    HW293769   6.923   4.557   9.933 -0.0948  0.1350 -2.3615
30588SOL     OW93770   6.248   9.639   3.444 -0.8841  0.0772  0.2318
30588SOL    HW193771   6.174   9.701   3.439  2.4669  4.6539  0.6961
30588SOL    HW293772   6.254   9.602   3.357 -1.6285  2.4590 -0.9345
30589SOL     OW93773   9.913  11.063   8.316 -0.1393  0.5738  0.4597
30589SOL    HW193774   9.900  11.152   8.347 -0.0945 -0.2153  2.9290
30589SOL    HW293775   9.840  11.013   8.353  0.8925 -0.7782  0.7700
30590SOL     OW93776  10.753   0.151   4.459 -0.4305  0.0196 -0.4396
30590SOL    HW193777  10.831   0.175   4.509 -0.8000  0.8338 -0.2317
30590SOL    HW293778  10.758   0.056   4.451  0.8874  0.1046 -0.9299
30591SOL     OW93779   4.461   2.766   8.981  0.1354  0.1679  0.1006
30591SOL    HW193780   4.472   2.687   9.034  0.2095 -0.1622 -0.4076
30591SOL    HW293781   4.548   2.784   8.947  0.0313  0.2224 -0.1378
30592SOL     OW93782  10.447   3.703   9.117 -0.4634 -0.0219  0.4324
30592SOL    HW193783  10.517   3.660   9.165 -1.5158  0.6479  2.7133
30592SOL    HW293784  10.385   3.633   9.095  0.1150 -0.3620 -0.1229
30593SOL     OW93785   9.987   8.938   5.546  0.2458 -0.6980  0.6000
30593SOL    HW193786   9.994   9.014   5.488  1.3486 -1.5010 -0.3853
30593SOL    HW293787   9.980   8.974   5.634  0.9822  0.5542  0.1694
30594SOL     OW93788   9.978   5.714   1.102 -0.1614 -0.2355 -0.6819
30594SOL    HW193789   9.896   5.762   1.106 -0.0073 -0.0490  1.5754
30594SOL    HW293790  10.031   5.761   1.037 -0.8897  1.2170 -0.2633
30595SOL     OW93791   2.326   0.901   9.914 -0.1853  0.3292  0.3311
30595SOL    HW193792   2.269   0.868   9.846 -1.9063  0.4791  1.6369
30595SOL    HW293793   2.296   0.857   9.994  1.3849  0.5826  1.1004
30596SOL     OW93794   8.373   2.393   3.081  0.2960  0.0742  0.1280
30596SOL    HW193795   8.447   2.340   3.112  1.8540  1.5844 -0.7652
30596SOL    HW293796   8.408   2.441   3.006 -1.4142  1.3614  0.0923
30597SOL     OW93797   6.448   7.158   0.239  0.0573  0.2193  0.6574
30597SOL    HW193798   6.450   7.110   0.156  0.0502  0.1491  0.6977
30597SOL    HW293799   6.452   7.090   0.306  1.3830  0.3398  0.7240
30598SOL     OW93800   6.169   0.216   2.581  0.6999 -0.4041  0.0043
30598SOL    HW193801   6.182   0.286   2.516  2.0622 -1.8827 -1.4096
30598SOL    HW293802   6.080   0.229   2.613  0.1932  0.7500 -1.7290
30599SOL     OW93803   4.771   0.400   9.311 -0.3090  0.1480 -0.3959
30599SOL    HW193804   4.774   0.361   9.398  2.5065  1.4484  0.1971
30599SOL    HW293805   4.834   0.350   9.260  0.3613  1.3160 -0.7530
30600SOL     OW93806   8.983   5.622   2.242  0.0396  0.2222  0.2421
30600SOL    HW193807   9.041   5.547   2.228  0.5176  0.5232  0.5500
30600SOL    HW293808   9.043   5.694   2.263 -0.4451  0.5613  0.4757
30601SOL     OW93809   8.280   6.347   4.581 -0.2166 -0.4148 -0.3752
30601SOL    HW193810   8.363   6.364   4.537 -0.1782  1.0832  0.2405
30601SOL    HW293811   8.216   6.339   4.509  0.1186  0.4229 -0.7718
30602SOL     OW93812  11.012   6.772   8.332 -0.1924 -0.4285  0.0223
30602SOL    HW193813  11.066   6.735   8.262  2.4966  2.0369  0.5848
30602SOL    HW293814  10.951   6.702   8.355 -0.0217 -1.9525 -3.5265
30603SOL     OW93815   7.284   2.827   0.902 -0.5065  0.1567 -0.3717
30603SOL    HW193816   7.292   2.789   0.814  0.4273 -4.4566  1.4341
30603SOL    HW293817   7.197   2.801   0.931  0.8645 -2.5995  1.6402
30604SOL     OW93818   7.030   8.116   7.511 -0.4799  0.4077  0.1370
30604SOL    HW193819   6.944   8.104   7.551  0.1930 -1.4137  1.1953
30604SOL    HW293820   7.020   8.192   7.454 -2.7314  0.3443  0.3489
30605SOL     OW93821   9.766   2.074  11.089 -0.8794 -0.2724 -0.2775
30605SOL    HW193822   9.697   2.104  11.147  0.1005  0.5483  0.4953
30605SOL    HW293823   9.724   2.066  11.003 -2.4871 -2.0087  0.6050
30606SOL     OW93824   7.257   7.551   3.848  0.0480 -0.5589 -0.3315
30606SOL    HW193825   7.297   7.579   3.766  1.5452  0.3148  0.6326
30606SOL    HW293826   7.216   7.630   3.883  0.6908 -0.5599  0.4430
30607SOL     OW93827  10.426   8.523   6.316  0.6338 -0.1919 -0.0171
30607SOL    HW193828  10.462   8.435   6.311  1.5726  0.2403 -1.9647
30607SOL    HW293829  10.405   8.545   6.225  1.1872  1.8703  0.3006
30608SOL     OW93830   0.777   8.099   1.639  0.4503  0.4746 -0.3961
30608SOL    HW193831   0.815   8.175   1.595 -2.6344  1.0805 -2.3313
30608SOL    HW293832   0.845   8.070   1.700  1.6369  5.0544  0.8743
30609SOL     OW93833   4.186   3.649   4.289  0.0943  0.4680 -0.8247
30609SOL    HW193834   4.156   3.558   4.289  1.3414  0.0117 -2.7479
30609SOL    HW293835   4.226   3.661   4.375  2.4978 -1.7551 -1.5105
30610SOL     OW93836   5.634   2.941   6.930  0.4097  0.2743 -0.2086
30610SOL    HW193837   5.726   2.947   6.959  0.1306  3.0445  0.2900
30610SOL    HW293838   5.624   2.848   6.907  2.7900 -0.5370  1.4980
30611SOL     OW93839   5.961   9.668   3.184 -0.2172  0.5474 -0.0260
30611SOL    HW193840   5.930   9.597   3.128  1.6045 -0.4683  0.1656
30611SOL    HW293841   5.946   9.636   3.273  0.5398  0.4124  0.0595
30612SOL     OW93842  10.437   2.044   8.808  0.8491  0.1012 -0.0800
30612SOL    HW193843  10.365   1.982   8.816 -0.6594  1.7919  0.1639
30612SOL    HW293844  10.476   2.024   8.723 -0.0405 -0.7194 -0.3153
30613SOL     OW93845   3.375   1.168   7.878 -0.3498  0.1922  0.4828
30613SOL    HW193846   3.309   1.156   7.810  0.0830  0.0119  0.0922
30613SOL    HW293847   3.458   1.166   7.832  0.0809 -2.0045  1.2370
30614SOL     OW93848   7.011   6.523  10.074  0.2558 -0.3714 -0.6848
30614SOL    HW193849   7.037   6.535  10.165  0.1387 -2.8127 -0.2717
30614SOL    HW293850   7.088   6.552  10.024  0.5080  0.5156  0.1709
30615SOL     OW93851   0.512   3.575   4.785 -0.0263 -0.5164 -0.4896
30615SOL    HW193852   0.594   3.566   4.738  0.3245 -0.2579  0.0603
30615SOL    HW293853   0.537   3.601   4.873 -0.6681 -1.0380 -0.1385
30616SOL     OW93854   3.228  10.367   2.216  0.3814 -0.1936 -0.8280
30616SOL    HW193855   3.281  10.287   2.218  2.5898  1.1974 -0.3079
30616SOL    HW293856   3.280  10.429   2.166 -1.1258  1.0446 -0.9255
30617SOL     OW93857   6.010   5.262   2.762  0.6709 -0.6768  0.5898
30617SOL    HW193858   5.955   5.215   2.700  1.6575 -0.1757 -0.7011
30617SOL    HW293859   5.949   5.292   2.830 -0.1652 -2.8040  0.8875
30618SOL     OW93860   4.581   3.189   3.523  0.2819  0.8774  0.6490
30618SOL    HW193861   4.536   3.107   3.544  1.7641 -0.7897 -2.0294
30618SOL    HW293862   4.596   3.230   3.608 -3.3610  0.0389  1.8767
30619SOL     OW93863   4.429  10.157  10.935  0.0834  0.3428  0.1511
30619SOL    HW193864   4.444  10.131  11.026 -1.6466 -1.9358 -0.1347
30619SOL    HW293865   4.339  10.192  10.935 -1.1656 -2.5479 -1.1177
30620SOL     OW93866   5.838  10.018   4.469  1.2071 -0.0847  0.1709
30620SOL    HW193867   5.764  10.075   4.489  0.7248 -0.6593  0.0273
30620SOL    HW293868   5.868  10.047   4.383  0.3430 -0.7013 -0.3366
30621SOL     OW93869   6.180   9.336   7.740  0.0961  0.5774  0.2092
30621SOL    HW193870   6.214   9.391   7.670 -2.8302  0.3654 -1.5579
30621SOL    HW293871   6.174   9.394   7.816  0.9826  1.5190 -0.4228
30622SOL     OW93872   3.093   1.548   8.360  0.2029  0.8432 -0.0796
30622SOL    HW193873   3.184   1.529   8.336 -0.3363 -0.4491 -1.2040
30622SOL    HW293874   3.093   1.641   8.382  1.9499  0.6833  0.7458
30623SOL     OW93875   1.219  10.896   8.679  0.1035 -0.3634 -0.7619
30623SOL    HW193876   1.241  10.825   8.740 -0.4542 -0.6178 -0.8457
30623SOL    HW293877   1.268  10.875   8.600  1.9136  0.6977  0.0146
30624SOL     OW93878   2.521   4.407   1.415  0.4864  0.5119  0.5200
30624SOL    HW193879   2.544   4.315   1.418 -3.1353 -0.5563  0.1948
30624SOL    HW293880   2.464   4.416   1.339  0.6992  3.0438  0.5475
30625SOL     OW93881   9.937   5.466   5.883  0.2814  0.5355 -0.9310
30625SOL    HW193882   9.847   5.481   5.914  0.3523  1.2309 -1.0485
30625SOL    HW293883   9.970   5.553   5.861  1.2193  0.3610 -0.2646
30626SOL     OW93884   6.890   4.271   2.202  0.3218  0.0436 -0.4201
30626SOL    HW193885   6.881   4.178   2.179  0.5651 -0.3516  1.0033
30626SOL    HW293886   6.801   4.300   2.220  0.4122 -0.3316  0.6524
30627SOL     OW93887   3.241   4.296   1.054 -0.2357  0.5471  0.2484
30627SOL    HW193888   3.270   4.365   1.113  5.0531 -0.7960 -0.2607
30627SOL    HW293889   3.254   4.332   0.966  1.2808 -0.5198 -0.0093
30628SOL     OW93890   2.802  10.054   7.716 -1.3066  0.3093  0.1096
30628SOL    HW193891   2.832  10.035   7.805  0.0124 -1.9102 -0.7236
30628SOL    HW293892   2.775   9.969   7.681 -0.6766  0.9142 -1.9950
30629SOL     OW93893   2.203   2.166   8.550  0.0369 -0.3383  0.2323
30629SOL    HW193894   2.138   2.229   8.583 -2.5370 -2.9020  0.4469
30629SOL    HW293895   2.180   2.155   8.458  1.7996  0.5013 -0.3402
30630SOL     OW93896   7.833   6.662   1.720 -0.5322  0.4978  0.6351
30630SOL    HW193897   7.768   6.724   1.754  0.2604  1.2671  0.7995
30630SOL    HW293898   7.912   6.715   1.709 -0.5237  0.1314 -1.7051
30631SOL     OW93899   2.149   6.614   2.402 -0.1098 -0.1115 -0.1384
30631SOL    HW193900   2.226   6.570   2.366 -1.2542 -3.8876  1.5789
30631SOL    HW293901   2.076   6.581   2.350 -0.9113  1.3732 -0.0271
30632SOL     OW93902   7.288   5.549   3.617 -0.0920  0.5367 -0.2637
30632SOL    HW193903   7.195   5.530   3.609  0.0765  0.0770 -1.3497
30632SOL    HW293904   7.327   5.468   3.649 -0.0101  0.5852 -0.2389
30633SOL     OW93905   4.814   4.653   0.427 -0.0000 -0.6421 -0.0408
30633SOL    HW193906   4.727   4.623   0.453  0.5482 -0.7373  1.7642
30633SOL    HW293907   4.834   4.724   0.488  1.5370 -1.1922  0.1235
30634SOL     OW93908   7.435   8.420   1.507 -0.0927 -0.0761 -0.5886
30634SOL    HW193909   7.479   8.485   1.562 -1.0957  1.1735 -1.2063
30634SOL    HW293910   7.342   8.430   1.527 -0.3206 -0.9280 -1.1301
30635SOL     OW93911   3.750   5.963   1.934  0.0580  0.1220 -0.9087
30635SOL    HW193912   3.716   6.028   1.995 -1.4112 -0.4977 -1.0079
30635SOL    HW293913   3.822   5.920   1.981 -1.3343 -0.6582  0.6141
30636SOL     OW93914   0.445   3.867   9.663  1.0153 -0.1416 -0.4236
30636SOL    HW193915   0.477   3.903   9.580 -0.7487 -1.0690 -1.5872
30636SOL    HW293916   0.493   3.785   9.674  0.3754 -0.6383 -1.2135
30637SOL     OW93917   8.447  10.567   3.346  0.4072 -0.5216 -0.4255
30637SOL    HW193918   8.404  10.646   3.315  3.4661  1.2828 -0.5204
30637SOL    HW293919   8.440  10.506   3.273  0.1239  0.5810 -1.3504
30638SOL     OW93920   3.315   2.974  10.098 -0.3218  0.5825 -0.2404
30638SOL    HW193921   3.260   2.936  10.029 -1.4682  0.2011  0.8592
30638SOL    HW293922   3.271   2.950  10.180  1.3614  0.4634  0.6659
30639SOL     OW93923   9.843   4.443   3.299  0.2867  0.3584  0.2246
30639SOL    HW193924   9.867   4.479   3.385  3.0251  2.1483 -1.1602
30639SOL    HW293925   9.830   4.519   3.243  0.5854 -0.7598 -1.4532
30640SOL     OW93926  10.786   2.450   1.774 -0.1196 -0.3378 -0.0745
30640SOL    HW193927  10.782   2.356   1.755  0.2763 -0.5563  0.8639
30640SOL    HW293928  10.876   2.465   1.801 -0.5998 -0.0431  1.4556
30641SOL     OW93929   1.816  10.396   2.411  0.4162  0.6911 -0.1149
30641SOL    HW193930   1.754  10.325   2.429 -1.6639  2.6195  0.7865
30641SOL    HW293931   1.890  10.352   2.368 -1.9104 -1.6403 -2.1101
30642SOL     OW93932   7.414   0.015   5.005 -0.3092  0.0446 -0.0747
30642SOL    HW193933   7.434   0.053   5.091 -0.7801 -0.4713  0.2684
30642SOL    HW293934   7.436  -0.078   5.015  4.5343  0.6750 -2.0176
30643SOL     OW93935  10.268  10.068  10.473  0.4479 -0.3236 -0.1402
30643SOL    HW193936  10.305   9.994  10.522 -0.4195 -0.0402  0.9854
30643SOL    HW293937  10.184  10.037  10.442  0.4497 -0.0864 -0.3839
30644SOL     OW93938   7.862   9.056   0.565 -0.2897 -0.3105 -0.2521
30644SOL    HW193939   7.773   9.038   0.595 -0.2852 -0.7551 -0.5003
30644SOL    HW293940   7.863   9.030   0.473  1.2264 -4.4728  0.7309
30645SOL     OW93941   3.557   0.119   9.008  0.2724  0.6558  0.3456
30645SOL    HW193942   3.646   0.144   9.032  0.0728  1.4617  0.2870
30645SOL    HW293943   3.514   0.100   9.092  1.0050 -1.5733  0.2641
30646SOL     OW93944   7.665   1.325   6.173  0.7298  0.3392  0.1536
30646SOL    HW193945   7.728   1.307   6.243  0.8336  0.0252 -0.0147
30646SOL    HW293946   7.707   1.391   6.119  0.4188  0.9795  0.6889
30647SOL     OW93947   4.907   4.471   5.539 -0.4430 -0.0729  0.8069
30647SOL    HW193948   4.952   4.403   5.490 -0.9849  0.5628 -0.6483
30647SOL    HW293949   4.961   4.485   5.617  1.2435 -0.1487 -0.2962
30648SOL     OW93950   0.996   2.349   4.368 -0.3902 -0.6203  0.0120
30648SOL    HW193951   1.080   2.371   4.327 -1.0374 -0.6349 -1.3681
30648SOL    HW293952   1.020   2.311   4.452  0.9181  2.8919  1.4212
30649SOL     OW93953   5.493   2.365   1.001  0.0653  0.1446 -0.4104
30649SOL    HW193954   5.441   2.434   1.041 -0.2898  0.2856 -1.0872
30649SOL    HW293955   5.472   2.371   0.907 -1.4418 -2.0794 -0.2878
30650SOL     OW93956   4.997   2.186   7.928  0.3431 -0.0476 -0.5486
30650SOL    HW193957   5.079   2.176   7.975 -0.3749 -0.0707  0.7420
30650SOL    HW293958   4.936   2.128   7.973 -0.6201  0.6645 -0.9018
30651SOL     OW93959   8.851   2.925   7.198 -0.4134 -0.3566  0.0164
30651SOL    HW193960   8.918   2.991   7.178  1.3620 -2.4442 -1.4259
30651SOL    HW293961   8.839   2.931   7.292 -0.1154  1.8195 -0.0362
30652SOL     OW93962   6.200   6.764   0.688  0.4307  0.1725  0.7250
30652SOL    HW193963   6.289   6.760   0.655 -0.3863 -2.6765 -1.5611
30652SOL    HW293964   6.165   6.846   0.655  1.7289  0.5569  0.2872
30653SOL     OW93965   2.470   6.252   2.542 -0.1330 -0.2026 -0.5958
30653SOL    HW193966   2.452   6.195   2.467  2.1023 -0.7364 -0.8087
30653SOL    HW293967   2.506   6.193   2.608  0.4062  0.6704 -0.0949
30654SOL     OW93968   9.991   9.702   2.111  1.0088 -0.2297  0.3917
30654SOL    HW193969  10.075   9.738   2.138  0.0084  1.7084  1.1379
30654SOL    HW293970   9.949   9.773   2.062  0.2341 -1.5458 -0.9267
30655SOL     OW93971   4.600   8.455   3.796  0.1602  0.2864  0.5443
30655SOL    HW193972   4.643   8.439   3.880  0.5493  0.1894  0.3305
30655SOL    HW293973   4.611   8.372   3.748  1.0942  0.7694 -0.1016
30656SOL     OW93974   8.403   1.636   5.708 -0.4642  0.6682  1.0024
30656SOL    HW193975   8.453   1.573   5.760 -0.0840  0.5953  0.5550
30656SOL    HW293976   8.333   1.584   5.668  1.1738 -0.0013 -1.2214
30657SOL     OW93977   4.755   0.176   2.745 -0.1249  0.6427  0.4650
30657SOL    HW193978   4.693   0.114   2.784  1.1861 -0.2921  1.1628
30657SOL    HW293979   4.764   0.147   2.654 -1.2661  1.2566  0.1455
30658SOL     OW93980   8.344   2.905   9.318 -0.0623 -0.0678 -0.0341
30658SOL    HW193981   8.365   2.824   9.366 -1.9114 -1.0819 -0.8260
30658SOL    HW293982   8.248   2.906   9.313 -0.1422  2.5946  0.5871
30659SOL     OW93983   7.151  10.838   3.945 -0.5720 -0.1637  0.2295
30659SOL    HW193984   7.217  10.803   4.005 -1.8432 -0.5094  1.4785
30659SOL    HW293985   7.121  10.918   3.988 -1.7345 -0.5879  0.2199
30660SOL     OW93986   4.145  11.009   8.727  0.6833 -0.0214  0.0805
30660SOL    HW193987   4.239  10.999   8.743  0.5921 -0.3860  0.4029
30660SOL    HW293988   4.122  11.092   8.769  0.5177 -0.7875  1.5540
30661SOL     OW93989   8.388   8.112   4.166 -0.2196  0.4214  0.2976
30661SOL    HW193990   8.406   8.200   4.132 -1.2650  0.7872  0.6284
30661SOL    HW293991   8.395   8.122   4.261 -1.2123  0.3717  0.3844
30662SOL     OW93992   4.240   2.611   5.993 -0.1349 -0.7588  0.0917
30662SOL    HW193993   4.322   2.648   5.961 -0.0364 -2.1591 -1.3901
30662SOL    HW293994   4.264   2.566   6.074  0.7496 -1.8769 -0.7696
30663SOL     OW93995   1.301   4.420   8.746  0.2262 -0.0830  0.2373
30663SOL    HW193996   1.247   4.344   8.763 -1.7870  1.5397  1.5872
30663SOL    HW293997   1.384   4.384   8.713 -1.1200 -2.7270 -0.5342
30664SOL     OW93998   1.950   0.518   1.325 -0.4931  1.0999  0.1673
30664SOL    HW193999   1.980   0.607   1.306  2.6104  0.3795  1.0614
30664SOL    HW294000   1.973   0.467   1.248 -1.0441  0.8239  0.1794
30665SOL     OW94001   4.639   7.631   7.955  0.0273 -0.3471 -0.1643
30665SOL    HW194002   4.601   7.710   7.994  2.7346  0.5062  1.0216
30665SOL    HW294003   4.700   7.664   7.889  1.3234 -1.3963  0.4614
30666SOL     OW94004   1.617  10.308   5.328 -0.0707 -0.2770  0.2703
30666SOL    HW194005   1.534  10.353   5.343  0.7518  0.8331  1.8075
30666SOL    HW294006   1.676  10.344   5.394  0.7290 -3.5307  1.5168
30667SOL     OW94007   5.281   2.499   3.863  0.3233 -0.3969  0.2081
30667SOL    HW194008   5.358   2.524   3.913  0.6591 -2.9094  1.0906
30667SOL    HW294009   5.311   2.430   3.803 -0.8584 -0.1035 -0.7788
30668SOL     OW94010   5.749   3.237   5.541 -0.1003  0.0532  0.6685
30668SOL    HW194011   5.810   3.164   5.546  1.7225  1.3187 -1.3572
30668SOL    HW294012   5.663   3.197   5.540  0.8448 -2.0812 -0.4488
30669SOL     OW94013   0.530   6.206   8.491 -0.0046 -0.2408 -0.2289
30669SOL    HW194014   0.478   6.149   8.433 -1.2225 -1.5156  1.9851
30669SOL    HW294015   0.609   6.154   8.509 -0.3880 -0.5738  0.5307
30670SOL     OW94016   3.004  10.524   9.090  0.4916 -0.2924 -0.0799
30670SOL    HW194017   3.015  10.538   8.996 -1.4430  1.8482 -0.0759
30670SOL    HW294018   2.968  10.435   9.097 -1.9137  0.4423 -1.6670
30671SOL     OW94019   6.379   1.881   9.564  0.2850  0.2054 -0.7505
30671SOL    HW194020   6.445   1.903   9.631  0.8083 -0.4573 -1.0367
30671SOL    HW294021   6.335   1.964   9.546  0.5181  0.5084  0.0070
30672SOL     OW94022   7.352   9.877   5.208  0.3433 -0.4544 -0.4001
30672SOL    HW194023   7.320   9.932   5.136 -1.1190 -0.2412  0.3604
30672SOL    HW294024   7.446   9.890   5.210  0.2885  0.2291 -1.7016
30673SOL     OW94025  10.340   2.641   5.612 -0.0248 -0.1401 -0.3610
30673SOL    HW194026  10.372   2.553   5.592  0.5864  0.1934 -0.8948
30673SOL    HW294027  10.401   2.699   5.567 -1.1447  0.5321 -1.0748
30674SOL     OW94028   0.644   1.333  11.049  0.0253 -0.7411  0.0020
30674SOL    HW194029   0.609   1.315  10.962 -0.6802 -1.1898  0.3677
30674SOL    HW294030   0.567   1.332  11.106  0.7127 -2.5258  0.9570
30675SOL     OW94031  10.237   6.574   2.216 -0.2744  0.6238  0.4728
30675SOL    HW194032  10.304   6.642   2.221 -0.6721  0.9536  3.3491
30675SOL    HW294033  10.286   6.493   2.202  0.4328  1.1887 -0.4073
30676SOL     OW94034   9.598   7.383   6.682  0.0707  0.0561 -0.0128
30676SOL    HW194035   9.662   7.347   6.620  0.7095 -0.2712  0.8243
30676SOL    HW294036   9.513   7.362   6.643  0.4461  1.0882 -1.4818
30677SOL     OW94037   4.194  10.605   2.418  0.2151 -0.2699  0.0563
30677SOL    HW194038   4.261  10.657   2.373 -0.9480  1.4345  0.2160
30677SOL    HW294039   4.210  10.620   2.511  0.7599 -1.4067  0.1700
30678SOL     OW94040   8.820   4.634   3.641  0.7520  0.0388  0.1017
30678SOL    HW194041   8.842   4.592   3.558  1.0511 -0.6498  0.5260
30678SOL    HW294042   8.807   4.726   3.618 -2.0592 -0.6004 -1.2350
30679SOL     OW94043   2.093  10.373   4.601 -0.8339 -0.1160  0.1501
30679SOL    HW194044   2.144  10.411   4.672 -2.1247 -0.1395  1.1211
30679SOL    HW294045   2.017  10.334   4.644 -2.0111  0.4852 -1.2960
30680SOL     OW94046   1.594   6.400   6.370  0.2189  0.4448  0.3734
30680SOL    HW194047   1.506   6.432   6.349  0.5794  0.4021 -1.3906
30680SOL    HW294048   1.618   6.345   6.295  1.4186 -0.2323  1.2196
30681SOL     OW94049   4.648   3.566   0.022  0.0694  0.3894 -0.0694
30681SOL    HW194050   4.655   3.646   0.074  1.6074  0.6875 -0.6579
30681SOL    HW294051   4.692   3.499   0.074  0.4059  0.3662 -0.3810
30682SOL     OW94052   2.573  10.917   4.441  0.1127 -0.2941  0.4388
30682SOL    HW194053   2.539  10.912   4.530  0.3898 -1.0524  0.5167
30682SOL    HW294054   2.557  11.007   4.413 -1.8177 -0.5778  0.5105
30683SOL     OW94055   1.779   0.734   8.444  0.1854 -0.2523  0.1525
30683SOL    HW194056   1.773   0.649   8.488 -0.0896 -0.2143  0.1890
30683SOL    HW294057   1.854   0.725   8.384  1.4080  0.1228  1.5622
30684SOL     OW94058   4.376  10.187   3.056  0.1353 -0.1807  0.2713
30684SOL    HW194059   4.434  10.261   3.040 -2.0301  1.2704 -1.5633
30684SOL    HW294060   4.321  10.216   3.129 -0.2723 -0.2344 -0.0086
30685SOL     OW94061   3.124   4.231   3.110 -0.5043 -0.3131  0.0080
30685SOL    HW194062   3.104   4.154   3.057  0.8366 -0.7112  0.0464
30685SOL    HW294063   3.206   4.265   3.073 -0.4320  0.3780  0.7702
30686SOL     OW94064   3.691   5.937   8.721 -0.9187  0.2279  0.2303
30686SOL    HW194065   3.739   5.993   8.782 -0.7672  0.3867 -0.0345
30686SOL    HW294066   3.747   5.860   8.710 -2.0357 -0.9311  2.1715
30687SOL     OW94067   8.726   6.041   1.012 -0.3654  0.5342  0.4605
30687SOL    HW194068   8.635   6.043   0.984 -0.8565 -4.3408  1.0071
30687SOL    HW294069   8.722   6.047   1.107 -0.2716 -1.0425  0.5760
30688SOL     OW94070   2.757   2.370   0.460 -0.0299  0.0521  0.7030
30688SOL    HW194071   2.729   2.295   0.407  1.4887  0.7185 -1.1602
30688SOL    HW294072   2.676   2.406   0.496 -0.7797 -2.6103  1.9129
30689SOL     OW94073   8.790  10.675   2.806 -0.8220  0.3900 -0.2003
30689SOL    HW194074   8.876  10.674   2.764 -0.3538 -0.0449  0.7417
30689SOL    HW294075   8.790  10.756   2.859 -0.2941 -0.4598  1.1614
30690SOL     OW94076   8.885   3.982   8.963 -0.4460 -0.1064  0.4844
30690SOL    HW194077   8.846   3.905   9.004  0.1505 -0.2342  0.8250
30690SOL    HW294078   8.816   4.017   8.907 -1.3493  0.1881  1.7386
30691SOL     OW94079   6.624   7.048   3.829  0.3346  0.8222  0.7870
30691SOL    HW194080   6.719   7.051   3.836  0.3283  0.1894  1.2640
30691SOL    HW294081   6.601   6.957   3.848 -0.4010  1.0865  1.2311
30692SOL     OW94082   0.053   4.757  10.766  0.8163  0.9582  0.2562
30692SOL    HW194083   0.048   4.680  10.822  0.1264  0.2797 -0.7260
30692SOL    HW294084   0.018   4.828  10.820 -1.6921 -0.0549  0.0490
30693SOL     OW94085   6.971   5.223   7.076  0.0889  0.4328 -0.0435
30693SOL    HW194086   6.876   5.233   7.087  0.1710  1.0279  0.1685
30693SOL    HW294087   6.982   5.204   6.983 -0.3772 -1.5839  0.2552
30694SOL     OW94088   1.576   8.155   6.963  0.6428  0.0962 -0.2049
30694SOL    HW194089   1.620   8.240   6.964  0.0044  0.4349  0.0719
30694SOL    HW294090   1.632   8.099   6.910  0.1294  1.1999 -1.9925
30695SOL     OW94091   2.102   8.138   7.485  0.3848 -0.3465 -0.0522
30695SOL    HW194092   2.084   8.054   7.527 -2.5343  0.4512  0.5343
30695SOL    HW294093   2.160   8.183   7.546  1.0852 -1.4883  0.1553
30696SOL     OW94094   6.761   3.033   4.493 -0.3190  0.2278  0.1238
30696SOL    HW194095   6.833   3.094   4.483  0.9840 -1.0126  1.5103
30696SOL    HW294096   6.802   2.950   4.516 -2.0552 -1.0769 -1.1559
30697SOL     OW94097  10.650   3.634   9.585 -0.5790  0.5117  0.3346
30697SOL    HW194098  10.714   3.567   9.563 -0.7461  0.3142  0.4475
30697SOL    HW294099  10.574   3.586   9.618 -1.2181  0.6775 -0.8282
30698SOL     OW94100  10.635   7.706   0.442  0.0015 -0.0027  0.2507
30698SOL    HW194101  10.587   7.648   0.383 -2.1194  2.7591 -0.9808
30698SOL    HW294102  10.705   7.743   0.388 -0.0038  0.2268  0.3999
30699SOL     OW94103   2.723   5.771   6.001 -0.1058 -0.1459  0.1934
30699SOL    HW194104   2.729   5.752   5.907 -2.4039 -0.1059 -0.0209
30699SOL    HW294105   2.681   5.693   6.038 -2.5111  1.2325  0.5529
30700SOL     OW94106   8.408   9.744   3.761 -0.2657  0.3786  0.6382
30700SOL    HW194107   8.347   9.735   3.834 -1.9394  1.0504 -0.6280
30700SOL    HW294108   8.394   9.666   3.707 -0.1883  0.6631  0.2019
30701SOL     OW94109  10.846   4.127   3.504 -0.4086  0.2754  0.1209
30701SOL    HW194110  10.922   4.120   3.561  0.1683 -1.3279 -0.7858
30701SOL    HW294111  10.786   4.185   3.551  1.0322  0.9543  1.2113
30702SOL     OW94112   6.421   9.628  10.834 -0.1025 -0.4011 -0.1977
30702SOL    HW194113   6.468   9.610  10.916 -1.1522  1.0428  0.7746
30702SOL    HW294114   6.342   9.574  10.839 -0.6661  0.4348  0.2543
30703SOL     OW94115   2.519   2.062   9.064  0.6305 -0.4105  0.2222
30703SOL    HW194116   2.610   2.082   9.088  0.0436  0.7119  1.6545
30703SOL    HW294117   2.471   2.064   9.146 -0.6508 -1.3901 -0.4572
30704SOL     OW94118   7.904   0.057  10.769 -0.1205 -0.0046  0.7075
30704SOL    HW194119   7.921   0.134  10.823  0.2987  0.4408 -0.0441
30704SOL    HW294120   7.987   0.039  10.726 -0.8627  0.7082 -1.1195
30705SOL     OW94121   3.068   7.599   5.098 -0.3896 -0.2377 -0.0353
30705SOL    HW194122   3.013   7.619   5.022  0.6811 -0.7434 -0.9888
30705SOL    HW294123   3.156   7.589   5.061 -0.0183 -1.5481  1.1209
30706SOL     OW94124   3.116   0.541   3.771 -0.2428 -0.3312 -0.7486
30706SOL    HW194125   3.126   0.585   3.855  1.3185 -3.1964  0.7086
30706SOL    HW294126   3.084   0.610   3.712  1.5007  2.5755  1.3976
30707SOL     OW94127   9.693   8.712  10.929 -0.0380  0.6966 -0.4905
30707SOL    HW194128   9.674   8.668  11.011  0.4756  1.2299 -0.0750
30707SOL    HW294129   9.693   8.805  10.951 -1.1081  0.9200 -1.3492
30708SOL     OW94130   9.214   5.878  10.798  0.4331  0.1075  0.7332
30708SOL    HW194131   9.238   5.803  10.745  1.7046  0.2255  1.0952
30708SOL    HW294132   9.296   5.927  10.808 -0.4309  1.7378  0.2059
30709SOL     OW94133   4.183   8.339   7.480  0.0614  0.2396  0.3802
30709SOL    HW194134   4.250   8.273   7.464 -0.8094 -0.4011 -0.7480
30709SOL    HW294135   4.229   8.423   7.473  0.4775 -0.1340 -1.9453
30710SOL     OW94136   5.125   1.668   6.481 -0.2231 -0.1493  0.6814
30710SOL    HW194137   5.194   1.614   6.443 -0.2383  0.8641 -0.8659
30710SOL    HW294138   5.049   1.610   6.485 -0.2277 -0.2962 -0.9103
30711SOL     OW94139   8.409   4.146   0.845 -0.4342  0.2397  0.1935
30711SOL    HW194140   8.326   4.178   0.880 -2.6478 -3.7879 -0.7236
30711SOL    HW294141   8.433   4.210   0.777 -2.5946  1.7241  0.7262
30712SOL     OW94142   7.551   3.867   5.965 -0.0935 -0.0560 -0.3736
30712SOL    HW194143   7.568   3.932   6.033  0.8368  1.2157 -1.7528
30712SOL    HW294144   7.570   3.913   5.883 -0.4000 -1.7717 -1.4496
30713SOL     OW94145   9.123   0.755   0.251 -0.1699 -0.0750  0.4905
30713SOL    HW194146   9.092   0.831   0.201  0.7799  0.3218  0.4966
30713SOL    HW294147   9.208   0.733   0.213 -0.3725 -1.0632  0.5736
30714SOL     OW94148   5.069   7.216   1.462  0.2162  0.5492  0.2396
30714SOL    HW194149   4.988   7.180   1.498  0.5379 -2.3298 -1.5926
30714SOL    HW294150   5.138   7.169   1.509  0.6571 -1.0950 -1.9079
30715SOL     OW94151   4.287  10.129   1.905  0.0260  0.0354  0.5910
30715SOL    HW194152   4.380  10.110   1.888  0.0820  0.3600  0.5350
30715SOL    HW294153   4.287  10.172   1.991  0.0811  1.3768 -0.0742
30716SOL     OW94154  10.644   3.430   6.290  0.0074 -0.7887  0.0036
30716SOL    HW194155  10.670   3.383   6.369  1.4036 -0.2851 -0.1284
30716SOL    HW294156  10.586   3.500   6.321 -1.3546 -1.9956  0.2974
30717SOL     OW94157   5.807   3.049  10.422 -0.2978  0.8389 -0.8928
30717SOL    HW194158   5.878   3.112  10.407  0.1818  0.6865  0.6151
30717SOL    HW294159   5.851   2.965  10.435 -0.6462  0.9073  1.0265
30718SOL     OW94160  10.051   4.032   2.274  0.5278 -0.1152  0.8364
30718SOL    HW194161  10.036   4.127   2.281 -1.7907 -0.4512  1.5581
30718SOL    HW294162  10.058   4.015   2.180 -0.2920  0.6430  0.6234
30719SOL     OW94163   1.013   6.438   9.053  0.0290 -0.4545 -0.2630
30719SOL    HW194164   0.997   6.421   9.146  2.8204 -1.3817  0.1536
30719SOL    HW294165   1.012   6.533   9.045  1.9518 -0.2352  1.2616
30720SOL     OW94166   3.214   5.319   8.644 -0.3052 -0.1462  0.2515
30720SOL    HW194167   3.286   5.373   8.611 -1.5364  0.9422 -0.7407
30720SOL    HW294168   3.144   5.381   8.663 -0.6682 -1.0717  2.1837
30721SOL     OW94169   4.761   5.848   5.259  0.4487 -0.5716 -0.9223
30721SOL    HW194170   4.763   5.888   5.346 -1.8680  2.1075 -1.9574
30721SOL    HW294171   4.791   5.758   5.273  0.5260 -0.1237  2.5509
30722SOL     OW94172   2.335   5.606   7.175 -0.0896 -0.2082 -0.1138
30722SOL    HW194173   2.338   5.601   7.079 -0.2821  1.7178 -0.2699
30722SOL    HW294174   2.249   5.645   7.193  0.2631  0.1757  0.7813
30723SOL     OW94175   5.380   7.498   2.390  0.0909 -0.0468 -0.6612
30723SOL    HW194176   5.315   7.451   2.443  0.5128  0.5047  0.3713
30723SOL    HW294177   5.334   7.518   2.308 -1.2822  0.8925  0.2944
30724SOL     OW94178  10.763   0.891   2.964  0.0296  0.3266  0.1082
30724SOL    HW194179  10.770   0.936   2.880  0.5132 -1.1042 -0.6480
30724SOL    HW294180  10.818   0.941   3.023 -1.6859  2.3846  0.0598
30725SOL     OW94181   0.121   5.055   1.673  0.6657 -0.8383 -0.3084
30725SOL    HW194182   0.119   5.046   1.578  2.2745  1.1515 -0.5980
30725SOL    HW294183   0.206   5.018   1.699 -0.4005 -2.8175  0.6092
30726SOL     OW94184   5.663   1.712   8.560  0.5000 -0.1883  0.4572
30726SOL    HW194185   5.583   1.728   8.609  1.1819  1.3574  1.1165
30726SOL    HW294186   5.644   1.745   8.472 -0.1996 -1.5541  0.0732
30727SOL     OW94187   7.876   7.501  10.252 -0.7402  0.0020  0.6388
30727SOL    HW194188   7.961   7.458  10.244 -0.2108  1.2688 -1.0161
30727SOL    HW294189   7.853   7.527  10.163 -2.6249  0.1545  1.1295
30728SOL     OW94190   5.285   9.489   5.017 -0.2205  0.5962  0.3696
30728SOL    HW194191   5.350   9.451   5.076 -0.8180  0.3586  0.8793
30728SOL    HW294192   5.259   9.571   5.059  0.1201  0.9514 -0.0919
30729SOL     OW94193   2.557  10.122   1.883 -0.1620 -0.1224  0.3819
30729SOL    HW194194   2.510  10.168   1.953  1.6190  0.5031  1.2197
30729SOL    HW294195   2.645  10.109   1.918  0.3502 -1.1543 -1.1859
30730SOL     OW94196   4.461   8.701   5.948 -0.3677  0.5640 -0.0998
30730SOL    HW194197   4.486   8.679   6.037 -1.2677 -3.3952 -0.6480
30730SOL    HW294198   4.535   8.674   5.894  0.1254  2.8179 -0.6774
30731SOL     OW94199   0.386  10.542   1.582  0.1262  0.0355  0.0175
30731SOL    HW194200   0.301  10.556   1.540  0.0862 -1.1774 -0.3609
30731SOL    HW294201   0.448  10.535   1.510  0.2257 -1.0214  0.1832
30732SOL     OW94202   6.293   7.062   1.904 -0.5239 -0.0506  0.3707
30732SOL    HW194203   6.263   7.149   1.929 -1.5623 -0.6541  1.3681
30732SOL    HW294204   6.233   7.036   1.834 -0.5132 -0.1459  0.3975
30733SOL     OW94205   4.883   3.951   2.215  0.2827  0.1301 -0.0025
30733SOL    HW194206   4.956   3.890   2.199 -1.2467 -1.4558 -1.2488
30733SOL    HW294207   4.843   3.964   2.129  0.1987  2.5158  0.3266
30734SOL     OW94208   6.263   8.888   1.157  0.2775 -0.4742 -0.0080
30734SOL    HW194209   6.228   8.944   1.226  2.0170  0.5536  0.1106
30734SOL    HW294210   6.340   8.847   1.197  0.0850 -1.5173 -0.6868
30735SOL     OW94211   8.498   6.720  10.873  0.2822  0.3935 -0.0978
30735SOL    HW194212   8.520   6.784  10.805 -3.1347  1.7757 -0.1052
30735SOL    HW294213   8.472   6.773  10.948 -1.6594 -0.9603  0.2568
30736SOL     OW94214   6.911   3.937   9.572  0.3973  0.1332 -0.4886
30736SOL    HW194215   6.855   4.014   9.571  1.4039  0.9176  0.8667
30736SOL    HW294216   6.966   3.946   9.494  1.1152  1.2722  0.1268
30737SOL     OW94217   4.899   8.926   1.961 -0.4163  0.1526  0.0334
30737SOL    HW194218   4.992   8.946   1.958 -0.2102 -0.8059 -0.5953
30737SOL    HW294219   4.856   9.001   1.920  0.2700 -0.3779 -1.7502
30738SOL     OW94220   7.248   8.417  10.263 -0.6062  0.1968 -0.5690
30738SOL    HW194221   7.249   8.370  10.179  0.3795 -2.1758  0.6766
30738SOL    HW294222   7.324   8.474  10.260 -1.2295  1.0223 -1.6989
30739SOL     OW94223   2.123   8.637  10.876 -0.1473  0.6706 -0.7747
30739SOL    HW194224   2.200   8.677  10.836 -1.8543  2.1741 -2.7992
30739SOL    HW294225   2.079   8.592  10.804 -0.0586 -2.1350  0.7753
30740SOL     OW94226   4.559   7.687   6.322  0.3229 -0.1378 -0.1943
30740SOL    HW194227   4.573   7.629   6.247  0.8073 -1.4852  0.9013
30740SOL    HW294228   4.641   7.735   6.332  1.3681 -2.1018  1.2302
30741SOL     OW94229   1.016  10.034   2.364  0.1168 -0.2961 -0.8178
30741SOL    HW194230   0.935  10.035   2.312  0.2328  2.0552 -1.0759
30741SOL    HW294231   1.023   9.944   2.395 -2.7235 -0.5365 -0.5863
30742SOL     OW94232  10.182  11.047   5.447 -0.0903  0.4611  0.2227
30742SOL    HW194233  10.177  10.999   5.529  0.2519  2.7341  1.6570
30742SOL    HW294234  10.244  11.118   5.464  1.3050  0.0419 -2.5619
30743SOL     OW94235   1.600   3.708   7.144 -0.1254 -0.0058  0.0434
30743SOL    HW194236   1.545   3.630   7.150 -0.5503  0.1901 -1.0985
30743SOL    HW294237   1.545   3.779   7.177 -0.4328  0.1181 -0.7046
30744SOL     OW94238   3.739   2.835   6.433 -0.4080  0.0029 -0.9445
30744SOL    HW194239   3.668   2.891   6.402 -1.1224 -0.1146  0.3650
30744SOL    HW294240   3.752   2.771   6.362 -2.9499 -1.1501 -0.5105
30745SOL     OW94241   3.210   4.489   1.520  0.2952  0.2377  0.1912
30745SOL    HW194242   3.246   4.409   1.481  0.1432  0.3414 -0.1696
30745SOL    HW294243   3.150   4.523   1.453 -1.0372 -0.3274  1.0495
30746SOL     OW94244   9.505  10.459   0.625 -0.1192  0.2077  0.0267
30746SOL    HW194245   9.475  10.498   0.708  2.3215 -0.4339  1.3156
30746SOL    HW294246   9.486  10.366   0.635  2.8910 -0.3851  1.3101
30747SOL     OW94247   9.578   9.852   4.710  0.7847 -0.5820 -0.1221
30747SOL    HW194248   9.569   9.925   4.648 -0.6900 -0.9819 -0.4147
30747SOL    HW294249   9.564   9.774   4.657 -1.4513 -0.9011  0.8197
30748SOL     OW94250   6.522   9.020   6.928  0.5406 -0.3966  0.0680
30748SOL    HW194251   6.460   9.071   6.979 -0.4251 -1.3645 -0.0893
30748SOL    HW294252   6.503   9.043   6.837  2.0541  1.1007  0.1002
30749SOL     OW94253   7.945   6.283  10.518 -0.0767  0.0883  0.1342
30749SOL    HW194254   7.894   6.257  10.595  0.7964 -1.1848  0.3286
30749SOL    HW294255   7.881   6.295  10.449 -0.8873  1.3516  1.0787
30750SOL     OW94256   6.148   5.519   4.743 -0.9207 -0.5148  0.4138
30750SOL    HW194257   6.156   5.515   4.838  1.3427 -1.6540  0.2522
30750SOL    HW294258   6.225   5.567   4.714 -0.5890 -1.7618 -0.9163
30751SOL     OW94259   4.041   0.642   0.735 -0.1301 -0.0294 -0.8173
30751SOL    HW194260   4.132   0.669   0.742 -0.3740  0.3762  1.8502
30751SOL    HW294261   3.992   0.711   0.780 -1.6521 -0.6965 -1.3923
30752SOL     OW94262   8.315   1.297   2.351 -0.4684 -0.7809 -0.4198
30752SOL    HW194263   8.371   1.238   2.402  1.0118  1.4226  0.6750
30752SOL    HW294264   8.376   1.340   2.291 -1.9017 -2.0220 -2.9062
30753SOL     OW94265   9.382   9.247   9.678  0.2900  0.3020 -0.4900
30753SOL    HW194266   9.369   9.153   9.662 -2.5464  0.7877 -1.6692
30753SOL    HW294267   9.315   9.270   9.742  0.7134  1.5961 -0.4823
30754SOL     OW94268   5.630   2.334   1.676  0.0316 -0.1367 -0.4602
30754SOL    HW194269   5.605   2.410   1.728 -0.5084 -0.4980 -0.1813
30754SOL    HW294270   5.663   2.371   1.594  1.8864  0.4919  0.5066
30755SOL     OW94271   7.295   2.386   4.220  0.3865 -0.4312 -0.0201
30755SOL    HW194272   7.276   2.458   4.280 -2.1045 -1.2374  0.2604
30755SOL    HW294273   7.379   2.352   4.250  2.1187  2.7991 -0.6830
30756SOL     OW94274   5.895  10.353   1.150  0.1163  0.5360 -0.8528
30756SOL    HW194275   5.978  10.352   1.198  0.7504  0.4277 -1.9266
30756SOL    HW294276   5.894  10.439   1.107 -2.5109  2.6355  2.7718
30757SOL     OW94277   7.936   4.194   7.532 -0.0530 -0.1925  0.2897
30757SOL    HW194278   7.934   4.246   7.452 -1.7586 -0.2295  0.2644
30757SOL    HW294279   8.017   4.144   7.527  0.8404  1.2723 -0.4512
30758SOL     OW94280   2.333   3.008   0.935 -0.4232 -0.8029  0.0661
30758SOL    HW194281   2.419   3.050   0.943 -0.4095 -0.5388 -1.2021
30758SOL    HW294282   2.328   2.982   0.843 -1.1311 -2.0911  0.4517
30759SOL     OW94283   8.384   3.673   2.330  0.2006  0.3046  0.1642
30759SOL    HW194284   8.314   3.616   2.299 -0.9480  2.4804 -1.5894
30759SOL    HW294285   8.394   3.739   2.261  3.7140  0.3767  0.5400
30760SOL     OW94286   5.711   7.366   3.601 -0.0122  0.2443  0.2984
30760SOL    HW194287   5.629   7.324   3.574 -0.4841  0.5416  1.2265
30760SOL    HW294288   5.687   7.458   3.615  0.7967  0.6441 -0.7708
30761SOL     OW94289   9.453   3.184   4.024 -0.1931 -0.5757 -0.7803
30761SOL    HW194290   9.387   3.119   3.999 -2.2030  1.6119 -1.4513
30761SOL    HW294291   9.432   3.261   3.973  1.4709  0.9759  0.7305
30762SOL     OW94292   7.225   6.715   7.721 -0.1899 -0.6676  0.3405
30762SOL    HW194293   7.311   6.746   7.751 -1.8444  2.8970  1.9745
30762SOL    HW294294   7.169   6.723   7.798 -2.3484 -1.4618 -1.0650
30763SOL     OW94295   1.690   4.745  10.041  0.5297  0.1182 -0.1162
30763SOL    HW194296   1.734   4.694  10.109  0.4411 -0.2026 -0.3022
30763SOL    HW294297   1.728   4.715   9.959 -0.2227 -0.3459 -0.2967
30764SOL     OW94298   2.922  10.508   9.587 -0.3814  0.1888  0.0346
30764SOL    HW194299   2.856  10.483   9.522 -0.9479  1.1713  0.2086
30764SOL    HW294300   2.986  10.559   9.538  0.7289 -1.4421 -0.3020
30765SOL     OW94301  10.356   9.751   1.155  0.2066 -0.4057 -0.6534
30765SOL    HW194302  10.289   9.796   1.207 -0.8004 -1.1127 -1.2853
30765SOL    HW294303  10.410   9.821   1.119 -0.6464  0.2334 -0.7128
30766SOL     OW94304   0.823   6.776   3.140 -0.3042  0.4208 -0.2197
30766SOL    HW194305   0.918   6.772   3.138 -0.2965  0.7170 -0.5383
30766SOL    HW294306   0.800   6.841   3.073 -0.7045  0.7320  0.2104
30767SOL     OW94307   8.376  10.474   6.126 -0.3832 -0.4434  0.4464
30767SOL    HW194308   8.404  10.565   6.128  1.5736 -0.9987  1.9194
30767SOL    HW294309   8.362  10.454   6.033 -5.4784  2.5235  0.1941
30768SOL     OW94310   9.127   6.726   9.446  0.0991 -0.6724  0.7883
30768SOL    HW194311   9.069   6.672   9.392  2.1008 -1.1398 -1.0659
30768SOL    HW294312   9.117   6.692   9.535 -0.7614 -2.2358  0.1332
30769SOL     OW94313   4.142   9.683   2.741 -0.2048 -0.7792  0.2246
30769SOL    HW194314   4.170   9.760   2.790 -2.0495 -1.2126  2.1406
30769SOL    HW294315   4.153   9.707   2.649  2.4155  0.4715  0.7791
30770SOL     OW94316   4.076   4.676   3.232  0.2092 -0.5964 -0.5661
30770SOL    HW194317   4.093   4.769   3.242  1.9125 -0.9047 -0.2903
30770SOL    HW294318   4.009   4.656   3.298 -0.4598  0.4744 -0.8932
30771SOL     OW94319   9.029   7.223   9.246  0.3055 -0.6877 -0.0359
30771SOL    HW194320   9.093   7.291   9.264  0.6772 -1.1902  0.6072
30771SOL    HW294321   9.019   7.223   9.150 -0.1333  0.6341 -0.0083
30772SOL     OW94322   9.235   3.047   6.551 -0.1290 -0.0438 -0.3221
30772SOL    HW194323   9.315   2.997   6.565 -0.0449 -0.4804 -2.1261
30772SOL    HW294324   9.179   2.989   6.500  0.1230  1.7325 -2.8059
30773SOL     OW94325   0.745   9.380   8.229 -0.2880  0.1264 -0.4789
30773SOL    HW194326   0.741   9.474   8.210  0.0960  0.4252  0.8363
30773SOL    HW294327   0.815   9.372   8.294  0.3915 -1.2075 -1.3295
30774SOL     OW94328   7.707   0.968   7.157  0.5833 -0.1063  0.3609
30774SOL    HW194329   7.668   1.034   7.214  1.2523  0.2125  0.4703
30774SOL    HW294330   7.637   0.905   7.140 -0.1503  0.8063 -0.0209
30775SOL     OW94331   8.691   5.374  10.196  0.4004 -0.0910  0.0551
30775SOL    HW194332   8.629   5.446  10.186 -0.5823 -0.8906  0.3225
30775SOL    HW294333   8.686   5.351  10.289  0.5126 -0.6788 -0.0841
30776SOL     OW94334   3.119   5.541   1.394  0.1843  0.4241 -0.1509
30776SOL    HW194335   3.049   5.538   1.460 -0.0177  2.4793 -0.2129
30776SOL    HW294336   3.197   5.512   1.441 -0.4131 -0.4850  0.3163
30777SOL     OW94337  10.192   9.726   4.335 -0.1490  0.2312  0.0810
30777SOL    HW194338  10.140   9.803   4.314  1.9396  1.4318 -0.9999
30777SOL    HW294339  10.161   9.659   4.274 -0.6617  0.8054 -0.2998
30778SOL     OW94340   6.799   4.654   2.108  0.7638  0.2094  0.2984
30778SOL    HW194341   6.891   4.652   2.133  0.4690 -1.0047  1.3850
30778SOL    HW294342   6.755   4.596   2.170 -0.9008  1.5104  0.4253
30779SOL     OW94343   7.283   7.236   3.332  0.1628 -0.0819  0.8412
30779SOL    HW194344   7.287   7.308   3.270  0.1651  1.3803  2.4839
30779SOL    HW294345   7.296   7.276   3.418 -1.1173 -1.8412  1.9407
30780SOL     OW94346   8.099   3.578   3.106 -0.6174  0.2810 -0.2317
30780SOL    HW194347   8.174   3.584   3.047  2.1899 -0.8587  2.8949
30780SOL    HW294348   8.070   3.669   3.117 -0.7923  0.5912 -2.6746
30781SOL     OW94349   9.199   7.605  10.404 -0.1531  0.1218  0.0344
30781SOL    HW194350   9.213   7.637  10.493 -2.0325  0.1488  0.3661
30781SOL    HW294351   9.113   7.562  10.407 -0.7683  1.0485 -1.9844
30782SOL     OW94352   7.713   7.424   0.017 -0.5646 -0.4911  0.5892
30782SOL    HW194353   7.722   7.508  -0.027  0.7091  0.1133  1.9255
30782SOL    HW294354   7.620   7.418   0.039 -0.8612  0.0529 -0.4595
30783SOL     OW94355   7.121   3.898   1.960  0.4954  0.2583 -0.2173
30783SOL    HW194356   7.175   3.974   1.982  0.5617  0.4354 -0.9404
30783SOL    HW294357   7.038   3.915   2.004 -0.0105  1.5136 -1.5546
30784SOL     OW94358   2.119   5.019   5.367  0.0180  0.6945 -0.3846
30784SOL    HW194359   2.152   4.956   5.431  0.2052  0.2098 -0.9491
30784SOL    HW294360   2.185   5.020   5.298  1.0471  3.0482  0.5625
30785SOL     OW94361   4.521   0.090   4.577 -0.0009  0.1264 -0.1419
30785SOL    HW194362   4.561   0.017   4.625  0.1867  0.1407 -0.2759
30785SOL    HW294363   4.573   0.166   4.601 -2.2108  0.9052  2.6748
30786SOL     OW94364   1.494   5.149   2.788 -0.0339  0.6817 -0.0872
30786SOL    HW194365   1.585   5.139   2.760  0.3138  0.8529  0.9434
30786SOL    HW294366   1.493   5.231   2.837 -0.4832  0.1090  0.8980
30787SOL     OW94367  10.295   9.559   0.395 -0.4164  0.2629  0.0525
30787SOL    HW194368  10.369   9.516   0.352  0.8458  1.1619  1.2531
30787SOL    HW294369  10.233   9.488   0.411 -0.0850 -0.4166 -1.4662
30788SOL     OW94370   9.461   6.244   7.793 -0.0146 -0.0090 -0.5799
30788SOL    HW194371   9.496   6.240   7.883  1.1204 -0.6481 -1.0248
30788SOL    HW294372   9.531   6.209   7.739 -1.1748 -0.8389 -1.5958
30789SOL     OW94373   6.307   4.126   7.114 -0.5721  0.0456 -0.4950
30789SOL    HW194374   6.299   4.033   7.134 -2.5823  0.2523 -0.1270
30789SOL    HW294375   6.401   4.145   7.123 -0.3907 -1.4952  1.4318
30790SOL     OW94376   8.942   3.968   9.316 -0.3150 -0.1514 -0.1387
30790SOL    HW194377   8.970   3.955   9.406 -2.4238  0.2289  0.6200
30790SOL    HW294378   8.856   3.925   9.311 -0.1318 -0.3777 -2.0397
30791SOL     OW94379   6.251   2.112   7.199 -0.0563  0.7174 -0.6731
30791SOL    HW194380   6.194   2.092   7.273  2.4284  0.3734  1.2907
30791SOL    HW294381   6.192   2.124   7.125 -2.5418 -1.0364  0.8906
30792SOL     OW94382   9.231   0.405   6.416 -0.3071 -0.0290  0.6104
30792SOL    HW194383   9.252   0.474   6.478 -0.0781 -0.1790  0.7043
30792SOL    HW294384   9.310   0.396   6.363  0.2115 -1.1852  1.5123
30793SOL     OW94385   0.467   5.990   5.376 -0.4255  0.0546 -0.3823
30793SOL    HW194386   0.398   6.056   5.387  0.6505  1.2719 -0.7231
30793SOL    HW294387   0.500   5.974   5.464  1.2264  2.1510 -0.5259
30794SOL     OW94388   6.451   0.281   8.315  0.2816 -0.6001  0.1995
30794SOL    HW194389   6.369   0.261   8.361 -0.3976 -2.5045 -1.6956
30794SOL    HW294390   6.520   0.255   8.377 -0.5663 -1.3860  0.8475
30795SOL     OW94391   9.542   9.688   4.010 -0.3467  0.2482 -0.0983
30795SOL    HW194392   9.596   9.764   4.032 -0.2027 -0.2124  1.2274
30795SOL    HW294393   9.600   9.613   4.025 -0.4018 -0.1380 -1.6477
30796SOL     OW94394   1.872   3.784   0.571  0.5343 -0.1369  0.3407
30796SOL    HW194395   1.863   3.827   0.486 -2.2958 -2.0201 -0.4577
30796SOL    HW294396   1.806   3.826   0.626  2.3074  1.0338  1.6650
30797SOL     OW94397   7.822   4.291   2.453  0.0134  0.2936  0.0340
30797SOL    HW194398   7.866   4.296   2.368  1.3047  1.4525  0.7390
30797SOL    HW294399   7.821   4.198   2.475 -1.1705 -0.1410 -1.6440
30798SOL     OW94400   3.528   1.743   3.767 -0.2466 -0.1271 -0.2969
30798SOL    HW194401   3.437   1.737   3.797  0.1517 -1.1898  0.8046
30798SOL    HW294402   3.566   1.812   3.821 -0.2519 -0.1119 -0.3128
30799SOL     OW94403  10.012   6.208  10.286 -0.0748 -1.1667  0.1073
30799SOL    HW194404   9.930   6.190  10.240 -2.1361  1.7478  2.2998
30799SOL    HW294405  10.075   6.223  10.216 -2.5043  0.9150 -1.8351
30800SOL     OW94406   2.904   1.808   0.164  0.0881 -0.0847 -0.3814
30800SOL    HW194407   2.983   1.851   0.199  2.0179 -3.0424 -0.7269
30800SOL    HW294408   2.894   1.844   0.076  0.7073  0.7541 -0.1277
30801SOL     OW94409   5.615   7.466   9.846  0.1366  0.9131  0.0281
30801SOL    HW194410   5.631   7.497   9.936  3.1222 -1.6345  0.5776
30801SOL    HW294411   5.606   7.371   9.855 -0.5792  0.7024 -2.2923
30802SOL     OW94412  10.171   2.038   7.070 -0.0852  0.4842 -0.1896
30802SOL    HW194413  10.256   2.010   7.104 -0.2338  0.0755 -0.1510
30802SOL    HW294414  10.185   2.129   7.043  0.7064  0.0370 -1.3458
30803SOL     OW94415   1.894   2.207   1.728 -0.7416 -0.2831 -0.3562
30803SOL    HW194416   1.838   2.157   1.787  1.1305 -0.6243  1.2258
30803SOL    HW294417   1.881   2.298   1.754 -1.0180 -0.3066 -0.4103
30804SOL     OW94418   7.712   2.945   3.868 -0.4161 -0.1697  0.0264
30804SOL    HW194419   7.672   2.897   3.795  1.0799  0.3821 -1.2303
30804SOL    HW294420   7.763   2.880   3.915 -1.1773 -0.4785  0.4364
30805SOL     OW94421   9.738  10.552  10.852  0.4529  0.4753  0.5498
30805SOL    HW194422   9.779  10.484  10.798  0.0693  1.8564 -1.6291
30805SOL    HW294423   9.764  10.531  10.941  1.9744 -1.3802 -0.2546
30806SOL     OW94424   3.340   8.076   2.298  0.1188 -0.1418  0.7305
30806SOL    HW194425   3.303   8.135   2.233  3.3359  1.0622 -0.1860
30806SOL    HW294426   3.356   8.131   2.375 -2.3458 -1.2478  2.1620
30807SOL     OW94427   6.386   8.710   6.723 -0.3948  0.4504 -0.5400
30807SOL    HW194428   6.349   8.734   6.807  0.3527 -0.6978  0.1447
30807SOL    HW294429   6.314   8.719   6.661 -1.2100  0.3809  0.3836
30808SOL     OW94430   8.930   2.714   5.107 -0.4097  0.0147 -0.0773
30808SOL    HW194431   8.894   2.680   5.025 -3.0737  1.1978  0.4860
30808SOL    HW294432   9.011   2.758   5.081 -1.2087  0.4033 -2.1081
30809SOL     OW94433   5.666   3.679   7.919  0.0518  0.5511  0.2072
30809SOL    HW194434   5.711   3.762   7.900 -0.8635  1.0412  0.1662
30809SOL    HW294435   5.599   3.672   7.851 -1.2140  0.7758  1.4048
30810SOL     OW94436   5.930   3.002   6.637  0.0514  0.3129 -0.4327
30810SOL    HW194437   5.872   3.072   6.608  0.2897  1.9264  2.5470
30810SOL    HW294438   5.876   2.923   6.635 -1.6679  1.4060  0.3183
30811SOL     OW94439   6.190   3.778   2.165 -0.1724  0.2014 -0.0598
30811SOL    HW194440   6.280   3.758   2.191  0.1272  0.9794 -0.4434
30811SOL    HW294441   6.192   3.777   2.069 -0.6337 -0.0338 -0.0685
30812SOL     OW94442   9.142   2.508   6.504  0.0282  0.5437  0.3258
30812SOL    HW194443   9.062   2.468   6.469  0.4390 -0.8308  0.9016
30812SOL    HW294444   9.212   2.478   6.447  0.5855 -1.0247  1.7652
30813SOL     OW94445   5.439   4.291   7.185  0.0269 -0.4614  0.6562
30813SOL    HW194446   5.456   4.203   7.153  2.3477  0.6027 -1.4585
30813SOL    HW294447   5.415   4.341   7.107  1.6144  1.3356  1.2189
30814SOL     OW94448  10.423   9.323   4.242 -0.3613 -0.0641  0.4561
30814SOL    HW194449  10.406   9.229   4.244  0.4653 -0.2187  0.7399
30814SOL    HW294450  10.515   9.331   4.269 -0.3226  0.7980  0.0894
30815SOL     OW94451   1.753  10.384   6.272  0.3091 -0.7275  0.0808
30815SOL    HW194452   1.713  10.466   6.303 -0.9198  0.0656 -3.1101
30815SOL    HW294453   1.679  10.331   6.243  1.2425 -1.9288 -0.1840
30816SOL     OW94454   2.792   4.831   2.694  0.4369 -0.2660 -0.0617
30816SOL    HW194455   2.839   4.897   2.644  1.0085  0.4716  1.3957
30816SOL    HW294456   2.700   4.841   2.668  0.9034 -1.1292 -2.2699
30817SOL     OW94457   8.423   0.048  11.013  0.1745  0.0316 -0.6268
30817SOL    HW194458   8.513   0.024  11.034  0.6698  3.0904  1.3490
30817SOL    HW294459   8.431   0.108  10.939 -0.3829 -0.5309 -1.1567
30818SOL     OW94460   4.239   7.304  10.820 -0.2030  0.1285 -0.2383
30818SOL    HW194461   4.307   7.341  10.764  1.1997 -1.7502  0.1558
30818SOL    HW294462   4.276   7.306  10.908 -1.7253  1.4859  0.4329
30819SOL     OW94463  11.042   3.834   1.548 -0.4415  0.1766 -0.0392
30819SOL    HW194464  10.953   3.856   1.520 -1.0512 -1.4649  0.4832
30819SOL    HW294465  11.037   3.741   1.572  1.3135  0.1721  0.4223
30820SOL     OW94466   4.991   6.243   0.169  0.1548 -0.6012  0.1212
30820SOL    HW194467   4.959   6.332   0.187 -0.7578 -1.0784  1.0206
30820SOL    HW294468   4.911   6.192   0.154  0.5594 -1.5815  1.1556
30821SOL     OW94469   8.649  10.116   1.745 -0.1467  0.5412 -0.5619
30821SOL    HW194470   8.638  10.154   1.832  1.0215  1.3525 -0.7405
30821SOL    HW294471   8.599  10.034   1.747  0.6734  0.0419  1.1994
30822SOL     OW94472  11.058   6.517   0.396 -0.0022  0.5149 -0.2191
30822SOL    HW194473  11.044   6.597   0.447 -0.7125 -0.8532  1.8732
30822SOL    HW294474  11.153   6.508   0.390  0.1231  0.3593  1.5507
30823SOL     OW94475   8.157  10.582   2.924 -0.4430  0.2297  0.2601
30823SOL    HW194476   8.167  10.503   2.871 -0.5384 -0.1149  0.7560
30823SOL    HW294477   8.068  10.578   2.958  0.1115 -0.3423  1.7052
30824SOL     OW94478   1.716  10.286   7.972 -0.1060  0.2939 -0.2193
30824SOL    HW194479   1.635  10.321   8.008 -0.5764 -1.4782  0.5639
30824SOL    HW294480   1.780  10.296   8.042 -0.6250 -1.6993  0.6091
30825SOL     OW94481   9.989   8.859   3.523 -0.1994 -0.0783  0.3309
30825SOL    HW194482  10.050   8.785   3.527  0.2086  0.3071  1.5972
30825SOL    HW294483   9.921   8.831   3.462  1.2385 -0.5188 -1.1379
30826SOL     OW94484   7.916   2.291   1.146  0.1749  0.2999  0.5727
30826SOL    HW194485   8.004   2.255   1.157  1.3500  1.9106 -2.4562
30826SOL    HW294486   7.911   2.362   1.210  1.2436  0.4735  0.4735
30827SOL     OW94487   0.658   3.273   5.966  0.1417  0.5733  0.2012
30827SOL    HW194488   0.587   3.246   6.026  1.0437  1.1687  1.5859
30827SOL    HW294489   0.690   3.191   5.929 -0.4958  0.1917  0.4767
30828SOL     OW94490   5.755   9.775   9.376  1.1260  0.1409 -0.7425
30828SOL    HW194491   5.814   9.801   9.306  1.1895 -2.3612 -1.6988
30828SOL    HW294492   5.804   9.711   9.427 -0.0028 -0.3705 -0.2572
30829SOL     OW94493   8.188   9.817  10.425  0.6328  0.6929 -0.1393
30829SOL    HW194494   8.156   9.727  10.436 -1.7810  1.3935 -0.9618
30829SOL    HW294495   8.266   9.808  10.370  1.2360 -0.9743  0.8812
30830SOL     OW94496   4.126   4.038   4.423 -0.0900  0.0006 -0.2200
30830SOL    HW194497   4.116   3.992   4.340 -1.7453 -0.6335  0.2907
30830SOL    HW294498   4.148   3.969   4.486 -1.0658  0.0969  0.2581
30831SOL     OW94499   3.213   9.932   9.493 -0.4349 -0.0576 -0.1534
30831SOL    HW194500   3.274  10.003   9.473  0.3963 -0.9113 -0.7217
30831SOL    HW294501   3.251   9.886   9.568 -0.0029 -1.0067 -0.9322
30832SOL     OW94502  10.754   4.961   1.194 -0.7829 -0.6877  0.1716
30832SOL    HW194503  10.721   4.871   1.197 -1.3469 -0.5254 -0.6678
30832SOL    HW294504  10.689   5.008   1.141 -0.4202  0.1816  0.4833
30833SOL     OW94505   3.731   3.691   8.083  0.2663 -0.5817  0.7502
30833SOL    HW194506   3.806   3.747   8.099  0.1053 -0.3194  0.5904
30833SOL    HW294507   3.732   3.675   7.989 -0.6038  0.4719  0.5348
30834SOL     OW94508   8.674   0.263   8.104 -0.0217 -0.3408 -0.2553
30834SOL    HW194509   8.653   0.356   8.089  1.9515  0.4351  1.3438
30834SOL    HW294510   8.741   0.244   8.038 -0.2798 -0.5921 -0.4472
30835SOL     OW94511   3.388   3.510   9.307 -0.2308 -0.2519 -0.3671
30835SOL    HW194512   3.445   3.572   9.351 -0.4586  0.5661 -1.1941
30835SOL    HW294513   3.316   3.563   9.272 -1.6991 -1.2976  0.9157
30836SOL     OW94514   2.976   8.357   5.162  0.3935  0.2170 -0.1562
30836SOL    HW194515   3.005   8.277   5.118 -0.3935 -0.7760  1.0723
30836SOL    HW294516   3.006   8.347   5.252  0.4055  1.3940 -0.0054
30837SOL     OW94517   0.068   5.357  10.351  0.4094  0.2898  0.3387
30837SOL    HW194518   0.005   5.371  10.422  1.2140 -0.1186  1.1643
30837SOL    HW294519   0.152   5.347  10.396  1.1267  1.1699 -0.7518
30838SOL     OW94520   7.588   6.211   3.118  0.7831 -0.5285 -0.1859
30838SOL    HW194521   7.615   6.252   3.036  0.4323  0.5803  0.2406
30838SOL    HW294522   7.494   6.195   3.107  0.6507  0.0048  0.1549
30839SOL     OW94523   6.609   3.478   3.802  0.0653  0.1755 -0.3624
30839SOL    HW194524   6.599   3.568   3.773  0.1338 -0.0585 -1.1276
30839SOL    HW294525   6.641   3.431   3.725 -1.0689 -0.7227 -0.3100
30840SOL     OW94526   1.884   3.797   3.901 -0.2178  0.0937 -0.0978
30840SOL    HW194527   1.952   3.786   3.834 -1.1339 -1.5574 -0.8477
30840SOL    HW294528   1.894   3.886   3.933  1.0171  0.5287 -1.6148
30841SOL     OW94529   1.420   6.158   5.722 -0.2776 -0.1367  0.1526
30841SOL    HW194530   1.484   6.221   5.754 -1.0343 -0.2410  1.9467
30841SOL    HW294531   1.458   6.073   5.742 -0.3891 -0.2229  0.0073
30842SOL     OW94532   1.332   2.703   3.733 -0.1615  0.4560 -0.0396
30842SOL    HW194533   1.413   2.743   3.764  1.1756  1.1349 -3.8423
30842SOL    HW294534   1.266   2.772   3.743  0.7173  1.4325 -0.6853
30843SOL     OW94535   8.433   5.656   8.557 -0.0653 -0.3703  0.0331
30843SOL    HW194536   8.382   5.575   8.555 -0.4599 -0.1212 -1.4341
30843SOL    HW294537   8.405   5.701   8.636 -1.3569 -0.7371 -0.1921
30844SOL     OW94538  10.478   6.852   4.116  0.3067  0.1739 -0.2052
30844SOL    HW194539  10.459   6.828   4.025  0.3457  1.0745 -0.4545
30844SOL    HW294540  10.562   6.897   4.112  1.3889 -1.6587  0.5732
30845SOL     OW94541   4.990   1.659   6.760  0.0279 -0.4871  0.5764
30845SOL    HW194542   4.965   1.620   6.676  2.4178 -1.6529  0.3230
30845SOL    HW294543   4.907   1.676   6.804 -1.2353 -1.5986 -1.2488
30846SOL     OW94544  10.518   4.762   7.047  0.5666 -0.1713 -0.0856
30846SOL    HW194545  10.436   4.713   7.046  0.6358 -0.2850 -0.2037
30846SOL    HW294546  10.581   4.703   7.090  1.4111 -1.4250 -2.8363
30847SOL     OW94547   5.444  10.129   6.284 -0.3591 -0.5701 -0.0617
30847SOL    HW194548   5.429  10.055   6.226 -2.6134 -1.9354  2.0104
30847SOL    HW294549   5.421  10.206   6.232 -2.0657 -1.7102 -1.1081
30848SOL     OW94550   8.370  10.855  10.018  0.0778  0.2610 -0.1069
30848SOL    HW194551   8.289  10.846  10.068 -1.2584 -1.4478 -2.4069
30848SOL    HW294552   8.351  10.920   9.951  0.6991  0.0533 -0.4950
30849SOL     OW94553   2.410   8.648   7.422 -0.0983  0.2787 -0.0012
30849SOL    HW194554   2.422   8.624   7.513 -4.2258  1.1649  0.9585
30849SOL    HW294555   2.483   8.708   7.404  3.6452 -3.4530  1.0016
30850SOL     OW94556   3.640   9.734  10.494 -0.5307  0.2965 -0.0425
30850SOL    HW194557   3.595   9.656  10.462 -3.0914  0.5866  2.4175
30850SOL    HW294558   3.688   9.705  10.571  2.4223  0.3369 -1.7268
30851SOL     OW94559   6.231   1.463   4.641  0.1211 -0.2157  0.2666
30851SOL    HW194560   6.229   1.508   4.557 -0.3742  0.5271  0.6695
30851SOL    HW294561   6.295   1.511   4.693 -1.5672  1.0660  1.2520
30852SOL     OW94562   9.034   6.190   2.988  0.4873  0.1703 -0.1093
30852SOL    HW194563   9.067   6.100   2.987 -0.2221 -0.2918  3.5724
30852SOL    HW294564   8.942   6.181   3.013  0.9246  1.9285  2.5042
30853SOL     OW94565   2.376  10.176  10.374 -0.1186 -0.8540 -0.3645
30853SOL    HW194566   2.307  10.116  10.347  0.5241 -0.8953 -2.0026
30853SOL    HW294567   2.456  10.143  10.332  0.8140 -0.4656  1.0039
30854SOL     OW94568   4.550   7.448   8.588 -0.1104 -0.9668 -0.4956
30854SOL    HW194569   4.546   7.397   8.508  1.2846  0.0385 -1.2317
30854SOL    HW294570   4.574   7.537   8.560 -4.9056  0.9437  0.4023
30855SOL     OW94571   3.996  10.808   5.459 -0.4120  0.3104  0.3242
30855SOL    HW194572   4.049  10.736   5.425  0.1589 -0.0183  1.8711
30855SOL    HW294573   3.946  10.838   5.383  0.8438 -0.3735 -0.8108
30856SOL     OW94574   6.226   8.630   0.290  0.4061  0.4463  0.2369
30856SOL    HW194575   6.137   8.642   0.255  0.3415 -0.1502  0.1838
30856SOL    HW294576   6.265   8.563   0.233  1.0983  1.1330 -0.1075
30857SOL     OW94577  10.162   8.345   2.050 -0.2150 -0.0192 -0.4473
30857SOL    HW194578  10.149   8.357   1.956 -0.7954  1.6653 -0.1839
30857SOL    HW294579  10.254   8.318   2.059  0.1862  0.9942 -1.4105
30858SOL     OW94580  11.024   7.445  10.505  0.4323  0.3573  0.3143
30858SOL    HW194581  10.959   7.386  10.543  0.3800  1.7412  2.5806
30858SOL    HW294582  10.984   7.479  10.425 -0.3274 -1.1384  0.0399
30859SOL     OW94583   1.390   7.463   2.048 -0.5660  0.1160  0.0591
30859SOL    HW194584   1.472   7.444   2.094 -0.6421  0.3523  0.2919
30859SOL    HW294585   1.346   7.377   2.042 -0.8842  0.1869  1.0730
30860SOL     OW94586   2.158   3.499   4.947  0.6213 -0.1869 -0.0113
30860SOL    HW194587   2.203   3.419   4.921  1.5185  0.8398 -1.8774
30860SOL    HW294588   2.078   3.500   4.893  0.1692 -0.2347  0.6450
30861SOL     OW94589  10.523   9.703   0.039  0.0534 -0.2158  0.5380
30861SOL    HW194590  10.530   9.754   0.120  0.6843  0.5007  0.0529
30861SOL    HW294591  10.613   9.676   0.021  0.1456  0.7227 -0.5889
30862SOL     OW94592   8.022   8.995  10.608 -0.0369 -0.1132 -0.0307
30862SOL    HW194593   8.102   9.028  10.649  0.3440 -1.0913  0.0304
30862SOL    HW294594   8.000   9.060  10.541  0.4185  0.5104  0.4213
30863SOL     OW94595   1.064   9.735  10.171 -0.0888 -0.3408  0.1180
30863SOL    HW194596   1.044   9.819  10.130  0.3700 -0.7059 -0.9011
30863SOL    HW294597   1.082   9.757  10.262  1.8074  0.9643 -0.4872
30864SOL     OW94598   8.690   9.937  10.716 -0.5792 -0.0164  0.4375
30864SOL    HW194599   8.646  10.008  10.763 -0.5702 -0.2835  0.8574
30864SOL    HW294600   8.749   9.898  10.781 -0.6850 -0.4970  0.2498
30865SOL     OW94601   7.384   3.830   5.026 -0.4427  0.4334 -0.4041
30865SOL    HW194602   7.471   3.800   5.001 -0.8711  0.1065 -1.5859
30865SOL    HW294603   7.399   3.896   5.094  0.7314  0.5744 -0.7841
30866SOL     OW94604  10.428   0.706   9.182  1.1631 -0.1412 -0.0767
30866SOL    HW194605  10.426   0.613   9.205  1.5017 -0.0253  0.4354
30866SOL    HW294606  10.369   0.747   9.245  2.7146  0.2913  1.1722
30867SOL     OW94607   1.642   3.019   4.912 -0.2659 -0.1654 -0.5389
30867SOL    HW194608   1.670   3.012   5.003  0.0420 -0.5766 -0.6644
30867SOL    HW294609   1.706   2.967   4.863  0.3271  1.0878 -1.1356
30868SOL     OW94610  10.141   6.132   6.501  0.4428 -0.2121 -0.7298
30868SOL    HW194611  10.094   6.195   6.446  0.4844  1.0197  0.5788
30868SOL    HW294612  10.072   6.083   6.545  0.3907  0.2079 -0.3389
30869SOL     OW94613   2.099   1.850   2.272  0.0043 -1.1204 -0.2255
30869SOL    HW194614   2.091   1.796   2.193  0.6946  0.2941 -1.3164
30869SOL    HW294615   2.059   1.934   2.247  1.4176 -0.2095  0.4601
30870SOL     OW94616   6.953   5.176   4.318 -0.6333  0.1717  0.0345
30870SOL    HW194617   6.938   5.112   4.388  1.6943  2.2965  2.7604
30870SOL    HW294618   6.995   5.127   4.248  5.4926 -1.0504  3.7374
30871SOL     OW94619   7.061   0.885   8.754  0.3862 -0.1668 -0.0412
30871SOL    HW194620   7.097   0.920   8.836 -0.2006  2.7870 -0.9305
30871SOL    HW294621   7.109   0.932   8.686 -1.8491  0.3864 -1.3021
30872SOL     OW94622  10.442   3.799  10.949  0.4206  0.7974 -0.3097
30872SOL    HW194623  10.404   3.869  10.897 -0.2676 -0.4758 -1.5835
30872SOL    HW294624  10.372   3.734  10.957  1.1162  0.1241  0.6272
30873SOL     OW94625   4.117   3.812   0.589  0.2053  0.3499  0.3328
30873SOL    HW194626   4.083   3.889   0.634 -0.7464 -0.5614  1.2152
30873SOL    HW294627   4.084   3.738   0.639 -1.0236 -0.7517 -1.9257
30874SOL     OW94628   8.367   1.835   8.028  0.4953 -0.6937 -0.1295
30874SOL    HW194629   8.386   1.904   7.964  2.2413 -1.8517 -0.9556
30874SOL    HW294630   8.361   1.881   8.112 -2.5892  0.9688 -1.0944
30875SOL     OW94631   5.265   4.347   8.685  0.2722 -0.2346 -0.3852
30875SOL    HW194632   5.334   4.313   8.742 -0.1823  0.7654  0.7918
30875SOL    HW294633   5.193   4.286   8.695  0.6920 -0.8571 -1.0273
30876SOL     OW94634   5.137   1.672   2.986  1.3490 -0.1506 -0.1237
30876SOL    HW194635   5.129   1.736   2.915  1.2567 -1.8884 -1.7307
30876SOL    HW294636   5.089   1.712   3.059  0.2748  1.0924 -1.4514
30877SOL     OW94637   7.630   3.562   7.722 -0.0788  0.4923  0.2147
30877SOL    HW194638   7.545   3.527   7.750  1.1396 -1.3519  1.8238
30877SOL    HW294639   7.685   3.560   7.800  1.0401  3.2083 -0.3764
30878SOL     OW94640   5.797   0.311   2.881  0.0673  0.0138  0.2949
30878SOL    HW194641   5.738   0.354   2.942 -1.3719 -0.3846 -0.7617
30878SOL    HW294642   5.870   0.281   2.935 -0.3960  1.0532  1.5358
30879SOL     OW94643  10.085   7.980   6.152  0.6477 -0.6033  0.2069
30879SOL    HW194644  10.115   7.939   6.071  0.8744  0.1644 -0.1068
30879SOL    HW294645  10.007   8.029   6.125  2.1828  1.8248 -0.1557
30880SOL     OW94646   6.010  10.636   8.945 -0.3586 -0.8485  0.5929
30880SOL    HW194647   5.923  10.675   8.945 -0.1106 -0.2463 -0.7467
30880SOL    HW294648   6.069  10.708   8.966 -0.2475 -1.5611  3.1132
30881SOL     OW94649   8.730   3.444   5.008  0.1593 -0.3861 -0.1818
30881SOL    HW194650   8.819   3.440   5.043 -0.2498  1.2500  1.1767
30881SOL    HW294651   8.730   3.518   4.947 -0.0864 -0.8581 -0.7670
30882SOL     OW94652   5.831   6.686   0.336  0.3911 -0.3613  0.4111
30882SOL    HW194653   5.759   6.718   0.390 -0.1429 -0.6245 -0.1303
30882SOL    HW294654   5.804   6.597   0.310  1.5205 -0.9924  1.3114
30883SOL     OW94655   8.254   5.443   7.816  0.8099 -0.5646  0.2592
30883SOL    HW194656   8.243   5.399   7.901 -2.0031 -1.2888 -0.3757
30883SOL    HW294657   8.192   5.516   7.819 -2.0265 -2.6194 -2.3276
30884SOL     OW94658   3.575   9.943   9.945 -0.2500 -0.0866 -0.1720
30884SOL    HW194659   3.549   9.882  10.014 -0.8165  1.4476  1.0588
30884SOL    HW294660   3.646   9.994   9.984 -1.0506  1.2764 -0.4444
30885SOL     OW94661   1.948   2.872   9.245  0.4170 -0.1535  0.3880
30885SOL    HW194662   1.925   2.792   9.293 -0.8493  1.0722  1.9108
30885SOL    HW294663   1.888   2.872   9.170  0.2478 -0.5194  0.5181
30886SOL     OW94664   5.207   0.331   5.414  0.7095  0.5460  0.4834
30886SOL    HW194665   5.180   0.239   5.411 -2.4745  1.3521  0.5600
30886SOL    HW294666   5.263   0.342   5.338 -1.1806 -0.8668 -1.2319
30887SOL     OW94667   2.397   2.321   0.322  0.0012  0.4037  0.0389
30887SOL    HW194668   2.483   2.320   0.279 -1.0706  0.6541 -2.2982
30887SOL    HW294669   2.373   2.229   0.331  0.8389  0.3033  1.4833
30888SOL     OW94670   4.891   4.791   4.783  0.0691 -0.0785 -0.5748
30888SOL    HW194671   4.961   4.765   4.724  0.6209  1.3176 -0.5823
30888SOL    HW294672   4.821   4.822   4.726  0.7759  1.7003 -0.5508
30889SOL     OW94673   2.846   6.497  10.113 -0.1460  0.1850 -0.0337
30889SOL    HW194674   2.902   6.436  10.162  0.7984 -0.3948 -1.7589
30889SOL    HW294675   2.757   6.473  10.138  0.2928  0.3388  1.8691
30890SOL     OW94676   6.117  10.404   2.169  0.3095  0.0888  0.2018
30890SOL    HW194677   6.075  10.344   2.107  0.7399 -0.5928  0.5485
30890SOL    HW294678   6.165  10.466   2.115 -2.0521  1.6503 -0.2750
30891SOL     OW94679   7.956   9.930  10.570  0.2978  0.2687  0.2147
30891SOL    HW194680   7.868   9.941  10.534 -0.3353 -1.7244  1.0401
30891SOL    HW294681   8.005   9.889  10.499  0.8558  2.1258 -0.5443
30892SOL     OW94682   6.949   6.504   5.756  0.1637  0.3280  0.4449
30892SOL    HW194683   6.926   6.435   5.693 -1.2373  3.1327 -2.4512
30892SOL    HW294684   6.883   6.496   5.825 -1.5137  0.1750 -1.0841
30893SOL     OW94685   9.135   2.942   8.561  0.2645 -0.2880  0.5089
30893SOL    HW194686   9.164   2.900   8.643 -2.4312 -1.3561  1.0430
30893SOL    HW294687   9.043   2.961   8.576 -0.0468  0.4447 -1.9514
30894SOL     OW94688   6.573   6.835   8.456 -0.1040 -0.1292 -0.2312
30894SOL    HW194689   6.492   6.868   8.494 -0.1359  0.5212 -0.8350
30894SOL    HW294690   6.581   6.746   8.490 -1.5684 -0.5509 -0.9097
30895SOL     OW94691   1.312   0.996   0.543 -0.9095 -0.0418  0.1439
30895SOL    HW194692   1.292   0.988   0.636 -0.9601  0.0376  0.1400
30895SOL    HW294693   1.243   0.946   0.499  0.8034 -2.7046  0.2807
30896SOL     OW94694   1.907  10.639  10.012  0.0156 -0.0154  0.3424
30896SOL    HW194695   1.874  10.572   9.953  0.2988  1.8019 -2.0516
30896SOL    HW294696   1.986  10.601  10.050  0.4055 -0.9169 -1.2823
30897SOL     OW94697   6.321   4.826   0.269 -0.5044  0.3125  0.2590
30897SOL    HW194698   6.257   4.814   0.200  0.0205 -0.3156 -0.1259
30897SOL    HW294699   6.359   4.912   0.252  1.4394 -0.8555 -1.7958
30898SOL     OW94700   1.414   9.386   7.712 -0.5674  0.3207  0.1037
30898SOL    HW194701   1.368   9.312   7.750 -2.2795  1.2919  0.0048
30898SOL    HW294702   1.379   9.462   7.758  0.4676  1.1625 -0.4553
30899SOL     OW94703   5.059   3.763   2.958  0.3088 -0.2846 -0.6018
30899SOL    HW194704   5.142   3.810   2.959  0.4978 -0.4912 -2.7438
30899SOL    HW294705   5.041   3.745   3.050  4.9721 -4.3849 -0.0672
30900SOL     OW94706   3.915   5.075   5.242 -0.2684  0.5408  0.4497
30900SOL    HW194707   3.908   5.005   5.306  0.6864 -1.9463 -1.9923
30900SOL    HW294708   3.937   5.031   5.160  0.9598  3.7642 -1.1173
30901SOL     OW94709   8.161   1.028   0.917 -0.8486 -0.4405 -0.5151
30901SOL    HW194710   8.090   1.047   0.855 -0.2493 -1.2153 -1.4660
30901SOL    HW294711   8.225   0.978   0.866 -0.3168 -1.0737  0.7245
30902SOL     OW94712   0.283   3.097   1.746  0.1967  0.3406  0.8229
30902SOL    HW194713   0.328   3.012   1.742  0.9164  0.6983  1.1649
30902SOL    HW294714   0.200   3.082   1.700  0.2028 -0.6156  1.0939
30903SOL     OW94715   9.620   6.887   8.239  0.3413  0.0550  0.1776
30903SOL    HW194716   9.540   6.935   8.261  0.4216  0.2955 -0.0620
30903SOL    HW294717   9.690   6.934   8.285  0.8857  2.0404 -2.4828
30904SOL     OW94718   9.114   2.251   0.592  0.1239  0.3350 -0.0876
30904SOL    HW194719   9.043   2.188   0.604 -1.4525  1.8737 -0.8323
30904SOL    HW294720   9.124   2.257   0.497 -1.6442  3.0677 -0.2298
30905SOL     OW94721   4.783   4.259   7.890  0.6014  0.0631 -0.6630
30905SOL    HW194722   4.763   4.264   7.796  0.4579 -0.3074 -0.6511
30905SOL    HW294723   4.879   4.265   7.894  0.6501 -0.4967 -0.8760
30906SOL     OW94724   8.033   2.131   2.369  0.4648  0.3803 -0.0744
30906SOL    HW194725   8.017   2.176   2.452 -2.0961 -1.9989  0.8702
30906SOL    HW294726   8.100   2.065   2.390  1.2662  1.0473 -0.4545
30907SOL     OW94727   4.705   6.278   7.286  0.1085 -0.6481  0.1896
30907SOL    HW194728   4.736   6.211   7.346  0.0355 -1.7240 -0.9294
30907SOL    HW294729   4.614   6.294   7.312 -0.1666 -1.6721 -0.1146
30908SOL     OW94730   0.164   4.597   3.967 -0.1648 -0.1346  0.2342
30908SOL    HW194731   0.139   4.547   4.044 -0.4179 -1.6781 -0.8105
30908SOL    HW294732   0.251   4.630   3.987  0.7715 -2.5053  0.2800
30909SOL     OW94733   8.783   1.380   7.694 -0.3563  0.5786 -0.1333
30909SOL    HW194734   8.690   1.398   7.711 -0.1928 -0.2070  1.7402
30909SOL    HW294735   8.821   1.467   7.680 -1.5749  0.8396 -2.2703
30910SOL     OW94736   6.426   9.434   7.030 -0.3855  0.4587  0.8447
30910SOL    HW194737   6.446   9.356   7.082  1.5153 -0.0343 -0.4977
30910SOL    HW294738   6.429   9.404   6.940 -2.1383  1.5992  0.3735
30911SOL     OW94739   1.314   4.101   0.708 -0.4720  0.1680 -0.0457
30911SOL    HW194740   1.265   4.153   0.644  0.8576 -0.3744 -1.5567
30911SOL    HW294741   1.248   4.077   0.774 -1.6658  1.5812 -0.6654
30912SOL     OW94742   7.685   1.318   6.571  0.6151  0.4591  0.3770
30912SOL    HW194743   7.767   1.335   6.525  1.7377  1.2459  2.4906
30912SOL    HW294744   7.686   1.380   6.645 -1.9428  0.5581  0.4399
30913SOL     OW94745   0.766   0.325   0.766  0.4038  0.1245  0.5360
30913SOL    HW194746   0.680   0.366   0.782 -0.6921 -1.3113 -1.3156
30913SOL    HW294747   0.789   0.351   0.677  2.1242  0.8019  1.1443
30914SOL     OW94748   3.069   5.079   8.693  0.4803  0.1524  0.1195
30914SOL    HW194749   3.145   5.136   8.685  1.0349 -0.7749 -2.2002
30914SOL    HW294750   3.048   5.054   8.603 -0.4626 -2.3271  0.9266
30915SOL     OW94751   3.382   4.304  10.898 -0.4447 -0.3826 -0.3309
30915SOL    HW194752   3.437   4.267  10.967 -0.6345 -0.4536 -0.2174
30915SOL    HW294753   3.430   4.286  10.817  0.0197  0.1425 -0.1789
30916SOL     OW94754   1.298   4.253   5.037  0.2334 -0.5443 -0.2458
30916SOL    HW194755   1.380   4.228   5.079  0.0553 -2.2662 -0.8371
30916SOL    HW294756   1.290   4.347   5.054  2.7344 -0.1392 -0.8630
30917SOL     OW94757   7.100   4.408   4.278  0.1598 -0.9296 -0.2873
30917SOL    HW194758   7.050   4.452   4.347  0.9742 -1.3446  0.5794
30917SOL    HW294759   7.072   4.451   4.197  1.2221  1.4843  0.5405
30918SOL     OW94760   2.512   3.616   7.593 -0.2110  0.0844  0.4673
30918SOL    HW194761   2.520   3.552   7.522 -0.8922  0.0582  0.4058
30918SOL    HW294762   2.557   3.576   7.667 -1.1434 -0.7457  0.6099
30919SOL     OW94763   2.117   6.718   5.929 -0.2331 -0.3205  0.3226
30919SOL    HW194764   2.175   6.791   5.949 -0.9563  0.1313  0.8418
30919SOL    HW294765   2.121   6.710   5.834  0.2415  0.0725  0.3051
30920SOL     OW94766   8.527   8.955   7.232  0.1017  0.2362  0.0239
30920SOL    HW194767   8.478   8.874   7.215  0.1604  0.3616 -0.8011
30920SOL    HW294768   8.475   9.024   7.190 -0.3455  0.7543  1.3817
30921SOL     OW94769   1.158   2.399   3.574 -0.4579  0.6959 -0.3405
30921SOL    HW194770   1.149   2.475   3.517 -1.7661  0.9182  0.1329
30921SOL    HW294771   1.081   2.345   3.554 -0.2837  0.1859  0.3366
30922SOL     OW94772   1.517   2.518   2.856 -0.2428 -0.2456  0.6005
30922SOL    HW194773   1.484   2.604   2.831 -0.6099 -0.3186  0.8200
30922SOL    HW294774   1.493   2.461   2.783  0.6203 -0.0238  0.1400
30923SOL     OW94775   0.583   3.701   9.981  0.0011  0.0620  0.3365
30923SOL    HW194776   0.644   3.750   9.924 -0.6163  1.2604  0.6689
30923SOL    HW294777   0.517   3.766  10.006 -1.5495 -1.2747 -0.1895
30924SOL     OW94778   2.551   7.795   2.800 -0.3089 -0.1708 -0.4940
30924SOL    HW194779   2.467   7.819   2.839 -1.1902 -2.2114 -0.9763
30924SOL    HW294780   2.547   7.832   2.712  0.4015  1.8637  0.2840
30925SOL     OW94781   0.568   5.076   4.626  0.1359 -0.8223 -0.7710
30925SOL    HW194782   0.498   5.091   4.563  0.1679 -0.9393 -0.8339
30925SOL    HW294783   0.548   4.991   4.665 -0.8586  0.0128  0.6400
30926SOL     OW94784   3.290   2.963   9.379  0.6516 -0.9138 -0.6995
30926SOL    HW194785   3.264   2.917   9.299  2.1882 -1.8078 -0.7149
30926SOL    HW294786   3.239   2.921   9.448 -1.8054  0.8206 -1.2925
30927SOL     OW94787   2.024   8.679   3.664 -0.1221  0.3248 -0.2131
30927SOL    HW194788   2.011   8.761   3.616  0.1497  1.5858  1.7584
30927SOL    HW294789   1.983   8.613   3.609 -0.2587  1.7459 -1.9244
30928SOL     OW94790   2.701  11.061   6.882  0.5699 -0.5250 -0.3076
30928SOL    HW194791   2.740  11.103   6.958 -0.5698 -1.9764  1.1533
30928SOL    HW294792   2.745  10.976   6.876  0.4310 -0.5504 -1.0983
30929SOL     OW94793   6.536   6.699   4.190  0.0108  0.5261  0.1065
30929SOL    HW194794   6.469   6.683   4.257 -0.3498 -0.8338 -0.5452
30929SOL    HW294795   6.618   6.700   4.239 -0.2563 -0.3938  0.6059
30930SOL     OW94796   6.999   8.257   2.726  0.1552 -0.1451 -0.0926
30930SOL    HW194797   6.997   8.286   2.635  1.7313 -0.7504 -0.3516
30930SOL    HW294798   7.020   8.163   2.721  0.0186 -0.2417  0.8862
30931SOL     OW94799   2.196   2.587   5.326 -0.2137  0.2852 -0.2256
30931SOL    HW194800   2.210   2.606   5.233 -0.4859 -0.9630 -0.5432
30931SOL    HW294801   2.266   2.634   5.371  0.2702  0.4359 -1.1103
30932SOL     OW94802   7.468   1.324   3.952  0.1506  0.7062  0.6560
30932SOL    HW194803   7.521   1.271   3.891 -1.6713 -1.1292  0.5792
30932SOL    HW294804   7.450   1.266   4.025 -1.1179  1.5471  1.0420
30933SOL     OW94805   5.647   8.731   4.059 -0.2195 -0.1550  0.5662
30933SOL    HW194806   5.691   8.761   4.139 -1.7364 -0.1542  1.4401
30933SOL    HW294807   5.570   8.787   4.052 -0.0377 -0.0675 -1.0044
30934SOL     OW94808   3.069   6.708   5.228 -0.2281  0.0914  0.1557
30934SOL    HW194809   3.106   6.658   5.155  0.6320  0.6695  0.1858
30934SOL    HW294810   3.144   6.753   5.267 -0.6356 -0.3818  1.5424
30935SOL     OW94811   4.007  10.749   4.391  0.3292  0.5127 -0.1193
30935SOL    HW194812   3.928  10.713   4.351 -0.2712  1.7010 -0.0663
30935SOL    HW294813   4.050  10.674   4.433  0.8509 -0.7362 -2.7086
30936SOL     OW94814   8.915   6.141   7.405  0.1940  0.5505 -0.4162
30936SOL    HW194815   8.829   6.166   7.437  0.8056  1.8021  0.3133
30936SOL    HW294816   8.906   6.048   7.381 -1.1880  0.5133  0.1668
30937SOL     OW94817   9.715   0.563   7.807  0.0973  0.1215 -0.3437
30937SOL    HW194818   9.734   0.628   7.739  1.4312  0.4940  0.3492
30937SOL    HW294819   9.707   0.615   7.887  3.0030 -0.6444  0.5649
30938SOL     OW94820   0.515   6.200   0.470 -0.0843  0.2740  0.1298
30938SOL    HW194821   0.474   6.238   0.392  1.3482  0.4512 -0.5693
30938SOL    HW294822   0.467   6.238   0.543 -3.2267 -1.8420 -0.5861
30939SOL     OW94823   9.396   2.365   6.041  0.6268  0.3353  0.1420
30939SOL    HW194824   9.381   2.452   6.004  0.1897  0.9064  1.5985
30939SOL    HW294825   9.368   2.373   6.132  0.3212 -1.4174  0.2220
30940SOL     OW94826   6.080   3.385   1.120 -0.0979 -0.4599  0.3031
30940SOL    HW194827   6.092   3.391   1.026  0.1743 -0.9823  0.3006
30940SOL    HW294828   6.167   3.405   1.156 -0.5329  1.2320  0.5143
30941SOL     OW94829   0.779  10.618   4.642 -0.1815 -0.1299  0.1989
30941SOL    HW194830   0.696  10.575   4.621 -2.6821  3.1304  2.3676
30941SOL    HW294831   0.778  10.698   4.589  2.3876 -0.7076 -0.8353
30942SOL     OW94832   1.331   2.810  10.945 -0.9613 -0.2548  0.6573
30942SOL    HW194833   1.292   2.859  11.018 -1.7943 -1.4750  1.0666
30942SOL    HW294834   1.364   2.730  10.986  2.8111  1.0178  0.4988
30943SOL     OW94835   2.609   3.853   9.741  0.2374 -0.5287 -0.0474
30943SOL    HW194836   2.547   3.906   9.792 -0.5734 -0.7501 -0.7830
30943SOL    HW294837   2.694   3.897   9.754  0.0078 -0.4188  1.2487
30944SOL     OW94838   9.190   3.328   7.036  0.0944 -0.3848 -0.2957
30944SOL    HW194839   9.108   3.281   7.046 -0.7193  1.0740  0.0479
30944SOL    HW294840   9.251   3.284   7.095 -0.5277 -1.2262 -0.2670
30945SOL     OW94841   6.081   4.580   4.065  0.2387 -0.4520  0.1072
30945SOL    HW194842   6.113   4.585   3.975  1.1014 -0.9445  0.3738
30945SOL    HW294843   6.121   4.500   4.100 -0.7841 -0.7518  0.6611
30946SOL     OW94844   8.639   9.369   5.968 -0.1055 -0.7320  0.2618
30946SOL    HW194845   8.544   9.371   5.983 -0.4539 -0.5683 -1.7042
30946SOL    HW294846   8.676   9.412   6.044 -1.7763  1.3270  0.0211
30947SOL     OW94847   9.805   9.860   7.124 -0.3158 -0.5249 -0.1327
30947SOL    HW194848   9.828   9.768   7.110  1.3265 -0.5431  2.1904
30947SOL    HW294849   9.730   9.857   7.184  1.8387 -0.4395  2.7519
30948SOL     OW94850   4.539   4.113   7.371 -0.0635  0.5620 -0.3002
30948SOL    HW194851   4.511   4.183   7.430  1.7659  0.9097  0.1865
30948SOL    HW294852   4.571   4.044   7.428 -0.4329 -0.0582 -0.8303
30949SOL     OW94853   1.013   8.708   1.241 -0.0728 -0.2752  0.4049
30949SOL    HW194854   0.958   8.741   1.311 -1.7767 -0.6274 -0.7199
30949SOL    HW294855   1.031   8.617   1.265 -2.1055 -0.9326 -0.4205
30950SOL     OW94856   3.873   3.804   8.340 -0.6050  0.1105  0.1532
30950SOL    HW194857   3.823   3.817   8.259  0.0786  0.0790 -0.2877
30950SOL    HW294858   3.922   3.885   8.351  0.7995 -0.6003 -0.5492
30951SOL     OW94859   7.119   1.312   7.116  0.8390  0.3858 -0.2624
30951SOL    HW194860   7.158   1.388   7.159  1.2146 -0.1392  0.3447
30951SOL    HW294861   7.026   1.334   7.109  1.0767  1.2627 -0.8912
30952SOL     OW94862   9.041   5.706   6.228  0.2848  0.2916 -0.2723
30952SOL    HW194863   9.065   5.618   6.198  0.6790  0.4482 -0.4283
30952SOL    HW294864   8.945   5.705   6.231  0.2925 -0.1919 -0.1188
30953SOL     OW94865   1.038   4.879   8.836  0.6224 -0.0517 -0.0947
30953SOL    HW194866   1.131   4.860   8.845  0.4732 -2.0124 -1.7048
30953SOL    HW294867   1.032   4.937   8.760  0.3968 -3.2139 -2.7167
30954SOL     OW94868   8.847   9.844   6.663  0.0461  0.3539  0.5420
30954SOL    HW194869   8.868   9.937   6.662  1.3592  0.0720 -0.5747
30954SOL    HW294870   8.759   9.840   6.701 -1.2952  2.3225 -2.0306
30955SOL     OW94871  10.678   2.715  10.047 -0.1154 -0.2762 -0.5580
30955SOL    HW194872  10.608   2.780  10.056 -0.0354 -0.2528 -0.1002
30955SOL    HW294873  10.632   2.631  10.045 -0.4102 -0.1353 -3.2970
30956SOL     OW94874   1.521   1.380  10.480  0.0708 -0.1335 -0.3442
30956SOL    HW194875   1.555   1.311  10.423  0.8030  0.4638 -0.6496
30956SOL    HW294876   1.587   1.390  10.548  1.0680  1.6927 -1.4738
30957SOL     OW94877   0.594   7.431   6.361  0.2946 -0.0918  0.3502
30957SOL    HW194878   0.666   7.383   6.320 -0.5624 -0.7801 -0.3812
30957SOL    HW294879   0.622   7.522   6.360  0.2038 -0.0312 -2.0113
30958SOL     OW94880   0.195   2.664  10.111  0.0422 -0.1219 -0.0163
30958SOL    HW194881   0.239   2.579  10.101  0.4897  0.0639  0.3094
30958SOL    HW294882   0.126   2.647  10.175 -1.0844 -0.6733 -1.3393
30959SOL     OW94883   7.859   1.255   0.465 -0.0595  0.0921 -0.3574
30959SOL    HW194884   7.790   1.231   0.527 -1.8039  1.7459 -1.5505
30959SOL    HW294885   7.903   1.329   0.504  0.3746 -0.3133 -0.0679
30960SOL     OW94886   8.806   8.289   9.170 -0.1849 -0.3543  0.5816
30960SOL    HW194887   8.792   8.344   9.092 -0.5174 -0.8952  0.2563
30960SOL    HW294888   8.735   8.313   9.229 -0.7179 -0.9117  0.1685
30961SOL     OW94889  10.471   3.372   7.218  0.2491  0.7668 -0.2346
30961SOL    HW194890  10.460   3.286   7.258 -4.1567  0.8162 -0.7843
30961SOL    HW294891  10.466   3.434   7.291  0.7055  0.6578 -0.1067
30962SOL     OW94892  11.059   2.643   9.205  0.6106 -0.2046  0.5470
30962SOL    HW194893  11.041   2.648   9.111 -1.8407 -1.2202  0.8773
30962SOL    HW294894  11.145   2.683   9.215  1.9182 -1.9101 -2.4039
30963SOL     OW94895   6.959   1.422   7.671  0.2649 -1.1697 -0.3328
30963SOL    HW194896   6.922   1.360   7.609  3.5826 -3.2346 -0.5018
30963SOL    HW294897   7.049   1.436   7.640  0.2736  2.2969  0.8206
30964SOL     OW94898   1.866   9.890   1.473 -0.2787  0.1492  0.4709
30964SOL    HW194899   1.788   9.835   1.475 -1.2186  1.4165  2.4341
30964SOL    HW294900   1.832   9.979   1.457  0.7433  0.7251  1.3452
30965SOL     OW94901   6.616   6.261   0.131  0.5116 -0.6162  0.8851
30965SOL    HW194902   6.535   6.247   0.081  1.6887 -2.3233 -0.6539
30965SOL    HW294903   6.632   6.355   0.122 -0.3982 -0.5337 -0.2591
30966SOL     OW94904   8.472   2.577   2.352 -0.4548  0.0549 -0.3198
30966SOL    HW194905   8.407   2.560   2.284  0.3248 -1.7012 -0.7128
30966SOL    HW294906   8.555   2.548   2.313  0.8317  3.2708 -0.2717
30967SOL     OW94907   3.020   8.144   6.598 -0.2754 -0.3859  0.2656
30967SOL    HW194908   3.078   8.070   6.618  1.3492  0.0048 -2.5253
30967SOL    HW294909   3.079   8.217   6.581 -1.7471  0.8729  0.3741
30968SOL     OW94910   4.047   2.402   2.114  0.0327 -0.9260  0.3713
30968SOL    HW194911   4.085   2.314   2.106 -0.3362 -1.0470 -0.0654
30968SOL    HW294912   3.963   2.396   2.069 -0.7405 -0.7854  1.7340
30969SOL     OW94913   5.734   1.645   0.610  0.0988  0.0112 -0.2782
30969SOL    HW194914   5.663   1.581   0.609 -1.0317  1.1960  0.4071
30969SOL    HW294915   5.766   1.643   0.700  0.8170 -0.3878 -0.5410
30970SOL     OW94916   5.302   5.145   8.612  0.2484  0.2394 -0.1523
30970SOL    HW194917   5.302   5.156   8.707 -0.5047 -2.1129  0.1954
30970SOL    HW294918   5.353   5.219   8.579 -0.8629  2.0401  1.9339
30971SOL     OW94919   8.686  10.194   2.269 -0.4361  0.0820  0.3000
30971SOL    HW194920   8.712  10.231   2.353  1.1569 -0.7348  0.2116
30971SOL    HW294921   8.592  10.212   2.262 -0.2562  1.6143  1.4807
30972SOL     OW94922   2.715   0.568   4.482 -0.1565  1.2180 -0.7163
30972SOL    HW194923   2.740   0.645   4.432 -0.2211  1.6728 -0.0637
30972SOL    HW294924   2.669   0.602   4.559  0.0619  0.5513 -0.2710
30973SOL     OW94925  10.658   0.645  10.065 -0.0398 -0.1769  0.2815
30973SOL    HW194926  10.605   0.592  10.005  1.4504  0.0789 -1.3374
30973SOL    HW294927  10.597   0.671  10.134 -1.9735 -0.0812 -1.3667
30974SOL     OW94928  10.282   6.817   5.196 -0.0293 -0.4197 -0.1923
30974SOL    HW194929  10.305   6.907   5.170 -1.8426 -0.3923 -1.8976
30974SOL    HW294930  10.216   6.790   5.133  1.8416 -3.7126 -0.9664
30975SOL     OW94931   4.774   0.439  10.392 -0.7197 -0.1765  0.0153
30975SOL    HW194932   4.867   0.439  10.369 -0.8225  0.4076 -0.4248
30975SOL    HW294933   4.769   0.385  10.471  0.1623  0.6768  0.6930
30976SOL     OW94934   4.702   6.076   3.981 -0.4782 -0.5331  0.2235
30976SOL    HW194935   4.669   6.070   3.891 -2.0983 -1.1036  0.8190
30976SOL    HW294936   4.756   5.998   3.992 -0.8926 -0.8616 -0.0275
30977SOL     OW94937   6.309   2.382  11.096 -0.0417  0.2218 -0.5656
30977SOL    HW194938   6.370   2.308  11.100  0.0747  0.3694  2.1961
30977SOL    HW294939   6.226   2.343  11.069  0.0140 -0.9790  0.8452
30978SOL     OW94940   1.835   1.314   8.825 -0.3786  0.3255  0.2581
30978SOL    HW194941   1.787   1.393   8.851  1.8387  1.2484  1.8310
30978SOL    HW294942   1.799   1.245   8.881 -2.1056  0.2029 -0.9015
30979SOL     OW94943   6.105   6.813   3.049  0.6340 -0.5275  0.3012
30979SOL    HW194944   6.171   6.761   3.095 -0.3709 -1.2979  0.9290
30979SOL    HW294945   6.118   6.902   3.082  1.1477 -0.7309  0.6624
30980SOL     OW94946  10.632   8.496   2.153  0.4288 -0.0401 -0.1475
30980SOL    HW194947  10.605   8.576   2.198 -0.0822 -0.1836 -0.1884
30980SOL    HW294948  10.638   8.522   2.061  3.3819  0.7636  0.1617
30981SOL     OW94949   5.097   2.099   5.492  0.1427  0.0187 -0.4581
30981SOL    HW194950   5.080   2.025   5.434 -2.1344  0.9357 -1.0889
30981SOL    HW294951   5.077   2.176   5.438 -0.2758  0.9560  0.9872
30982SOL     OW94952   7.083   2.285  10.887 -0.2087 -0.0007 -0.7136
30982SOL    HW194953   7.057   2.245  10.971  0.0505 -2.8934 -1.8904
30982SOL    HW294954   7.001   2.299  10.841 -0.2059 -1.7927 -1.3370
30983SOL     OW94955   4.982   3.905   6.388  0.3711  0.0708 -0.3248
30983SOL    HW194956   4.901   3.888   6.436  0.2991  1.3817  0.0525
30983SOL    HW294957   4.976   3.998   6.362  1.4188 -0.0100 -0.9253
30984SOL     OW94958   7.021  10.078   0.676  0.2822  0.1535 -0.1733
30984SOL    HW194959   7.020  10.169   0.706  0.2687  0.3228 -0.6872
30984SOL    HW294960   7.004  10.083   0.582  1.2033 -0.3156 -0.3745
30985SOL     OW94961   0.079   3.758   4.355  0.1309  0.1807 -0.0385
30985SOL    HW194962   0.077   3.722   4.443  0.4955  2.7499  1.1284
30985SOL    HW294963   0.046   3.848   4.366  0.3528  0.6273 -2.4937
30986SOL     OW94964   9.593   9.707   9.027  0.8093  0.2381 -0.2555
30986SOL    HW194965   9.581   9.781   8.968 -2.2498  0.5735  0.5925
30986SOL    HW294966   9.540   9.637   8.989  0.1596 -0.0824  1.1662
30987SOL     OW94967   0.768   0.214   2.190  0.3474 -0.6513 -0.3913
30987SOL    HW194968   0.686   0.176   2.220 -0.1229  0.6384  0.0004
30987SOL    HW294969   0.809   0.250   2.269 -1.1284  3.2309 -1.1662
30988SOL     OW94970   3.064   6.184   0.874 -0.0577  0.4831  0.7742
30988SOL    HW194971   2.995   6.239   0.837 -0.1304 -0.0570  0.1009
30988SOL    HW294972   3.132   6.181   0.807 -0.5813 -1.2404  0.2411
30989SOL     OW94973   4.152   9.372   9.025  0.1975 -0.0245 -0.5825
30989SOL    HW194974   4.108   9.411   9.101 -1.0466  1.1880 -1.8727
30989SOL    HW294975   4.225   9.323   9.063 -1.9371 -1.7527  1.6045
30990SOL     OW94976   5.344   8.312   5.546 -0.6944 -0.3040 -1.2776
30990SOL    HW194977   5.363   8.337   5.637  1.6393  1.8213 -2.2550
30990SOL    HW294978   5.407   8.242   5.527  2.5367  2.6911 -2.6699
30991SOL     OW94979   3.700  10.674   2.851 -1.0429 -0.5486  1.0082
30991SOL    HW194980   3.711  10.582   2.826 -0.0055 -0.1866  0.0531
30991SOL    HW294981   3.773  10.691   2.910  1.3058  0.7212 -2.0191
30992SOL     OW94982   1.922   0.732   5.676  0.6529  0.4643  0.7957
30992SOL    HW194983   1.892   0.694   5.593  0.4499  0.6553  0.7824
30992SOL    HW294984   1.949   0.821   5.653 -1.2428  1.2285  1.2661
30993SOL     OW94985   0.569   8.832  10.188  0.2748 -0.4307 -0.4866
30993SOL    HW194986   0.621   8.773  10.134  0.9348 -0.6135  0.3228
30993SOL    HW294987   0.554   8.783  10.269 -1.1354 -0.3612 -0.6717
30994SOL     OW94988   6.516   5.224   1.150 -0.0969 -0.3340  0.1543
30994SOL    HW194989   6.486   5.312   1.126  0.3138 -0.1001  0.4938
30994SOL    HW294990   6.574   5.237   1.225 -2.8264 -1.1825  2.6418
30995SOL     OW94991  10.797   3.009   1.569 -0.2073 -0.3012 -0.1958
30995SOL    HW194992  10.786   2.937   1.632  0.8316  0.0978  0.4892
30995SOL    HW294993  10.810   3.086   1.624  1.5508 -0.0686 -0.8554
30996SOL     OW94994   8.932   1.407   4.560  0.0625 -0.0571  0.1123
30996SOL    HW194995   8.893   1.478   4.611 -1.5193  0.2773 -1.4615
30996SOL    HW294996   8.981   1.356   4.624 -0.6156  1.1630  1.6881
30997SOL     OW94997   0.139   5.633   0.253  0.2984  0.6007  0.4381
30997SOL    HW194998   0.053   5.624   0.211 -0.5956 -2.3472  2.5227
30997SOL    HW294999   0.178   5.546   0.245  2.6924  1.5944  0.4783
30998SOL     OW95000  10.066   8.551   8.105 -0.3596 -0.4446 -0.3072
30998SOL    HW195001  10.003   8.609   8.062 -0.3024 -1.9014 -2.5251
30998SOL    HW295002  10.012   8.481   8.142 -0.2301 -0.3213  0.1228
30999SOL     OW95003  11.023   4.839   7.995 -0.4620  0.1156 -0.3704
30999SOL    HW195004  10.927   4.845   7.998 -0.4231  0.4691  0.6925
30999SOL    HW295005  11.044   4.832   7.902 -1.6371 -2.1705 -0.5323
31000SOL     OW95006  10.567   4.942   7.752  0.3224  0.0987 -0.3032
31000SOL    HW195007  10.490   4.964   7.804 -0.1485 -1.4045 -0.3178
31000SOL    HW295008  10.634   5.004   7.782 -0.7061  1.0393  0.1321
31001SOL     OW95009   7.819  10.808   0.173 -0.0583 -0.3709  0.2877
31001SOL    HW195010   7.900  10.843   0.211 -0.2294 -1.2056  1.4824
31001SOL    HW295011   7.761  10.884   0.167 -0.9318 -0.5165  4.1761
31002SOL     OW95012   1.659  10.852   2.265 -0.0288 -0.1004 -0.0906
31002SOL    HW195013   1.638  10.943   2.243 -0.4546  0.0048  0.7167
31002SOL    HW295014   1.642  10.846   2.359  0.8780 -0.7745  0.0366
31003SOL     OW95015   9.420   7.469   7.932 -0.1591  0.3750  0.2213
31003SOL    HW195016   9.373   7.501   7.855 -0.9714 -3.2456 -0.9868
31003SOL    HW295017   9.355   7.469   8.001 -0.6648 -0.2928 -0.2397
31004SOL     OW95018   3.408   2.148   5.598  0.2396  0.4103  0.2906
31004SOL    HW195019   3.377   2.058   5.586  1.4013 -0.0321  0.4583
31004SOL    HW295020   3.346   2.186   5.660  1.2773 -1.1845  2.4582
31005SOL     OW95021   8.584   5.918   8.554 -0.4725 -0.0529  0.2114
31005SOL    HW195022   8.549   5.845   8.503  1.2868 -2.2455  1.9193
31005SOL    HW295023   8.642   5.964   8.493  0.8242 -2.0153 -0.1467
31006SOL     OW95024   9.490   4.125   4.754 -0.2830  0.0356 -0.0613
31006SOL    HW195025   9.431   4.145   4.680 -2.3989 -0.0908  1.4889
31006SOL    HW295026   9.485   4.202   4.810  2.7603  0.9088 -0.8349
31007SOL     OW95027   2.514   4.895   6.435  0.0163  0.1696  0.7259
31007SOL    HW195028   2.602   4.885   6.473  0.3501  0.2744  0.0084
31007SOL    HW295029   2.459   4.835   6.485  0.6152 -0.3125  0.8194
31008SOL     OW95030   3.840   5.487   6.582  0.3332  0.2361 -0.1084
31008SOL    HW195031   3.745   5.489   6.575  0.3600 -0.5992 -1.0858
31008SOL    HW295032   3.868   5.435   6.506  1.3176 -2.6911  2.0846
31009SOL     OW95033   9.979   5.334   8.727 -0.4306  0.2307 -0.6272
31009SOL    HW195034   9.968   5.405   8.790 -1.4259  0.4850 -1.0662
31009SOL    HW295035  10.057   5.357   8.678  1.4457 -0.8568  1.6299
31010SOL     OW95036   1.142   0.441   2.159 -0.6489  0.1455 -0.4242
31010SOL    HW195037   1.159   0.378   2.089  0.3635  1.0422 -1.0244
31010SOL    HW295038   1.143   0.388   2.239  0.4289 -0.5803 -0.8844
31011SOL     OW95039   6.146   4.425   0.650  0.1693 -0.1176  0.1397
31011SOL    HW195040   6.076   4.488   0.635  1.6116  1.8486  1.0884
31011SOL    HW295041   6.196   4.423   0.568 -0.9933 -1.6016 -0.5732
31012SOL     OW95042   1.853  11.048   6.504 -0.8154 -0.3378  0.3699
31012SOL    HW195043   1.779  11.109   6.511  0.6944  1.3961  2.6543
31012SOL    HW295044   1.870  11.041   6.410 -1.9235  1.6406 -0.0284
31013SOL     OW95045   1.374  10.706   1.547 -0.0680  0.2779  0.2720
31013SOL    HW195046   1.445  10.746   1.496 -0.3390  0.0511 -0.2845
31013SOL    HW295047   1.297  10.760   1.528  0.2788  1.6067  2.2190
31014SOL     OW95048   3.883   9.511   9.815 -0.5245  0.2654  0.3929
31014SOL    HW195049   3.791   9.500   9.838 -1.5277  0.8832 -2.7864
31014SOL    HW295050   3.891   9.605   9.797  0.8484  0.2861  1.0474
31015SOL     OW95051   6.264   0.317   9.489  1.2256  0.2401  0.1608
31015SOL    HW195052   6.192   0.357   9.538  0.7871  0.2620 -0.4831
31015SOL    HW295053   6.272   0.229   9.526  0.5150  0.0514 -0.0987
31016SOL     OW95054   9.334   6.538   9.460  0.0238  0.2802 -0.0466
31016SOL    HW195055   9.358   6.631   9.463  1.1134  0.0085 -0.0031
31016SOL    HW295056   9.239   6.539   9.446  0.1414  1.3888 -0.9268
31017SOL     OW95057   7.818   5.046   6.064  0.2650  0.0423 -0.1820
31017SOL    HW195058   7.812   4.970   6.121  0.8951  0.0481 -0.1000
31017SOL    HW295059   7.770   5.115   6.110 -2.2337 -0.8626 -1.2519
31018SOL     OW95060   6.714   4.972   4.014 -0.3771  0.0386 -0.3208
31018SOL    HW195061   6.695   4.892   3.965  0.4480 -1.8966  2.3023
31018SOL    HW295062   6.787   4.949   4.071 -1.1438  2.1366  1.6884
31019SOL     OW95063   0.469   0.437   4.291 -0.0836 -0.7304 -0.2246
31019SOL    HW195064   0.464   0.532   4.285  3.5806 -0.3023  0.9524
31019SOL    HW295065   0.454   0.406   4.201 -0.3074  1.0125 -0.8234
31020SOL     OW95066   1.759   3.529   8.848  0.2952  0.2075 -0.1794
31020SOL    HW195067   1.742   3.492   8.762  0.6626  1.2358 -0.7104
31020SOL    HW295068   1.823   3.598   8.833  1.0322 -0.1727  1.0448
31021SOL     OW95069   8.930   3.641   6.930  0.1909  0.2930  0.0250
31021SOL    HW195070   8.937   3.715   6.991  0.2160  2.7741 -2.7376
31021SOL    HW295071   9.020   3.609   6.921  0.1834 -0.1365  1.2401
31022SOL     OW95072   1.586   2.042   6.684 -0.6751  0.2899 -0.0289
31022SOL    HW195073   1.657   2.054   6.747 -1.1678 -0.0814  0.6120
31022SOL    HW295074   1.625   1.988   6.615 -0.1719  0.5781  0.0230
31023SOL     OW95075   4.818   3.181   7.241 -0.6957 -0.5875  0.6317
31023SOL    HW195076   4.788   3.250   7.181 -0.3349 -0.9716  0.0025
31023SOL    HW295077   4.819   3.223   7.327  3.1258  1.4502 -0.1537
31024SOL     OW95078   3.678  10.271   0.862  0.4520  0.4793 -0.6842
31024SOL    HW195079   3.633  10.287   0.945  1.1249 -0.9050 -0.0161
31024SOL    HW295080   3.615  10.298   0.795 -1.1741 -0.8238  0.2331
31025SOL     OW95081   8.579  10.971   5.729 -0.1991 -0.2464  0.8726
31025SOL    HW195082   8.628  10.918   5.791 -0.3296 -0.5949  0.6812
31025SOL    HW295083   8.513  11.015   5.783  0.5770  0.5456  1.1919
31026SOL     OW95084   1.907   3.628   6.159 -0.1527 -0.0877 -0.6936
31026SOL    HW195085   1.985   3.683   6.149 -1.4675  1.7830 -1.2949
31026SOL    HW295086   1.866   3.659   6.240  2.0493 -4.2967  2.4657
31027SOL     OW95087   7.851  10.496   0.426 -0.2108  0.1685  0.1896
31027SOL    HW195088   7.901  10.499   0.344 -0.0368  0.7797  0.3138
31027SOL    HW295089   7.762  10.521   0.401  0.0783  1.4361  0.3525
31028SOL     OW95090   3.924   1.459   1.255  0.4338  0.0238  0.0798
31028SOL    HW195091   3.951   1.549   1.238  1.0287 -0.1569  0.0660
31028SOL    HW295092   3.853   1.444   1.192  1.7224 -0.2008 -1.3639
31029SOL     OW95093   8.914   1.664   2.987  0.2170  0.0675  0.1606
31029SOL    HW195094   8.941   1.725   3.056  0.0143  1.3632 -0.8779
31029SOL    HW295095   8.941   1.578   3.020  2.0197  0.8704  0.9432
31030SOL     OW95096   3.909   4.599   8.924  0.2546 -0.2747 -0.3121
31030SOL    HW195097   3.958   4.619   9.003  0.9998 -0.1692 -0.7895
31030SOL    HW295098   3.862   4.519   8.945  0.5685 -0.3351  0.1829
31031SOL     OW95099   4.778   3.831   9.615 -0.3367 -0.1607  0.3055
31031SOL    HW195100   4.856   3.884   9.597 -1.6764  1.7255 -0.1958
31031SOL    HW295101   4.736   3.874   9.690 -1.4998 -0.4728 -0.1470
31032SOL     OW95102   4.188   1.499   1.695 -0.0050  0.1595 -0.3028
31032SOL    HW195103   4.111   1.455   1.731  1.0999 -0.3907  1.4598
31032SOL    HW295104   4.197   1.463   1.606 -2.3139  0.9569 -0.9384
31033SOL     OW95105   0.735   1.572   2.446  1.3273 -0.7426 -0.7070
31033SOL    HW195106   0.732   1.483   2.482 -2.1227 -0.9204 -1.0942
31033SOL    HW295107   0.711   1.560   2.354  0.9869  0.5501 -0.8003
31034SOL     OW95108  10.322   0.405   6.344 -0.1974  0.3378 -0.1095
31034SOL    HW195109  10.248   0.419   6.403  1.1558  2.7466  1.1656
31034SOL    HW295110  10.365   0.326   6.377 -0.1866  0.9355  1.3740
31035SOL     OW95111  10.221   6.311   1.678  0.5627 -0.1484 -0.8400
31035SOL    HW195112  10.232   6.396   1.722 -0.7868  0.5585 -1.8258
31035SOL    HW295113  10.128   6.305   1.660  0.7536 -1.5158 -1.4668
31036SOL     OW95114   4.710   1.230   4.473  0.5227  0.3454  0.1378
31036SOL    HW195115   4.623   1.211   4.506  0.7785 -0.6442  0.2702
31036SOL    HW295116   4.713   1.325   4.467 -1.1108  0.3674 -1.3392
31037SOL     OW95117   0.674   4.360   8.628 -0.1777  0.2403 -0.0080
31037SOL    HW195118   0.606   4.417   8.594 -1.2348 -1.8597 -1.5978
31037SOL    HW295119   0.733   4.345   8.554  1.3022  0.9205  0.9742
31038SOL     OW95120  10.890   5.310   9.555 -0.1433  0.7994 -0.1983
31038SOL    HW195121  10.845   5.242   9.504  0.7365  0.3521 -0.4055
31038SOL    HW295122  10.943   5.356   9.490  1.4080 -0.1220  0.3534
31039SOL     OW95123   5.010   4.970   8.923 -0.1320 -0.5459  0.1315
31039SOL    HW195124   4.935   4.910   8.922  0.4335 -1.2717  0.7811
31039SOL    HW295125   4.978   5.047   8.970 -1.3365  0.3261 -1.9827
31040SOL     OW95126   2.368   2.111  10.848 -0.1767 -0.1306  0.6191
31040SOL    HW195127   2.299   2.144  10.791  0.8014 -0.5625 -0.8686
31040SOL    HW295128   2.367   2.016  10.833 -1.2176 -0.5378  2.8644
31041SOL     OW95129   0.791   7.077   9.388  0.1092  0.3888 -0.2392
31041SOL    HW195130   0.755   7.156   9.428 -2.6263 -1.0837  0.4594
31041SOL    HW295131   0.783   7.093   9.294  1.2323  1.5941 -0.1584
31042SOL     OW95132   5.294   1.873   0.407 -0.5677  0.1332  0.0163
31042SOL    HW195133   5.365   1.868   0.343 -0.2116  1.2350  0.2880
31042SOL    HW295134   5.216   1.844   0.360  0.0520 -1.0990 -0.2855
31043SOL     OW95135   0.196   3.770   8.340  0.0654 -0.1040 -0.6680
31043SOL    HW195136   0.126   3.706   8.352 -1.2919  1.2273 -1.1235
31043SOL    HW295137   0.277   3.719   8.344 -0.9753 -1.9176 -1.6160
31044SOL     OW95138   4.621  10.071   7.423 -0.2844  0.4772  0.6370
31044SOL    HW195139   4.672  10.019   7.486  1.6695  1.8389  0.2503
31044SOL    HW295140   4.643  10.162   7.444  0.4807  0.9729 -2.0137
31045SOL     OW95141   4.963   9.546   4.403 -0.0265  0.3573 -0.2694
31045SOL    HW195142   4.969   9.606   4.477  0.2824 -0.0827  0.0696
31045SOL    HW295143   5.010   9.589   4.332  2.5879 -0.6185  0.7376
31046SOL     OW95144   7.292   9.223   1.547  0.3328  0.0373  0.5866
31046SOL    HW195145   7.251   9.276   1.616  1.5526 -1.5773  2.6627
31046SOL    HW295146   7.347   9.285   1.499 -1.3952  1.4265  0.2668
31047SOL     OW95147   2.100   2.482   1.476 -0.9296  0.1484 -0.3895
31047SOL    HW195148   2.054   2.515   1.399 -0.9930  0.0236 -0.4049
31047SOL    HW295149   2.069   2.537   1.548 -3.2043 -1.6561  0.1117
31048SOL     OW95150   0.861   9.537   3.470  0.1448  0.1183  0.6371
31048SOL    HW195151   0.857   9.631   3.486 -1.9052 -0.1770  2.2018
31048SOL    HW295152   0.770   9.509   3.464  0.6468 -1.9896  1.7040
31049SOL     OW95153   2.285   3.396   6.073  0.3329  0.2249 -0.0444
31049SOL    HW195154   2.220   3.353   6.128  0.9143  0.9534  1.2667
31049SOL    HW295155   2.236   3.461   6.022 -0.1658 -0.2185 -0.1265
31050SOL     OW95156   9.998   4.276   4.381 -0.7751  0.0320 -0.4533
31050SOL    HW195157  10.049   4.263   4.301  1.4174  0.7233  0.7589
31050SOL    HW295158   9.907   4.281   4.350  0.1518  3.0077 -3.2945
31051SOL     OW95159   3.779   4.735  10.904 -0.2988 -0.3804 -0.7888
31051SOL    HW195160   3.819   4.716  10.819  3.2165  0.6511  0.4633
31051SOL    HW295161   3.787   4.652  10.952 -2.1417 -0.9159 -1.3092
31052SOL     OW95162   4.157   7.011   1.203 -1.1290 -0.5379  0.0885
31052SOL    HW195163   4.184   6.970   1.121  0.6928  1.5691 -0.4421
31052SOL    HW295164   4.102   7.084   1.177 -1.1466 -0.2961  0.7825
31053SOL     OW95165   9.601   8.013   7.297 -0.5696 -0.2904  0.0629
31053SOL    HW195166   9.582   7.920   7.308 -0.1664 -0.4790 -0.7383
31053SOL    HW295167   9.613   8.024   7.202 -0.9363  0.6391  0.1083
31054SOL     OW95168   0.865   4.783  10.616  0.3061  0.1416 -0.0465
31054SOL    HW195169   0.815   4.784  10.698  1.6729 -2.3637  0.9313
31054SOL    HW295170   0.948   4.825  10.639 -0.0272  1.2093 -0.7308
31055SOL     OW95171   5.651   8.145  10.206  0.1758  0.1253  0.4559
31055SOL    HW195172   5.633   8.054  10.228 -0.3248  0.1664  0.2412
31055SOL    HW295173   5.565   8.187  10.205 -0.2433 -0.3813 -3.7772
31056SOL     OW95174  10.615   7.170   7.596 -0.0474 -0.4474 -0.0375
31056SOL    HW195175  10.681   7.175   7.665  0.0699 -0.7197 -0.1278
31056SOL    HW295176  10.625   7.082   7.560 -2.4643 -1.6795  1.9656
31057SOL     OW95177   7.700   2.126   1.118 -0.2645  0.1955  0.0014
31057SOL    HW195178   7.785   2.169   1.125  0.1521 -0.3288 -1.4462
31057SOL    HW295179   7.717   2.035   1.144 -0.4510  0.1661  0.0245
31058SOL     OW95180  10.879   5.746   6.385 -0.3400  0.0504  0.0321
31058SOL    HW195181  10.943   5.743   6.314 -2.5252 -1.1923 -2.0435
31058SOL    HW295182  10.928   5.777   6.461  2.1361  1.4354 -1.9802
31059SOL     OW95183  10.105  10.548   4.917  0.0880 -0.2313  0.4112
31059SOL    HW195184  10.190  10.573   4.880 -0.0717 -1.1975 -0.6519
31059SOL    HW295185  10.068  10.630   4.949 -1.1132  1.4225 -4.3095
31060SOL     OW95186   5.462   2.016   2.521 -0.1098 -0.0814  0.7294
31060SOL    HW195187   5.546   1.972   2.536  0.6948  0.4656 -1.7206
31060SOL    HW295188   5.406   1.949   2.484  0.6018  0.4640 -1.4718
31061SOL     OW95189   9.483   2.862   5.985  0.8312 -0.2583 -0.3407
31061SOL    HW195190   9.479   2.954   6.010  1.3296 -0.4598  0.5308
31061SOL    HW295191   9.576   2.840   5.988  0.5562 -1.5456  2.5064
31062SOL     OW95192   2.569   6.563  10.701 -0.0969 -0.1161 -0.0061
31062SOL    HW195193   2.600   6.481  10.663 -1.3735 -0.5722 -0.1121
31062SOL    HW295194   2.477   6.546  10.723  0.0222  0.8092  1.3376
31063SOL     OW95195   2.665   2.581   1.617 -0.4358 -0.1719 -0.5606
31063SOL    HW195196   2.675   2.647   1.549  0.2983 -0.0463 -0.3379
31063SOL    HW295197   2.612   2.512   1.577 -0.9862  0.4273 -0.8787
31064SOL     OW95198   0.384  10.591   1.055  0.4476  0.3767 -0.3028
31064SOL    HW195199   0.292  10.568   1.043  0.4693 -0.2877  0.6473
31064SOL    HW295200   0.383  10.664   1.117  0.6144 -1.1792  1.6490
31065SOL     OW95201   8.730   9.736   1.079  0.0440 -0.0157  0.4721
31065SOL    HW195202   8.678   9.814   1.099 -3.8347 -2.0095 -0.8002
31065SOL    HW295203   8.787   9.763   1.007  0.5613  2.1701  1.6072
31066SOL     OW95204   5.271   2.450  10.354 -0.0086 -0.1091  0.8223
31066SOL    HW195205   5.240   2.522  10.299  1.3286 -0.0449  0.1225
31066SOL    HW295206   5.366   2.450  10.344  0.3963  0.3611  3.7166
31067SOL     OW95207   6.860   3.525  10.862 -0.0244  0.2347 -0.0578
31067SOL    HW195208   6.776   3.569  10.862  0.8251  1.9697  0.6338
31067SOL    HW295209   6.872   3.497  10.953  0.6746  1.1438  0.1480
31068SOL     OW95210   7.141   6.164   7.806  0.1906  0.3756 -0.1269
31068SOL    HW195211   7.234   6.149   7.786 -0.0224 -0.8625 -0.2853
31068SOL    HW295212   7.104   6.076   7.812 -1.5585  0.8335 -2.7197
31069SOL     OW95213   8.112  10.472   1.846  0.4516  0.0190  0.2158
31069SOL    HW195214   8.032  10.513   1.879  0.0094  0.2257 -1.0683
31069SOL    HW295215   8.134  10.406   1.912 -0.4461  0.3622  0.8775
31070SOL     OW95216  10.250  10.880   8.900 -0.4580  0.5820  0.3443
31070SOL    HW195217  10.248  10.879   8.996 -1.6930 -1.4015  0.3462
31070SOL    HW295218  10.179  10.940   8.876 -1.2017 -0.1362  0.6948
31071SOL     OW95219   3.425   2.669   3.538 -0.4365 -0.2505  0.7324
31071SOL    HW195220   3.455   2.584   3.505 -2.0475 -0.3765 -0.5540
31071SOL    HW295221   3.374   2.647   3.616 -1.0126 -0.5056  0.2931
31072SOL     OW95222   6.421   7.898   1.599  0.1147  0.1348 -0.2836
31072SOL    HW195223   6.501   7.864   1.559  2.7977  3.1783  1.9460
31072SOL    HW295224   6.406   7.981   1.555 -1.8886 -0.3632 -0.6332
31073SOL     OW95225   7.250   2.067   3.530  0.0654 -0.4794 -0.1148
31073SOL    HW195226   7.239   2.153   3.489 -2.8756 -0.8376 -0.2210
31073SOL    HW295227   7.227   2.080   3.622 -2.4673 -1.4857 -0.5357
31074SOL     OW95228  10.937   9.076   8.889  0.4453 -0.1272  0.0103
31074SOL    HW195229  11.002   9.146   8.890  0.2714  0.0272  0.4827
31074SOL    HW295230  10.946   9.033   8.973  0.9443 -1.0469 -0.4957
31075SOL     OW95231   1.595   0.901   9.384  0.6407 -0.0362  0.5259
31075SOL    HW195232   1.628   0.920   9.472  0.6023  3.9101 -0.1590
31075SOL    HW295233   1.662   0.934   9.325  1.5538 -4.2350 -1.1863
31076SOL     OW95234   2.374   3.263   3.818  0.0993 -0.0645 -0.5477
31076SOL    HW195235   2.446   3.260   3.881 -0.8418  1.2725  0.6636
31076SOL    HW295236   2.358   3.357   3.805 -0.2207 -0.3213 -2.2426
31077SOL     OW95237   8.199   3.081  11.056 -0.5720 -0.3028 -0.3469
31077SOL    HW195238   8.134   3.150  11.051  0.9538  1.1317 -1.3971
31077SOL    HW295239   8.153   3.002  11.028 -1.8501  0.6611 -1.0397
31078SOL     OW95240   7.437   3.974   8.256 -0.1335 -0.5342 -0.1608
31078SOL    HW195241   7.352   3.981   8.300  0.0235 -0.3998  0.1238
31078SOL    HW295242   7.428   4.027   8.177 -0.6333 -1.3035 -0.6309
31079SOL     OW95243   4.552   4.642   1.467 -0.1619  0.1651 -0.2545
31079SOL    HW195244   4.617   4.688   1.415 -0.9138  1.3741 -0.1580
31079SOL    HW295245   4.468   4.672   1.434 -0.7218 -1.7560 -0.7200
31080SOL     OW95246   0.826   4.856   8.449  1.1094 -0.5146  0.4409
31080SOL    HW195247   0.876   4.914   8.507 -0.5908  0.9515  0.5322
31080SOL    HW295248   0.753   4.825   8.503 -0.6065  1.0182 -0.8759
31081SOL     OW95249   2.173   2.115   2.520  0.0703  0.3207 -0.1370
31081SOL    HW195250   2.174   2.185   2.585  3.4651  0.6990 -0.4015
31081SOL    HW295251   2.139   2.156   2.440 -0.4914  0.9197  0.4059
31082SOL     OW95252   8.084   5.005   6.295  0.2706  0.4715 -0.1733
31082SOL    HW195253   8.171   4.967   6.307  0.4606  0.1890 -2.1082
31082SOL    HW295254   8.042   4.994   6.380  2.2169  0.9156  0.9187
31083SOL     OW95255   5.249   2.222   3.495 -0.1380  0.3585 -0.9655
31083SOL    HW195256   5.336   2.247   3.464 -0.2071  1.1212 -0.5694
31083SOL    HW295257   5.205   2.305   3.514  0.1384 -0.0464  1.8006
31084SOL     OW95258   4.245   6.909  10.032 -0.7634  0.4911 -0.0900
31084SOL    HW195259   4.293   6.950  10.103  0.2208  2.7439 -1.9242
31084SOL    HW295260   4.271   6.957   9.954 -0.2263 -3.0995 -2.3760
31085SOL     OW95261  10.987   3.674   0.192 -0.3894 -0.2449  0.0807
31085SOL    HW195262  11.023   3.734   0.127  0.3791 -0.2518  0.4824
31085SOL    HW295263  11.063   3.625   0.224 -0.9127 -1.0044  0.2005
31086SOL     OW95264  10.299   4.809   8.207  0.1101 -0.3599  0.2601
31086SOL    HW195265  10.272   4.826   8.297  0.0710  0.8900  0.0318
31086SOL    HW295266  10.331   4.719   8.208 -0.5794 -0.6162  1.3552
31087SOL     OW95267   4.466   9.405   9.956  0.3544 -0.1457 -0.2442
31087SOL    HW195268   4.433   9.484   9.999  0.5850 -0.1173 -0.1192
31087SOL    HW295269   4.420   9.333  10.000  0.8898 -0.1462  0.3394
31088SOL     OW95270   2.584   3.087  10.029  0.1346  0.7091  0.5549
31088SOL    HW195271   2.678   3.077  10.014  0.0749  0.4592  0.3455
31088SOL    HW295272   2.577   3.116  10.120  0.3882  0.2445  0.7235
31089SOL     OW95273   0.806   2.539   7.096 -0.0379  0.2726 -0.5771
31089SOL    HW195274   0.893   2.576   7.113 -0.7679  1.5294  0.6064
31089SOL    HW295275   0.779   2.502   7.180 -0.8218  0.2674 -0.8252
31090SOL     OW95276   2.475   0.878   6.615  0.2181  0.2510 -0.6197
31090SOL    HW195277   2.498   0.849   6.703 -0.0346  0.9215 -0.3250
31090SOL    HW295278   2.559   0.900   6.574  0.3593 -0.3460 -0.6515
31091SOL     OW95279   9.010   8.559   1.992 -0.5454  0.2910 -0.2678
31091SOL    HW195280   8.948   8.578   1.921  0.1817  0.6114 -0.8202
31091SOL    HW295281   9.032   8.467   1.980  1.7793  1.0188 -2.2452
31092SOL     OW95282   5.824   1.422   7.902  0.4547  0.1563  0.1676
31092SOL    HW195283   5.888   1.361   7.938 -0.5976 -1.9671 -1.3318
31092SOL    HW295284   5.762   1.367   7.854 -0.3047  2.4365 -1.7121
31093SOL     OW95285   6.216   0.836   7.225 -0.3278  0.0652 -0.7198
31093SOL    HW195286   6.203   0.747   7.257  0.3819 -0.5517 -2.0403
31093SOL    HW295287   6.301   0.862   7.260 -1.4044  1.0339  1.3257
31094SOL     OW95288   2.019   1.224   6.801 -0.0180 -0.2219  0.3425
31094SOL    HW195289   1.954   1.154   6.812 -0.7136  0.2577 -0.5737
31094SOL    HW295290   1.968   1.305   6.800  0.5591  0.1468 -0.5832
31095SOL     OW95291  10.274   2.887   7.942 -0.5518  0.5458  0.6894
31095SOL    HW195292  10.329   2.856   8.014  0.4595  1.3280  0.2863
31095SOL    HW295293  10.320   2.964   7.908 -1.9373  1.2640  0.3595
31096SOL     OW95294   9.311  10.633   4.695  0.3071  0.2278 -0.2250
31096SOL    HW195295   9.241  10.663   4.637 -0.5916  0.0387  0.7257
31096SOL    HW295296   9.283  10.547   4.725  0.2583  0.7005  1.2192
31097SOL     OW95297   4.681   6.449  11.051 -0.3841  0.2722  0.7700
31097SOL    HW195298   4.591   6.430  11.076 -1.9476  1.1701 -3.3510
31097SOL    HW295299   4.713   6.369  11.010 -0.8751  1.1225 -1.4096
31098SOL     OW95300   1.311   8.432   3.959  0.1935  0.4097 -0.1624
31098SOL    HW195301   1.370   8.500   3.991  2.2150 -1.1094 -0.5320
31098SOL    HW295302   1.355   8.394   3.884 -2.3089  0.6836 -1.9005
31099SOL     OW95303   5.122   1.775   4.895 -0.1888  0.6313  0.2500
31099SOL    HW195304   5.117   1.681   4.876  0.9909  1.1123 -2.9136
31099SOL    HW295305   5.161   1.779   4.983 -1.2575 -1.7949  0.9332
31100SOL     OW95306   4.853   9.303   3.874  0.0490 -0.2147  0.1546
31100SOL    HW195307   4.777   9.321   3.819 -0.7539 -0.1191  1.2588
31100SOL    HW295308   4.924   9.286   3.813 -0.5912  0.8291 -0.9056
31101SOL     OW95309   9.238  10.859   3.017  0.5858 -0.4274 -0.1614
31101SOL    HW195310   9.240  10.765   3.002  0.9439 -0.3112 -0.9170
31101SOL    HW295311   9.313  10.893   2.967 -1.2266  0.5718 -2.4396
31102SOL     OW95312   7.326   5.848   1.292  0.3984 -0.2547 -0.3304
31102SOL    HW195313   7.354   5.920   1.349  2.3900 -0.1510 -1.3790
31102SOL    HW295314   7.315   5.889   1.206 -1.0465 -0.7186 -0.3871
31103SOL     OW95315  10.317   4.602   5.899 -0.1467  0.2735 -0.3410
31103SOL    HW195316  10.250   4.540   5.929 -1.4675  0.2598 -2.9725
31103SOL    HW295317  10.297   4.684   5.946  1.6966 -1.1160  3.2704
31104SOL     OW95318   9.667   6.126   6.931 -0.4040 -0.4381 -0.2959
31104SOL    HW195319   9.671   6.162   6.843  1.7916 -0.1671 -0.1274
31104SOL    HW295320   9.703   6.194   6.987  1.7394 -1.9374  0.2964
31105SOL     OW95321   4.745   6.938   5.513  0.0882  0.3116 -0.2129
31105SOL    HW195322   4.701   6.865   5.556 -2.3857  0.1026 -2.7892
31105SOL    HW295323   4.685   7.012   5.526  1.2090  1.1940  0.0309
31106SOL     OW95324   9.305   1.307   5.160 -0.1908  0.1667 -0.0208
31106SOL    HW195325   9.287   1.336   5.071 -0.2367  1.5027  0.4096
31106SOL    HW295326   9.393   1.339   5.179  0.4136 -1.3649 -0.0735
31107SOL     OW95327   8.512   0.348   8.628 -0.1641  0.2717 -0.2656
31107SOL    HW195328   8.542   0.426   8.674  0.1197 -0.1049  0.1933
31107SOL    HW295329   8.440   0.314   8.682  0.8159 -0.7298  0.4453
31108SOL     OW95330   7.402   3.391   0.602 -0.0252 -0.2581 -0.2235
31108SOL    HW195331   7.488   3.398   0.642  0.3937 -0.5470 -1.0585
31108SOL    HW295332   7.384   3.297   0.598  1.2242 -0.4613 -3.3206
31109SOL     OW95333   5.101  10.994   4.252 -0.4939 -0.4709 -0.1594
31109SOL    HW195334   5.011  10.990   4.218 -0.0747 -1.7419 -1.1864
31109SOL    HW295335   5.155  11.013   4.175  0.0329  1.6931  0.6687
31110SOL     OW95336   3.242   7.100   8.409  0.1217 -0.1623 -0.0332
31110SOL    HW195337   3.288   7.128   8.330  0.6259  1.2941  0.7582
31110SOL    HW295338   3.154   7.076   8.378  1.0653 -2.1954 -1.4316
31111SOL     OW95339   2.256   9.103   9.849 -0.1075  0.7278 -0.2888
31111SOL    HW195340   2.184   9.165   9.853 -0.8083 -0.0306 -0.8791
31111SOL    HW295341   2.214   9.017   9.850  0.8093  0.2696 -0.1567
31112SOL     OW95342   1.355   0.209  10.663 -0.9430 -0.4057  0.5111
31112SOL    HW195343   1.359   0.144  10.732  2.0715  0.2169  1.0449
31112SOL    HW295344   1.325   0.289  10.707  0.0079 -0.2582  0.9022
31113SOL     OW95345   1.759   4.609   5.707  0.1190 -0.3320  0.8639
31113SOL    HW195346   1.703   4.675   5.747  1.2430 -0.2124  2.3633
31113SOL    HW295347   1.717   4.526   5.729 -0.1169 -0.1889  0.9509
31114SOL     OW95348   3.428   8.011   6.402 -0.4934  0.1085  0.1988
31114SOL    HW195349   3.509   8.061   6.393 -0.7429  0.3951 -0.6350
31114SOL    HW295350   3.381   8.053   6.473 -0.7911  1.2115 -0.6251
31115SOL     OW95351   1.693  10.152   0.176  0.6922  0.2020 -0.2499
31115SOL    HW195352   1.763  10.107   0.128  1.1263  1.5393 -0.9012
31115SOL    HW295353   1.672  10.228   0.123  0.3309  1.0714  1.0889
31116SOL     OW95354   5.450   0.928   0.663 -0.0762 -0.5660 -0.5578
31116SOL    HW195355   5.469   0.940   0.570  0.1458 -3.4851 -0.9985
31116SOL    HW295356   5.358   0.952   0.671 -0.6644 -2.0817 -2.0197
31117SOL     OW95357   7.574   8.024   3.280  0.4601 -0.4242 -0.9178
31117SOL    HW195358   7.507   8.076   3.237  0.2629 -0.8187 -1.0946
31117SOL    HW295359   7.649   8.083   3.289 -0.6430  0.7664  1.3485
31118SOL     OW95360   1.470   9.565   3.809 -0.4600  0.4305 -0.0940
31118SOL    HW195361   1.518   9.628   3.755 -1.8828  1.9849  0.3758
31118SOL    HW295362   1.398   9.536   3.753 -0.7700  0.5012  0.2673
31119SOL     OW95363  10.691   2.897   4.292 -0.7253  0.1537  0.5581
31119SOL    HW195364  10.649   2.933   4.370 -3.0355 -2.5699  0.7310
31119SOL    HW295365  10.633   2.825   4.264  1.1012 -0.3369 -2.4490
31120SOL     OW95366  10.380   1.996   5.547  0.7940  0.3667 -0.4089
31120SOL    HW195367  10.472   2.022   5.550  1.2412 -1.1494 -0.0708
31120SOL    HW295368  10.338   2.048   5.615  1.4979  0.7423 -0.2577
31121SOL     OW95369   6.258   2.081   7.730  0.0808  0.3155  0.3325
31121SOL    HW195370   6.341   2.129   7.730 -0.3055  0.9891  0.5572
31121SOL    HW295371   6.196   2.140   7.688 -0.1632 -0.4255 -0.3690
31122SOL     OW95372   8.413   5.239  10.614 -0.1694  0.3604 -0.2295
31122SOL    HW195373   8.333   5.288  10.594 -0.8818 -0.7889 -0.3075
31122SOL    HW295374   8.392   5.188  10.692  1.2970  1.8094  1.1798
31123SOL     OW95375   2.589   3.292   3.092  0.4133  0.7477 -0.3310
31123SOL    HW195376   2.534   3.292   3.014 -0.0036 -1.6781 -0.0975
31123SOL    HW295377   2.673   3.257   3.062  0.3212  0.0120  0.2406
31124SOL     OW95378   0.199   0.105   4.001  0.1061 -0.3630  0.6971
31124SOL    HW195379   0.229   0.014   4.000  0.9424 -0.0981 -0.4851
31124SOL    HW295380   0.163   0.120   3.914  0.7600  0.6719  0.5812
31125SOL     OW95381   9.807   0.421   3.546 -0.6097 -0.4276 -0.3347
31125SOL    HW195382   9.864   0.462   3.481  0.8455 -1.0026  0.5186
31125SOL    HW295383   9.721   0.461   3.532  0.0614  0.6788 -1.4847
31126SOL     OW95384  10.507   5.640  10.521 -0.1331  0.4342  0.7153
31126SOL    HW195385  10.555   5.723  10.526  0.6530 -0.0821  3.3178
31126SOL    HW295386  10.463   5.642  10.436  1.1387  2.7986  0.0405
31127SOL     OW95387   6.438   2.890   4.281 -0.4010 -0.1776 -0.5153
31127SOL    HW195388   6.419   2.796   4.280  0.1202 -0.3846  2.1209
31127SOL    HW295389   6.375   2.926   4.343  1.6412  0.6099  1.2096
31128SOL     OW95390   8.614   4.400   9.744 -0.1743 -0.5669 -0.1470
31128SOL    HW195391   8.553   4.464   9.707  1.2189  1.1431  0.4028
31128SOL    HW295392   8.636   4.343   9.670 -0.4796  0.3560 -0.9794
31129SOL     OW95393   2.168   2.283   6.025 -0.0732  0.3674  0.1120
31129SOL    HW195394   2.209   2.198   6.006 -0.0082  0.9682 -2.8826
31129SOL    HW295395   2.076   2.262   6.040  0.1023 -0.3356  0.2448
31130SOL     OW95396   2.448   9.029   7.291 -0.1298  0.1622 -0.4549
31130SOL    HW195397   2.422   8.981   7.212 -0.1926  0.3702 -0.5596
31130SOL    HW295398   2.488   9.109   7.259 -1.2950  0.8363 -0.2550
31131SOL     OW95399   9.166   1.906   6.495  0.4409 -0.9405 -0.1537
31131SOL    HW195400   9.167   2.001   6.483  0.1973 -0.9776 -0.4786
31131SOL    HW295401   9.080   1.879   6.464  1.0010 -1.4297 -1.3299
31132SOL     OW95402   2.234   6.262   8.780  0.0153  0.4126 -0.6204
31132SOL    HW195403   2.212   6.320   8.707 -1.0907  2.0596  0.9219
31132SOL    HW295404   2.176   6.187   8.770  1.6650 -0.6959 -2.8119
31133SOL     OW95405   5.905   4.742   6.089 -0.0535  0.7343 -0.3082
31133SOL    HW195406   5.952   4.776   6.013  1.6727  1.7838  1.1379
31133SOL    HW295407   5.971   4.691   6.137 -0.8942  0.7070  0.8587
31134SOL     OW95408   8.453   3.030   3.929  0.6474 -0.4893  0.6502
31134SOL    HW195409   8.440   2.943   3.891 -0.6188 -0.1162  0.1850
31134SOL    HW295410   8.517   3.072   3.871 -0.2496 -0.4111 -0.3187
31135SOL     OW95411   7.334   3.842   3.881  0.0401 -0.0238  0.0086
31135SOL    HW195412   7.312   3.897   3.805  2.3837 -1.2473 -1.6688
31135SOL    HW295413   7.416   3.878   3.913  1.4071 -2.1900 -0.8581
31136SOL     OW95414   5.801   6.148   8.165 -1.1336  0.2539 -0.7288
31136SOL    HW195415   5.793   6.241   8.187  1.1029 -0.1289  2.4822
31136SOL    HW295416   5.882   6.142   8.114 -1.4487  0.0986 -1.2140
31137SOL     OW95417   3.277  10.453   0.903 -0.1239  0.2572 -0.1794
31137SOL    HW195418   3.345  10.432   0.967  0.0218  1.0755 -0.0425
31137SOL    HW295419   3.204  10.485   0.956  0.0939  1.1924 -0.4158
31138SOL     OW95420   1.133   7.500   1.861 -0.1926  0.3716  0.1742
31138SOL    HW195421   1.047   7.537   1.877 -1.5133 -2.1054 -0.7015
31138SOL    HW295422   1.121   7.441   1.787  1.5595 -2.1591  1.7261
31139SOL     OW95423   1.367   1.854   7.055 -0.1819  0.3565 -0.3500
31139SOL    HW195424   1.273   1.837   7.045 -0.8747  1.4023  3.0659
31139SOL    HW295425   1.407   1.767   7.054 -1.3507 -0.1930 -0.6459
31140SOL     OW95426   7.376   9.762   9.469  0.0893 -0.7195  0.5239
31140SOL    HW195427   7.453   9.739   9.417 -0.1434  0.2002 -0.2781
31140SOL    HW295428   7.393   9.726   9.556  1.6743 -0.0627  0.5187
31141SOL     OW95429   3.948   0.920   9.723  0.5007  0.0429 -0.4901
31141SOL    HW195430   4.007   0.950   9.792 -2.7837  0.4271  2.4423
31141SOL    HW295431   3.967   0.977   9.649  4.2678 -0.4328 -0.1017
31142SOL     OW95432   1.223   5.163   7.814  0.2648  0.2852 -0.0161
31142SOL    HW195433   1.135   5.132   7.793  0.4758  0.0036 -0.4994
31142SOL    HW295434   1.210   5.249   7.854 -0.1862  0.5872 -0.7974
31143SOL     OW95435  10.758   5.067  10.585 -0.1220  0.4618 -0.3060
31143SOL    HW195436  10.807   5.048  10.665 -1.7860  2.0558  1.1529
31143SOL    HW295437  10.672   5.027  10.599  0.2372 -1.2339 -2.3246
31144SOL     OW95438   5.434   2.652   8.759 -0.5348 -0.0598  0.2586
31144SOL    HW195439   5.357   2.693   8.718  0.6321 -0.5225 -2.6587
31144SOL    HW295440   5.476   2.723   8.807 -1.3221  0.9079 -0.4216
31145SOL     OW95441   3.738   2.553   2.554 -0.3451  0.1496 -0.2807
31145SOL    HW195442   3.683   2.595   2.620  0.0305  0.1211  0.0602
31145SOL    HW295443   3.748   2.618   2.485  0.3694  0.7033  0.3154
31146SOL     OW95444   9.032   5.245   3.386  0.0293 -0.3782  0.2790
31146SOL    HW195445   9.095   5.176   3.363  4.0266  2.8079  0.6601
31146SOL    HW295446   9.034   5.248   3.482  2.2924  2.0522  0.2562
31147SOL     OW95447   6.409   3.895   6.754  0.2340  0.3383  0.1033
31147SOL    HW195448   6.502   3.884   6.775  0.3166 -1.0848 -0.8598
31147SOL    HW295449   6.407   3.966   6.689  0.5788  0.7201  0.5024
31148SOL     OW95450   4.221   5.334   6.977  0.2309  0.3070 -0.0099
31148SOL    HW195451   4.216   5.400   7.047  0.6019  0.3226  0.0037
31148SOL    HW295452   4.312   5.306   6.977  0.4149  0.8297 -0.9576
31149SOL     OW95453  10.071   9.321   5.777 -0.9565  0.3636 -0.7113
31149SOL    HW195454  10.009   9.250   5.795 -0.8603  0.8287  1.7196
31149SOL    HW295455  10.083   9.318   5.682 -4.6018  0.1649 -1.3007
31150SOL     OW95456   5.586   0.231   9.661 -0.1620 -0.2802  0.3149
31150SOL    HW195457   5.567   0.306   9.605  0.4874  0.2140  0.7459
31150SOL    HW295458   5.675   0.205   9.637  0.2342  0.1119  1.2914
31151SOL     OW95459   7.869   2.748   1.125  0.7977 -0.6385  0.1450
31151SOL    HW195460   7.901   2.718   1.210  1.7117 -3.6387 -1.1206
31151SOL    HW295461   7.792   2.693   1.108  0.9566 -0.4752 -1.2061
31152SOL     OW95462   4.887   8.435   6.598 -0.3666  0.2298  0.4144
31152SOL    HW195463   4.909   8.446   6.505  0.9794  1.4089  0.8396
31152SOL    HW295464   4.925   8.512   6.641  2.5024 -2.1659  2.5400
31153SOL     OW95465   7.095   0.138   2.486 -0.1326  0.4179 -0.4741
31153SOL    HW195466   7.038   0.135   2.410  0.4497  0.5887 -0.9240
31153SOL    HW295467   7.067   0.216   2.534 -0.7588  0.0935 -0.3018
31154SOL     OW95468   6.558   4.497   4.685 -0.1491 -0.5868  0.5549
31154SOL    HW195469   6.605   4.465   4.608 -0.5605 -1.5313  0.6804
31154SOL    HW295470   6.592   4.585   4.699  1.4701 -1.1616  0.5373
31155SOL     OW95471   8.206   8.214  10.046 -0.2110  0.0347 -0.3346
31155SOL    HW195472   8.157   8.285  10.006 -0.0210 -0.7179 -1.9706
31155SOL    HW295473   8.185   8.137   9.994 -0.4320 -1.1471  1.4003
31156SOL     OW95474   6.401   1.111   1.076  0.1939  0.3202  0.1692
31156SOL    HW195475   6.320   1.114   1.126 -0.8950  0.7775 -1.5179
31156SOL    HW295476   6.420   1.018   1.066 -0.1142  0.2091  0.6094
31157SOL     OW95477   8.022   2.475   5.555  0.4641  0.0986 -0.2308
31157SOL    HW195478   8.024   2.569   5.572  2.0957 -0.1980  1.5419
31157SOL    HW295479   7.947   2.463   5.497 -0.6047  2.3052  0.5826
31158SOL     OW95480  10.885   7.001  10.873 -0.1364 -0.2257 -0.1584
31158SOL    HW195481  10.922   6.963  10.953 -0.8232 -0.9512 -0.1706
31158SOL    HW295482  10.798   6.960  10.865 -1.9598  3.0398  1.0962
31159SOL     OW95483   9.851   3.647   7.335  0.0296 -0.4516 -0.3345
31159SOL    HW195484   9.849   3.723   7.276 -0.0167 -0.8264 -0.8280
31159SOL    HW295485   9.919   3.668   7.399 -0.5146  0.3408  0.0036
31160SOL     OW95486   1.141   3.760  11.041 -0.1646  0.2825 -0.0211
31160SOL    HW195487   1.056   3.724  11.069  0.5059 -1.4624 -0.0854
31160SOL    HW295488   1.147   3.844  11.086 -1.3591 -0.1620  1.0548
31161SOL     OW95489  10.627   4.143  10.839 -0.0783 -0.6864 -0.2041
31161SOL    HW195490  10.667   4.225  10.812 -1.3454  0.5599  1.4900
31161SOL    HW295491  10.701   4.087  10.863  0.7508  1.0609  1.5450
31162SOL     OW95492   4.077   6.236   5.076 -0.5915 -0.0878  0.1385
31162SOL    HW195493   4.108   6.150   5.047 -0.7857  0.1951 -0.9344
31162SOL    HW295494   4.090   6.235   5.171 -1.7729 -1.7739  0.3257
31163SOL     OW95495   6.934   1.793   1.083  0.2211 -0.2104 -0.2104
31163SOL    HW195496   7.010   1.742   1.057 -0.6111 -1.8555  0.4317
31163SOL    HW295497   6.880   1.797   1.004  1.0547  1.1974 -0.7460
31164SOL     OW95498   5.681   4.092   6.717 -0.5613 -0.0417 -0.1003
31164SOL    HW195499   5.686   4.121   6.808  1.1787 -0.5210 -0.0141
31164SOL    HW295500   5.682   3.996   6.722 -0.6943 -0.0731 -0.6172
31165SOL     OW95501   8.525   6.473   3.075 -0.4135 -0.1448 -0.2573
31165SOL    HW195502   8.474   6.519   3.142 -0.9291 -1.0785  0.0084
31165SOL    HW295503   8.616   6.485   3.102 -0.6604 -1.5982  1.3684
31166SOL     OW95504   3.138   9.021   6.451  0.0570 -1.0748 -0.6267
31166SOL    HW195505   3.077   9.085   6.489  1.3630 -0.5010  0.5817
31166SOL    HW295506   3.112   9.015   6.359  1.0787  2.7241 -1.3294
31167SOL     OW95507   9.770   4.051  10.591  0.6308  0.2846  0.3267
31167SOL    HW195508   9.831   4.124  10.586 -1.0919  1.8538  0.8376
31167SOL    HW295509   9.699   4.075  10.531  0.6595 -1.6607 -0.5501
31168SOL     OW95510   6.779   3.646   5.396  0.5474 -0.4136  0.2137
31168SOL    HW195511   6.841   3.582   5.359  0.9568  0.2191 -0.2087
31168SOL    HW295512   6.791   3.724   5.343 -0.9774 -0.4255 -0.1798
31169SOL     OW95513   6.523   0.901  10.362  0.6767  0.3928  0.0015
31169SOL    HW195514   6.552   0.817  10.327  1.9719  0.5417  0.6629
31169SOL    HW295515   6.531   0.962  10.289  1.0622  0.2109 -0.1126
31170SOL     OW95516   7.592   6.900  10.629 -0.7394  1.1001 -0.0666
31170SOL    HW195517   7.636   6.981  10.653 -0.6652  1.6093 -1.7700
31170SOL    HW295518   7.535   6.880  10.704 -0.9504  2.8663  0.2913
31171SOL     OW95519   5.380   1.973   6.368  0.1288 -0.2614 -0.5275
31171SOL    HW195520   5.354   2.047   6.314  0.1089 -1.5267 -2.3485
31171SOL    HW295521   5.311   1.965   6.434 -1.0847 -0.0383 -1.7231
31172SOL     OW95522  10.274   0.984  10.647 -0.3034 -0.6555  0.3236
31172SOL    HW195523  10.330   0.909  10.628 -1.6829 -1.0997 -2.4392
31172SOL    HW295524  10.212   0.987  10.574 -1.2750  2.2565  1.1385
31173SOL     OW95525   8.189   3.928   3.666 -0.4919  0.1337  0.2367
31173SOL    HW195526   8.177   4.017   3.633 -0.9475  0.1090  0.3266
31173SOL    HW295527   8.130   3.875   3.612 -0.0120 -0.1603 -0.0073
31174SOL     OW95528   5.637   0.242   7.112 -0.6444  0.3717 -0.1279
31174SOL    HW195529   5.688   0.282   7.182 -0.0910  1.4718 -1.1163
31174SOL    HW295530   5.550   0.279   7.122 -0.5660  0.5265 -0.0053
31175SOL     OW95531   3.799   1.140   2.973  0.1464 -0.5201 -0.1146
31175SOL    HW195532   3.710   1.171   2.991  0.5006 -1.2267  3.4882
31175SOL    HW295533   3.807   1.058   3.021  2.3299 -1.2850 -1.5891
31176SOL     OW95534   7.340   9.717   0.475  0.1828 -0.1233  0.1170
31176SOL    HW195535   7.350   9.734   0.569  1.1211 -0.4821  0.0964
31176SOL    HW295536   7.247   9.731   0.458 -0.0622 -0.3501  1.1586
31177SOL     OW95537   1.845   4.232   8.123 -0.0212 -0.0011  0.1019
31177SOL    HW195538   1.905   4.277   8.183  0.1044 -1.2818  0.9592
31177SOL    HW295539   1.902   4.188   8.060  0.0597 -2.2995  1.6825
31178SOL     OW95540   8.678   3.794   6.610 -1.2852 -0.0126 -0.3413
31178SOL    HW195541   8.670   3.754   6.697  0.1775  0.9467  0.2708
31178SOL    HW295542   8.593   3.835   6.594 -1.2442  0.6652  1.0843
31179SOL     OW95543   9.679   1.917   1.697 -0.1503  0.2787 -0.2750
31179SOL    HW195544   9.724   2.001   1.702  1.5134 -0.6572  3.0666
31179SOL    HW295545   9.746   1.855   1.666  0.4482 -0.7373  2.7129
31180SOL     OW95546   8.693   8.930   9.152  0.5939 -0.5027 -0.2962
31180SOL    HW195547   8.645   8.903   9.230 -0.8551  0.6508 -0.7256
31180SOL    HW295548   8.748   9.003   9.181 -3.0851  2.9113 -0.9888
31181SOL     OW95549  10.028   6.648   3.341 -0.2509 -0.2365 -0.8668
31181SOL    HW195550  10.090   6.721   3.352 -1.8312  0.9954  0.4223
31181SOL    HW295551   9.950   6.676   3.389 -1.4846 -2.1347 -1.6661
31182SOL     OW95552   9.917   2.030   9.917 -0.6180 -0.1678 -0.3114
31182SOL    HW195553  10.002   2.001   9.951 -0.6693  1.3919  1.3490
31182SOL    HW295554   9.899   1.972   9.843  0.9867 -1.7695  0.4734
31183SOL     OW95555   6.989   0.357   0.380 -0.6477 -0.7519 -0.5938
31183SOL    HW195556   7.076   0.387   0.353 -0.5370 -0.4978  0.0288
31183SOL    HW295557   6.947   0.434   0.417 -1.2698 -0.7939 -1.1955
31184SOL     OW95558   1.448   6.178   2.075 -0.1831 -0.2652  0.7016
31184SOL    HW195559   1.402   6.220   2.148 -0.3746 -0.4925  0.7157
31184SOL    HW295560   1.493   6.249   2.030 -0.3688 -0.0700  0.8208
31185SOL     OW95561   6.362   7.576   3.622 -0.0090 -0.2966  0.3304
31185SOL    HW195562   6.406   7.494   3.598  0.4957 -0.4983  1.8900
31185SOL    HW295563   6.431   7.642   3.620  0.0890 -0.3514  1.3576
31186SOL     OW95564   4.970   1.293   9.719  0.3012  0.0315 -0.7475
31186SOL    HW195565   4.926   1.276   9.802 -0.2779  0.5394 -0.9428
31186SOL    HW295566   5.051   1.243   9.724  1.0430  1.3255  0.7687
31187SOL     OW95567   4.565   8.321   7.029  0.0009 -0.0977 -0.3742
31187SOL    HW195568   4.560   8.405   6.983  0.3988 -0.5037 -1.1781
31187SOL    HW295569   4.610   8.341   7.111  0.4932  0.3967 -0.7570
31188SOL     OW95570   7.039   8.060   9.148  0.6210 -0.8514  0.2007
31188SOL    HW195571   7.010   8.130   9.088  1.4469 -0.6275  0.0559
31188SOL    HW295572   6.975   7.990   9.134 -0.4157 -0.0085  0.5930
31189SOL     OW95573   8.714   9.313   5.504  0.3586  0.6668 -0.2121
31189SOL    HW195574   8.623   9.334   5.526  0.5469  0.6609  0.6106
31189SOL    HW295575   8.711   9.286   5.413 -0.1836  2.4425 -0.7620
31190SOL     OW95576   1.091   9.895   5.849  0.1929 -0.7626 -0.1490
31190SOL    HW195577   1.004   9.904   5.888  0.1306 -0.5887 -0.3267
31190SOL    HW295578   1.151   9.892   5.924  0.1314  0.1906 -0.0495
31191SOL     OW95579   4.566  10.214  10.268  0.1606  0.1818  0.6346
31191SOL    HW195580   4.629  10.179  10.205 -0.1597  1.7996 -0.6596
31191SOL    HW295581   4.481  10.195  10.230 -0.0561  0.5095  0.9481
31192SOL     OW95582   7.520   7.709   1.263  0.1446  0.1929 -0.5275
31192SOL    HW195583   7.502   7.785   1.318  3.1699  2.1051 -1.9218
31192SOL    HW295584   7.580   7.741   1.196 -1.8842 -2.4274 -3.9444
31193SOL     OW95585  10.218  10.676   0.924 -0.0107  0.1432  0.1174
31193SOL    HW195586  10.307  10.711   0.930 -0.2804  1.6224 -2.6792
31193SOL    HW295587  10.170  10.742   0.874 -2.3494 -1.2488  0.3927
31194SOL     OW95588   7.986   0.190   9.978 -0.5358 -0.1782 -0.0106
31194SOL    HW195589   8.010   0.102   9.950  1.9224  0.2094  0.6577
31194SOL    HW295590   7.939   0.227   9.903 -3.2004 -2.5338  0.2966
31195SOL     OW95591   2.630   7.711   0.206  0.3579 -0.0887  0.1351
31195SOL    HW195592   2.637   7.774   0.134 -0.9284  0.4249  0.4347
31195SOL    HW295593   2.543   7.725   0.242  1.0985 -0.0628  2.0539
31196SOL     OW95594   5.194   4.317   4.973  0.6324 -0.4392 -0.1732
31196SOL    HW195595   5.265   4.333   5.034  0.5028 -2.8265  0.7031
31196SOL    HW295596   5.211   4.229   4.938 -2.4332 -1.6381  0.9783
31197SOL     OW95597   4.882   0.144  10.210 -0.3487  0.2567 -0.1550
31197SOL    HW195598   4.842   0.095  10.281  0.7447 -0.1395  0.2022
31197SOL    HW295599   4.923   0.219  10.253 -1.3300  1.0789 -0.6061
31198SOL     OW95600   9.744   6.790  10.674  0.2564 -0.9281  0.4107
31198SOL    HW195601   9.732   6.765  10.765 -0.2515 -1.4831  0.2016
31198SOL    HW295602   9.729   6.710  10.625  0.3821 -0.6030 -0.1721
31199SOL     OW95603   4.517  10.304   1.841 -0.0444  0.3092  0.0293
31199SOL    HW195604   4.432  10.337   1.873 -0.8265 -2.3330  0.9424
31199SOL    HW295605   4.581  10.341   1.902 -0.8465  0.3526  0.8762
31200SOL     OW95606   8.910   5.577   2.925  0.2968  0.7169 -1.1376
31200SOL    HW195607   8.981   5.613   2.872  0.8068  1.1364 -0.1898
31200SOL    HW295608   8.836   5.635   2.907  0.5892  1.1222 -1.0607
31201SOL     OW95609   8.898   3.624   5.662  0.2777  0.4422  0.1814
31201SOL    HW195610   8.820   3.679   5.653 -0.1864 -0.3949 -1.5861
31201SOL    HW295611   8.863   3.536   5.676  0.7565 -0.2674 -2.4703
31202SOL     OW95612   0.029   7.304   9.150 -0.1243 -0.5300  0.5986
31202SOL    HW195613   0.070   7.356   9.219  2.9385 -0.7209 -0.8824
31202SOL    HW295614  -0.025   7.240   9.197 -1.2214  1.6990  2.5713
31203SOL     OW95615  10.806   1.966   6.694 -0.3487 -0.7332  0.2198
31203SOL    HW195616  10.762   2.037   6.647  0.6253 -0.4477 -0.2835
31203SOL    HW295617  10.899   1.985   6.684 -0.1052 -1.2850  1.3316
31204SOL     OW95618   8.406   6.322   8.995 -0.2771 -0.0817  0.2908
31204SOL    HW195619   8.422   6.378   8.919  2.3909 -0.9947  0.0598
31204SOL    HW295620   8.363   6.244   8.959  2.0177 -1.0256 -0.5750
31205SOL     OW95621   5.515   3.581   6.821 -0.4268  0.2030 -0.3922
31205SOL    HW195622   5.471   3.505   6.783 -2.2523  1.4505 -0.9037
31205SOL    HW295623   5.491   3.579   6.914 -2.8470  1.5762 -0.8764
31206SOL     OW95624  10.866  10.700   6.277 -0.3727  0.2570 -0.0344
31206SOL    HW195625  10.836  10.674   6.190  1.7952 -0.7430 -0.5332
31206SOL    HW295626  10.786  10.726   6.323 -1.8366 -1.2248 -1.6294
31207SOL     OW95627   4.688  11.008   7.086  0.0081  0.0901  0.6556
31207SOL    HW195628   4.626  10.955   7.037  1.1967 -1.0684  0.3414
31207SOL    HW295629   4.772  10.992   7.043  0.6239  1.2136  1.3811
31208SOL     OW95630   1.536   9.703   0.549  0.3269 -0.1276  0.1092
31208SOL    HW195631   1.514   9.796   0.552  0.6826 -0.0549  0.5049
31208SOL    HW295632   1.469   9.665   0.492  1.0161  0.5953 -1.2185
31209SOL     OW95633   4.333   4.751   5.791 -0.1716  0.1266  0.7191
31209SOL    HW195634   4.268   4.786   5.729 -0.0572  0.0925  0.5797
31209SOL    HW295635   4.416   4.760   5.746 -0.3026 -1.7483  0.0295
31210SOL     OW95636   1.437   3.644   3.649 -0.8304  0.1975 -0.5139
31210SOL    HW195637   1.523   3.668   3.684 -0.7331  0.6705 -1.0704
31210SOL    HW295638   1.455   3.576   3.585 -0.9272 -0.0682 -0.2627
31211SOL     OW95639   1.071   3.938   4.412 -0.4184  0.4372  0.5153
31211SOL    HW195640   0.999   3.954   4.351 -1.1103 -0.1322  1.1609
31211SOL    HW295641   1.150   3.962   4.363 -1.1027  2.0677  0.1396
31212SOL     OW95642  10.998   8.840   4.393  0.4336  0.7124  0.1648
31212SOL    HW195643  10.996   8.935   4.385 -1.5338  0.5828 -2.2065
31212SOL    HW295644  11.017   8.809   4.304  1.0675 -1.1356  0.8891
31213SOL     OW95645   7.659   8.232   1.634 -0.2175  0.4682  0.6125
31213SOL    HW195646   7.739   8.272   1.670  1.2606 -2.0922  0.4665
31213SOL    HW295647   7.605   8.213   1.711 -0.2642  1.3659  0.8058
31214SOL     OW95648   5.638   7.060   8.351  0.4962 -0.4206 -0.8662
31214SOL    HW195649   5.659   7.149   8.378  1.1692 -0.8987  0.2644
31214SOL    HW295650   5.639   7.063   8.255 -1.7962  1.3097 -0.9309
31215SOL     OW95651   9.544   5.768   7.385  0.7084 -0.2132  0.1425
31215SOL    HW195652   9.619   5.826   7.370  2.1456 -2.0324 -0.0050
31215SOL    HW295653   9.582   5.683   7.404 -1.3269 -1.0176  0.9839
31216SOL     OW95654   4.892   3.193   8.714  0.3618  0.3777  0.0280
31216SOL    HW195655   4.902   3.098   8.721 -0.0230  0.2573 -0.8895
31216SOL    HW295656   4.939   3.216   8.634  1.5312  1.1480  0.9016
31217SOL     OW95657   3.423   1.241   6.928  0.3945 -0.2021  0.4379
31217SOL    HW195658   3.346   1.277   6.973 -0.1574 -1.0464  0.1786
31217SOL    HW295659   3.480   1.317   6.913 -0.2182  0.3673  0.9654
31218SOL     OW95660   3.269   6.437   6.944  0.2818 -0.1454 -0.4397
31218SOL    HW195661   3.230   6.353   6.967 -0.3980 -0.1560 -1.5577
31218SOL    HW295662   3.201   6.501   6.960 -0.1475 -0.1301 -2.1081
31219SOL     OW95663   8.591   7.591   7.458  0.3198 -0.3234 -0.3619
31219SOL    HW195664   8.681   7.563   7.445  1.0558 -0.4506  3.5564
31219SOL    HW295665   8.565   7.547   7.539 -2.3453  1.7577  0.0447
31220SOL     OW95666   3.270   5.755   9.765 -0.6249 -0.3343  0.1572
31220SOL    HW195667   3.227   5.670   9.755  0.4543 -1.0733  1.5267
31220SOL    HW295668   3.362   5.734   9.781 -0.1924  1.1270 -0.3002
31221SOL     OW95669   5.628   5.190   4.213 -0.2298 -0.6169 -0.0697
31221SOL    HW195670   5.648   5.106   4.253 -0.0341 -0.2130  0.7034
31221SOL    HW295671   5.683   5.253   4.260 -2.6314  0.4239  1.5684
31222SOL     OW95672   2.825   1.373   8.085  0.9032  0.1650  0.4180
31222SOL    HW195673   2.774   1.292   8.092  1.1983 -0.1936 -1.2324
31222SOL    HW295674   2.786   1.432   8.150  0.6987 -1.2889  1.6651
31223SOL     OW95675   3.741   8.478   1.118 -0.4726 -0.5212  0.6210
31223SOL    HW195676   3.778   8.535   1.051 -0.6871 -0.6821  0.3607
31223SOL    HW295677   3.687   8.416   1.069 -0.5974 -0.6670  0.9396
31224SOL     OW95678  10.451   2.294   3.350  0.1212  0.0659  0.5539
31224SOL    HW195679  10.449   2.304   3.445  3.9617  1.2936  0.6373
31224SOL    HW295680  10.535   2.329   3.323 -0.7226 -0.4315 -3.3443
31225SOL     OW95681   5.650  10.314   6.961  0.1129  0.4246  0.2297
31225SOL    HW195682   5.742  10.288   6.959  0.4565  1.6254 -0.8826
31225SOL    HW295683   5.639  10.368   6.883 -2.1122 -1.4939 -0.8875
31226SOL     OW95684   2.388   8.665   0.369  0.1833 -0.2280 -0.6809
31226SOL    HW195685   2.329   8.613   0.314  0.0327 -0.1340 -0.6099
31226SOL    HW295686   2.402   8.613   0.447  1.1131 -0.7616 -1.1876
31227SOL     OW95687   9.469   9.866   0.728  0.6700  0.3173 -0.2127
31227SOL    HW195688   9.489   9.942   0.673  3.1788 -0.0672  0.0502
31227SOL    HW295689   9.549   9.812   0.725 -0.2731 -1.2634  1.2852
31228SOL     OW95690   1.323   1.699  10.606  0.6148 -0.6152  0.5796
31228SOL    HW195691   1.315   1.681  10.512  0.6122 -3.0075  0.9881
31228SOL    HW295692   1.417   1.706  10.622  0.8859 -3.8221  0.9267
31229SOL     OW95693   4.500   3.910   5.421 -0.2819  0.5130 -0.2666
31229SOL    HW195694   4.556   3.986   5.440  0.6102 -0.2130  0.0606
31229SOL    HW295695   4.422   3.924   5.475  1.2475 -0.3867  2.3872
31230SOL     OW95696   8.184   8.382   2.432 -0.0589  0.1976  0.3635
31230SOL    HW195697   8.092   8.382   2.406  0.0019 -0.4132  0.1145
31230SOL    HW295698   8.233   8.387   2.350  0.1336  0.5873  0.4971
31231SOL     OW95699   5.708   8.661   6.617  0.2370  0.0776  0.6572
31231SOL    HW195700   5.712   8.726   6.687 -0.2252 -1.5245  2.2209
31231SOL    HW295701   5.619   8.628   6.621  0.5844 -0.9378  0.1385
31232SOL     OW95702   7.744   2.597   2.331 -0.1786 -0.2625  0.1336
31232SOL    HW195703   7.782   2.606   2.419 -0.6519  1.3143  0.2169
31232SOL    HW295704   7.699   2.513   2.333  3.4349 -2.4105 -0.0600
31233SOL     OW95705   7.455   3.764   3.417 -0.0017 -0.7921 -0.2119
31233SOL    HW195706   7.397   3.785   3.344 -0.6217  0.7753  0.6974
31233SOL    HW295707   7.414   3.687   3.457  0.5003 -1.8594 -1.6306
31234SOL     OW95708   3.075  10.988   4.125 -0.0964 -0.3958 -0.1387
31234SOL    HW195709   3.117  11.071   4.146  3.0455 -1.9130  0.1899
31234SOL    HW295710   3.060  10.946   4.210 -2.4914  0.1182 -0.2462
31235SOL     OW95711   1.690   3.716   1.824 -0.2747  0.3573 -0.8368
31235SOL    HW195712   1.639   3.781   1.872 -0.1631 -0.0893 -0.0925
31235SOL    HW295713   1.713   3.651   1.890  0.5633  0.1369 -1.3359
31236SOL     OW95714   3.482   1.006   0.909 -0.0321  0.1523 -0.7303
31236SOL    HW195715   3.448   0.917   0.918 -2.5616  0.5431 -4.2815
31236SOL    HW295716   3.428   1.059   0.968 -0.2673 -0.3129 -0.5240
31237SOL     OW95717   4.622   0.704   7.415 -0.5468 -0.1627  0.1558
31237SOL    HW195718   4.539   0.750   7.399 -0.2988 -0.4403 -2.2649
31237SOL    HW295719   4.628   0.699   7.511 -3.2528 -0.0505  0.4145
31238SOL     OW95720   9.655   0.801   6.969  0.5855 -0.2006 -0.0418
31238SOL    HW195721   9.601   0.878   6.982 -0.9559 -0.7878 -2.2868
31238SOL    HW295722   9.743   0.835   6.956  0.1240  1.0913  0.0747
31239SOL     OW95723   0.787   2.007   8.700 -0.6960 -0.1711 -0.7277
31239SOL    HW195724   0.723   1.967   8.641 -0.4177 -0.9908 -0.4914
31239SOL    HW295725   0.743   2.085   8.734 -0.9874  0.1282 -1.7514
31240SOL     OW95726   1.161   5.113   3.649 -0.2953 -0.2813 -0.7778
31240SOL    HW195727   1.171   5.206   3.627 -0.1536  0.4800  2.1240
31240SOL    HW295728   1.224   5.098   3.719  0.7294 -3.0209 -2.1356
31241SOL     OW95729   4.580   6.209   8.762 -0.1982  0.0351 -0.0052
31241SOL    HW195730   4.613   6.139   8.705 -3.0129 -1.1723 -0.2946
31241SOL    HW295731   4.555   6.163   8.843  0.9660  1.2734  1.1066
31242SOL     OW95732   9.867   0.760   7.396 -0.0843  0.5026 -0.8193
31242SOL    HW195733   9.836   0.849   7.379 -1.4983  0.7679  2.3921
31242SOL    HW295734   9.841   0.710   7.319 -2.9357  2.0826 -1.0145
31243SOL     OW95735   7.183   9.693   1.488  0.2497  0.7359  0.0308
31243SOL    HW195736   7.224   9.760   1.541  0.8672  1.5612 -1.4476
31243SOL    HW295737   7.253   9.657   1.434 -0.4171  0.1807 -0.5015
31244SOL     OW95738   1.860   1.913   9.184 -0.0599  0.1427 -0.2916
31244SOL    HW195739   1.807   1.923   9.263  0.3548 -0.0421  0.0182
31244SOL    HW295740   1.916   1.991   9.184  1.0351 -0.6101  0.4599
31245SOL     OW95741   7.297   4.027   0.134  0.3963 -0.0505  0.2325
31245SOL    HW195742   7.218   3.976   0.151  0.0548  0.7433  1.1255
31245SOL    HW295743   7.333   4.046   0.221  1.3057  0.0037 -0.1444
31246SOL     OW95744   5.039  10.595  11.065 -0.0577  0.1055 -0.4488
31246SOL    HW195745   5.059  10.501  11.064 -0.7422 -0.0554 -2.2272
31246SOL    HW295746   5.076  10.626  11.148  0.4838 -1.6599  0.0198
31247SOL     OW95747   0.939   6.152   3.397  0.1866  0.1053 -0.2190
31247SOL    HW195748   0.982   6.199   3.468  2.0924 -2.3936  0.4095
31247SOL    HW295749   0.995   6.167   3.321 -0.9581  1.4170 -0.8457
31248SOL     OW95750   1.103   6.661   4.770  0.3792 -0.0833 -0.4756
31248SOL    HW195751   1.113   6.604   4.693  2.4241 -1.0374  0.4320
31248SOL    HW295752   1.162   6.623   4.836 -0.1573  1.6094  1.0536
31249SOL     OW95753  10.700   4.588   9.669 -0.2748  0.6583  0.6927
31249SOL    HW195754  10.794   4.584   9.686 -0.6486  0.7881  3.1731
31249SOL    HW295755  10.682   4.512   9.614  0.8226 -1.2788  2.8720
31250SOL     OW95756   7.674   5.646   9.900  0.4255 -0.1593  0.3745
31250SOL    HW195757   7.750   5.588   9.898 -0.4861 -1.3896 -2.0587
31250SOL    HW295758   7.612   5.602   9.958  1.5209  0.9167  2.4796
31251SOL     OW95759   2.432   6.117   3.651 -0.3433  0.9217  0.2489
31251SOL    HW195760   2.365   6.050   3.664 -0.3819  0.8545 -0.3008
31251SOL    HW295761   2.392   6.179   3.590 -0.1535  1.2335  0.4402
31252SOL     OW95762   7.039   4.146   2.455  0.1722  0.6282 -0.1085
31252SOL    HW195763   6.992   4.174   2.376  0.4283  0.4364 -0.3282
31252SOL    HW295764   6.974   4.155   2.525  0.1267  1.3909 -0.2366
31253SOL     OW95765   2.546   1.877  10.503  0.0033  0.6553 -0.1574
31253SOL    HW195766   2.533   1.920  10.587  0.1638 -1.9228  1.3114
31253SOL    HW295767   2.590   1.942  10.448 -0.2559  2.4625  1.6659
31254SOL     OW95768   9.761   8.209   9.647 -0.6686 -0.2596  0.3535
31254SOL    HW195769   9.679   8.252   9.625 -1.3446  1.8868  5.6784
31254SOL    HW295770   9.739   8.146   9.715  1.8346 -1.4704  0.1866
31255SOL     OW95771   8.145   2.272   9.751  0.4887  0.3593  0.0462
31255SOL    HW195772   8.146   2.183   9.787 -0.0314  0.0339 -0.7081
31255SOL    HW295773   8.054   2.300   9.758  0.7818  1.1424  0.9756
31256SOL     OW95774   7.292   0.670   8.184 -0.0303 -0.0854 -0.0549
31256SOL    HW195775   7.361   0.676   8.250  1.1981 -1.5994 -1.1441
31256SOL    HW295776   7.327   0.716   8.108 -0.6839  0.0670 -0.2715
31257SOL     OW95777   0.382   3.204   0.915 -0.6434 -0.0115 -0.1208
31257SOL    HW195778   0.467   3.188   0.957 -0.7931 -0.0891  0.1549
31257SOL    HW295779   0.323   3.225   0.988 -0.6403  0.9954 -0.3891
31258SOL     OW95780   9.201   5.264   4.490  0.5005 -0.6212  0.1097
31258SOL    HW195781   9.255   5.227   4.560  0.4904 -0.8461  0.0009
31258SOL    HW295782   9.143   5.192   4.465 -2.2133  0.5413  2.5306
31259SOL     OW95783   9.447   7.116   7.340 -0.1686  0.1801  0.5335
31259SOL    HW195784   9.425   7.204   7.372 -3.8945 -0.8114  1.1766
31259SOL    HW295785   9.430   7.058   7.415  0.4675 -1.2762 -0.4059
31260SOL     OW95786  10.158   4.469   8.776  0.4463  1.2262 -0.4831
31260SOL    HW195787  10.091   4.515   8.726  2.4795  2.6445 -2.0636
31260SOL    HW295788  10.126   4.469   8.866 -3.0498 -0.8571 -1.5572
31261SOL     OW95789   8.435   7.280   6.259 -0.0616  0.7044 -0.4288
31261SOL    HW195790   8.462   7.254   6.170 -0.1166  0.8329 -0.4823
31261SOL    HW295791   8.417   7.374   6.252  1.9192  1.1851  0.1777
31262SOL     OW95792  10.120   5.151   2.486  0.4259 -0.1325 -0.0347
31262SOL    HW195793  10.154   5.232   2.524 -1.0660  0.2571  0.5487
31262SOL    HW295794  10.039   5.134   2.534  0.1468 -1.3899 -0.8900
31263SOL     OW95795   8.818   2.717   8.954  0.3044 -0.3029 -0.5416
31263SOL    HW195796   8.850   2.690   9.040  1.0452  0.2120 -0.6472
31263SOL    HW295797   8.859   2.655   8.893 -0.5985 -0.9705 -0.4969
31264SOL     OW95798  10.286   3.176   4.826 -0.3823 -0.2674 -0.1125
31264SOL    HW195799  10.191   3.184   4.826 -0.4077 -0.5440 -0.5726
31264SOL    HW295800  10.310   3.173   4.919 -0.7537  0.5371  0.0124
31265SOL     OW95801   1.108   5.595   7.324  0.1307  0.0121 -0.1639
31265SOL    HW195802   1.187   5.619   7.276  0.1232  0.4961  0.0645
31265SOL    HW295803   1.087   5.672   7.376 -2.8262  1.4957 -3.1905
31266SOL     OW95804  10.692   5.406   8.753  0.3346  0.1870 -0.2452
31266SOL    HW195805  10.676   5.407   8.848  0.1998 -1.9897 -0.1992
31266SOL    HW295806  10.765   5.467   8.741  1.0635 -0.2894  1.4278
31267SOL     OW95807   5.764   3.314   4.734 -0.0349  0.1614 -0.6153
31267SOL    HW195808   5.675   3.346   4.723 -0.2715 -0.4685 -0.5987
31267SOL    HW295809   5.756   3.241   4.795  0.5272  0.2512 -0.4213
31268SOL     OW95810   4.677   9.226   8.438 -0.1725  0.2092  0.1492
31268SOL    HW195811   4.766   9.244   8.468 -0.3709  0.1422  0.7918
31268SOL    HW295812   4.672   9.268   8.352  0.2432  0.8554  0.4296
31269SOL     OW95813   8.026   3.437   5.277  0.5043  0.0846  0.4714
31269SOL    HW195814   8.118   3.411   5.282  0.1309 -1.0558  3.1521
31269SOL    HW295815   8.019   3.485   5.194  2.9840 -1.7350 -0.9375
31270SOL     OW95816   2.490   8.779   4.246  0.2730 -0.4477  0.4979
31270SOL    HW195817   2.578   8.752   4.272  1.1349  1.4965 -0.1969
31270SOL    HW295818   2.478   8.863   4.290 -2.4913 -2.0061  3.0353
31271SOL     OW95819   7.227   1.803   3.873  0.3879  0.2155  0.0671
31271SOL    HW195820   7.231   1.708   3.870 -0.4903  0.1890 -1.0743
31271SOL    HW295821   7.241   1.825   3.965  1.5549 -0.9499  0.1863
31272SOL     OW95822   3.653   3.142   2.422 -0.2456 -0.3000  1.0318
31272SOL    HW195823   3.712   3.217   2.434  1.5398 -1.7541  1.8103
31272SOL    HW295824   3.570   3.172   2.459  0.1452  1.5962  0.5026
31273SOL     OW95825   6.377   5.885   1.544 -0.3598  0.6102 -0.2245
31273SOL    HW195826   6.450   5.824   1.551 -1.0280 -0.3363 -1.2196
31273SOL    HW295827   6.299   5.830   1.550 -0.9862  1.4466 -0.4434
31274SOL     OW95828   8.556  10.815   1.120  0.6997  0.0766 -0.5453
31274SOL    HW195829   8.487  10.765   1.078 -1.3722  1.5870  0.8858
31274SOL    HW295830   8.532  10.907   1.107  1.2744  0.6172  1.7170
31275SOL     OW95831  10.870   0.376   5.402 -0.5803  0.1940  0.0254
31275SOL    HW195832  10.806   0.305   5.404 -1.2622  0.7898 -0.3848
31275SOL    HW295833  10.920   0.364   5.483 -1.7704  0.2239  0.7945
31276SOL     OW95834   4.143   7.602   0.094  0.1622 -0.2477 -0.0605
31276SOL    HW195835   4.077   7.640   0.152  0.0687  0.4443 -0.6005
31276SOL    HW295836   4.185   7.678   0.054 -0.2905 -0.7044 -1.4667
31277SOL     OW95837   8.920   0.224   1.580  0.5329  0.1721  0.0102
31277SOL    HW195838   8.954   0.170   1.509  1.2865 -0.4194  0.7935
31277SOL    HW295839   8.836   0.184   1.603  0.2541  0.4064 -0.5791
31278SOL     OW95840   7.046   1.100   2.927 -0.1754 -0.6153 -0.0879
31278SOL    HW195841   6.993   1.078   3.003 -3.0951 -1.6482 -2.2678
31278SOL    HW295842   7.129   1.130   2.964 -2.0242  0.6282  3.5276
31279SOL     OW95843   3.421   5.893   5.562  0.7997 -0.0551 -0.3893
31279SOL    HW195844   3.343   5.837   5.559  0.3729  0.5546 -2.1736
31279SOL    HW295845   3.398   5.963   5.624  1.4880 -1.9645  2.1640
31280SOL     OW95846  10.193  10.548   2.189 -0.2190  0.2178  0.1489
31280SOL    HW195847  10.127  10.600   2.232 -0.1728  1.5144 -1.2743
31280SOL    HW295848  10.150  10.513   2.111  0.6669  0.8753 -0.6628
31281SOL     OW95849  10.482   0.036   0.720  0.0234  0.7395  0.4217
31281SOL    HW195850  10.515   0.076   0.640 -0.1640  0.8490  0.3980
31281SOL    HW295851  10.488   0.105   0.786 -0.7747  0.9769  0.2626
31282SOL     OW95852   4.600   4.633   3.585 -0.3136  0.3404  0.1015
31282SOL    HW195853   4.695   4.627   3.574 -0.4807  0.8388 -1.8727
31282SOL    HW295854   4.589   4.662   3.676  1.3113 -2.0115  1.1656
31283SOL     OW95855   2.140   2.371   0.469 -0.2809 -0.3021  0.3601
31283SOL    HW195856   2.217   2.315   0.459  0.0193  0.1145  0.3414
31283SOL    HW295857   2.083   2.345   0.396  0.2622  0.0610 -0.2073
31284SOL     OW95858   3.489   7.767   7.730 -0.3723 -0.2231  0.7359
31284SOL    HW195859   3.442   7.838   7.772  0.0727  0.2552  0.4441
31284SOL    HW295860   3.580   7.778   7.759 -0.3968 -0.9935  1.1129
31285SOL     OW95861   3.425   0.212   1.899  0.3810 -0.0428 -0.7031
31285SOL    HW195862   3.461   0.149   1.961  0.1984 -1.3722 -1.9132
31285SOL    HW295863   3.502   0.244   1.850  0.3923  0.1748 -0.5451
31286SOL     OW95864   3.208   0.891   9.378  0.2175 -0.5582  0.1011
31286SOL    HW195865   3.263   0.914   9.304 -0.7824 -0.0964 -0.5140
31286SOL    HW295866   3.130   0.947   9.370 -0.7640 -1.8103  0.4342
31287SOL     OW95867   7.313   7.791   8.183 -0.5147 -0.1679 -0.1458
31287SOL    HW195868   7.219   7.793   8.203 -0.0325 -1.9797  3.1949
31287SOL    HW295869   7.354   7.836   8.258  1.3296 -0.4941 -0.9035
31288SOL     OW95870   5.527   8.512  10.684 -0.4600 -0.0678 -0.6720
31288SOL    HW195871   5.571   8.449  10.626  2.2886  1.0854 -0.0199
31288SOL    HW295872   5.560   8.492  10.771  1.8694  3.1067 -0.6120
31289SOL     OW95873   7.361   7.706   3.620 -0.9142 -0.0759  0.4177
31289SOL    HW195874   7.427   7.747   3.563 -0.6386 -0.2545  0.6043
31289SOL    HW295875   7.305   7.656   3.560 -1.9303  1.4305  0.0360
31290SOL     OW95876  10.702  10.391  10.552  0.1856  0.0955 -0.6972
31290SOL    HW195877  10.690  10.384  10.647  1.1427  0.6902 -0.5145
31290SOL    HW295878  10.698  10.486  10.535  0.7705  0.0482 -1.1318
31291SOL     OW95879   7.368   7.087   1.503 -0.2320 -0.4156 -0.3614
31291SOL    HW195880   7.395   7.169   1.462 -2.1307  0.0346 -0.8475
31291SOL    HW295881   7.360   7.108   1.596  0.3560 -0.3693 -0.3182
31292SOL     OW95882  10.172   5.961   4.338  0.0177  0.0819  0.0328
31292SOL    HW195883  10.169   5.909   4.257  5.2890 -0.6654 -0.0848
31292SOL    HW295884  10.151   6.050   4.309 -1.8281 -0.7324 -1.3263
31293SOL     OW95885   1.142   8.182   4.018 -0.1555  0.0020  0.3283
31293SOL    HW195886   1.222   8.132   4.005 -0.9134 -1.3891  0.8654
31293SOL    HW295887   1.162   8.269   3.981  2.2251  0.3285  2.1485
31294SOL     OW95888   9.166   5.849   3.453  0.1020  0.7609 -0.6364
31294SOL    HW195889   9.158   5.772   3.397  2.2019 -0.6886  0.8537
31294SOL    HW295890   9.222   5.909   3.404  0.9476  0.0077 -0.6361
31295SOL     OW95891   2.912   2.599   8.090 -0.6121 -0.3749  0.1340
31295SOL    HW195892   2.826   2.630   8.116  0.1295  1.6513  0.3462
31295SOL    HW295893   2.919   2.511   8.128 -2.3516 -0.3548  0.5613
31296SOL     OW95894   0.795   0.671   2.781 -0.2755  0.1846 -0.1114
31296SOL    HW195895   0.779   0.634   2.695  2.2106  1.7777 -1.3596
31296SOL    HW295896   0.710   0.708   2.807 -1.5935 -2.1026 -0.8813
31297SOL     OW95897  10.966   5.680   5.090 -0.2104  0.5087 -0.6838
31297SOL    HW195898  11.035   5.714   5.147 -1.3215  0.2619  0.8648
31297SOL    HW295899  10.889   5.732   5.112 -0.9248 -0.2881 -1.2364
31298SOL     OW95900   5.294   0.004   8.267 -0.4369 -0.7539 -0.1885
31298SOL    HW195901   5.366  -0.031   8.320  1.2208 -0.7480 -2.2906
31298SOL    HW295902   5.228  -0.065   8.267  0.9710 -2.1644 -0.8228
31299SOL     OW95903   6.444   6.116   8.784 -0.1760  0.2659  0.0750
31299SOL    HW195904   6.501   6.044   8.809 -1.2913 -1.4791 -2.0887
31299SOL    HW295905   6.393   6.134   8.863  0.3608 -1.0731  0.7674
31300SOL     OW95906   5.724   4.969   7.512 -0.6882 -0.3566  1.0138
31300SOL    HW195907   5.758   5.039   7.456 -1.8002 -1.4174 -1.1225
31300SOL    HW295908   5.779   4.972   7.590  2.0433  0.1768 -0.7908
31301SOL     OW95909   7.582   3.573   2.227 -0.5536  0.2305  0.2536
31301SOL    HW195910   7.511   3.629   2.195 -1.1874 -1.6964 -1.9826
31301SOL    HW295911   7.662   3.622   2.207 -1.1363  1.1438  0.0693
31302SOL     OW95912   2.889   2.096   1.181  0.0644 -0.1398 -0.3192
31302SOL    HW195913   2.925   2.183   1.166 -0.0730  0.2374  1.3543
31302SOL    HW295914   2.895   2.083   1.275 -1.7164 -1.1439 -0.2880
31303SOL     OW95915   0.298   9.715   3.841 -1.1855  0.7333  0.1378
31303SOL    HW195916   0.219   9.686   3.796 -0.8308  0.0172 -0.0378
31303SOL    HW295917   0.370   9.673   3.793 -0.3697  4.3374 -2.1971
31304SOL     OW95918   3.107   0.289   4.009 -0.3579  0.4884  0.5088
31304SOL    HW195919   3.116   0.312   3.916 -0.5188 -1.1181  0.0715
31304SOL    HW295920   3.181   0.231   4.027 -1.6436 -1.1682  0.7028
31305SOL     OW95921   1.635   9.426   1.645  0.1039  0.0020 -0.3536
31305SOL    HW195922   1.642   9.506   1.698  1.5971 -0.0526 -0.4138
31305SOL    HW295923   1.575   9.370   1.694  0.6696  0.3522  0.7733
31306SOL     OW95924   4.960   7.917   1.249 -0.5047 -0.2073  0.4788
31306SOL    HW195925   4.982   7.855   1.179 -0.8579  0.5892 -0.3570
31306SOL    HW295926   4.996   8.001   1.220 -2.8017  0.7033 -0.0092
31307SOL     OW95927   1.178   8.638   5.876  0.1036 -0.3209  0.0516
31307SOL    HW195928   1.176   8.614   5.968  0.3217 -0.8775 -0.0845
31307SOL    HW295929   1.164   8.556   5.829  0.7930 -0.1864 -0.4161
31308SOL     OW95930   1.690   7.033   0.758  0.0658  0.2568  0.4585
31308SOL    HW195931   1.666   6.940   0.759  0.5385  0.0884 -1.2455
31308SOL    HW295932   1.735   7.046   0.675  0.1636  1.9905  0.7354
31309SOL     OW95933   0.318   1.349   5.515 -0.0158  0.2929  0.7388
31309SOL    HW195934   0.328   1.336   5.421 -1.1700 -0.9427  0.7554
31309SOL    HW295935   0.234   1.395   5.523 -1.6862 -2.6110  1.2757
31310SOL     OW95936   6.474   3.795   1.507 -0.0932  0.0550  0.5064
31310SOL    HW195937   6.537   3.732   1.473  0.9335  1.5681 -0.4930
31310SOL    HW295938   6.442   3.841   1.430 -1.7313 -0.0197  1.0925
31311SOL     OW95939   8.092   2.015   2.703 -0.3173  0.2718 -0.2456
31311SOL    HW195940   8.122   1.952   2.768  0.7113  0.1640 -0.7973
31311SOL    HW295941   8.074   1.962   2.625 -0.9882  0.4719 -0.2344
31312SOL     OW95942   5.037   5.294   7.115 -0.0138 -0.1745  0.5889
31312SOL    HW195943   5.122   5.282   7.158 -0.0409 -0.0422  0.6779
31312SOL    HW295944   4.974   5.253   7.173 -0.4616  2.5582  2.1884
31313SOL     OW95945   4.351   9.410   0.929  0.5451  0.1660 -0.1214
31313SOL    HW195946   4.270   9.434   0.975  0.6631  0.0442  0.1518
31313SOL    HW295947   4.324   9.395   0.839  0.4151  1.0446 -0.2400
31314SOL     OW95948   4.814   5.865   1.510  0.4421 -0.2229  0.1869
31314SOL    HW195949   4.834   5.958   1.506 -1.3390  0.2563  1.3684
31314SOL    HW295950   4.838   5.839   1.599 -0.9608 -0.3881  0.5362
31315SOL     OW95951  10.551   6.413   8.826 -0.1699 -0.4071 -0.8090
31315SOL    HW195952  10.508   6.347   8.771  0.9424 -0.8090 -1.2284
31315SOL    HW295953  10.571   6.367   8.907 -1.0232 -0.0610 -0.3950
31316SOL     OW95954   7.447   8.005  10.340 -0.7120  0.1151  0.1619
31316SOL    HW195955   7.505   7.944  10.386 -0.4714 -0.1231 -0.4410
31316SOL    HW295956   7.359   7.977  10.364 -0.6304 -0.9913 -0.7304
31317SOL     OW95957   6.955   4.416   2.576 -0.2139  0.3241 -0.0058
31317SOL    HW195958   7.049   4.407   2.558 -0.0153  1.2730  0.4664
31317SOL    HW295959   6.940   4.510   2.576 -1.0644  0.1976  0.4619
31318SOL     OW95960  10.145   2.777   6.256  0.6055  0.7467  0.7736
31318SOL    HW195961  10.136   2.767   6.351  1.2461  1.9868  0.9823
31318SOL    HW295962  10.238   2.791   6.242  0.5744  0.1443 -0.0956
31319SOL     OW95963   8.926   1.425  10.603 -0.1847  0.3527 -0.1975
31319SOL    HW195964   8.926   1.433  10.698 -1.4326 -0.1499 -0.1324
31319SOL    HW295965   8.890   1.509  10.572 -0.1240  0.3734 -0.2130
31320SOL     OW95966   7.683   6.102   9.363  0.4283  0.3344 -0.3236
31320SOL    HW195967   7.726   6.016   9.365  1.0369  0.5568 -2.0369
31320SOL    HW295968   7.590   6.082   9.369  0.6499 -0.2415  2.1131
31321SOL     OW95969   7.437   4.597   9.883 -0.5323 -0.1005 -0.4986
31321SOL    HW195970   7.519   4.548   9.879 -0.6914 -0.3524 -0.7045
31321SOL    HW295971   7.446   4.653   9.960 -1.2480 -2.0958  1.1403
31322SOL     OW95972   4.285  10.313   8.698 -0.0736 -0.8093 -0.0872
31322SOL    HW195973   4.361  10.256   8.688  1.6327  1.2086  0.5169
31322SOL    HW295974   4.286  10.368   8.620 -0.1898  0.0051  0.4687
31323SOL     OW95975   5.936   9.605   0.335  0.2265 -0.3595 -0.3597
31323SOL    HW195976   5.918   9.604   0.241  2.1068 -0.4873 -0.7501
31323SOL    HW295977   5.976   9.520   0.353 -0.4966 -0.4972  0.6456
31324SOL     OW95978   8.498   3.407   8.216  0.4333 -0.0110  0.1121
31324SOL    HW195979   8.575   3.361   8.182 -0.0123  1.1170 -2.6711
31324SOL    HW295980   8.463   3.454   8.141 -2.1928  0.6424  1.6248
31325SOL     OW95981   6.317   5.098   2.857  0.0494  0.0755  0.1802
31325SOL    HW195982   6.355   5.011   2.840 -0.0941  0.1188 -0.3748
31325SOL    HW295983   6.224   5.088   2.839 -0.6449 -0.5477  3.4121
31326SOL     OW95984   3.692   0.940   1.830  0.3974 -0.4291  0.0431
31326SOL    HW195985   3.616   0.962   1.883  1.0176  0.9915  0.4088
31326SOL    HW295986   3.678   0.849   1.803 -1.5429 -0.1254 -0.1237
31327SOL     OW95987   1.160   0.861   4.465  0.4184  0.4685  0.2388
31327SOL    HW195988   1.126   0.779   4.428  0.3661  1.1802 -1.3647
31327SOL    HW295989   1.083   0.918   4.468  0.9566  1.3214 -1.2161
31328SOL     OW95990  10.842   3.411   9.831 -0.1375  0.5197  0.0113
31328SOL    HW195991  10.794   3.461   9.897  0.2157 -0.9165  1.4313
31328SOL    HW295992  10.866   3.475   9.765 -0.3085  2.0786  1.4018
31329SOL     OW95993   4.287   4.960   1.463  0.0957 -0.0154  0.0408
31329SOL    HW195994   4.352   4.951   1.533 -2.1040  0.3133  2.2736
31329SOL    HW295995   4.289   5.053   1.441  0.3241  0.0076  0.1531
31330SOL     OW95996  10.877  10.740   4.512  0.8979  0.5694  0.3697
31330SOL    HW195997  10.942  10.743   4.582  1.8954 -1.6849 -0.3864
31330SOL    HW295998  10.882  10.651   4.478 -1.9539  0.5773 -0.3469
31331SOL     OW95999   8.387   8.162  10.796  0.6985 -0.2626  0.5945
31331SOL    HW196000   8.366   8.220  10.869  3.5662  1.4060  0.2397
31331SOL    HW296001   8.482   8.161  10.792  0.6916 -2.2159 -1.6762
31332SOL     OW96002   9.117   4.759   8.561 -0.0225 -0.5682  0.9397
31332SOL    HW196003   9.030   4.768   8.523  0.0697  1.4312  1.0818
31332SOL    HW296004   9.102   4.761   8.656  0.0461 -2.1616  1.0146
31333SOL     OW96005   7.653   3.943   2.870  0.0673 -0.4312  0.2201
31333SOL    HW196006   7.737   3.926   2.828  1.0756  1.9881  1.0473
31333SOL    HW296007   7.627   4.029   2.837 -0.9344 -0.1170  1.7221
31334SOL     OW96008   5.164   0.848   5.898 -0.0541  0.1965  0.0801
31334SOL    HW196009   5.112   0.928   5.907 -1.9167 -0.7221 -1.5393
31334SOL    HW296010   5.150   0.800   5.980  0.4454  1.1684  0.7438
31335SOL     OW96011   3.213  10.944   6.580 -0.2613  0.6390 -0.7257
31335SOL    HW196012   3.231  10.927   6.673 -0.5030 -2.6406 -1.1658
31335SOL    HW296013   3.119  10.931   6.571 -0.3751  1.7472 -1.3417
31336SOL     OW96014  10.286   1.574   2.914 -0.6739  0.1768  0.1767
31336SOL    HW196015  10.223   1.520   2.961  0.6737  0.0105  1.9082
31336SOL    HW296016  10.368   1.565   2.964 -0.0304  2.6694 -0.2680
31337SOL     OW96017   8.989   0.303   9.384  0.1851  0.2330 -0.5165
31337SOL    HW196018   8.896   0.296   9.365  0.0668  2.2803 -0.8551
31337SOL    HW296019   8.997   0.375   9.446  1.3605 -1.4313  1.4074
31338SOL     OW96020   5.391   6.939  10.323  0.0240 -0.0852 -0.1165
31338SOL    HW196021   5.358   7.000  10.389 -1.4765  0.5553 -1.3833
31338SOL    HW296022   5.383   6.987  10.241  0.9716 -1.1946 -0.8734
31339SOL     OW96023   6.438   1.830   2.499 -0.4880  0.8220  0.1803
31339SOL    HW196024   6.479   1.916   2.504 -2.5879  1.8606  1.4138
31339SOL    HW296025   6.346   1.847   2.520 -1.7926 -1.1895 -3.1717
31340SOL     OW96026   4.151   7.763   1.698  0.4241  0.2284 -0.0336
31340SOL    HW196027   4.158   7.828   1.628  2.0325  0.0297 -0.1012
31340SOL    HW296028   4.222   7.784   1.758  0.0006 -0.5260  0.7599
31341SOL     OW96029   5.759   0.748  10.210 -0.1667  0.7997  0.6325
31341SOL    HW196030   5.686   0.718  10.265 -0.4561 -0.4718 -0.4051
31341SOL    HW296031   5.802   0.815  10.263 -2.1219  1.6602  1.2400
31342SOL     OW96032   3.055   3.303  10.360  0.7279  0.5908 -0.4967
31342SOL    HW196033   2.976   3.355  10.343 -0.9930 -1.1612  1.5348
31342SOL    HW296034   3.114   3.324  10.287 -1.5776  2.0144 -2.0811
31343SOL     OW96035   7.771  10.584   3.162  0.2398  0.1709 -0.3346
31343SOL    HW196036   7.858  10.551   3.141 -0.6152 -0.5704 -3.2265
31343SOL    HW296037   7.717  10.505   3.171 -0.6125  0.6415 -1.1523
31344SOL     OW96038   9.706   1.560   2.385  0.2133  0.0885  0.4576
31344SOL    HW196039   9.640   1.517   2.332  1.1552  0.2745 -0.9298
31344SOL    HW296040   9.736   1.493   2.446 -0.5301 -0.2834  0.4239
31345SOL     OW96041   9.249   9.004   7.650 -0.7162  0.2289  0.5065
31345SOL    HW196042   9.293   9.047   7.724  2.8387 -1.5986 -0.3272
31345SOL    HW296043   9.219   9.076   7.595  0.2912  1.6172  1.7048
31346SOL     OW96044   6.843   4.004  10.289 -0.9681  0.6895  0.3777
31346SOL    HW196045   6.762   3.980  10.245 -1.0349  0.7429  0.4714
31346SOL    HW296046   6.868   4.087  10.249 -0.0623 -0.1388 -0.8472
31347SOL     OW96047   4.047  11.043   1.280  0.1452 -0.3094 -0.3922
31347SOL    HW196048   4.053  10.971   1.217  1.8576 -0.2076 -0.3947
31347SOL    HW296049   3.995  11.110   1.236  0.9217 -0.4274 -1.5226
31348SOL     OW96050   2.991   7.584   8.178 -0.2337  0.2585  0.0493
31348SOL    HW196051   2.916   7.532   8.149 -0.4593  0.2272  0.6752
31348SOL    HW296052   3.005   7.647   8.107 -1.3455  0.7773  0.2695
31349SOL     OW96053   9.547   7.554   3.756 -0.8800 -0.0829 -0.9604
31349SOL    HW196054   9.573   7.546   3.848  1.2735  1.0793 -1.4081
31349SOL    HW296055   9.558   7.466   3.720  2.0448  0.1765 -0.9441
31350SOL     OW96056   6.091  10.194   9.057 -0.7167  0.5129  0.0248
31350SOL    HW196057   6.049  10.174   9.141 -1.1695  3.4376  0.6172
31350SOL    HW296058   6.064  10.124   8.999 -1.7770 -0.7061  1.8884
31351SOL     OW96059   9.944  10.814   2.035 -0.3388 -0.2092  0.2162
31351SOL    HW196060   9.955  10.841   1.944 -2.2898  2.2844  0.6052
31351SOL    HW296061   9.945  10.718   2.032 -1.3121 -0.2255 -2.5791
31352SOL     OW96062   0.558   4.468   9.000 -0.1586 -0.4267  0.4183
31352SOL    HW196063   0.470   4.504   8.995 -0.1687 -0.5352 -0.3163
31352SOL    HW296064   0.615   4.545   9.005 -0.1276 -0.2110 -1.9429
31353SOL     OW96065   9.350   6.632   3.247 -0.0235  0.0307 -0.9101
31353SOL    HW196066   9.270   6.586   3.222 -0.8408 -0.0374  1.6107
31353SOL    HW296067   9.330   6.725   3.234 -0.4247  0.0006 -0.5092
31354SOL     OW96068   6.529   7.837   5.681 -0.1729 -0.1393 -0.4403
31354SOL    HW196069   6.589   7.828   5.607  0.1359  0.8880 -0.3252
31354SOL    HW296070   6.520   7.931   5.693  1.5974 -0.2325  2.3111
31355SOL     OW96071   4.045   1.805   1.012 -0.5284 -0.1232  0.4987
31355SOL    HW196072   4.119   1.765   0.965 -1.3109 -0.3783 -0.5488
31355SOL    HW296073   4.042   1.895   0.979 -0.7052 -0.1198  0.5261
31356SOL     OW96074   6.250   7.282   4.136 -0.4327 -0.3179 -0.5045
31356SOL    HW196075   6.322   7.224   4.111  0.2171  0.6463 -0.9202
31356SOL    HW296076   6.181   7.262   4.072 -0.4541 -1.0577 -0.2662
31357SOL     OW96077   9.212   2.516   5.149 -0.3350  0.1146 -0.6151
31357SOL    HW196078   9.305   2.499   5.163 -0.5214 -1.2494 -0.8842
31357SOL    HW296079   9.174   2.516   5.237 -0.3568 -1.1842 -0.6051
31358SOL     OW96080   3.918   8.829   1.735  0.2707  0.1587  0.3051
31358SOL    HW196081   3.905   8.734   1.728  0.7991  0.1343 -0.6338
31358SOL    HW296082   4.004   8.838   1.776  0.3957  0.2103  0.0400
31359SOL     OW96083   4.748  10.051  10.586 -0.2902 -0.2868  0.2585
31359SOL    HW196084   4.833  10.013  10.609 -0.2537  0.4235  1.3328
31359SOL    HW296085   4.727  10.012  10.501  1.3867 -0.0167 -0.3153
31360SOL     OW96086   4.949   3.715   9.129  0.2770  0.1528 -0.2306
31360SOL    HW196087   4.925   3.624   9.148  0.9413  0.4368  2.4123
31360SOL    HW296088   4.878   3.767   9.168  0.6767  0.7790 -0.3230
31361SOL     OW96089   9.361   6.600   0.445 -0.2091  0.7358  0.3470
31361SOL    HW196090   9.424   6.588   0.375 -0.2822  0.7981  0.2696
31361SOL    HW296091   9.327   6.512   0.463  0.1783  0.6441  0.6551
31362SOL     OW96092  10.757  10.571   8.194  0.6154 -0.4728  0.1979
31362SOL    HW196093  10.685  10.634   8.185  0.2635 -0.3257  3.0870
31362SOL    HW296094  10.716  10.485   8.185  0.8163 -0.3926 -2.0721
31363SOL     OW96095   2.708   1.915   2.985  0.3910  0.1332  0.5132
31363SOL    HW196096   2.651   1.883   2.914 -0.0126  0.4875  0.6676
31363SOL    HW296097   2.648   1.932   3.057  0.8634 -0.6458  1.0986
31364SOL     OW96098   9.140   6.590   8.023  0.1131 -0.1373  0.4994
31364SOL    HW196099   9.084   6.514   8.034  2.3096 -1.6969  1.5017
31364SOL    HW296100   9.185   6.575   7.941 -0.6147  0.9429 -0.1273
31365SOL     OW96101   0.711   4.484   3.306 -0.2750 -0.1553  0.0809
31365SOL    HW196102   0.702   4.490   3.211  1.5829 -1.3485 -0.2073
31365SOL    HW296103   0.758   4.564   3.330 -0.5389  0.0316 -0.0075
31366SOL     OW96104   7.373   4.083   7.980 -0.6324 -0.9533  0.4185
31366SOL    HW196105   7.460   4.051   7.957  0.5989  0.9415  2.0938
31366SOL    HW296106   7.313   4.029   7.928  1.5660 -1.3935 -1.8759
31367SOL     OW96107   5.641   7.578   2.769  0.9406  0.1833 -0.4278
31367SOL    HW196108   5.587   7.639   2.720 -0.1500  0.5130  1.1062
31367SOL    HW296109   5.652   7.503   2.711  1.2593  1.2963 -1.8548
31368SOL     OW96110   7.561   5.777   7.418  0.0589  0.0931  0.3166
31368SOL    HW196111   7.629   5.715   7.445  1.4680 -0.6950 -4.1316
31368SOL    HW296112   7.488   5.721   7.392  0.1222  0.4609 -0.7015
31369SOL     OW96113   5.118   0.664   2.957  0.1788 -0.1846 -0.1880
31369SOL    HW196114   5.107   0.651   2.863  1.2917  0.3175 -0.4029
31369SOL    HW296115   5.096   0.756   2.971 -0.0680 -0.2808  0.0643
31370SOL     OW96116   9.772   1.776   4.721  0.0932  0.2205 -0.2375
31370SOL    HW196117   9.798   1.698   4.673 -0.9638 -0.3281  0.0470
31370SOL    HW296118   9.821   1.772   4.802  0.3510  0.0643 -0.3999
31371SOL     OW96119  10.646   6.417   4.506  0.4309  0.2740  0.3675
31371SOL    HW196120  10.606   6.330   4.514 -0.0583  0.4856  0.2728
31371SOL    HW296121  10.736   6.405   4.537  0.0822 -0.0535  1.2751
31372SOL     OW96122   3.684   5.334   1.443 -0.3518 -0.2974 -0.4264
31372SOL    HW196123   3.773   5.355   1.473 -0.8343  0.8126  0.3125
31372SOL    HW296124   3.657   5.261   1.498 -0.8908  1.1436  1.3064
31373SOL     OW96125   2.651   4.837   9.632  0.0139 -0.6263 -0.6351
31373SOL    HW196126   2.566   4.807   9.600 -0.9725  1.4764 -0.0955
31373SOL    HW296127   2.703   4.850   9.552 -0.6851 -0.4135 -1.0558
31374SOL     OW96128   5.653   5.520   2.459  0.0193 -0.0688  0.0897
31374SOL    HW196129   5.668   5.471   2.540 -0.1069 -0.1499  0.0637
31374SOL    HW296130   5.666   5.612   2.485  1.3659 -0.1812 -0.1185
31375SOL     OW96131   2.332   0.946   1.444  0.2881  0.2025 -0.3940
31375SOL    HW196132   2.292   0.999   1.375 -2.6404 -1.4112 -0.1204
31375SOL    HW296133   2.330   1.002   1.521  1.2067  1.1192 -1.0090
31376SOL     OW96134   8.281  10.493   7.157  0.5472 -0.3269  0.0399
31376SOL    HW196135   8.231  10.483   7.076  1.4238 -2.6367 -0.2860
31376SOL    HW296136   8.260  10.415   7.208  1.6853  0.0142  1.0797
31377SOL     OW96137  10.166  10.199   3.332  0.0168  0.5775 -0.0601
31377SOL    HW196138  10.139  10.107   3.337 -0.1532  0.6536  0.5326
31377SOL    HW296139  10.184  10.223   3.423 -0.3788  1.2646 -0.1599
31378SOL     OW96140   5.658   7.651   5.193  0.2267  0.0389  0.1256
31378SOL    HW196141   5.716   7.583   5.159 -0.5111 -0.7901  0.4747
31378SOL    HW296142   5.572   7.609   5.197 -0.1724  0.8825  0.6888
31379SOL     OW96143   8.831   5.066   1.175 -0.3252  0.3628 -0.4571
31379SOL    HW196144   8.811   5.007   1.103 -2.7896  1.5425 -0.8461
31379SOL    HW296145   8.864   5.146   1.133  0.2750  0.2829 -0.1404
31380SOL     OW96146   1.483   9.851   4.513  0.1412  0.3456  0.1548
31380SOL    HW196147   1.505   9.759   4.531  1.1708  0.4006 -0.7059
31380SOL    HW296148   1.391   9.860   4.539 -0.5919 -1.4422 -1.5929
31381SOL     OW96149   1.515   2.429   1.065 -0.8602 -0.3957  0.1529
31381SOL    HW196150   1.538   2.344   1.103  0.1881  1.0192  2.9824
31381SOL    HW296151   1.449   2.409   0.999  0.9906 -3.6050 -0.9471
31382SOL     OW96152   9.213   2.991   3.277 -0.0678 -0.3595 -0.7352
31382SOL    HW196153   9.184   3.074   3.239  0.0341  0.5687  1.1244
31382SOL    HW296154   9.306   2.986   3.255 -0.4313 -0.8398 -2.2940
31383SOL     OW96155   2.793   7.821  10.839 -0.2256  0.1295 -0.0223
31383SOL    HW196156   2.772   7.733  10.808 -1.1534  0.2989  0.0943
31383SOL    HW296157   2.889   7.822  10.846 -0.2326 -0.9807  0.3327
31384SOL     OW96158   7.676   1.654   6.342  0.2939 -0.0316  0.1997
31384SOL    HW196159   7.713   1.676   6.256  1.0428  2.3303  1.0467
31384SOL    HW296160   7.641   1.566   6.331  0.8196 -0.0012 -2.3796
31385SOL     OW96161   2.878   8.140   2.955 -0.2249 -0.8313 -0.5829
31385SOL    HW196162   2.791   8.170   2.929  0.3966 -0.1253 -1.9900
31385SOL    HW296163   2.888   8.055   2.913 -0.5190 -1.2584  0.2069
31386SOL     OW96164   8.382   2.580   8.502  0.2766 -0.1719  0.4648
31386SOL    HW196165   8.429   2.569   8.419  1.1058 -0.6851  0.9854
31386SOL    HW296166   8.447   2.618   8.562  0.4043 -1.9387  1.5190
31387SOL     OW96167   5.812   2.628   2.487  0.3645  0.2637  0.1689
31387SOL    HW196168   5.802   2.606   2.580 -1.4654 -0.4934 -0.1575
31387SOL    HW296169   5.808   2.544   2.442  2.5884  0.4928 -0.5489
31388SOL     OW96170   6.657   5.630   9.679 -0.0516 -0.2538 -0.2587
31388SOL    HW196171   6.678   5.679   9.599 -0.2775 -0.3028 -0.3481
31388SOL    HW296172   6.564   5.648   9.694 -0.5778 -1.9828 -1.2101
31389SOL     OW96173   8.252   3.228   8.169 -0.2430  0.2627  0.1848
31389SOL    HW196174   8.311   3.160   8.201  0.8804  0.3108 -1.6028
31389SOL    HW296175   8.310   3.291   8.125 -1.2347  2.4314  1.8135
31390SOL     OW96176   0.189   6.793   8.528  1.3927 -0.2222  0.7329
31390SOL    HW196177   0.123   6.862   8.525  0.4988 -1.0733  0.4706
31390SOL    HW296178   0.167   6.741   8.605  1.1536 -1.0789  0.1076
31391SOL     OW96179   7.060   8.382   9.793 -0.1933  0.4143 -0.0659
31391SOL    HW196180   7.139   8.398   9.845 -0.2930  0.8081 -0.0303
31391SOL    HW296181   7.043   8.465   9.749 -1.5716  0.8924  1.2803
31392SOL     OW96182   6.221   2.117   3.769  1.2131 -0.3233  0.3765
31392SOL    HW196183   6.150   2.097   3.829  0.8230 -1.9498 -0.5523
31392SOL    HW296184   6.215   2.212   3.755 -1.4316 -0.5229 -0.4212
31393SOL     OW96185   5.465   9.036  10.191  0.3625  0.6260  0.6860
31393SOL    HW196186   5.528   8.968  10.170  0.1549  1.0886 -1.6457
31393SOL    HW296187   5.514   9.118  10.183  0.1057  0.8786  1.5198
31394SOL     OW96188   6.666   5.434   8.683 -0.3719  0.0778  0.1640
31394SOL    HW196189   6.633   5.520   8.709 -0.0190  0.4298 -0.5330
31394SOL    HW296190   6.664   5.434   8.588  0.1150 -0.4956  0.1421
31395SOL     OW96191   5.958   7.522   2.674  0.3074  0.1998  0.1132
31395SOL    HW196192   6.016   7.584   2.717 -1.0676  0.8328  1.1588
31395SOL    HW296193   5.906   7.484   2.745  0.2139 -1.2003 -0.6505
31396SOL     OW96194  10.878   1.887  10.725  0.0119 -0.2104  0.2874
31396SOL    HW196195  10.941   1.943  10.770 -2.4774  2.3473  0.8047
31396SOL    HW296196  10.853   1.936  10.647 -2.3537 -0.4461  0.8267
31397SOL     OW96197   6.144   0.773   1.610  0.1502 -0.5999 -0.3761
31397SOL    HW196198   6.169   0.864   1.624  0.4360 -1.0414  2.7154
31397SOL    HW296199   6.225   0.729   1.587  0.4163 -0.3852  0.1204
31398SOL     OW96200   5.574   5.095   9.287  0.6088 -0.8694  0.6450
31398SOL    HW196201   5.483   5.106   9.313 -0.5871 -1.4548 -2.7953
31398SOL    HW296202   5.619   5.169   9.327 -1.8827  0.9410  0.3294
31399SOL     OW96203   0.892   7.770   0.874 -0.5791 -0.8382 -0.4134
31399SOL    HW196204   0.815   7.719   0.896 -1.0037  0.3084  0.9061
31399SOL    HW296205   0.966   7.715   0.901 -0.9046 -1.9212 -1.6491
31400SOL     OW96206   9.793   8.191   3.243  0.4207  0.1261 -0.3079
31400SOL    HW196207   9.699   8.206   3.230  0.6573  0.7563 -1.3089
31400SOL    HW296208   9.812   8.234   3.326 -0.5232 -1.5316  0.8332
31401SOL     OW96209   4.521   0.917   0.760 -0.3689  0.2493 -0.0948
31401SOL    HW196210   4.572   0.871   0.693 -0.0437  0.2627  0.1416
31401SOL    HW296211   4.545   0.874   0.842 -1.4868 -0.3920 -0.0889
31402SOL     OW96212   3.387   3.365   5.294 -0.2603 -0.0693  0.0621
31402SOL    HW196213   3.295   3.392   5.288 -0.0038  1.1455  1.2134
31402SOL    HW296214   3.390   3.309   5.371  0.0953  0.4877  0.4562
31403SOL     OW96215   6.100   3.474  10.268  0.0542 -0.0790  0.2675
31403SOL    HW196216   6.106   3.533  10.193  0.2807 -0.4702 -0.0224
31403SOL    HW296217   6.186   3.479  10.310  0.2008 -0.4981  0.0198
31404SOL     OW96218  11.021   3.649   5.009  0.3705  0.0308  0.1296
31404SOL    HW196219  10.983   3.736   5.022  1.3798  0.5180 -0.0846
31404SOL    HW296220  10.990   3.623   4.922 -0.3159 -0.0313  0.3861
31405SOL     OW96221   1.845   4.374   3.236  0.7570 -0.5532 -0.1104
31405SOL    HW196222   1.875   4.359   3.326  0.6813 -2.0484 -0.3150
31405SOL    HW296223   1.750   4.382   3.244  0.7285 -0.9151 -0.0867
31406SOL     OW96224   4.131   8.024   0.589 -0.1055 -0.7591  0.4541
31406SOL    HW196225   4.092   8.106   0.620  2.6338  0.8126  0.0762
31406SOL    HW296226   4.140   7.971   0.668  2.2841  1.2492  1.6837
31407SOL     OW96227   2.324   2.882   4.954  0.5166  0.7177  0.3129
31407SOL    HW196228   2.359   2.970   4.936  3.3278  0.1018  2.1710
31407SOL    HW296229   2.300   2.884   5.046  0.4744 -0.4526  0.3396
31408SOL     OW96230   7.417   3.344   6.729 -0.1929  0.5476 -0.3052
31408SOL    HW196231   7.463   3.361   6.811 -0.3654 -0.6626  0.0568
31408SOL    HW296232   7.350   3.280   6.751  0.5505 -0.7601 -1.6000
31409SOL     OW96233   8.783   4.816   3.906  0.7244  0.4229 -0.9547
31409SOL    HW196234   8.703   4.781   3.945  1.2673  0.2709  0.0604
31409SOL    HW296235   8.755   4.895   3.860 -0.1630 -0.1650 -1.4620
31410SOL     OW96236  10.017   8.374   9.157  0.5592 -0.6492  0.0051
31410SOL    HW196237   9.935   8.326   9.146  0.4770 -0.3971 -0.5153
31410SOL    HW296238  10.032   8.415   9.072  0.9386 -0.2399  0.2673
31411SOL     OW96239  10.683   7.111   0.817 -0.1072  0.8937 -0.1241
31411SOL    HW196240  10.685   7.206   0.803  3.1556  0.8584 -0.5865
31411SOL    HW296241  10.699   7.101   0.911 -1.5426  0.7698  0.1297
31412SOL     OW96242   2.710   2.945   6.560  0.5077  0.3356  0.6187
31412SOL    HW196243   2.690   2.868   6.613 -0.4231 -0.5864 -0.9637
31412SOL    HW296244   2.758   3.003   6.618  2.8835 -2.2008  1.3993
31413SOL     OW96245   4.806   5.284   5.372 -0.1214 -0.1755  0.0224
31413SOL    HW196246   4.826   5.338   5.448 -3.6188 -0.4999  1.3270
31413SOL    HW296247   4.811   5.194   5.404  0.0355 -0.3914 -0.5942
31414SOL     OW96248   9.800   2.867   7.762  0.3128  0.3258  0.2517
31414SOL    HW196249   9.885   2.887   7.801  0.0940  1.9430 -0.0476
31414SOL    HW296250   9.807   2.896   7.671 -0.5928  0.6153  0.2568
31415SOL     OW96251   7.399   4.639   9.251  0.1223 -0.0096  0.2441
31415SOL    HW196252   7.407   4.544   9.245 -0.3104 -0.1458  1.5681
31415SOL    HW296253   7.396   4.668   9.160 -0.3132 -1.3105 -0.1815
31416SOL     OW96254   2.844   5.505  11.018 -0.4320 -0.4927  0.1329
31416SOL    HW196255   2.787   5.531  10.945  0.1150  0.3573 -0.0105
31416SOL    HW296256   2.796   5.435  11.062 -0.6077 -1.2929 -1.2628
31417SOL     OW96257   4.555   5.053  10.466 -0.4713 -0.0478 -0.1977
31417SOL    HW196258   4.546   5.133  10.415 -2.1850 -0.6779 -0.9696
31417SOL    HW296259   4.483   5.055  10.528 -0.6074 -1.0259 -0.2996
31418SOL     OW96260   4.755   6.026   9.826  0.1480  0.3281  0.4116
31418SOL    HW196261   4.710   6.083   9.889 -1.5629  1.1459 -1.4511
31418SOL    HW296262   4.705   6.036   9.745  1.5441 -1.6357 -0.7618
31419SOL     OW96263   9.622   3.667   5.939 -0.5276 -1.1532 -0.1005
31419SOL    HW196264   9.631   3.620   5.856  1.9441  0.2360 -0.7139
31419SOL    HW296265   9.710   3.699   5.958 -0.6624 -2.6426  3.8467
31420SOL     OW96266   1.062   2.709   6.334 -0.0010 -0.4356 -0.0916
31420SOL    HW196267   1.020   2.770   6.273  1.8874  0.0642 -0.9647
31420SOL    HW296268   0.989   2.663   6.375 -1.4456 -1.6930 -3.6184
31421SOL     OW96269   1.435   6.993   1.646  0.7494 -0.1548  0.9113
31421SOL    HW196270   1.517   6.945   1.635  0.1901 -0.6396 -1.8272
31421SOL    HW296271   1.458   7.066   1.705  3.6325  0.7328 -1.0927
31422SOL     OW96272  10.453   4.572   8.200 -0.9115 -0.1641 -0.5558
31422SOL    HW196273  10.441   4.545   8.290 -0.5198  0.2878 -0.3619
31422SOL    HW296274  10.535   4.531   8.172 -0.3575  0.7263 -0.2860
31423SOL     OW96275   5.942   5.129   0.840  0.2496  0.0697  0.4681
31423SOL    HW196276   5.930   5.083   0.757  3.8998  0.8286 -0.6776
31423SOL    HW296277   5.910   5.068   0.907 -0.9700 -1.3833 -1.3553
31424SOL     OW96278   6.297   9.511   9.854 -0.0529  0.2911  0.2955
31424SOL    HW196279   6.312   9.522   9.947  0.2085 -2.5226  0.6552
31424SOL    HW296280   6.224   9.570   9.835  0.6254  1.7663  1.9883
31425SOL     OW96281  10.816   5.040   3.180 -0.3761 -0.0841 -0.3782
31425SOL    HW196282  10.731   5.068   3.213 -0.1993  0.3624 -0.2933
31425SOL    HW296283  10.879   5.084   3.237 -0.0989 -1.0366  0.0604
31426SOL     OW96284   1.214   6.934   0.862  0.5174  0.2036 -0.2556
31426SOL    HW196285   1.125   6.942   0.896  0.2727  2.9774 -1.3046
31426SOL    HW296286   1.209   6.968   0.773  2.4575 -0.4285 -0.6554
31427SOL     OW96287   9.393   5.199   6.373 -0.3806 -0.0514 -0.1552
31427SOL    HW196288   9.374   5.202   6.467 -1.5309 -2.8077 -0.2016
31427SOL    HW296289   9.483   5.166   6.368  0.8699  3.0766 -0.0660
31428SOL     OW96290   5.788   8.416   4.863  0.1485 -0.2265 -0.4487
31428SOL    HW196291   5.762   8.452   4.948  1.3042 -0.2789 -0.0468
31428SOL    HW296292   5.719   8.444   4.803 -1.4341 -1.4041  0.7579
31429SOL     OW96293   7.827   6.718  10.066 -0.2090 -0.2616  0.0115
31429SOL    HW196294   7.825   6.775  10.143  0.5865 -1.9013  1.3286
31429SOL    HW296295   7.916   6.726  10.032 -0.3861  0.0096 -0.3960
31430SOL     OW96296   6.620   9.729   8.070 -0.1974  0.1377 -0.2667
31430SOL    HW196297   6.533   9.743   8.107 -0.2906 -1.5537  0.2247
31430SOL    HW296298   6.603   9.695   7.982 -0.0322  0.4723 -0.4258
31431SOL     OW96299   4.821  10.877   8.260  0.2046 -0.5019 -0.2824
31431SOL    HW196300   4.842  10.848   8.171 -1.8150 -1.1806 -0.5793
31431SOL    HW296301   4.896  10.932   8.285  1.4070 -1.3120 -1.9009
31432SOL     OW96302   9.275   8.911   8.986 -0.0302 -0.1388 -0.0917
31432SOL    HW196303   9.307   8.949   9.068  0.8695 -3.5220  1.2876
31432SOL    HW296304   9.213   8.976   8.952  1.9115  2.8419  1.5449
31433SOL     OW96305   7.690   7.964   0.032 -0.0777  0.0399 -0.4171
31433SOL    HW196306   7.746   7.961   0.109 -0.4747  1.2736 -0.0624
31433SOL    HW296307   7.601   7.960   0.067 -0.2414 -0.3619 -0.8747
31434SOL     OW96308   5.438   4.909   7.251  0.1202 -0.0932  0.5191
31434SOL    HW196309   5.393   4.958   7.320  0.3635 -0.6501  1.0743
31434SOL    HW296310   5.507   4.860   7.296 -0.2649 -1.1340  0.0137
31435SOL     OW96311   8.138   3.703   3.485 -0.3196  0.0480  0.1598
31435SOL    HW196312   8.172   3.731   3.400 -1.8840  2.1912  0.1698
31435SOL    HW296313   8.217   3.682   3.535  1.0000  3.0186 -0.4213
31436SOL     OW96314   3.670   9.955   3.542 -0.3172 -0.1418 -0.0430
31436SOL    HW196315   3.680   9.923   3.452  0.3199 -2.5853  0.8078
31436SOL    HW296316   3.741  10.017   3.554 -0.2122 -0.0393 -1.1158
31437SOL     OW96317  10.459   4.606   3.952  0.0693 -0.2108 -0.4514
31437SOL    HW196318  10.371   4.625   3.982  0.7640  1.8431  0.4907
31437SOL    HW296319  10.474   4.515   3.976 -2.1507 -0.9527 -1.6364
31438SOL     OW96320   0.320   0.462   2.400 -0.3748 -0.1051 -0.4083
31438SOL    HW196321   0.368   0.420   2.329  1.4964  0.1308  0.6336
31438SOL    HW296322   0.280   0.389   2.448  1.3219 -0.6175  0.3215
31439SOL     OW96323   7.951   6.271   2.824  0.2909  0.2447 -0.1943
31439SOL    HW196324   8.032   6.226   2.848  1.0747  1.5750 -0.2547
31439SOL    HW296325   7.935   6.331   2.897 -0.5164  0.1739 -0.3030
31440SOL     OW96326   8.443   3.747   9.060 -0.2196  0.0514 -1.3832
31440SOL    HW196327   8.441   3.826   9.007 -3.3512  0.4650 -0.8857
31440SOL    HW296328   8.452   3.778   9.150 -2.9804  0.0945 -1.0351
31441SOL     OW96329  10.779   4.484   9.425 -0.0282  0.5676  0.4770
31441SOL    HW196330  10.694   4.477   9.380  0.8742  0.6249 -1.3139
31441SOL    HW296331  10.776   4.415   9.491  1.0994 -4.3971 -4.0034
31442SOL     OW96332   4.727   2.135   3.772  0.7240  0.1401  0.2385
31442SOL    HW196333   4.648   2.171   3.813  1.6982  0.6495  1.7334
31442SOL    HW296334   4.713   2.040   3.771  0.2069  0.2091  0.7278
31443SOL     OW96335   1.429   0.979   1.367 -0.3538  0.1831 -0.3928
31443SOL    HW196336   1.416   1.058   1.314 -2.1699  0.6455  0.6140
31443SOL    HW296337   1.343   0.965   1.409 -0.0242 -2.2431 -0.4147
31444SOL     OW96338   7.793   2.469   3.177  0.3882 -0.1840 -0.6517
31444SOL    HW196339   7.739   2.542   3.147  2.2057  2.5396  2.1623
31444SOL    HW296340   7.859   2.458   3.109  1.2390  2.1858 -0.2895
31445SOL     OW96341   9.947   2.983   0.848  0.3705 -0.1730 -0.7746
31445SOL    HW196342   9.900   2.971   0.766  0.7582  0.3694 -1.0839
31445SOL    HW296343   9.908   3.062   0.886  0.2246 -0.3956 -0.4608
31446SOL     OW96344  10.615   9.615   6.349 -0.0138  0.4523 -0.7076
31446SOL    HW196345  10.706   9.586   6.344 -0.0341  0.6138 -2.5742
31446SOL    HW296346  10.594   9.643   6.260 -1.8550  0.5398 -0.2745
31447SOL     OW96347   0.980   6.854   5.336  0.0679  0.0901 -0.0718
31447SOL    HW196348   1.029   6.916   5.390 -0.1333  1.0860 -0.9901
31447SOL    HW296349   1.024   6.856   5.251 -2.0483  1.7230 -1.2228
31448SOL     OW96350   2.527   8.166   8.014 -0.8969 -0.1554 -0.8536
31448SOL    HW196351   2.575   8.243   7.985  1.7080 -0.8385  1.2384
31448SOL    HW296352   2.443   8.199   8.045  0.4645  2.0051  0.7606
31449SOL     OW96353   4.973  10.989  10.430  0.6517  0.4292  0.1864
31449SOL    HW196354   5.042  10.993  10.363 -0.1564  0.3164 -0.6838
31449SOL    HW296355   4.991  10.909  10.478  0.9116  0.1939 -0.2936
31450SOL     OW96356   3.392   1.493   0.131 -0.0309  0.5571  0.3151
31450SOL    HW196357   3.357   1.509   0.043 -0.2965  0.7553  0.4557
31450SOL    HW296358   3.434   1.575   0.156  2.3576 -0.2514 -0.6632
31451SOL     OW96359   8.536   1.264   0.222  0.5715 -0.2593 -0.4780
31451SOL    HW196360   8.625   1.284   0.248  0.1376 -0.9657  1.7290
31451SOL    HW296361   8.539   1.172   0.194  0.7482  0.0890 -1.6947
31452SOL     OW96362   4.376   1.766   9.574  0.0972 -0.2051 -0.3049
31452SOL    HW196363   4.338   1.720   9.499  0.0724 -0.6287 -0.0368
31452SOL    HW296364   4.432   1.701   9.616  0.9003  0.3278 -0.5301
31453SOL     OW96365   2.592   8.093   6.570  0.0708 -0.0180  0.0251
31453SOL    HW196366   2.531   8.091   6.644 -1.0493 -2.8542 -0.8143
31453SOL    HW296367   2.537   8.111   6.494  0.6684 -0.2236 -0.4649
31454SOL     OW96368  10.006   9.300   3.901  0.0368 -0.9991  0.5941
31454SOL    HW196369  10.028   9.274   3.812 -0.3638 -0.5605  0.3644
31454SOL    HW296370  10.053   9.382   3.915  0.3328 -1.2161  0.8921
31455SOL     OW96371   8.186   6.126   9.038 -0.1043 -0.5466  0.4959
31455SOL    HW196372   8.102   6.170   9.033  0.6258  0.7320 -1.7422
31455SOL    HW296373   8.182   6.058   8.970  1.1730  0.5289 -0.7045
31456SOL     OW96374   0.858   0.519   4.079 -1.2727 -0.0848 -0.9183
31456SOL    HW196375   0.823   0.594   4.127 -0.5149  0.7317 -1.6012
31456SOL    HW296376   0.805   0.514   3.999  0.1894  1.2728 -2.0472
31457SOL     OW96377   0.659  10.032   9.143  0.3616 -0.1350 -0.5881
31457SOL    HW196378   0.703  10.101   9.193 -0.7805  1.2633 -1.4438
31457SOL    HW296379   0.664   9.955   9.199  0.9937  0.8349  0.7416
31458SOL     OW96380   7.431   4.982   7.721 -0.0473 -1.0019 -0.1731
31458SOL    HW196381   7.450   5.021   7.806 -1.2424  0.0739 -0.3775
31458SOL    HW296382   7.415   5.057   7.663  1.6500 -1.6567 -1.6023
31459SOL     OW96383   7.215   3.647   8.116  0.2428 -0.0961 -0.1444
31459SOL    HW196384   7.168   3.695   8.183  0.7330  3.6422 -2.1779
31459SOL    HW296385   7.282   3.709   8.084 -0.2970 -1.3283 -4.3742
31460SOL     OW96386   3.371   0.923   9.160  0.1143  0.3946 -0.3992
31460SOL    HW196387   3.451   0.976   9.172  0.3550 -0.5546  3.6343
31460SOL    HW296388   3.403   0.837   9.133  0.2163  0.6891 -1.2378
31461SOL     OW96389   8.117   2.605   6.114 -0.4058  0.0752  0.8577
31461SOL    HW196390   8.046   2.574   6.171  0.4523 -1.0137  1.3854
31461SOL    HW296391   8.080   2.681   6.068 -3.1437 -2.3944 -1.4819
31462SOL     OW96392   3.753   9.555   5.273 -0.3314  0.3394  1.0140
31462SOL    HW196393   3.721   9.606   5.198 -0.2853 -0.0235  0.7439
31462SOL    HW296394   3.720   9.602   5.350  1.2746  1.8409  0.8493
31463SOL     OW96395   1.472   0.695   2.325 -0.0453 -0.4155 -0.5764
31463SOL    HW196396   1.461   0.784   2.290 -0.8781  0.1461  0.9967
31463SOL    HW296397   1.507   0.709   2.413 -0.9100 -1.6051 -0.0132
31464SOL     OW96398   4.515   0.418   4.032 -0.4592  0.2222 -1.1043
31464SOL    HW196399   4.596   0.468   4.035 -1.2048  1.5136 -1.7936
31464SOL    HW296400   4.502   0.387   4.122  0.6047  0.2832 -0.9207
31465SOL     OW96401   8.349   4.610   3.807 -0.4937  0.0494  0.4517
31465SOL    HW196402   8.332   4.615   3.901  1.4018  0.1138  0.8350
31465SOL    HW296403   8.280   4.553   3.773  0.5096 -2.5601  2.4083
31466SOL     OW96404  10.246  10.258   2.083  0.2431  0.4421  0.3743
31466SOL    HW196405  10.324  10.260   2.028  2.0349  0.5437  2.7824
31466SOL    HW296406  10.279  10.256   2.172 -2.5354  0.6273  1.5119
31467SOL     OW96407   2.175   2.212   4.787 -1.2407  0.4648  0.1349
31467SOL    HW196408   2.260   2.211   4.743 -1.1818  0.2561  0.2542
31467SOL    HW296409   2.162   2.122   4.817 -0.7013  0.8521  1.6485
31468SOL     OW96410   0.603   7.720   7.022 -0.0959  0.7029 -0.0399
31468SOL    HW196411   0.688   7.761   7.043  1.2844 -0.8605 -2.1621
31468SOL    HW296412   0.622   7.663   6.948 -2.3760 -2.0026  1.2585
31469SOL     OW96413   8.284   8.897   8.950  0.8525  0.2260 -0.0282
31469SOL    HW196414   8.361   8.841   8.957  1.8620  1.6768  1.1477
31469SOL    HW296415   8.210   8.838   8.963  1.7214 -1.2376 -1.3876
31470SOL     OW96416   2.715  10.427   2.866 -0.3355 -0.3069 -0.3567
31470SOL    HW196417   2.693  10.371   2.940 -3.3366  0.4078 -0.5787
31470SOL    HW296418   2.692  10.375   2.789 -1.0460  0.3783 -0.6231
31471SOL     OW96419   2.549   0.843   4.462  0.1810 -0.5011 -0.1442
31471SOL    HW196420   2.619   0.902   4.492 -0.3916 -0.2142  0.6742
31471SOL    HW296421   2.550   0.852   4.367 -0.1570  1.1875 -0.0311
31472SOL     OW96422   2.752   8.990   9.038  0.3658  0.3270  0.4321
31472SOL    HW196423   2.671   9.010   8.990 -0.1981 -0.9765  0.7912
31472SOL    HW296424   2.805   8.941   8.975 -0.6126 -1.8903  1.2420
31473SOL     OW96425   3.402   2.398   4.469  0.0821  0.0022  0.3727
31473SOL    HW196426   3.421   2.444   4.388 -0.2189 -0.4250  0.0597
31473SOL    HW296427   3.307   2.399   4.477  0.0528 -0.7825  0.2328
31474SOL     OW96428   0.738  10.372   6.528  0.1990  0.1846 -0.1984
31474SOL    HW196429   0.826  10.365   6.565  0.1370  0.9876  0.1312
31474SOL    HW296430   0.723  10.466   6.521 -0.2181  0.0551 -1.2704
31475SOL     OW96431   5.363   4.178   1.336  0.4976 -0.3928 -0.1342
31475SOL    HW196432   5.291   4.123   1.305 -2.0502  1.4052  2.0979
31475SOL    HW296433   5.404   4.128   1.406 -1.0597 -0.0094  1.1035
31476SOL     OW96434   6.674   4.920   8.861  0.0583  0.0672  0.3500
31476SOL    HW196435   6.603   4.865   8.893 -1.7218  0.7237 -2.1919
31476SOL    HW296436   6.648   5.009   8.884  0.9070  0.2165  0.8114
31477SOL     OW96437   3.156   8.746   5.626  0.2258  0.2565  0.1869
31477SOL    HW196438   3.205   8.803   5.686  2.1953 -1.1292 -0.0139
31477SOL    HW296439   3.098   8.696   5.684 -1.7572  2.5385  0.3426
31478SOL     OW96440   3.318   7.308  10.971  0.0309 -0.3505 -0.5095
31478SOL    HW196441   3.244   7.272  10.923 -0.0203  0.4133 -1.0111
31478SOL    HW296442   3.306   7.275  11.061 -1.7359  0.9257 -0.2180
31479SOL     OW96443   0.133   1.557   3.849  0.1502 -0.2306  0.2623
31479SOL    HW196444   0.169   1.564   3.937  0.8117  1.4596 -0.0889
31479SOL    HW296445   0.196   1.502   3.802  0.8417  0.4194  0.3869
31480SOL     OW96446   8.888   6.413   4.216  0.5007 -0.0633 -0.1200
31480SOL    HW196447   8.937   6.432   4.296 -0.2125 -1.8866  0.8095
31480SOL    HW296448   8.955   6.385   4.154  1.0114  0.9027 -0.0298
31481SOL     OW96449   0.058   3.538   0.723 -0.0880  0.0746 -0.1622
31481SOL    HW196450   0.124   3.477   0.755  0.6340  0.7518 -0.3186
31481SOL    HW296451   0.011   3.490   0.655 -0.5226 -0.7987  0.7287
31482SOL     OW96452   6.844   9.028   7.528  0.1714  0.1523  0.5277
31482SOL    HW196453   6.859   9.039   7.622 -0.2145  1.0672  0.4910
31482SOL    HW296454   6.749   9.023   7.520  0.2279 -0.6824  0.2490
31483SOL     OW96455   3.518   4.248   0.059  0.6155  0.1338  0.6973
31483SOL    HW196456   3.554   4.164   0.028  1.0282  0.4819  0.1988
31483SOL    HW296457   3.470   4.226   0.138  0.1050 -0.6891  0.1754
31484SOL     OW96458   2.527   0.599  10.519 -0.4248  0.3749 -0.6412
31484SOL    HW196459   2.465   0.620  10.589  0.6250  2.0957 -0.1547
31484SOL    HW296460   2.532   0.679  10.466 -0.5231 -0.6026 -2.1868
31485SOL     OW96461   7.982   2.854   4.822 -0.1642 -0.1997 -0.1612
31485SOL    HW196462   7.997   2.920   4.754 -1.2633 -0.1033 -0.3261
31485SOL    HW296463   7.995   2.901   4.904  1.3329 -0.3556 -0.2867
31486SOL     OW96464   6.252  10.436   3.425  1.0381  0.4016  0.2543
31486SOL    HW196465   6.277  10.388   3.504  1.0296  1.5454  0.9630
31486SOL    HW296466   6.232  10.524   3.455 -1.9796  0.0907 -0.5631
31487SOL     OW96467   3.823   7.743  10.982 -0.1786 -0.6089 -0.2413
31487SOL    HW196468   3.860   7.663  11.020 -2.1671 -1.2512  0.4796
31487SOL    HW296469   3.773   7.782  11.054  2.1369  2.3019 -0.0149
31488SOL     OW96470   4.942   2.030   2.246 -0.2672 -0.2076 -0.5161
31488SOL    HW196471   4.914   2.066   2.330  0.6991  0.8382 -0.6150
31488SOL    HW296472   4.862   2.023   2.195 -0.9089 -1.1226  0.5728
31489SOL     OW96473   7.893   7.634  10.711  0.0221 -0.1261 -0.1358
31489SOL    HW196474   7.805   7.623  10.675 -0.1346 -3.8401  0.9540
31489SOL    HW296475   7.952   7.625  10.635 -0.4362  1.8634 -0.7858
31490SOL     OW96476   1.027   2.827  10.501  0.0297  0.2572 -0.2780
31490SOL    HW196477   1.055   2.779  10.579 -0.5555  1.4186  0.6689
31490SOL    HW296478   1.106   2.834  10.448  0.5529 -0.1127  0.4374
31491SOL     OW96479   0.353   2.083   7.578 -0.1297  0.1590 -0.2329
31491SOL    HW196480   0.365   2.163   7.630  2.3301 -2.7792  4.3943
31491SOL    HW296481   0.440   2.067   7.539 -0.3557 -0.7402 -0.3745
31492SOL     OW96482   0.242   4.655   5.383 -0.0406  0.0195 -0.7962
31492SOL    HW196483   0.254   4.591   5.454 -1.2565  1.9796  1.2876
31492SOL    HW296484   0.150   4.648   5.359 -0.9894  2.9087  1.5452
31493SOL     OW96485   4.370   6.940   3.787  0.4697 -0.1687  0.2122
31493SOL    HW196486   4.294   6.974   3.739 -0.3370  0.7605  2.0529
31493SOL    HW296487   4.341   6.853   3.817 -0.3950  0.6408  1.9012
31494SOL     OW96488   8.896   3.062   1.506  0.7114 -0.3870  0.3413
31494SOL    HW196489   8.963   3.106   1.559 -0.4979  0.1017  1.5324
31494SOL    HW296490   8.869   3.127   1.441 -1.6444  1.0759  2.5995
31495SOL     OW96491   5.752   6.617  10.191 -0.7604  0.5568 -0.1618
31495SOL    HW196492   5.794   6.650  10.271 -0.0524  0.0226 -0.3004
31495SOL    HW296493   5.660   6.609  10.214 -0.4186 -0.5289  0.9357
31496SOL     OW96494   1.858   0.145   1.579  0.1207 -0.0575  0.3341
31496SOL    HW196495   1.944   0.118   1.547  0.0058 -1.5155  1.1191
31496SOL    HW296496   1.872   0.232   1.617  0.5451  1.0894 -2.2751
31497SOL     OW96497   5.135   0.285   1.698 -0.6664  0.8417  0.6222
31497SOL    HW196498   5.185   0.273   1.617 -2.1869  1.8648 -0.5166
31497SOL    HW296499   5.152   0.206   1.749  1.3468  0.7412 -0.1118
31498SOL     OW96500   9.501   3.873   1.090  0.1137 -0.5643 -0.3671
31498SOL    HW196501   9.485   3.804   1.154  1.3239 -0.3827  0.1648
31498SOL    HW296502   9.594   3.862   1.066 -0.1375 -0.2071 -1.5816
31499SOL     OW96503  10.714   0.176   6.119 -0.2441 -0.3953  0.1513
31499SOL    HW196504  10.784   0.163   6.183 -0.3322  0.4422  0.4293
31499SOL    HW296505  10.712   0.271   6.105 -0.2947 -0.5624 -1.0204
31500SOL     OW96506   0.428   9.498  11.021  0.2097  0.5300 -0.0662
31500SOL    HW196507   0.429   9.586  10.985  0.4604  0.5254 -0.0742
31500SOL    HW296508   0.519   9.468  11.013  0.2065  0.4209  0.3043
31501SOL     OW96509   5.809   4.463   5.585  0.3635  0.2117 -0.2878
31501SOL    HW196510   5.893   4.418   5.587  0.6608  0.7676  0.3126
31501SOL    HW296511   5.819   4.535   5.648 -0.5497  0.3037 -0.2289
31502SOL     OW96512   8.452   7.168   8.497 -0.3146 -0.5272  0.3029
31502SOL    HW196513   8.471   7.208   8.582  0.4641  0.3381 -0.2716
31502SOL    HW296514   8.390   7.228   8.455  0.9644  0.1999 -0.6175
31503SOL     OW96515   6.904   2.289   6.345  0.2968  0.2561  0.0157
31503SOL    HW196516   6.957   2.361   6.312  2.6585 -2.2464 -2.1436
31503SOL    HW296517   6.837   2.276   6.278  1.3400 -1.0005 -0.8086
31504SOL     OW96518   3.800   2.527   0.921  0.2210 -0.2383 -0.0327
31504SOL    HW196519   3.736   2.461   0.895 -0.7419  0.4033  0.6413
31504SOL    HW296520   3.877   2.508   0.868 -0.2622 -1.4937 -0.3213
31505SOL     OW96521   3.650  10.295   3.001 -0.2561 -0.0103  0.8135
31505SOL    HW196522   3.599  10.228   2.954  0.3043  0.3817 -0.3937
31505SOL    HW296523   3.593  10.321   3.073 -1.1667 -0.6273  0.3481
31506SOL     OW96524   1.762   2.622   1.857  0.1102  0.1482  0.4083
31506SOL    HW196525   1.689   2.681   1.873  0.7446  1.4575 -1.2532
31506SOL    HW296526   1.809   2.619   1.940 -0.9383  0.5165  1.0394
31507SOL     OW96527   4.219   0.788   0.989 -0.3682  0.6794 -0.4812
31507SOL    HW196528   4.131   0.811   1.018  0.1131  1.7395  0.1895
31507SOL    HW296529   4.253   0.731   1.059 -0.3994  0.5402 -0.5789
31508SOL     OW96530   5.785  10.981   9.196  0.0543 -0.0372 -0.3553
31508SOL    HW196531   5.782  11.066   9.150  6.4148  1.0652  0.3190
31508SOL    HW296532   5.781  11.004   9.289 -0.7421 -0.8689 -0.1674
31509SOL     OW96533   1.524   5.243   6.450  0.6997  1.2510 -0.3545
31509SOL    HW196534   1.431   5.259   6.432  0.6385 -0.4524 -1.8975
31509SOL    HW296535   1.566   5.253   6.364  1.5623 -0.2577 -0.1406
31510SOL     OW96536   4.506   8.091   9.916 -0.2567 -0.0011 -0.4000
31510SOL    HW196537   4.467   8.171   9.882 -0.5337  0.4079  0.8052
31510SOL    HW296538   4.432   8.041   9.951  0.0474 -0.1866 -0.0043
31511SOL     OW96539   2.128   6.400   1.549 -0.3373 -0.2937 -0.5644
31511SOL    HW196540   2.219   6.371   1.535 -0.5577 -1.1101 -0.3556
31511SOL    HW296541   2.109   6.375   1.639 -0.6704  0.1560 -0.5105
31512SOL     OW96542   7.619   0.008   1.367  0.5023 -0.3511  0.5150
31512SOL    HW196543   7.524   0.008   1.371  0.4307 -0.6756 -0.6691
31512SOL    HW296544   7.642   0.094   1.332  0.3966 -1.4443 -2.5455
31513SOL     OW96545   8.402   2.078   9.518 -0.3923  0.1653 -0.6159
31513SOL    HW196546   8.453   2.081   9.438  1.8637  0.4282  0.7383
31513SOL    HW296547   8.441   2.145   9.574 -1.8407 -0.0489  0.7326
31514SOL     OW96548   6.682  10.027   9.856  0.0556 -0.2646 -0.4706
31514SOL    HW196549   6.614  10.092   9.874  0.0924 -0.3801  0.1237
31514SOL    HW296550   6.759  10.079   9.834  0.4555 -0.0334  1.2905
31515SOL     OW96551   3.697   8.739   6.787 -0.3529  0.0803 -0.1208
31515SOL    HW196552   3.764   8.802   6.813  0.0732 -0.8925  1.2493
31515SOL    HW296553   3.624   8.793   6.755  1.5019  1.1444 -2.9632
31516SOL     OW96554   3.077  10.547   9.798  0.0664 -0.3215 -0.1700
31516SOL    HW196555   3.008  10.565   9.735  1.3656  1.1194 -1.2755
31516SOL    HW296556   3.077  10.452   9.809 -1.1678 -0.4600 -1.1901
31517SOL     OW96557   1.414   5.591   0.802  0.4198  0.4653  0.0056
31517SOL    HW196558   1.392   5.653   0.871  1.1533  3.2883 -2.1023
31517SOL    HW296559   1.497   5.553   0.830  0.4056  1.0983  0.9684
31518SOL     OW96560   6.892   7.422   5.247  0.1919 -0.4088  0.2221
31518SOL    HW196561   6.891   7.450   5.339 -0.0188  2.0570 -0.4464
31518SOL    HW296562   6.839   7.488   5.202 -0.7415 -2.2518 -1.5208
31519SOL     OW96563   0.709   3.205  10.934  0.7123 -0.2881  0.0309
31519SOL    HW196564   0.708   3.296  10.904  0.5320  0.1421  1.2729
31519SOL    HW296565   0.791   3.169  10.901  0.2348 -0.0528 -1.4939
31520SOL     OW96566   2.250   1.289   8.696 -0.2473 -0.1834  0.2881
31520SOL    HW196567   2.188   1.330   8.636 -1.0931 -0.6318  0.8310
31520SOL    HW296568   2.336   1.309   8.659 -0.6891  0.9110 -0.1816
31521SOL     OW96569   4.732   0.872   9.118 -0.5277  0.0244  0.5928
31521SOL    HW196570   4.808   0.815   9.129 -0.8851 -1.2773 -2.6077
31521SOL    HW296571   4.732   0.894   9.025 -1.5165  3.8168  1.3155
31522SOL     OW96572  10.880   9.005   4.026  0.5296  0.0730 -0.1176
31522SOL    HW196573  10.883   9.024   3.932  2.6682 -0.1418 -0.1312
31522SOL    HW296574  10.882   9.092   4.067  1.9200  0.1239 -0.2644
31523SOL     OW96575   6.809   4.775   9.236  0.4350  0.5970 -0.3969
31523SOL    HW196576   6.746   4.845   9.219 -0.2014 -0.1309 -1.1400
31523SOL    HW296577   6.831   4.741   9.150  0.5676 -0.2579 -0.0337
31524SOL     OW96578   6.839  10.482   3.210 -0.0768 -1.2112  0.7435
31524SOL    HW196579   6.920  10.531   3.227  0.9021 -2.7002  0.6530
31524SOL    HW296580   6.818  10.500   3.119  0.3457 -1.0521  0.6760
31525SOL     OW96581   7.297   2.461   8.709 -0.4232  0.6175  0.0430
31525SOL    HW196582   7.358   2.533   8.693  0.6155 -0.4067 -0.7772
31525SOL    HW296583   7.353   2.385   8.725 -1.4811  0.2010  2.1322
31526SOL     OW96584   5.362   1.773   8.508 -0.9154  0.1269 -0.6065
31526SOL    HW196585   5.279   1.817   8.489 -1.5622 -1.7572 -2.3709
31526SOL    HW296586   5.337   1.687   8.542  0.3291 -0.1032 -0.2177
31527SOL     OW96587   8.829  10.733   5.827 -0.3249 -0.2693 -0.5463
31527SOL    HW196588   8.887  10.695   5.894 -0.2212 -1.2114 -1.1444
31527SOL    HW296589   8.741  10.713   5.857 -0.2677 -1.1564 -0.9332
31528SOL     OW96590  10.411   1.341   8.692  0.0940 -0.3171  0.3587
31528SOL    HW196591  10.428   1.260   8.739  1.1781  0.3593  1.1666
31528SOL    HW296592  10.485   1.351   8.632  0.5473  0.6121  1.0446
31529SOL     OW96593   9.171   2.227   5.099 -0.6555  0.1542 -0.1326
31529SOL    HW196594   9.188   2.234   5.005 -0.8099 -1.2848 -0.2938
31529SOL    HW296595   9.146   2.315   5.126 -2.3586  0.2295 -1.8010
31530SOL     OW96596   8.732   4.890   9.778  0.0109 -0.0493 -0.4390
31530SOL    HW196597   8.642   4.924   9.785  0.3658  0.9402 -0.4847
31530SOL    HW296598   8.731   4.833   9.702  0.0458  2.1010 -2.1344
31531SOL     OW96599   7.247   2.612  10.997  0.7625 -0.0703 -0.5593
31531SOL    HW196600   7.214   2.531  10.958 -2.0426  0.6373  0.0873
31531SOL    HW296601   7.287   2.660  10.924 -1.8101 -0.0177 -2.0588
31532SOL     OW96602   1.936   7.511   5.181 -0.4758 -0.5498 -0.0757
31532SOL    HW196603   1.906   7.591   5.226 -1.2299 -1.4586  1.0983
31532SOL    HW296604   1.956   7.540   5.092 -1.3634  0.8294  0.1351
31533SOL     OW96605   4.127   0.382  10.402  0.4032  0.4369 -0.3360
31533SOL    HW196606   4.184   0.434  10.345 -1.6398  2.0989 -0.9940
31533SOL    HW296607   4.090   0.315  10.344  0.2416  0.5527 -0.3672
31534SOL     OW96608   6.633   6.593   3.198 -0.5511  0.2728  0.2895
31534SOL    HW196609   6.696   6.650   3.153  0.7733 -2.3013 -1.3777
31534SOL    HW296610   6.684   6.554   3.269 -1.1328  0.3355  0.7464
31535SOL     OW96611   2.784   6.146   3.147 -0.7014  0.4131 -0.0076
31535SOL    HW196612   2.778   6.096   3.228 -2.7191  1.6277  0.6587
31535SOL    HW296613   2.771   6.237   3.173  2.2293  1.3368 -1.2677
31536SOL     OW96614  10.593   5.937  10.252 -0.0704 -0.1114 -0.3683
31536SOL    HW196615  10.604   5.929  10.347  0.4042 -1.9455 -0.5415
31536SOL    HW296616  10.614   5.850  10.218 -1.7924  0.0559 -2.0237
31537SOL     OW96617   7.672   9.249   3.909 -0.1215  0.5438 -0.1203
31537SOL    HW196618   7.714   9.334   3.896  1.0310  0.4216  2.2073
31537SOL    HW296619   7.598   9.267   3.967  0.0998 -0.0392  0.3490
31538SOL     OW96620   0.581   3.355   4.419  0.3978 -0.1879 -0.4778
31538SOL    HW196621   0.586   3.297   4.343  0.5984  0.0534 -0.6484
31538SOL    HW296622   0.532   3.431   4.388 -1.2262 -0.9218  0.1642
31539SOL     OW96623   6.356   1.298   1.923  0.5302  0.3203  0.1080
31539SOL    HW196624   6.374   1.391   1.908 -0.8834  0.6235  0.2219
31539SOL    HW296625   6.407   1.253   1.855 -1.8404  1.4073 -2.5712
31540SOL     OW96626   5.825   2.227  10.620  0.4686  0.5277 -0.6490
31540SOL    HW196627   5.801   2.258  10.707  0.3753 -0.6789 -0.2304
31540SOL    HW296628   5.838   2.307  10.569 -0.2271  1.2404  0.2592
31541SOL     OW96629   5.183   6.572  10.755 -0.5532  0.6850 -0.7941
31541SOL    HW196630   5.162   6.597  10.845  2.1098 -1.2787  0.4944
31541SOL    HW296631   5.123   6.500  10.735  1.5376 -1.7979  1.1442
31542SOL     OW96632   0.706   4.809   7.596  0.3270  0.3970  0.3772
31542SOL    HW196633   0.650   4.854   7.660 -0.9618 -0.8913  0.2031
31542SOL    HW296634   0.760   4.751   7.650  0.3285  0.4226  0.4042
31543SOL     OW96635   7.576  10.391   5.454 -0.2254 -0.1656 -0.9544
31543SOL    HW196636   7.624  10.458   5.502  0.5571 -1.4460  0.1121
31543SOL    HW296637   7.642  10.326   5.430 -1.3460 -1.9774  0.5434
31544SOL     OW96638   7.587   7.113   3.812 -0.0449 -0.0169 -0.1504
31544SOL    HW196639   7.541   7.197   3.811 -0.0301 -0.0087 -1.2079
31544SOL    HW296640   7.658   7.125   3.876  1.1361  1.4387 -1.6458
31545SOL     OW96641  10.321   1.902   6.153 -0.0567 -0.2388 -0.0229
31545SOL    HW196642  10.248   1.948   6.194  0.7124  0.3474  0.7315
31545SOL    HW296643  10.338   1.828   6.211  0.3416 -0.0226  0.1392
31546SOL     OW96644   5.156  10.592   7.047 -0.5994  0.0835 -0.4212
31546SOL    HW196645   5.090  10.619   6.983 -1.0908 -0.8453 -0.3261
31546SOL    HW296646   5.209  10.527   7.001 -1.5751 -1.3463  0.3910
31547SOL     OW96647   4.659   1.390   0.353 -0.7152 -0.4366  0.2833
31547SOL    HW196648   4.711   1.319   0.314 -0.6399  0.7000 -1.8295
31547SOL    HW296649   4.570   1.376   0.319 -0.9716 -0.2067  0.8497
31548SOL     OW96650   1.569   8.503   7.563  0.1315  0.3676 -0.5146
31548SOL    HW196651   1.591   8.440   7.631 -3.4228 -2.7771 -1.9124
31548SOL    HW296652   1.475   8.521   7.576 -0.3640  0.6835 -3.6674
31549SOL     OW96653   3.585   5.858   1.769 -0.1379 -0.4724 -0.5980
31549SOL    HW196654   3.514   5.908   1.728  0.1255 -1.3929 -2.2641
31549SOL    HW296655   3.629   5.921   1.825 -1.6793  0.3705 -0.2740
31550SOL     OW96656   3.978   9.065   2.667  0.0462  0.2034  0.5068
31550SOL    HW196657   3.901   9.105   2.707 -0.3196  1.4663 -1.3136
31550SOL    HW296658   3.947   9.032   2.583  1.0155 -1.3967  0.7318
31551SOL     OW96659   8.627   7.547   9.403  0.4066 -0.7067  0.3549
31551SOL    HW196660   8.632   7.454   9.424  0.0045 -1.0296 -0.9058
31551SOL    HW296661   8.638   7.591   9.487  0.1900 -1.8980  1.0269
31552SOL     OW96662   8.555   2.015   2.281  0.4954 -0.2374  0.2152
31552SOL    HW196663   8.491   2.086   2.276 -2.0065 -2.1860  1.9644
31552SOL    HW296664   8.518   1.944   2.230  2.1693 -0.8786 -0.1945
31553SOL     OW96665   5.745   2.761   5.383 -0.4917  0.0799 -0.1101
31553SOL    HW196666   5.735   2.672   5.348  1.2056  0.5894 -2.1070
31553SOL    HW296667   5.797   2.750   5.463  1.5013 -0.6209 -1.4300
31554SOL     OW96668   7.265   8.530   5.154  0.2311  0.0975  0.0730
31554SOL    HW196669   7.195   8.563   5.209 -0.7150  0.5653 -1.3497
31554SOL    HW296670   7.336   8.593   5.166  0.8967 -0.9831  2.3872
31555SOL     OW96671   6.013   8.334   9.227 -0.5862  0.0869 -0.0222
31555SOL    HW196672   5.973   8.278   9.293  0.0374  1.0483  1.2196
31555SOL    HW296673   6.106   8.336   9.250 -0.0414 -0.8910 -1.9434
31556SOL     OW96674   9.101   8.100  10.216 -0.5756 -0.1683  0.2132
31556SOL    HW196675   9.171   8.067  10.159  1.5211  1.7399  1.5497
31556SOL    HW296676   9.054   8.163  10.162  0.2816  0.3132  0.0066
31557SOL     OW96677   9.573   1.286   6.760  0.5426  0.6264 -0.3990
31557SOL    HW196678   9.499   1.345   6.748 -0.6762 -0.8624 -0.6126
31557SOL    HW296679   9.619   1.288   6.676  0.0918  0.7356 -0.6462
31558SOL     OW96680   4.511  10.154   8.687  0.4141  0.4545  0.3101
31558SOL    HW196681   4.507  10.138   8.781 -1.2009  0.2710  0.2326
31558SOL    HW296682   4.508  10.066   8.648  0.4693  0.5551  0.0753
31559SOL     OW96683   9.456   5.121  10.456  0.5274  0.1578  0.4675
31559SOL    HW196684   9.378   5.144  10.506  0.3067 -3.1129  1.8477
31559SOL    HW296685   9.479   5.202  10.410 -1.0699  2.5136  3.4179
31560SOL     OW96686   1.403   7.186   5.198 -1.0934  0.5630 -0.3959
31560SOL    HW196687   1.360   7.272   5.200 -3.5244 -0.5846  0.8286
31560SOL    HW296688   1.424   7.173   5.105  0.8819  3.1121 -0.4352
31561SOL     OW96689   1.425   5.232   8.042 -0.0272  0.1900  0.2625
31561SOL    HW196690   1.422   5.148   7.994 -0.8816  0.7664 -0.7358
31561SOL    HW296691   1.433   5.207   8.134  0.1787 -0.9830 -0.0553
31562SOL     OW96692   1.482   7.080   5.436 -0.2702  0.0735  0.1369
31562SOL    HW196693   1.411   7.102   5.375 -1.7513 -2.1551  0.9167
31562SOL    HW296694   1.528   7.008   5.393  0.4631  0.3728  0.4075
31563SOL     OW96695   9.209   8.730   0.318 -0.0879  0.0183 -0.5781
31563SOL    HW196696   9.196   8.777   0.236 -0.7541  2.0636  0.6052
31563SOL    HW296697   9.254   8.793   0.375  2.0887 -1.9907  0.0697
31564SOL     OW96698   0.429   7.307   5.860 -0.3255 -0.0583  0.6962
31564SOL    HW196699   0.346   7.263   5.843 -0.5091 -0.4864  2.5517
31564SOL    HW296700   0.479   7.295   5.779 -1.1097 -1.9928  0.4553
31565SOL     OW96701   4.219   6.455   5.572 -0.1110 -0.2133 -0.2800
31565SOL    HW196702   4.184   6.531   5.617  0.8563  1.5324 -2.3212
31565SOL    HW296703   4.314   6.470   5.568  0.2472 -2.0481  0.1482
31566SOL     OW96704   5.842   6.620   3.446  0.7337  0.3145  0.1882
31566SOL    HW196705   5.895   6.679   3.392 -1.7473  2.1819 -0.3632
31566SOL    HW296706   5.790   6.677   3.502 -0.3380 -1.4368  1.0899
31567SOL     OW96707   0.593   3.475   3.025 -0.2678 -0.5160 -0.0190
31567SOL    HW196708   0.604   3.547   3.087  0.3379 -0.4658 -0.1785
31567SOL    HW296709   0.672   3.476   2.972 -0.5020 -0.9509 -0.3916
31568SOL     OW96710   3.639   5.605   0.828  0.1207 -0.6993 -0.4508
31568SOL    HW196711   3.604   5.574   0.745  0.0475  0.3331 -0.8162
31568SOL    HW296712   3.733   5.591   0.821  0.1383 -0.4253 -0.7931
31569SOL     OW96713   8.049   5.580   1.582 -0.4064  0.1544 -0.1019
31569SOL    HW196714   8.072   5.537   1.500 -0.3121 -0.6997  0.3496
31569SOL    HW296715   8.045   5.508   1.646 -0.1889  0.8356  0.6967
31570SOL     OW96716   2.941   6.096   0.568  0.6403 -0.6478 -0.7002
31570SOL    HW196717   2.962   6.190   0.572 -1.2136 -0.2001 -0.2009
31570SOL    HW296718   3.026   6.053   0.564  1.5555  1.0488 -0.8157
31571SOL     OW96719   2.755   7.710   8.307 -0.0011  0.2599 -0.6961
31571SOL    HW196720   2.844   7.741   8.292  0.7827 -1.0462  0.9457
31571SOL    HW296721   2.741   7.642   8.240  0.6714 -0.3288 -0.2482
31572SOL     OW96722   0.871   7.439   5.088 -0.1246 -0.1024 -0.1483
31572SOL    HW196723   0.835   7.380   5.022  2.3283 -1.4392 -0.3806
31572SOL    HW296724   0.818   7.519   5.080 -0.5881 -0.6081 -2.9607
31573SOL     OW96725   6.519   9.895   0.545 -0.2828  0.1105 -0.0556
31573SOL    HW196726   6.547   9.868   0.633  0.7517  1.3799  0.0397
31573SOL    HW296727   6.424   9.888   0.547 -0.2671 -0.0264  1.1283
31574SOL     OW96728  10.242   7.754   3.281  0.3503 -0.0847  0.3370
31574SOL    HW196729  10.184   7.711   3.218 -0.0302  0.2301  0.4682
31574SOL    HW296730  10.232   7.703   3.361 -0.0870  0.2274  0.4871
31575SOL     OW96731   1.299   5.559   6.204  0.5985  0.0954  0.8535
31575SOL    HW196732   1.232   5.507   6.160  1.9012 -0.2058 -0.9242
31575SOL    HW296733   1.306   5.520   6.291  0.1830 -1.4901  0.2251
31576SOL     OW96734   9.439   5.142   5.911 -0.1854  0.0313 -0.5408
31576SOL    HW196735   9.367   5.132   5.848  0.6605 -2.1844 -1.2287
31576SOL    HW296736   9.514   5.170   5.858 -0.4417  2.3482  0.1793
31577SOL     OW96737   3.387  10.643   2.361 -0.3590 -0.1943 -0.3160
31577SOL    HW196738   3.433  10.724   2.382 -2.4542  1.5211 -1.9742
31577SOL    HW296739   3.318  10.636   2.427 -1.1966  0.3042 -1.1053
31578SOL     OW96740   3.255   3.563   2.849  0.0620  0.4538  0.0842
31578SOL    HW196741   3.176   3.614   2.867  1.0734  1.5789  1.6386
31578SOL    HW296742   3.319   3.595   2.913  1.3896 -1.3253 -0.2827
31579SOL     OW96743   5.883   1.519   1.102  0.2804  0.4676  0.0827
31579SOL    HW196744   5.793   1.489   1.096  1.1583 -3.7921  3.5801
31579SOL    HW296745   5.924   1.490   1.021 -1.2071  1.9994 -1.3101
31580SOL     OW96746  10.443   4.877   3.446  0.2539  0.8258 -0.0553
31580SOL    HW196747  10.460   4.846   3.357  1.0528  0.8725  0.0715
31580SOL    HW296748  10.439   4.797   3.499  0.1419  0.8187 -0.0751
31581SOL     OW96749   8.936   0.358   1.890 -0.1490 -0.1612 -0.4229
31581SOL    HW196750   8.906   0.310   1.813  1.4735  0.5694 -1.5789
31581SOL    HW296751   8.981   0.293   1.943 -2.8464 -1.0832  0.9239
31582SOL     OW96752   9.947   8.910   7.529 -0.1683  0.6114  0.1901
31582SOL    HW196753   9.997   8.962   7.592 -0.5316  1.3450 -0.1083
31582SOL    HW296754   9.951   8.821   7.563 -0.1525  0.9537  1.1233
31583SOL     OW96755   3.904  10.322   3.063 -0.5102 -0.4526 -0.3074
31583SOL    HW196756   3.931  10.312   2.971 -1.7050  2.4366 -1.0732
31583SOL    HW296757   3.809  10.311   3.061 -0.3617 -2.9105  1.1152
31584SOL     OW96758   1.952   2.703   0.747 -0.1373  0.2226 -0.2195
31584SOL    HW196759   2.007   2.738   0.817 -0.1684  0.4640 -0.3117
31584SOL    HW296760   2.014   2.671   0.681 -0.0722 -2.0785  0.8853
31585SOL     OW96761   8.099  10.522   3.970  0.1250  0.1622  0.4739
31585SOL    HW196762   8.049  10.604   3.965 -1.4975 -0.7746  0.6321
31585SOL    HW296763   8.042  10.462   4.017 -0.0438 -2.0060 -2.2685
31586SOL     OW96764   9.227   8.605   8.633 -0.9738 -0.4604 -0.7344
31586SOL    HW196765   9.296   8.623   8.698 -0.2446 -1.8225 -1.0972
31586SOL    HW296766   9.254   8.654   8.556 -0.4134 -0.9329 -0.8542
31587SOL     OW96767   9.708  10.491   7.860 -0.2517  1.3860  0.1682
31587SOL    HW196768   9.744  10.450   7.781  1.3976  1.1380  1.0102
31587SOL    HW296769   9.702  10.584   7.838  3.8353  1.9913  0.9157
31588SOL     OW96770   4.830   7.136   9.291  0.7401 -0.5676  0.5422
31588SOL    HW196771   4.922   7.161   9.298  1.0313 -1.7894  1.4654
31588SOL    HW296772   4.799   7.178   9.211  1.8050  0.7436  0.7899
31589SOL     OW96773   7.298   3.388   9.485 -0.0647  0.9761  0.4465
31589SOL    HW196774   7.219   3.362   9.533  0.2727 -0.8643  0.0675
31589SOL    HW296775   7.359   3.416   9.553 -0.7282  1.6332  0.7994
31590SOL     OW96776   3.175   2.360   7.340  0.2364  0.1461 -0.1472
31590SOL    HW196777   3.118   2.409   7.280  0.3383 -0.3500 -0.6581
31590SOL    HW296778   3.117   2.296   7.381  0.2009  0.3795  0.1747
31591SOL     OW96779   8.500   5.477   3.299 -0.0698 -0.0932 -0.6358
31591SOL    HW196780   8.470   5.387   3.313  1.5816 -0.4117  1.5087
31591SOL    HW296781   8.420   5.530   3.305 -0.6751 -1.1175  2.0324
31592SOL     OW96782   0.605   8.591   9.605 -0.5639  0.2617  0.7279
31592SOL    HW196783   0.675   8.656   9.607  0.2913 -0.5630 -0.4827
31592SOL    HW296784   0.580   8.587   9.512 -1.5614 -0.1329  1.0065
31593SOL     OW96785   5.353   1.084   0.140 -0.3326 -0.0913  0.2212
31593SOL    HW196786   5.430   1.087   0.082 -1.1832  1.0578 -0.9144
31593SOL    HW296787   5.324   1.175   0.144 -1.5383 -0.4896  0.7588
31594SOL     OW96788   6.168  10.794   3.283  0.1251  0.0650  0.0969
31594SOL    HW196789   6.085  10.838   3.305  1.4399  1.8335  1.8269
31594SOL    HW296790   6.156  10.766   3.192 -3.6779 -2.9996  1.2563
31595SOL     OW96791   4.949   0.920   0.880  0.3947 -0.2083  0.2190
31595SOL    HW196792   4.874   0.978   0.893  0.1045 -0.5502  0.0778
31595SOL    HW296793   4.998   0.960   0.808  0.2835 -0.0483  0.2326
31596SOL     OW96794   1.957   3.412   9.236  0.6571  0.7249 -0.2857
31596SOL    HW196795   2.012   3.384   9.162 -1.0038  0.0760 -1.3243
31596SOL    HW296796   1.952   3.335   9.293 -1.7982 -0.3884 -1.8543
31597SOL     OW96797   5.746   3.523   0.584  0.0777 -0.3022 -0.2995
31597SOL    HW196798   5.771   3.594   0.525 -0.0517  0.6742  0.7849
31597SOL    HW296799   5.827   3.474   0.598  0.8100  1.1558  0.9366
31598SOL     OW96800   0.116   0.326   0.826  0.6620 -0.9722 -0.5888
31598SOL    HW196801   0.163   0.402   0.861 -1.4909  0.2055 -0.0697
31598SOL    HW296802   0.157   0.311   0.740  1.9278  0.0170 -0.1963
31599SOL     OW96803   4.912  10.859  10.989 -0.1313  0.1241  1.0379
31599SOL    HW196804   4.948  10.784  11.036  1.0119  0.0209  0.0091
31599SOL    HW296805   4.882  10.824  10.906  0.2244  0.7656  0.6309
31600SOL     OW96806   3.710   5.964   0.576 -0.1394 -0.1351  0.4286
31600SOL    HW196807   3.783   5.960   0.637  2.0584  0.8529 -1.9553
31600SOL    HW296808   3.677   6.054   0.584  0.7254  0.2760 -0.3810
31601SOL     OW96809   9.945   5.922   7.669  0.6444  0.1064  0.4981
31601SOL    HW196810   9.936   6.011   7.703  2.4919  0.4284  0.2867
31601SOL    HW296811   9.888   5.869   7.724  0.1509  1.2911  1.1721
31602SOL     OW96812   2.093   6.521  10.261 -0.2412 -0.1277  0.3204
31602SOL    HW196813   2.158   6.575  10.306  1.8319 -1.2880 -1.0837
31602SOL    HW296814   2.090   6.440  10.312  0.5372 -0.6245 -0.3884
31603SOL     OW96815   8.554   7.947   8.545 -0.8176  0.9304  0.0485
31603SOL    HW196816   8.518   8.019   8.493 -1.2540  0.7852  0.1474
31603SOL    HW296817   8.521   7.961   8.633  1.8715  2.5656  0.9367
31604SOL     OW96818   5.729   4.366   7.920  0.2094  0.2752 -0.3711
31604SOL    HW196819   5.730   4.297   7.985  1.3639 -2.0104 -2.6463
31604SOL    HW296820   5.811   4.413   7.933  1.0492 -0.9835 -0.9257
31605SOL     OW96821   2.697   4.296   2.963  1.0767 -0.0015  0.0682
31605SOL    HW196822   2.761   4.361   2.934  0.3835  0.6699  0.0156
31605SOL    HW296823   2.612   4.337   2.946  0.6038  0.3342  2.7238
31606SOL     OW96824   3.893   5.492   3.786 -0.2982 -0.1370 -0.4271
31606SOL    HW196825   3.853   5.428   3.727 -0.1191 -0.2706 -0.4024
31606SOL    HW296826   3.861   5.577   3.754 -0.1977 -0.2079 -0.7209
31607SOL     OW96827   9.447   3.630   4.949 -0.6275  0.4912  0.0414
31607SOL    HW196828   9.542   3.618   4.943 -0.5617  0.0083  1.5536
31607SOL    HW296829   9.420   3.656   4.861  0.7434 -0.4705 -0.6980
31608SOL     OW96830   7.728   8.760   6.178 -0.1004  0.1841 -0.5872
31608SOL    HW196831   7.645   8.719   6.151  1.1788 -1.1835 -2.7677
31608SOL    HW296832   7.792   8.690   6.173  1.2227  1.1795  1.2047
31609SOL     OW96833   1.336  11.053   6.648 -0.7407 -0.3329 -0.1489
31609SOL    HW196834   1.381  11.099   6.719 -0.9974  1.8634 -1.3180
31609SOL    HW296835   1.260  11.107   6.629 -1.2641 -1.4557 -1.3864
31610SOL     OW96836   9.180   0.475  10.257  0.3073 -0.6063 -0.3519
31610SOL    HW196837   9.154   0.534  10.329 -0.2210 -1.6890  0.3697
31610SOL    HW296838   9.172   0.387  10.294  0.2905 -1.1792 -1.6714
31611SOL     OW96839   7.575   3.597   0.038  0.9547 -0.2398 -0.3280
31611SOL    HW196840   7.563   3.617   0.131  2.7236  2.4955 -0.5847
31611SOL    HW296841   7.649   3.651   0.011  0.2657 -0.6625 -3.4596
31612SOL     OW96842   6.451   9.599   2.244  1.4090  0.1718  0.4807
31612SOL    HW196843   6.515   9.600   2.173 -1.2995 -1.0214 -2.2306
31612SOL    HW296844   6.373   9.641   2.206 -0.4741 -1.3491  2.3804
31613SOL     OW96845   1.818   9.108   4.442 -0.1792  0.4493  0.7274
31613SOL    HW196846   1.798   9.080   4.531 -1.0634  1.1293  0.7570
31613SOL    HW296847   1.786   9.036   4.387 -1.6951  1.0012  0.8446
31614SOL     OW96848   5.523   5.720   8.490  0.5647 -0.6226  0.1821
31614SOL    HW196849   5.548   5.705   8.399 -0.3036 -1.4797  0.0578
31614SOL    HW296850   5.463   5.648   8.509 -2.5932  1.7811  0.1144
31615SOL     OW96851   4.335   7.860   3.899  0.1269  0.4262  0.1877
31615SOL    HW196852   4.399   7.858   3.828 -0.5993  0.2266 -0.4732
31615SOL    HW296853   4.336   7.951   3.930  2.5263 -0.0694  1.8854
31616SOL     OW96854   5.495   7.381   4.083 -0.0512 -0.3986  0.0756
31616SOL    HW196855   5.517   7.429   4.004  1.2238 -2.6618 -1.0437
31616SOL    HW296856   5.518   7.440   4.155  0.0997  1.1533 -1.2123
31617SOL     OW96857   8.912   3.710   3.740  0.1108 -0.3051 -0.2700
31617SOL    HW196858   8.831   3.717   3.689 -0.4939 -0.3495  0.6500
31617SOL    HW296859   8.955   3.632   3.705 -1.9009 -2.3258  1.4061
31618SOL     OW96860  10.473   9.748   0.804 -0.1659  0.5733  0.5945
31618SOL    HW196861  10.476   9.733   0.710 -0.5589  2.3506  0.2475
31618SOL    HW296862  10.382   9.733   0.828 -0.1089  0.3202  0.6517
31619SOL     OW96863   0.781   5.233   2.441  0.7763 -0.0662  0.6103
31619SOL    HW196864   0.840   5.302   2.471  1.4266 -1.0751  1.7217
31619SOL    HW296865   0.736   5.271   2.365  2.4996  0.9040  0.0168
31620SOL     OW96866   3.365   5.970   1.089 -0.2660 -0.0707  0.4373
31620SOL    HW196867   3.421   5.908   1.042 -2.1874  0.3606 -2.7521
31620SOL    HW296868   3.397   6.056   1.063 -2.3868  0.1837 -1.6632
31621SOL     OW96869   5.159   6.450   4.850 -0.3083  0.5450 -0.1418
31621SOL    HW196870   5.135   6.542   4.855  2.4501  1.3783 -0.4689
31621SOL    HW296871   5.165   6.432   4.756 -1.2161 -0.0999 -0.0844
31622SOL     OW96872   2.899   2.548   1.321  0.4222 -0.4834 -0.3772
31622SOL    HW196873   2.958   2.474   1.310  1.6771  0.6387 -1.6234
31622SOL    HW296874   2.936   2.598   1.394  0.3159 -0.4275 -0.3610
31623SOL     OW96875   6.257   1.950  10.817  0.8471  0.1101 -0.9858
31623SOL    HW196876   6.327   1.898  10.858 -0.6023 -1.0083  0.1809
31623SOL    HW296877   6.216   1.890  10.755  0.3043  0.4232 -0.9358
31624SOL     OW96878   9.805   9.531   8.948 -0.1429  0.7888  0.2271
31624SOL    HW196879   9.799   9.509   9.041 -0.7497 -2.4278 -0.4684
31624SOL    HW296880   9.717   9.517   8.914  0.0017  2.2308 -0.8316
31625SOL     OW96881   0.439   8.547   6.175  0.3368 -0.1833 -0.2082
31625SOL    HW196882   0.497   8.560   6.250 -2.2228  2.5287  1.5499
31625SOL    HW296883   0.361   8.504   6.212  0.1005 -1.3590 -1.9421
31626SOL     OW96884   5.050   3.115   6.530  0.9178 -0.5893 -0.0677
31626SOL    HW196885   5.021   3.106   6.621 -0.3347 -2.5130 -0.5929
31626SOL    HW296886   4.981   3.072   6.479  1.3305  0.9211 -1.9917
31627SOL     OW96887   1.440   0.991   5.023 -0.0074 -0.2628 -0.3168
31627SOL    HW196888   1.408   0.976   5.112  2.0225 -0.3733  0.4453
31627SOL    HW296889   1.451   0.903   4.986  0.6571 -0.2761 -0.0964
31628SOL     OW96890   1.008   0.689   3.467  0.4018 -0.5716  0.1156
31628SOL    HW196891   1.024   0.610   3.520 -0.8930 -0.2673  1.0229
31628SOL    HW296892   0.924   0.723   3.500  1.1352  1.4329  0.0397
31629SOL     OW96893  10.720  10.556   1.367 -0.0473  1.0874 -0.0169
31629SOL    HW196894  10.738  10.475   1.319 -1.1573  1.8448 -1.8032
31629SOL    HW296895  10.703  10.527   1.457  0.7513 -0.5170 -0.3446
31630SOL     OW96896  10.196   1.043   8.713 -0.0205  0.5006 -1.0202
31630SOL    HW196897  10.158   0.956   8.714 -2.6840  1.5372 -1.6686
31630SOL    HW296898  10.140   1.095   8.771  3.2959  1.2206  1.8633
31631SOL     OW96899   9.290   6.218   6.021  0.1762  0.8704  0.1236
31631SOL    HW196900   9.294   6.180   6.109  1.3799  0.4677 -0.0874
31631SOL    HW296901   9.201   6.253   6.014 -0.6040 -0.8842  0.7424
31632SOL     OW96902   2.064   6.499   5.595  0.0513  0.5105 -0.2859
31632SOL    HW196903   2.004   6.437   5.553 -2.4659  1.8957  1.0198
31632SOL    HW296904   2.074   6.570   5.531  0.7080  0.0706 -0.6842
31633SOL     OW96905   1.754   7.668  10.895  0.1870  0.6072  0.4759
31633SOL    HW196906   1.806   7.636  10.969  1.3807  1.8092  0.1834
31633SOL    HW296907   1.818   7.691  10.828 -0.7361  1.5746 -0.1143
31634SOL     OW96908   3.595   6.032   6.362 -0.8191 -0.1035 -0.0405
31634SOL    HW196909   3.606   6.120   6.397 -1.8001  0.1476 -0.3408
31634SOL    HW296910   3.559   6.046   6.274  2.1815 -0.6836 -1.4778
31635SOL     OW96911   2.539   0.274   1.184  0.0125 -0.2884 -0.4389
31635SOL    HW196912   2.462   0.311   1.226  0.4826 -0.9433  1.0856
31635SOL    HW296913   2.601   0.259   1.256 -0.4221 -4.7193 -0.7096
31636SOL     OW96914   9.192   1.222   2.607 -0.2473 -0.1239 -0.0326
31636SOL    HW196915   9.178   1.302   2.558  0.1621  0.1636  0.3151
31636SOL    HW296916   9.104   1.190   2.628 -0.4127  0.0094 -0.5331
31637SOL     OW96917  10.004  10.683   8.890  0.0150  0.4727 -0.1387
31637SOL    HW196918  10.023  10.775   8.875 -0.9445  0.2870 -3.0455
31637SOL    HW296919  10.062  10.658   8.963 -0.3267  3.5092  1.3178
31638SOL     OW96920   3.846   0.725   8.335 -0.5499 -0.6253  0.3260
31638SOL    HW196921   3.800   0.810   8.336  1.7958  0.7812  3.0575
31638SOL    HW296922   3.829   0.688   8.421  1.9612 -0.8403  0.7907
31639SOL     OW96923   5.203   2.612   7.908 -0.1511  0.0241 -0.6898
31639SOL    HW196924   5.249   2.622   7.824  2.2278 -0.2051  0.5117
31639SOL    HW296925   5.123   2.664   7.898  2.1205  3.6880 -1.6342
31640SOL     OW96926   9.605   3.783   3.849  0.1011  0.3083 -0.5075
31640SOL    HW196927   9.597   3.874   3.875 -1.0508 -0.2830  1.4025
31640SOL    HW296928   9.691   3.777   3.808  0.5035  2.0896 -0.0050
31641SOL     OW96929   4.866   0.236   3.366 -0.1529 -0.0686  0.6148
31641SOL    HW196930   4.810   0.215   3.291 -2.1282 -0.1405  2.0343
31641SOL    HW296931   4.900   0.324   3.346 -1.6696  0.4553  0.1736
31642SOL     OW96932   3.123  10.073   8.378 -0.0735 -0.3109 -0.0335
31642SOL    HW196933   3.157  10.091   8.290 -0.1832  0.2738  0.0374
31642SOL    HW296934   3.200  10.049   8.429  0.2752  1.1240  0.1563
31643SOL     OW96935   8.713   2.411   3.433  0.1267 -0.0018 -0.0528
31643SOL    HW196936   8.645   2.438   3.372 -0.8950 -1.7369  0.2425
31643SOL    HW296937   8.792   2.402   3.379 -0.0589  1.2209 -0.5543
31644SOL     OW96938  10.313  10.201   2.354  0.1474  0.1103 -0.1977
31644SOL    HW196939  10.300  10.284   2.399 -0.8280 -1.3066  2.4000
31644SOL    HW296940  10.234  10.150   2.374  1.1501 -1.7930 -0.8108
31645SOL     OW96941  10.263   2.062   3.874  0.0704  0.3946  0.1929
31645SOL    HW196942  10.310   2.098   3.799  0.1015  3.1360  1.4044
31645SOL    HW296943  10.320   2.080   3.949 -0.2220 -1.7598  1.0171
31646SOL     OW96944   3.540   7.740   4.629  0.3411  1.6035  1.2033
31646SOL    HW196945   3.522   7.649   4.604  1.1657  1.6501  0.3713
31646SOL    HW296946   3.554   7.785   4.545  0.2324  2.4309  1.6213
31647SOL     OW96947   6.245   2.393   7.049 -0.5213 -0.9283  0.1705
31647SOL    HW196948   6.288   2.454   6.990 -1.9923 -0.4704 -0.4814
31647SOL    HW296949   6.223   2.318   6.994 -2.5764 -0.1819 -0.1218
31648SOL     OW96950   7.581   0.809   9.607  0.6519  0.2198 -0.1873
31648SOL    HW196951   7.641   0.874   9.571  0.8436  1.3596  1.9722
31648SOL    HW296952   7.499   0.856   9.619  1.2062  0.6416  2.8058
31649SOL     OW96953   7.733   6.052   8.525  0.3968  0.3210 -0.8605
31649SOL    HW196954   7.772   5.970   8.556 -0.2394 -0.0148 -0.9154
31649SOL    HW296955   7.807   6.106   8.500  0.8311 -0.2320 -0.7981
31650SOL     OW96956  10.957   1.590  10.581 -0.1067  0.3122 -0.1543
31650SOL    HW196957  10.901   1.641  10.523 -0.7420  0.0014  0.1738
31650SOL    HW296958  10.981   1.651  10.651  1.8998  1.1421 -1.4895
31651SOL     OW96959   2.341   6.492   2.085  0.1257  0.4822  0.4723
31651SOL    HW196960   2.347   6.397   2.079  0.1098  0.5192 -0.1683
31651SOL    HW296961   2.287   6.518   2.010  0.4077  1.0239  0.4487
31652SOL     OW96962   6.124   8.202   9.644 -0.9395 -0.0940  0.0407
31652SOL    HW196963   6.138   8.117   9.685 -2.6392 -0.3658  0.1243
31652SOL    HW296964   6.200   8.214   9.588 -0.1511 -1.1764  0.8457
31653SOL     OW96965   0.806  10.190   9.277  0.5545 -0.4124  0.3040
31653SOL    HW196966   0.830  10.111   9.326 -1.3714  0.2374  2.4811
31653SOL    HW296967   0.883  10.247   9.286 -0.4725  0.6730  4.9682
31654SOL     OW96968   1.705  10.156   9.285  0.1171  0.0990  0.3319
31654SOL    HW196969   1.675  10.075   9.244 -0.3375  0.5092 -0.1551
31654SOL    HW296970   1.626  10.207   9.298  0.4839  0.8039 -0.1164
31655SOL     OW96971   2.696   5.497   9.635  0.4578  0.2553  0.2429
31655SOL    HW196972   2.754   5.446   9.692 -0.0360  0.7837  1.2412
31655SOL    HW296973   2.749   5.574   9.611  0.4968  0.2712  0.3782
31656SOL     OW96974   8.784   0.557   2.323 -0.6989 -0.1656 -0.6992
31656SOL    HW196975   8.794   0.537   2.416 -0.8835  0.9496 -0.4270
31656SOL    HW296976   8.871   0.584   2.295 -0.3680 -1.6106 -1.1503
31657SOL     OW96977   3.424   1.336   0.733  0.5845  0.4323  0.1820
31657SOL    HW196978   3.439   1.243   0.750 -1.8715 -0.4231 -1.7547
31657SOL    HW296979   3.459   1.350   0.645 -0.7996  0.7873 -0.3400
31658SOL     OW96980   7.127   0.915   7.316  0.2545  0.2007  0.1242
31658SOL    HW196981   7.134   0.962   7.233 -2.0375  0.1900 -0.1227
31658SOL    HW296982   7.088   0.978   7.377  1.0601 -0.0787  0.9614
31659SOL     OW96983   0.141   0.329   0.102 -0.1307 -0.1476  0.1695
31659SOL    HW196984   0.051   0.338   0.130  0.9434  2.8217  3.2806
31659SOL    HW296985   0.143   0.369   0.015 -1.9323 -1.4935 -0.5711
31660SOL     OW96986   9.913   3.451   6.884  0.8288  0.4996  0.2292
31660SOL    HW196987   9.841   3.513   6.882  0.8688  0.5254 -0.7423
31660SOL    HW296988   9.956   3.467   6.969 -1.3635 -0.7762  1.6747
31661SOL     OW96989   6.149   7.551   5.022  0.1395 -0.5152 -0.2542
31661SOL    HW196990   6.160   7.516   4.934  1.1953  0.8887 -0.7286
31661SOL    HW296991   6.058   7.533   5.045  0.4904 -3.1118 -0.6078
31662SOL     OW96992   7.199   1.616   5.117  0.0372  0.1108 -0.0471
31662SOL    HW196993   7.114   1.593   5.079 -0.4451  1.3829  0.2197
31662SOL    HW296994   7.196   1.711   5.128  0.8396  0.0003  1.5042
31663SOL     OW96995   2.830   3.321   7.653  0.0715  0.6279 -0.4677
31663SOL    HW196996   2.799   3.234   7.631  0.9457  0.3472 -0.6539
31663SOL    HW296997   2.764   3.357   7.712 -0.9403  0.3369 -1.3994
31664SOL     OW96998   3.515   1.730   4.272 -0.3298  0.2080 -0.4470
31664SOL    HW196999   3.492   1.723   4.179  1.2550  1.4379 -0.9855
31664SOL    HW297000   3.439   1.771   4.313 -1.5201 -1.3938 -0.9513
31665SOL     OW97001   6.031   9.234   5.855  0.4766 -0.5263  0.0516
31665SOL    HW197002   6.064   9.161   5.908  1.0056 -2.7677 -3.1071
31665SOL    HW297003   5.936   9.221   5.852  0.5008 -0.6859  0.0059
31666SOL     OW97004   8.595  10.560   5.412  0.0838 -0.1660 -0.0189
31666SOL    HW197005   8.500  10.547   5.407  0.1654 -1.0613  0.4958
31666SOL    HW297006   8.607  10.654   5.400 -0.9194  0.0489  0.5461
31667SOL     OW97007   1.922   6.328   2.975 -1.0392  0.1559 -0.1026
31667SOL    HW197008   1.986   6.334   2.905 -0.9360  1.7030  0.0766
31667SOL    HW297009   1.893   6.419   2.989 -2.0718 -0.2978  0.9094
31668SOL     OW97010   3.895   1.777   0.200  0.2999 -0.8856  0.3292
31668SOL    HW197011   3.844   1.746   0.125 -0.5548 -0.1499  0.5874
31668SOL    HW297012   3.955   1.841   0.163  0.1255 -0.7864  0.2143
31669SOL     OW97013   1.148   1.306   8.219 -0.0022 -0.2916  0.9137
31669SOL    HW197014   1.214   1.276   8.157  2.3710  1.0165  2.6631
31669SOL    HW297015   1.064   1.282   8.178  1.4941 -1.9816 -1.4155
31670SOL     OW97016   8.750   8.944   7.365 -0.5710 -0.4615  0.3011
31670SOL    HW197017   8.731   9.002   7.439 -1.5900  0.3454 -0.5648
31670SOL    HW297018   8.680   8.961   7.302  0.8996 -0.2427 -1.3756
31671SOL     OW97019   2.763  10.962   5.667  0.4707  0.0632 -0.3839
31671SOL    HW197020   2.812  10.896   5.716  1.6982 -0.5241 -2.2731
31671SOL    HW297021   2.816  11.042   5.675  0.6034  0.0013 -0.6342
31672SOL     OW97022   2.580   5.598   5.592 -0.1002  0.4066  0.3695
31672SOL    HW197023   2.632   5.667   5.632  1.7042 -1.1278  0.8218
31672SOL    HW297024   2.596   5.607   5.498  2.4912 -1.0854  0.5862
31673SOL     OW97025   4.459   1.892   2.522  0.1675 -0.0784 -0.5049
31673SOL    HW197026   4.482   1.956   2.589  0.9062  0.0041 -0.8282
31673SOL    HW297027   4.543   1.867   2.483 -0.0607 -1.4435 -0.2024
31674SOL     OW97028   6.699   4.654   4.088 -0.0875  0.8749 -0.4408
31674SOL    HW197029   6.609   4.689   4.090  0.1699  1.5073  0.3450
31674SOL    HW297030   6.750   4.717   4.139  0.5109 -0.3155  0.4523
31675SOL     OW97031   4.282   8.177   6.126 -1.0843  0.1114  0.2001
31675SOL    HW197032   4.366   8.135   6.147  0.0997  3.2344  2.3623
31675SOL    HW297033   4.235   8.179   6.209 -2.4592  0.2633 -0.5571
31676SOL     OW97034   1.029   2.624   0.428  0.3513 -0.6333  0.0894
31676SOL    HW197035   1.047   2.552   0.489  1.6817 -1.4977 -1.2398
31676SOL    HW297036   1.078   2.698   0.463 -0.6262 -0.4986  1.2065
31677SOL     OW97037  10.739  10.441   7.153 -0.5627  0.5154  0.6942
31677SOL    HW197038  10.686  10.455   7.231  0.4994  1.8512  1.2074
31677SOL    HW297039  10.724  10.349   7.131 -1.7619  0.4159  1.7947
31678SOL     OW97040   3.501   5.196   3.830  0.3034 -0.3017  1.0126
31678SOL    HW197041   3.444   5.261   3.870  1.9403 -0.6767  4.3248
31678SOL    HW297042   3.558   5.246   3.772 -1.1190  0.5434  0.3017
31679SOL     OW97043   5.742   2.154   4.222  0.4108 -0.4356  0.1613
31679SOL    HW197044   5.811   2.089   4.240 -0.3877 -0.8686  1.8899
31679SOL    HW297045   5.692   2.159   4.303  0.0402  1.8898 -0.1287
31680SOL     OW97046   0.869   8.109   0.028  0.1572  0.6539  0.1613
31680SOL    HW197047   0.900   8.189  -0.014  0.7213  0.9520  1.1112
31680SOL    HW297048   0.948   8.061   0.052 -0.1412  0.5203  0.9237
31681SOL     OW97049   2.402   6.754   9.984  0.4058 -0.5681 -0.0986
31681SOL    HW197050   2.373   6.775   9.895 -1.3544 -0.4433  0.4808
31681SOL    HW297051   2.416   6.839  10.026  2.2026 -0.6108 -0.5051
31682SOL     OW97052   6.933   8.201   1.343 -0.1400  0.1119  0.4385
31682SOL    HW197053   6.984   8.215   1.264 -2.3725 -1.7011 -1.4592
31682SOL    HW297054   6.974   8.125   1.384 -0.4326 -0.4560 -0.3061
31683SOL     OW97055   1.495   8.250  10.189  0.4083 -0.6533  0.5139
31683SOL    HW197056   1.454   8.250  10.276 -0.6365 -1.2820  0.0307
31683SOL    HW297057   1.496   8.342  10.163 -1.2530 -0.6844  0.2827
31684SOL     OW97058   0.778   0.794   5.429 -0.3369  0.1615  0.1818
31684SOL    HW197059   0.799   0.830   5.515 -0.2357  1.4132 -0.3465
31684SOL    HW297060   0.708   0.731   5.446 -0.3859  0.4602  1.1624
31685SOL     OW97061  10.725   3.553   3.838  0.7416  0.4719  0.0002
31685SOL    HW197062  10.748   3.569   3.747 -1.3582  0.7985 -0.5179
31685SOL    HW297063  10.639   3.594   3.849  0.6794 -0.0860  1.9627
31686SOL     OW97064   8.279   9.681   8.573  0.8762 -0.6569 -0.6118
31686SOL    HW197065   8.347   9.748   8.580  1.7889 -1.7003  1.0142
31686SOL    HW297066   8.241   9.695   8.486  0.6572  2.2853 -0.1653
31687SOL     OW97067   8.181   3.424  10.449  0.1956 -1.1274  0.1617
31687SOL    HW197068   8.262   3.454  10.407  0.9666 -3.8363 -0.5276
31687SOL    HW297069   8.176   3.331  10.427 -3.8106 -0.8631 -0.9610
31688SOL     OW97070   1.070   7.378   5.249  0.1908 -0.0896 -0.3727
31688SOL    HW197071   1.001   7.420   5.198  0.5567  1.1213  0.0807
31688SOL    HW297072   1.151   7.406   5.206  0.4649  0.1487  0.2847
31689SOL     OW97073   9.516   0.545   4.990 -0.0676  0.3668 -0.1281
31689SOL    HW197074   9.504   0.499   4.907 -1.5856  0.8359 -0.1879
31689SOL    HW297075   9.514   0.476   5.056  2.7957 -0.2165 -0.5360
31690SOL     OW97076   4.883   7.125  10.392  0.2950  0.3254 -0.5288
31690SOL    HW197077   4.940   7.185  10.440  1.0158 -0.9557  0.2862
31690SOL    HW297078   4.803   7.122  10.443  0.4450  0.2323 -0.2949
31691SOL     OW97079   7.202   3.794  11.062 -0.0388  0.7693 -0.1145
31691SOL    HW197080   7.197   3.860  10.993 -1.1127  1.9671  1.0655
31691SOL    HW297081   7.261   3.832  11.127  2.1970 -0.9922 -0.9462
31692SOL     OW97082   6.039   1.099   6.235 -0.4219  0.0072  0.9576
31692SOL    HW197083   6.042   1.009   6.266  1.7199  0.2292  1.5543
31692SOL    HW297084   6.080   1.096   6.148 -0.7567  0.3266  0.7875
31693SOL     OW97085   4.150   2.307   2.454 -0.0064 -0.2033  0.7496
31693SOL    HW197086   4.084   2.315   2.385  0.6269 -1.3181 -0.0272
31693SOL    HW297087   4.213   2.244   2.419  2.8382  2.6189  0.3881
31694SOL     OW97088   5.253  11.024   3.165  0.3405  0.5322 -0.0577
31694SOL    HW197089   5.164  11.051   3.142 -0.1755  0.4019  1.6979
31694SOL    HW297090   5.247  10.994   3.255  1.9851 -0.3997 -0.2171
31695SOL     OW97091  10.329   6.722   7.722 -0.3048  0.5420 -0.8508
31695SOL    HW197092  10.357   6.757   7.637  1.9229  0.0778 -0.3790
31695SOL    HW297093  10.301   6.799   7.772  0.7614  1.1546 -1.1684
31696SOL     OW97094   9.255  10.539   9.533 -0.1164 -0.2629  0.0050
31696SOL    HW197095   9.342  10.578   9.539  0.9559 -2.2507 -1.3978
31696SOL    HW297096   9.234  10.541   9.440 -0.9494 -1.0844  0.1568
31697SOL     OW97097   3.573   7.909  10.071  0.2210 -0.1606  0.4358
31697SOL    HW197098   3.558   8.002  10.086  2.2959  0.3889 -0.4696
31697SOL    HW297099   3.539   7.893   9.983 -0.4903 -0.3659  0.7425
31698SOL     OW97100   6.925  10.774   8.403 -0.0539 -0.1854  0.3189
31698SOL    HW197101   6.851  10.807   8.353 -1.1510  0.8811  2.4829
31698SOL    HW297102   7.002  10.810   8.360 -0.9385  0.7024 -0.5643
31699SOL     OW97103   0.096   4.996   9.326  0.0854 -0.0062  0.1985
31699SOL    HW197104   0.023   5.000   9.387 -1.0642  3.3142 -1.1771
31699SOL    HW297105   0.139   5.081   9.335  1.7378 -0.6100 -1.4345
31700SOL     OW97106   1.898   4.824   8.810 -0.2212  0.4532  0.5367
31700SOL    HW197107   1.834   4.757   8.834 -1.1585  0.1438 -2.4022
31700SOL    HW297108   1.846   4.892   8.767  1.3009  0.4699 -1.4093
31701SOL     OW97109   6.589   8.364   8.312  0.1122 -0.1320  0.4916
31701SOL    HW197110   6.502   8.355   8.272 -0.3815  0.8463  1.2774
31701SOL    HW297111   6.626   8.442   8.271  1.3127 -1.4378 -1.0101
31702SOL     OW97112   6.417   4.993   8.376 -0.4196  0.4986 -0.0823
31702SOL    HW197113   6.327   5.002   8.409 -0.8667  0.6460 -1.2809
31702SOL    HW297114   6.409   5.006   8.281  0.7491 -0.3472 -0.3150
31703SOL     OW97115   3.414   8.214  10.321 -0.7955 -0.2114 -0.5037
31703SOL    HW197116   3.423   8.170  10.406 -0.2855 -0.2688 -0.5852
31703SOL    HW297117   3.424   8.307  10.341  2.1265 -0.3733 -0.8493
31704SOL     OW97118   2.141   1.939   0.685  0.5931 -0.2890  0.4992
31704SOL    HW197119   2.062   1.895   0.716  1.0130 -0.6504  1.0812
31704SOL    HW297120   2.171   1.989   0.761 -0.0235  1.2411 -0.2165
31705SOL     OW97121   9.625   6.615   9.717  0.5968 -0.5378  0.4660
31705SOL    HW197122   9.624   6.648   9.627 -2.4840  1.2189  1.0165
31705SOL    HW297123   9.651   6.689   9.770  4.1945 -2.0197  1.0582
31706SOL     OW97124  10.228   9.698   8.072  0.2305 -0.0661  0.2920
31706SOL    HW197125  10.175   9.776   8.058  1.5920  0.8376 -0.0090
31706SOL    HW297126  10.314   9.732   8.099  0.9098 -1.4453 -0.0479
31707SOL     OW97127  10.391   4.333   7.189 -0.1426 -0.0108  0.2797
31707SOL    HW197128  10.354   4.275   7.256  2.2395 -1.2566  0.6245
31707SOL    HW297129  10.343   4.311   7.109 -1.0974 -0.5635  0.9901
31708SOL     OW97130   8.279   3.840   8.019  0.1236 -0.3307  0.1403
31708SOL    HW197131   8.251   3.789   7.943  0.5488  0.4799 -0.5736
31708SOL    HW297132   8.210   3.905   8.031  1.8471  2.0635 -1.9907
31709SOL     OW97133   9.935   6.090   2.420 -0.3830  0.0405 -0.1431
31709SOL    HW197134   9.936   6.058   2.330  1.1909 -1.0418  0.2287
31709SOL    HW297135   9.915   6.013   2.473  0.4062  0.3076  0.5538
31710SOL     OW97136  10.124   3.867   0.930 -0.2131 -0.2923  0.3269
31710SOL    HW197137  10.116   3.833   1.019  0.6560 -0.4572  0.3444
31710SOL    HW297138  10.211   3.840   0.901 -0.5139 -0.3019 -0.6029
31711SOL     OW97139   8.958   3.724   0.525  0.0692  1.0014  0.4961
31711SOL    HW197140   8.953   3.681   0.610  0.8218  0.4584  0.2754
31711SOL    HW297141   8.883   3.784   0.524  0.4838  1.5813  1.8500
31712SOL     OW97142   3.291   4.877   8.937  0.1982  0.3472  0.2597
31712SOL    HW197143   3.308   4.835   9.022 -2.0448  0.4907  0.8404
31712SOL    HW297144   3.341   4.824   8.875  0.0948 -1.1792  1.3931
31713SOL     OW97145   6.713  10.000   3.806  1.1413 -0.2765 -0.1719
31713SOL    HW197146   6.765  10.018   3.728  0.3982 -0.0535 -0.6249
31713SOL    HW297147   6.645   9.939   3.777  1.1326 -0.5438  0.4012
31714SOL     OW97148   0.054   6.941   7.238 -0.2019 -0.0692 -0.3667
31714SOL    HW197149   0.128   6.972   7.186  0.6409 -1.3431  0.0252
31714SOL    HW297150  -0.021   6.988   7.203  0.2079 -1.3255 -3.1782
31715SOL     OW97151   0.034   5.014   2.174 -0.4579 -0.0739  0.1267
31715SOL    HW197152  -0.010   4.987   2.093 -1.2270 -1.6580  1.0248
31715SOL    HW297153   0.127   5.010   2.153 -0.6535 -0.3550 -0.7160
31716SOL     OW97154   1.121  10.446   8.544  0.3549  0.5452  0.2649
31716SOL    HW197155   1.204  10.491   8.563  0.8112 -0.1722  0.0319
31716SOL    HW297156   1.081  10.497   8.475  2.0998 -0.7831 -1.8635
31717SOL     OW97157  10.600   9.101   1.559 -0.1456 -0.3830  0.1559
31717SOL    HW197158  10.539   9.093   1.633  0.0838  1.8969  0.6634
31717SOL    HW297159  10.545   9.085   1.482 -1.1641  0.5670  0.6595
31718SOL     OW97160   5.452   1.832   0.207 -0.1972 -0.9511  0.2474
31718SOL    HW197161   5.423   1.900   0.146  1.4088 -0.4900 -0.0544
31718SOL    HW297162   5.547   1.830   0.196  0.3240 -0.0641  3.5464
31719SOL     OW97163   7.813   6.986   6.873 -0.3064  0.1905 -0.4084
31719SOL    HW197164   7.875   7.034   6.819  4.2224 -0.7316  3.3473
31719SOL    HW297165   7.759   7.053   6.915  2.7233  1.8043  1.1812
31720SOL     OW97166   7.068   7.684   8.321  0.2386 -0.1371  0.1225
31720SOL    HW197167   6.982   7.718   8.295  0.9442 -0.5625 -3.1366
31720SOL    HW297168   7.048   7.613   8.382 -1.7385 -0.2969 -0.6357
31721SOL     OW97169   6.672   6.154   2.531  0.8727 -0.0427  0.1411
31721SOL    HW197170   6.606   6.182   2.595  1.2792  0.6018  0.2849
31721SOL    HW297171   6.722   6.233   2.513 -0.5954  0.3684 -2.6327
31722SOL     OW97172   6.138   4.343  10.109  0.2125  0.0745  1.0478
31722SOL    HW197173   6.104   4.256  10.132  1.0024 -0.9654 -1.3890
31722SOL    HW297174   6.232   4.337  10.128  0.7226 -0.5198 -1.3604
31723SOL     OW97175   8.207   2.186   1.551 -0.3576 -0.1642 -0.4044
31723SOL    HW197176   8.169   2.270   1.577 -1.5913 -0.9942  0.6340
31723SOL    HW297177   8.196   2.130   1.628 -1.5115 -1.8953 -1.7450
31724SOL     OW97178   6.016   5.879   6.381 -0.1206 -0.5244  0.3410
31724SOL    HW197179   5.969   5.924   6.311  0.8691  0.7852  0.4543
31724SOL    HW297180   5.989   5.925   6.461  2.9309  1.9136  0.2088
31725SOL     OW97181   6.623   2.523   9.351 -0.4708  0.1368 -0.1883
31725SOL    HW197182   6.698   2.511   9.409 -0.5795 -0.5412 -0.1821
31725SOL    HW297183   6.644   2.472   9.273 -1.2927 -0.7898  0.1672
31726SOL     OW97184  10.067   7.385  10.425 -0.0219 -0.4615 -0.2060
31726SOL    HW197185  10.115   7.360  10.504 -1.2910 -0.9319  0.4471
31726SOL    HW297186   9.989   7.329  10.425 -0.8216  0.5960 -0.9614
31727SOL     OW97187   1.200   4.498   9.937  0.0189  0.1055  0.3614
31727SOL    HW197188   1.190   4.426   9.999  1.7054 -1.9032 -1.5472
31727SOL    HW297189   1.228   4.572   9.991 -0.0602 -1.1254  2.1804
31728SOL     OW97190  10.093   6.969   5.022 -0.4355 -0.1477  0.0923
31728SOL    HW197191  10.172   6.956   4.970 -0.5355  1.3359 -0.4618
31728SOL    HW297192  10.095   7.062   5.046 -0.9358 -0.5518  1.8569
31729SOL     OW97193   5.768   0.162   8.291  0.2424  0.4475 -0.3905
31729SOL    HW197194   5.758   0.257   8.288  0.2660  0.4298 -2.1009
31729SOL    HW297195   5.707   0.133   8.359 -2.0921  1.4329 -1.9548
31730SOL     OW97196   4.348   7.549   7.460 -0.1536  0.4987  0.3499
31730SOL    HW197197   4.378   7.488   7.393  0.5580  0.9758  0.2210
31730SOL    HW297198   4.425   7.602   7.480 -0.2382  0.0944  1.8482
31731SOL     OW97199   3.443  10.357   4.486  0.2956  0.1724  0.8085
31731SOL    HW197200   3.440  10.261   4.489  2.0284 -0.2161 -3.2750
31731SOL    HW297201   3.354  10.383   4.463  0.4709 -0.7990 -1.1464
31732SOL     OW97202   0.409   1.814   7.278 -0.2826 -0.0191 -0.2584
31732SOL    HW197203   0.346   1.775   7.338 -0.3128  1.7535  0.9166
31732SOL    HW297204   0.355   1.858   7.212 -0.2424 -1.1260 -1.0625
31733SOL     OW97205   7.308   6.124   1.831 -0.3919  0.5954 -0.2559
31733SOL    HW197206   7.266   6.075   1.901 -0.5482  1.1612  0.0566
31733SOL    HW297207   7.273   6.087   1.750  0.7375 -0.9209 -0.0823
31734SOL     OW97208   6.841   6.726   0.158  0.0865 -0.5864  0.3307
31734SOL    HW197209   6.838   6.796   0.223 -1.9020 -0.0963 -0.2191
31734SOL    HW297210   6.930   6.693   0.163  0.6426  0.9612  1.6879
31735SOL     OW97211   9.939   2.089  10.761 -0.7781 -0.3819 -0.7022
31735SOL    HW197212  10.003   2.115  10.828 -1.1778 -0.5064 -0.2631
31735SOL    HW297213   9.889   2.169  10.745 -1.2531 -0.5726 -0.2022
31736SOL     OW97214   4.318   9.178   1.144  0.6561 -0.3166 -0.0808
31736SOL    HW197215   4.308   9.187   1.239  4.0068 -0.9790  0.4629
31736SOL    HW297216   4.311   9.267   1.110  0.8838  0.1222  0.9884
31737SOL     OW97217   2.310   4.908   4.078  0.1042 -0.0352  0.4377
31737SOL    HW197218   2.318   4.831   4.135 -0.1175 -0.3483  0.0491
31737SOL    HW297219   2.233   4.890   4.024 -0.8302  1.0946  1.3216
31738SOL     OW97220   8.933  10.711   1.635 -0.2471 -0.0240  0.4851
31738SOL    HW197221   8.967  10.644   1.575 -0.9228 -0.5852  0.7131
31738SOL    HW297222   8.847  10.678   1.661 -0.5627  0.9137  0.6513
31739SOL     OW97223   8.677   8.395   5.739  0.1322  0.5752 -0.4586
31739SOL    HW197224   8.660   8.417   5.831 -0.3664 -1.2183 -0.0835
31739SOL    HW297225   8.591   8.397   5.698  0.1749  0.0480 -0.5726
31740SOL     OW97226   8.115   8.825   7.287  0.3237 -0.3178  0.1827
31740SOL    HW197227   8.153   8.771   7.356  0.7311 -0.4291 -0.1244
31740SOL    HW297228   8.188   8.845   7.229  0.2140  0.6814  0.3612
31741SOL     OW97229   2.530   8.399   5.743 -0.0764  0.4108 -0.2132
31741SOL    HW197230   2.495   8.487   5.756 -0.9409 -0.1712  1.6118
31741SOL    HW297231   2.526   8.358   5.829  0.8073 -1.2535 -0.9219
31742SOL     OW97232   0.012   9.321   5.666 -0.4072 -0.7506  0.4699
31742SOL    HW197233   0.098   9.356   5.691  0.0925 -1.9568  0.5193
31742SOL    HW297234  -0.042   9.331   5.744 -0.5766  0.7978  0.1728
31743SOL     OW97235   3.720   9.819  10.964  0.4407  0.0817 -0.2219
31743SOL    HW197236   3.665   9.777  11.030  1.1811 -0.3953  0.0974
31743SOL    HW297237   3.807   9.784  10.979  0.8586  0.9062 -0.6682
31744SOL     OW97238   9.774   0.956   3.237  0.0175  0.2530  0.1361
31744SOL    HW197239   9.736   0.895   3.172  1.5288 -0.7755  0.1618
31744SOL    HW297240   9.852   0.990   3.194  1.2720 -0.7471  1.5131
31745SOL     OW97241   1.217   5.339   9.675  0.5402  0.2176  0.1068
31745SOL    HW197242   1.127   5.315   9.652  0.6316 -0.9603  0.8810
31745SOL    HW297243   1.256   5.257   9.706  1.4342  1.0156  1.1637
31746SOL     OW97244   4.930   8.966  10.377  0.4864 -0.1526  0.0093
31746SOL    HW197245   4.861   8.925  10.324  0.1514  0.5837 -0.1368
31746SOL    HW297246   4.995   8.897  10.389 -0.3967 -0.9433  0.3613
31747SOL     OW97247   0.900   5.524   1.649  0.0320 -0.0260  0.0773
31747SOL    HW197248   0.981   5.509   1.697  1.3326 -0.8153 -2.1782
31747SOL    HW297249   0.849   5.445   1.663 -0.0197  0.1472  0.8967
31748SOL     OW97250   3.645   7.985   9.304  0.5867 -0.1201  0.2065
31748SOL    HW197251   3.662   8.067   9.351  0.5011 -1.2353  2.2894
31748SOL    HW297252   3.712   7.982   9.236  0.7664  1.5320  0.2593
31749SOL     OW97253   2.396   7.500   6.719  0.0398  0.5003  0.4687
31749SOL    HW197254   2.427   7.569   6.778 -2.9690  0.6092  2.0809
31749SOL    HW297255   2.302   7.516   6.710  0.0561 -0.4459 -3.2071
31750SOL     OW97256   4.754   6.945   2.815  0.2428  0.4506  0.3567
31750SOL    HW197257   4.793   6.970   2.731  1.1349 -0.2928  0.5387
31750SOL    HW297258   4.811   6.876   2.848  0.2856  1.1886  1.9012
31751SOL     OW97259  10.587   7.469   3.458  0.7169 -0.5457 -0.3899
31751SOL    HW197260  10.562   7.470   3.550  0.1215 -1.4929 -0.5223
31751SOL    HW297261  10.504   7.456   3.411  1.2055 -1.9323 -0.9470
31752SOL     OW97262   2.329  10.421   4.790 -0.3625  0.2400 -0.2023
31752SOL    HW197263   2.395  10.471   4.743  0.7871 -0.1160  0.9802
31752SOL    HW297264   2.378  10.370   4.854 -1.7203 -0.6130  0.2038
31753SOL     OW97265   8.524   8.513   6.238  0.1033  0.6099 -0.6296
31753SOL    HW197266   8.610   8.547   6.264  0.2891  0.6897 -1.3407
31753SOL    HW297267   8.536   8.418   6.236  1.0394  0.6990 -3.5789
31754SOL     OW97268   3.569   4.911   1.387 -0.3162  0.2991  0.5056
31754SOL    HW197269   3.637   4.910   1.320 -1.4570 -0.8074 -0.6958
31754SOL    HW297270   3.571   4.823   1.425 -1.0597  0.2445  0.4450
31755SOL     OW97271   3.595   6.205   0.537 -0.5293 -0.5294 -0.2044
31755SOL    HW197272   3.597   6.296   0.566  2.5757 -0.4261 -0.4892
31755SOL    HW297273   3.546   6.207   0.455 -0.8352  0.7838 -0.0207
31756SOL     OW97274   2.110   6.013   8.863  0.6887  0.6465 -0.4932
31756SOL    HW197275   2.017   5.993   8.852  0.7624 -0.8959  1.2897
31756SOL    HW297276   2.115   6.063   8.944  1.0730  4.2185 -2.4942
31757SOL     OW97277   0.153   8.647   0.619 -0.1112  0.1580 -0.2191
31757SOL    HW197278   0.073   8.689   0.650  0.3832  1.6525 -0.8476
31757SOL    HW297279   0.126   8.559   0.593 -1.5464  0.6453 -0.4510
31758SOL     OW97280   0.021   3.140   5.273  0.2600  0.1181  0.3545
31758SOL    HW197281   0.078   3.063   5.266 -0.3883 -0.2955 -0.5043
31758SOL    HW297282   0.032   3.170   5.364 -0.7979 -2.0300  1.2552
31759SOL     OW97283   3.399   8.780  10.456 -0.1811 -0.1068  0.1148
31759SOL    HW197284   3.395   8.782  10.361 -1.0588 -0.6903  0.1267
31759SOL    HW297285   3.450   8.701  10.477  0.0061  0.0177  0.1322
31760SOL     OW97286   1.871   8.758   8.582 -0.0691 -0.1009  0.1937
31760SOL    HW197287   1.963   8.764   8.558 -0.0085 -1.2573  0.0744
31760SOL    HW297288   1.848   8.845   8.615  0.7147  0.5728 -0.9966
31761SOL     OW97289   9.558   0.160   4.208  0.4772  0.3999  0.1337
31761SOL    HW197290   9.557   0.230   4.142  0.2847 -0.8455 -1.2366
31761SOL    HW297291   9.636   0.109   4.187 -1.0270 -1.5973 -0.8968
31762SOL     OW97292   0.822   7.006   1.090 -0.3472 -0.0043  0.1662
31762SOL    HW197293   0.883   6.997   1.017 -1.0427 -0.4211 -0.3810
31762SOL    HW297294   0.853   6.944   1.155  0.2669  0.3542  0.2187
31763SOL     OW97295   4.014   4.802  10.670  0.3978 -0.3060 -0.1690
31763SOL    HW197296   4.009   4.707  10.655  0.2226 -0.2329 -0.5905
31763SOL    HW297297   3.981   4.813  10.760 -3.2728 -0.3138 -1.3217
31764SOL     OW97298  10.503  10.598   8.058 -0.2403  0.2452 -0.2336
31764SOL    HW197299  10.409  10.587   8.042 -0.6238  2.2371  0.3210
31764SOL    HW297300  10.542  10.517   8.027 -2.1363 -0.6238 -0.5204
31765SOL     OW97301   5.547   3.997   5.708  0.2771  0.4400 -0.7813
31765SOL    HW197302   5.528   3.905   5.721  0.2387  0.6737  1.0964
31765SOL    HW297303   5.464   4.042   5.726  0.3979  0.8748 -1.2665
31766SOL     OW97304   7.010   4.112   6.875  0.4058 -0.3389 -0.2453
31766SOL    HW197305   7.049   4.032   6.840 -0.8627 -0.5110 -1.3249
31766SOL    HW297306   7.046   4.182   6.820 -0.0133 -0.3884 -0.5853
31767SOL     OW97307   8.261   3.540   2.825  0.0559  0.4301 -0.5235
31767SOL    HW197308   8.316   3.616   2.848  0.6929  0.2752 -1.4605
31767SOL    HW297309   8.309   3.497   2.754 -1.4552  0.5051 -1.6577
31768SOL     OW97310   0.911   5.025   9.275  0.2110 -0.2465 -0.4871
31768SOL    HW197311   0.979   5.036   9.341 -0.5534 -1.6933  0.5833
31768SOL    HW297312   0.850   5.097   9.291  0.6036  0.0694 -0.3772
31769SOL     OW97313   7.574   8.980   4.030 -0.3917  0.0412 -0.6540
31769SOL    HW197314   7.662   8.949   4.008 -0.7124 -0.6768 -0.9433
31769SOL    HW297315   7.567   9.065   3.987 -0.0893 -0.2130 -1.2147
31770SOL     OW97316   5.027   5.688   9.966  0.2475 -0.0315 -0.4960
31770SOL    HW197317   5.066   5.736   9.893  0.5264 -0.3174 -0.5371
31770SOL    HW297318   4.934   5.710   9.962  0.1261 -0.6435 -1.4152
31771SOL     OW97319   2.718  10.046   6.318  0.5170 -0.1013  0.2318
31771SOL    HW197320   2.754  10.015   6.402 -0.3902  0.6463  0.9223
31771SOL    HW297321   2.671   9.971   6.283  0.0970 -0.1412  0.8674
31772SOL     OW97322   7.094   8.570  10.478 -0.0541  0.4699 -0.3374
31772SOL    HW197323   7.124   8.490  10.435  0.3633 -0.0373  0.8538
31772SOL    HW297324   7.140   8.571  10.561 -2.5887  0.1460  1.1930
31773SOL     OW97325   6.894   2.344   1.547  0.4097  0.6921  0.0414
31773SOL    HW197326   6.949   2.323   1.471 -0.2010 -0.9279  0.0078
31773SOL    HW297327   6.953   2.387   1.609  1.0501  1.5186 -1.0996
31774SOL     OW97328   7.072   3.642   1.868  0.0503  0.2157 -0.3190
31774SOL    HW197329   7.137   3.625   1.800  1.0002 -2.2177  1.0703
31774SOL    HW297330   7.108   3.715   1.918  1.8986 -1.1723  0.5144
31775SOL     OW97331  10.890   8.710   2.718  0.3117 -0.0617  0.3943
31775SOL    HW197332  10.944   8.631   2.719 -1.8827 -1.9905 -4.3135
31775SOL    HW297333  10.813   8.687   2.770 -1.0892 -1.9220 -2.2756
31776SOL     OW97334  10.365   1.328   7.489 -0.2412 -0.1519  0.3114
31776SOL    HW197335  10.276   1.356   7.467 -0.6462 -2.8083 -1.9519
31776SOL    HW297336  10.422   1.384   7.437 -0.6489  0.5548  0.6098
31777SOL     OW97337  10.627   1.126   4.565  0.3443 -0.2171  0.2961
31777SOL    HW197338  10.554   1.102   4.509  1.6000 -1.9913 -0.6852
31777SOL    HW297339  10.593   1.116   4.654 -1.0404  0.5156 -0.1337
31778SOL     OW97340   8.503   8.247   2.378  0.7646  0.0588  0.1703
31778SOL    HW197341   8.560   8.172   2.395 -0.0215 -0.4082  0.7829
31778SOL    HW297342   8.466   8.269   2.463  1.2687  1.3995  0.0761
31779SOL     OW97343   8.269  10.905   1.814  0.6787 -0.1838  0.7010
31779SOL    HW197344   8.362  10.922   1.801  0.3355  0.7003 -0.9827
31779SOL    HW297345   8.258  10.813   1.787  0.8254  0.1790 -0.6717
31780SOL     OW97346  10.946   1.546   7.736  0.7138 -0.5381  0.6457
31780SOL    HW197347  10.929   1.594   7.817 -0.6709  0.7702 -0.3645
31780SOL    HW297348  10.860   1.538   7.694  1.0003 -3.3256  0.4148
31781SOL     OW97349   0.154   9.291   0.205 -0.3373 -0.5520 -0.5731
31781SOL    HW197350   0.191   9.317   0.289  0.1365 -2.2813 -0.2075
31781SOL    HW297351   0.132   9.199   0.216 -1.9716 -0.3503 -1.7779
31782SOL     OW97352   2.332   3.517   4.534  0.2480 -0.1843 -0.0245
31782SOL    HW197353   2.365   3.429   4.550  1.7517  0.0270 -1.6635
31782SOL    HW297354   2.408   3.574   4.547 -0.4110  0.7470 -0.1187
31783SOL     OW97355   3.142   6.297   9.591 -0.1795  0.1135  0.6459
31783SOL    HW197356   3.216   6.267   9.644  0.7460  0.4252 -0.4328
31783SOL    HW297357   3.073   6.232   9.607  0.2087 -0.0136  1.9019
31784SOL     OW97358   6.932   8.325   6.096  0.0048 -0.0740  1.0037
31784SOL    HW197359   6.863   8.346   6.158 -1.7762 -0.7903 -0.6364
31784SOL    HW297360   6.939   8.402   6.040  0.3304 -0.1322  0.9600
31785SOL     OW97361  10.539   1.541   9.085  0.0079 -0.1659  0.4606
31785SOL    HW197362  10.567   1.449   9.083 -0.6643 -0.3767 -0.8589
31785SOL    HW297363  10.495   1.551   9.169 -0.1639 -1.1503  0.5067
31786SOL     OW97364   9.015   1.087   9.305 -0.0362  0.7143 -0.1958
31786SOL    HW197365   9.053   1.148   9.368  1.4447  0.5407 -0.8784
31786SOL    HW297366   9.089   1.036   9.273 -1.0322 -0.4609 -0.7161
31787SOL     OW97367   2.212   8.755   8.259 -0.0042  0.0666 -0.5863
31787SOL    HW197368   2.257   8.670   8.257  2.1751  1.1749 -1.7237
31787SOL    HW297369   2.151   8.752   8.185  0.3718 -0.3390 -0.8846
31788SOL     OW97370   4.221   8.717   7.338  0.2804 -0.5316 -0.3816
31788SOL    HW197371   4.249   8.800   7.376 -0.0551 -1.0042  0.9499
31788SOL    HW297372   4.138   8.697   7.382 -0.8952 -0.4255 -2.3760
31789SOL     OW97373   4.884   8.957   1.248 -1.1945 -0.0984 -0.1166
31789SOL    HW197374   4.798   8.997   1.234 -1.2694  0.1084  0.9190
31789SOL    HW297375   4.880   8.921   1.336  0.5131  1.7957  0.7996
31790SOL     OW97376   2.783  10.697   8.756 -0.1112 -0.0781 -0.4697
31790SOL    HW197377   2.808  10.609   8.727  0.9108 -0.2470  0.7993
31790SOL    HW297378   2.857  10.726   8.811 -0.4248  1.5734 -0.8481
31791SOL     OW97379   1.692   0.824  10.304 -0.2175 -0.2992 -0.1139
31791SOL    HW197380   1.714   0.877  10.380 -1.6294 -0.1685  0.2368
31791SOL    HW297381   1.717   0.877  10.229 -0.9290  0.5677  0.2485
31792SOL     OW97382   5.709   5.772   2.591 -0.4278  0.4601  0.0152
31792SOL    HW197383   5.716   5.707   2.660 -1.5869 -0.8047 -0.9992
31792SOL    HW297384   5.799   5.794   2.568 -0.0365  0.2008  1.2657
31793SOL     OW97385   6.563   5.408   0.857  0.0424  0.3616 -0.2906
31793SOL    HW197386   6.505   5.451   0.920 -1.8787 -1.1683 -0.8945
31793SOL    HW297387   6.642   5.388   0.907 -0.8918  0.3810  1.2726
31794SOL     OW97388  10.055   8.478   3.672 -0.1702  0.2203  0.0747
31794SOL    HW197389  10.020   8.495   3.585  0.3331  0.5657 -0.0643
31794SOL    HW297390   9.979   8.485   3.730 -0.5509 -0.2381 -0.3552
31795SOL     OW97391   5.194   3.421   4.745 -0.4004  0.1125 -0.7413
31795SOL    HW197392   5.244   3.395   4.822  0.8501  2.3305 -0.7322
31795SOL    HW297393   5.118   3.467   4.779 -2.3528 -2.8502 -0.7739
31796SOL     OW97394   8.092   6.759  10.332 -0.4079 -0.3298  0.2762
31796SOL    HW197395   8.092   6.739  10.238  1.3699  1.1731 -0.1001
31796SOL    HW297396   8.174   6.723  10.365  0.1907  1.2980  0.6914
31797SOL     OW97397  10.765   9.492   1.691 -0.4646  0.6884  0.1120
31797SOL    HW197398  10.780   9.472   1.598 -2.0188  1.0226 -0.2363
31797SOL    HW297399  10.671   9.510   1.697 -0.4335  0.4449  1.8032
31798SOL     OW97400   3.129   2.573   7.585 -0.6065 -0.1380 -0.2951
31798SOL    HW197401   3.132   2.478   7.596  0.1845 -0.0776  0.1325
31798SOL    HW297402   3.036   2.594   7.575 -0.8429 -0.8842  0.2702
31799SOL     OW97403   5.712   8.573   8.960 -0.1204 -0.5693  0.1775
31799SOL    HW197404   5.628   8.607   8.991  0.0689  1.3949 -1.2967
31799SOL    HW297405   5.689   8.519   8.884 -0.0922 -0.6559  0.2295
31800SOL     OW97406   9.156   7.751   3.175 -0.0025 -0.5129 -0.1117
31800SOL    HW197407   9.169   7.808   3.251  3.0905  0.4871 -1.1984
31800SOL    HW297408   9.126   7.668   3.212 -1.5964  0.8470  1.8450
31801SOL     OW97409   4.757   1.156   7.080 -0.4682 -0.0875 -0.0886
31801SOL    HW197410   4.747   1.081   7.021  0.1608  0.5778 -1.0648
31801SOL    HW297411   4.837   1.138   7.130 -0.2383  0.0026 -0.4249
31802SOL     OW97412   9.877   8.491   2.981  0.1101 -0.1703 -0.0349
31802SOL    HW197413   9.827   8.538   2.915  0.7664  1.7790  0.7725
31802SOL    HW297414   9.912   8.414   2.935  1.8641  1.9062 -2.4798
31803SOL     OW97415   5.803   8.371   3.137 -0.2496 -0.4487 -0.5170
31803SOL    HW197416   5.890   8.408   3.121  0.1525 -1.9679 -2.1997
31803SOL    HW297417   5.818   8.277   3.142 -1.6035 -0.6327  0.9096
31804SOL     OW97418   4.005   6.660  11.101  0.1261 -0.3812  0.0846
31804SOL    HW197419   4.000   6.567  11.123 -0.4669 -0.4862 -0.4539
31804SOL    HW297420   3.919   6.680  11.064  0.1804  0.4310  0.3899
31805SOL     OW97421   1.186   3.124   7.650  0.0656 -0.8478  0.2896
31805SOL    HW197422   1.277   3.111   7.627  1.2304 -0.2595  3.8929
31805SOL    HW297423   1.157   3.196   7.594  0.6673 -3.0635 -3.1943
31806SOL     OW97424   2.824   8.912   5.614  0.1375  0.2467  0.1171
31806SOL    HW197425   2.832   8.817   5.605  0.2687  0.0105  2.0979
31806SOL    HW297426   2.913   8.945   5.598  0.4633 -0.1554  1.0214
31807SOL     OW97427   3.250   5.910   3.173 -0.1122 -0.5235  0.4241
31807SOL    HW197428   3.155   5.897   3.175  0.1562 -2.9468  0.6730
31807SOL    HW297429   3.275   5.883   3.085  0.3538  0.0138  0.3938
31808SOL     OW97430   1.976   2.770   2.621 -0.0672  0.3760 -0.4098
31808SOL    HW197431   1.897   2.742   2.668 -0.6190  0.5519 -1.2165
31808SOL    HW297432   2.041   2.783   2.690 -0.4447 -0.7311  0.1795
31809SOL     OW97433   4.721   9.246   4.141  0.2390  0.6461  0.4014
31809SOL    HW197434   4.741   9.271   4.051 -1.7517  0.7259 -0.0674
31809SOL    HW297435   4.807   9.231   4.182  1.1779  0.4980 -1.5194
31810SOL     OW97436   8.309   5.733   1.400  0.4647  0.3792  0.1375
31810SOL    HW197437   8.307   5.724   1.305 -0.1621 -0.2797  0.1993
31810SOL    HW297438   8.401   5.725   1.423  0.6949  1.1951 -0.4654
31811SOL     OW97439   5.611   7.498  10.174 -0.1222  0.0577 -0.3932
31811SOL    HW197440   5.529   7.452  10.156  0.1814 -0.2335 -1.0727
31811SOL    HW297441   5.619   7.496  10.269 -0.6915 -0.2781 -0.3442
31812SOL     OW97442   3.406   7.860  10.558 -0.0727  0.1134 -0.6188
31812SOL    HW197443   3.419   7.839  10.466  0.6032 -2.5123 -0.0272
31812SOL    HW297444   3.333   7.804  10.585  1.1485 -0.8703  0.8772
31813SOL     OW97445   0.772   3.445   0.348  0.4474  0.5875  0.2031
31813SOL    HW197446   0.717   3.397   0.410 -0.9374  3.3726  1.2787
31813SOL    HW297447   0.711   3.488   0.288  1.5217  2.0457  0.0897
31814SOL     OW97448  10.220   3.558   5.348 -0.0129  0.4570  0.0104
31814SOL    HW197449  10.207   3.467   5.376  0.1407  0.4695  0.1261
31814SOL    HW297450  10.198   3.559   5.255 -1.2080  0.5549  0.2733
31815SOL     OW97451   3.568  10.213   6.089  0.0631 -0.2674 -0.3533
31815SOL    HW197452   3.581  10.254   6.175 -1.0771 -0.5078 -0.0453
31815SOL    HW297453   3.632  10.142   6.087  1.4033  0.9129 -0.5001
31816SOL     OW97454   4.091   9.121  10.303 -0.1541 -0.5748 -0.1168
31816SOL    HW197455   4.052   9.117  10.391  0.6018  1.9155  0.4077
31816SOL    HW297456   4.160   9.055  10.305  1.3741  0.9560  2.0295
31817SOL     OW97457   6.909   3.964   5.429  0.1573 -0.4915  0.1000
31817SOL    HW197458   6.902   3.938   5.337  0.6872  0.6016 -0.2603
31817SOL    HW297459   7.003   3.974   5.444  0.0278  0.0739  0.5510
31818SOL     OW97460   9.054   2.975   4.935  0.3815 -0.7213  0.4191
31818SOL    HW197461   8.997   2.927   4.875  2.2666 -1.1377 -1.1638
31818SOL    HW297462   9.095   3.042   4.879  0.4677  0.4248  1.8011
31819SOL     OW97463   6.044   5.693   2.090 -0.4465 -0.0921  0.1397
31819SOL    HW197464   6.095   5.721   2.166 -0.1499 -1.5086  0.5006
31819SOL    HW297465   5.955   5.681   2.124 -0.4119 -0.2859  0.1659
31820SOL     OW97466   4.669   5.389   1.314  0.1199  0.2626 -0.5616
31820SOL    HW197467   4.730   5.416   1.383  0.3723  0.6208 -0.9222
31820SOL    HW297468   4.650   5.469   1.266  1.3742 -0.2590 -2.0437
31821SOL     OW97469   9.500  10.822   2.831 -0.4597  0.1265  0.0865
31821SOL    HW197470   9.542  10.752   2.782 -3.1539 -1.7538  0.2241
31821SOL    HW297471   9.503  10.897   2.773 -0.7451 -1.1608 -1.6637
31822SOL     OW97472   1.456   5.904   8.163  0.0953  0.2056 -0.1361
31822SOL    HW197473   1.438   5.985   8.117  1.5300  0.6561  0.0496
31822SOL    HW297474   1.432   5.835   8.100  1.4139  0.7980 -1.3381
31823SOL     OW97475   2.160   1.508   7.532 -0.3603 -0.1802 -0.0183
31823SOL    HW197476   2.185   1.538   7.445  0.8808 -0.1178  0.3356
31823SOL    HW297477   2.237   1.526   7.586 -0.9978 -0.5031  1.0261
31824SOL     OW97478   3.409   7.632   4.260  0.4993 -0.3876 -0.4076
31824SOL    HW197479   3.464   7.556   4.240  0.7569 -0.0481 -1.0066
31824SOL    HW297480   3.469   7.695   4.300  0.2099 -0.6357  0.4416
31825SOL     OW97481  11.076   2.559   0.673  0.0722 -0.4783 -0.0654
31825SOL    HW197482  11.071   2.612   0.593  0.0195 -1.3193 -0.6346
31825SOL    HW297483  11.009   2.596   0.731  0.6842  0.6830 -0.0662
31826SOL     OW97484   3.965   0.340   5.009  0.2678  0.3827 -0.0269
31826SOL    HW197485   3.977   0.292   4.927  1.4321  0.6627 -0.0301
31826SOL    HW297486   3.967   0.432   4.983 -1.1772  0.4676  0.0884
31827SOL     OW97487   2.292   7.261   4.056  0.0244  0.4303  0.0563
31827SOL    HW197488   2.324   7.180   4.094 -3.2544 -0.5238  1.0071
31827SOL    HW297489   2.328   7.261   3.967 -0.9082 -2.7297 -0.4125
31828SOL     OW97490   1.711   7.609   9.727 -0.5746 -0.5380 -0.6430
31828SOL    HW197491   1.663   7.532   9.757 -1.8364  0.8489  1.1570
31828SOL    HW297492   1.662   7.683   9.763  0.3911  1.1383 -2.5917
31829SOL     OW97493   6.256   5.501   4.438  0.8304 -0.3538 -0.1996
31829SOL    HW197494   6.348   5.474   4.430  0.9593  0.1756 -0.5980
31829SOL    HW297495   6.259   5.576   4.498  0.5061 -1.0762  0.7278
31830SOL     OW97496   4.117   4.628   3.545 -0.4095  0.1919 -0.3018
31830SOL    HW197497   4.110   4.720   3.519  0.8478  0.2743 -0.4064
31830SOL    HW297498   4.185   4.592   3.488  0.2540 -0.3937  0.8280
31831SOL     OW97499   8.950   1.968   3.974 -1.0511 -0.1610  0.5333
31831SOL    HW197500   9.003   1.892   3.950  0.3582  1.1039 -0.5944
31831SOL    HW297501   8.989   2.000   4.055 -0.3250  0.4906 -0.0475
31832SOL     OW97502   3.033   8.255  10.500  0.6236 -0.0363 -0.1598
31832SOL    HW197503   2.964   8.192  10.521 -0.6859  1.5005  0.3998
31832SOL    HW297504   3.068   8.226  10.416 -2.1437  0.2527 -1.5285
31833SOL     OW97505   3.319   5.544   6.236 -0.0433  0.5584 -0.3249
31833SOL    HW197506   3.231   5.528   6.270  0.6168 -0.6524  0.9097
31833SOL    HW297507   3.374   5.547   6.314  1.3623 -1.1306 -1.1835
31834SOL     OW97508   1.542  10.191   0.706 -0.5838  0.2329 -0.4129
31834SOL    HW197509   1.475  10.241   0.659 -2.0425 -0.8840  0.4117
31834SOL    HW297510   1.562  10.245   0.783  0.7241  1.3501 -1.4677
31835SOL     OW97511   4.430   7.727   3.587 -0.0817  0.3404  0.1753
31835SOL    HW197512   4.385   7.643   3.576 -0.6425  0.4906  1.2700
31835SOL    HW297513   4.360   7.791   3.596  0.3319  0.6691  1.2057
31836SOL     OW97514   7.666   9.393   1.538 -0.2375 -0.0398 -0.6641
31836SOL    HW197515   7.731   9.396   1.467 -0.5611 -0.7206 -0.9947
31836SOL    HW297516   7.582   9.397   1.493 -0.4331  0.4691 -0.2563
31837SOL     OW97517   1.133  10.724   5.111 -0.1133 -0.0938  0.6230
31837SOL    HW197518   1.050  10.684   5.139 -1.3208 -0.3215 -2.7285
31837SOL    HW297519   1.175  10.655   5.059  2.1387  0.1184  2.0548
31838SOL     OW97520   0.354   1.073   6.975  0.2450  0.4168  0.3804
31838SOL    HW197521   0.313   1.049   7.058 -2.5847  1.3602 -0.6312
31838SOL    HW297522   0.357   1.169   6.977  0.3305  0.4366 -0.5401
31839SOL     OW97523   7.507   6.410   2.188  0.4854 -0.0529 -0.9381
31839SOL    HW197524   7.512   6.316   2.207 -0.2257 -0.1214 -1.0603
31839SOL    HW297525   7.591   6.431   2.149  0.3416 -0.8218 -1.6875
31840SOL     OW97526   5.461   9.450   4.627  0.4594  0.1485 -0.4659
31840SOL    HW197527   5.484   9.538   4.656  0.0916 -0.2103  1.0398
31840SOL    HW297528   5.455   9.399   4.709  0.5491 -1.2356 -1.2896
31841SOL     OW97529   4.834   3.483   9.240 -0.3449  0.1745 -0.1638
31841SOL    HW197530   4.811   3.552   9.302 -0.0703 -0.2744  0.4494
31841SOL    HW297531   4.854   3.407   9.294  1.6340  0.2502 -0.6814
31842SOL     OW97532   7.893   7.725   9.787 -0.3077  0.3946 -0.2654
31842SOL    HW197533   7.920   7.687   9.704  0.8661 -0.8131  0.6280
31842SOL    HW297534   7.944   7.806   9.793 -1.1339  0.9987 -1.1470
31843SOL     OW97535  10.824   9.533   3.994 -0.2596  0.0591  0.6897
31843SOL    HW197536  10.837   9.591   4.069  1.5751 -1.3915  1.5932
31843SOL    HW297537  10.894   9.554   3.933  0.5479 -1.2511  1.1117
31844SOL     OW97538  10.102   9.011   1.008  0.3743 -0.7004  0.5920
31844SOL    HW197539  10.170   8.950   1.037  1.1742  0.2365  0.7383
31844SOL    HW297540  10.150   9.082   0.967 -0.5978 -0.6602 -0.5465
31845SOL     OW97541   1.992   7.077   7.703  0.1660 -0.1872  0.7528
31845SOL    HW197542   2.076   7.086   7.657  0.4817  3.8795  1.7470
31845SOL    HW297543   2.016   7.046   7.790  0.2066 -2.1828  0.0697
31846SOL     OW97544   6.514   8.120  10.973  0.3035 -0.4701  0.3361
31846SOL    HW197545   6.546   8.192  11.027 -0.7823 -0.8705  1.5821
31846SOL    HW297546   6.583   8.055  10.977  0.1668 -0.5708  1.4529
31847SOL     OW97547   5.373   6.240   2.657 -0.8684 -0.2210 -0.0286
31847SOL    HW197548   5.286   6.271   2.630 -1.3712  0.9502  2.6152
31847SOL    HW297549   5.421   6.320   2.677  0.4210 -0.9217 -0.2565
31848SOL     OW97550   0.048   3.563   2.112 -0.5412  0.7137 -0.2290
31848SOL    HW197551  -0.016   3.494   2.095  1.2581 -0.7973 -1.2341
31848SOL    HW297552   0.047   3.616   2.032 -0.5317  0.6808 -0.2510
31849SOL     OW97553  11.034   4.227   9.433 -1.0253  0.7509 -0.3327
31849SOL    HW197554  11.103   4.249   9.496 -1.0692  3.0215 -0.9861
31849SOL    HW297555  11.056   4.139   9.403  1.5791  1.3712 -0.4722
31850SOL     OW97556   9.134   1.335   6.531 -0.0716  0.4480  0.1917
31850SOL    HW197557   9.078   1.413   6.523 -0.2544  0.3269  0.2816
31850SOL    HW297558   9.210   1.365   6.580 -0.4692  0.3994  0.8476
31851SOL     OW97559   3.864   9.872   1.189 -0.0274 -0.5158 -0.4529
31851SOL    HW197560   3.864   9.954   1.239 -1.0081 -1.9086  2.0421
31851SOL    HW297561   3.777   9.867   1.150  0.9529  0.8887 -3.0412
31852SOL     OW97562   3.666   8.455   8.041 -0.2701 -0.0246 -0.3477
31852SOL    HW197563   3.661   8.538   7.993  0.2862  0.3334  0.1883
31852SOL    HW297564   3.682   8.481   8.132  0.7135 -0.7331 -0.2975
31853SOL     OW97565   6.931   2.648   1.423  0.0537 -0.4612  0.4625
31853SOL    HW197566   6.864   2.639   1.354 -0.9361  0.3774  1.2816
31853SOL    HW297567   6.882   2.644   1.505  1.3689 -2.9125  1.2333
31854SOL     OW97568   6.732   1.134   0.476  0.1583 -0.5447  0.2086
31854SOL    HW197569   6.715   1.158   0.385  1.9072 -1.4262 -0.4117
31854SOL    HW297570   6.655   1.083   0.502 -0.6502  0.2562 -0.5635
31855SOL     OW97571   8.970   4.728   3.171 -0.0559  0.1696  0.0621
31855SOL    HW197572   9.064   4.731   3.156 -0.5339 -0.4083 -4.1055
31855SOL    HW297573   8.948   4.815   3.203  1.8822  0.1861  1.5244
31856SOL     OW97574   9.708   9.636   7.968 -0.3271  0.0288  0.0282
31856SOL    HW197575   9.650   9.700   8.011 -1.8695 -0.0067 -1.8717
31856SOL    HW297576   9.769   9.690   7.918  2.5478  0.1420  3.2935
31857SOL     OW97577  10.865   4.691   0.688  0.3230 -0.3363 -0.2144
31857SOL    HW197578  10.808   4.751   0.737  0.5386  0.0126 -0.3891
31857SOL    HW297579  10.918   4.748   0.633  1.7330 -0.5444  0.8606
31858SOL     OW97580   6.998   1.419   8.400 -0.0900  0.2116  0.2076
31858SOL    HW197581   6.966   1.508   8.414  0.0349  0.1532  0.9019
31858SOL    HW297582   6.920   1.365   8.396 -0.1805  0.3831 -0.4950
31859SOL     OW97583   1.620   0.496   5.292 -0.7534  0.0042 -0.0569
31859SOL    HW197584   1.619   0.468   5.201 -0.9851 -0.1207 -0.0148
31859SOL    HW297585   1.535   0.539   5.305  0.0694  1.8868 -0.4904
31860SOL     OW97586   8.830   9.589  10.266  0.1145  0.0632  0.2121
31860SOL    HW197587   8.895   9.656  10.246  0.3707 -0.4133 -0.5895
31860SOL    HW297588   8.753   9.639  10.294 -0.2164  0.8000 -1.8277
31861SOL     OW97589   7.584   9.481   8.319 -0.0871  0.1911 -0.2656
31861SOL    HW197590   7.530   9.541   8.268 -1.2685  0.0108  0.6999
31861SOL    HW297591   7.574   9.511   8.410  1.1378 -0.0963 -0.0162
31862SOL     OW97592  10.089   5.331   1.592  0.1966 -0.0337  0.4491
31862SOL    HW197593  10.184   5.325   1.606 -0.0362 -2.4394  1.6625
31862SOL    HW297594  10.075   5.288   1.507  0.4104  3.2374 -1.3798
31863SOL     OW97595   8.467   0.520   3.360  0.0682 -0.2318 -0.0773
31863SOL    HW197596   8.532   0.568   3.411  0.2354 -0.5638  0.0268
31863SOL    HW297597   8.518   0.471   3.296 -0.0628 -0.6424  0.1269
31864SOL     OW97598   7.952  10.899   7.465 -0.0278  0.1568  0.3752
31864SOL    HW197599   7.860  10.898   7.437  0.2827 -0.4642 -0.6636
31864SOL    HW297600   7.971  10.808   7.486 -0.2315  0.5850  2.6539
31865SOL     OW97601   7.233   6.798   1.770 -0.5841 -0.0684  0.0397
31865SOL    HW197602   7.307   6.811   1.829  0.7504  2.3604 -1.9766
31865SOL    HW297603   7.266   6.739   1.702 -0.4151  1.0702 -0.8988
31866SOL     OW97604   6.087   7.223  10.117  0.3096 -0.6441  0.2951
31866SOL    HW197605   6.136   7.305  10.110 -0.5140 -0.2480 -1.1650
31866SOL    HW297606   6.147   7.164  10.163  0.2559  1.2545  3.0144
31867SOL     OW97607   1.394   4.593  10.549  0.0937  0.3125 -0.1229
31867SOL    HW197608   1.402   4.602  10.644  0.3833  0.5589 -0.1708
31867SOL    HW297609   1.302   4.569  10.535 -0.0633  0.7297  0.1842
31868SOL     OW97610   9.494   5.702   8.622 -0.0167 -0.3785 -0.2705
31868SOL    HW197611   9.579   5.695   8.664  0.0991 -2.3142 -0.7369
31868SOL    HW297612   9.508   5.760   8.547  0.9841 -1.0231 -0.5831
31869SOL     OW97613   3.747   7.355   1.468  0.3065  0.1270  0.5095
31869SOL    HW197614   3.747   7.414   1.392 -1.7842 -1.6913 -1.0273
31869SOL    HW297615   3.799   7.280   1.440 -1.8765 -1.3296  0.0950
31870SOL     OW97616   8.637   5.121  11.070 -0.2671  0.6428 -0.9032
31870SOL    HW197617   8.608   5.145  10.982  0.2089 -1.1735 -1.6197
31870SOL    HW297618   8.719   5.169  11.083  0.5880 -0.3775 -2.2175
31871SOL     OW97619   0.884   1.308   0.959  0.4467 -0.2066 -0.5155
31871SOL    HW197620   0.934   1.267   0.888  0.8554 -1.3990  0.4192
31871SOL    HW297621   0.896   1.402   0.946  3.8051 -0.4028  0.1891
31872SOL     OW97622   4.729   7.062   9.720  0.0151  0.3732  0.4367
31872SOL    HW197623   4.780   7.141   9.734  0.6929  0.4169 -1.9303
31872SOL    HW297624   4.774   6.995   9.773  0.7429  1.0782  0.7241
31873SOL     OW97625   7.783   4.735   5.864 -0.4092  0.9547 -0.7818
31873SOL    HW197626   7.770   4.651   5.908 -1.3137  2.4243  1.9864
31873SOL    HW297627   7.722   4.734   5.790  1.0066 -1.5183 -2.0449
31874SOL     OW97628   3.838   8.839   2.519 -0.2925  0.3477  0.2548
31874SOL    HW197629   3.906   8.849   2.452  1.6011  2.0406  2.2937
31874SOL    HW297630   3.757   8.862   2.474 -0.1394 -4.0056 -2.9381
31875SOL     OW97631  10.657   5.608   6.757  0.4048  0.5080  0.0472
31875SOL    HW197632  10.666   5.641   6.668  1.4597  0.1708  0.0261
31875SOL    HW297633  10.653   5.513   6.748  0.0569  0.4930  0.3275
31876SOL     OW97634   8.106   3.154  10.408  0.2112  0.4044  0.2019
31876SOL    HW197635   8.115   3.096  10.484 -2.7941  1.2795  1.3583
31876SOL    HW297636   8.033   3.116  10.358 -1.1793  2.5422  0.4756
31877SOL     OW97637   4.439  10.257   9.838  0.4566  0.2482  0.4494
31877SOL    HW197638   4.506  10.298   9.783 -1.1204  0.9507 -1.0511
31877SOL    HW297639   4.392  10.330   9.877 -0.2365 -0.1883  0.4462
31878SOL     OW97640   5.351   8.805   1.719 -0.5202  0.0685  0.1006
31878SOL    HW197641   5.406   8.765   1.787 -0.2893 -0.9671 -0.6801
31878SOL    HW297642   5.401   8.881   1.690  0.0233 -0.2760  0.1215
31879SOL     OW97643   6.821   0.531   3.833  0.2034  0.4881 -0.5411
31879SOL    HW197644   6.810   0.583   3.753 -1.4401 -0.5122 -1.0023
31879SOL    HW297645   6.888   0.578   3.883  0.6366  1.6096 -2.1056
31880SOL     OW97646   7.423   1.841   0.453 -0.3084 -0.7151 -0.1743
31880SOL    HW197647   7.352   1.810   0.397  0.4885  1.0523 -2.2896
31880SOL    HW297648   7.497   1.853   0.394 -0.0054  3.2552  0.7280
31881SOL     OW97649   9.818   6.415   2.468  0.3161  0.0906  0.7911
31881SOL    HW197650   9.729   6.445   2.455  0.9697  2.9137  2.0653
31881SOL    HW297651   9.864   6.439   2.387 -0.0545 -1.5538  0.0480
31882SOL     OW97652   9.221   4.180   1.965  0.0191 -0.0306 -0.6239
31882SOL    HW197653   9.309   4.144   1.955  0.9538  1.9875 -0.1652
31882SOL    HW297654   9.208   4.183   2.060 -1.4671 -2.2903 -0.6855
31883SOL     OW97655   3.030   4.307   3.642  0.2581 -0.2131 -0.5837
31883SOL    HW197656   3.030   4.323   3.548  0.2536 -1.1706 -0.7566
31883SOL    HW297657   3.121   4.286   3.663  0.5310  1.2635 -0.1258
31884SOL     OW97658   8.899   3.379   7.042  0.1376  0.0231 -0.2881
31884SOL    HW197659   8.865   3.313   6.982 -0.6952 -0.3669  0.5879
31884SOL    HW297660   8.909   3.457   6.988 -1.1606 -0.1498 -0.8060
31885SOL     OW97661  10.936   5.805   6.061 -0.2014 -0.3731 -0.8378
31885SOL    HW197662  10.977   5.830   5.978  0.6195  0.7721 -0.1155
31885SOL    HW297663  10.930   5.710   6.057  0.9448 -0.4322 -1.6984
31886SOL     OW97664   8.961   7.628   8.646  0.4448  0.0192  0.1039
31886SOL    HW197665   9.003   7.700   8.598 -0.1535 -0.0253 -0.5087
31886SOL    HW297666   8.890   7.599   8.588 -0.3529  0.0104  1.0531
31887SOL     OW97667   2.517   2.167   1.699  0.3853 -0.4382 -0.0217
31887SOL    HW197668   2.424   2.187   1.688  0.6613 -0.6318 -4.8170
31887SOL    HW297669   2.519   2.092   1.759 -2.4973 -0.2657  0.4009
31888SOL     OW97670   7.804   2.727   2.875  0.4284 -0.1387 -1.3092
31888SOL    HW197671   7.748   2.688   2.942  3.4500 -0.7664  1.0823
31888SOL    HW297672   7.829   2.654   2.819  3.9310 -1.4327  1.5772
31889SOL     OW97673   1.475   7.331   7.051  0.1855 -0.4478 -0.3581
31889SOL    HW197674   1.419   7.368   6.983  0.4997 -0.5296 -0.6583
31889SOL    HW297675   1.509   7.407   7.098  0.9251 -0.3416 -1.0488
31890SOL     OW97676   6.705   2.069   1.916 -0.2289 -0.5395  0.0064
31890SOL    HW197677   6.762   1.995   1.934 -0.7519 -1.0510 -0.4051
31890SOL    HW297678   6.667   2.092   2.001 -0.6824 -1.2664  0.0110
31891SOL     OW97679   0.324   6.452   0.195 -0.8471  0.1513  0.3794
31891SOL    HW197680   0.348   6.543   0.209 -4.8958  1.5230 -0.0531
31891SOL    HW297681   0.274   6.428   0.273  0.1067 -1.7434  0.4605
31892SOL     OW97682   7.468   9.819  10.377  0.6772  0.1474 -0.1484
31892SOL    HW197683   7.547   9.864  10.407  0.6876 -0.4359  0.7396
31892SOL    HW297684   7.397   9.858  10.428  0.1617  1.5704 -1.8312
31893SOL     OW97685   5.117   9.845   1.555 -0.1784 -0.6172 -0.0461
31893SOL    HW197686   5.056   9.846   1.482 -1.6403 -0.0291  1.1198
31893SOL    HW297687   5.188   9.903   1.528 -2.2294  2.2325  0.1577
31894SOL     OW97688   8.208   5.105   4.491  0.1785  0.6973  0.3860
31894SOL    HW197689   8.134   5.090   4.432  0.1530 -1.7118  0.9471
31894SOL    HW297690   8.167   5.116   4.577  0.3774  1.3757  0.3987
31895SOL     OW97691   9.069   1.222   6.287 -0.3475  0.5017  0.0751
31895SOL    HW197692   9.003   1.287   6.262 -1.8630  0.0676  2.5279
31895SOL    HW297693   9.108   1.257   6.367 -0.1944 -0.9017  0.6559
31896SOL     OW97694   7.809   9.850   6.733 -0.4866  0.7230 -0.2549
31896SOL    HW197695   7.840   9.820   6.648  0.5752 -1.4526  0.8360
31896SOL    HW297696   7.718   9.877   6.717  0.1523  1.8726 -2.3446
31897SOL     OW97697  11.057   7.153   5.147  0.5100 -0.2333  0.3437
31897SOL    HW197698  10.968   7.140   5.182  0.4159 -0.9249 -0.1221
31897SOL    HW297699  11.098   7.214   5.208 -0.1339 -0.2744  0.8325
31898SOL     OW97700   6.342   3.485   1.075  0.0225 -0.0901 -0.7476
31898SOL    HW197701   6.392   3.438   1.142 -0.4106  1.0716  0.4264
31898SOL    HW297702   6.364   3.577   1.088  0.1990  0.1543 -2.4550
31899SOL     OW97703   4.502   1.571   6.801  0.1323  0.0176 -0.1743
31899SOL    HW197704   4.410   1.575   6.774  0.4611  1.9118 -1.1759
31899SOL    HW297705   4.531   1.662   6.802  1.7905 -0.4771  0.9206
31900SOL     OW97706   2.717   8.549   7.622  0.3919 -0.0195 -0.0200
31900SOL    HW197707   2.710   8.594   7.706  0.2662 -0.9075  0.4556
31900SOL    HW297708   2.787   8.594   7.575  2.4602 -1.2779  1.6908
31901SOL     OW97709   7.133   5.431   4.254 -0.3796 -0.2878 -1.1771
31901SOL    HW197710   7.209   5.383   4.289 -1.0902 -1.3364 -1.0183
31901SOL    HW297711   7.108   5.383   4.176  0.1293  1.0459 -2.2055
31902SOL     OW97712  10.102   5.989   5.806  0.1108 -0.0067 -0.1020
31902SOL    HW197713  10.066   6.016   5.722 -2.1733  1.8686  1.3223
31902SOL    HW297714  10.156   6.063   5.834 -0.3277  0.0320  0.6823
31903SOL     OW97715   6.163  10.872   9.137  0.3574  0.1312  0.2517
31903SOL    HW197716   6.128  10.945   9.087 -0.5607  0.6117  1.5381
31903SOL    HW297717   6.246  10.904   9.173  2.3389 -1.0415 -2.8837
31904SOL     OW97718   5.407   3.318   8.488 -0.2799  0.2630  0.5480
31904SOL    HW197719   5.351   3.246   8.458  0.2169 -0.1615  0.6246
31904SOL    HW297720   5.460   3.341   8.412 -1.6823  1.7645 -0.0051
31905SOL     OW97721   0.666   0.037   9.012  0.4665 -0.4717  0.5444
31905SOL    HW197722   0.630   0.091   8.941 -2.2637 -0.4834  1.8021
31905SOL    HW297723   0.749   0.079   9.034  0.5492  0.5588 -1.4740
31906SOL     OW97724   0.276   6.755   4.538 -0.5093  0.8096  0.1468
31906SOL    HW197725   0.371   6.753   4.528 -0.4799 -2.2039  0.0201
31906SOL    HW297726   0.262   6.768   4.631 -0.0392  2.2343  0.0440
31907SOL     OW97727   2.040   4.169  10.667  0.3771  0.4594 -0.2465
31907SOL    HW197728   1.989   4.102  10.622  2.0781 -0.5590 -0.7567
31907SOL    HW297729   1.995   4.251  10.647  0.3119 -0.1023 -2.7501
31908SOL     OW97730  10.848   5.269   3.334 -1.0689 -0.0070  0.3518
31908SOL    HW197731  10.929   5.305   3.370 -0.7008 -1.6172  1.2023
31908SOL    HW297732  10.820   5.334   3.269  0.9999  0.4888 -0.1223
31909SOL     OW97733   0.441   0.015   3.763  0.4204 -0.0431  0.3033
31909SOL    HW197734   0.485   0.023   3.848  0.0947 -3.3123  0.8950
31909SOL    HW297735   0.434   0.105   3.732  1.3942  1.2091  3.2971
31910SOL     OW97736   0.381   9.581   4.785  0.1225 -0.0176 -0.0153
31910SOL    HW197737   0.418   9.496   4.811  2.7791  0.8414 -0.6527
31910SOL    HW297738   0.323   9.605   4.857  2.3257 -0.6111  2.0748
31911SOL     OW97739   7.584   6.731   5.581  0.3088  0.1023  0.0887
31911SOL    HW197740   7.631   6.741   5.498 -2.3083 -4.0456 -2.2929
31911SOL    HW297741   7.651   6.704   5.643  1.8387 -0.8009 -1.8310
31912SOL     OW97742   6.350   8.129   9.460  0.1224 -0.5346 -0.8249
31912SOL    HW197743   6.436   8.120   9.500 -0.1226  1.2075  0.1869
31912SOL    HW297744   6.319   8.039   9.447  1.4811 -1.1545  0.1012
31913SOL     OW97745   9.316   5.757   0.933 -0.5844 -0.8866  0.2157
31913SOL    HW197746   9.329   5.761   1.028  0.3624  0.8901  0.0462
31913SOL    HW297747   9.243   5.818   0.917  1.2784  1.3111 -0.4621
31914SOL     OW97748   8.364   0.707   2.609 -0.1583  0.0272  0.2417
31914SOL    HW197749   8.292   0.680   2.667  0.3163 -1.6347  0.1013
31914SOL    HW297750   8.390   0.792   2.643 -1.7057  0.3376  0.7517
31915SOL     OW97751   2.815   3.096   9.210  0.1554 -0.3645  0.1237
31915SOL    HW197752   2.849   3.152   9.280  1.8725 -1.7755  0.4803
31915SOL    HW297753   2.770   3.025   9.256 -0.7426 -0.0701 -0.2842
31916SOL     OW97754   1.225   5.069   2.744  0.2728 -0.4335  0.2644
31916SOL    HW197755   1.174   5.145   2.769 -0.2941 -1.0881  1.1509
31916SOL    HW297756   1.314   5.088   2.774  0.1675 -0.0600  0.3403
31917SOL     OW97757   3.835   6.925   6.756 -0.1651  0.0677  0.2518
31917SOL    HW197758   3.801   6.991   6.816 -0.8899 -0.5995  0.5950
31917SOL    HW297759   3.794   6.945   6.672  1.7812  1.7443 -0.3769
31918SOL     OW97760  10.257   2.619   3.629 -0.4733  0.3473  0.3331
31918SOL    HW197761  10.316   2.568   3.573 -0.0002 -0.9501  1.9217
31918SOL    HW297762  10.175   2.570   3.629 -0.2546 -0.0470  1.2736
31919SOL     OW97763   4.703   6.826   5.053 -0.6140  0.3608  0.0198
31919SOL    HW197764   4.688   6.758   5.119 -1.9590  0.4954 -0.1350
31919SOL    HW297765   4.750   6.894   5.100  0.4131 -0.4858  0.2739
31920SOL     OW97766  10.438   8.468   9.480 -0.5482 -0.9256 -0.2510
31920SOL    HW197767  10.459   8.399   9.543  0.5577  0.0524  0.4937
31920SOL    HW297768  10.451   8.426   9.394 -1.0554 -1.9720  0.1635
31921SOL     OW97769  10.019   7.080   4.481  0.1858  0.0402  0.1468
31921SOL    HW197770  10.060   7.163   4.456  0.1768  0.1590  0.5235
31921SOL    HW297771  10.078   7.013   4.445  0.4470  0.2090  0.2565
31922SOL     OW97772   1.227   7.968   8.578  0.3659 -0.4284 -0.2742
31922SOL    HW197773   1.210   7.960   8.672  1.2003 -1.5911 -0.1964
31922SOL    HW297774   1.323   7.975   8.572  0.4343 -1.6678 -1.0889
31923SOL     OW97775   9.570   2.732   9.488  0.2404  0.6393 -0.1982
31923SOL    HW197776   9.519   2.757   9.564 -1.6359 -2.4611 -0.2607
31923SOL    HW297777   9.506   2.722   9.418  1.3070 -0.6390 -1.0463
31924SOL     OW97778   6.039   8.802   8.718  0.2675 -0.1289  0.1488
31924SOL    HW197779   5.971   8.790   8.784  0.8760 -0.4202  0.7344
31924SOL    HW297780   6.121   8.804   8.768  0.8426 -1.5162 -0.6628
31925SOL     OW97781   0.120   6.350   8.346  0.3644 -0.1363 -0.0628
31925SOL    HW197782   0.181   6.424   8.357  1.0314 -0.5984 -0.5865
31925SOL    HW297783   0.076   6.343   8.430  0.8429  0.3810  0.2385
31926SOL     OW97784   1.391   7.153   2.953 -1.0286  0.0034 -0.3430
31926SOL    HW197785   1.458   7.166   2.886  0.1849  0.3113  0.8819
31926SOL    HW297786   1.401   7.228   3.012 -1.4318 -0.7315  0.6860
31927SOL     OW97787   0.177   2.855  10.986 -0.0977  0.7894  0.0108
31927SOL    HW197788   0.195   2.781  11.043  0.5388  0.1276 -1.0282
31927SOL    HW297789   0.084   2.875  11.000  0.3061  1.3999  2.1248
31928SOL     OW97790   0.289   5.693  10.720 -0.3750 -0.0868 -0.0845
31928SOL    HW197791   0.273   5.713  10.812 -0.6668 -0.5140 -0.0366
31928SOL    HW297792   0.257   5.603  10.709  2.4730 -1.2343  0.1411
31929SOL     OW97793   2.664   2.669   8.136 -0.5933  0.9790  0.5765
31929SOL    HW197794   2.649   2.667   8.231 -0.1259 -3.5908  0.7618
31929SOL    HW297795   2.594   2.615   8.100  1.1789 -0.2092 -1.2656
31930SOL     OW97796   8.889   8.298   4.584  0.9548 -0.2297  0.1439
31930SOL    HW197797   8.955   8.248   4.536 -0.7746  0.4477 -3.2794
31930SOL    HW297798   8.818   8.235   4.600  0.2389  0.2353 -1.0543
31931SOL     OW97799  10.627   0.558   4.332 -0.5658  0.4786  0.3289
31931SOL    HW197800  10.632   0.565   4.427  0.5319 -0.8255  0.3990
31931SOL    HW297801  10.547   0.509   4.316 -0.6401  0.5132  0.5897
31932SOL     OW97802   4.183   4.025   6.370 -0.1253 -0.4261 -0.3482
31932SOL    HW197803   4.267   4.021   6.414 -0.1218 -0.0903 -0.3244
31932SOL    HW297804   4.190   3.960   6.299  1.0693  1.3204 -1.9166
31933SOL     OW97805   5.175   1.230   8.803 -0.3699 -0.3348  0.1832
31933SOL    HW197806   5.113   1.222   8.730 -1.5946  0.4789  1.0865
31933SOL    HW297807   5.255   1.189   8.771 -1.2145 -0.9778 -1.2171
31934SOL     OW97808  10.167   0.527   5.641 -0.5834 -0.2631  0.1651
31934SOL    HW197809  10.166   0.560   5.552  0.8985  0.6459  0.4461
31934SOL    HW297810  10.226   0.451   5.638 -2.1864 -1.5510 -0.0201
31935SOL     OW97811  10.291   8.585   1.081 -0.4745 -0.5029  0.0858
31935SOL    HW197812  10.325   8.518   1.140  1.3896 -1.1607 -1.6530
31935SOL    HW297813  10.293   8.545   0.994 -0.3160  1.4495 -0.8645
31936SOL     OW97814  11.066   5.322   5.288 -0.4060  0.1827  0.1327
31936SOL    HW197815  11.157   5.303   5.313 -0.3824  0.5946  0.3680
31936SOL    HW297816  11.032   5.375   5.361 -0.8431  0.0044  0.0600
31937SOL     OW97817   9.394   0.975  11.055  0.3278  0.2398  0.0528
31937SOL    HW197818   9.429   0.938  10.974  0.8985  1.1953 -0.1537
31937SOL    HW297819   9.457   1.042  11.080 -0.4917  0.8257  0.6081
31938SOL     OW97820  10.653   4.709   1.226  0.1344  0.3407 -0.3271
31938SOL    HW197821  10.675   4.658   1.304 -1.1972  0.9815  0.5036
31938SOL    HW297822  10.649   4.645   1.156 -3.1936 -1.1119  0.9862
31939SOL     OW97823   5.644   0.834   8.657  0.0885  0.2846 -0.0470
31939SOL    HW197824   5.690   0.833   8.741  0.5797 -0.8467 -0.3117
31939SOL    HW297825   5.689   0.768   8.604 -1.3246 -0.2556 -0.6124
31940SOL     OW97826   8.100   8.098   3.191 -0.4772  0.3337 -0.1393
31940SOL    HW197827   8.166   8.159   3.158 -1.3393 -0.4198 -3.5552
31940SOL    HW297828   8.032   8.097   3.124 -2.2204 -1.6854  1.5385
31941SOL     OW97829   1.622   5.064   4.045  0.3025  0.0687 -0.3536
31941SOL    HW197830   1.711   5.031   4.041  0.5661  0.6546  0.5156
31941SOL    HW297831   1.628   5.155   4.018  0.1722  0.4512  0.8389
31942SOL     OW97832   8.476   0.770   8.912 -0.3696 -0.3366  0.0327
31942SOL    HW197833   8.441   0.831   8.847  0.0512  0.6473  0.7009
31942SOL    HW297834   8.435   0.796   8.994  0.7915 -0.1079  0.5620
31943SOL     OW97835   6.800   7.342   7.350  0.4378  0.2862  0.6027
31943SOL    HW197836   6.786   7.420   7.296  1.4575  2.2271  2.9318
31943SOL    HW297837   6.807   7.270   7.287 -0.4093  2.0639 -1.6695
31944SOL     OW97838   0.514   3.054   5.294  0.3338  0.1865 -0.1802
31944SOL    HW197839   0.455   3.129   5.285 -1.8571 -1.4116  0.1550
31944SOL    HW297840   0.507   3.029   5.386  0.8446 -0.6219 -0.3518
31945SOL     OW97841   9.909  10.794   7.208 -0.2493 -0.2508  0.3477
31945SOL    HW197842   9.900  10.724   7.143 -1.3711 -0.0845  0.3094
31945SOL    HW297843   9.836  10.853   7.190 -0.1584  0.1726  1.3123
31946SOL     OW97844   9.197   6.919   6.607  0.5606 -0.6839  0.4804
31946SOL    HW197845   9.195   6.982   6.535 -0.7386 -2.2012 -0.8970
31946SOL    HW297846   9.290   6.903   6.622  0.8747 -0.7224 -1.2559
31947SOL     OW97847   2.197   9.693  10.627 -0.4395  0.5979  0.2300
31947SOL    HW197848   2.111   9.666  10.595 -0.1773  1.8903 -1.7116
31947SOL    HW297849   2.179   9.766  10.686 -0.6062  2.3289 -1.8697
31948SOL     OW97850   4.088   1.056   8.205  0.1934  0.4546 -0.2650
31948SOL    HW197851   4.134   0.972   8.197 -1.7639 -0.6610 -0.4818
31948SOL    HW297852   3.995   1.034   8.193 -0.3381  2.7521 -0.9848
31949SOL     OW97853   9.881   0.649   2.180 -0.2450  0.0809 -0.0045
31949SOL    HW197854   9.813   0.688   2.124  0.4228  0.8478 -0.2854
31949SOL    HW297855   9.832   0.591   2.239 -1.0053 -0.4790 -1.1423
31950SOL     OW97856   9.887   9.330   4.341 -0.0926  0.1082 -0.1707
31950SOL    HW197857   9.944   9.263   4.303 -0.9228 -0.6513 -0.1027
31950SOL    HW297858   9.934   9.412   4.328  1.1662 -0.5392  0.1761
31951SOL     OW97859   6.979   7.574   1.136 -0.5410  0.1814  0.0302
31951SOL    HW197860   6.929   7.596   1.057  0.5917  2.6333 -0.1206
31951SOL    HW297861   7.006   7.483   1.124 -0.8535  0.3277 -2.1580
31952SOL     OW97862   5.026   3.214   8.465 -0.1336  0.1392  0.5486
31952SOL    HW197863   5.113   3.175   8.472  0.8080  1.6367 -1.4847
31952SOL    HW297864   4.970   3.142   8.437  1.4028 -0.0663 -2.4071
31953SOL     OW97865   8.157   1.213   8.476  0.1859  0.7039 -0.3854
31953SOL    HW197866   8.069   1.183   8.498  0.9142 -1.6599 -0.4399
31953SOL    HW297867   8.174   1.284   8.538 -0.8271 -0.4602  1.3123
31954SOL     OW97868   1.066   9.550   8.549 -0.1395  0.1257 -0.4433
31954SOL    HW197869   1.026   9.539   8.463  1.1707  1.0169 -1.1945
31954SOL    HW297870   1.000   9.599   8.600 -1.0889 -0.7651 -0.7859
31955SOL     OW97871   5.983   0.306   0.702 -0.1546 -0.6057 -0.4802
31955SOL    HW197872   6.025   0.384   0.665  4.4163 -1.9300  1.2137
31955SOL    HW297873   5.985   0.243   0.630 -1.0531 -0.1238 -0.9510
31956SOL     OW97874   4.597   4.572   1.712 -0.0537  0.0832  0.4542
31956SOL    HW197875   4.686   4.545   1.690  0.2070  1.8154 -0.8543
31956SOL    HW297876   4.564   4.615   1.632 -1.1762  1.6034  1.6651
31957SOL     OW97877   8.943   1.214   4.169  0.1674  0.4514 -0.5557
31957SOL    HW197878   8.882   1.253   4.232 -2.0121 -0.0219 -2.2344
31957SOL    HW297879   8.979   1.138   4.214 -1.2059  0.2189  0.2174
31958SOL     OW97880   0.290   0.961   1.580 -0.2235  0.2597 -0.2031
31958SOL    HW197881   0.219   0.968   1.515 -1.1672  1.0306  0.8611
31958SOL    HW297882   0.340   1.042   1.569  1.7218 -1.0860 -2.2356
31959SOL     OW97883   8.559   9.121   3.420  0.3489 -0.2479 -0.0381
31959SOL    HW197884   8.499   9.181   3.377 -1.5360 -0.5817  1.9862
31959SOL    HW297885   8.545   9.136   3.514  1.0497 -2.6514  0.5062
31960SOL     OW97886   5.841   7.157  10.539 -0.0920 -0.3426 -0.4933
31960SOL    HW197887   5.845   7.242  10.495 -3.4730  1.1587  1.6636
31960SOL    HW297888   5.783   7.104  10.485  0.6917 -0.7053 -0.9854
31961SOL     OW97889   9.813   7.107   5.228 -0.0020  0.3188 -0.0102
31961SOL    HW197890   9.773   7.080   5.310  1.0909  0.0317  0.4494
31961SOL    HW297891   9.771   7.052   5.161  0.8197 -1.1742  0.6714
31962SOL     OW97892   1.084   4.504   7.650 -0.6467  0.0891 -0.0542
31962SOL    HW197893   1.128   4.430   7.692  0.0478  0.1887 -0.5850
31962SOL    HW297894   1.035   4.546   7.721 -0.1766 -0.2403  0.4777
31963SOL     OW97895  11.063   2.245   1.895 -0.3381  0.5381 -0.1541
31963SOL    HW197896  11.147   2.199   1.896 -0.9925 -0.7006  0.3898
31963SOL    HW297897  11.043   2.258   1.803  0.9242  1.7911 -0.2872
31964SOL     OW97898   5.227   0.008   4.039  0.6766 -1.1440 -0.1024
31964SOL    HW197899   5.276   0.089   4.053  2.5209 -2.3598  1.0651
31964SOL    HW297900   5.164   0.029   3.970  1.5211  1.0800 -0.2833
31965SOL     OW97901  10.659   5.347   7.124 -0.4754 -0.0639 -0.5840
31965SOL    HW197902  10.613   5.269   7.157 -2.0964  1.1592  0.1904
31965SOL    HW297903  10.732   5.312   7.074 -0.0888 -2.0668  1.2383
31966SOL     OW97904   7.107   9.485   7.941 -0.5558  0.9476  0.0142
31966SOL    HW197905   7.128   9.483   8.034 -1.4041  0.7836  0.2139
31966SOL    HW297906   7.077   9.574   7.924  0.9690  1.4056 -0.4385
31967SOL     OW97907   1.603  10.667   3.355  0.3926 -0.3532  0.2583
31967SOL    HW197908   1.693  10.696   3.363  0.1301  0.8899 -0.7727
31967SOL    HW297909   1.602  10.579   3.391  1.4838  0.5093  2.5732
31968SOL     OW97910   6.933   1.000   1.525  0.4032  0.2874 -0.5960
31968SOL    HW197911   6.984   0.954   1.457 -0.7559 -0.6006 -0.9010
31968SOL    HW297912   6.895   1.075   1.480  1.6861  1.1415 -0.2864
31969SOL     OW97913   6.759   4.504   7.532  0.7798  0.1002 -0.2453
31969SOL    HW197914   6.756   4.412   7.506 -1.5917  0.2589 -0.7106
31969SOL    HW297915   6.793   4.549   7.455  1.6754 -0.3111 -0.1148
31970SOL     OW97916   7.795   1.722   8.607 -0.4235 -0.3717 -0.1995
31970SOL    HW197917   7.847   1.801   8.591 -1.8394  0.5362 -0.4761
31970SOL    HW297918   7.859   1.657   8.637  0.5674  1.3349  1.6137
31971SOL     OW97919   9.731   4.303   4.311 -0.0217 -0.3685  0.1290
31971SOL    HW197920   9.730   4.354   4.230  3.3955  0.2538  0.3153
31971SOL    HW297921   9.701   4.216   4.285 -1.7961  0.5498 -1.1105
31972SOL     OW97922   4.231   2.463  10.542 -0.1576 -0.0112  0.2436
31972SOL    HW197923   4.263   2.400  10.478 -2.0304 -0.4924 -0.2733
31972SOL    HW297924   4.297   2.533  10.541  0.7613 -0.8485 -0.8761
31973SOL     OW97925   9.662   7.126   6.101  0.2608 -0.4617 -0.0302
31973SOL    HW197926   9.716   7.104   6.025  1.6076  0.8331  0.5023
31973SOL    HW297927   9.572   7.126   6.067  0.7214 -1.0938 -1.3246
31974SOL     OW97928   1.197   2.263   3.817  0.1841 -0.0056  0.3682
31974SOL    HW197929   1.219   2.316   3.740  1.3755 -0.5809  0.2814
31974SOL    HW297930   1.266   2.283   3.880 -0.7316  0.3909  1.2706
31975SOL     OW97931   3.093   5.888   4.980  0.1292  0.0083 -0.4822
31975SOL    HW197932   3.120   5.880   4.888 -0.1127  0.7917 -0.6267
31975SOL    HW297933   3.045   5.807   4.997 -0.7718  0.3312 -1.3772
31976SOL     OW97934   7.667   5.509  10.639  0.1302  0.0286  0.4666
31976SOL    HW197935   7.642   5.598  10.615  0.4207  0.1956  0.7683
31976SOL    HW297936   7.669   5.462  10.556 -1.3044 -0.0389  0.4504
31977SOL     OW97937   4.103   4.517   8.189  0.2771 -0.3551 -0.3947
31977SOL    HW197938   4.049   4.491   8.263  0.4998  0.2267 -0.0206
31977SOL    HW297939   4.062   4.475   8.113 -1.5285  1.1705 -0.3328
31978SOL     OW97940   0.319   4.382   8.755 -0.2285 -0.5593 -0.4253
31978SOL    HW197941   0.297   4.416   8.841 -0.8276 -0.3267 -0.6650
31978SOL    HW297942   0.240   4.395   8.703  0.5597  0.5686 -1.3965
31979SOL     OW97943   1.915   6.854   3.422  0.2149 -0.4302 -0.6182
31979SOL    HW197944   1.935   6.802   3.499 -0.0064 -1.9421 -1.5353
31979SOL    HW297945   1.882   6.790   3.358  1.1258  0.6384 -2.2317
31980SOL     OW97946   8.052   2.178   5.100  0.7966  0.3222  0.2724
31980SOL    HW197947   8.139   2.203   5.130  0.9013 -1.2537  1.3813
31980SOL    HW297948   8.026   2.249   5.040  3.0898  0.4814 -0.6288
31981SOL     OW97949   4.911   2.907   6.146 -0.1799  0.5989  0.3103
31981SOL    HW197950   4.820   2.885   6.164 -0.3266  0.7503 -0.2387
31981SOL    HW297951   4.930   2.981   6.203 -0.2224  0.2025  0.8475
31982SOL     OW97952   0.133   4.639   0.091  0.1478 -0.3186 -0.1872
31982SOL    HW197953   0.065   4.690   0.046 -1.1757 -1.1684  0.7596
31982SOL    HW297954   0.133   4.554   0.048  0.8154 -0.2306 -0.3627
31983SOL     OW97955   4.416   9.893   7.441  0.6966  0.1277  0.1529
31983SOL    HW197956   4.477   9.956   7.403 -0.6368  0.7181 -1.1015
31983SOL    HW297957   4.425   9.905   7.536  1.1695  1.5248 -0.0508
31984SOL     OW97958   9.051   8.283   1.948  0.0497 -0.2837  0.1579
31984SOL    HW197959   9.084   8.339   1.878 -3.0680  1.5741 -0.0303
31984SOL    HW297960   8.999   8.216   1.902  0.3804 -0.8277  0.5743
31985SOL     OW97961   5.106   3.299   5.860 -0.2787  0.8403 -0.1069
31985SOL    HW197962   5.139   3.270   5.945 -3.2940  1.5756  1.4441
31985SOL    HW297963   5.071   3.219   5.820  0.2492  0.6708 -0.2427
31986SOL     OW97964   5.990   3.284   8.058 -0.1147  0.3553  0.4726
31986SOL    HW197965   6.028   3.199   8.037 -0.6100  0.4590 -0.9294
31986SOL    HW297966   5.926   3.266   8.127 -0.6766 -0.5254 -0.2619
31987SOL     OW97967   5.799   2.673   6.027 -0.2785  0.2265  0.2670
31987SOL    HW197968   5.758   2.679   6.113  2.5226  0.4217  1.7080
31987SOL    HW297969   5.828   2.582   6.021 -1.7376 -0.1829 -1.1725
31988SOL     OW97970   8.560   7.179   8.223  0.4720  0.2101  0.0249
31988SOL    HW197971   8.515   7.107   8.178  1.2907 -0.1242 -0.2650
31988SOL    HW297972   8.523   7.177   8.312 -2.2678  1.8305 -0.9717
31989SOL     OW97973   0.855   0.070   0.702 -0.6146 -0.2457 -0.4083
31989SOL    HW197974   0.935   0.116   0.679  0.5771 -1.2464  1.4463
31989SOL    HW297975   0.799   0.136   0.744  0.9366 -0.3224  1.9383
31990SOL     OW97976   6.855   7.904   1.795 -0.3434 -0.4070 -0.8110
31990SOL    HW197977   6.884   7.864   1.713 -0.1456  1.3650 -1.6509
31990SOL    HW297978   6.804   7.980   1.768 -3.3829 -1.7725  0.6896
31991SOL     OW97979   8.522   1.410   5.828  0.0686  0.3960 -0.1301
31991SOL    HW197980   8.446   1.388   5.881  0.7339 -0.0974  0.6496
31991SOL    HW297981   8.537   1.331   5.775  1.6119 -0.5941  1.6529
31992SOL     OW97982   7.109   7.247   8.873 -0.5486  0.4683  0.4274
31992SOL    HW197983   7.185   7.193   8.893 -1.0253 -1.1571 -1.8039
31992SOL    HW297984   7.145   7.335   8.863  0.4738  0.3778  2.6387
31993SOL     OW97985   4.793   7.571   5.306 -0.2781  0.6825 -0.1720
31993SOL    HW197986   4.741   7.610   5.376 -1.3373  1.3429 -1.2895
31993SOL    HW297987   4.792   7.477   5.325  0.9690  0.9949  1.6722
31994SOL     OW97988   2.292   1.387  10.618 -0.3922  0.1794  0.2864
31994SOL    HW197989   2.252   1.471  10.640 -1.6205  0.5480 -2.8684
31994SOL    HW297990   2.363   1.408  10.558 -1.3021 -1.0380 -1.2930
31995SOL     OW97991   0.910   1.954   9.298 -0.1790  0.0453  0.4828
31995SOL    HW197992   0.900   2.015   9.224  2.1420  1.9517  1.6084
31995SOL    HW297993   0.902   2.009   9.376 -1.3009 -1.7079  1.6620
31996SOL     OW97994  10.112   0.489   1.361  0.4087 -0.1147  0.0870
31996SOL    HW197995  10.041   0.506   1.299  0.4085  1.7668  0.5492
31996SOL    HW297996  10.111   0.394   1.373 -2.5220 -0.1091  0.6592
31997SOL     OW97997   9.877   7.576   8.194 -0.2041 -0.2575 -0.3818
31997SOL    HW197998   9.862   7.630   8.271  0.7808 -0.4930 -0.0078
31997SOL    HW297999   9.803   7.515   8.192 -0.0816 -0.4491  0.5624
31998SOL     OW98000   2.507  10.154   7.684  0.6025  0.1180 -0.2618
31998SOL    HW198001   2.591  10.118   7.711  0.2740 -0.7313 -0.3530
31998SOL    HW298002   2.452  10.148   7.762 -0.0915 -1.5647 -0.8373
31999SOL     OW98003   8.349   8.095   0.275 -0.9056 -0.0237 -0.7695
31999SOL    HW198004   8.353   8.016   0.329 -2.0109  0.3126 -0.1783
31999SOL    HW298005   8.256   8.115   0.268 -0.6741  0.8774 -1.4408
32000SOL     OW98006   0.765   1.946  10.529  0.0875  0.1356 -0.1392
32000SOL    HW198007   0.837   1.932  10.590 -2.2135  0.1933  2.8316
32000SOL    HW298008   0.690   1.970  10.584 -2.1542  0.4795 -3.0362
32001SOL     OW98009   3.712   6.614   7.324 -0.1239  0.0938 -0.0297
32001SOL    HW198010   3.636   6.569   7.287 -0.3324  0.5798 -0.1948
32001SOL    HW298011   3.676   6.693   7.365  0.2823  0.2905 -0.0493
32002SOL     OW98012   4.373   3.024   2.699  0.8757 -0.2106  0.9795
32002SOL    HW198013   4.422   3.007   2.780  2.9474  2.9856  0.5992
32002SOL    HW298014   4.419   3.098   2.659 -3.1286  1.7295 -0.5292
32003SOL     OW98015   9.966   7.561   3.627  0.4078  0.2211  0.0172
32003SOL    HW198016   9.915   7.567   3.545 -0.4865  1.1227  0.6120
32003SOL    HW298017   9.991   7.469   3.633  2.1215  0.4501 -2.2182
32004SOL     OW98018   2.852  10.800   1.260 -0.3134  0.4314  0.1971
32004SOL    HW198019   2.786  10.732   1.272  0.2013  0.1233  1.4640
32004SOL    HW298020   2.833  10.837   1.174  0.2216 -2.1931 -1.1429
32005SOL     OW98021   5.609   2.540   5.041  0.1806 -0.4103 -1.2926
32005SOL    HW198022   5.553   2.594   5.096 -0.0785  0.0265 -1.9619
32005SOL    HW298023   5.592   2.571   4.952  0.1831 -1.4675 -1.6727
32006SOL     OW98024   2.251   4.450   5.600 -0.1145  0.1373  0.5615
32006SOL    HW198025   2.230   4.407   5.517  1.3498  0.3759  0.0217
32006SOL    HW298026   2.298   4.383   5.650 -0.0591  0.3220  0.7562
32007SOL     OW98027   3.389   2.733  11.050  0.0329  0.4082 -0.1506
32007SOL    HW198028   3.466   2.780  11.018 -0.6556 -0.0572 -2.7619
32007SOL    HW298029   3.353   2.790  11.118  3.6396 -0.2393  2.5676
32008SOL     OW98030  10.774   9.317   1.476 -0.3996  0.0629  0.1852
32008SOL    HW198031  10.703   9.290   1.534 -1.2508 -0.6064 -1.1433
32008SOL    HW298032  10.841   9.249   1.487 -2.0692 -2.1747 -2.2965
32009SOL     OW98033   0.401  10.680   4.963 -0.1349  0.3403 -0.6684
32009SOL    HW198034   0.457  10.660   5.038 -0.1393  3.3847  0.2943
32009SOL    HW298035   0.331  10.615   4.968  1.5818 -1.6160 -0.0756
32010SOL     OW98036   4.465   5.282   6.599  0.2780  0.1205 -0.5154
32010SOL    HW198037   4.505   5.285   6.512 -1.3207 -1.7265 -1.3875
32010SOL    HW298038   4.498   5.201   6.638  0.0731  0.3427  0.1329
32011SOL     OW98039   6.458   1.354   6.767 -0.3514  1.1524 -0.2514
32011SOL    HW198040   6.541   1.311   6.786 -0.0326  1.9988  0.3183
32011SOL    HW298041   6.400   1.283   6.737  0.5103  0.5301 -0.4669
32012SOL     OW98042   4.849   5.080   1.710  0.2172  0.2801 -0.0112
32012SOL    HW198043   4.877   5.141   1.778 -1.2672  0.0329  0.8454
32012SOL    HW298044   4.772   5.120   1.671 -1.7666 -1.7023  1.6324
32013SOL     OW98045   8.416   9.952   1.762  0.3402  0.0406  0.1725
32013SOL    HW198046   8.389   9.981   1.849 -2.7683  2.3594 -1.3836
32013SOL    HW298047   8.395   9.859   1.760  1.0664 -0.2144  2.0509
32014SOL     OW98048   5.327   2.231   6.253 -0.3008  0.2166 -0.1834
32014SOL    HW198049   5.336   2.274   6.168  0.7315  1.7613  0.6614
32014SOL    HW298050   5.250   2.271   6.293 -0.0038  0.4801  0.1372
32015SOL     OW98051   9.101   1.970   5.847  0.3237  0.0929 -0.1103
32015SOL    HW198052   9.015   1.992   5.812  0.1816  0.9473  0.7605
32015SOL    HW298053   9.086   1.889   5.896  0.1638 -0.1185 -0.4942
32016SOL     OW98054   1.927   8.223   0.807 -0.0663 -0.3980  0.6759
32016SOL    HW198055   1.996   8.227   0.873  0.0410 -2.0049  0.6958
32016SOL    HW298056   1.888   8.136   0.817  0.4057 -0.9767 -1.8038
32017SOL     OW98057   8.795   0.368   9.889  0.7062  0.4799 -0.5028
32017SOL    HW198058   8.852   0.381   9.965  1.4076 -0.4503 -0.8388
32017SOL    HW298059   8.709   0.348   9.926  0.2240  3.1646  0.0189
32018SOL     OW98060   6.945   1.347   3.278  0.1019 -0.3163  0.1230
32018SOL    HW198061   7.030   1.380   3.307 -0.8518  2.8631 -0.2120
32018SOL    HW298062   6.901   1.321   3.359  0.5315  0.4218  0.6115
32019SOL     OW98063   5.417   1.981   6.854  0.1218  0.6138 -0.1760
32019SOL    HW198064   5.411   1.928   6.775  0.6249 -0.4442  0.4677
32019SOL    HW298065   5.355   2.052   6.840 -1.8665 -1.0780 -0.3728
32020SOL     OW98066   2.927   5.530   0.910 -0.1458 -0.4220 -0.7526
32020SOL    HW198067   2.909   5.448   0.957  1.2308 -0.7662 -0.7634
32020SOL    HW298068   2.887   5.598   0.964 -0.5475 -1.0298 -0.2743
32021SOL     OW98069   2.991   5.619   9.486  0.0185  0.2005 -0.1275
32021SOL    HW198070   3.026   5.614   9.574  2.5067  1.3664 -0.9597
32021SOL    HW298071   2.995   5.712   9.463 -0.1544 -0.1224 -1.6001
32022SOL     OW98072   8.388   3.155   5.475  0.0630 -0.0065  0.1919
32022SOL    HW198073   8.328   3.090   5.439 -2.1531 -0.4054  4.0223
32022SOL    HW298074   8.335   3.235   5.481  0.9230  0.5320  0.7761
32023SOL     OW98075  10.954   4.419   2.302  0.0199  0.3741 -0.2425
32023SOL    HW198076  10.922   4.508   2.286  1.4570  0.7746 -1.0762
32023SOL    HW298077  11.049   4.427   2.296  0.2436 -0.9652  1.0792
32024SOL     OW98078   5.234   6.290   5.335  0.1403  0.7370 -0.6099
32024SOL    HW198079   5.181   6.349   5.282  0.7701  1.5133 -0.3981
32024SOL    HW298080   5.193   6.292   5.421  1.4446  2.6749  0.0335
32025SOL     OW98081   6.510   8.237   4.472  0.7400  0.1931 -0.1142
32025SOL    HW198082   6.477   8.161   4.425 -0.7844 -1.3678  3.1612
32025SOL    HW298083   6.597   8.210   4.503  0.3887 -0.0702  0.6616
32026SOL     OW98084   5.372   8.968   8.804 -0.5831  0.3549  0.0634
32026SOL    HW198085   5.421   8.899   8.848 -0.4092  1.6944  2.0798
32026SOL    HW298086   5.299   8.923   8.762  1.1183 -1.3922 -1.1815
32027SOL     OW98087  10.916   6.525   8.434  0.5513 -0.1716 -0.1976
32027SOL    HW198088  10.984   6.467   8.469 -0.0056 -1.2137 -0.7855
32027SOL    HW298089  10.902   6.493   8.345 -0.3105  0.3986 -0.2741
32028SOL     OW98090   4.903   8.285  10.802 -0.3902 -0.0003  0.6136
32028SOL    HW198091   4.812   8.300  10.828 -0.2896  1.0558  0.4134
32028SOL    HW298092   4.951   8.360  10.839  0.9041 -1.9135  3.1245
32029SOL     OW98093   5.431   4.448   0.041 -0.1415 -0.2038  0.2582
32029SOL    HW198094   5.398   4.376  -0.012  0.9473 -0.2623 -0.3622
32029SOL    HW298095   5.421   4.418   0.132 -2.4131  0.0678  0.1575
32030SOL     OW98096   4.042   9.493   9.287 -0.1903 -0.4224  0.0053
32030SOL    HW198097   3.991   9.430   9.339  0.4576  0.4473  1.7847
32030SOL    HW298098   4.073   9.557   9.351  1.9335 -0.1229 -1.2391
32031SOL     OW98099   6.076   4.842   4.084  0.1337 -0.7063  0.5673
32031SOL    HW198100   6.108   4.756   4.055  0.3674 -0.0921 -1.0759
32031SOL    HW298101   6.153   4.898   4.084 -0.1750 -0.2735  0.8206
32032SOL     OW98102   3.569   2.345   5.494 -0.1028  0.2190  0.6728
32032SOL    HW198103   3.542   2.257   5.523 -0.9985 -0.3892 -1.7642
32032SOL    HW298104   3.648   2.330   5.442  1.2510  1.2364  2.3013
32033SOL     OW98105   9.583   0.568   7.454  0.2483 -0.0948 -0.1049
32033SOL    HW198106   9.636   0.571   7.374  3.3680  0.3141  1.8217
32033SOL    HW298107   9.532   0.649   7.452  0.2932 -0.0718 -1.6212
32034SOL     OW98108   9.306   7.063   4.222 -0.4826  0.3293 -0.7701
32034SOL    HW198109   9.299   7.127   4.151 -0.7199 -0.2853 -1.3160
32034SOL    HW298110   9.215   7.049   4.251 -0.5192 -0.2906 -1.1520
32035SOL     OW98111   6.561   3.379   8.623  0.0942  0.0839 -0.2981
32035SOL    HW198112   6.497   3.308   8.627  0.3242 -0.1473 -0.6104
32035SOL    HW298113   6.538   3.427   8.543  1.0886 -0.7689 -1.1356
32036SOL     OW98114   0.265   2.625   8.939 -0.1452  0.8359  0.0389
32036SOL    HW198115   0.256   2.687   8.866  3.0508 -1.7261 -2.9055
32036SOL    HW298116   0.195   2.562   8.926 -0.9451  1.5828  0.6147
32037SOL     OW98117   6.497   7.073   5.534 -0.0550 -0.3096  0.1128
32037SOL    HW198118   6.408   7.105   5.519  0.0872 -0.2235 -0.6076
32037SOL    HW298119   6.517   7.099   5.624  0.1976  2.0530 -0.5560
32038SOL     OW98120   4.529   2.329   3.406  0.1995  0.8609 -0.5723
32038SOL    HW198121   4.509   2.240   3.378 -0.5802  1.1095 -0.8341
32038SOL    HW298122   4.619   2.325   3.438  0.6450  0.2573 -1.8180
32039SOL     OW98123   0.635   0.083   6.088 -0.1587  0.7775  0.3495
32039SOL    HW198124   0.641   0.136   6.008  0.8383  0.8755  0.4878
32039SOL    HW298125   0.541   0.078   6.105 -0.3615  1.1245 -0.5844
32040SOL     OW98126  10.142   1.592   6.274  0.1802 -0.2130  0.1113
32040SOL    HW198127  10.089   1.525   6.231 -1.0472  1.1152 -0.5067
32040SOL    HW298128  10.094   1.612   6.354 -1.2713  2.2139 -1.2546
32041SOL     OW98129   0.431   5.952   2.852  0.0420  0.4325  0.4108
32041SOL    HW198130   0.461   5.883   2.911 -0.1807  1.1810  1.4339
32041SOL    HW298131   0.338   5.935   2.840 -0.0551  0.6762  0.8266
32042SOL     OW98132   0.588   4.993   9.448  0.0079  0.3063 -0.2711
32042SOL    HW198133   0.545   5.002   9.363 -0.9495  1.9802  0.3389
32042SOL    HW298134   0.534   4.929   9.495 -0.2261  0.3742 -0.4481
32043SOL     OW98135   2.864   0.374   3.791  0.3426 -0.6633 -0.2816
32043SOL    HW198136   2.876   0.314   3.717  2.8900  0.6431 -1.0691
32043SOL    HW298137   2.950   0.416   3.802 -1.1685  2.5972  0.4099
32044SOL     OW98138   0.782   8.514   8.119 -0.3097  0.2724  0.3587
32044SOL    HW198139   0.709   8.496   8.178  1.0629  4.4284  3.8673
32044SOL    HW298140   0.748   8.578   8.056 -0.5469 -0.5936 -0.4208
32045SOL     OW98141   3.443   1.632   2.652  0.4863  0.2382  0.3488
32045SOL    HW198142   3.486   1.656   2.734 -0.4118 -0.2935  1.0052
32045SOL    HW298143   3.513   1.600   2.596  1.2640  1.5229  0.5414
32046SOL     OW98144  10.063   9.056   1.400  0.2436 -0.3681 -0.6630
32046SOL    HW198145  10.124   8.984   1.419  1.0215 -0.2027 -2.3609
32046SOL    HW298146  10.116   9.135   1.404 -0.5230  0.0992  0.7898
32047SOL     OW98147   8.665   2.533   0.198 -0.7496 -0.3591  0.5445
32047SOL    HW198148   8.661   2.619   0.156  2.0210 -0.2294  0.3811
32047SOL    HW298149   8.619   2.475   0.138  0.5492  0.3664 -1.2321
32048SOL     OW98150   7.722   5.039   7.207 -0.4442 -0.6169 -0.3387
32048SOL    HW198151   7.743   4.962   7.156 -0.6966 -1.2917  0.5521
32048SOL    HW298152   7.784   5.106   7.177  0.0569 -1.2830 -0.8125
32049SOL     OW98153   2.188  10.922   2.387 -0.2294 -0.3375  0.6180
32049SOL    HW198154   2.189  11.005   2.340 -0.5615 -0.6430  0.0444
32049SOL    HW298155   2.240  10.863   2.332  1.2847 -0.1270  1.7866
32050SOL     OW98156   9.923   5.962   2.181  0.5370 -0.0845  0.3262
32050SOL    HW198157   9.975   6.017   2.122  0.6595 -0.6533 -0.0993
32050SOL    HW298158   9.871   5.907   2.123  3.2026 -3.1888  0.6014
32051SOL     OW98159   3.117   8.210   2.840  0.0224  0.5388 -0.3714
32051SOL    HW198160   3.107   8.152   2.765  3.2289 -2.6072  1.3275
32051SOL    HW298161   3.045   8.188   2.898 -0.8339  0.9424 -1.2514
32052SOL     OW98162   2.943   5.567   1.602  0.1153 -0.3764 -0.5516
32052SOL    HW198163   2.968   5.520   1.681  0.3979  0.5536 -0.0807
32052SOL    HW298164   2.850   5.584   1.612  0.1525 -0.2537 -0.4132
32053SOL     OW98165   4.869   1.043   9.849  0.2738  0.1402  0.3385
32053SOL    HW198166   4.828   1.114   9.898 -0.7460  2.1823 -3.0843
32053SOL    HW298167   4.799   0.980   9.834  0.3980 -0.1302  0.8984
32054SOL     OW98168   6.717   3.663   2.321  0.1539 -0.0910 -0.0742
32054SOL    HW198169   6.791   3.703   2.276  0.1747 -0.1702 -0.1113
32054SOL    HW298170   6.705   3.716   2.400  0.8555 -0.6551  0.4220
32055SOL     OW98171   5.807   7.262   9.521 -0.5962 -0.0002 -0.0884
32055SOL    HW198172   5.883   7.213   9.488 -1.2862 -1.1079 -0.0772
32055SOL    HW298173   5.828   7.278   9.613  1.1392  2.7208 -0.8226
32056SOL     OW98174   6.265   1.246   4.268  0.4072  0.2724  0.4429
32056SOL    HW198175   6.279   1.166   4.319  1.5827  1.0311  1.3895
32056SOL    HW298176   6.294   1.224   4.180  1.5203 -0.1358  0.8864
32057SOL     OW98177  10.752   3.203   5.174 -0.4857  0.2967 -0.1281
32057SOL    HW198178  10.813   3.148   5.125 -0.6822 -0.1573  0.1244
32057SOL    HW298179  10.689   3.141   5.212  0.9323  0.3548  2.5624
32058SOL     OW98180   7.958   3.418   2.188  0.0005  0.1902  0.0448
32058SOL    HW198181   7.988   3.439   2.277  1.0006 -1.0608  0.0293
32058SOL    HW298182   7.968   3.499   2.139  1.9242  0.2422  0.4489
32059SOL     OW98183   4.591   7.102   1.506 -0.4046  0.3366  0.2203
32059SOL    HW198184   4.508   7.087   1.552 -1.1502  2.7096 -0.2059
32059SOL    HW298185   4.565   7.112   1.414  0.7510 -1.7176 -0.3882
32060SOL     OW98186   5.826   2.242   7.753  0.9020 -0.2655 -0.5213
32060SOL    HW198187   5.894   2.309   7.748  0.3945  0.1632 -2.0381
32060SOL    HW298188   5.808   2.219   7.662 -0.9332 -0.4238 -0.1473
32061SOL     OW98189   8.567   7.367  11.064  0.0478  1.3861 -0.2419
32061SOL    HW198190   8.509   7.421  11.010 -1.2740 -3.6592 -4.6721
32061SOL    HW298191   8.637   7.341  11.004  0.7505 -1.4377  1.6479
32062SOL     OW98192   4.296   5.190   5.731  0.5075 -0.4762 -0.1514
32062SOL    HW198193   4.216   5.214   5.685 -0.8504 -0.4920  2.0821
32062SOL    HW298194   4.356   5.161   5.662 -1.0978  0.3534 -1.9553
32063SOL     OW98195   1.545  10.759   0.821 -0.7087 -0.1343  0.3728
32063SOL    HW198196   1.629  10.753   0.867 -1.1340  0.6445  1.2898
32063SOL    HW298197   1.567  10.751   0.728  0.5087  1.0180  0.5284
32064SOL     OW98198   0.325   6.538   3.311 -0.2758 -0.0153  0.0137
32064SOL    HW198199   0.263   6.599   3.350 -1.2206 -0.1051 -1.2826
32064SOL    HW298200   0.303   6.538   3.218  0.9660 -0.8824 -0.3008
32065SOL     OW98201   2.644   9.632   5.149  0.0477 -0.0235 -0.4182
32065SOL    HW198202   2.660   9.627   5.055  1.8123 -2.6520 -0.0963
32065SOL    HW298203   2.707   9.697   5.181  2.4857 -2.1385 -0.6225
32066SOL     OW98204   0.729  10.961   2.333 -0.0585  0.1277  0.1747
32066SOL    HW198205   0.653  11.018   2.326 -0.9932 -1.1043 -0.1067
32066SOL    HW298206   0.759  10.949   2.243 -0.5374 -0.6685  0.1097
32067SOL     OW98207   2.740   4.335   5.059  0.0530 -0.0541 -0.0517
32067SOL    HW198208   2.653   4.332   5.019  0.5675  2.9464 -1.7119
32067SOL    HW298209   2.724   4.364   5.149 -0.7064 -0.2136 -0.1301
32068SOL     OW98210   2.944   4.140   2.244 -0.6566  0.3233 -0.2238
32068SOL    HW198211   2.915   4.215   2.192  1.2373  0.6568 -0.8929
32068SOL    HW298212   2.925   4.064   2.191 -0.5329  0.5180 -0.5499
32069SOL     OW98213   1.150   7.299   3.341 -0.4570  0.4400 -0.2429
32069SOL    HW198214   1.142   7.297   3.246 -2.0184 -0.9169 -0.1223
32069SOL    HW298215   1.064   7.327   3.372 -0.7842 -1.5462  0.8122
32070SOL     OW98216  10.725  10.739   2.856  0.0904 -0.0893 -0.4347
32070SOL    HW198217  10.740  10.829   2.885  0.0863 -0.0350 -0.5955
32070SOL    HW298218  10.682  10.749   2.771 -0.6524 -0.2382 -0.0838
32071SOL     OW98219   9.161   6.150   0.019  0.0054  0.8727  0.2894
32071SOL    HW198220   9.214   6.195  -0.047 -0.3327 -0.1945 -0.7513
32071SOL    HW298221   9.112   6.084  -0.031 -2.4821  1.9490  1.1548
32072SOL     OW98222   0.415  10.937   9.893 -0.2513 -0.1536  0.0537
32072SOL    HW198223   0.494  10.890   9.867 -0.5710 -0.1148 -1.0557
32072SOL    HW298224   0.446  11.005   9.953  1.0200  1.7318 -2.5572
32073SOL     OW98225   1.397   8.396   5.601 -0.4270  0.0627  0.6080
32073SOL    HW198226   1.474   8.372   5.653  0.4579 -0.0032 -0.6946
32073SOL    HW298227   1.368   8.314   5.561  0.0540  0.4272 -0.5044
32074SOL     OW98228   8.281   0.852   9.146 -1.1896 -0.4322  0.5073
32074SOL    HW198229   8.220   0.922   9.122 -1.2005 -0.2323  1.0822
32074SOL    HW298230   8.275   0.848   9.242  0.5221  0.3650  0.6786
32075SOL     OW98231   2.361   3.543  10.618  0.8002 -0.1338 -0.6484
32075SOL    HW198232   2.419   3.575  10.549  1.7029 -0.9923 -0.3106
32075SOL    HW298233   2.350   3.619  10.676  1.9253 -0.0673 -0.4981
32076SOL     OW98234   3.993   0.313   3.254 -0.5247 -0.3257  0.0235
32076SOL    HW198235   3.990   0.223   3.286  1.5867 -0.2636  0.5557
32076SOL    HW298236   4.059   0.312   3.185  0.8214  1.1104  1.2054
32077SOL     OW98237   9.898   3.515   9.209 -0.6449  0.7835  0.0683
32077SOL    HW198238   9.908   3.575   9.136  1.0749 -1.7762 -1.9685
32077SOL    HW298239   9.986   3.483   9.227 -1.5550 -2.1182  0.0629
32078SOL     OW98240   0.464   0.118  10.076 -0.3224 -0.1516  0.2932
32078SOL    HW198241   0.480   0.182  10.006  1.6529  0.7598  1.5040
32078SOL    HW298242   0.374   0.135  10.103 -0.4143  0.9099 -0.6005
32079SOL     OW98243   8.481   1.891   6.766 -0.7554 -0.5137 -0.1092
32079SOL    HW198244   8.388   1.911   6.776 -1.1296 -0.8428 -2.2699
32079SOL    HW298245   8.485   1.795   6.773 -0.7088 -0.5587 -0.6823
32080SOL     OW98246   1.995   3.963   5.675 -1.1022 -0.4162  0.0074
32080SOL    HW198247   1.935   3.992   5.607  0.3879 -0.8646 -1.5650
32080SOL    HW298248   2.076   3.943   5.629 -0.4090 -1.9377  1.7544
32081SOL     OW98249   2.103   3.225   6.630 -0.1937  0.6643 -0.1670
32081SOL    HW198250   2.177   3.169   6.654 -0.9977 -0.4496 -0.1998
32081SOL    HW298251   2.134   3.314   6.648  1.6871  0.3758 -1.6121
32082SOL     OW98252   9.133   1.164   0.648  1.0071 -0.9336  0.1221
32082SOL    HW198253   9.191   1.210   0.588  0.3917 -1.0770 -0.6006
32082SOL    HW298254   9.149   1.071   0.630  0.8663 -0.9774  0.2217
32083SOL     OW98255   4.762   8.147   9.995  0.0353 -0.2898 -0.9276
32083SOL    HW198256   4.762   8.200  10.075 -0.8316 -0.6965 -0.6414
32083SOL    HW298257   4.669   8.144   9.970  0.4265  0.9196 -2.6810
32084SOL     OW98258   2.117   1.917   6.739 -0.1531 -0.4739 -0.1130
32084SOL    HW198259   2.063   1.852   6.693  0.1325 -1.7649  1.2963
32084SOL    HW298260   2.205   1.904   6.701 -0.2421 -0.4046 -0.3461
32085SOL     OW98261   2.729   7.746  10.461  0.4174 -0.1057 -0.4748
32085SOL    HW198262   2.652   7.795  10.432 -1.2542 -0.6469  2.6507
32085SOL    HW298263   2.719   7.660  10.420  0.6666  0.5198 -1.9190
32086SOL     OW98264   7.515   7.842   3.853 -0.0601  0.1392 -0.0924
32086SOL    HW198265   7.487   7.829   3.762  0.2767 -2.1160  0.0443
32086SOL    HW298266   7.465   7.917   3.884 -2.1031 -0.5960 -1.3959
32087SOL     OW98267   5.690   6.164   5.242  0.3041  0.2955  0.3007
32087SOL    HW198268   5.693   6.160   5.147 -0.6890  0.6045  0.2550
32087SOL    HW298269   5.773   6.125   5.270  0.8445  0.7040 -0.6962
32088SOL     OW98270   3.179   1.039   0.157  0.0005  0.0934 -0.2869
32088SOL    HW198271   3.105   0.993   0.117 -0.2447  1.0552 -0.9740
32088SOL    HW298272   3.184   1.123   0.110  0.7121  0.5874  0.6337
32089SOL     OW98273   9.715   8.812   9.749  0.1501  0.0330  0.0763
32089SOL    HW198274   9.781   8.816   9.679  0.1161  0.1945  0.0535
32089SOL    HW298275   9.695   8.903   9.769 -1.3224 -0.0074 -1.0859
32090SOL     OW98276   2.360   5.267   9.264  0.1223 -0.1074  0.2202
32090SOL    HW198277   2.315   5.313   9.335  1.3524  0.7880  0.4579
32090SOL    HW298278   2.338   5.175   9.277 -2.6936  0.3761 -0.4656
32091SOL     OW98279   3.520   5.235   1.826  0.2304 -0.0090 -0.8203
32091SOL    HW198280   3.497   5.206   1.738 -3.3458  0.1932 -0.0869
32091SOL    HW298281   3.499   5.329   1.827  0.3158  0.0195  0.2130
32092SOL     OW98282   2.015   0.178   6.646 -0.1967 -0.1277 -0.6020
32092SOL    HW198283   1.976   0.091   6.649 -0.4170 -0.0053  0.4722
32092SOL    HW298284   1.944   0.237   6.672  0.1183  0.3151 -0.7293
32093SOL     OW98285   2.282  10.279   1.820 -0.8058 -0.0888  0.5265
32093SOL    HW198286   2.277  10.205   1.879 -1.6156 -0.9037 -0.5156
32093SOL    HW298287   2.229  10.347   1.861  1.2490  0.5290  2.2848
32094SOL     OW98288   8.437   8.626   3.326 -0.0208  0.1399 -0.1619
32094SOL    HW198289   8.472   8.588   3.246  0.7517 -1.0984  0.7195
32094SOL    HW298290   8.491   8.703   3.342  0.2670  0.0044 -0.4726
32095SOL     OW98291   2.984   5.737   2.969 -0.4407  0.0382 -0.3795
32095SOL    HW198292   3.071   5.757   2.933  0.1414  0.0428  0.9581
32095SOL    HW298293   2.995   5.652   3.012 -0.8473  0.4556  0.5817
32096SOL     OW98294   5.590   4.535   1.061 -0.5971  0.9999  0.5529
32096SOL    HW198295   5.565   4.594   1.133 -0.9897  1.5115  0.0073
32096SOL    HW298296   5.680   4.561   1.040 -0.2364  0.3886  1.3044
32097SOL     OW98297   7.450   9.337   5.340 -0.4039  0.1092  0.2374
32097SOL    HW198298   7.367   9.385   5.338 -0.3327  0.2045 -1.1775
32097SOL    HW298299   7.455   9.294   5.254  1.2288  0.4737  0.1179
32098SOL     OW98300   1.024   0.479   3.647  0.4533  0.4982 -0.3435
32098SOL    HW198301   1.058   0.497   3.735 -1.0402  2.1029 -0.0427
32098SOL    HW298302   1.005   0.385   3.648  4.1758 -0.4229 -0.3727
32099SOL     OW98303  10.377   6.306   4.245 -0.0998  0.0749  0.0656
32099SOL    HW198304  10.399   6.387   4.291  0.1858 -0.6313  1.2012
32099SOL    HW298305  10.288   6.319   4.214  0.7093  1.7295 -1.8231
32100SOL     OW98306   7.020   0.126   3.088 -0.2552  0.4423  0.2983
32100SOL    HW198307   6.989   0.064   3.154 -1.7174 -2.3094 -2.7204
32100SOL    HW298308   6.945   0.141   3.031  1.4087  1.0984 -1.8683
32101SOL     OW98309   3.342   2.368   3.714 -0.3255  1.1166  0.3450
32101SOL    HW198310   3.259   2.326   3.735 -0.0328  0.6911  0.6492
32101SOL    HW298311   3.352   2.436   3.781 -1.3946  2.5388 -0.8471
32102SOL     OW98312   3.884   0.020   3.901  0.6290 -0.2872 -0.1657
32102SOL    HW198313   3.930   0.066   3.971 -0.3146 -0.5046  0.6273
32102SOL    HW298314   3.808   0.075   3.882 -0.2352 -1.2239  0.4403
32103SOL     OW98315  10.484   6.151   4.448 -0.7845 -0.3474  0.0718
32103SOL    HW198316  10.443   6.188   4.371 -0.4614  0.8590  0.4545
32103SOL    HW298317  10.413   6.107   4.495 -0.8265 -1.8122 -1.3032
32104SOL     OW98318   5.082   6.136   6.149 -0.3524 -0.3087  0.1187
32104SOL    HW198319   5.143   6.196   6.192  0.2618  0.2599 -1.4715
32104SOL    HW298320   5.138   6.075   6.101 -0.9658  0.7374 -2.0502
32105SOL     OW98321   9.734   7.458   3.145  0.3815  0.0717  0.1607
32105SOL    HW198322   9.777   7.521   3.088 -2.6417 -1.8303 -4.9017
32105SOL    HW298323   9.764   7.373   3.114  0.0975 -1.1771  2.9639
32106SOL     OW98324   5.916   8.184   0.662  0.5599 -0.1909 -0.6395
32106SOL    HW198325   6.001   8.157   0.697 -0.9194 -3.1639  1.0385
32106SOL    HW298326   5.879   8.241   0.729 -0.0485 -1.5071  0.1701
32107SOL     OW98327   6.958   8.218   0.460  0.3267 -0.0599  0.0633
32107SOL    HW198328   7.019   8.292   0.460  1.7095 -1.1497  0.5974
32107SOL    HW298329   6.949   8.195   0.552 -2.1401  1.0184  0.1514
32108SOL     OW98330  11.042   2.612   6.770 -0.3329  0.3368  0.2606
32108SOL    HW198331  11.129   2.633   6.736 -0.5245  0.0731 -0.4082
32108SOL    HW298332  11.017   2.531   6.724 -0.3382 -0.3978  1.4994
32109SOL     OW98333   3.883   1.172   3.897  0.2627  0.5441 -0.0053
32109SOL    HW198334   3.853   1.219   3.819  1.4978 -0.3133 -1.0381
32109SOL    HW298335   3.825   1.096   3.904 -0.0246  0.7698  0.0883
32110SOL     OW98336   3.805   8.825   5.573 -0.7404  0.3235 -0.5575
32110SOL    HW198337   3.894   8.793   5.560  0.2881  2.3213  1.0142
32110SOL    HW298338   3.787   8.809   5.666 -1.5229  1.1249 -0.5551
32111SOL     OW98339   0.522   9.374   2.525  0.2081  0.8247 -0.4231
32111SOL    HW198340   0.483   9.422   2.453 -1.3189 -0.3631 -0.4514
32111SOL    HW298341   0.612   9.357   2.498 -0.5760 -0.3750 -2.5070
32112SOL     OW98342   1.099   8.043   8.240  0.1126  0.6138 -0.2042
32112SOL    HW198343   1.155   8.097   8.296  0.7694 -0.6945  0.4572
32112SOL    HW298344   1.094   7.959   8.286 -1.3637  0.2955 -0.9056
32113SOL     OW98345   3.105   1.695   8.831 -0.1434 -0.2257 -0.5345
32113SOL    HW198346   3.113   1.639   8.754  1.0128  1.4022 -1.6739
32113SOL    HW298347   3.189   1.686   8.876 -0.0426  0.3530 -0.5923
32114SOL     OW98348   4.324   7.478   3.491 -0.4847 -0.5640 -0.0286
32114SOL    HW198349   4.398   7.427   3.522  0.6748  1.2139  0.2590
32114SOL    HW298350   4.251   7.416   3.488  0.4438 -1.8340  1.9049
32115SOL     OW98351   6.420   8.795   9.510 -0.4093  0.1163 -0.2939
32115SOL    HW198352   6.393   8.882   9.539 -1.6738  0.2749 -1.8435
32115SOL    HW298353   6.409   8.796   9.415  1.9138 -0.9488 -0.6511
32116SOL     OW98354   3.296   4.031   5.224 -0.1230  0.4529 -0.5040
32116SOL    HW198355   3.270   3.999   5.137 -2.6445 -0.8979  0.6617
32116SOL    HW298356   3.274   3.960   5.283  3.9216  0.2531  1.0778
32117SOL     OW98357   9.462   6.020   1.864  0.1805  0.6299 -0.2923
32117SOL    HW198358   9.399   6.089   1.885  1.4722  2.0444 -0.8388
32117SOL    HW298359   9.509   6.053   1.788  0.9595 -0.8015 -0.4632
32118SOL     OW98360  10.587   2.605   6.403  0.4372  0.0695 -0.0217
32118SOL    HW198361  10.651   2.583   6.471  0.4848  2.2756  0.7532
32118SOL    HW298362  10.597   2.700   6.392 -1.3539  0.1539 -1.2846
32119SOL     OW98363   0.489   8.111   8.461  0.1693  0.4534  0.0044
32119SOL    HW198364   0.564   8.158   8.496 -1.1382  2.1553  0.6816
32119SOL    HW298365   0.413   8.160   8.493 -1.2422 -1.1501 -0.7046
32120SOL     OW98366   9.873  10.767   1.179 -0.0610  0.1703  0.2274
32120SOL    HW198367   9.824  10.833   1.130  3.1530  0.7033 -2.5835
32120SOL    HW298368   9.891  10.808   1.264  1.4347  2.8102 -1.2660
32121SOL     OW98369   4.577   9.929   5.632  0.0008 -0.2272  0.2896
32121SOL    HW198370   4.577   9.986   5.555 -0.9348 -1.4439 -0.6503
32121SOL    HW298371   4.520   9.857   5.608  1.4298 -1.7609  1.3091
32122SOL     OW98372   4.194   4.165   9.419 -0.2743 -0.4719  0.1750
32122SOL    HW198373   4.155   4.081   9.394 -2.3532  0.8148 -1.1935
32122SOL    HW298374   4.134   4.201   9.484 -0.8018  1.0127 -1.0705
32123SOL     OW98375   1.395   4.681   8.646  0.6828  0.3305  0.5195
32123SOL    HW198376   1.343   4.731   8.583 -0.0105  0.4896  1.1941
32123SOL    HW298377   1.351   4.597   8.652  0.8283  0.2657  0.6815
32124SOL     OW98378   5.298   7.004   9.418  0.4235 -0.5990 -0.5512
32124SOL    HW198379   5.340   6.919   9.403 -0.0306 -1.0251  0.4580
32124SOL    HW298380   5.293   7.012   9.514  0.9892  0.8475 -0.6212
32125SOL     OW98381   6.137   2.029   0.458  0.2913 -0.0525  0.1547
32125SOL    HW198382   6.197   2.101   0.440 -0.9054  1.3038  1.3897
32125SOL    HW298383   6.155   1.965   0.389  3.6064 -0.0257  0.8113
32126SOL     OW98384   3.458   5.722   3.614 -0.0867 -0.2922 -0.2682
32126SOL    HW198385   3.448   5.665   3.690 -1.0275 -1.6593 -1.3855
32126SOL    HW298386   3.528   5.682   3.562  0.6325  0.6994 -0.1018
32127SOL     OW98387  10.805   5.235   7.667 -0.4732  0.3601 -0.4584
32127SOL    HW198388  10.882   5.291   7.673 -0.9144  0.8452  2.3821
32127SOL    HW298389  10.792   5.221   7.574  1.2855  2.7115 -1.1453
32128SOL     OW98390   5.950   5.828   5.137 -0.0208  0.1340  0.2571
32128SOL    HW198391   5.926   5.920   5.145  3.7148  1.4977 -1.8565
32128SOL    HW298392   5.968   5.800   5.227 -3.0615  0.7345  1.1765
32129SOL     OW98393   0.407   1.260   1.118  0.0988 -0.4902 -0.0518
32129SOL    HW198394   0.418   1.189   1.180  0.8457 -0.8569 -0.5933
32129SOL    HW298395   0.483   1.317   1.132  0.0016 -0.3031 -0.2707
32130SOL     OW98396   3.365   9.553   0.040 -0.3811 -0.0146  0.7775
32130SOL    HW198397   3.343   9.597   0.122 -1.5530 -2.0181  1.6293
32130SOL    HW298398   3.288   9.500   0.020 -0.4761  1.0188 -2.1094
32131SOL     OW98399   3.797   2.045   2.192 -0.3767 -0.1966  0.8388
32131SOL    HW198400   3.728   2.075   2.133 -0.3329 -1.9216 -0.1530
32131SOL    HW298401   3.774   2.082   2.277 -0.7157  1.9372 -0.1237
32132SOL     OW98402   1.147   5.834   5.907 -0.5136 -0.0141 -0.1800
32132SOL    HW198403   1.229   5.862   5.948 -0.1720  0.1628 -0.9582
32132SOL    HW298404   1.174   5.794   5.824 -1.1643 -0.6424 -0.1047
32133SOL     OW98405   3.778  10.188   8.797 -0.4500 -0.2754 -0.4148
32133SOL    HW198406   3.724  10.174   8.719  1.7389 -1.3896 -1.8332
32133SOL    HW298407   3.854  10.238   8.765 -0.3119  0.7432  1.3810
32134SOL     OW98408   0.232   8.027   1.905 -0.0191 -0.1290  0.1804
32134SOL    HW198409   0.164   8.094   1.908 -1.5040 -1.5793  0.1819
32134SOL    HW298410   0.220   7.984   1.820  0.4428 -0.8633  0.4735
32135SOL     OW98411   6.309   5.143   5.663  0.2584  0.9110 -0.5171
32135SOL    HW198412   6.280   5.080   5.730  0.9697  1.3110  0.1892
32135SOL    HW298413   6.316   5.091   5.583 -1.0385  0.5195 -0.3950
32136SOL     OW98414   3.036   9.999   4.859  0.6081 -0.0188 -0.0266
32136SOL    HW198415   3.028   9.951   4.776 -0.2496 -0.8807  0.5279
32136SOL    HW298416   3.094  10.072   4.839 -2.7316  2.2358 -2.4994
32137SOL     OW98417   8.284   3.014   2.414 -0.6460  0.1189  0.5163
32137SOL    HW198418   8.253   3.092   2.459 -1.1249  0.3738 -0.2420
32137SOL    HW298419   8.205   2.976   2.375 -0.0301  0.8452 -1.5457
32138SOL     OW98420   9.692   3.560   5.373  0.2072  0.5976  0.0758
32138SOL    HW198421   9.723   3.643   5.337  1.4143  0.4262  0.6781
32138SOL    HW298422   9.602   3.552   5.341  1.3037  0.1835 -3.3666
32139SOL     OW98423   2.874   9.679   6.251  0.0572  0.1613  0.2122
32139SOL    HW198424   2.959   9.724   6.253 -1.1895  2.6555  0.7930
32139SOL    HW298425   2.825   9.718   6.323 -2.0254 -0.2917 -0.8968
32140SOL     OW98426   4.698  10.738   4.038 -0.1059  0.0919 -0.5877
32140SOL    HW198427   4.615  10.774   4.005 -1.1084  0.1119  1.7163
32140SOL    HW298428   4.672  10.662   4.090  1.1668  0.7125  1.0695
32141SOL     OW98429   8.050  10.064   1.634 -0.1991  0.5088 -0.2235
32141SOL    HW198430   8.144  10.081   1.636 -0.2485  0.7499  0.4295
32141SOL    HW298431   8.029  10.052   1.541  0.8134 -1.5416 -0.2268
32142SOL     OW98432   3.637   3.924   5.377  0.4586 -0.6770 -0.3992
32142SOL    HW198433   3.557   3.893   5.420  0.6679 -0.7691 -0.0775
32142SOL    HW298434   3.708   3.889   5.430  0.7089 -0.2760 -0.4691
32143SOL     OW98435   2.604   6.788   6.753  0.8121 -0.6701 -0.2142
32143SOL    HW198436   2.672   6.781   6.686  1.3854  0.8460  0.1678
32143SOL    HW298437   2.652   6.810   6.833 -0.0547 -0.3702  0.2308
32144SOL     OW98438   9.108   3.177   5.133  0.3523  0.8094  0.0306
32144SOL    HW198439   9.050   3.108   5.101 -0.7657  0.8975  1.7031
32144SOL    HW298440   9.195   3.138   5.131 -0.3935 -1.2895  2.2940
32145SOL     OW98441   8.780  11.053   4.617 -0.2977 -0.4768  0.2113
32145SOL    HW198442   8.754  10.988   4.683  0.4679 -0.3014  0.6907
32145SOL    HW298443   8.818  11.001   4.547 -0.3248 -0.5986  0.2862
32146SOL     OW98444  10.733   0.069   5.338 -0.2575  0.0244 -0.6146
32146SOL    HW198445  10.726   0.119   5.419 -0.9082 -1.3210  0.1955
32146SOL    HW298446  10.795   0.118   5.285  1.0180  0.3763  1.1243
32147SOL     OW98447   8.161   8.843   4.464 -0.6487  0.6406  0.4528
32147SOL    HW198448   8.103   8.850   4.539 -2.5308  1.7372 -1.0148
32147SOL    HW298449   8.139   8.760   4.423 -1.6199  1.2878 -0.3939
32148SOL     OW98450   7.536   2.981   3.107 -0.0144 -0.4310 -0.2261
32148SOL    HW198451   7.494   3.011   3.188  1.9590  1.0734  0.3455
32148SOL    HW298452   7.504   3.041   3.040  2.0037  1.5965  0.4509
32149SOL     OW98453  10.938   5.100   1.776 -0.0958 -0.0296 -0.3983
32149SOL    HW198454  10.909   5.076   1.688  1.6141 -0.0738 -1.0029
32149SOL    HW298455  11.032   5.079   1.777 -0.4337 -1.8436  2.0965
32150SOL     OW98456   2.821   6.724   3.711  0.2472  0.2428  0.5584
32150SOL    HW198457   2.786   6.653   3.764 -0.9531  0.6705  0.3730
32150SOL    HW298458   2.908   6.741   3.747 -1.3098  1.9954  3.9598
32151SOL     OW98459   6.966   7.741   4.930  0.4413  0.2148 -0.1017
32151SOL    HW198460   6.907   7.792   4.874 -1.6321 -0.2726  1.5369
32151SOL    HW298461   6.974   7.656   4.885  0.6698  0.5917 -0.7930
32152SOL     OW98462   1.133   7.648   5.888 -0.0181  0.0371  0.1946
32152SOL    HW198463   1.138   7.722   5.948  1.3951  0.8124 -0.8069
32152SOL    HW298464   1.164   7.682   5.805 -0.0540 -1.4995 -0.4919
32153SOL     OW98465   6.652   9.959   4.270  0.6429 -0.0105  0.6080
32153SOL    HW198466   6.666   9.966   4.176  1.1795 -1.1510  0.5967
32153SOL    HW298467   6.619  10.046   4.295 -2.4087 -0.5402 -1.0928
32154SOL     OW98468   8.488   0.295   1.827 -0.2449 -0.3361 -0.0328
32154SOL    HW198469   8.525   0.383   1.829 -1.1847  0.0685  0.0512
32154SOL    HW298470   8.398   0.306   1.858 -0.2864 -1.3716  0.2480
32155SOL     OW98471   1.753   8.783   5.358 -0.4673 -0.6566  0.7853
32155SOL    HW198472   1.682   8.803   5.419  0.0261 -2.1432  1.9167
32155SOL    HW298473   1.830   8.771   5.413  1.1098  2.4134 -0.5185
32156SOL     OW98474   6.089   1.077   4.841 -0.2495  0.0476 -0.3137
32156SOL    HW198475   6.133   1.139   4.899  0.8838 -1.3386  0.3705
32156SOL    HW298476   6.059   1.007   4.898 -0.7956 -0.4229 -1.1585
32157SOL     OW98477   3.332   4.736   2.352 -0.1898 -0.4200 -0.1617
32157SOL    HW198478   3.239   4.755   2.355 -0.1845 -0.3671 -0.3435
32157SOL    HW298479   3.339   4.657   2.298 -0.1764 -0.7147  0.2652
32158SOL     OW98480   7.208   7.109   7.244 -0.4426 -0.2030 -0.8769
32158SOL    HW198481   7.165   7.104   7.330 -0.0034  0.5339 -0.6033
32158SOL    HW298482   7.238   7.020   7.228 -1.0816 -0.4835 -0.5531
32159SOL     OW98483   5.581   0.545   4.396  0.4308 -0.0190 -0.0660
32159SOL    HW198484   5.674   0.536   4.377  0.4826  2.7554 -1.7530
32159SOL    HW298485   5.571   0.511   4.485  2.9886 -0.5751  0.0964
32160SOL     OW98486   8.597  10.998   5.030  0.2268  0.1631  0.8548
32160SOL    HW198487   8.582  11.030   5.119  3.4870  1.8011  0.9516
32160SOL    HW298488   8.565  11.068   4.974 -2.9094 -1.3470  0.5360
32161SOL     OW98489   1.083   9.937   0.929 -0.2216  0.2043  0.4608
32161SOL    HW198490   1.150   9.896   0.875 -0.9599 -1.9898  1.1260
32161SOL    HW298491   1.122  10.021   0.956  1.1252  0.2178 -1.3788
32162SOL     OW98492   9.799   4.168   5.748  0.1167 -0.5249 -0.5277
32162SOL    HW198493   9.851   4.224   5.690  1.7354 -0.3324  1.0065
32162SOL    HW298494   9.733   4.227   5.785  0.2641 -0.1978 -0.7792
32163SOL     OW98495  10.659   4.413   3.247 -0.3813  0.4737 -0.3543
32163SOL    HW198496  10.688   4.371   3.166  2.7667 -1.3394  1.5271
32163SOL    HW298497  10.598   4.351   3.287  0.3439 -0.0145  0.0158
32164SOL     OW98498   4.404   5.343   2.531 -0.1077  0.2333  0.1318
32164SOL    HW198499   4.336   5.382   2.476  1.1765  0.3101 -1.4936
32164SOL    HW298500   4.390   5.249   2.523 -1.7649  0.2348  2.1720
32165SOL     OW98501   4.302   6.218   3.324 -0.3667  0.3777 -0.1995
32165SOL    HW198502   4.322   6.148   3.386  1.8638  1.6196  0.5823
32165SOL    HW298503   4.234   6.271   3.367 -0.6182 -0.1527  0.0643
32166SOL     OW98504   1.109   6.633   1.393 -0.1730  0.7862 -0.4099
32166SOL    HW198505   1.180   6.691   1.421 -0.2275 -0.1351  1.8281
32166SOL    HW298506   1.030   6.688   1.399 -0.7936 -0.1713  5.2066
32167SOL     OW98507   8.495   9.813   6.865  0.7503 -0.0864 -0.1022
32167SOL    HW198508   8.425   9.840   6.924 -0.0112  0.1021 -1.0672
32167SOL    HW298509   8.461   9.734   6.823  2.2769 -1.6870  1.4640
32168SOL     OW98510   1.017   9.604  10.459 -0.1491  0.7735  0.2811
32168SOL    HW198511   1.108   9.578  10.474 -0.7455 -1.7851 -0.1011
32168SOL    HW298512   0.990   9.645  10.541  0.8209 -0.1112  1.0678
32169SOL     OW98513   8.623   1.074   8.721  1.1323 -0.4993 -0.4159
32169SOL    HW198514   8.573   1.073   8.640  2.3592 -0.7554 -1.1982
32169SOL    HW298515   8.649   1.165   8.732 -0.2527 -0.1939  0.4851
32170SOL     OW98516   3.668   3.461   4.447  0.3945 -0.3021 -0.0641
32170SOL    HW198517   3.594   3.429   4.500 -0.0215  2.6815  1.3482
32170SOL    HW298518   3.693   3.385   4.394 -3.1999 -1.6699 -0.1084
32171SOL     OW98519   9.379   7.446   1.013  0.3552 -0.8371  0.0979
32171SOL    HW198520   9.410   7.357   0.995  0.4167 -0.7255 -0.3656
32171SOL    HW298521   9.432   7.502   0.956  2.4220 -0.1703  2.4901
32172SOL     OW98522  10.920   4.511   5.941 -0.3235 -0.2569  0.4839
32172SOL    HW198523  10.966   4.485   6.021 -0.8785  0.4735  1.0564
32172SOL    HW298524  10.834   4.470   5.949 -0.7966  0.7740  0.8434
32173SOL     OW98525   5.062   9.725   4.650 -0.8620 -0.1625 -0.0084
32173SOL    HW198526   5.117   9.739   4.573  0.0086  2.9009  1.0057
32173SOL    HW298527   5.101   9.780   4.717 -2.0963 -2.0607  2.4246
32174SOL     OW98528   9.965   5.137   5.966 -0.0166  0.2184  0.2802
32174SOL    HW198529   9.954   5.042   5.965 -0.1668  0.2360  0.2436
32174SOL    HW298530   9.918   5.167   5.888  1.6747  0.1508 -0.8365
32175SOL     OW98531   6.012   3.218   4.178  0.1654  0.5654 -0.0800
32175SOL    HW198532   6.092   3.262   4.148  1.9604 -0.4189  2.9260
32175SOL    HW298533   5.967   3.284   4.230 -0.9030  1.0103 -1.4977
32176SOL     OW98534   8.221   9.157   8.998  0.4624  0.0791  0.8621
32176SOL    HW198535   8.310   9.192   9.005  0.0946  1.0093  0.9659
32176SOL    HW298536   8.234   9.065   8.972  1.4872 -0.1097  1.9406
32177SOL     OW98537   9.538   1.766   3.613  0.1424  0.4921 -0.6649
32177SOL    HW198538   9.464   1.827   3.610 -1.4776 -1.3919 -0.6315
32177SOL    HW298539   9.615   1.823   3.623 -0.9595  2.7207 -3.4434
32178SOL     OW98540   8.174   4.799   2.022  0.4379 -0.3529  0.2565
32178SOL    HW198541   8.126   4.749   2.089  0.6364 -0.2053  0.5071
32178SOL    HW298542   8.115   4.870   1.999  2.0305  2.2819  3.4715
32179SOL     OW98543   7.090   6.149   5.725  0.7248 -0.2516  0.5818
32179SOL    HW198544   7.003   6.117   5.747 -0.0073  0.4652 -1.0769
32179SOL    HW298545   7.126   6.081   5.667  1.4987 -0.7857  1.6542
32180SOL     OW98546   8.829   5.782   0.985  0.1794  0.3717  0.0972
32180SOL    HW198547   8.835   5.841   1.061  0.9402  1.3179 -0.6706
32180SOL    HW298548   8.843   5.695   1.022 -1.9413  0.5031  1.4176
32181SOL     OW98549   7.682  10.078   7.436 -0.5069  0.2708 -0.1228
32181SOL    HW198550   7.663  10.009   7.372  0.1969 -0.4300  0.4034
32181SOL    HW298551   7.691  10.031   7.519  3.4324  0.4408 -0.2674
32182SOL     OW98552   0.995   8.176   5.424  0.9726 -0.2723  0.0874
32182SOL    HW198553   0.973   8.104   5.483  1.8452 -0.3671  0.3149
32182SOL    HW298554   1.086   8.198   5.446  0.9534  0.4136 -0.4801
32183SOL     OW98555   6.325   8.665   2.224 -0.1651  0.3994  0.1240
32183SOL    HW198556   6.297   8.616   2.147  2.7287 -0.6195 -0.4027
32183SOL    HW298557   6.349   8.752   2.191  1.7250 -0.2470 -0.3550
32184SOL     OW98558  10.497   3.600   5.438 -0.4285  0.5069  0.1296
32184SOL    HW198559  10.540   3.521   5.407  0.1303  1.8010 -2.7703
32184SOL    HW298560  10.414   3.603   5.391 -0.1382  1.9242 -0.3750
32185SOL     OW98561   5.994   8.067   4.615 -0.3260  0.6851 -0.0575
32185SOL    HW198562   6.012   8.152   4.656  5.1021  0.3980 -1.0795
32185SOL    HW298563   6.066   8.011   4.642 -1.7281 -2.5275 -2.2962
32186SOL     OW98564   2.371  10.610   3.571 -0.2165 -0.2313  0.1974
32186SOL    HW198565   2.302  10.544   3.581  0.5768 -0.9409  1.3799
32186SOL    HW298566   2.349  10.658   3.492 -0.2521 -2.6492 -1.3397
32187SOL     OW98567  10.629   4.205   7.106  0.2601  0.1144  0.0497
32187SOL    HW198568  10.572   4.254   7.165  0.5156 -1.4460  1.6713
32187SOL    HW298569  10.575   4.190   7.028 -0.8989  0.2537  0.8071
32188SOL     OW98570   0.516   1.804   8.178 -0.6005  0.0118 -0.2869
32188SOL    HW198571   0.465   1.728   8.206 -0.7315  0.1965 -0.0068
32188SOL    HW298572   0.450   1.873   8.166 -0.2991  0.7074  1.6031
32189SOL     OW98573   9.154   5.743   3.770 -0.3665  0.0944  0.1970
32189SOL    HW198574   9.213   5.668   3.768  0.4556  0.6972  0.8544
32189SOL    HW298575   9.071   5.710   3.735 -0.5155 -1.5289  1.9432
32190SOL     OW98576   5.388   6.634   3.520  0.5325 -0.3144 -0.0359
32190SOL    HW198577   5.456   6.678   3.570  0.7560  0.5839 -1.1005
32190SOL    HW298578   5.424   6.627   3.432 -1.1740  1.2176 -0.9101
32191SOL     OW98579   1.035   3.281   7.362 -0.0711  0.1964  0.4709
32191SOL    HW198580   1.083   3.260   7.282  1.1997  0.9682  1.0091
32191SOL    HW298581   1.056   3.373   7.380 -1.2375  0.3722  1.0928
32192SOL     OW98582   6.961   7.763   3.600  0.1479 -0.2609 -0.0624
32192SOL    HW198583   6.938   7.683   3.552  0.4080 -0.4276  0.0864
32192SOL    HW298584   7.047   7.788   3.565  2.8426 -3.1217  3.5752
32193SOL     OW98585   9.890  10.889   6.743 -0.3193  0.2523  0.2427
32193SOL    HW198586   9.848  10.811   6.706 -1.1566  0.9927 -0.4304
32193SOL    HW298587   9.983  10.870   6.741 -0.5707 -1.3168  1.4612
32194SOL     OW98588   5.191   6.686   5.748 -0.2674  0.0517 -0.1638
32194SOL    HW198589   5.233   6.645   5.673  2.4014  1.3910  0.4697
32194SOL    HW298590   5.211   6.628   5.822  0.6209  0.7315  0.1535
32195SOL     OW98591   5.267   0.582   2.477 -0.1910 -0.2022  0.3748
32195SOL    HW198592   5.224   0.663   2.449 -2.3137 -1.2482  0.3944
32195SOL    HW298593   5.313   0.606   2.558  1.1427  1.4798 -0.8186
32196SOL     OW98594  10.366   8.362   3.403 -0.3282  0.5762 -0.1009
32196SOL    HW198595  10.377   8.324   3.316 -0.1283  2.0080 -0.7258
32196SOL    HW298596  10.442   8.330   3.453  1.5533  2.5405 -1.5189
32197SOL     OW98597   0.320   1.834   6.321  0.4291  0.3814 -0.4262
32197SOL    HW198598   0.368   1.830   6.403 -2.4850  0.4571  1.4248
32197SOL    HW298599   0.254   1.764   6.329 -1.8019  2.2570 -1.3545
32198SOL     OW98600   0.117   7.547   5.249  0.0299  0.0634  0.3996
32198SOL    HW198601   0.162   7.467   5.278 -1.3117 -1.2919 -1.0778
32198SOL    HW298602   0.039   7.552   5.304 -0.2687 -0.0716 -0.0071
32199SOL     OW98603   5.816   6.435   9.983  0.2219  0.4022 -0.2089
32199SOL    HW198604   5.761   6.447   9.905 -0.8749  0.8710  0.6120
32199SOL    HW298605   5.787   6.504  10.043  2.6453  1.5635 -0.2430
32200SOL     OW98606   8.473   2.312   8.461  0.7608  0.0266 -0.0859
32200SOL    HW198607   8.521   2.231   8.479  0.9219  0.3347  0.9538
32200SOL    HW298608   8.505   2.374   8.526 -0.9392  0.2890  0.5754
32201SOL     OW98609   8.124   5.463   6.007  0.0523  0.1414 -0.9145
32201SOL    HW198610   8.203   5.467   6.060  0.1823 -1.2553 -0.9682
32201SOL    HW298611   8.090   5.375   6.020 -3.1624  1.5391  1.4812
32202SOL     OW98612   9.636   4.601   0.034 -0.4219 -0.1433  0.6611
32202SOL    HW198613   9.643   4.667  -0.035 -0.3406  0.0676  0.8696
32202SOL    HW298614   9.723   4.598   0.074  0.5329 -2.5984 -1.3533
32203SOL     OW98615   8.698   5.205   2.615 -0.1992  0.2659  0.2415
32203SOL    HW198616   8.623   5.177   2.562  1.5767 -2.3517 -1.0580
32203SOL    HW298617   8.661   5.271   2.675 -3.5764 -1.0600 -0.1576
32204SOL     OW98618   6.340   3.398   2.328  0.2936  0.5140  0.4443
32204SOL    HW198619   6.388   3.453   2.266 -1.3198  0.5554 -0.8241
32204SOL    HW298620   6.290   3.459   2.382  1.2863  0.4466  1.4939
32205SOL     OW98621   4.684   0.372   5.593 -0.2443  0.3547  0.0176
32205SOL    HW198622   4.753   0.378   5.658 -1.2023 -0.6649  1.1952
32205SOL    HW298623   4.716   0.422   5.518  1.5428  0.2888  0.6961
32206SOL     OW98624   7.804   7.523   7.039 -0.1215  0.0355  0.7514
32206SOL    HW198625   7.779   7.571   6.960  0.0710  0.0252  0.6862
32206SOL    HW298626   7.843   7.589   7.096 -3.0312  0.7434  2.1157
32207SOL     OW98627  10.474   4.866   0.696  0.5811  0.2156 -0.3352
32207SOL    HW198628  10.502   4.793   0.751 -0.0399  0.0353 -0.2535
32207SOL    HW298629  10.472   4.830   0.607  3.1614  0.9237 -0.7761
32208SOL     OW98630   6.656   4.878  11.012 -0.1482 -0.2692  0.0371
32208SOL    HW198631   6.586   4.813  11.026  0.0457 -0.8154 -1.3245
32208SOL    HW298632   6.669   4.878  10.917  1.0508  0.5247  0.1844
32209SOL     OW98633   7.031   8.516   2.542 -0.2300 -0.3230  0.8259
32209SOL    HW198634   6.970   8.577   2.499  1.4317 -0.1917 -1.4932
32209SOL    HW298635   7.096   8.573   2.584  0.4848 -0.4584 -0.0726
32210SOL     OW98636   7.241  10.233   6.855 -0.2754  0.1228  0.3632
32210SOL    HW198637   7.186  10.197   6.785  0.3010  1.3285 -0.7551
32210SOL    HW298638   7.275  10.157   6.901  2.4219 -0.9880 -3.0662
32211SOL     OW98639   6.757   5.636   3.974 -0.1503  0.2913  0.0732
32211SOL    HW198640   6.690   5.703   3.992  0.7830  2.1167 -2.6805
32211SOL    HW298641   6.840   5.678   3.996  0.3115 -1.2444  1.5110
32212SOL     OW98642   4.178   1.099   9.106  0.0475 -0.4777 -1.1831
32212SOL    HW198643   4.204   1.094   9.014  2.7672  0.2535 -0.5421
32212SOL    HW298644   4.139   1.186   9.115 -0.1534 -0.5194 -1.6249
32213SOL     OW98645   1.343   5.498   0.248  0.5752 -0.0393 -0.6198
32213SOL    HW198646   1.343   5.592   0.269  1.1619 -0.3293  0.8672
32213SOL    HW298647   1.384   5.492   0.162 -0.5505  1.1549 -1.2684
32214SOL     OW98648   6.777   5.145   8.612 -0.2362 -0.3391 -0.3692
32214SOL    HW198649   6.802   5.105   8.528  0.0738  0.2708 -0.5764
32214SOL    HW298650   6.822   5.091   8.677 -0.1113 -0.5486 -0.6222
32215SOL     OW98651   2.493   9.509   2.430  0.0400 -0.4328  0.1049
32215SOL    HW198652   2.456   9.597   2.424 -0.5413 -0.7644 -2.2168
32215SOL    HW298653   2.579   9.522   2.471  0.2946  1.3293 -0.8857
32216SOL     OW98654   9.383   1.499   6.669 -0.4056  0.0595 -0.2802
32216SOL    HW198655   9.421   1.556   6.736 -1.0379 -0.3333  0.4306
32216SOL    HW298656   9.361   1.558   6.597 -2.4060  0.9980  1.0047
32217SOL     OW98657   1.681   3.074   9.195 -0.5806  0.0218  0.4300
32217SOL    HW198658   1.604   3.109   9.151 -1.2162 -2.4576 -0.5847
32217SOL    HW298659   1.717   3.010   9.134 -0.5347 -2.3645  2.7354
32218SOL     OW98660  10.409   6.082   8.169  0.2721  0.0474 -0.0146
32218SOL    HW198661  10.469   6.008   8.177  1.6604  1.1931  0.6718
32218SOL    HW298662  10.335   6.048   8.119 -0.4817 -2.6151  2.6398
32219SOL     OW98663   8.546   1.091   7.837  0.1852 -0.0780  1.0045
32219SOL    HW198664   8.635   1.125   7.834 -0.3900  1.4618 -0.3640
32219SOL    HW298665   8.539   1.034   7.760 -0.4645  1.1372  0.1250
32220SOL     OW98666  10.005   4.441   0.966 -0.0886  0.3711  0.3071
32220SOL    HW198667  10.073   4.421   0.901 -0.4586  0.5154 -0.1248
32220SOL    HW298668   9.944   4.500   0.921  0.1013  1.1612  1.0486
32221SOL     OW98669   1.547   7.413  11.020 -0.4232 -0.1545 -0.0262
32221SOL    HW198670   1.546   7.507  11.003 -1.4907  0.1445  1.4844
32221SOL    HW298671   1.458   7.384  10.999 -0.7647 -0.3854  1.6055
32222SOL     OW98672   3.931   8.541   6.196  0.5219  0.6145 -0.0653
32222SOL    HW198673   3.867   8.476   6.167  2.0931 -0.8839 -0.3362
32222SOL    HW298674   4.004   8.489   6.229  1.8062  2.2634 -0.2095
32223SOL     OW98675   9.579   5.476   7.058 -0.2818  0.0258 -0.2375
32223SOL    HW198676   9.641   5.518   6.997 -0.2498  1.9125  1.0230
32223SOL    HW298677   9.543   5.403   7.008  1.8694 -0.2519 -1.5251
32224SOL     OW98678   7.585  10.919   8.156 -0.6081 -0.6966  0.6197
32224SOL    HW198679   7.511  10.930   8.096  0.4975 -1.9325 -1.0286
32224SOL    HW298680   7.662  10.914   8.100  0.7395  0.1738  2.2785
32225SOL     OW98681   1.558   3.309   1.060 -0.8229  0.1158  0.2201
32225SOL    HW198682   1.571   3.393   1.016  0.3369 -0.1531  0.0078
32225SOL    HW298683   1.646   3.281   1.084 -1.0466 -1.6199 -0.8298
32226SOL     OW98684   2.675   5.363   5.429  0.1154 -0.4053 -0.0161
32226SOL    HW198685   2.584   5.381   5.404 -0.0451  1.0736  1.4618
32226SOL    HW298686   2.678   5.268   5.439 -0.9733 -0.5837 -1.1133
32227SOL     OW98687   8.907  10.043   0.940 -0.1422 -0.4048  0.1912
32227SOL    HW198688   8.999  10.023   0.927  0.2512  1.2618  0.2704
32227SOL    HW298689   8.887  10.009   1.027  0.1086 -1.6745 -0.2258
32228SOL     OW98690   9.568   9.689   2.562 -0.3056 -0.6319 -0.2090
32228SOL    HW198691   9.493   9.657   2.612  0.5087 -0.7171  1.0122
32228SOL    HW298692   9.638   9.697   2.627 -0.1898  2.8368 -0.5419
32229SOL     OW98693   5.071   4.525   2.971  0.3927 -0.1078  0.9439
32229SOL    HW198694   4.977   4.533   2.985  0.1221 -0.9385 -0.1841
32229SOL    HW298695   5.079   4.451   2.911  1.6303  1.0773 -0.4307
32230SOL     OW98696   1.357   4.512   5.540  0.1877  0.2422 -0.0741
32230SOL    HW198697   1.291   4.542   5.603 -1.4383  0.3929 -1.7635
32230SOL    HW298698   1.365   4.584   5.478 -0.0645 -0.8347 -1.3842
32231SOL     OW98699   6.788   1.385   0.797 -0.4588  0.0018 -0.0471
32231SOL    HW198700   6.833   1.341   0.869 -2.6390 -1.7173  0.3989
32231SOL    HW298701   6.835   1.357   0.718  0.0946 -0.6037  0.4900
32232SOL     OW98702   1.483   7.633   7.705 -0.2754 -0.4007 -0.2405
32232SOL    HW198703   1.401   7.659   7.746 -0.2749 -1.2341  0.3230
32232SOL    HW298704   1.548   7.643   7.774 -0.3950 -2.5540  0.2436
32233SOL     OW98705  10.094   0.487   2.376 -0.2020 -0.2762 -0.8918
32233SOL    HW198706  10.047   0.411   2.343  0.5358 -0.1033 -2.4033
32233SOL    HW298707  10.174   0.451   2.414 -0.4833 -0.3565 -0.3539
32234SOL     OW98708   3.770   5.361   1.872  0.3338 -0.1633  0.4671
32234SOL    HW198709   3.734   5.449   1.858 -0.8776 -0.4839  1.4070
32234SOL    HW298710   3.701   5.302   1.841  0.4513 -0.7923  1.3750
32235SOL     OW98711   8.064   3.440   3.441  0.1663 -0.3080  0.4923
32235SOL    HW198712   8.021   3.513   3.487 -0.4037 -1.2322  1.4899
32235SOL    HW298713   8.114   3.396   3.510  1.6470 -0.0466 -0.3910
32236SOL     OW98714   3.761   0.541   6.582  0.0467  0.2165  0.0904
32236SOL    HW198715   3.694   0.597   6.621 -0.8734 -0.2036 -0.8725
32236SOL    HW298716   3.748   0.456   6.625  0.2711  0.2529  0.2342
32237SOL     OW98717   1.657   4.576   8.615  0.2123 -0.5058  0.0465
32237SOL    HW198718   1.702   4.586   8.531  0.1867  0.0710  0.0983
32237SOL    HW298719   1.572   4.617   8.602  0.3394 -0.0984  0.4565
32238SOL     OW98720   2.221   6.954   1.867 -0.1140 -0.8022 -0.1990
32238SOL    HW198721   2.291   6.904   1.825  4.0315  3.6330  0.4923
32238SOL    HW298722   2.165   6.982   1.794  2.1581 -0.0179 -1.7764
32239SOL     OW98723   7.401  10.457   8.930 -0.8622 -0.4606 -0.0719
32239SOL    HW198724   7.390  10.449   8.836 -1.3069 -2.2259  0.0949
32239SOL    HW298725   7.413  10.367   8.961  3.7959  0.2765  1.0520
32240SOL     OW98726   5.607   7.563   1.372 -0.0488  0.1090 -0.4377
32240SOL    HW198727   5.690   7.568   1.419  0.0696  1.9129 -0.7590
32240SOL    HW298728   5.633   7.555   1.280 -0.2738 -3.9783 -0.2943
32241SOL     OW98729  10.115   9.707   5.009  0.1826  0.4336  0.5526
32241SOL    HW198730  10.111   9.748   4.923 -1.1006 -2.2942 -0.8333
32241SOL    HW298731  10.166   9.627   4.995  5.4896  2.7109  3.8115
32242SOL     OW98732   6.804  10.023   3.482 -0.3221  0.8691 -0.1058
32242SOL    HW198733   6.728  10.011   3.424  1.2646 -1.0125 -1.9281
32242SOL    HW298734   6.860  10.085   3.436  0.8313 -0.4433 -0.5454
32243SOL     OW98735   7.232   0.985  10.071 -0.6664  0.2800  0.3239
32243SOL    HW198736   7.259   1.075  10.090  0.2941  0.0236  0.2095
32243SOL    HW298737   7.294   0.955  10.005 -0.9985 -0.4635  0.3460
32244SOL     OW98738   0.151   1.526   0.200  0.3599  0.4490  0.4657
32244SOL    HW198739   0.183   1.584   0.269 -0.6233  1.6825 -0.0821
32244SOL    HW298740   0.075   1.483   0.238 -0.4225  1.4269  0.0487
32245SOL     OW98741   4.549   4.209   4.063 -0.6263  0.9876  0.4665
32245SOL    HW198742   4.460   4.199   4.096 -1.0986 -2.5106 -1.4341
32245SOL    HW298743   4.540   4.263   3.985 -1.8242 -2.2861 -1.8302
32246SOL     OW98744   2.017   7.316   2.734  0.5077 -0.1432  0.0819
32246SOL    HW198745   1.989   7.394   2.781 -0.7604  0.8541 -2.1499
32246SOL    HW298746   1.957   7.310   2.660  0.4842 -3.3387  0.2270
32247SOL     OW98747   5.595   9.440   6.169  0.0356 -0.6407  0.2143
32247SOL    HW198748   5.636   9.414   6.252 -0.5428 -0.5094  0.5431
32247SOL    HW298749   5.521   9.495   6.195  0.2763 -0.0043 -0.4173
32248SOL     OW98750   5.772   5.005   2.908  0.2210 -0.3486 -0.4172
32248SOL    HW198751   5.786   5.088   2.954  3.3091 -1.0005 -0.0012
32248SOL    HW298752   5.755   4.942   2.978 -2.1663 -0.1607 -0.7352
32249SOL     OW98753   7.162   4.710   2.951  0.5555 -0.1141 -0.3097
32249SOL    HW198754   7.168   4.740   3.041  0.5195 -0.2671 -0.2566
32249SOL    HW298755   7.209   4.626   2.950  0.2819 -0.2665 -0.3651
32250SOL     OW98756   8.470   6.933  10.194  0.4360  0.2335 -0.2264
32250SOL    HW198757   8.433   6.992  10.260  0.5551  1.0631 -0.8796
32250SOL    HW298758   8.407   6.934  10.122 -0.3174 -1.6572  0.3641
32251SOL     OW98759   5.421   3.733   4.886 -0.3644 -0.2400  0.3816
32251SOL    HW198760   5.484   3.746   4.816 -0.6582 -0.5050  0.0707
32251SOL    HW298761   5.452   3.656   4.933 -0.8074 -0.7439 -0.1528
32252SOL     OW98762   6.238   2.424   8.665  0.1230 -0.0437  0.9466
32252SOL    HW198763   6.236   2.516   8.692 -0.0207 -0.0784  1.0550
32252SOL    HW298764   6.252   2.427   8.571 -2.4860  0.1838  0.4830
32253SOL     OW98765   9.733   1.652   0.332 -0.1574  0.4401  0.0558
32253SOL    HW198766   9.670   1.716   0.366  0.6236  2.8185 -2.5495
32253SOL    HW298767   9.818   1.690   0.352  0.5642 -2.1473  2.4544
32254SOL     OW98768   6.395   5.085   0.499  0.1379  0.8787  0.2473
32254SOL    HW198769   6.482   5.124   0.503 -0.9908  3.4576  2.9004
32254SOL    HW298770   6.406   4.997   0.536  1.7721  0.6823 -0.6363
32255SOL     OW98771   0.734   1.072   0.854 -0.2015 -0.2094 -0.5394
32255SOL    HW198772   0.801   1.139   0.867  0.0272 -0.8820  2.5769
32255SOL    HW298773   0.652   1.120   0.846  0.1665  0.5080 -0.1133
32256SOL     OW98774   9.389   7.514   7.645  0.3081  0.1734  0.4567
32256SOL    HW198775   9.378   7.469   7.561  2.5941  2.0254 -0.9363
32256SOL    HW298776   9.345   7.598   7.634  1.2806  0.7471  0.7916
32257SOL     OW98777   4.507   4.804   4.168 -0.2268  0.3789  0.2173
32257SOL    HW198778   4.494   4.894   4.139  1.5233  0.5591 -0.1691
32257SOL    HW298779   4.596   4.783   4.139 -0.9425 -1.8202 -0.5993
32258SOL     OW98780   4.279  10.136  10.305 -0.8453 -0.1312  0.1040
32258SOL    HW198781   4.207  10.198  10.320  0.4450  1.3355  0.5962
32258SOL    HW298782   4.294  10.095  10.391 -1.6280 -1.0783 -0.1971
32259SOL     OW98783   0.666   6.506   6.649 -0.2896  0.4279 -0.2051
32259SOL    HW198784   0.699   6.517   6.738 -1.6140  1.3875  0.2024
32259SOL    HW298785   0.576   6.541   6.653 -1.9175 -3.2201 -0.8867
32260SOL     OW98786  10.704   3.785   7.501 -0.2867  0.1680  0.0528
32260SOL    HW198787  10.742   3.800   7.588 -2.2681  1.3344  0.7618
32260SOL    HW298788  10.670   3.695   7.506  1.6063 -0.6208 -0.3457
32261SOL     OW98789   1.274   2.338   8.536  0.5355 -0.7784 -0.0882
32261SOL    HW198790   1.200   2.297   8.490 -0.4156  1.0885 -0.3144
32261SOL    HW298791   1.277   2.427   8.502  1.4647 -0.1325  1.5791
32262SOL     OW98792   4.570   7.342  10.971 -0.2112  0.1481  0.1000
32262SOL    HW198793   4.544   7.434  10.963 -0.1369  0.1416 -0.2372
32262SOL    HW298794   4.587   7.330  11.064 -2.9132 -0.2379  0.6334
32263SOL     OW98795  10.240   1.475   7.830 -0.5511 -0.7860  0.3623
32263SOL    HW198796  10.164   1.445   7.779  0.4109 -0.2100 -1.4706
32263SOL    HW298797  10.301   1.401   7.828 -0.8150 -1.0438  1.3634
32264SOL     OW98798   7.469   5.463   2.734  0.7237 -0.8130  0.6068
32264SOL    HW198799   7.463   5.375   2.698  2.1272 -1.1905  1.2209
32264SOL    HW298800   7.444   5.453   2.826 -1.1712 -0.1605  0.2111
32265SOL     OW98801   9.645   0.539  11.027  0.0856  0.7812  0.2321
32265SOL    HW198802   9.574   0.591  10.989 -1.1545 -1.0959 -0.1872
32265SOL    HW298803   9.657   0.467  10.965  0.5987 -0.3206  1.5660
32266SOL     OW98804   1.473   9.479   5.699  0.2911 -0.6017 -0.4870
32266SOL    HW198805   1.438   9.532   5.628 -0.3167 -0.4445 -0.0761
32266SOL    HW298806   1.432   9.514   5.778  1.9314  0.0763  0.1061
32267SOL     OW98807  10.964   1.852   0.246  0.0074  0.1724  0.1339
32267SOL    HW198808  10.945   1.877   0.156 -0.6540  2.1651  0.7847
32267SOL    HW298809  11.052   1.888   0.262  1.0729 -2.0629 -0.3509
32268SOL     OW98810   8.866   8.921   6.991 -0.5346 -0.8217 -0.1895
32268SOL    HW198811   8.823   8.836   7.000  0.1256 -0.9814  2.0200
32268SOL    HW298812   8.795   8.985   6.996 -1.2084 -1.1894 -3.2408
32269SOL     OW98813   3.456   0.056   8.238  0.1597  0.5172 -0.3545
32269SOL    HW198814   3.518   0.065   8.166  1.1311 -1.6726  0.1063
32269SOL    HW298815   3.476   0.129   8.297 -0.1335  1.8775 -1.8839
32270SOL     OW98816   6.118   1.510   3.575 -0.1149 -0.1862  0.4400
32270SOL    HW198817   6.206   1.544   3.595 -0.7620  0.4753  2.3936
32270SOL    HW298818   6.116   1.424   3.617  0.0223 -0.7689 -0.7247
32271SOL     OW98819   7.015   1.104   7.505 -0.2020 -0.0638 -0.0983
32271SOL    HW198820   7.047   1.176   7.451 -2.0632  0.9773  0.1036
32271SOL    HW298821   7.080   1.095   7.575  0.5455  0.7695 -0.6724
32272SOL     OW98822   6.508   6.038   9.424 -0.1776  0.2551  0.1379
32272SOL    HW198823   6.552   6.063   9.342  0.3837 -2.4332 -0.4927
32272SOL    HW298824   6.429   6.091   9.427 -0.3997  0.1737 -2.3820
32273SOL     OW98825   5.279   1.440   8.579  0.0970 -0.0916  0.4029
32273SOL    HW198826   5.244   1.398   8.658 -0.1209  2.3938  1.7055
32273SOL    HW298827   5.372   1.452   8.597  0.3609 -0.8489 -0.3748
32274SOL     OW98828   3.963   5.268   1.455 -0.0601  0.1671 -0.0856
32274SOL    HW198829   3.941   5.193   1.511 -0.1364 -0.2930 -0.7098
32274SOL    HW298830   4.046   5.301   1.489 -0.9253  0.9707  1.3620
32275SOL     OW98831   9.001   0.717   8.474 -0.2595  0.0785  0.3751
32275SOL    HW198832   8.949   0.781   8.523 -1.0954  1.6569 -2.3181
32275SOL    HW298833   8.939   0.648   8.451  0.0613 -0.5195  1.2954
32276SOL     OW98834   8.100   2.280   0.862 -0.1447  0.5774 -0.1335
32276SOL    HW198835   8.081   2.227   0.940  1.2185  1.7656  1.0725
32276SOL    HW298836   8.017   2.322   0.841 -0.1870  1.4934  1.7002
32277SOL     OW98837   0.508   4.080   2.936  0.3818  0.0079  0.1905
32277SOL    HW198838   0.481   3.991   2.958  1.2906 -0.4643 -0.5240
32277SOL    HW298839   0.465   4.135   3.002  0.8867 -1.0801  1.4876
32278SOL     OW98840   6.557   0.150   9.365 -0.0993  0.1927 -0.2310
32278SOL    HW198841   6.468   0.174   9.339 -0.0072  1.1560  0.3239
32278SOL    HW298842   6.547   0.064   9.406 -1.1904  1.3246  2.0710
32279SOL     OW98843   4.956   2.898   2.324  0.9757 -0.0267  0.6739
32279SOL    HW198844   5.022   2.939   2.381  1.4620 -0.2867  0.2974
32279SOL    HW298845   5.006   2.845   2.263  0.4386  0.0947  0.1224
32280SOL     OW98846   5.202   1.556   0.815  0.1970 -0.4498  0.2520
32280SOL    HW198847   5.233   1.628   0.870 -2.4071 -0.2763  1.6171
32280SOL    HW298848   5.218   1.587   0.725  1.5609  0.6392  0.8167
32281SOL     OW98849   0.174   8.279   9.909  0.6485  0.8806  0.1005
32281SOL    HW198850   0.087   8.285   9.949  1.0305  2.0021  0.7862
32281SOL    HW298851   0.166   8.207   9.846 -1.4715  2.4074 -1.5275
32282SOL     OW98852   4.531   4.604   0.319  0.0757  0.7927  0.2840
32282SOL    HW198853   4.547   4.533   0.380 -1.8025  0.0207 -0.0591
32282SOL    HW298854   4.528   4.682   0.374 -0.4420  0.2627  1.0163
32283SOL     OW98855   5.545   4.858   1.068 -0.2420  0.1882 -0.4848
32283SOL    HW198856   5.526   4.814   1.151  1.9383  0.5740  0.3026
32283SOL    HW298857   5.474   4.920   1.057 -2.2595 -1.9703 -0.5410
32284SOL     OW98858   6.725   0.710   0.299 -0.4361  0.3438  0.2309
32284SOL    HW198859   6.635   0.693   0.270 -0.4611 -0.2976  0.6877
32284SOL    HW298860   6.746   0.638   0.357 -0.4946  1.7455  2.0857
32285SOL     OW98861   4.383   0.098   8.817  0.1974 -0.0849  0.1832
32285SOL    HW198862   4.471   0.074   8.845  0.9220  1.2214 -0.8442
32285SOL    HW298863   4.327   0.075   8.891  1.5399  0.0158  1.2743
32286SOL     OW98864   5.569   5.424   6.819 -0.0877 -0.4615  0.5503
32286SOL    HW198865   5.626   5.500   6.805 -1.0747  0.0546 -0.9843
32286SOL    HW298866   5.548   5.426   6.912  2.0574 -0.4591  1.0851
32287SOL     OW98867   8.137   1.976   9.512 -0.6078  0.5154  0.1304
32287SOL    HW198868   8.227   2.008   9.514 -1.0696  1.8425  1.3306
32287SOL    HW298869   8.146   1.880   9.512  0.8007  0.5264 -2.5082
32288SOL     OW98870   9.731  10.796   7.005  0.1036 -0.3238  0.4011
32288SOL    HW198871   9.654  10.745   7.031  0.3158 -0.5763  0.5451
32288SOL    HW298872   9.697  10.863   6.947 -0.0862 -1.0899 -0.3872
32289SOL     OW98873   3.454   3.585  10.339 -0.5975 -0.2612  0.2937
32289SOL    HW198874   3.532   3.576  10.394  0.3967 -0.7418 -1.1594
32289SOL    HW298875   3.441   3.499  10.301 -0.8195  0.2526 -0.8242
32290SOL     OW98876   9.264   0.048   8.247  0.5054  0.2934  0.3812
32290SOL    HW198877   9.309   0.117   8.197 -1.1602  1.4978  0.4306
32290SOL    HW298878   9.177   0.043   8.206 -0.4834  0.4597  2.3632
32291SOL     OW98879   4.627  10.489   4.579  0.2729  0.4548 -0.1985
32291SOL    HW198880   4.592  10.404   4.552  4.2084 -1.9811  1.5122
32291SOL    HW298881   4.577  10.552   4.528 -1.6515 -2.9420 -3.0032
32292SOL     OW98882   1.918   7.504   2.888  0.1786  0.2674  0.1713
32292SOL    HW198883   1.839   7.519   2.837  0.1913 -2.2849 -0.7336
32292SOL    HW298884   1.886   7.478   2.975 -0.0397 -1.0690 -0.2839
32293SOL     OW98885   1.595   6.444   3.148 -0.4059 -0.5639 -0.0700
32293SOL    HW198886   1.534   6.436   3.221 -2.3562  2.5580 -1.1892
32293SOL    HW298887   1.620   6.536   3.146  1.3836 -0.9943 -2.0248
32294SOL     OW98888   1.385   0.296   5.540 -0.4058  0.6328  0.2640
32294SOL    HW198889   1.377   0.380   5.496  4.0968 -0.1708 -2.8175
32294SOL    HW298890   1.457   0.309   5.602  0.6987 -0.9589 -0.6162
32295SOL     OW98891   9.026   4.965   7.633 -0.1030 -0.1162  0.0618
32295SOL    HW198892   8.974   4.896   7.674  0.5405 -1.0027 -0.5428
32295SOL    HW298893   9.066   4.922   7.557  4.6486 -0.7279  2.5243
32296SOL     OW98894   2.964   2.844   7.929 -0.1012  0.1305 -0.1979
32296SOL    HW198895   3.060   2.849   7.924 -0.0111 -1.8188 -2.6829
32296SOL    HW298896   2.946   2.816   8.019  1.5040  1.9923  0.7917
32297SOL     OW98897   5.079   8.544   3.448  0.0785 -0.2366 -0.3724
32297SOL    HW198898   5.094   8.622   3.394  1.1369  0.3969  0.7695
32297SOL    HW298899   5.031   8.485   3.391 -0.6155  1.1813 -1.3332
32298SOL     OW98900   6.986  10.560   7.198 -0.4352  0.5883 -0.5038
32298SOL    HW198901   6.945  10.477   7.175 -1.3704  1.1229 -0.8264
32298SOL    HW298902   7.047  10.578   7.126  0.7222 -0.4152  0.1811
32299SOL     OW98903   9.087   3.164   1.736  0.0062  0.4208 -0.3642
32299SOL    HW198904   9.070   3.259   1.732 -1.4136  0.1698 -3.1618
32299SOL    HW298905   9.044   3.135   1.816 -0.9379  1.9221 -0.2830
32300SOL     OW98906   7.979   8.351   6.345  0.1655  0.0841  0.2066
32300SOL    HW198907   7.913   8.289   6.375  0.6848  0.0831  1.3749
32300SOL    HW298908   8.062   8.316   6.376  0.5563  0.9022  0.1283
32301SOL     OW98909   4.747   3.218  10.702  0.7320  0.3337  0.0453
32301SOL    HW198910   4.668   3.259  10.666  0.1241 -1.5471 -0.9019
32301SOL    HW298911   4.775   3.277  10.772 -1.4921  1.0769  0.3862
32302SOL     OW98912   5.484   0.159   9.177  0.1831 -0.1417 -0.0688
32302SOL    HW198913   5.528   0.237   9.211  0.6822 -0.3000 -0.3380
32302SOL    HW298914   5.456   0.184   9.089 -0.1541 -0.0843  0.0537
32303SOL     OW98915   0.955   2.851   5.418 -0.0483  0.0863 -0.2014
32303SOL    HW198916   0.942   2.760   5.447 -0.1801 -0.0799 -0.7795
32303SOL    HW298917   0.937   2.849   5.324 -1.1006  0.9278 -0.0308
32304SOL     OW98918   2.496  11.025   7.429  0.3337  0.9760  0.2813
32304SOL    HW198919   2.471  10.949   7.482 -0.0716  1.7224  1.1782
32304SOL    HW298920   2.412  11.060   7.397  0.5554  0.7042 -0.6320
32305SOL     OW98921   9.329  10.580   5.055 -0.1620  0.3941 -0.2375
32305SOL    HW198922   9.378  10.637   4.995 -0.1438  0.4772 -0.1446
32305SOL    HW298923   9.289  10.641   5.117 -0.0014  0.2923 -0.0345
32306SOL     OW98924   6.539   7.425   0.924  1.1229  0.7239  0.6849
32306SOL    HW198925   6.475   7.394   0.989  2.4279 -0.3887  1.5057
32306SOL    HW298926   6.623   7.426   0.972  2.3067 -1.0215 -1.2028
32307SOL     OW98927   7.147   2.599   0.392 -0.9137  0.1742 -0.1821
32307SOL    HW198928   7.104   2.570   0.312 -1.5421  1.5342 -0.3694
32307SOL    HW298929   7.211   2.531   0.411 -0.9839 -0.3423 -1.6564
32308SOL     OW98930   5.603   2.242  10.265  0.2989  0.2110  0.5096
32308SOL    HW198931   5.584   2.329  10.299  0.9715  1.1670 -1.4108
32308SOL    HW298932   5.586   2.248  10.171  1.3082 -1.4449  0.1698
32309SOL     OW98933   2.609   3.484   8.460 -0.7456 -0.5180 -0.0070
32309SOL    HW198934   2.673   3.453   8.396 -3.4384  0.9543 -3.7268
32309SOL    HW298935   2.654   3.555   8.506  0.8814 -0.7355 -1.1542
32310SOL     OW98936   6.217   3.609   6.991 -0.1350 -0.7645 -0.0093
32310SOL    HW198937   6.230   3.602   7.086  1.9529  1.4000 -0.0453
32310SOL    HW298938   6.209   3.518   6.961 -1.4756 -1.4817  2.2649
32311SOL     OW98939   8.221   8.141   7.335 -0.4638  0.5282  0.7246
32311SOL    HW198940   8.172   8.206   7.385 -0.4658 -0.8793  2.6676
32311SOL    HW298941   8.307   8.138   7.378  0.3868  0.9550 -0.8748
32312SOL     OW98942   5.290   3.673   8.133 -0.1217  0.6201 -0.4998
32312SOL    HW198943   5.237   3.740   8.089  0.1039 -0.0601 -1.8510
32312SOL    HW298944   5.315   3.713   8.216 -0.8119  1.8355 -0.8528
32313SOL     OW98945   6.838   5.680   1.448  0.2376  0.4836 -0.9915
32313SOL    HW198946   6.927   5.658   1.418 -0.0477  0.1611 -1.6082
32313SOL    HW298947   6.846   5.770   1.481  1.1731 -0.1217  0.5624
32314SOL     OW98948   6.860   0.179   2.326 -0.3476 -0.2113 -0.0200
32314SOL    HW198949   6.816   0.122   2.262 -0.6645 -0.4823  0.4383
32314SOL    HW298950   6.796   0.248   2.345 -0.1728 -0.0106 -0.1507
32315SOL     OW98951  11.071   7.289   3.925 -0.0987  0.4166  0.0443
32315SOL    HW198952  11.007   7.360   3.921  1.7666  2.1742 -0.0815
32315SOL    HW298953  11.024   7.218   3.969 -2.3203  1.3766 -0.6064
32316SOL     OW98954   4.661   7.594   2.535  0.4125 -0.3009  0.2551
32316SOL    HW198955   4.567   7.607   2.543  0.2475 -1.1127 -0.3493
32316SOL    HW298956   4.678   7.509   2.575  0.6137 -1.0201 -1.2985
32317SOL     OW98957   0.429   3.699   6.998 -0.5263  0.4342 -0.5758
32317SOL    HW198958   0.396   3.634   7.060 -0.3514  0.2412 -0.6837
32317SOL    HW298959   0.433   3.652   6.914  3.2100 -0.6563 -0.0025
32318SOL     OW98960   9.316   0.027   7.512  0.1272 -0.2522 -0.6883
32318SOL    HW198961   9.368   0.061   7.585  1.4570 -2.2113 -0.6508
32318SOL    HW298962   9.274   0.105   7.475  1.5363  1.1610  0.5128
32319SOL     OW98963   8.607   4.232   1.025  0.9285 -0.1101  1.0456
32319SOL    HW198964   8.673   4.167   1.003  2.5727  1.2783  1.6316
32319SOL    HW298965   8.567   4.256   0.941 -0.3117 -2.3949  0.9010
32320SOL     OW98966   3.125   7.666   2.743  0.0300  0.1000  0.2176
32320SOL    HW198967   3.031   7.667   2.757 -0.0926 -3.0206  0.3254
32320SOL    HW298968   3.160   7.730   2.806 -2.0722  3.5445 -1.8008
32321SOL     OW98969   0.184   0.843   5.439  0.1347 -0.1855 -0.5645
32321SOL    HW198970   0.279   0.853   5.439  0.2377 -0.8988 -2.0140
32321SOL    HW298971   0.169   0.758   5.398 -1.0746 -1.0160  1.4499
32322SOL     OW98972   4.411   8.420   4.442  0.6314  0.1972 -0.1014
32322SOL    HW198973   4.419   8.385   4.531  1.0588 -1.0420 -0.6173
32322SOL    HW298974   4.499   8.411   4.405  1.1289  2.9917  0.1258
32323SOL     OW98975   7.345   5.245   2.032  0.2126  0.2385  0.3325
32323SOL    HW198976   7.386   5.165   2.067  0.0675  0.2611  0.5576
32323SOL    HW298977   7.383   5.316   2.084 -1.4746  0.1092  1.8447
32324SOL     OW98978   6.895   1.134   4.217 -0.3324  0.1568  0.5582
32324SOL    HW198979   6.981   1.096   4.232 -0.8170 -0.7170  1.2658
32324SOL    HW298980   6.838   1.090   4.280 -1.2792  0.7830  0.1715
32325SOL     OW98981   4.816   4.373   1.530  0.3807 -0.0202 -0.8247
32325SOL    HW198982   4.903   4.334   1.518  1.0959  1.5357 -0.9822
32325SOL    HW298983   4.832   4.454   1.578 -0.6940  1.4051 -2.7099
32326SOL     OW98984   0.832   3.274   1.276 -0.5875 -0.1321 -0.3179
32326SOL    HW198985   0.844   3.179   1.273 -1.7681 -0.2997 -3.7034
32326SOL    HW298986   0.756   3.287   1.332 -0.0994 -1.0793  0.6112
32327SOL     OW98987  10.666   9.110   4.446  1.2324 -0.9131  0.4869
32327SOL    HW198988  10.650   9.061   4.527 -1.6396  0.1725  0.6716
32327SOL    HW298989  10.654   9.045   4.377  0.9250 -1.2358  0.8321
32328SOL     OW98990  10.225   4.308   6.983  0.2017 -0.1033  0.0896
32328SOL    HW198991  10.278   4.286   6.907 -2.5072 -1.1870 -1.6234
32328SOL    HW298992  10.196   4.398   6.967 -2.2073 -1.0531 -1.4632
32329SOL     OW98993  10.820   8.550   1.425  0.4226 -0.1464 -0.3083
32329SOL    HW198994  10.851   8.489   1.492  0.0316 -0.9006 -0.7999
32329SOL    HW298995  10.725   8.554   1.439  0.0398 -1.8297 -2.0073
32330SOL     OW98996   3.634   4.695   1.547 -0.2506  0.2545 -0.7752
32330SOL    HW198997   3.645   4.605   1.576  1.0826  1.4572  3.0529
32330SOL    HW298998   3.550   4.722   1.585 -0.3001  0.8477 -1.2846
32331SOL     OW98999   5.060   7.847   3.274  0.3311 -0.6537 -0.0894
32331SOL    HW199000   5.070   7.862   3.368  0.0814  0.3568 -0.2087
32331SOL    HW299001   5.057   7.752   3.265 -1.5923 -0.7667  1.1518
32332SOL     OW99002  11.065   3.663   5.987 -0.7628 -0.0068 -0.4259
32332SOL    HW199003  11.063   3.600   5.916  2.7361  0.8169 -1.4485
32332SOL    HW299004  10.995   3.635   6.046 -2.4945 -1.9066 -3.1519
32333SOL     OW99005  10.494   0.849   6.956 -0.1330  0.1901 -0.3120
32333SOL    HW199006  10.439   0.796   7.014  0.0343  1.1162  0.7005
32333SOL    HW299007  10.583   0.817   6.972 -0.1467  0.0663 -0.4767
32334SOL     OW99008  11.022   4.246   1.017  0.1357 -0.3494  0.3242
32334SOL    HW199009  10.950   4.291   0.971  0.5640 -0.5991 -0.6112
32334SOL    HW299010  11.100   4.295   0.992  0.4561 -0.8782  0.2764
32335SOL     OW99011   6.855   9.418   0.931  0.1784 -0.0615 -0.0565
32335SOL    HW199012   6.777   9.363   0.929  0.0930  0.0147  0.8259
32335SOL    HW299013   6.856   9.455   1.020  0.9224  0.3627 -0.2345
32336SOL     OW99014   5.872   3.388   0.178  0.3557 -0.9006  0.5860
32336SOL    HW199015   5.934   3.362   0.110 -0.8493  0.5131 -1.1225
32336SOL    HW299016   5.814   3.313   0.188  2.5064 -2.4679  2.5905
32337SOL     OW99017   9.226   7.792   4.463  0.1865 -0.0674  0.2963
32337SOL    HW199018   9.232   7.887   4.473  0.8653 -0.0572 -0.1480
32337SOL    HW299019   9.264   7.757   4.544 -2.6271  0.0142  1.7687
32338SOL     OW99020   0.379   1.284   9.799  0.3294  0.2018 -0.2768
32338SOL    HW199021   0.341   1.240   9.875  0.3585 -1.2803 -1.0944
32338SOL    HW299022   0.316   1.353   9.777 -1.2305 -1.3247 -0.7666
32339SOL     OW99023   7.546   0.327   5.511  0.0893 -0.0661 -0.4162
32339SOL    HW199024   7.485   0.351   5.442  0.8627  1.3932 -0.6456
32339SOL    HW299025   7.630   0.315   5.466  0.9141  2.2299  0.3601
32340SOL     OW99026   6.644   2.158   2.201  0.2542  0.3682 -0.2004
32340SOL    HW199027   6.596   2.222   2.149  1.3167  1.7381  0.4280
32340SOL    HW299028   6.677   2.208   2.276 -1.4468 -1.5701  1.9890
32341SOL     OW99029   1.043   5.688   9.692 -0.3881 -0.6720  0.8643
32341SOL    HW199030   1.014   5.773   9.725  0.1953  0.0944 -0.5204
32341SOL    HW299031   1.125   5.671   9.738  0.3823  0.3562 -0.0646
32342SOL     OW99032   3.249   3.163   8.353 -0.0068 -0.1118 -0.2602
32342SOL    HW199033   3.256   3.255   8.379  0.8672  0.4011 -2.1349
32342SOL    HW299034   3.261   3.164   8.258  0.3842 -2.2080 -0.2805
32343SOL     OW99035   6.264   2.240   9.728  0.4258  0.2458 -0.0654
32343SOL    HW199036   6.257   2.192   9.811  4.4603  0.4176  0.5971
32343SOL    HW299037   6.264   2.171   9.661 -0.6903 -0.0744  0.2514
32344SOL     OW99038   2.052   1.685  10.420  0.3537  0.0798  0.0911
32344SOL    HW199039   2.047   1.678  10.325 -1.7034  0.4301  0.1206
32344SOL    HW299040   2.144   1.704  10.438  0.6217  0.9142 -1.8919
32345SOL     OW99041  10.365   3.496   8.767 -0.1245  0.0651 -0.4659
32345SOL    HW199042  10.323   3.489   8.853  1.4191 -0.8441  0.2573
32345SOL    HW299043  10.316   3.436   8.711 -1.3311  0.8873 -0.3168
32346SOL     OW99044   0.523   5.099   7.434  0.2062 -0.0374  0.2554
32346SOL    HW199045   0.584   5.147   7.490  0.7085 -1.1664  0.7079
32346SOL    HW299046   0.437   5.116   7.473  0.1617  1.7593 -0.5306
32347SOL     OW99047   7.363   5.733   8.271 -0.3627  0.0413  0.1972
32347SOL    HW199048   7.271   5.736   8.247 -0.7300  3.6565  1.5154
32347SOL    HW299049   7.378   5.641   8.294 -4.1831 -0.3521  1.8929
32348SOL     OW99050  10.765   2.927   3.208  0.2638 -0.0672 -0.2674
32348SOL    HW199051  10.755   2.968   3.123 -2.9279  0.6348  0.3221
32348SOL    HW299052  10.758   2.999   3.271  0.8874 -0.7816  0.6505
32349SOL     OW99053   0.844  10.539   3.974 -0.5288 -0.2543 -0.0041
32349SOL    HW199054   0.938  10.519   3.970 -0.9021 -2.4350  0.7360
32349SOL    HW299055   0.817  10.508   4.060 -2.2712 -1.3379 -0.8952
32350SOL     OW99056   3.901   2.091   0.194 -0.3678 -0.4348 -0.0478
32350SOL    HW199057   3.839   2.157   0.223 -0.1564  0.0754 -0.7145
32350SOL    HW299058   3.921   2.116   0.103  0.4741 -0.8340  0.0198
32351SOL     OW99059   0.048   9.304   3.989 -0.1854  0.2004  0.1347
32351SOL    HW199060  -0.043   9.286   4.013 -1.1140 -0.4902 -3.3334
32351SOL    HW299061   0.086   9.217   3.973  0.7343  0.5452  0.3803
32352SOL     OW99062   3.310   4.122   7.558 -0.1398 -1.0050  0.1933
32352SOL    HW199063   3.270   4.132   7.471 -2.8093 -0.9596  1.3439
32352SOL    HW299064   3.240   4.089   7.613  1.4655 -0.9499  2.3933
32353SOL     OW99065  10.093   7.459   9.102  0.4950 -0.3877 -0.0986
32353SOL    HW199066  10.178   7.441   9.063  1.8185  0.8048  2.0222
32353SOL    HW299067  10.076   7.551   9.082 -0.7966 -0.8609 -1.3188
32354SOL     OW99068   6.758   4.158   5.291 -0.1065 -0.1523 -0.3275
32354SOL    HW199069   6.828   4.223   5.284 -0.8620  1.2680  3.1204
32354SOL    HW299070   6.792   4.092   5.351 -1.7842  0.8925  1.9251
32355SOL     OW99071   5.848   1.023   4.201  0.5039  0.4437 -0.4727
32355SOL    HW199072   5.795   1.032   4.122  1.0276  2.3275 -0.6636
32355SOL    HW299073   5.785   1.019   4.272 -0.1055 -3.3701 -0.9830
32356SOL     OW99074   2.377   3.746   0.006  0.6733 -0.1822 -0.4261
32356SOL    HW199075   2.343   3.662   0.035  0.9161  0.1158  0.7948
32356SOL    HW299076   2.396   3.734  -0.087  0.3533 -1.3534 -0.3542
32357SOL     OW99077   0.150   8.462   3.396  0.6357  0.4707  0.1036
32357SOL    HW199078   0.069   8.506   3.424 -0.0268  1.1041 -2.5322
32357SOL    HW299079   0.192   8.524   3.337  1.6924 -0.8899 -0.6378
32358SOL     OW99080   9.585   6.247   6.074 -0.1556  0.2731  0.1011
32358SOL    HW199081   9.530   6.293   6.011  0.2141  0.9696  0.2779
32358SOL    HW299082   9.673   6.249   6.035 -0.4038 -1.7294 -0.6748
32359SOL     OW99083   7.353   3.179  10.630 -0.4129 -0.0962 -0.1139
32359SOL    HW199084   7.443   3.182  10.662 -0.3222 -1.5726 -0.2029
32359SOL    HW299085   7.300   3.205  10.706  0.1126  1.9144 -0.3756
32360SOL     OW99086   8.810   4.095   1.347  0.0823  0.3811 -0.1957
32360SOL    HW199087   8.795   4.142   1.429 -0.7595  0.4212 -0.3594
32360SOL    HW299088   8.732   4.040   1.337  0.9013 -0.8123 -0.1688
32361SOL     OW99089   2.342   0.366   8.416 -0.2261 -0.3034  0.2886
32361SOL    HW199090   2.375   0.445   8.458 -0.9291  0.2949 -0.2565
32361SOL    HW299091   2.420   0.317   8.391  0.2971 -1.7044  4.0218
32362SOL     OW99092   5.152   1.494   4.922  0.0651  0.0505 -0.0423
32362SOL    HW199093   5.238   1.496   4.965 -0.1250  0.5019  0.3343
32362SOL    HW299094   5.111   1.413   4.953  0.4763 -0.3266 -0.4748
32363SOL     OW99095   9.167   7.922   8.238 -0.3805  0.3097 -0.7146
32363SOL    HW199096   9.167   8.002   8.290  0.4771 -1.3413  2.0681
32363SOL    HW299097   9.258   7.891   8.242 -1.3385 -2.6486  1.5574
32364SOL     OW99098   7.492   8.520   0.854 -0.2334 -0.1008 -0.1956
32364SOL    HW199099   7.481   8.566   0.771  0.2946 -1.5219 -1.0906
32364SOL    HW299100   7.418   8.460   0.858 -0.9929  0.8597  1.0262
32365SOL     OW99101   3.053   1.990   1.477  0.2180 -0.0690 -0.6121
32365SOL    HW199102   3.067   1.927   1.548  1.1626  0.3972 -0.3714
32365SOL    HW299103   3.033   2.072   1.522  1.0626  0.2847 -0.8668
32366SOL     OW99104   0.821  10.429   7.225 -0.0575  0.3946  0.5119
32366SOL    HW199105   0.768  10.367   7.275 -0.7551  0.1741 -0.4801
32366SOL    HW299106   0.841  10.499   7.287  0.6314 -0.7298  1.6098
32367SOL     OW99107   1.941   4.551   1.272  0.1464  0.4885  0.0055
32367SOL    HW199108   1.959   4.562   1.366 -1.4424  1.5707  0.2356
32367SOL    HW299109   1.846   4.539   1.268 -0.4479  4.3296 -1.6743
32368SOL     OW99110   3.843   7.750  10.277  0.0157 -0.7178  0.1601
32368SOL    HW199111   3.755   7.738  10.313 -0.2746 -0.5875 -0.4943
32368SOL    HW299112   3.836   7.826  10.220  0.6379 -0.5031  0.3553
32369SOL     OW99113   2.799   5.388   8.791  0.1159  0.7620 -0.3675
32369SOL    HW199114   2.715   5.429   8.769 -0.0937 -0.5683 -2.4522
32369SOL    HW299115   2.788   5.357   8.881 -0.3955  3.4295  0.5637
32370SOL     OW99116   7.638   1.155  10.097  0.6351 -0.2203 -0.5683
32370SOL    HW199117   7.722   1.194  10.124  0.5037  2.3175 -3.3019
32370SOL    HW299118   7.662   1.073  10.055  1.8376  0.5734 -1.5080
32371SOL     OW99119   1.891   2.417   6.728  0.3057 -0.0764 -0.1860
32371SOL    HW199120   1.906   2.501   6.684 -1.2464 -1.0071 -2.7240
32371SOL    HW299121   1.979   2.386   6.752  1.0527  1.4220 -0.8745
32372SOL     OW99122   2.005   1.069   8.286  0.4624 -0.3906  0.1263
32372SOL    HW199123   2.017   1.032   8.198  1.5488  0.7224 -0.2155
32372SOL    HW299124   1.997   0.992   8.343  1.2538 -1.1411 -0.7457
32373SOL     OW99125   3.132   9.038   5.041 -0.4235  0.1844 -0.9453
32373SOL    HW199126   3.048   8.997   5.062 -0.9232  0.7556 -1.7873
32373SOL    HW299127   3.159   9.081   5.122  1.3533 -3.7789  0.8101
32374SOL     OW99128   3.227   0.773   3.113  0.2918 -0.2394  0.1522
32374SOL    HW199129   3.289   0.818   3.171  0.0547  0.7915 -0.3793
32374SOL    HW299130   3.280   0.748   3.037  0.5653 -1.4469  0.7099
32375SOL     OW99131   4.306   6.230   4.460 -0.4453  0.7119 -0.6155
32375SOL    HW199132   4.338   6.312   4.496 -0.8676  0.7620 -0.3543
32375SOL    HW299133   4.385   6.187   4.426  0.1937  0.0000  1.6387
32376SOL     OW99134   0.836   6.579   4.816  0.1020  0.4486  0.3441
32376SOL    HW199135   0.799   6.598   4.903 -0.5669  1.6095 -0.1620
32376SOL    HW299136   0.909   6.640   4.808  1.0353 -0.6092  0.6226
32377SOL     OW99137  10.687   3.070   9.019 -0.1534 -0.6118  0.5391
32377SOL    HW199138  10.625   2.998   9.031 -0.4036 -0.3212  0.9652
32377SOL    HW299139  10.729   3.050   8.935 -0.7215 -0.8789  0.3122
32378SOL     OW99140   2.685   7.486  10.373  0.3869  0.7353 -0.2612
32378SOL    HW199141   2.680   7.448  10.285  2.5149  1.5662 -0.8057
32378SOL    HW299142   2.595   7.484  10.405 -0.0543 -2.0866 -1.3517
32379SOL     OW99143   0.070  10.311   8.133  0.5442 -0.2219  0.0058
32379SOL    HW199144   0.047  10.281   8.221 -0.9231  0.2232 -0.1990
32379SOL    HW299145   0.130  10.385   8.148  1.3210 -0.9529  0.5842
32380SOL     OW99146   2.067   4.799   2.561  0.5763  0.0094 -0.1490
32380SOL    HW199147   2.013   4.789   2.483  1.3470  1.7060 -0.9712
32380SOL    HW299148   2.101   4.712   2.579 -0.9503 -0.7296 -0.6908
32381SOL     OW99149   7.635   3.629   9.587  0.0631  0.2953 -0.1508
32381SOL    HW199150   7.594   3.676   9.514  0.5377 -0.0267 -0.6282
32381SOL    HW299151   7.581   3.652   9.663 -1.7689 -1.0849 -0.9627
32382SOL     OW99152   0.991   9.926   3.652  0.4494  0.4163 -0.7763
32382SOL    HW199153   1.031   9.847   3.688 -0.6952 -0.1429 -0.6761
32382SOL    HW299154   0.999   9.991   3.722 -0.0975 -0.1188 -0.1951
32383SOL     OW99155   6.243  11.093   8.599  0.2028 -0.4486 -0.1490
32383SOL    HW199156   6.331  11.060   8.582  0.0870 -0.9687  0.2549
32383SOL    HW299157   6.190  11.015   8.612  0.4429 -0.1493  3.4914
32384SOL     OW99158   8.958   0.611   9.716 -0.1311  0.0708 -0.9113
32384SOL    HW199159   8.918   0.559   9.786  0.4309  3.0110  1.8184
32384SOL    HW299160   8.884   0.655   9.674 -0.2572  2.9348  1.9576
32385SOL     OW99161   5.359   9.095   9.590 -0.4770 -0.6655 -0.3556
32385SOL    HW199162   5.361   9.151   9.668  0.4776  0.4509 -1.1505
32385SOL    HW299163   5.285   9.127   9.539 -0.0392 -0.2285 -0.7260
32386SOL     OW99164   8.002   7.604   9.059 -0.0210 -0.1585  0.5736
32386SOL    HW199165   8.057   7.564   9.126 -0.9477 -0.2528  1.3107
32386SOL    HW299166   7.986   7.533   8.997  0.4532 -0.2073  0.5048
32387SOL     OW99167   2.405   0.699   2.401  0.1964  0.7486  0.0886
32387SOL    HW199168   2.372   0.787   2.416 -0.0906  0.4980  0.9972
32387SOL    HW299169   2.485   0.711   2.349  0.0033  1.5140 -0.0399
32388SOL     OW99170  10.873   5.881   9.162  0.2892  0.1352  0.4138
32388SOL    HW199171  10.914   5.901   9.246  3.3256 -0.4601 -0.7716
32388SOL    HW299172  10.915   5.942   9.100  0.7531 -1.7446 -1.2191
32389SOL     OW99173   8.125   5.230   3.121  0.0083 -0.3472 -0.1548
32389SOL    HW199174   8.136   5.139   3.149  1.5845  0.3120  1.5782
32389SOL    HW299175   8.088   5.274   3.198 -0.5729  0.5287 -0.9172
32390SOL     OW99176   8.881   1.718   9.501 -0.4851  0.4330  0.4802
32390SOL    HW199177   8.861   1.724   9.408  1.1094 -0.0571  0.0775
32390SOL    HW299178   8.961   1.770   9.512  2.3987 -3.5575  0.5044
32391SOL     OW99179   8.136   9.791   9.650  0.1314 -0.2061 -0.0842
32391SOL    HW199180   8.132   9.797   9.554  0.8671 -1.3229 -0.2077
32391SOL    HW299181   8.118   9.880   9.680  0.7239  0.3479 -1.2876
32392SOL     OW99182   4.824   8.271   9.639  0.5733 -0.2342  0.4398
32392SOL    HW199183   4.757   8.330   9.672 -0.7180 -1.9581  1.0344
32392SOL    HW299184   4.849   8.309   9.555 -0.7559  0.7569  0.4535
32393SOL     OW99185   7.248   8.777   9.799 -0.1447 -0.3525  0.5786
32393SOL    HW199186   7.315   8.805   9.736  0.7851 -0.2054  1.6003
32393SOL    HW299187   7.239   8.683   9.785  0.4103 -0.4057  0.5492
32394SOL     OW99188   2.665   4.988   6.082  0.1747 -0.6249  0.7044
32394SOL    HW199189   2.569   4.987   6.085 -0.0128  1.8059 -1.4053
32394SOL    HW299190   2.688   4.916   6.023 -0.3872 -0.9370  0.8615
32395SOL     OW99191   3.911   7.405   7.184 -0.2138  0.2381  0.4010
32395SOL    HW199192   3.841   7.341   7.198  0.1932 -0.8927 -2.2510
32395SOL    HW299193   3.981   7.377   7.243 -0.0896 -1.7409 -0.6266
32396SOL     OW99194   8.404   0.689   2.963  0.2100  0.2647  0.0105
32396SOL    HW199195   8.388   0.607   2.916  1.1683  0.4054 -0.5771
32396SOL    HW299196   8.499   0.695   2.971  0.1062  0.5402  1.4691
32397SOL     OW99197   1.036  10.249   7.786  0.0634  0.0087  0.0188
32397SOL    HW199198   1.063  10.250   7.695 -0.9295  1.5518 -0.2922
32397SOL    HW299199   1.103  10.298   7.833  0.7364 -1.0468  0.2002
32398SOL     OW99200   3.973   5.828   9.132  0.9778  0.7992  0.8116
32398SOL    HW199201   4.019   5.879   9.065  0.9510  0.5272  0.5797
32398SOL    HW299202   3.895   5.879   9.152 -0.9023 -0.7147 -1.9629
32399SOL     OW99203   7.026   2.587   2.059  0.1464 -0.0177 -0.7790
32399SOL    HW199204   7.075   2.661   2.095  0.4122 -1.3288  1.8025
32399SOL    HW299205   6.958   2.569   2.124 -0.9264 -1.0579 -2.1164
32400SOL     OW99206   0.929   8.836   4.169 -0.0931 -0.4040 -0.0475
32400SOL    HW199207   0.957   8.924   4.196  0.1865  0.2800 -2.3824
32400SOL    HW299208   1.006   8.798   4.127 -0.1752 -1.8663  1.0245
32401SOL     OW99209   7.329   1.387   1.795  0.5531 -0.1551 -0.1755
32401SOL    HW199210   7.297   1.406   1.706 -0.8131  1.8129  0.6418
32401SOL    HW299211   7.408   1.440   1.804 -0.4164  1.2971  0.3741
32402SOL     OW99212   1.503   6.027   0.535 -0.2989 -0.0056 -0.0751
32402SOL    HW199213   1.492   6.091   0.605  1.3076  0.9697 -0.6616
32402SOL    HW299214   1.553   5.956   0.574  0.1553  0.3017 -0.0927
32403SOL     OW99215   6.876   8.511   1.673 -0.0476  0.6277 -0.0744
32403SOL    HW199216   6.855   8.551   1.589  0.8078  1.2740  0.0139
32403SOL    HW299217   6.904   8.584   1.729  0.7826  0.0164  0.3264
32404SOL     OW99218   2.078   2.140   8.302 -0.2092  0.5932 -0.0049
32404SOL    HW199219   2.017   2.068   8.318  1.2323 -0.6668  0.0263
32404SOL    HW299220   2.029   2.201   8.248 -1.9937  0.3553  1.2683
32405SOL     OW99221  11.044   0.039   1.839  0.6435  0.1093 -0.7619
32405SOL    HW199222  11.001  -0.044   1.855  1.4108 -0.2254 -0.3995
32405SOL    HW299223  11.137   0.018   1.838  0.8604  0.9970 -0.3997
32406SOL     OW99224   0.730   8.122   4.919 -0.4475 -0.2634 -0.3291
32406SOL    HW199225   0.797   8.180   4.954  0.9303 -0.0084 -3.1337
32406SOL    HW299226   0.652   8.177   4.910 -0.0143  0.3658 -0.2654
32407SOL     OW99227   8.458   1.098   4.283  0.4929  0.4109  0.0843
32407SOL    HW199228   8.398   1.106   4.357  0.1515  0.9648 -0.2568
32407SOL    HW299229   8.427   1.021   4.235  0.3770  0.3896  0.1933
32408SOL     OW99230   1.747   2.995   6.936  0.6508 -0.2365 -0.2785
32408SOL    HW199231   1.709   3.043   6.863  0.6330 -0.1710 -0.2253
32408SOL    HW299232   1.709   3.034   7.014  0.1930 -0.7124 -0.2544
32409SOL     OW99233   6.411   4.725   4.086  0.7656  0.5232  0.4530
32409SOL    HW199234   6.379   4.788   4.150 -0.5728  0.1522  0.1820
32409SOL    HW299235   6.429   4.777   4.007 -3.0805  0.3212 -0.7582
32410SOL     OW99236   3.570   5.833   6.061  0.3032  0.2910 -0.5763
32410SOL    HW199237   3.540   5.924   6.066  1.7333  0.7426  0.3137
32410SOL    HW299238   3.539   5.802   5.976 -0.1938  1.6002 -0.8967
32411SOL     OW99239  10.284   5.274   9.548 -0.0593 -0.6622  0.0995
32411SOL    HW199240  10.372   5.236   9.544 -0.2847 -1.1694 -0.2019
32411SOL    HW299241  10.229   5.210   9.503 -0.4856 -0.0604 -0.2458
32412SOL     OW99242   2.652   8.609   3.106  0.6237 -0.2441 -0.1199
32412SOL    HW199243   2.625   8.671   3.174  0.9303  0.0789 -0.2893
32412SOL    HW299244   2.744   8.630   3.090  0.4827 -0.1489 -0.8165
32413SOL     OW99245   7.517   5.313   0.718  0.1842 -0.2518  0.2156
32413SOL    HW199246   7.480   5.226   0.727 -0.6685 -0.0395 -0.9495
32413SOL    HW299247   7.610   5.302   0.735  0.6992 -2.0501 -3.0649
32414SOL     OW99248   6.546   1.004   8.722  0.1624 -0.1578  0.5639
32414SOL    HW199249   6.534   0.917   8.684  1.2753 -0.4382  0.8131
32414SOL    HW299250   6.610   1.046   8.665  0.2160  0.2053  0.8901
32415SOL     OW99251   2.348   2.621  10.858  0.2062  0.2681 -0.1314
32415SOL    HW199252   2.272   2.662  10.899  1.6238  1.0271  1.8892
32415SOL    HW299253   2.350   2.532  10.895 -1.2259 -0.7428 -2.3175
32416SOL     OW99254   6.608   0.637   9.120  0.6047 -0.1480  0.2465
32416SOL    HW199255   6.644   0.633   9.209  0.4026  0.5129  0.3642
32416SOL    HW299256   6.667   0.696   9.073  0.7644 -0.5700 -0.0862
32417SOL     OW99257   7.648   9.838  10.000  0.2275 -0.2779  0.1499
32417SOL    HW199258   7.735   9.865   9.970  0.2373  2.1377  1.9664
32417SOL    HW299259   7.666   9.772  10.067  0.7503  0.5563  0.8633
32418SOL     OW99260   5.923  10.317  11.081  0.2692 -0.0200  0.2871
32418SOL    HW199261   5.864  10.251  11.117  0.8033 -1.2759 -1.0244
32418SOL    HW299262   6.003  10.308  11.132  1.0545 -1.8475 -1.1619
32419SOL     OW99263   0.530   0.470   6.639 -0.6728  0.0043  0.0278
32419SOL    HW199264   0.490   0.554   6.616 -0.5340 -0.1331 -0.7358
32419SOL    HW299265   0.490   0.446   6.722 -1.3469  0.4172 -0.1749
32420SOL     OW99266   4.354   8.929   2.798 -0.4692 -0.0520 -0.5004
32420SOL    HW199267   4.332   8.986   2.724 -1.9584  2.6020  1.8065
32420SOL    HW299268   4.270   8.913   2.841  0.5294 -0.2515  1.4615
32421SOL     OW99269   9.492  10.350   5.658 -0.2882 -0.1686  0.6469
32421SOL    HW199270   9.421  10.336   5.720  0.4434 -1.2050  1.2908
32421SOL    HW299271   9.505  10.265   5.617  2.0145 -0.6439  2.1513
32422SOL     OW99272   6.652   8.628  10.055 -0.1098 -0.6711 -0.0879
32422SOL    HW199273   6.629   8.647   9.964  1.0198 -1.8416 -0.6373
32422SOL    HW299274   6.729   8.572  10.049 -1.3419 -2.6400  1.5400
32423SOL     OW99275   8.671   0.796   8.214  0.0293  1.5352  0.5361
32423SOL    HW199276   8.608   0.834   8.152 -1.9818 -1.0159  0.8385
32423SOL    HW299277   8.756   0.807   8.171 -1.2772 -0.3382 -2.8992
32424SOL     OW99278   3.919   1.734   2.543  0.7642 -1.0845 -0.6984
32424SOL    HW199279   3.904   1.640   2.549  2.0410 -1.2214  1.4289
32424SOL    HW299280   3.999   1.749   2.594  0.5986  1.1417 -1.0034
32425SOL     OW99281   5.190   4.509   2.345 -0.0528 -0.3084  0.0607
32425SOL    HW199282   5.281   4.501   2.373 -0.0870  1.2170  0.7090
32425SOL    HW299283   5.193   4.564   2.267 -0.4229 -0.2320  0.0961
32426SOL     OW99284   0.563   3.334   7.154  0.1506 -0.2397 -0.3335
32426SOL    HW199285   0.552   3.255   7.100 -0.5177  0.3395 -1.0673
32426SOL    HW299286   0.598   3.301   7.237  1.5637 -1.1161 -1.2256
32427SOL     OW99287   3.224   9.482   5.997 -0.3081  0.0754 -0.4288
32427SOL    HW199288   3.198   9.572   5.976  0.9926  0.3304 -1.0269
32427SOL    HW299289   3.314   9.475   5.966  0.2244 -0.8915  1.1922
32428SOL     OW99290   4.477   9.665   3.124 -0.3666  0.4420 -0.1784
32428SOL    HW199291   4.387   9.696   3.124 -1.2170 -1.7607 -1.1597
32428SOL    HW299292   4.470   9.571   3.144  1.5304 -0.1243 -1.8160
32429SOL     OW99293   1.711   8.682   7.753 -0.3219 -0.1603  0.4806
32429SOL    HW199294   1.771   8.750   7.722  0.1608 -0.0536  1.5955
32429SOL    HW299295   1.633   8.693   7.699  1.0750 -1.1117 -1.8774
32430SOL     OW99296   2.509   7.320   4.322  1.1721 -0.6164  0.3574
32430SOL    HW199297   2.435   7.265   4.347 -0.6939  1.0160 -1.2216
32430SOL    HW299298   2.523   7.299   4.229  2.1583 -0.2700  0.4154
32431SOL     OW99299   6.928  11.094   4.646  0.2804 -0.1311  0.1156
32431SOL    HW199300   6.975  11.154   4.704  1.1039  0.4497 -1.1097
32431SOL    HW299301   6.972  11.010   4.657  1.4900  0.3461 -0.8190
32432SOL     OW99302   2.502   4.620   3.647  0.2940  0.2143 -0.4406
32432SOL    HW199303   2.524   4.700   3.693 -1.1512 -0.0934  0.9006
32432SOL    HW299304   2.430   4.582   3.698 -1.4298 -0.1635 -2.9407
32433SOL     OW99305   9.666   1.179   8.161 -0.3682 -0.4472 -0.3871
32433SOL    HW199306   9.738   1.145   8.108  0.8416  0.3960  0.6548
32433SOL    HW299307   9.660   1.119   8.235  1.3354  1.1410  1.1148
32434SOL     OW99308  10.503   2.860   8.959  0.1765 -0.1656 -0.0614
32434SOL    HW199309  10.439   2.835   8.893  0.9214  0.0338 -0.8900
32434SOL    HW299310  10.579   2.805   8.940  0.7064  0.4994  0.0835
32435SOL     OW99311   4.636   3.626   7.056 -0.5502  0.2822  0.2104
32435SOL    HW199312   4.680   3.711   7.051 -0.0754  0.0465  0.3081
32435SOL    HW299313   4.564   3.640   7.117 -1.4142  1.0159 -0.9187
32436SOL     OW99314   8.600   7.927  11.047 -0.2329  0.4146  0.7703
32436SOL    HW199315   8.538   7.998  11.064 -0.6412  0.5903 -1.2192
32436SOL    HW299316   8.546   7.852  11.021  0.2852  0.0143  0.8312
32437SOL     OW99317   6.480   7.507   5.469 -0.5200 -0.6229  0.9577
32437SOL    HW199318   6.514   7.531   5.383 -1.6257  2.2834  1.2099
32437SOL    HW299319   6.475   7.412   5.467  2.4809 -0.8802 -0.9784
32438SOL     OW99320   0.373   6.498   5.401 -0.2204  0.3149  0.3973
32438SOL    HW199321   0.405   6.441   5.471 -2.1892 -1.1853  0.1885
32438SOL    HW299322   0.291   6.533   5.436 -1.0133 -0.1293 -0.9648
32439SOL     OW99323   6.716   0.289   7.714  0.0097  0.3951  0.1457
32439SOL    HW199324   6.733   0.293   7.808  1.4472  0.8098 -0.1000
32439SOL    HW299325   6.662   0.366   7.696  0.5775  0.8757  0.4799
32440SOL     OW99326   5.032   2.700   0.814 -0.4426 -0.1695 -0.4571
32440SOL    HW199327   5.093   2.631   0.789  1.3092  0.2996  2.1667
32440SOL    HW299328   4.974   2.659   0.877 -0.3253  0.3790  0.0153
32441SOL     OW99329   7.420   2.431   7.897  0.6105  0.0428 -0.2145
32441SOL    HW199330   7.495   2.380   7.867  1.3214  0.2251  1.1932
32441SOL    HW299331   7.356   2.365   7.926  1.5140 -0.1016  1.5725
32442SOL     OW99332   9.720   6.784   9.531  0.2899  0.2291  0.5438
32442SOL    HW199333   9.654   6.843   9.494  0.8399  1.0871  0.8962
32442SOL    HW299334   9.779   6.765   9.458  0.2092  0.2536  0.4721
32443SOL     OW99335   8.644   6.826   1.819  0.4273 -1.0471  0.1982
32443SOL    HW199336   8.588   6.774   1.761 -0.5195 -0.8081  0.8633
32443SOL    HW299337   8.733   6.809   1.789  0.0448 -1.9833 -0.4582
32444SOL     OW99338   5.045   4.786   3.641  0.7672 -0.0306  0.1011
32444SOL    HW199339   4.970   4.845   3.629  1.4025  0.2452 -3.7681
32444SOL    HW299340   5.121   4.838   3.615  1.9686 -1.2402  1.0125
32445SOL     OW99341   7.529   8.731   9.940  0.2785 -0.3541  0.6232
32445SOL    HW199342   7.625   8.732   9.949  0.3817  1.8838 -0.0356
32445SOL    HW299343   7.514   8.702   9.851  0.3322 -0.7404  0.7379
32446SOL     OW99344   0.168   7.511   0.510 -0.0493  0.2184  0.9131
32446SOL    HW199345   0.133   7.553   0.431  0.1147 -1.3513 -0.0267
32446SOL    HW299346   0.151   7.574   0.580 -1.6912  0.9471 -0.0858
32447SOL     OW99347   3.401   0.324   9.412 -0.0649  0.2918 -0.0720
32447SOL    HW199348   3.337   0.368   9.467 -1.2060  0.3913 -1.4174
32447SOL    HW299349   3.470   0.389   9.397 -0.9310  1.0947 -0.6993
32448SOL     OW99350   3.974   9.112   8.153  0.5048  0.3922  0.8907
32448SOL    HW199351   4.035   9.063   8.208  1.8630 -0.2736 -1.0938
32448SOL    HW299352   4.021   9.194   8.133 -0.3756  1.0575  1.4795
32449SOL     OW99353   4.078   1.249   1.030  0.3100 -0.1941  0.5873
32449SOL    HW199354   4.073   1.213   1.119  2.7959 -1.4957  0.2854
32449SOL    HW299355   4.165   1.289   1.025 -0.1961  0.8036 -0.9452
32450SOL     OW99356  10.964   0.283   4.615  0.0553 -0.8650  0.4280
32450SOL    HW199357  11.054   0.286   4.646  0.8649 -1.8242 -1.6391
32450SOL    HW299358  10.938   0.375   4.607  1.2178 -0.5534  0.0921
32451SOL     OW99359   8.758   3.221   8.905 -0.4292 -0.2960 -0.8707
32451SOL    HW199360   8.746   3.127   8.898  1.8572 -0.6540 -0.7888
32451SOL    HW299361   8.799   3.247   8.822  1.2052  0.1671  0.0290
32452SOL     OW99362   7.701   6.067   3.578 -0.5647 -0.3758  1.0434
32452SOL    HW199363   7.652   6.060   3.496 -0.2836  4.4359  0.1648
32452SOL    HW299364   7.656   6.137   3.626  3.0943  1.6633  1.8664
32453SOL     OW99365   8.285   5.676   3.259 -0.8331 -0.3854  0.5844
32453SOL    HW199366   8.209   5.629   3.224  1.1969 -1.8883 -2.1394
32453SOL    HW299367   8.275   5.765   3.227 -0.4661 -1.0740 -1.5950
32454SOL     OW99368   3.237   7.865   7.468  0.0939 -0.5110  0.3162
32454SOL    HW199369   3.257   7.949   7.508 -0.7221  1.1207 -2.4797
32454SOL    HW299370   3.320   7.816   7.475  0.6838  0.5963  1.6739
32455SOL     OW99371   7.587   7.074   1.070 -0.0887  0.2483  0.1865
32455SOL    HW199372   7.491   7.081   1.069 -0.0005  1.9679  0.6015
32455SOL    HW299373   7.606   7.014   1.142 -0.8523  0.5584  0.6666
32456SOL     OW99374   8.006   0.894   9.508 -0.2117  0.0937  0.5553
32456SOL    HW199375   7.917   0.930   9.518 -1.5240 -2.5178 -0.7459
32456SOL    HW299376   7.992   0.806   9.475  2.9387 -0.2880 -0.0025
32457SOL     OW99377   7.128   5.933   0.136 -0.2742  0.6364  0.2248
32457SOL    HW199378   7.061   5.992   0.103 -1.8421 -1.8586 -1.4470
32457SOL    HW299379   7.081   5.877   0.198  0.4974 -0.4168 -0.1102
32458SOL     OW99380  10.756   6.226   5.526 -0.5850  0.5934 -0.0334
32458SOL    HW199381  10.726   6.136   5.514  0.4032  0.1485  0.6356
32458SOL    HW299382  10.837   6.231   5.475  0.4283  0.4810  1.4906
32459SOL     OW99383   5.878   4.742   7.287  0.0689 -0.3326 -0.3744
32459SOL    HW199384   5.799   4.712   7.333 -1.1186  2.6890 -0.2159
32459SOL    HW299385   5.851   4.823   7.244  2.9650  0.5464 -0.7539
32460SOL     OW99386  10.826   4.239   8.890  0.6782  0.8821 -0.4403
32460SOL    HW199387  10.888   4.234   8.963 -0.3328  1.1854  0.4571
32460SOL    HW299388  10.807   4.148   8.868  0.9279  0.7900 -0.2883
32461SOL     OW99389   4.209   1.536   2.020  0.2517  0.0090  0.4747
32461SOL    HW199390   4.163   1.509   2.099 -0.6800 -1.0760 -0.3899
32461SOL    HW299391   4.140   1.545   1.954  1.0999 -0.0490 -0.4448
32462SOL     OW99392  10.096   4.831  10.922  0.0266 -0.5390 -0.2844
32462SOL    HW199393  10.022   4.874  10.877  0.2753  1.2023  0.8697
32462SOL    HW299394  10.087   4.739  10.899 -2.6175 -0.4267 -0.0636
32463SOL     OW99395   7.761   9.592  11.041 -0.5612  0.3684 -0.2440
32463SOL    HW199396   7.823   9.566  11.109 -0.3057  0.1981 -0.5372
32463SOL    HW299397   7.681   9.544  11.061  0.9232 -3.7476 -2.8547
32464SOL     OW99398   4.270   5.127   9.654  0.2213 -0.7926  0.5691
32464SOL    HW199399   4.346   5.183   9.666  0.7254 -1.8751  3.1165
32464SOL    HW299400   4.307   5.039   9.646 -0.6831 -1.1011 -0.4189
32465SOL     OW99401   0.125   6.835   3.298  0.3174  0.0798  0.3142
32465SOL    HW199402   0.036   6.829   3.263 -0.2237  1.5745  1.3516
32465SOL    HW299403   0.140   6.928   3.311  2.1871 -0.1214 -0.1606
32466SOL     OW99404  10.109   3.877   4.714  0.2215 -0.1315  0.0779
32466SOL    HW199405  10.161   3.852   4.637  1.9981 -0.8406  1.4516
32466SOL    HW299406  10.034   3.925   4.677  0.4944 -1.2734 -2.1481
32467SOL     OW99407   6.773  10.404  10.682 -0.2618  0.0577 -0.0347
32467SOL    HW199408   6.849  10.447  10.720  0.5451 -0.7347 -0.7307
32467SOL    HW299409   6.729  10.363  10.757 -0.4841  1.1920  0.4866
32468SOL     OW99410   6.209   1.487   7.197  0.4220 -0.2315  0.6352
32468SOL    HW199411   6.157   1.506   7.118 -0.0025 -1.1650  0.6810
32468SOL    HW299412   6.270   1.560   7.203  0.7791 -0.3826 -0.8367
32469SOL     OW99413   4.400   3.961   4.180  0.2227 -0.2352 -0.2854
32469SOL    HW199414   4.392   3.870   4.208 -0.6088  0.4619  2.0377
32469SOL    HW299415   4.312   3.986   4.152  0.1586  0.1563  0.2343
32470SOL     OW99416  11.064   3.457   3.911 -0.7750  0.1349  0.5383
32470SOL    HW199417  11.056   3.454   3.815  0.7342 -1.4735  0.4083
32470SOL    HW299418  11.020   3.538   3.936  1.8416  2.5165 -1.8730
32471SOL     OW99419   4.893   2.960   4.528 -0.4780 -0.0553  0.3377
32471SOL    HW199420   4.982   2.986   4.504 -0.3426 -0.9471 -0.1768
32471SOL    HW299421   4.888   2.975   4.623  0.4179 -0.5220  0.4738
32472SOL     OW99422   0.969  10.561   5.263  0.6515  0.2861 -0.1495
32472SOL    HW199423   0.997  10.536   5.351  0.4046 -0.7064 -0.3327
32472SOL    HW299424   0.925  10.482   5.229 -0.4692  1.1011 -0.6508
32473SOL     OW99425   1.381   2.085  10.857  0.0562  0.6302 -0.1391
32473SOL    HW199426   1.324   2.149  10.813 -0.1410  2.6065  2.6691
32473SOL    HW299427   1.321   2.016  10.886 -0.2052  0.5997 -0.7336
32474SOL     OW99428  10.109   9.859   3.140 -1.2516 -0.0125  0.6690
32474SOL    HW199429  10.074   9.770   3.134  1.1068 -0.9405 -1.2041
32474SOL    HW299430  10.197   9.852   3.104 -0.4135  2.8186  1.9210
32475SOL     OW99431   0.147   6.058   9.382 -0.0393  0.3773 -0.3936
32475SOL    HW199432   0.083   6.110   9.334  0.5990  0.2170 -1.4576
32475SOL    HW299433   0.098   5.982   9.414 -0.7616  1.1281  0.3595
32476SOL     OW99434   0.147   2.672   0.992  0.2223 -0.0701 -0.1997
32476SOL    HW199435   0.187   2.605   1.047 -0.3165  0.7140  1.1962
32476SOL    HW299436   0.221   2.718   0.952  0.6537  0.0162  0.6848
32477SOL     OW99437   8.674   8.982  10.948 -0.0971  0.0303 -0.1702
32477SOL    HW199438   8.701   9.021  10.864  1.4458  1.5130  0.9487
32477SOL    HW299439   8.734   8.909  10.961 -1.4723 -1.3425 -1.1351
32478SOL     OW99440   4.767   9.114   2.779  0.1405  0.3532  0.1048
32478SOL    HW199441   4.827   9.131   2.852  1.9862 -1.2751 -0.9377
32478SOL    HW299442   4.712   9.042   2.810 -0.4502  1.0001  0.5957
32479SOL     OW99443   2.886   1.212  10.378  0.8655 -0.5094 -0.4846
32479SOL    HW199444   2.825   1.166  10.320  0.3662 -1.4237  0.6920
32479SOL    HW299445   2.846   1.203  10.465  0.7990  2.1313 -0.1828
32480SOL     OW99446  10.172   3.924   0.292  0.1363 -0.1031 -0.2398
32480SOL    HW199447  10.230   3.898   0.220  0.4530  0.5061 -0.2075
32480SOL    HW299448  10.093   3.872   0.279  0.1621  0.0590 -1.0728
32481SOL     OW99449   2.734   1.754   5.313  0.5634 -0.0604 -0.4208
32481SOL    HW199450   2.648   1.714   5.325 -0.3574  1.1124 -2.4386
32481SOL    HW299451   2.796   1.689   5.346 -1.0157 -1.5424 -0.2079
32482SOL     OW99452   7.277   8.360   4.723  0.2843  0.6991  0.1141
32482SOL    HW199453   7.297   8.292   4.787 -0.0812  0.8095  0.3511
32482SOL    HW299454   7.194   8.397   4.753 -1.8568 -1.6339 -2.3822
32483SOL     OW99455   3.202   3.260   7.439 -0.2080  0.3420 -0.4644
32483SOL    HW199456   3.256   3.187   7.471  0.4538 -0.0970 -2.4655
32483SOL    HW299457   3.203   3.251   7.344 -1.6893  1.8773 -0.6710
32484SOL     OW99458   7.342   0.647   4.556 -0.1241  0.0714 -0.3459
32484SOL    HW199459   7.430   0.633   4.592  0.7454  0.1762 -2.2889
32484SOL    HW299460   7.310   0.725   4.600  0.7864  0.0823  0.3315
32485SOL     OW99461   9.489   3.102   8.693 -0.0158  0.5985 -0.2589
32485SOL    HW199462   9.525   3.126   8.607 -1.3169 -1.1402 -1.3658
32485SOL    HW299463   9.438   3.178   8.719  0.8139  1.3562 -0.7802
32486SOL     OW99464   4.532   1.816   3.166 -0.2147 -0.6937 -0.6483
32486SOL    HW199465   4.597   1.818   3.096 -0.6402  0.6216 -1.0399
32486SOL    HW299466   4.448   1.833   3.121 -0.3580  1.3994  0.2761
32487SOL     OW99467   4.925   9.695   0.338 -0.3251  0.0724 -0.2387
32487SOL    HW199468   4.915   9.781   0.379  0.5064 -0.7239  1.7482
32487SOL    HW299469   4.879   9.703   0.254  0.5957  2.7525 -0.5921
32488SOL     OW99470   2.567   4.816   4.593 -0.1906 -0.3166  0.1156
32488SOL    HW199471   2.484   4.850   4.562 -0.7926 -1.3091  0.5858
32488SOL    HW299472   2.583   4.861   4.676 -1.4510 -1.7902  1.2122
32489SOL     OW99473  10.712   6.899   8.401 -0.1829 -0.0995 -0.0991
32489SOL    HW199474  10.800   6.885   8.365 -0.5292 -0.7415 -0.7424
32489SOL    HW299475  10.670   6.959   8.339 -0.2002  0.2187  0.2160
32490SOL     OW99476   5.593   9.471   0.195 -0.2141 -0.0880  0.6342
32490SOL    HW199477   5.533   9.466   0.269  0.1603  0.3926  0.9821
32490SOL    HW299478   5.677   9.440   0.230 -0.7846 -3.1675 -0.4957
32491SOL     OW99479  10.694   2.239   8.893 -0.3404  0.2476 -0.1899
32491SOL    HW199480  10.726   2.239   8.983  1.2300  0.5784 -0.7254
32491SOL    HW299481  10.655   2.152   8.882 -2.1981  0.8084  1.3256
32492SOL     OW99482   4.780   8.630   5.014 -0.3626 -0.0914  0.2287
32492SOL    HW199483   4.813   8.717   5.034 -0.1065  0.1435 -1.0852
32492SOL    HW299484   4.685   8.638   5.017 -0.3359  0.2087  0.2155
32493SOL     OW99485   3.998   4.861   7.826  0.4287 -0.4623 -0.3549
32493SOL    HW199486   3.992   4.833   7.917  0.7913 -0.1472 -0.2317
32493SOL    HW299487   4.012   4.955   7.831  0.3006 -0.4219 -0.7424
32494SOL     OW99488  10.990   1.435   7.485 -0.9460  0.0365 -0.1859
32494SOL    HW199489  10.983   1.516   7.434 -0.2132  0.4757  0.3894
32494SOL    HW299490  11.025   1.463   7.570 -0.4678 -0.9132 -0.0555
32495SOL     OW99491   9.143   9.783   7.132  0.6861  0.1081 -0.4792
32495SOL    HW199492   9.171   9.837   7.058  1.2537 -0.0074 -0.3542
32495SOL    HW299493   9.144   9.693   7.097  1.6460 -0.0254 -0.1423
32496SOL     OW99494   6.939   6.091   4.673 -0.2116 -0.3153  0.0332
32496SOL    HW199495   6.988   6.172   4.684  0.9971 -0.7098 -2.0025
32496SOL    HW299496   6.888   6.103   4.594 -0.2956 -1.3978 -0.0998
32497SOL     OW99497   4.886   5.105   7.583 -0.0273 -0.1016 -0.5048
32497SOL    HW199498   4.829   5.169   7.625  0.1129  0.6200 -1.3842
32497SOL    HW299499   4.974   5.127   7.615  0.0504  0.3051 -0.9821
32498SOL     OW99500  10.985   2.829   6.593  0.3691  0.3246 -0.3744
32498SOL    HW199501  11.003   2.791   6.507 -2.7208 -1.5604 -0.3515
32498SOL    HW299502  10.989   2.755   6.654 -0.3674  1.0618  0.6067
32499SOL     OW99503   8.251   5.283   9.292  0.1041 -0.4772 -0.4110
32499SOL    HW199504   8.222   5.214   9.231 -2.1614 -1.1989  1.3399
32499SOL    HW299505   8.243   5.243   9.379  3.1422  0.5489  0.4667
32500SOL     OW99506   3.754   3.400   2.433 -0.5557 -0.5672  0.0958
32500SOL    HW199507   3.744   3.455   2.355  0.3187  0.4497  0.6746
32500SOL    HW299508   3.838   3.426   2.470  0.5470 -3.1966 -0.2998
32501SOL     OW99509   2.976   7.076   2.820  0.8080  0.6653  0.4471
32501SOL    HW199510   2.951   7.168   2.815  1.4823  0.8166 -0.3322
32501SOL    HW299511   2.899   7.029   2.786 -0.1249  0.8148  2.2322
32502SOL     OW99512   0.060   7.633   8.540 -0.4620 -0.3957 -0.0734
32502SOL    HW199513   0.054   7.674   8.453 -0.4998  0.3075  0.2583
32502SOL    HW299514  -0.021   7.656   8.584  0.5330  1.2571  1.0008
32503SOL     OW99515  10.775   6.143  10.527 -0.3361  0.3400  0.6098
32503SOL    HW199516  10.806   6.187  10.448 -0.8356  2.1702  1.3804
32503SOL    HW299517  10.821   6.187  10.599 -0.7181 -0.5374  1.4178
32504SOL     OW99518   6.021   9.061   2.319  0.1446  0.2233 -0.5764
32504SOL    HW199519   6.052   8.971   2.331 -0.7477  0.3173  3.7223
32504SOL    HW299520   6.085   9.100   2.259  1.1658 -2.9037 -1.7416
32505SOL     OW99521   5.279   7.117  10.497 -0.5409 -0.4792 -0.2437
32505SOL    HW199522   5.262   7.150  10.585 -1.0821 -0.3343 -0.3985
32505SOL    HW299523   5.202   7.143  10.446 -0.2984 -0.6869 -0.7244
32506SOL     OW99524   8.068  10.287   0.560 -0.1527  0.0595 -0.4664
32506SOL    HW199525   8.040  10.224   0.626 -0.6111  1.2901  0.5465
32506SOL    HW299526   8.026  10.257   0.479 -2.0291  0.1816  0.4081
32507SOL     OW99527   5.257   1.404   6.444 -0.3030 -0.1771 -0.0911
32507SOL    HW199528   5.230   1.405   6.352  0.6222  0.0469 -0.3698
32507SOL    HW299529   5.203   1.335   6.484  0.9978 -2.0127 -1.3488
32508SOL     OW99530  10.216   4.483   3.583 -0.1177  0.1685  0.3747
32508SOL    HW199531  10.146   4.503   3.646  0.7576  0.1146  1.3938
32508SOL    HW299532  10.187   4.525   3.501 -0.6022  1.4931  1.1827
32509SOL     OW99533   1.267   0.593   7.045 -0.4010  0.5763  0.3068
32509SOL    HW199534   1.305   0.679   7.064  1.5275  0.1298 -1.2601
32509SOL    HW299535   1.296   0.538   7.118 -1.0869  1.0678  0.9675
32510SOL     OW99536   7.632   0.131   8.051  0.0071  0.4268  0.3328
32510SOL    HW199537   7.561   0.105   7.992 -0.5105 -0.4934  1.3273
32510SOL    HW299538   7.611   0.222   8.074 -0.1422  0.5803 -0.3790
32511SOL     OW99539   5.945   9.846   8.333  0.5437 -0.2105 -0.2529
32511SOL    HW199540   5.863   9.832   8.380  0.9712  0.1908  0.6380
32511SOL    HW299541   6.006   9.783   8.372  1.3956  1.3356  1.0438
32512SOL     OW99542   6.136   5.444   1.965  0.8955 -0.1421  0.1415
32512SOL    HW199543   6.095   5.529   1.980  1.4291  0.2543 -0.5759
32512SOL    HW299544   6.160   5.412   2.052  0.6151  0.4047  0.4207
32513SOL     OW99545   9.322   7.348  11.055  0.0872 -0.1830  0.8796
32513SOL    HW199546   9.288   7.282  11.116  0.3609 -0.5515  0.6392
32513SOL    HW299547   9.388   7.301  11.004 -0.5276 -0.0343 -0.0891
32514SOL     OW99548   7.875   0.835   3.720  0.0482 -0.1761 -0.6129
32514SOL    HW199549   7.965   0.815   3.696  0.1592  0.7982 -1.0644
32514SOL    HW299550   7.822   0.791   3.653  0.2607  0.5265 -1.2537
32515SOL     OW99551  10.563   5.825   1.550  0.2372 -0.2222  0.6124
32515SOL    HW199552  10.566   5.860   1.639  0.0840 -1.8871  1.3127
32515SOL    HW299553  10.470   5.815   1.530  0.2736 -1.9366  1.1651
32516SOL     OW99554   1.452   6.240   9.994  0.6784  0.3528  0.3200
32516SOL    HW199555   1.505   6.161   9.979 -0.0771 -0.4388  1.5587
32516SOL    HW299556   1.516   6.311   9.999  1.4411 -0.2795 -0.1828
32517SOL     OW99557   1.550  10.000  10.467  0.2874  0.0924  0.1657
32517SOL    HW199558   1.569  10.080  10.516  3.3934 -1.4908  1.8465
32517SOL    HW299559   1.502   9.945  10.530 -1.0699  0.2414 -0.6928
32518SOL     OW99560   8.847  10.867   8.585 -0.0660  0.4882  1.0331
32518SOL    HW199561   8.872  10.867   8.677 -0.7564 -0.5812  1.2385
32518SOL    HW299562   8.915  10.816   8.541  1.0501  2.1721  0.6782
32519SOL     OW99563   7.908   1.208   8.629  0.2213 -0.5552  0.3564
32519SOL    HW199564   7.975   1.228   8.694 -1.0682  1.2311  1.2195
32519SOL    HW299565   7.834   1.174   8.681 -1.3061  2.0882  0.1065
32520SOL     OW99566   7.979   4.125   9.407  0.1301  0.4301 -0.4199
32520SOL    HW199567   8.002   4.114   9.499  2.9516  0.0655 -1.0828
32520SOL    HW299568   7.966   4.035   9.376 -1.4924  0.5821 -0.2901
32521SOL     OW99569   8.931   4.489   5.720  1.2579  0.3434 -0.4407
32521SOL    HW199570   8.890   4.450   5.642 -1.3080 -0.7645  1.3213
32521SOL    HW299571   8.908   4.582   5.715 -1.5586 -0.1890  0.3608
32522SOL     OW99572   3.964   7.466   8.362 -0.3278 -0.0877 -0.1914
32522SOL    HW199573   3.936   7.546   8.317 -0.2252  0.0236 -0.0597
32522SOL    HW299574   3.975   7.402   8.292  0.2525  0.2065 -0.3802
32523SOL     OW99575   4.695   7.685   3.468  0.2525  0.6433 -0.3120
32523SOL    HW199576   4.768   7.662   3.525  1.4347  2.1572 -1.1275
32523SOL    HW299577   4.709   7.634   3.388 -0.5848 -0.3863  0.1899
32524SOL     OW99578   9.448  10.729   6.463 -0.5090  0.1731 -0.0736
32524SOL    HW199579   9.448  10.634   6.457  2.0670  0.1999 -2.9890
32524SOL    HW299580   9.457  10.748   6.556  1.1159 -2.5040  0.4067
32525SOL     OW99581   1.974   9.959   2.716  0.4314  0.6004  0.3219
32525SOL    HW199582   2.052   9.906   2.733  1.4662  2.1084  0.4840
32525SOL    HW299583   1.916   9.901   2.666  1.3359 -0.7920  0.8287
32526SOL     OW99584  10.390   5.709   0.704  0.2535 -0.2460  0.1299
32526SOL    HW199585  10.320   5.767   0.675  0.2741  0.7168  1.8365
32526SOL    HW299586  10.459   5.768   0.735  1.4400 -1.1810 -0.6490
32527SOL     OW99587   3.166   0.506   9.360  0.5131 -0.0356  0.0322
32527SOL    HW199588   3.073   0.517   9.378  0.8690  2.0326  0.8486
32527SOL    HW299589   3.169   0.474   9.270 -0.9882  0.7401 -0.3248
32528SOL     OW99590   9.618   6.756   1.436  0.2791 -0.3052  0.0970
32528SOL    HW199591   9.623   6.801   1.352 -1.8982 -0.2385 -0.0531
32528SOL    HW299592   9.654   6.669   1.419 -1.2438 -0.7087 -1.2474
32529SOL     OW99593  10.507   9.883   8.199 -0.2312  0.1650 -0.5168
32529SOL    HW199594  10.417   9.911   8.217 -0.7458 -0.2197 -2.3491
32529SOL    HW299595  10.554   9.964   8.183 -0.0269  0.4312  1.2252
32530SOL     OW99596   5.003   8.563   3.016  0.4726 -0.4431  0.3013
32530SOL    HW199597   4.977   8.643   3.062 -1.8028 -0.0815 -1.3682
32530SOL    HW299598   5.066   8.593   2.950 -2.1632  0.6376 -1.9866
32531SOL     OW99599   1.050   6.416   7.662  0.1263 -0.5815  0.6732
32531SOL    HW199600   1.014   6.342   7.612 -0.0714 -0.1126  0.1071
32531SOL    HW299601   0.992   6.489   7.642  0.5913 -0.1554  0.8594
32532SOL     OW99602   0.740   5.038   5.149 -0.2424  0.3436 -0.4515
32532SOL    HW199603   0.711   5.015   5.061  1.9823 -0.7911 -0.9634
32532SOL    HW299604   0.659   5.056   5.197 -1.5492  0.2856 -2.5177
32533SOL     OW99605  10.163   7.453   0.676  0.3158 -0.3357  0.2043
32533SOL    HW199606  10.247   7.488   0.703  0.4495 -1.4305  1.2869
32533SOL    HW299607  10.174   7.432   0.583  0.6362  1.1818 -0.1294
32534SOL     OW99608   1.562  10.706   5.405  0.2192 -0.0122  0.4919
32534SOL    HW199609   1.529  10.616   5.404  3.5643 -1.3957 -0.7656
32534SOL    HW299610   1.507  10.752   5.342  0.0559 -1.9447 -0.8915
32535SOL     OW99611   5.944   5.265  10.981 -0.6456 -0.6856  0.2879
32535SOL    HW199612   6.004   5.228  10.916  0.3512  0.0344  0.7558
32535SOL    HW299613   5.867   5.292  10.931  0.6944  1.2300 -0.8978
32536SOL     OW99614   3.449   9.178   3.466 -0.3187  0.6035  0.6270
32536SOL    HW199615   3.466   9.221   3.550  0.7709 -0.2098  0.8438
32536SOL    HW299616   3.366   9.132   3.479  0.0791  0.0916  1.4214
32537SOL     OW99617   2.003   4.633   2.029 -0.4938 -0.3606  0.1578
32537SOL    HW199618   1.961   4.583   1.960 -0.0066  1.8691 -1.8784
32537SOL    HW299619   2.096   4.614   2.021 -0.3558  0.4701 -0.3262
32538SOL     OW99620  10.052   1.585   2.478 -0.2647 -0.1154  0.0246
32538SOL    HW199621  10.014   1.597   2.566 -2.0234 -0.1113 -0.6918
32538SOL    HW299622  10.075   1.493   2.475  2.4749  0.4295  1.4509
32539SOL     OW99623   0.610  10.481   6.003 -0.5964  0.4285 -1.0942
32539SOL    HW199624   0.676  10.464   5.935  2.9732 -1.8264  2.5196
32539SOL    HW299625   0.611  10.577   6.012  1.3315  0.5549 -1.9914
32540SOL     OW99626   0.716   0.451   2.063 -0.2354 -0.3457  0.2559
32540SOL    HW199627   0.754   0.371   2.099  1.1310 -0.6198 -1.6553
32540SOL    HW299628   0.672   0.424   1.983 -2.4592  0.3833  1.1441
32541SOL     OW99629   3.186  10.684   7.265 -0.9227  0.0152 -0.3432
32541SOL    HW199630   3.236  10.623   7.319 -0.1891  1.9086  1.2719
32541SOL    HW299631   3.252  10.732   7.215 -1.5076 -0.7031 -1.8849
32542SOL     OW99632   5.207  10.915   4.512 -0.2949 -0.0935 -0.1901
32542SOL    HW199633   5.175  10.970   4.583 -1.6655 -0.8780 -0.1756
32542SOL    HW299634   5.143  10.926   4.442 -0.1328 -1.0183 -0.4988
32543SOL     OW99635   9.620   4.353   6.210  0.2777 -0.4091  0.5860
32543SOL    HW199636   9.699   4.300   6.222 -0.6747 -1.5773  2.1018
32543SOL    HW299637   9.624   4.418   6.280  0.3332  0.1087  0.1063
32544SOL     OW99638   6.424   5.622   1.653 -0.2915 -0.0779 -0.3988
32544SOL    HW199639   6.333   5.637   1.627 -0.0786 -0.2017 -1.2493
32544SOL    HW299640   6.456   5.556   1.591 -0.5705 -2.5675  1.9191
32545SOL     OW99641   9.003   7.975   6.304  0.5392 -0.4708 -0.3621
32545SOL    HW199642   9.085   8.020   6.283 -0.2580  0.7110 -1.0623
32545SOL    HW299643   8.937   8.044   6.301 -0.7951 -1.7529 -1.8424
32546SOL     OW99644   4.050   7.311   2.927  0.0151 -0.0235 -0.5122
32546SOL    HW199645   4.059   7.218   2.950 -1.2096 -0.4580 -1.6028
32546SOL    HW299646   4.126   7.329   2.871  0.2735 -0.3589 -0.2749
32547SOL     OW99647   5.507   4.274   1.106  0.1691  0.0910 -0.1654
32547SOL    HW199648   5.526   4.363   1.075  1.6834 -0.2316 -0.2186
32547SOL    HW299649   5.450   4.287   1.182  1.9402  1.2370  1.0327
32548SOL     OW99650  10.065   6.101   7.191 -0.9140  0.5454  0.0629
32548SOL    HW199651  10.025   6.089   7.277 -2.2102  0.0675 -0.5846
32548SOL    HW299652  10.139   6.040   7.191 -0.5893  0.9174  1.0111
32549SOL     OW99653   6.557   1.894   1.727  0.4564  0.4546  0.6014
32549SOL    HW199654   6.634   1.942   1.697 -0.5984  0.2554 -2.8781
32549SOL    HW299655   6.484   1.955   1.715 -0.4662 -0.8315 -0.6865
32550SOL     OW99656   4.633   5.937   3.458 -0.2175 -0.2716 -0.6577
32550SOL    HW199657   4.661   6.018   3.499  0.5061 -1.1147  0.5893
32550SOL    HW299658   4.688   5.930   3.380  0.7838 -0.2755  0.0173
32551SOL     OW99659   5.365   6.761   5.018  0.3482  0.2260 -0.0144
32551SOL    HW199660   5.436   6.727   4.963  1.1289  0.9688  0.4992
32551SOL    HW299661   5.394   6.741   5.108  0.2031  1.0845  0.2264
32552SOL     OW99662  10.608   8.523   4.061 -0.0148 -0.2261 -0.5395
32552SOL    HW199663  10.525   8.505   4.018 -1.5660  0.8147  1.8502
32552SOL    HW299664  10.592   8.508   4.154  1.9183  1.7467  0.2181
32553SOL     OW99665   8.318   3.441   7.996  0.2438 -0.0472  0.1649
32553SOL    HW199666   8.224   3.462   7.990  0.3937  1.5398  2.0422
32553SOL    HW299667   8.360   3.500   7.934  0.0873  0.1996  0.2908
32554SOL     OW99668   6.188   0.792   6.269 -0.1881 -0.2199 -0.1218
32554SOL    HW199669   6.266   0.843   6.293 -1.0140  0.0318  2.2610
32554SOL    HW299670   6.200   0.708   6.315 -0.7297 -0.6742 -0.7916
32555SOL     OW99671   6.859   3.580   6.365 -0.1007 -0.9947 -0.2869
32555SOL    HW199672   6.812   3.654   6.403  2.0762  0.4816 -0.2780
32555SOL    HW299673   6.845   3.508   6.426  0.9426  0.5251  1.8840
32556SOL     OW99674   9.557  10.155   2.604 -0.3765 -0.4650 -0.2273
32556SOL    HW199675   9.528  10.069   2.573 -0.3371 -1.4136  2.1892
32556SOL    HW299676   9.648  10.142   2.630 -0.4953  0.2006  0.5494
32557SOL     OW99677   2.790   5.847   9.177 -0.2851  0.0480 -0.9793
32557SOL    HW199678   2.849   5.880   9.245  0.3743 -1.0485 -0.9827
32557SOL    HW299679   2.810   5.901   9.100 -0.4826  0.7847 -0.5199
32558SOL     OW99680   6.067   9.381   6.231 -0.2148 -0.1513  0.5777
32558SOL    HW199681   6.141   9.367   6.171 -0.5765 -3.1344  0.6611
32558SOL    HW299682   5.990   9.360   6.179 -1.0109  2.2429  0.6980
32559SOL     OW99683   4.285   4.684   7.677 -0.1962  0.2655  0.1474
32559SOL    HW199684   4.307   4.766   7.720 -1.1827  1.6366 -1.7923
32559SOL    HW299685   4.358   4.668   7.617  1.1438 -1.5944  2.1536
32560SOL     OW99686   4.337  10.796   3.416 -0.6869 -0.0074  0.5024
32560SOL    HW199687   4.361  10.722   3.360 -0.1697  2.2652 -2.5398
32560SOL    HW299688   4.403  10.797   3.485  1.8478 -0.0211 -1.7863
32561SOL     OW99689   6.808   0.453   2.823 -1.0775  0.1650  0.1621
32561SOL    HW199690   6.877   0.409   2.775  0.1161 -0.1028  2.0062
32561SOL    HW299691   6.852   0.528   2.864 -2.7270  2.2642 -1.6564
32562SOL     OW99692   7.688   7.236   2.262  0.1321  0.6995 -0.1958
32562SOL    HW199693   7.666   7.327   2.241  0.8818  0.9163 -0.0530
32562SOL    HW299694   7.780   7.238   2.287  0.4915 -0.2887 -1.3126
32563SOL     OW99695   2.986   3.051   0.106 -0.4218 -0.1834  0.5043
32563SOL    HW199696   2.924   3.123   0.115 -0.5731 -0.4053  1.2754
32563SOL    HW299697   2.962   3.010   0.023 -0.1570  0.8108 -0.0861
32564SOL     OW99698   1.434   9.769   8.354 -0.4760  0.3070 -0.0896
32564SOL    HW199699   1.449   9.746   8.262  1.2029 -1.0805  0.5002
32564SOL    HW299700   1.386   9.694   8.390  1.4228 -0.5111  0.8417
32565SOL     OW99701   0.224   1.040   0.703  0.1449 -1.1883  0.0967
32565SOL    HW199702   0.228   0.944   0.707 -1.8630 -1.3256  0.1700
32565SOL    HW299703   0.209   1.059   0.610  0.5387 -0.9513  0.0838
32566SOL     OW99704   3.451   8.763   7.165  0.8286 -0.5386  0.1697
32566SOL    HW199705   3.538   8.725   7.163  1.0609  0.0157 -1.0386
32566SOL    HW299706   3.392   8.689   7.149  1.2050 -0.6124 -0.9922
32567SOL     OW99707   9.221   7.847   9.496  0.0191 -0.2473 -0.1960
32567SOL    HW199708   9.206   7.892   9.413  1.3132 -0.4189 -0.5312
32567SOL    HW299709   9.316   7.846   9.507 -0.0779 -1.1972  0.7510
32568SOL     OW99710   0.866   2.892   3.817  0.3272  0.3645 -0.2492
32568SOL    HW199711   0.869   2.832   3.892 -1.5809 -2.0755 -1.9514
32568SOL    HW299712   0.957   2.895   3.787  0.4467 -2.2332 -0.4159
32569SOL     OW99713   8.576  10.465   4.220 -0.1297  0.5096 -0.3864
32569SOL    HW199714   8.561  10.386   4.271  1.5427  0.9177  0.8055
32569SOL    HW299715   8.493  10.480   4.174  0.0127 -2.8227 -1.9855
32570SOL     OW99716   6.101  11.100   1.470 -0.7130 -0.1521  0.5704
32570SOL    HW199717   6.154  11.141   1.538  0.2143  0.6569 -0.5932
32570SOL    HW299718   6.037  11.047   1.517  1.8781 -2.1780  2.0379
32571SOL     OW99719   8.171   4.185   1.956 -0.1732 -0.1203 -0.0395
32571SOL    HW199720   8.210   4.171   2.042 -0.6795  0.3527  0.2684
32571SOL    HW299721   8.077   4.172   1.969 -0.1411 -1.3941 -0.8079
32572SOL     OW99722   6.663   3.966   9.772 -0.0956  0.2173 -0.0137
32572SOL    HW199723   6.737   4.024   9.753 -0.8229  1.0151 -0.4978
32572SOL    HW299724   6.622   3.950   9.688 -1.2554  0.8818  0.3989
32573SOL     OW99725   8.754  10.306   0.003 -0.5661  0.4127  0.1162
32573SOL    HW199726   8.667  10.276   0.029 -1.6105  0.4770 -2.8769
32573SOL    HW299727   8.740  10.395  -0.031  0.6262  0.4086 -0.4477
32574SOL     OW99728   7.792   3.684   9.292 -0.1869  0.1976 -0.3991
32574SOL    HW199729   7.835   3.611   9.249  0.2544  1.0558 -1.4454
32574SOL    HW299730   7.705   3.687   9.253  0.0318  0.6492 -0.8595
32575SOL     OW99731   6.860   2.264   9.066 -0.4511 -0.2705  0.3859
32575SOL    HW199732   6.923   2.194   9.085 -0.8419 -1.1123 -1.1756
32575SOL    HW299733   6.853   2.263   8.970 -1.8092  0.7284  0.4533
32576SOL     OW99734   7.804   8.170   3.337 -0.4866  0.0348  0.6130
32576SOL    HW199735   7.879   8.166   3.396  1.4590 -0.3543 -1.7041
32576SOL    HW299736   7.826   8.241   3.276 -1.3414 -0.9494 -0.8969
32577SOL     OW99737   2.970   0.739   1.461 -0.4686  0.6033 -0.6694
32577SOL    HW199738   2.950   0.715   1.551  0.2678  0.7205 -0.4679
32577SOL    HW299739   2.894   0.708   1.410 -0.1729 -0.9113 -0.2329
32578SOL     OW99740   2.546   3.070   0.627 -0.1615  0.2040  0.8512
32578SOL    HW199741   2.527   3.030   0.542  0.1168  1.0314  0.3850
32578SOL    HW299742   2.559   2.996   0.686  1.5796 -0.4515 -0.2566
32579SOL     OW99743   8.573   9.136   1.667  0.6552  0.1684 -0.2531
32579SOL    HW199744   8.492   9.186   1.669  0.6277  0.1279 -0.3488
32579SOL    HW299745   8.556   9.060   1.722  1.0119  0.7376  0.6804
32580SOL     OW99746   2.233  10.676   5.728  0.6191  0.1231  0.2141
32580SOL    HW199747   2.289  10.745   5.763 -0.5128  0.1638  2.1137
32580SOL    HW299748   2.165  10.722   5.680  0.8138  0.2342  0.0453
32581SOL     OW99749   3.110   2.897   5.329  0.1405  0.0235 -0.5155
32581SOL    HW199750   3.057   2.818   5.314  1.7925 -1.5117  1.2429
32581SOL    HW299751   3.045   2.967   5.341 -1.4789 -1.5109  0.2286
32582SOL     OW99752  10.916   1.934   9.359 -0.2185  0.1219  0.1281
32582SOL    HW199753  10.932   2.022   9.394 -1.3571  0.9821 -1.3788
32582SOL    HW299754  10.936   1.941   9.266 -3.8126 -0.1434 -0.7978
32583SOL     OW99755   6.361   5.228   3.958  0.4664  0.1691 -0.2959
32583SOL    HW199756   6.299   5.219   4.031  0.0951  0.6736 -0.5449
32583SOL    HW299757   6.344   5.152   3.903 -0.2228  0.5182 -0.5760
32584SOL     OW99758   6.388   8.233   3.312 -0.3960 -0.1636  0.7348
32584SOL    HW199759   6.484   8.234   3.309 -0.3697  2.7327 -0.2129
32584SOL    HW299760   6.361   8.202   3.226 -0.1842  2.9950 -0.5924
32585SOL     OW99761  10.571   9.498  10.835  0.3408 -0.5423  0.4777
32585SOL    HW199762  10.573   9.594  10.832  1.3519 -0.5080  1.6690
32585SOL    HW299763  10.659   9.471  10.810 -0.2557 -1.2363 -1.0274
32586SOL     OW99764   1.390  11.009  10.508 -0.3627  0.0080  0.4638
32586SOL    HW199765   1.357  10.939  10.563  0.6344  0.3036  1.4837
32586SOL    HW299766   1.385  11.087  10.564  4.4750 -0.3351  1.7848
32587SOL     OW99767   5.164   6.291   6.834  0.5000 -0.4580  0.1298
32587SOL    HW199768   5.142   6.199   6.818  0.0662 -0.4098  0.4435
32587SOL    HW299769   5.259   6.292   6.843  0.6876 -0.6361 -1.5111
32588SOL     OW99770   2.679   7.995   1.698 -0.2393 -0.2877  0.1923
32588SOL    HW199771   2.729   7.915   1.717 -2.1019 -1.5663 -0.0962
32588SOL    HW299772   2.747   8.062   1.683  1.4008 -1.0418  3.3579
32589SOL     OW99773   0.372   7.576   8.440  0.2685 -0.3629  0.6309
32589SOL    HW199774   0.418   7.554   8.359  0.3052 -1.5503  0.9631
32589SOL    HW299775   0.378   7.672   8.445  1.1803 -0.3585 -0.2227
32590SOL     OW99776   9.932   6.430   8.442 -0.0217  0.1746  0.4224
32590SOL    HW199777  10.001   6.474   8.493  0.6628  0.0902 -0.4021
32590SOL    HW299778   9.910   6.493   8.373 -0.0007 -0.2315  0.0401
32591SOL     OW99779  10.613   6.167  10.856  0.6031  0.3268 -0.3699
32591SOL    HW199780  10.614   6.172  10.760 -1.1568 -1.5949 -0.5543
32591SOL    HW299781  10.533   6.213  10.881  0.5757  0.0263  0.1028
32592SOL     OW99782   8.531  10.451   7.578 -0.0340 -0.2208 -0.8466
32592SOL    HW199783   8.521  10.380   7.516  1.3981 -1.6862  0.4878
32592SOL    HW299784   8.588  10.415   7.646 -2.5344  0.8052  2.0252
32593SOL     OW99785   9.964   1.094   5.193 -0.0940  0.2321 -0.3917
32593SOL    HW199786  10.058   1.084   5.211 -0.2253 -1.1400 -0.4088
32593SOL    HW299787   9.934   1.158   5.258  0.0814 -2.2348  2.2861
32594SOL     OW99788   9.436   9.380   7.329 -0.1069  0.1240  0.4274
32594SOL    HW199789   9.467   9.349   7.414 -1.0367  1.6617  1.3790
32594SOL    HW299790   9.346   9.410   7.345 -0.6224 -0.3766 -1.3120
32595SOL     OW99791   3.874   1.315   2.312  0.4475 -0.2450 -0.3059
32595SOL    HW199792   3.793   1.279   2.348  0.0665  0.4405 -0.4591
32595SOL    HW299793   3.862   1.307   2.217  0.1115  0.7934 -0.3607
32596SOL     OW99794   3.953   0.646  10.845  0.6788 -0.4136 -0.3636
32596SOL    HW199795   3.870   0.692  10.837  0.7914 -0.2428 -0.5528
32596SOL    HW299796   3.952   0.611  10.934  0.0712 -1.0587 -0.6100
32597SOL     OW99797   4.003   7.199   0.483  0.3220 -0.2900 -0.3991
32597SOL    HW199798   4.090   7.161   0.466  0.2906  0.0726 -1.4893
32597SOL    HW299799   4.007   7.285   0.441  0.2223  0.7378  1.5717
32598SOL     OW99800   7.072   8.650   6.705 -0.6834 -0.2442 -0.1293
32598SOL    HW199801   7.150   8.637   6.650 -1.1302  2.1461 -1.4724
32598SOL    HW299802   7.105   8.645   6.795  0.9582  0.3286 -0.6642
32599SOL     OW99803   4.425   5.442   5.790  0.2211  0.2214 -1.0470
32599SOL    HW199804   4.391   5.353   5.785 -0.6468  0.6021 -2.6680
32599SOL    HW299805   4.368   5.493   5.732  1.6543  1.5254 -1.3881
32600SOL     OW99806   2.125   7.627   2.146 -0.1927  0.0212  0.4608
32600SOL    HW199807   2.184   7.553   2.162 -0.5901 -0.3322  0.3179
32600SOL    HW299808   2.101   7.619   2.054  0.3424  0.7641  0.2457
32601SOL     OW99809   4.950   0.604   2.164  0.5963 -0.0196  0.4777
32601SOL    HW199810   4.992   0.576   2.245  0.5670 -0.1319  0.4543
32601SOL    HW299811   4.924   0.523   2.121  0.0649  0.0534  0.6448
32602SOL     OW99812   1.705   4.135   9.793 -0.0662 -0.6096 -0.5496
32602SOL    HW199813   1.703   4.110   9.886 -1.9052  0.9893 -0.0878
32602SOL    HW299814   1.716   4.230   9.795 -0.3997 -0.5290 -1.9583
32603SOL     OW99815   3.574   9.930  10.333 -0.5869 -0.1879 -1.1026
32603SOL    HW199816   3.518   9.867  10.288 -0.4163  0.0882 -1.7165
32603SOL    HW299817   3.592   9.890  10.418 -2.1867 -0.0191 -0.6583
32604SOL     OW99818   8.199   1.094   2.657 -0.6627 -0.1589 -0.2012
32604SOL    HW199819   8.240   1.015   2.692 -0.8397 -1.7838 -3.2515
32604SOL    HW299820   8.252   1.166   2.692  0.8509 -1.7664  1.0035
32605SOL     OW99821   4.359   6.202   3.038  0.4390 -0.5953  0.5505
32605SOL    HW199822   4.328   6.200   3.129  0.6641 -1.9556  0.6170
32605SOL    HW299823   4.437   6.258   3.041 -1.7977  2.8485  0.3875
32606SOL     OW99824   2.057   1.777   8.205 -0.0023  0.2257 -0.0819
32606SOL    HW199825   2.145   1.746   8.226  0.8276  0.9464 -2.2593
32606SOL    HW299826   2.000   1.705   8.231  0.9026  0.6233  3.5385
32607SOL     OW99827   7.804   8.934   5.276 -0.1385 -0.0666  0.4600
32607SOL    HW199828   7.821   9.004   5.339 -0.2471  0.2872  0.1038
32607SOL    HW299829   7.884   8.930   5.222 -1.7348  2.9579 -2.5083
32608SOL     OW99830   5.362   2.973   7.593 -0.5556  0.0764 -0.1375
32608SOL    HW199831   5.279   3.021   7.589  0.0536  1.1533 -0.2816
32608SOL    HW299832   5.425   3.036   7.629  0.4135 -0.4031 -0.9315
32609SOL     OW99833   9.254   9.860  10.090  0.3139 -0.6070 -0.1153
32609SOL    HW199834   9.225   9.913  10.016  0.8053  0.1099  0.1971
32609SOL    HW299835   9.181   9.801  10.107 -0.2108 -0.0882 -0.5242
32610SOL     OW99836   6.442  10.784   6.367 -0.3451  0.9755 -0.3794
32610SOL    HW199837   6.383  10.783   6.292  0.9264  0.4923 -1.4148
32610SOL    HW299838   6.439  10.874   6.399  0.1298  1.5671 -1.8988
32611SOL     OW99839   5.709   7.896   9.200  0.4601 -0.3547 -0.4542
32611SOL    HW199840   5.656   7.876   9.122 -0.7219 -2.7928  0.8639
32611SOL    HW299841   5.777   7.829   9.199 -0.4540 -1.3808  1.3309
32612SOL     OW99842   5.647   1.978   4.560  0.4677  0.5203  0.0619
32612SOL    HW199843   5.623   1.997   4.650 -0.2310 -0.2830  0.0589
32612SOL    HW299844   5.743   1.981   4.560  0.4999 -0.0429  0.9673
32613SOL     OW99845   5.896   4.284   9.344 -0.4836  0.4279  0.3901
32613SOL    HW199846   5.841   4.207   9.326 -0.7194  1.0219 -1.6259
32613SOL    HW299847   5.873   4.308   9.433 -1.4963 -0.9613  0.5521
32614SOL     OW99848   9.838   1.367   5.626  0.8502 -0.1148 -0.5668
32614SOL    HW199849   9.783   1.440   5.654 -3.0990 -2.3362 -1.7772
32614SOL    HW299850   9.822   1.298   5.690  2.3058 -0.8932 -0.9820
32615SOL     OW99851  10.494   5.011   8.213 -0.8195  0.4398  0.3112
32615SOL    HW199852  10.448   4.927   8.221  2.3952 -1.5474 -0.3306
32615SOL    HW299853  10.504   5.024   8.119  1.0901  0.0640  0.4263
32616SOL     OW99854   9.240   8.403   0.160 -0.0767 -0.9911 -0.2784
32616SOL    HW199855   9.308   8.451   0.111 -1.4797  0.8794 -0.5116
32616SOL    HW299856   9.247   8.313   0.128  0.5353 -0.2913 -2.3161
32617SOL     OW99857   0.179   4.542   4.422  0.8928 -0.1350 -0.4602
32617SOL    HW199858   0.217   4.559   4.509  1.2259 -0.2373 -0.5851
32617SOL    HW299859   0.253   4.550   4.362  0.8533 -1.0182 -0.6375
32618SOL     OW99860   4.043   4.063   5.991 -0.0333 -0.7363 -0.1492
32618SOL    HW199861   4.100   4.005   5.941  0.1562 -1.1496  0.5325
32618SOL    HW299862   3.959   4.061   5.944 -0.0570 -1.6292 -0.0823
32619SOL     OW99863   0.407  10.935   5.277 -0.5118  0.2248  0.3109
32619SOL    HW199864   0.457  10.987   5.340 -1.6601 -1.4670  2.7805
32619SOL    HW299865   0.318  10.934   5.313 -1.2824 -0.5820 -1.5239
32620SOL     OW99866  10.281   8.790   1.404  0.4304  0.1945 -0.1519
32620SOL    HW199867  10.212   8.730   1.428 -0.9446  1.3995 -0.9345
32620SOL    HW299868  10.275   8.797   1.308  1.5691  0.3848 -0.2250
32621SOL     OW99869   2.819  10.611   2.683  0.1338 -0.5391 -0.0368
32621SOL    HW199870   2.782  10.552   2.749 -2.3141  0.8972  0.0097
32621SOL    HW299871   2.821  10.560   2.603  0.1519 -1.3437  0.4697
32622SOL     OW99872   3.152   3.214   2.584 -0.0887 -0.2714 -0.1911
32622SOL    HW199873   3.175   3.238   2.674  1.4196  0.9843 -0.8582
32622SOL    HW299874   3.103   3.132   2.592  0.6818 -0.5928  1.7137
32623SOL     OW99875   5.314   3.915   2.438  0.0864 -0.4785 -0.0025
32623SOL    HW199876   5.283   3.891   2.525 -0.9280 -0.5268 -0.3657
32623SOL    HW299877   5.251   3.875   2.378  0.9580 -0.7294 -0.7774
32624SOL     OW99878   8.510   0.150   9.707 -0.3604  0.1626  0.0769
32624SOL    HW199879   8.585   0.127   9.652 -0.6825  0.0577 -0.3170
32624SOL    HW299880   8.550   0.177   9.790  0.0346 -3.4109  1.2188
32625SOL     OW99881   5.024   9.621   4.922 -0.1251  0.1945 -0.3080
32625SOL    HW199882   5.034   9.641   4.829  1.0882 -1.4175 -0.5752
32625SOL    HW299883   5.098   9.563   4.942 -1.2966 -0.8495  1.2532
32626SOL     OW99884   6.838   3.259   7.670  0.4557 -0.5459 -0.3824
32626SOL    HW199885   6.801   3.335   7.625 -1.8169 -2.7329 -2.4691
32626SOL    HW299886   6.817   3.274   7.762  1.4458  2.0148 -0.4838
32627SOL     OW99887   7.240   4.978   3.422  0.2102 -0.6322  0.2253
32627SOL    HW199888   7.178   4.919   3.466 -0.7958  1.3002  1.5333
32627SOL    HW299889   7.316   4.979   3.480 -0.5537  0.8132  1.2597
32628SOL     OW99890   2.586   1.640   9.302 -0.1906 -0.7365 -0.0711
32628SOL    HW199891   2.631   1.555   9.308 -0.5683 -0.8766  0.9788
32628SOL    HW299892   2.531   1.633   9.223 -1.5101 -2.1246  0.9182
32629SOL     OW99893   4.180   3.020  10.835 -0.5201  0.5733 -0.4813
32629SOL    HW199894   4.089   3.016  10.805 -0.5960  1.0095 -0.3238
32629SOL    HW299895   4.198   3.114  10.842  0.1423  0.4988 -1.1074
32630SOL     OW99896   7.264   0.200   8.939 -0.7421 -0.0711  0.1869
32630SOL    HW199897   7.200   0.253   8.987 -2.1634 -0.5713 -1.0464
32630SOL    HW299898   7.210   0.146   8.881  0.8287 -0.4778 -0.9533
32631SOL     OW99899   7.405   9.217   2.231 -0.0432 -0.0946 -0.1168
32631SOL    HW199900   7.344   9.290   2.229 -1.2557 -1.0875 -1.2386
32631SOL    HW299901   7.400   9.185   2.322  0.1748  0.9111  0.2664
32632SOL     OW99902  10.409   0.035   5.624 -0.0673 -0.0831 -0.3158
32632SOL    HW199903  10.452   0.081   5.552  0.1791 -0.0689 -0.1603
32632SOL    HW299904  10.478  -0.019   5.663 -0.3002 -0.4165 -0.3574
32633SOL     OW99905   1.095   9.898  10.432  0.0804 -0.0796 -0.4712
32633SOL    HW199906   1.007   9.935  10.430 -1.2034 -2.8229 -0.1789
32633SOL    HW299907   1.153   9.969  10.403 -2.3543  1.4172 -1.9694
32634SOL     OW99908  10.394   5.492   8.755 -0.0889 -0.1772  0.7705
32634SOL    HW199909  10.425   5.578   8.726 -0.6968  0.4199  1.8132
32634SOL    HW299910  10.471   5.435   8.749  0.3116  0.4302  0.0345
32635SOL     OW99911   9.621   7.990   1.002  0.4639 -0.9141  0.1332
32635SOL    HW199912   9.613   7.933   0.925  2.6643 -0.3756 -0.5674
32635SOL    HW299913   9.554   8.057   0.989  0.3326 -1.2286 -0.9481
32636SOL     OW99914   7.451   7.585   2.715 -0.3473  0.0293  0.1327
32636SOL    HW199915   7.471   7.619   2.803  0.6157 -0.6056  0.1783
32636SOL    HW299916   7.461   7.661   2.657 -0.4486  0.3312  0.5055
32637SOL     OW99917   9.514   8.343   3.039 -0.3845 -0.3527  0.0383
32637SOL    HW199918   9.584   8.407   3.055  1.0118 -1.5534 -0.9358
32637SOL    HW299919   9.489   8.312   3.125  0.0929  0.3150  0.4271
32638SOL     OW99920   6.165   0.745   2.671  0.2869 -0.1185 -0.3022
32638SOL    HW199921   6.185   0.732   2.579 -4.8602 -0.1284 -1.7115
32638SOL    HW299922   6.127   0.661   2.699 -3.4610  1.4581 -0.0515
32639SOL     OW99923   5.742   4.517   9.277 -0.6192  0.9233 -0.1950
32639SOL    HW199924   5.752   4.523   9.182  2.6951  1.8100  0.0626
32639SOL    HW299925   5.782   4.433   9.301  0.0355  1.4045  0.4843
32640SOL     OW99926   0.009   7.280   7.874  0.3248  0.7852  0.5743
32640SOL    HW199927   0.036   7.199   7.831 -1.0110  0.3114  0.5895
32640SOL    HW299928   0.090   7.330   7.883  0.7025  0.9061 -2.4568
32641SOL     OW99929   6.323   4.327   9.839  0.1699  0.5938 -0.4123
32641SOL    HW199930   6.313   4.379   9.919  0.8952  0.7138 -0.3900
32641SOL    HW299931   6.239   4.282   9.829 -0.6673  2.1400 -0.7067
32642SOL     OW99932   3.839   6.353   0.144 -0.5046 -0.7688 -0.0515
32642SOL    HW199933   3.902   6.417   0.176 -1.2656  0.5873 -1.1463
32642SOL    HW299934   3.755   6.380   0.182 -0.3753 -3.0857  2.1447
32643SOL     OW99935   5.103   4.855   2.661 -0.1855  0.2199  0.1785
32643SOL    HW199936   5.171   4.894   2.606 -0.9945  2.3589  0.5990
32643SOL    HW299937   5.125   4.883   2.750  0.2973 -1.9836  0.8012
32644SOL     OW99938   2.225   9.055  10.547 -0.1150 -0.5173 -0.4051
32644SOL    HW199939   2.318   9.063  10.523 -0.1246 -2.4622 -1.2656
32644SOL    HW299940   2.179   9.107  10.481  0.3033 -0.1660 -0.4280
32645SOL     OW99941   6.596   6.846   9.550  0.1431 -0.5332  0.1089
32645SOL    HW199942   6.501   6.848   9.549  0.1135 -0.7134 -1.7983
32645SOL    HW299943   6.623   6.937   9.536  0.2935 -0.3095  1.7053
32646SOL     OW99944   9.174   4.146  10.351  0.1657 -0.1246  0.3367
32646SOL    HW199945   9.203   4.116  10.438 -0.2992  0.0392  0.5522
32646SOL    HW299946   9.084   4.175  10.365 -0.7311 -2.2023 -0.6546
32647SOL     OW99947   7.577   8.728   6.786  0.4353  0.3363 -0.0299
32647SOL    HW199948   7.511   8.737   6.718  0.5712  1.1107 -0.0664
32647SOL    HW299949   7.656   8.697   6.740 -0.5517 -3.2462  0.3623
32648SOL     OW99950  10.064   9.169  10.576 -0.7004  0.1895 -0.0223
32648SOL    HW199951  10.058   9.250  10.526  0.9712  1.4275  1.6345
32648SOL    HW299952  10.136   9.121  10.534 -1.3628 -0.2369 -0.6953
32649SOL     OW99953   4.134   7.631   2.942  0.0768  0.0213 -0.5714
32649SOL    HW199954   4.137   7.697   2.872  0.7125  2.8019  1.8803
32649SOL    HW299955   4.040   7.621   2.961 -0.0151  0.2834 -0.8657
32650SOL     OW99956   2.580   8.946  10.236  0.3410  0.1502 -0.2091
32650SOL    HW199957   2.580   9.035  10.272  0.8255 -0.1257  0.4922
32650SOL    HW299958   2.601   8.890  10.310 -2.9013 -0.8815  0.0822
32651SOL     OW99959   1.641   4.647   8.088  1.0042  0.6679  0.0664
32651SOL    HW199960   1.616   4.554   8.093  0.9444  0.7143  0.8466
32651SOL    HW299961   1.596   4.680   8.010 -0.6479  0.5148  0.9035
32652SOL     OW99962   9.895   9.105   3.281  0.1574  0.0686 -0.0711
32652SOL    HW199963   9.936   9.137   3.200 -0.4813 -0.9813 -0.8369
32652SOL    HW299964   9.922   9.013   3.287  1.6409  0.5594  1.8760
32653SOL     OW99965   3.972   5.326   2.646  0.2481 -0.3918  0.4750
32653SOL    HW199966   3.943   5.310   2.556 -0.6427 -0.2093  0.7175
32653SOL    HW299967   3.893   5.354   2.692  0.9486  0.7731  1.0221
32654SOL     OW99968   8.911   5.697   7.538 -0.6231  0.0177  0.5484
32654SOL    HW199969   9.001   5.666   7.535  0.0350  1.8742 -0.7014
32654SOL    HW299970   8.880   5.673   7.626 -0.2127 -3.9288 -0.2282
32655SOL     OW99971   0.833   4.029   8.471 -0.7664  0.1465 -0.3673
32655SOL    HW199972   0.900   4.079   8.425 -0.2493 -1.1118 -1.0536
32655SOL    HW299973   0.766   4.011   8.405 -0.7366 -0.4177 -0.2509
32656SOL     OW99974   2.888   1.339   3.710  0.1110  0.1948  0.4982
32656SOL    HW199975   2.852   1.414   3.756 -0.1366  0.2665  0.1913
32656SOL    HW299976   2.980   1.336   3.737 -0.4841 -0.9897  2.6111
32657SOL     OW99977   1.503   0.066   8.702 -0.1452  0.1722 -0.2091
32657SOL    HW199978   1.462  -0.006   8.654 -2.2037  1.0262  0.1522
32657SOL    HW299979   1.431   0.127   8.720  1.1328  1.3175  1.3291
32658SOL     OW99980   2.687   7.459   5.717 -0.1472 -0.5941  0.4850
32658SOL    HW199981   2.781   7.476   5.719 -0.6413  3.0596  2.7015
32658SOL    HW299982   2.667   7.425   5.804 -1.1463  1.0205  0.9204
32659SOL     OW99983   3.934   9.065  10.956  0.2357 -0.1371  0.4755
32659SOL    HW199984   3.924   9.155  10.987  2.0911  0.2080  0.2062
32659SOL    HW299985   4.014   9.067  10.904 -2.2960 -0.7792 -3.9704
32660SOL     OW99986   1.520   5.824   7.847 -0.3399 -0.3625 -0.2887
32660SOL    HW199987   1.440   5.786   7.883 -0.3220 -0.2227 -0.1023
32660SOL    HW299988   1.543   5.765   7.775  0.2219 -1.2620  0.6004
32661SOL     OW99989   8.002   9.094   9.755 -0.3458  0.3875 -0.4422
32661SOL    HW199990   8.067   9.046   9.808 -0.1873  0.6633 -0.3857
32661SOL    HW299991   8.002   9.182   9.792 -0.5261  0.4714 -0.6471
32662SOL     OW99992   2.475  10.283   3.415 -0.4076 -0.2087  0.2350
32662SOL    HW199993   2.384  10.259   3.397 -0.4014  0.3973 -0.6527
32662SOL    HW299994   2.519  10.199   3.430 -1.1473 -0.4914  0.9154
32663SOL     OW99995   0.169   2.856   3.359 -0.3549 -0.6969 -0.1355
32663SOL    HW199996   0.220   2.786   3.319 -2.8187 -2.6203 -0.1479
32663SOL    HW299997   0.107   2.883   3.291  1.1357  2.2620 -0.4623
32664SOL     OW99998  10.576   9.874   0.242  0.1171 -0.2887 -0.1679
32664SOL    HW199999  10.556   9.957   0.200  0.0401  0.2375  0.9034
32664SOL    HW2    0  10.672   9.868   0.238  0.0374 -1.5027 -2.7661
32665SOL     OW    1  11.058   2.891   0.983  0.6248 -0.0161  0.0422
32665SOL    HW1    2  11.103   2.975   0.978  0.1535  0.1751 -1.5139
32665SOL    HW2    3  11.126   2.826   0.968  1.1086  0.0088  1.8677
32666SOL     OW    4   5.070   7.985   1.492 -0.4425 -0.5961 -0.7256
32666SOL    HW1    5   5.110   8.067   1.464  1.1756 -1.6706 -1.7674
32666SOL    HW2    6   5.022   7.954   1.415 -0.3082 -1.0469 -0.6322
32667SOL     OW    7   9.515   6.802   0.559  0.3324  0.5001 -0.1633
32667SOL    HW1    8   9.465   6.721   0.561 -1.3606  1.4738 -1.0020
32667SOL    HW2    9   9.605   6.775   0.577  0.0101 -1.6914 -1.4794
32668SOL     OW   10   5.148   8.868   9.750  0.7455  0.0472  0.0961
32668SOL    HW1   11   5.183   8.907   9.670 -1.2261  0.8298 -0.4538
32668SOL    HW2   12   5.103   8.788   9.721 -0.1722  0.4478  0.3529
32669SOL     OW   13  10.886   2.535   1.185 -0.0881 -0.1471  0.2228
32669SOL    HW1   14  10.900   2.536   1.279  0.7221 -1.4870  0.1358
32669SOL    HW2   15  10.938   2.461   1.153  1.0280  1.2775 -1.4893
32670SOL     OW   16   6.656   0.092   5.166 -0.4606 -0.2446  0.3207
32670SOL    HW1   17   6.694   0.174   5.135 -1.1438  0.0100  0.1297
32670SOL    HW2   18   6.636   0.043   5.086 -2.8182  0.6830  0.2449
32671SOL     OW   19   4.359   4.380  10.417 -0.4517 -0.0099 -0.5795
32671SOL    HW1   20   4.292   4.364  10.352  0.6008  0.5630 -1.8551
32671SOL    HW2   21   4.313   4.426  10.488 -1.4770 -0.0083 -1.2267
32672SOL     OW   22   3.792   7.181   5.251 -0.2347 -0.1910  0.6246
32672SOL    HW1   23   3.881   7.152   5.233 -0.5369 -0.7577 -0.0400
32672SOL    HW2   24   3.779   7.255   5.192 -0.1706 -0.0515  0.7866
32673SOL     OW   25   9.628   4.424   1.315 -0.1655 -0.0298 -0.4037
32673SOL    HW1   26   9.711   4.455   1.279  0.3393 -1.0786 -0.1783
32673SOL    HW2   27   9.589   4.373   1.244 -0.8453  0.8318 -0.6678
32674SOL     OW   28   3.144   5.273   0.015 -0.5542  0.2987 -0.1364
32674SOL    HW1   29   3.190   5.192   0.037 -0.1931  0.4754 -0.2363
32674SOL    HW2   30   3.058   5.244  -0.017 -0.7895  0.0005  0.7401
32675SOL     OW   31   2.821  10.543   2.424 -0.0711  0.3157 -0.6152
32675SOL    HW1   32   2.865  10.627   2.407 -2.1991  2.0098  1.4523
32675SOL    HW2   33   2.865  10.481   2.366 -0.1720  3.3633 -4.4302
32676SOL     OW   34  10.410  10.901   1.738  0.6766 -0.8798 -0.1377
32676SOL    HW1   35  10.323  10.871   1.765  0.7394 -0.0763  1.0062
32676SOL    HW2   36  10.461  10.905   1.819  1.8328 -1.4703 -0.8094
32677SOL     OW   37   0.226   2.658   5.492  0.1508  0.2381 -0.4476
32677SOL    HW1   38   0.223   2.640   5.398  3.1025  0.0318 -0.6096
32677SOL    HW2   39   0.317   2.642   5.516 -0.5353  0.2177  2.4930
32678SOL     OW   40   4.797   0.983   6.067  0.4125  0.0738 -0.0029
32678SOL    HW1   41   4.777   0.890   6.058  0.4580  0.1236 -0.6153
32678SOL    HW2   42   4.828   1.010   5.981  1.1441  0.4753  0.3727
32679SOL     OW   43   1.246   1.827   2.934 -0.6232 -0.4757  0.1229
32679SOL    HW1   44   1.270   1.800   2.846 -0.0156 -0.5144  0.2975
32679SOL    HW2   45   1.325   1.866   2.970 -1.1893  0.6004  0.2472
32680SOL     OW   46   4.526   5.252   8.645 -0.0604  0.4367  0.0061
32680SOL    HW1   47   4.615   5.229   8.673 -0.2618  0.3722  0.6131
32680SOL    HW2   48   4.498   5.319   8.707 -0.5419  0.2530 -0.0072
32681SOL     OW   49  10.058   7.500   2.291  0.2758  0.1618 -0.2798
32681SOL    HW1   50   9.971   7.516   2.254  1.1266  1.0399 -2.0731
32681SOL    HW2   51  10.060   7.407   2.310 -1.9143  0.5133  2.2926
32682SOL     OW   52  10.220   1.799   3.798 -0.2023 -0.4444 -0.8366
32682SOL    HW1   53  10.126   1.782   3.804  0.3969 -3.7806  3.1159
32682SOL    HW2   54  10.234   1.875   3.853 -0.4727 -0.2819 -0.9846
32683SOL     OW   55  10.499   0.463   5.712  0.1638  0.1325 -0.0052
32683SOL    HW1   56  10.541   0.517   5.779 -0.6819  0.3660  0.3435
32683SOL    HW2   57  10.518   0.508   5.630  1.8907 -0.5743 -0.0474
32684SOL     OW   58   8.750   7.015   6.908  0.3709 -0.3440  0.5245
32684SOL    HW1   59   8.716   7.075   6.842  0.7888 -1.1829 -0.4912
32684SOL    HW2   60   8.745   7.064   6.990 -1.5429  0.2115  0.1355
32685SOL     OW   61   8.693   3.456   9.854 -0.2357 -0.1426  0.2450
32685SOL    HW1   62   8.697   3.550   9.835 -0.8708  0.0369  0.9575
32685SOL    HW2   63   8.774   3.437   9.902  2.7820 -1.1232 -4.5413
32686SOL     OW   64   9.223   3.307   9.889  0.6204 -0.4650  0.0850
32686SOL    HW1   65   9.224   3.255   9.970 -1.2209  0.9193  1.0897
32686SOL    HW2   66   9.161   3.262   9.832  1.7138 -1.2880 -0.5051
32687SOL     OW   67   0.697   7.285   4.941  0.1171  0.0005 -0.1466
32687SOL    HW1   68   0.609   7.296   4.977 -0.5422 -1.2459 -1.2843
32687SOL    HW2   69   0.727   7.201   4.975  0.1932 -0.3559 -1.0563
32688SOL     OW   70   2.401   6.677  11.060  0.3023  0.1776 -0.1246
32688SOL    HW1   71   2.491   6.708  11.050  1.4227 -3.1623 -1.7095
32688SOL    HW2   72   2.382   6.630  10.979 -1.9891 -1.2428  1.1310
32689SOL     OW   73   5.114   4.444   4.531 -0.0363  0.4577 -0.2565
32689SOL    HW1   74   5.037   4.459   4.587  0.7084  0.5508  0.7759
32689SOL    HW2   75   5.185   4.491   4.576 -0.1262  3.8827 -3.2293
32690SOL     OW   76   8.834   1.060  10.943  0.1541  0.0106  0.0188
32690SOL    HW1   77   8.830   1.037  10.850  0.0544  1.2369 -0.2990
32690SOL    HW2   78   8.924   1.090  10.956 -0.2979  1.4856 -0.1073
32691SOL     OW   79  11.055   2.625   4.000 -0.0734  0.1239 -0.2548
32691SOL    HW1   80  10.975   2.661   3.962 -0.3866 -0.9626 -0.6612
32691SOL    HW2   81  11.126   2.674   3.957 -0.4302 -0.7701 -1.9376
32692SOL     OW   82  10.217   9.762   6.352  0.4612 -0.0734  0.2054
32692SOL    HW1   83  10.207   9.670   6.376 -3.0011  0.2603  0.4966
32692SOL    HW2   84  10.200   9.765   6.258  0.8370  0.2513  0.1445
32693SOL     OW   85  11.045   6.793   0.551 -0.4996 -0.4900 -0.0384
32693SOL    HW1   86  11.015   6.884   0.542  0.0616 -0.1497  1.2636
32693SOL    HW2   87  11.134   6.801   0.585 -0.0606 -1.5267 -0.8830
32694SOL     OW   88   2.963  10.969  10.487 -0.0836  0.6341  0.0193
32694SOL    HW1   89   3.002  10.897  10.437 -0.3794  0.6513 -0.2426
32694SOL    HW2   90   2.971  11.044  10.429 -0.5199  0.6332 -0.0444
32695SOL     OW   91   0.314   5.443   3.473 -0.2674  1.1346  0.5690
32695SOL    HW1   92   0.384   5.500   3.501 -0.9446  2.2131  0.1411
32695SOL    HW2   93   0.269   5.417   3.553 -0.6019  2.0878  0.7069
32696SOL     OW   94   0.378   3.512   7.238  0.7612 -0.7013 -0.6851
32696SOL    HW1   95   0.310   3.453   7.270  0.4929  1.4930  3.4055
32696SOL    HW2   96   0.449   3.453   7.210 -1.1651 -2.9400 -1.2097
32697SOL     OW   97  10.261   4.486  10.663  0.5358  0.3900  0.0485
32697SOL    HW1   98  10.245   4.578  10.642 -0.2961 -0.1876 -2.0323
32697SOL    HW2   99  10.261   4.441  10.579 -2.8063 -2.0827  1.1133
32698SOL     OW  100   5.766   5.820   0.628 -0.1852  0.3886  0.1216
32698SOL    HW1  101   5.748   5.875   0.704 -1.8092 -1.8462  1.4815
32698SOL    HW2  102   5.829   5.756   0.659  0.5872  0.5747 -1.0076
32699SOL     OW  103   5.274   2.944   9.019  0.2491  0.5938 -0.2942
32699SOL    HW1  104   5.226   2.921   9.099  1.8913  0.2055  0.6289
32699SOL    HW2  105   5.342   2.877   9.011  1.3121  1.6969 -0.9468
32700SOL     OW  106   2.298   9.203   0.657  0.6548 -0.9219 -0.2523
32700SOL    HW1  107   2.267   9.142   0.724  0.9270  0.7127  1.4567
32700SOL    HW2  108   2.358   9.261   0.704  1.3005 -0.0546 -2.0635
32701SOL     OW  109   3.338   9.768   5.855  0.4445  0.6545 -0.5775
32701SOL    HW1  110   3.345   9.858   5.888 -1.2407  0.5345  0.2142
32701SOL    HW2  111   3.259   9.768   5.802  1.2380 -0.0323 -1.8004
32702SOL     OW  112   0.061   7.879   1.076  0.1800 -0.7195  0.5963
32702SOL    HW1  113   0.011   7.798   1.087 -0.2108 -0.8113 -1.5666
32702SOL    HW2  114   0.152   7.849   1.065  0.3355 -0.7164  1.7392
32703SOL     OW  115   3.670   7.704   9.763  0.4738 -0.7365 -0.2357
32703SOL    HW1  116   3.600   7.646   9.735 -0.2455  0.3755 -0.8163
32703SOL    HW2  117   3.684   7.762   9.689  3.3259 -2.0866 -0.8775
32704SOL     OW  118  10.202   5.689   9.816 -0.6684 -0.4106  0.0831
32704SOL    HW1  119  10.149   5.611   9.798  0.2745 -1.3389  1.2488
32704SOL    HW2  120  10.257   5.665   9.890  0.9442  0.7442 -0.6757
32705SOL     OW  121   2.745   3.389  10.855 -0.5481 -0.9598 -0.3743
32705SOL    HW1  122   2.689   3.364  10.781 -0.9193  0.0226 -0.4441
32705SOL    HW2  123   2.809   3.449  10.817 -0.6414 -0.5751  0.0713
32706SOL     OW  124   5.933  10.685   3.445 -0.1764  0.3347 -0.9164
32706SOL    HW1  125   5.852  10.720   3.482 -2.0612 -1.7773 -2.6863
32706SOL    HW2  126   5.999  10.697   3.513 -1.0104  5.2967 -0.6415
32707SOL     OW  127   9.543   7.765   3.590  0.7769 -0.0006 -0.5289
32707SOL    HW1  128   9.581   7.737   3.507  1.1434  1.2520 -0.8027
32707SOL    HW2  129   9.548   7.687   3.646  0.3975 -0.9007 -1.7040
32708SOL     OW  130   6.810   2.741   8.191  0.3157 -0.0165  0.5571
32708SOL    HW1  131   6.861   2.674   8.145 -0.3355 -0.1029 -0.0505
32708SOL    HW2  132   6.839   2.824   8.151 -1.6511 -0.2071 -1.4817
32709SOL     OW  133   2.159   2.612   0.529  0.8404 -0.4318  0.1488
32709SOL    HW1  134   2.252   2.618   0.507  0.2401  0.2559 -2.6525
32709SOL    HW2  135   2.135   2.523   0.504 -0.1682  0.7750 -4.1089
32710SOL     OW  136   4.985   4.126   2.530 -0.1664 -0.1613 -0.2342
32710SOL    HW1  137   4.937   4.045   2.512  0.9745 -0.7400 -0.7995
32710SOL    HW2  138   4.962   4.148   2.620  1.3174 -2.4533  0.8014
32711SOL     OW  139   6.342   9.275   0.184  0.6932 -0.2808 -0.4060
32711SOL    HW1  140   6.434   9.248   0.192  0.4477 -1.1978 -0.5722
32711SOL    HW2  141   6.336   9.311   0.095  0.8875 -0.2242 -0.3984
32712SOL     OW  142   7.857   7.281   8.960  0.1253  0.3406 -0.5098
32712SOL    HW1  143   7.825   7.360   8.916  1.2546  0.8815 -0.3837
32712SOL    HW2  144   7.796   7.213   8.933  0.8842  0.5910 -3.1241
32713SOL     OW  145   5.463   1.954   8.903 -0.4019  0.6351  0.4924
32713SOL    HW1  146   5.441   2.024   8.964 -0.2378  0.9935  0.1442
32713SOL    HW2  147   5.439   1.988   8.817 -0.8026  0.0639  0.3695
32714SOL     OW  148   8.244   7.592   9.454 -0.8200  0.3973  0.2190
32714SOL    HW1  149   8.279   7.675   9.421  1.3174 -0.7006 -0.5181
32714SOL    HW2  150   8.207   7.549   9.377  1.6442 -0.9585 -0.3109
32715SOL     OW  151   2.481   1.285   6.551  0.1559 -0.2226  0.2037
32715SOL    HW1  152   2.436   1.340   6.487 -0.1177  0.2475  0.7895
32715SOL    HW2  153   2.410   1.245   6.602  0.3787  0.1936  0.8563
32716SOL     OW  154   8.486  11.084   4.293  0.3970 -0.3567  0.3446
32716SOL    HW1  155   8.530  11.162   4.260  3.3939 -1.4959  1.2991
32716SOL    HW2  156   8.475  11.028   4.216  1.0877 -0.2277  0.1444
32717SOL     OW  157   4.411  10.355   4.280 -0.1023  0.1993  0.2062
32717SOL    HW1  158   4.413  10.270   4.324  0.4255 -0.2516 -0.6635
32717SOL    HW2  159   4.320  10.382   4.284 -0.3216 -0.5370  0.2486
32718SOL     OW  160   0.206   1.121   3.063  0.7341 -0.2721 -0.1705
32718SOL    HW1  161   0.226   1.139   2.971  0.2294  0.7480 -0.0893
32718SOL    HW2  162   0.286   1.147   3.110  1.8748 -2.8762 -0.4788
32719SOL     OW  163   3.309   3.843   1.392 -0.2650 -0.4244 -0.3790
32719SOL    HW1  164   3.242   3.815   1.454 -0.2593 -1.5474 -0.8480
32719SOL    HW2  165   3.333   3.763   1.345  0.3370  0.2385 -1.2403
32720SOL     OW  166   3.566   0.471   7.411  0.5991  0.1972  0.2566
32720SOL    HW1  167   3.652   0.512   7.401 -0.2780  2.0278 -0.1317
32720SOL    HW2  168   3.536   0.455   7.322 -0.1141  1.0500  0.3247
32721SOL     OW  169   7.111   4.191   0.844  0.4072  0.2066 -0.6156
32721SOL    HW1  170   7.097   4.258   0.912 -1.5921 -0.2122 -0.5517
32721SOL    HW2  171   7.135   4.241   0.766  1.1384  0.8195 -0.0199
32722SOL     OW  172   9.511  10.789   5.972 -0.1618 -0.2496  0.1538
32722SOL    HW1  173   9.580  10.839   5.929 -0.3380  0.0770  0.2439
32722SOL    HW2  174   9.537  10.788   6.065 -0.5467  0.3309  0.2735
32723SOL     OW  175   1.044   3.423   2.980  0.6572  0.4936 -0.3749
32723SOL    HW1  176   1.080   3.473   3.053  0.4395 -0.8300  0.6691
32723SOL    HW2  177   0.961   3.466   2.959  0.8656  1.0570 -0.0557
32724SOL     OW  178  10.837   5.966   6.785  0.0855 -0.5795  0.0960
32724SOL    HW1  179  10.879   6.026   6.848 -1.2756 -0.7380  1.2177
32724SOL    HW2  180  10.824   6.020   6.707 -3.0020  1.3840  1.7539
32725SOL     OW  181   4.334   6.621   2.773 -0.2730 -0.0915 -0.6702
32725SOL    HW1  182   4.372   6.694   2.725  0.4657  1.2639  1.7841
32725SOL    HW2  183   4.338   6.648   2.865 -5.0552 -0.8514  0.0246
32726SOL     OW  184   6.571   6.331   2.902 -0.0435  0.1364 -0.2288
32726SOL    HW1  185   6.521   6.398   2.948  1.5926  0.6236  0.9435
32726SOL    HW2  186   6.615   6.377   2.831 -0.7033 -0.1535 -0.8327
32727SOL     OW  187   6.337   0.737   1.242 -0.0422 -0.1710  0.1956
32727SOL    HW1  188   6.249   0.732   1.205 -0.3033 -3.4001  1.0033
32727SOL    HW2  189   6.390   0.774   1.172 -1.7354  0.2825 -0.9046
32728SOL     OW  190  10.167   6.756   1.270 -0.6331  0.3041  0.2391
32728SOL    HW1  191  10.234   6.753   1.201 -1.1040 -1.2029 -0.1950
32728SOL    HW2  192  10.169   6.847   1.301  1.5401  0.3464  0.1786
32729SOL     OW  193   1.090   6.112   0.008 -0.5038  0.2503 -0.2494
32729SOL    HW1  194   1.061   6.157  -0.071 -0.7904  0.7037  0.1135
32729SOL    HW2  195   1.012   6.107   0.063  0.3604  2.8887  1.4191
32730SOL     OW  196  11.045   9.119   4.426 -0.2415  0.0048 -0.0569
32730SOL    HW1  197  11.052   9.093   4.518  1.4463 -0.0632 -0.1647
32730SOL    HW2  198  11.136   9.130   4.398 -0.7806  1.6306 -1.2685
32731SOL     OW  199   7.834   9.263   4.145 -0.0559  0.1056  0.2312
32731SOL    HW1  200   7.862   9.351   4.170  1.9541 -0.7663  1.3286
32731SOL    HW2  201   7.874   9.248   4.060 -3.3001  1.4492 -1.7181
32732SOL     OW  202   8.686   6.961   2.719 -0.2772  0.1465  0.4401
32732SOL    HW1  203   8.623   6.991   2.785  1.1365 -1.0725  2.4776
32732SOL    HW2  204   8.669   6.868   2.710  0.5354  0.0080  0.2283
32733SOL     OW  205   4.806  10.105   2.183  0.4244 -0.0001  0.0907
32733SOL    HW1  206   4.768  10.099   2.095  1.7878  1.8718 -0.6877
32733SOL    HW2  207   4.896  10.075   2.172  0.4336 -0.3253  1.0087
32734SOL     OW  208   5.128   7.294   2.096 -0.0690 -0.4309 -0.0941
32734SOL    HW1  209   5.201   7.237   2.116  0.9000  1.1759  1.1847
32734SOL    HW2  210   5.099   7.327   2.181 -1.8529 -0.5069 -0.6344
32735SOL     OW  211  10.572   5.613   5.939  0.1452  0.2294  1.0466
32735SOL    HW1  212  10.605   5.673   6.007 -2.0772  3.3489 -0.3702
32735SOL    HW2  213  10.477   5.615   5.950 -0.1355 -0.9145 -0.7965
32736SOL     OW  214   1.113   2.301   1.253  0.6267 -0.2311 -0.3946
32736SOL    HW1  215   1.191   2.308   1.308  1.2764 -2.3296 -0.9628
32736SOL    HW2  216   1.090   2.208   1.255 -3.0884  0.4940  1.3631
32737SOL     OW  217  10.997   9.105   9.844 -0.1544 -0.5123  0.1890
32737SOL    HW1  218  10.963   9.177   9.789 -1.0949 -1.8354 -1.0526
32737SOL    HW2  219  10.979   9.133   9.934 -2.2630 -0.0030 -0.3348
32738SOL     OW  220   8.401   6.390   7.329  0.1377 -0.3046 -0.8807
32738SOL    HW1  221   8.352   6.442   7.265 -1.4124  0.5869  0.9488
32738SOL    HW2  222   8.351   6.309   7.338  0.6108 -0.6280 -1.1222
32739SOL     OW  223   7.049   5.324   5.526  0.8031  0.3200  0.6622
32739SOL    HW1  224   6.979   5.374   5.483  0.7513 -0.4730 -0.2169
32739SOL    HW2  225   7.006   5.244   5.556  1.3322 -0.2076  0.0527
32740SOL     OW  226   0.517   3.791   8.796 -1.1949 -0.0645 -0.3959
32740SOL    HW1  227   0.593   3.848   8.811 -0.3779 -1.1308 -0.3549
32740SOL    HW2  228   0.465   3.839   8.731  0.9860 -0.5425 -2.7048
32741SOL     OW  229   3.875   6.377  10.972  0.6167 -0.1288 -1.0304
32741SOL    HW1  230   3.869   6.370  11.068  0.1300 -1.1667 -1.1334
32741SOL    HW2  231   3.784   6.378  10.942  0.7724 -1.1428 -1.5705
32742SOL     OW  232   5.732   5.304   5.290  0.6421  0.0551  0.0825
32742SOL    HW1  233   5.749   5.398   5.276 -0.1289  0.2190  0.1990
32742SOL    HW2  234   5.695   5.274   5.207 -0.0514  0.0866  0.3745
32743SOL     OW  235   7.962   1.620   0.783 -0.6279 -0.6711 -0.4665
32743SOL    HW1  236   7.874   1.625   0.821 -1.1257  0.0966 -1.6639
32743SOL    HW2  237   7.999   1.707   0.801  0.9961 -1.8451  2.5081
32744SOL     OW  238   3.833   9.654   2.583 -0.3661  0.7111  0.9235
32744SOL    HW1  239   3.857   9.573   2.629 -1.9911 -0.4717 -0.2062
32744SOL    HW2  240   3.917   9.693   2.560  0.4853 -1.0878  0.7698
32745SOL     OW  241   7.098   0.465   3.835  0.0845 -0.3172  0.2655
32745SOL    HW1  242   7.103   0.554   3.801  0.5287 -0.1607  0.7238
32745SOL    HW2  243   7.146   0.468   3.918  1.1580 -1.2570 -0.2891
32746SOL     OW  244   2.966   5.212   1.594 -0.2398  0.0681  0.0988
32746SOL    HW1  245   2.992   5.149   1.526 -2.2060 -1.0978  0.3421
32746SOL    HW2  246   2.904   5.270   1.550  0.7732  1.2041  0.1512
32747SOL     OW  247   0.497   0.562   0.135  0.4739 -0.4953 -0.4232
32747SOL    HW1  248   0.477   0.618   0.060 -1.2451 -0.8871 -0.2831
32747SOL    HW2  249   0.581   0.522   0.112  0.0896 -0.4584 -2.0465
32748SOL     OW  250   6.061   6.509   1.091 -0.8863 -0.3145  0.0245
32748SOL    HW1  251   6.014   6.429   1.066 -1.8645  0.1480  0.3247
32748SOL    HW2  252   6.038   6.522   1.183  0.9091 -0.7969  0.5718
32749SOL     OW  253   4.651   3.981   6.084  0.5994 -0.0775 -0.8651
32749SOL    HW1  254   4.710   3.905   6.082  1.8211  0.6792  1.9310
32749SOL    HW2  255   4.566   3.944   6.107  1.9089 -0.5069  4.5843
32750SOL     OW  256   9.448  10.133  10.946 -0.4515  0.5137  0.6234
32750SOL    HW1  257   9.361  10.095  10.941 -0.3645  0.3939 -0.1965
32750SOL    HW2  258   9.435  10.226  10.930 -0.1974  0.1593 -2.3262
32751SOL     OW  259   2.077   0.211   9.410 -0.2858  0.4734 -0.3724
32751SOL    HW1  260   1.988   0.216   9.375  0.1540 -0.9022 -1.8106
32751SOL    HW2  261   2.126   0.278   9.363 -0.2914  0.3853 -0.5053
32752SOL     OW  262   8.792  10.715   0.800 -0.5975  0.8724 -0.4770
32752SOL    HW1  263   8.763  10.789   0.746  0.5667  1.0443 -0.8928
32752SOL    HW2  264   8.774  10.638   0.747 -0.8121  0.9334 -0.4942
32753SOL     OW  265   5.441   5.273   7.992  0.9768 -0.2001  0.4019
32753SOL    HW1  266   5.519   5.218   7.988  2.5576  1.8473  1.0693
32753SOL    HW2  267   5.446   5.314   8.079 -0.5267  0.4102  0.2214
32754SOL     OW  268   1.715  10.220  10.796  0.0390  0.0582  0.2212
32754SOL    HW1  269   1.758  10.194  10.715  0.6534 -0.4868  0.7108
32754SOL    HW2  270   1.633  10.172  10.797  0.7000 -1.1067  0.6220
32755SOL     OW  271   4.568   5.366   6.012 -0.2225  0.2457  0.5534
32755SOL    HW1  272   4.624   5.442   6.033  0.7401 -0.0397 -0.8207
32755SOL    HW2  273   4.517   5.395   5.937 -2.4466  0.7035  2.1270
32756SOL     OW  274   8.825   5.903   1.266  0.1279 -0.5075  0.3389
32756SOL    HW1  275   8.767   5.827   1.261  0.5133 -0.7369 -1.0305
32756SOL    HW2  276   8.852   5.907   1.358 -0.1385 -1.8405  0.4930
32757SOL     OW  277   2.059   0.986   0.042 -0.3645  0.1963  0.8626
32757SOL    HW1  278   2.148   1.005   0.014 -0.9359  0.3478 -0.9985
32757SOL    HW2  279   2.069   0.933   0.121  1.3418  1.1397  1.3397
32758SOL     OW  280  10.924   4.172   8.610 -0.4417 -0.9585  1.0458
32758SOL    HW1  281  10.860   4.115   8.653 -1.3256 -0.4517  0.4333
32758SOL    HW2  282  10.941   4.241   8.674 -1.1532 -0.6392  0.9039
32759SOL     OW  283  11.064   6.749   4.086  0.5605  0.1950  0.3914
32759SOL    HW1  284  10.983   6.700   4.104  2.3371 -3.1289  0.1293
32759SOL    HW2  285  11.092   6.781   4.172  0.8846 -1.9552  1.1431
32760SOL     OW  286   2.349   1.685   4.079 -0.2430  0.2957 -0.2956
32760SOL    HW1  287   2.430   1.683   4.028 -1.3898 -0.3512 -2.2349
32760SOL    HW2  288   2.305   1.603   4.056 -0.0207 -0.9970  3.2885
32761SOL     OW  289   0.820   1.378   4.520  0.1724 -0.0514 -0.3813
32761SOL    HW1  290   0.827   1.311   4.451  0.3762 -0.5217  0.0883
32761SOL    HW2  291   0.725   1.389   4.532  0.1242  0.5286 -1.1993
32762SOL     OW  292   2.316   4.725   2.134 -0.0488 -0.0623 -0.4976
32762SOL    HW1  293   2.309   4.678   2.217 -0.6596 -0.4242 -0.7509
32762SOL    HW2  294   2.357   4.663   2.074 -2.2411 -0.8693 -1.2596
32763SOL     OW  295   8.612   4.578   5.609  0.5298  0.3089  0.0008
32763SOL    HW1  296   8.593   4.598   5.517  1.7033 -0.9513 -0.5437
32763SOL    HW2  297   8.706   4.592   5.618  0.9376 -2.1802  0.2675
32764SOL     OW  298  10.258   9.896   8.318  0.5925  0.0819 -0.0007
32764SOL    HW1  299  10.182   9.843   8.343  0.3387  1.0062  1.3560
32764SOL    HW2  300  10.229   9.986   8.335  0.5799  0.8316 -3.3150
32765SOL     OW  301   9.092   2.681   5.487  0.0786  0.0481  0.6893
32765SOL    HW1  302   9.165   2.742   5.486 -0.1387  0.3067 -0.1304
32765SOL    HW2  303   9.075   2.665   5.580 -0.4637  1.9625  0.9501
32766SOL     OW  304   9.386   1.697  10.469  0.5554 -0.1343  0.1382
32766SOL    HW1  305   9.296   1.730  10.477 -0.6765 -3.1296  0.0526
32766SOL    HW2  306   9.395   1.675  10.377  0.7317 -1.3936  0.4361
32767SOL     OW  307   9.192   5.211  10.460  0.2277  0.1218  0.3300
32767SOL    HW1  308   9.124   5.161  10.505 -0.0378 -1.3937 -1.6271
32767SOL    HW2  309   9.159   5.222  10.371  1.4031  1.6685  0.0539
32768SOL     OW  310   8.165  10.719   5.599 -0.7963  0.0665 -0.2614
32768SOL    HW1  311   8.209  10.804   5.596 -1.7950  0.5654 -1.2736
32768SOL    HW2  312   8.115  10.715   5.518 -0.9583 -1.3921 -0.1104
32769SOL     OW  313   3.204   2.648   5.761 -0.1776  0.9968 -0.0532
32769SOL    HW1  314   3.217   2.706   5.686  1.6347  0.5597 -0.1190
32769SOL    HW2  315   3.195   2.561   5.722 -0.0975  0.8792  0.1925
32770SOL     OW  316   1.805   1.220   8.581 -0.6711  0.7316 -0.2738
32770SOL    HW1  317   1.728   1.166   8.598 -1.7208  1.9859 -0.8128
32770SOL    HW2  318   1.829   1.256   8.667  0.7643 -1.4461  0.2980
32771SOL     OW  319  10.771   1.075   3.699  0.4447  1.1331  0.5259
32771SOL    HW1  320  10.822   1.127   3.637 -0.0352  0.0008 -0.8861
32771SOL    HW2  321  10.680   1.093   3.676  0.2686  0.0569  0.2918
32772SOL     OW  322   6.023  10.409   4.671 -0.2310 -0.3498  0.2786
32772SOL    HW1  323   6.053  10.325   4.706  1.1350 -1.1385 -2.5292
32772SOL    HW2  324   5.937  10.390   4.633  0.8315 -0.9872 -1.9222
32773SOL     OW  325  10.010   1.494   9.054 -0.7780 -0.1201  0.5997
32773SOL    HW1  326  10.013   1.578   9.008  2.2799 -1.4434 -1.9250
32773SOL    HW2  327  10.010   1.428   8.985  1.1039 -2.2340  2.4692
32774SOL     OW  328   0.676   2.134   4.394  0.4467 -0.1584  0.4326
32774SOL    HW1  329   0.618   2.076   4.344  0.4220  0.4410 -0.2507
32774SOL    HW2  330   0.731   2.177   4.328  0.2726  0.8125  0.8926
32775SOL     OW  331   1.112   3.557   3.241 -0.4138 -0.3203  0.6844
32775SOL    HW1  332   1.095   3.649   3.220 -1.6397 -0.7918 -0.6366
32775SOL    HW2  333   1.096   3.550   3.335  5.2951  1.9138  2.2091
32776SOL     OW  334   1.305   6.858   1.427 -0.0796 -0.0991  0.1492
32776SOL    HW1  335   1.367   6.908   1.480  0.9918 -0.4741 -0.7189
32776SOL    HW2  336   1.339   6.864   1.338 -0.5197 -1.4705 -0.1327
32777SOL     OW  337   0.402   4.621   5.138 -0.0784 -0.6599  0.0200
32777SOL    HW1  338   0.321   4.583   5.104  0.0219  0.2763 -1.3254
32777SOL    HW2  339   0.375   4.672   5.214 -0.7951 -0.1809 -0.5451
32778SOL     OW  340   5.268   6.870   4.138 -0.1965  0.2358 -0.0404
32778SOL    HW1  341   5.337   6.880   4.073 -1.1953  0.1577 -1.1397
32778SOL    HW2  342   5.314   6.869   4.222  1.0031  1.8187 -0.6365
32779SOL     OW  343   3.140   1.177   1.581  0.5418  0.5333 -0.1209
32779SOL    HW1  344   3.076   1.129   1.528  1.2793  0.2453 -0.7768
32779SOL    HW2  345   3.087   1.227   1.642 -0.2740 -0.9334  0.4387
32780SOL     OW  346   2.622   4.079  10.501  0.0804 -0.0288  0.2237
32780SOL    HW1  347   2.548   4.035  10.460  0.7530 -1.6996  0.7051
32780SOL    HW2  348   2.699   4.046  10.455  0.7071 -0.3876  1.4725
32781SOL     OW  349   3.994   4.404   7.977  0.3187 -0.0634 -0.0012
32781SOL    HW1  350   4.037   4.352   7.909  1.6997 -0.2560  0.9811
32781SOL    HW2  351   3.911   4.431   7.938  0.1713 -1.8483 -1.0489
32782SOL     OW  352   3.633   5.149   3.078  0.1908 -0.0599 -0.1092
32782SOL    HW1  353   3.633   5.084   3.008  2.6967  0.0906 -0.3320
32782SOL    HW2  354   3.622   5.233   3.033  0.1715 -0.0881 -0.1573
32783SOL     OW  355   4.489  10.453   7.571  0.1631  0.2158  0.5451
32783SOL    HW1  356   4.451  10.528   7.526  2.1744  1.8762  1.4551
32783SOL    HW2  357   4.550  10.415   7.507 -0.6264 -0.4784  0.1917
32784SOL     OW  358   3.060   4.583   5.800 -0.6865  0.1543  0.5446
32784SOL    HW1  359   2.987   4.522   5.794 -0.7332  0.2490  0.1136
32784SOL    HW2  360   3.063   4.609   5.892 -1.2962  0.2813  0.5306
32785SOL     OW  361   7.851   9.966   4.800  0.2962  0.0353 -0.7816
32785SOL    HW1  362   7.797  10.045   4.806 -0.0660 -0.2573 -0.1187
32785SOL    HW2  363   7.938   9.999   4.775  1.1429  1.1212  2.9601
32786SOL     OW  364   1.989   0.429   1.691 -0.6445  0.3218 -0.4506
32786SOL    HW1  365   1.917   0.477   1.650 -1.5383 -0.6505 -0.0679
32786SOL    HW2  366   2.065   0.486   1.680 -1.4253  1.2875 -1.0386
32787SOL     OW  367   9.771   8.465   3.748  0.3426  0.1455  0.1412
32787SOL    HW1  368   9.734   8.513   3.822 -0.8657 -0.7553  0.1581
32787SOL    HW2  369   9.740   8.512   3.670 -0.8146 -0.5370  0.1578
32788SOL     OW  370   6.227   0.272   6.505  0.2648 -0.0053  0.0286
32788SOL    HW1  371   6.172   0.340   6.467  1.9870  0.8628 -1.0315
32788SOL    HW2  372   6.286   0.318   6.564  0.8460 -0.6967  0.0022
32789SOL     OW  373   4.091   9.619   3.392 -0.0603  0.7015  0.0703
32789SOL    HW1  374   4.029   9.557   3.430 -0.0877  0.8709  0.3070
32789SOL    HW2  375   4.130   9.572   3.318 -1.0195  0.8593 -0.5542
32790SOL     OW  376   1.059   6.152   3.031  0.3682  0.0142  0.1922
32790SOL    HW1  377   1.099   6.097   2.964  0.5651 -1.1145  1.2232
32790SOL    HW2  378   1.127   6.216   3.052  0.4198  0.1814 -0.4365
32791SOL     OW  379   0.437   3.537   1.652  0.1671  0.5432  0.1165
32791SOL    HW1  380   0.425   3.551   1.746 -0.9810  1.1954 -0.1151
32791SOL    HW2  381   0.382   3.603   1.610 -0.8728 -0.9454 -1.0078
32792SOL     OW  382   8.475   2.841   9.878  0.3501  0.0731  0.1886
32792SOL    HW1  383   8.452   2.933   9.870 -1.3947 -0.3956 -0.7189
32792SOL    HW2  384   8.493   2.813   9.788  0.6187 -0.5397  0.4259
32793SOL     OW  385   7.458   1.228   2.795 -0.2693  0.2940 -0.5087
32793SOL    HW1  386   7.411   1.183   2.866  1.1503  2.2047  1.8092
32793SOL    HW2  387   7.418   1.315   2.790  1.5238  1.2055  0.0553
32794SOL     OW  388   3.801   4.211  10.863  0.2121  0.6282  0.6264
32794SOL    HW1  389   3.840   4.295  10.890  1.6117  1.5388 -3.5354
32794SOL    HW2  390   3.871   4.166  10.816 -1.7368 -1.0063 -0.8507
32795SOL     OW  391   6.576   9.608   9.802 -0.1295 -0.4542  0.2040
32795SOL    HW1  392   6.519   9.642   9.870  0.6989  0.5732  0.4069
32795SOL    HW2  393   6.649   9.568   9.849  0.1399 -0.2859 -0.0634
32796SOL     OW  394   7.520   3.417   9.321  0.0286 -0.2232 -0.3437
32796SOL    HW1  395   7.496   3.507   9.302 -1.4769 -0.7137 -0.8810
32796SOL    HW2  396   7.441   3.377   9.356  0.7465 -1.2796  0.1390
32797SOL     OW  397  10.138   9.187  10.264 -0.3059 -0.3225 -0.0549
32797SOL    HW1  398  10.110   9.194  10.173 -1.7512 -1.9883  0.2020
32797SOL    HW2  399  10.061   9.212  10.315 -0.3318 -1.7368  0.6732
32798SOL     OW  400   8.528   8.108   5.799  0.4654 -0.4124 -0.0557
32798SOL    HW1  401   8.481   8.025   5.793  2.3507 -1.4257 -2.8387
32798SOL    HW2  402   8.474   8.170   5.749 -0.0414 -0.3918  0.4993
32799SOL     OW  403   2.723   1.215   6.673 -0.0731  0.8476 -0.2780
32799SOL    HW1  404   2.632   1.218   6.704  1.0967 -0.4969  4.0130
32799SOL    HW2  405   2.728   1.283   6.606 -4.0173  1.5094 -0.1633
32800SOL     OW  406   4.821   0.259   4.930 -0.6683 -0.6283  0.6371
32800SOL    HW1  407   4.767   0.179   4.923  1.3819 -2.2977  2.3424
32800SOL    HW2  408   4.786   0.303   5.008 -0.7089 -0.7817  0.7077
32801SOL     OW  409   2.125   3.959   5.146  0.2192 -0.2466  0.3103
32801SOL    HW1  410   2.119   3.900   5.071  1.2287  1.2108 -0.9841
32801SOL    HW2  411   2.199   3.924   5.197 -1.0314 -1.7697  1.1858
32802SOL     OW  412   7.483   3.170   1.013  0.3660  0.1039 -0.2688
32802SOL    HW1  413   7.540   3.217   1.074  1.6306 -0.3726 -1.0503
32802SOL    HW2  414   7.395   3.205   1.031  1.1479  2.2334 -0.3340
32803SOL     OW  415   0.883   4.955   4.819 -0.2759 -0.1253  0.6765
32803SOL    HW1  416   0.970   4.949   4.779 -1.2584 -3.0333 -1.3286
32803SOL    HW2  417   0.879   4.882   4.880 -0.8349  0.8939  1.9162
32804SOL     OW  418  10.100   9.091   3.680  0.1157  0.4958  0.4945
32804SOL    HW1  419  10.103   9.016   3.621  0.6528  0.4506  0.5754
32804SOL    HW2  420  10.053   9.060   3.757  1.2309 -0.0742  0.9620
32805SOL     OW  421   8.827   6.386   9.361  0.1772 -0.9463 -1.1232
32805SOL    HW1  422   8.816   6.315   9.423 -0.4692 -1.2429 -1.5634
32805SOL    HW2  423   8.769   6.364   9.288  0.6787 -0.4472 -1.6898
32806SOL     OW  424   1.757   1.542   4.173  0.4232 -0.5924 -1.1270
32806SOL    HW1  425   1.765   1.461   4.223 -0.6970  0.3165  0.6384
32806SOL    HW2  426   1.720   1.605   4.235  0.9132  1.1879 -2.5396
32807SOL     OW  427   6.859   2.391   5.590  0.5083 -0.0933  0.5651
32807SOL    HW1  428   6.818   2.375   5.505  1.1693  0.7961  0.0511
32807SOL    HW2  429   6.951   2.409   5.569  0.5186  0.9180  1.3785
32808SOL     OW  430   7.347   9.890   6.285 -0.2320 -0.1853 -0.0146
32808SOL    HW1  431   7.262   9.934   6.286 -0.2172  0.0805 -2.6537
32808SOL    HW2  432   7.326   9.797   6.286 -0.6491 -0.1327 -1.4062
32809SOL     OW  433   8.618   2.359   8.900  0.5692  0.2680  0.1722
32809SOL    HW1  434   8.663   2.385   8.981  0.9991 -0.6664  0.2434
32809SOL    HW2  435   8.531   2.333   8.929  0.1973  1.4227  0.1255
32810SOL     OW  436   4.173   4.911   5.609  0.0329  0.1904 -0.8425
32810SOL    HW1  437   4.261   4.942   5.587  0.0236  0.7236 -0.1620
32810SOL    HW2  438   4.115   4.982   5.583 -0.0312  0.5812  0.3027
32811SOL     OW  439   0.130   4.385   8.984 -0.4245 -0.2534 -0.4302
32811SOL    HW1  440   0.117   4.464   9.037 -0.7919 -0.2954 -0.4563
32811SOL    HW2  441   0.164   4.320   9.045 -2.1623 -0.7308  0.0822
32812SOL     OW  442   9.230   2.468   2.571  0.1053  0.1479 -0.1487
32812SOL    HW1  443   9.316   2.495   2.539 -0.8882 -0.4097 -3.7819
32812SOL    HW2  444   9.197   2.408   2.503 -1.8453 -2.3070  2.6937
32813SOL     OW  445   6.452   5.202   2.235 -0.1304  0.1055 -0.3961
32813SOL    HW1  446   6.468   5.171   2.145  2.1520 -1.5150  0.4781
32813SOL    HW2  447   6.511   5.277   2.245  0.7970 -0.6921  0.2234
32814SOL     OW  448   4.550   3.182   5.382  0.7183  0.9024  0.3584
32814SOL    HW1  449   4.464   3.141   5.369 -0.7497  2.8794  2.9602
32814SOL    HW2  450   4.612   3.121   5.340 -1.9365 -0.1940 -2.3398
32815SOL     OW  451   1.739   4.784   0.941 -0.2628  0.0764  0.3070
32815SOL    HW1  452   1.760   4.875   0.960  0.3142 -0.4407  2.4383
32815SOL    HW2  453   1.725   4.781   0.847  0.6679  2.1663  0.0620
32816SOL     OW  454  10.941   7.503  10.985  0.1957  0.0064  0.6955
32816SOL    HW1  455  10.957   7.498  11.079  2.5456  1.5030  0.4598
32816SOL    HW2  456  10.926   7.412  10.958  2.2915 -0.8259  2.1037
32817SOL     OW  457   1.927   1.334   0.855 -0.5029  0.3188 -0.2599
32817SOL    HW1  458   1.857   1.351   0.792 -1.5102 -0.7628  0.5124
32817SOL    HW2  459   1.895   1.372   0.937  0.4984  1.1221 -0.2166
32818SOL     OW  460   1.150   2.325   9.430  0.3905 -0.0476 -0.0491
32818SOL    HW1  461   1.067   2.277   9.434 -0.2343  0.9004 -1.0855
32818SOL    HW2  462   1.213   2.261   9.398 -0.2313 -0.4206 -0.5425
32819SOL     OW  463   3.892   5.271   0.145  0.3023  0.0713 -0.7856
32819SOL    HW1  464   3.869   5.362   0.123 -0.4374 -0.2118 -1.2491
32819SOL    HW2  465   3.827   5.246   0.211  1.2308  0.2413  0.2192
32820SOL     OW  466   2.505   1.887   4.953  0.1044  0.5766  0.0503
32820SOL    HW1  467   2.588   1.925   4.924  0.9592  0.0556  1.6857
32820SOL    HW2  468   2.461   1.959   4.999  1.3826 -0.0744  2.4739
32821SOL     OW  469   1.395   5.678   3.496 -0.1508 -0.1852  0.3415
32821SOL    HW1  470   1.338   5.695   3.421 -1.2392 -1.3968  0.8735
32821SOL    HW2  471   1.415   5.585   3.491  0.0044 -0.2216  1.3953
32822SOL     OW  472   3.327   3.506   0.782 -0.1237  0.8513  0.4107
32822SOL    HW1  473   3.239   3.515   0.745 -0.6247 -0.7165  1.1195
32822SOL    HW2  474   3.313   3.509   0.877  0.1813 -1.9143  0.6250
32823SOL     OW  475   1.616   6.274   0.329 -0.1129 -0.7389  0.0416
32823SOL    HW1  476   1.691   6.281   0.270  1.5375 -0.3123  2.0268
32823SOL    HW2  477   1.617   6.183   0.359  2.1583  0.0981  2.9979
32824SOL     OW  478   3.231   4.922   2.119  0.2813  0.3773 -0.2647
32824SOL    HW1  479   3.231   5.007   2.075  1.6362  0.8575  0.6115
32824SOL    HW2  480   3.142   4.889   2.107 -0.0526  1.5733 -1.2646
32825SOL     OW  481   4.081   0.294   6.494 -0.6644  0.2696 -0.6114
32825SOL    HW1  482   4.158   0.239   6.482 -0.7751 -0.1080  0.3519
32825SOL    HW2  483   4.115   0.377   6.527 -0.7019 -0.0544  0.2576
32826SOL     OW  484  10.779   5.870   1.398 -0.7665  0.2030 -0.5119
32826SOL    HW1  485  10.693   5.867   1.439 -1.0212 -0.2640 -1.0758
32826SOL    HW2  486  10.796   5.780   1.371 -0.0813  0.2848 -0.3706
32827SOL     OW  487   8.355   3.726   9.729 -0.4235 -0.3355  0.3300
32827SOL    HW1  488   8.370   3.665   9.657 -2.5705 -0.7891  0.2029
32827SOL    HW2  489   8.291   3.683   9.785  0.7799  0.2371  2.2743
32828SOL     OW  490   7.331   0.363   9.261 -0.7455  0.0003  0.6577
32828SOL    HW1  491   7.281   0.360   9.179  0.8715  0.0500 -0.3779
32828SOL    HW2  492   7.283   0.425   9.316 -0.6663  1.7936 -1.1497
32829SOL     OW  493   3.870   2.561   9.799 -0.0358 -0.3742 -0.3005
32829SOL    HW1  494   3.882   2.517   9.883 -0.2099 -0.7210 -0.4522
32829SOL    HW2  495   3.923   2.640   9.804  2.5585 -1.9595 -1.0447
32830SOL     OW  496   9.549   8.804   1.840  0.2999 -0.1887 -0.0799
32830SOL    HW1  497   9.587   8.885   1.806 -1.0482  0.0346 -1.1264
32830SOL    HW2  498   9.470   8.832   1.885  0.6990 -0.7709  1.0170
32831SOL     OW  499   0.413   3.482   9.589  0.2813 -1.3482 -0.0608
32831SOL    HW1  500   0.479   3.543   9.556  0.6812 -1.9050 -0.3069
32831SOL    HW2  501   0.448   3.395   9.569 -1.2792 -1.6727 -1.7564
32832SOL     OW  502   7.916   7.254   3.226  0.3126 -0.0853 -0.5172
32832SOL    HW1  503   7.924   7.265   3.321  1.4374 -0.0966 -0.5918
32832SOL    HW2  504   7.991   7.199   3.202  0.2663  0.2438 -1.4551
32833SOL     OW  505   5.193   7.344   8.830  0.4000 -0.1408  0.7504
32833SOL    HW1  506   5.216   7.368   8.920  0.0824  2.1515  0.2918
32833SOL    HW2  507   5.239   7.408   8.776 -0.0330 -1.0036 -0.6868
32834SOL     OW  508   9.663   9.560   0.155 -0.7866  0.7299 -0.0228
32834SOL    HW1  509   9.585   9.527   0.200 -0.3363  0.2922  0.4564
32834SOL    HW2  510   9.637   9.566   0.063 -1.2083  0.0291  0.0427
32835SOL     OW  511  10.642  10.138   6.793  0.0398 -0.2313 -0.1012
32835SOL    HW1  512  10.609  10.136   6.703 -0.5129 -0.2000  0.0937
32835SOL    HW2  513  10.727  10.095   6.789  0.6799  1.0662 -0.9050
32836SOL     OW  514   5.228   7.831   8.188  0.2080  0.2109 -0.2816
32836SOL    HW1  515   5.266   7.851   8.103  0.2528 -0.5380 -0.4437
32836SOL    HW2  516   5.220   7.735   8.190 -2.2875  0.3334 -0.5331
32837SOL     OW  517   9.257   6.291   9.780  0.2650  0.5029 -0.7633
32837SOL    HW1  518   9.337   6.248   9.751 -0.6871 -2.0274  0.1194
32837SOL    HW2  519   9.203   6.298   9.701  0.0588 -0.8260 -0.7518
32838SOL     OW  520   9.752   8.389   5.424  0.4646  0.0091  0.2962
32838SOL    HW1  521   9.841   8.403   5.391 -0.1866  0.5055 -1.3495
32838SOL    HW2  522   9.696   8.437   5.364 -0.7674  2.0622  2.8590
32839SOL     OW  523   7.646   3.519   2.691 -0.3175 -0.3420  0.1788
32839SOL    HW1  524   7.716   3.531   2.755  0.2782  0.2576 -0.5665
32839SOL    HW2  525   7.606   3.605   2.683 -2.4945 -1.0544  2.0577
32840SOL     OW  526   6.450   7.797   2.423 -0.1499 -0.1653 -0.4591
32840SOL    HW1  527   6.443   7.830   2.333 -2.3900  1.6019  0.2590
32840SOL    HW2  528   6.495   7.867   2.470 -0.3145 -0.4298  0.0979
32841SOL     OW  529  10.483   3.833   5.579  0.4438  0.6744  0.4072
32841SOL    HW1  530  10.538   3.852   5.655  1.7024  2.5205 -0.8538
32841SOL    HW2  531  10.517   3.750   5.544  1.4971  1.0579  0.4868
32842SOL     OW  532   8.642   4.424   3.215  0.4662 -0.1336 -0.4618
32842SOL    HW1  533   8.594   4.475   3.149  0.1392  0.6252  0.3341
32842SOL    HW2  534   8.734   4.431   3.189  0.3424  0.1794 -0.8205
32843SOL     OW  535   6.047  10.366   9.655  0.1783 -0.0072 -0.0336
32843SOL    HW1  536   5.975  10.356   9.717  1.2352 -1.5192  1.0495
32843SOL    HW2  537   6.017  10.321   9.576  0.2035 -1.3383  0.6846
32844SOL     OW  538  10.642  10.042  10.659 -0.3861 -0.0337  0.3863
32844SOL    HW1  539  10.730  10.061  10.692  0.0246  0.0524 -0.7086
32844SOL    HW2  540  10.604   9.983  10.724 -0.0011  0.9374  1.5240
32845SOL     OW  541   2.097   0.525   7.780 -0.0170  0.3965 -0.3548
32845SOL    HW1  542   2.193   0.522   7.770  0.0222 -1.6076  0.2020
32845SOL    HW2  543   2.083   0.578   7.858  0.7188 -0.1258  0.1487
32846SOL     OW  544  10.262   9.730   8.704  0.2567 -0.6116  0.0613
32846SOL    HW1  545  10.181   9.771   8.673  0.0276 -1.4217 -0.4500
32846SOL    HW2  546  10.267   9.754   8.796 -0.6582 -0.6720  0.1418
32847SOL     OW  547   7.292   0.499   7.098  0.3700  0.3413  0.3109
32847SOL    HW1  548   7.295   0.593   7.083 -2.3624  0.6226  1.0120
32847SOL    HW2  549   7.310   0.489   7.192 -0.1843  0.2550  0.4109
32848SOL     OW  550  10.294   2.971   8.704  0.2065  0.7505  0.0225
32848SOL    HW1  551  10.344   2.904   8.751  2.2097  1.9814 -0.2416
32848SOL    HW2  552  10.260   2.926   8.627  1.5154  0.0209 -0.1525
32849SOL     OW  553   1.391   7.026   8.131 -0.4368  0.1791  0.4218
32849SOL    HW1  554   1.443   7.085   8.187 -0.1007  1.9551 -1.6410
32849SOL    HW2  555   1.393   7.067   8.045 -2.0210 -1.7916 -0.6277
32850SOL     OW  556   1.934   4.443   7.843 -0.2879 -0.2591 -0.0341
32850SOL    HW1  557   1.914   4.516   7.903 -2.6721  0.0415 -1.0729
32850SOL    HW2  558   1.920   4.479   7.756 -0.0417 -1.5696 -0.6363
32851SOL     OW  559   2.589   5.791   8.631 -1.1602 -0.2712  0.0814
32851SOL    HW1  560   2.624   5.803   8.719 -0.5413 -2.8102  0.2388
32851SOL    HW2  561   2.519   5.856   8.624  1.7829  3.2985  0.6572
32852SOL     OW  562   7.128   3.291   0.763 -0.5026 -0.1050  0.3581
32852SOL    HW1  563   7.108   3.299   0.670  2.1625  1.0790 -0.2092
32852SOL    HW2  564   7.207   3.237   0.765  0.4597  1.3023  1.7776
32853SOL     OW  565   9.960   1.414   8.049 -0.3698  0.3833  0.5782
32853SOL    HW1  566  10.007   1.389   7.970 -1.3646  0.2679  0.0064
32853SOL    HW2  567   9.959   1.335   8.103  0.6888  0.5811  0.9234
32854SOL     OW  568   5.517   1.240   7.452  0.0650  0.4137  0.0387
32854SOL    HW1  569   5.550   1.161   7.496 -1.1050 -1.0976 -1.6461
32854SOL    HW2  570   5.421   1.231   7.456 -0.1085  0.0505 -2.9412
32855SOL     OW  571   1.596  10.888   6.678 -0.0343 -0.0187 -0.4153
32855SOL    HW1  572   1.568  10.808   6.723  1.3226 -0.5412 -0.4561
32855SOL    HW2  573   1.517  10.942   6.674 -0.3970 -0.2913  1.8375
32856SOL     OW  574   5.650   8.832  10.202  0.0299  0.4573  0.8781
32856SOL    HW1  575   5.582   8.780  10.158  1.1993 -0.5919  0.2618
32856SOL    HW2  576   5.729   8.816  10.151  0.6958  1.8842  1.4248
32857SOL     OW  577   9.925   3.807  10.578  0.2275 -0.8252  0.3254
32857SOL    HW1  578   9.848   3.862  10.593 -0.4072 -1.9251  1.2420
32857SOL    HW2  579   9.988   3.836  10.644  0.0583 -0.8845  0.5168
32858SOL     OW  580   5.644   6.814   0.495 -0.1944  0.2903  0.2553
32858SOL    HW1  581   5.691   6.802   0.578  1.5551  1.2024 -0.5603
32858SOL    HW2  582   5.576   6.878   0.516  2.6456  3.5931  0.2345
32859SOL     OW  583   8.682   8.429   6.627 -0.1359  0.1553  0.4172
32859SOL    HW1  584   8.714   8.410   6.539  0.9406 -0.1291  0.8541
32859SOL    HW2  585   8.740   8.498   6.660  0.0771 -0.3970  1.2447
32860SOL     OW  586   3.637  10.198   1.306  0.3125  0.2756 -0.1570
32860SOL    HW1  587   3.726  10.164   1.300  0.4918  0.3152  1.6900
32860SOL    HW2  588   3.628  10.227   1.397 -1.3227  1.0238 -0.5121
32861SOL     OW  589   2.073   5.408   8.465 -0.2044  0.0965  0.1112
32861SOL    HW1  590   1.986   5.392   8.428 -0.9821  0.1442  1.8232
32861SOL    HW2  591   2.104   5.322   8.491  0.4042  0.0421 -0.7800
32862SOL     OW  592  10.614  10.298   7.425 -0.0868 -0.3613  0.0412
32862SOL    HW1  593  10.655  10.365   7.481 -0.5792 -0.5995  0.6925
32862SOL    HW2  594  10.688  10.248   7.391  0.3411  0.9002 -0.9708
32863SOL     OW  595   4.978   0.338   6.183  0.3079  0.1932 -0.4134
32863SOL    HW1  596   4.911   0.314   6.119  0.9219 -0.2686 -0.8990
32863SOL    HW2  597   4.932   0.391   6.247 -0.9905 -1.6923  0.3279
32864SOL     OW  598   2.812   0.425   1.348  0.3523 -0.6760  0.2409
32864SOL    HW1  599   2.759   0.504   1.337  3.3220  1.4061 -0.3859
32864SOL    HW2  600   2.854   0.413   1.263  0.2925 -2.7475  0.4615
32865SOL     OW  601   9.699   5.453   8.048 -0.7577  0.3262 -0.1968
32865SOL    HW1  602   9.778   5.445   7.994 -0.5830 -1.3658  0.2508
32865SOL    HW2  603   9.647   5.519   8.004  0.2228  0.3513 -1.3874
32866SOL     OW  604   8.678   5.626   2.658  0.3140 -0.2742  0.2494
32866SOL    HW1  605   8.588   5.595   2.649  0.8175 -1.6456 -0.2016
32866SOL    HW2  606   8.723   5.558   2.709  1.3728 -0.1819 -0.5191
32867SOL     OW  607  10.744   8.888   8.824 -0.2402 -0.3604  0.6325
32867SOL    HW1  608  10.804   8.963   8.825 -0.7547  0.0599  1.2951
32867SOL    HW2  609  10.758   8.846   8.909 -1.1997  0.0159  0.9944
32868SOL     OW  610   7.927   6.760   2.388  0.0709 -0.4060 -0.2326
32868SOL    HW1  611   7.853   6.777   2.447  0.2414  0.1777 -0.1857
32868SOL    HW2  612   7.889   6.766   2.301  0.5290  2.3868 -0.3134
32869SOL     OW  613   5.741   8.476  10.917  0.3274 -0.5376  0.2240
32869SOL    HW1  614   5.701   8.425  10.987 -0.0740  1.2586  1.3920
32869SOL    HW2  615   5.833   8.450  10.918  0.4672 -0.1296  1.8766
32870SOL     OW  616   2.530   9.525   3.342  0.3718 -0.5615 -0.4498
32870SOL    HW1  617   2.450   9.494   3.384  0.2688  1.4399  0.9981
32870SOL    HW2  618   2.532   9.480   3.257 -5.0740  2.8613 -2.9889
32871SOL     OW  619   5.256   2.859   9.471 -0.3576 -0.1818  0.4540
32871SOL    HW1  620   5.351   2.867   9.466 -0.2977 -0.6683  0.7600
32871SOL    HW2  621   5.229   2.844   9.381 -0.2998  1.4257  0.1347
32872SOL     OW  622   7.150   1.485   0.377 -1.0953 -0.1326  0.7006
32872SOL    HW1  623   7.160   1.409   0.319  1.2150 -0.3566  1.3143
32872SOL    HW2  624   7.093   1.544   0.328 -1.9880 -1.7398 -0.3081
32873SOL     OW  625   2.227   3.523   2.022  0.2817  0.8026 -0.1832
32873SOL    HW1  626   2.305   3.577   2.013  2.4416 -1.8654  1.1654
32873SOL    HW2  627   2.202   3.503   1.932  1.5126  1.2022 -0.6367
32874SOL     OW  628   7.878   7.038   1.861 -0.1915 -0.4151  0.1730
32874SOL    HW1  629   7.839   6.960   1.823 -0.0582 -0.4119  0.0295
32874SOL    HW2  630   7.810   7.105   1.853  0.5741  0.1806 -2.0628
32875SOL     OW  631   2.307   1.828   5.641  0.0777  0.2716 -0.4636
32875SOL    HW1  632   2.254   1.770   5.586  1.3960 -0.6446 -0.8182
32875SOL    HW2  633   2.265   1.914   5.632  0.6896  0.3598 -3.5653
32876SOL     OW  634   3.158   5.135  10.754 -0.0492  0.0396  0.2145
32876SOL    HW1  635   3.210   5.144  10.674 -1.5211 -1.5479 -0.9987
32876SOL    HW2  636   3.222   5.112  10.822  0.9608 -0.9089 -1.0135
32877SOL     OW  637   0.224   8.579   9.989  0.3415  0.4723  0.1691
32877SOL    HW1  638   0.231   8.483   9.982 -2.7687  0.2144 -1.2430
32877SOL    HW2  639   0.253   8.611   9.904 -0.9252  0.5168 -0.2769
32878SOL     OW  640   8.777   5.987  10.186  0.8496  0.1690  0.3256
32878SOL    HW1  641   8.827   5.929  10.242  0.3685 -1.0362 -0.4617
32878SOL    HW2  642   8.831   6.066  10.178  1.9619 -0.5490  0.6091
32879SOL     OW  643   5.275   6.605   4.588  0.2406 -0.5751  0.3507
32879SOL    HW1  644   5.262   6.513   4.566 -1.6152  0.1639 -1.9936
32879SOL    HW2  645   5.207   6.625   4.652  1.5335 -1.1071  1.9685
32880SOL     OW  646   9.644   1.452   2.805  0.2518  0.5048 -0.6431
32880SOL    HW1  647   9.671   1.409   2.724  0.7917 -1.0441  0.3224
32880SOL    HW2  648   9.646   1.546   2.784  3.1935  0.3324 -1.6142
32881SOL     OW  649   7.201  10.273   3.026 -0.3426  0.5085 -0.1099
32881SOL    HW1  650   7.195  10.187   2.985 -0.3595  0.0478  0.8199
32881SOL    HW2  651   7.174  10.335   2.958 -3.9243 -0.4794  0.1944
32882SOL     OW  652   8.171   3.980   5.904  0.6464 -0.5197 -0.2759
32882SOL    HW1  653   8.095   3.933   5.938  1.7881 -2.1406  0.2087
32882SOL    HW2  654   8.172   4.062   5.952  0.6033 -1.5590  1.5919
32883SOL     OW  655   0.020   0.929   2.481  0.2389  0.8242 -0.3487
32883SOL    HW1  656   0.090   0.957   2.539  0.5160 -0.9285  0.2377
32883SOL    HW2  657   0.034   0.835   2.471 -1.4893  0.5951 -0.9633
32884SOL     OW  658   1.880   4.458   5.167  0.1235  0.4219 -0.2828
32884SOL    HW1  659   1.899   4.364   5.171  1.4537  0.6640 -0.5711
32884SOL    HW2  660   1.908   4.492   5.252 -1.7032  0.3522  0.3862
32885SOL     OW  661   2.899   0.306  10.073 -0.3567 -0.1780 -0.0432
32885SOL    HW1  662   2.973   0.331  10.128 -0.7389 -1.0772  0.9222
32885SOL    HW2  663   2.861   0.389  10.045 -0.9304  0.3852  2.1570
32886SOL     OW  664   4.768   5.027   0.714  0.4666  0.6542  0.1883
32886SOL    HW1  665   4.780   5.040   0.808 -0.6340  0.3669  0.3925
32886SOL    HW2  666   4.679   5.060   0.697 -0.2839 -1.4965 -0.2922
32887SOL     OW  667   5.394   9.956   7.792  0.4743  0.2835 -0.1230
32887SOL    HW1  668   5.388  10.050   7.777  0.8438 -0.0208 -2.7026
32887SOL    HW2  669   5.328   9.918   7.733 -1.3947 -1.0368  2.6034
32888SOL     OW  670   9.655   6.458   5.123  0.2498  0.6412 -0.5367
32888SOL    HW1  671   9.738   6.454   5.172 -0.2887  1.4301  0.4754
32888SOL    HW2  672   9.670   6.403   5.046  1.2552 -0.3398  0.3247
32889SOL     OW  673   0.713   4.711   1.976 -0.5532  0.0012 -0.7677
32889SOL    HW1  674   0.725   4.757   1.893 -1.7210  0.4322 -0.7109
32889SOL    HW2  675   0.662   4.633   1.952 -1.3379  0.3899 -0.3913
32890SOL     OW  676   8.529   8.314   5.177 -0.5270 -0.8588 -0.1851
32890SOL    HW1  677   8.530   8.354   5.263  2.1696  0.1517 -0.6177
32890SOL    HW2  678   8.464   8.243   5.185 -1.1094 -0.1445  2.3149
32891SOL     OW  679   4.952   7.912   9.236  0.5238 -0.0777  0.0222
32891SOL    HW1  680   4.874   7.878   9.280  2.4433 -0.9544  3.0075
32891SOL    HW2  681   4.939   8.007   9.236 -0.7600 -0.2274 -0.0865
32892SOL     OW  682   6.282   2.418   5.495 -0.0957  0.0558  0.1593
32892SOL    HW1  683   6.278   2.326   5.521  0.4794  0.0536  0.2597
32892SOL    HW2  684   6.314   2.464   5.573 -1.0366  0.4432  0.3346
32893SOL     OW  685   5.905   8.164   9.409  0.3497 -0.0328  0.0376
32893SOL    HW1  686   5.956   8.083   9.414  1.1507  0.5104  1.0588
32893SOL    HW2  687   5.845   8.159   9.484  0.7233  0.5086  0.3833
32894SOL     OW  688   0.401   4.187  10.984  0.0473  0.2633  0.4037
32894SOL    HW1  689   0.494   4.165  10.990  0.1793  0.6952  0.0553
32894SOL    HW2  690   0.398   4.259  10.921 -0.5029  0.3961  0.5785
32895SOL     OW  691   2.086   7.767   6.465  0.1698 -0.1660  0.4043
32895SOL    HW1  692   2.145   7.838   6.438 -0.6330  0.0160 -1.0053
32895SOL    HW2  693   2.030   7.753   6.388  0.6537 -2.6988  0.4246
32896SOL     OW  694   6.309   8.737  10.831 -0.3220  0.0615  0.4074
32896SOL    HW1  695   6.361   8.658  10.820 -0.5547  0.0693 -0.8782
32896SOL    HW2  696   6.276   8.732  10.921 -0.7273 -1.5327  0.1936
32897SOL     OW  697   4.817   7.360  10.230 -0.0213 -0.2112  0.1273
32897SOL    HW1  698   4.872   7.296  10.275  1.2644  1.1935  0.6482
32897SOL    HW2  699   4.837   7.349  10.137  2.1444  1.1131  0.3907
32898SOL     OW  700   0.540   5.757   2.491 -0.1390  0.9959 -0.1279
32898SOL    HW1  701   0.580   5.805   2.419 -0.7753 -0.4105 -1.4593
32898SOL    HW2  702   0.448   5.785   2.491  0.2794  2.5175  1.4782
32899SOL     OW  703   6.528   1.791   7.919 -0.0451  0.0652 -0.2922
32899SOL    HW1  704   6.457   1.806   7.857 -0.9334 -0.5517  0.5352
32899SOL    HW2  705   6.579   1.720   7.882 -0.8192 -0.5904 -0.1325
32900SOL     OW  706   4.584   6.759   9.161  0.0182  0.2585 -0.2435
32900SOL    HW1  707   4.586   6.841   9.112 -1.1675  0.8951  0.7097
32900SOL    HW2  708   4.521   6.705   9.115  0.4242  0.0760 -0.5847
32901SOL     OW  709   5.879   5.281   1.614 -0.3997 -0.6976  0.0126
32901SOL    HW1  710   5.809   5.240   1.666 -0.0155 -0.3133  0.8467
32901SOL    HW2  711   5.885   5.370   1.648 -1.7661  0.3882 -2.3147
32902SOL     OW  712   0.953   0.303   4.208 -0.1179 -0.2137 -0.3651
32902SOL    HW1  713   0.892   0.294   4.282  2.2335 -0.0183  1.7305
32902SOL    HW2  714   0.916   0.373   4.155 -2.1883 -0.7359  0.2782
32903SOL     OW  715   5.847   5.357   3.778 -0.3569  0.1251 -0.6571
32903SOL    HW1  716   5.836   5.450   3.760 -0.3858 -0.1098 -1.9094
32903SOL    HW2  717   5.938   5.338   3.756  0.4255  0.3522  2.0080
32904SOL     OW  718  10.348   7.030   0.951 -0.1348 -0.2706  0.7678
32904SOL    HW1  719  10.269   7.045   0.900  0.1246  0.4300  0.5584
32904SOL    HW2  720  10.393   6.959   0.906  0.4791  0.8516 -0.4537
32905SOL     OW  721   7.805   9.157  10.742  0.1063 -0.3956 -0.2772
32905SOL    HW1  722   7.790   9.235  10.688 -0.0551  0.2683  0.7088
32905SOL    HW2  723   7.848   9.095  10.682  2.3002  1.2527 -0.5232
32906SOL     OW  724   7.195   7.121   4.003  0.0400 -0.3597  0.8991
32906SOL    HW1  725   7.262   7.166   4.055  0.0647 -1.3566  1.7601
32906SOL    HW2  726   7.149   7.192   3.958  1.1097  0.4038  0.9617
32907SOL     OW  727   2.095  10.528   4.353 -0.3782  0.1103 -0.2067
32907SOL    HW1  728   2.102  10.480   4.436 -0.4628 -0.3835 -0.4801
32907SOL    HW2  729   2.129  10.468   4.287  1.5514  1.2323 -0.2926
32908SOL     OW  730   5.281   6.172   2.184 -0.0436  0.5527 -0.3524
32908SOL    HW1  731   5.270   6.113   2.110  0.4345  1.7794 -1.4345
32908SOL    HW2  732   5.248   6.122   2.259 -0.2776 -0.8210 -1.3250
32909SOL     OW  733   2.304   0.040   8.059  0.8397  0.1894 -0.5105
32909SOL    HW1  734   2.395   0.067   8.071  1.1285  0.8033 -3.2671
32909SOL    HW2  735   2.307  -0.019   7.983 -1.2620  2.0528 -2.1866
32910SOL     OW  736   3.711   7.265   5.695 -0.1642 -0.4492 -0.3770
32910SOL    HW1  737   3.710   7.175   5.661 -0.4655 -0.1354 -1.2136
32910SOL    HW2  738   3.773   7.262   5.768  1.0548 -0.9848 -1.4014
32911SOL     OW  739   9.088   6.017   3.911 -0.6643 -0.3176 -0.5568
32911SOL    HW1  740   9.120   6.022   4.001  1.7219  1.2455 -1.3927
32911SOL    HW2  741   9.074   5.923   3.896  2.4276 -1.0415  0.3705
32912SOL     OW  742   4.658   9.942   8.278 -0.2936  0.3099  0.0088
32912SOL    HW1  743   4.687  10.021   8.233 -0.4346  0.1932 -0.2864
32912SOL    HW2  744   4.562   9.947   8.277 -0.3065  1.1490  1.7871
32913SOL     OW  745   4.300   3.985   3.349 -1.0426 -0.0856 -0.1556
32913SOL    HW1  746   4.212   3.971   3.314 -1.4689 -2.1939  1.5338
32913SOL    HW2  747   4.332   3.897   3.369  0.9581  0.7223  0.4524
32914SOL     OW  748  10.227   0.758   5.795  0.1259  0.2146  0.0833
32914SOL    HW1  749  10.299   0.748   5.733 -0.0103 -0.3185  0.0076
32914SOL    HW2  750  10.167   0.686   5.774 -1.3097  1.6673 -1.0523
32915SOL     OW  751   7.108   4.217   0.312 -0.1019 -0.5287 -0.0699
32915SOL    HW1  752   7.046   4.265   0.367 -1.0437 -0.4888 -1.1200
32915SOL    HW2  753   7.169   4.177   0.373 -0.3491  0.5735  0.9195
32916SOL     OW  754   1.210  10.399   5.748  0.2125 -0.5173  0.5912
32916SOL    HW1  755   1.288  10.344   5.737 -0.3717 -1.9704  2.8806
32916SOL    HW2  756   1.137  10.342   5.726 -0.2753  0.6029 -0.8156
32917SOL     OW  757   6.597   9.644   7.183  0.0685  0.4351 -0.5284
32917SOL    HW1  758   6.645   9.599   7.251  1.6941 -1.0690 -2.5372
32917SOL    HW2  759   6.544   9.576   7.141 -0.5534  1.2152 -1.0460
32918SOL     OW  760   9.146   3.361   7.747  0.3105 -0.5325 -0.7341
32918SOL    HW1  761   9.092   3.420   7.800 -0.0023 -0.3091 -1.2998
32918SOL    HW2  762   9.201   3.315   7.811 -1.0837 -1.3265 -0.0503
32919SOL     OW  763   7.680   5.171   1.540 -0.3104 -0.1655 -0.9519
32919SOL    HW1  764   7.622   5.129   1.477 -1.9540 -0.0766  0.4153
32919SOL    HW2  765   7.723   5.099   1.586  0.4399 -0.2379 -1.7475
32920SOL     OW  766   3.031   9.391  10.650  0.2183  0.0766  0.0856
32920SOL    HW1  767   3.031   9.405  10.556 -0.8398  1.8900  0.3057
32920SOL    HW2  768   2.978   9.462  10.685 -0.7699 -1.4649  1.9263
32921SOL     OW  769   3.409   2.197   2.324  0.6180 -0.2301  0.0048
32921SOL    HW1  770   3.459   2.156   2.396  0.3923 -1.4451 -0.5079
32921SOL    HW2  771   3.400   2.128   2.259 -0.9698  0.2394 -0.3126
32922SOL     OW  772   6.614   4.311   9.405  0.4782  0.2140 -0.3745
32922SOL    HW1  773   6.708   4.312   9.391  0.7847  0.4629  1.4141
32922SOL    HW2  774   6.580   4.384   9.353  1.3014  0.2840 -0.8159
32923SOL     OW  775   6.946   9.455   2.389  1.1697 -0.4155 -0.2577
32923SOL    HW1  776   6.989   9.493   2.466 -1.3527  0.0678  1.0275
32923SOL    HW2  777   6.884   9.522   2.360 -0.4042 -1.8974 -0.5189
32924SOL     OW  778   3.482   9.345   2.699 -0.3235 -0.8588  0.3904
32924SOL    HW1  779   3.535   9.424   2.705 -0.2212 -0.8157 -0.8711
32924SOL    HW2  780   3.434   9.343   2.781  0.4382 -0.0452  0.8819
32925SOL     OW  781   2.933   4.718   9.626 -0.3479 -0.3967  0.2339
32925SOL    HW1  782   2.977   4.800   9.604 -0.0711 -0.9728 -1.5343
32925SOL    HW2  783   2.839   4.738   9.618 -0.2720 -0.3446 -0.6442
32926SOL     OW  784   1.618   3.639   6.808  0.4376 -0.0152 -0.1004
32926SOL    HW1  785   1.577   3.669   6.889  3.9152 -0.4636  2.0159
32926SOL    HW2  786   1.633   3.719   6.757 -2.9355  0.1477 -1.0521
32927SOL     OW  787   4.487   8.806   0.281  0.8487  0.0634  0.1938
32927SOL    HW1  788   4.399   8.795   0.248 -0.0919  2.7673  1.4635
32927SOL    HW2  789   4.487   8.761   0.366  0.6684  0.0910  0.2082
32928SOL     OW  790   4.240   0.887   5.075 -0.2569 -0.2080 -0.2057
32928SOL    HW1  791   4.164   0.926   5.032 -0.8267  0.3616  1.2350
32928SOL    HW2  792   4.288   0.962   5.110  0.0352 -0.6542  0.3594
32929SOL     OW  793   2.072   0.342   2.247  0.3899 -0.4584 -0.7058
32929SOL    HW1  794   2.138   0.366   2.312  0.4298 -1.7009 -0.2517
32929SOL    HW2  795   2.104   0.260   2.210  1.6001  1.3541 -4.0793
32930SOL     OW  796   5.705   7.057   2.578 -0.3066  0.1067  0.2719
32930SOL    HW1  797   5.784   7.086   2.623  0.8879 -1.7469 -0.4833
32930SOL    HW2  798   5.657   7.006   2.643 -1.6681  2.3851  1.1571
32931SOL     OW  799   8.193   8.311   2.124 -0.3285 -0.0088 -0.0067
32931SOL    HW1  800   8.206   8.368   2.048 -0.6112 -1.0004 -0.8205
32931SOL    HW2  801   8.273   8.258   2.128 -0.8065 -0.7742 -0.3398
32932SOL     OW  802   3.460  10.810   2.902 -0.1275  0.5922 -0.7253
32932SOL    HW1  803   3.433  10.893   2.943 -0.9141  0.8412 -1.7244
32932SOL    HW2  804   3.551  10.800   2.928  0.1505  2.0542 -1.0238
32933SOL     OW  805  10.343   2.429   1.425  0.0861  0.0862 -0.0029
32933SOL    HW1  806  10.252   2.400   1.414  0.0162  0.6832 -1.0528
32933SOL    HW2  807  10.367   2.468   1.341  1.3931 -0.2533  0.1902
32934SOL     OW  808   8.830   6.869   2.493  0.2531 -0.4508 -0.5813
32934SOL    HW1  809   8.755   6.888   2.437  0.8743 -0.1193 -1.3204
32934SOL    HW2  810   8.798   6.884   2.582 -0.3174  0.5202 -0.9360
32935SOL     OW  811   2.726  10.799   3.974  0.0072  0.1279 -0.1104
32935SOL    HW1  812   2.646  10.753   3.950 -1.2549  1.0390  2.0367
32935SOL    HW2  813   2.714  10.821   4.066  2.5695  0.6788  0.1745
32936SOL     OW  814   8.807   9.241   3.332  0.3230  0.7159  0.3155
32936SOL    HW1  815   8.756   9.320   3.345 -0.4276  0.0393  1.7164
32936SOL    HW2  816   8.754   9.171   3.371  1.2468 -0.3771 -0.3179
32937SOL     OW  817   3.192   3.698   7.752  0.0956 -0.1204  0.2901
32937SOL    HW1  818   3.144   3.616   7.737 -1.5014  0.8992 -0.5049
32937SOL    HW2  819   3.138   3.765   7.710  2.2011  1.1470 -0.5467
32938SOL     OW  820   8.845   9.971   9.825  0.0221  0.5563 -0.0778
32938SOL    HW1  821   8.907   9.911   9.783  0.3618  1.2244 -0.5610
32938SOL    HW2  822   8.894  10.008   9.899  0.8990  2.4670 -1.5215
32939SOL     OW  823   6.894   8.508   4.813 -0.0854  0.0656 -0.2005
32939SOL    HW1  824   6.912   8.462   4.895 -1.5766 -0.0225  0.1086
32939SOL    HW2  825   6.862   8.440   4.753 -0.5608  0.3817 -0.3179
32940SOL     OW  826   0.481   3.832   4.462 -0.5801  0.1812 -0.3416
32940SOL    HW1  827   0.410   3.774   4.489  0.5417 -1.1677 -0.1732
32940SOL    HW2  828   0.473   3.909   4.519 -1.6765 -0.1050 -0.0996
32941SOL     OW  829   3.584   2.626   9.713  0.4267  0.6811 -0.0979
32941SOL    HW1  830   3.659   2.586   9.756  0.1932 -1.0701 -1.2034
32941SOL    HW2  831   3.511   2.613   9.774  0.7328  1.1532  0.3764
32942SOL     OW  832   9.002   6.138   5.841  0.7295  0.1455 -0.8219
32942SOL    HW1  833   8.915   6.102   5.823 -0.5879  2.0650  1.0884
32942SOL    HW2  834   9.062   6.064   5.833 -1.1728 -1.4083 -1.4538
32943SOL     OW  835   1.442   8.639   3.159  0.0213 -0.1692 -0.1174
32943SOL    HW1  836   1.358   8.671   3.190 -1.0197  0.3690 -3.1155
32943SOL    HW2  837   1.497   8.717   3.153  0.4557 -0.3768  0.9201
32944SOL     OW  838   6.746   1.172   1.386  0.2833 -0.0890  0.4816
32944SOL    HW1  839   6.758   1.107   1.317  1.7109 -0.1105  0.7155
32944SOL    HW2  840   6.653   1.195   1.382 -0.2363 -2.0183  0.2819
32945SOL     OW  841  10.297   6.374   9.021  0.1108  0.1894  0.0873
32945SOL    HW1  842  10.209   6.410   9.027 -0.4523 -1.2226  0.9084
32945SOL    HW2  843  10.353   6.440   9.062 -0.9059  0.1132  1.6900
32946SOL     OW  844   9.863   6.573   3.576  0.1070  0.3523  0.4058
32946SOL    HW1  845   9.859   6.516   3.500  2.4658  0.3767  0.1955
32946SOL    HW2  846   9.793   6.637   3.562 -0.9673 -0.9953 -0.5781
32947SOL     OW  847   7.962   7.948   6.161  0.1108  0.2096 -0.3600
32947SOL    HW1  848   7.908   7.996   6.098  1.1136  2.1328  0.1413
32947SOL    HW2  849   8.052   7.960   6.130  0.5230  0.1782  0.7570
32948SOL     OW  850   8.447   4.945   2.637  0.0075 -0.0826  0.1106
32948SOL    HW1  851   8.429   5.038   2.626 -1.3229 -0.4503 -1.3618
32948SOL    HW2  852   8.360   4.905   2.644  0.5850 -1.1300  1.6183
32949SOL     OW  853   2.428  10.233   0.290  0.1431 -0.3535 -0.1040
32949SOL    HW1  854   2.438  10.140   0.313  1.2090 -0.1194  0.4421
32949SOL    HW2  855   2.505  10.275   0.328 -1.6369  1.2041  2.0992
32950SOL     OW  856   5.858   9.132   7.617  0.0359 -0.2761  0.1525
32950SOL    HW1  857   5.946   9.134   7.579  0.4322  0.6373  1.0591
32950SOL    HW2  858   5.863   9.065   7.684 -0.3045 -1.0251 -0.5578
32951SOL     OW  859   9.469   8.521   2.657 -0.5686 -0.8384  0.3142
32951SOL    HW1  860   9.408   8.447   2.660 -1.3398 -0.6362 -4.1323
32951SOL    HW2  861   9.442   8.572   2.581  1.7181  2.5281  1.5019
32952SOL     OW  862   9.418   9.156   3.816  0.1400  0.1192  0.0288
32952SOL    HW1  863   9.485   9.212   3.854  0.1217 -0.3851  0.8209
32952SOL    HW2  864   9.444   9.067   3.839 -0.5793 -0.1097 -0.0030
32953SOL     OW  865   4.591   1.596   1.362  0.6040  1.0314  0.9195
32953SOL    HW1  866   4.567   1.572   1.452 -0.3532  1.2912  0.7525
32953SOL    HW2  867   4.581   1.691   1.360 -0.3718  0.9282  0.2772
32954SOL     OW  868   8.518  10.240   0.107 -0.0305 -0.4570 -0.6821
32954SOL    HW1  869   8.517  10.153   0.147 -0.1822 -1.6746 -3.1587
32954SOL    HW2  870   8.431  10.250   0.069 -0.2003  1.0553  0.0255
32955SOL     OW  871   9.768   5.286   3.633  0.4618  0.2940 -0.5725
32955SOL    HW1  872   9.861   5.300   3.651  0.6886 -0.1026 -1.3580
32955SOL    HW2  873   9.723   5.349   3.689  1.3250  2.8267 -2.5370
32956SOL     OW  874   4.178   7.537   9.770 -0.4790  0.0007 -0.1572
32956SOL    HW1  875   4.232   7.598   9.721  0.3247 -1.6287 -1.4171
32956SOL    HW2  876   4.093   7.540   9.727  0.3659 -1.8076 -2.1340
32957SOL     OW  877   3.024   4.967   9.515 -0.7886  0.0566  0.3410
32957SOL    HW1  878   3.021   4.974   9.420 -0.4635  1.1815  0.3952
32957SOL    HW2  879   3.000   5.055   9.546 -1.5359 -0.4645  1.3144
32958SOL     OW  880   3.922   9.303   5.649  0.6849 -1.0846  0.4074
32958SOL    HW1  881   3.855   9.323   5.714  1.1411 -1.4010  0.9809
32958SOL    HW2  882   3.998   9.355   5.675  0.8987 -1.2760  0.1746
32959SOL     OW  883   5.031   4.786   8.520 -0.2076 -0.3320  0.0206
32959SOL    HW1  884   4.979   4.720   8.564 -1.7856 -1.4395 -3.1909
32959SOL    HW2  885   5.121   4.754   8.524 -0.5862 -1.3170  0.7601
32960SOL     OW  886   0.161   4.398   8.006  0.8066  0.5909 -0.1645
32960SOL    HW1  887   0.138   4.305   8.017 -1.5047  0.7811 -2.3397
32960SOL    HW2  888   0.256   4.398   8.002  0.8720 -2.0507 -2.0254
32961SOL     OW  889   8.998   0.122   4.796 -0.0859 -0.3224 -0.2211
32961SOL    HW1  890   9.023   0.198   4.744 -3.0573  0.6901 -0.3780
32961SOL    HW2  891   8.969   0.057   4.733 -2.5528  0.4657 -0.0179
32962SOL     OW  892   2.148   9.815   1.885  0.2492  0.0517 -0.4645
32962SOL    HW1  893   2.058   9.791   1.863  0.8873 -0.7273 -2.4390
32962SOL    HW2  894   2.193   9.732   1.897  1.0710  0.3648 -1.1967
32963SOL     OW  895   3.020   3.687   5.195  0.4951  1.0074 -0.2254
32963SOL    HW1  896   3.022   3.696   5.100 -0.5367 -0.9254 -0.4869
32963SOL    HW2  897   3.072   3.608   5.212  0.7340  1.3799  0.8308
32964SOL     OW  898   6.304   3.980   0.280 -0.1424 -0.2563  0.7386
32964SOL    HW1  899   6.210   3.986   0.291 -0.7746 -1.7569 -2.6199
32964SOL    HW2  900   6.331   4.067   0.251 -0.6890 -0.1309  0.5961
32965SOL     OW  901   5.023   3.672   1.336 -0.0314  0.1211 -0.3471
32965SOL    HW1  902   5.038   3.600   1.275 -2.2645 -0.3230 -0.4550
32965SOL    HW2  903   4.964   3.731   1.289 -0.1461  0.8090  0.6265
32966SOL     OW  904   6.796   6.910   2.812 -0.0443  0.1306  0.3409
32966SOL    HW1  905   6.865   6.845   2.799  0.6307  0.8751  0.0388
32966SOL    HW2  906   6.839   6.980   2.862 -1.6597 -1.1280  3.7425
32967SOL     OW  907   6.687   2.284   1.688  0.0145  0.4548 -0.0733
32967SOL    HW1  908   6.709   2.208   1.742 -0.6955  0.4338  0.1939
32967SOL    HW2  909   6.767   2.303   1.640  1.6755  2.2486  3.0579
32968SOL     OW  910   2.707   3.121  10.707  0.1028 -0.4137  0.3384
32968SOL    HW1  911   2.750   3.152  10.627 -0.6582  1.1861  0.5051
32968SOL    HW2  912   2.682   3.030  10.687 -2.4302  0.7034 -2.3039
32969SOL     OW  913   6.531   6.991   7.799 -0.3693  0.0005 -0.5035
32969SOL    HW1  914   6.455   6.964   7.749 -0.4883  1.4984 -1.1805
32969SOL    HW2  915   6.605   6.950   7.754 -0.7489 -1.8200  0.4100
32970SOL     OW  916   7.446   5.307   5.394  0.6956  0.2151 -0.6691
32970SOL    HW1  917   7.440   5.298   5.299  0.0278  3.7316 -1.1143
32970SOL    HW2  918   7.540   5.306   5.413  0.8143 -1.0387 -1.2633
32971SOL     OW  919   3.898   4.404  10.211 -0.5353  0.3869 -0.3353
32971SOL    HW1  920   3.917   4.316  10.180 -1.5869  0.8657 -2.5048
32971SOL    HW2  921   3.980   4.433  10.252  0.3673 -0.9531 -1.1141
32972SOL     OW  922   4.298   9.345   4.664  0.2270  0.1891  0.4024
32972SOL    HW1  923   4.290   9.350   4.569 -0.9284  1.0651  0.5139
32972SOL    HW2  924   4.247   9.268   4.689  0.0823  0.2612  0.3382
32973SOL     OW  925   8.398   3.399   2.637  0.4338  0.4858 -0.6712
32973SOL    HW1  926   8.375   3.315   2.598  0.5839  0.0441  0.1674
32973SOL    HW2  927   8.455   3.440   2.573 -1.5939  1.0510 -2.2208
32974SOL     OW  928   0.012   4.194   4.883  0.3245  0.5411 -0.2314
32974SOL    HW1  929   0.010   4.125   4.817  0.7109 -0.8503  1.1554
32974SOL    HW2  930   0.040   4.272   4.835 -0.2413 -0.2123 -1.8617
32975SOL     OW  931   0.451   5.119   5.648 -0.0237 -0.5972 -1.0163
32975SOL    HW1  932   0.487   5.205   5.627  0.7810 -0.9122 -0.9530
32975SOL    HW2  933   0.525   5.070   5.684 -1.4225  0.1986  3.6537
32976SOL     OW  934   9.301   0.255   6.829  0.5360 -0.2464 -0.5470
32976SOL    HW1  935   9.369   0.269   6.895  1.0642 -3.0507 -0.3784
32976SOL    HW2  936   9.338   0.288   6.748  1.0044  0.6525  0.0119
32977SOL     OW  937   9.662   5.464   7.585  0.2772  0.6695  0.4794
32977SOL    HW1  938   9.733   5.401   7.600  0.1841  0.7571  1.3395
32977SOL    HW2  939   9.668   5.485   7.492 -0.8913 -2.0966 -0.3196
32978SOL     OW  940   6.966   1.389   6.417 -0.3340 -0.6352  0.1669
32978SOL    HW1  941   7.053   1.372   6.452 -0.6834 -0.6028  1.0764
32978SOL    HW2  942   6.963   1.484   6.405 -0.2299 -0.6433  0.0681
32979SOL     OW  943  10.811   8.090   4.711 -0.0108  0.3929  0.3211
32979SOL    HW1  944  10.769   8.046   4.637 -2.4926 -0.1401  1.9462
32979SOL    HW2  945  10.855   8.019   4.759 -0.0310  0.4231  0.3851
32980SOL     OW  946   7.274   2.224   5.536  0.3780 -0.2008 -0.4490
32980SOL    HW1  947   7.354   2.249   5.490  0.0740  2.6855  0.3614
32980SOL    HW2  948   7.304   2.195   5.623  0.5920  1.3948  0.0485
32981SOL     OW  949   3.886   8.296   6.680  0.7249  0.1159 -0.0324
32981SOL    HW1  950   3.899   8.288   6.585 -1.7739 -0.9839 -0.3464
32981SOL    HW2  951   3.870   8.390   6.693  0.0575  0.1269 -0.8573
32982SOL     OW  952   5.654   1.088   3.643 -0.8070  0.1596 -0.2665
32982SOL    HW1  953   5.570   1.100   3.689 -1.5773  0.8649 -1.7723
32982SOL    HW2  954   5.630   1.086   3.550  0.6851 -1.3245 -0.6719
32983SOL     OW  955   7.378   1.508   8.545 -0.4657 -0.3688  0.5111
32983SOL    HW1  956   7.458   1.457   8.530  0.6787  1.7273 -1.0531
32983SOL    HW2  957   7.315   1.472   8.484  0.5046  0.3799 -0.9850
32984SOL     OW  958   5.991   1.227   3.424 -0.4647 -0.0737  0.2685
32984SOL    HW1  959   5.955   1.248   3.510 -2.0991 -1.5675  0.0031
32984SOL    HW2  960   5.915   1.228   3.366  0.4193 -0.3504 -0.9131
32985SOL     OW  961   2.408   6.062   5.551 -0.1135  0.2572 -0.2368
32985SOL    HW1  962   2.313   6.056   5.556 -0.1264  0.6632  0.0233
32985SOL    HW2  963   2.430   6.021   5.467 -0.5159  0.1738 -0.3027
32986SOL     OW  964   6.479   0.554   0.216 -0.6283 -0.2478 -0.1335
32986SOL    HW1  965   6.490   0.459   0.207  1.3035  0.1114 -2.2372
32986SOL    HW2  966   6.435   0.581   0.135  1.3075  0.9455 -0.8567
32987SOL     OW  967   3.467   4.854   0.228  0.3030 -0.2075  0.0455
32987SOL    HW1  968   3.456   4.872   0.322  0.1897 -2.0539  0.4298
32987SOL    HW2  969   3.409   4.780   0.212 -0.3336  0.6231 -1.7119
32988SOL     OW  970   1.943   4.170   5.068 -0.7956 -0.2760 -0.1885
32988SOL    HW1  971   1.969   4.169   4.976  2.2589  3.9149  0.3435
32988SOL    HW2  972   2.007   4.114   5.112 -0.9954 -0.6313 -0.3419
32989SOL     OW  973   6.839   1.536   9.390 -0.3257 -0.4203 -0.8842
32989SOL    HW1  974   6.902   1.584   9.443  1.5704 -1.5117 -2.0492
32989SOL    HW2  975   6.822   1.456   9.439 -0.2936 -0.4272 -0.8845
32990SOL     OW  976  10.129   0.715   0.735 -0.0054 -0.2747 -0.4847
32990SOL    HW1  977  10.142   0.631   0.778  0.1532 -1.1369 -2.1266
32990SOL    HW2  978  10.218   0.749   0.721 -0.0664  0.1586  0.1136
32991SOL     OW  979   7.355   4.825   2.751 -0.3247 -0.3760 -0.3245
32991SOL    HW1  980   7.393   4.800   2.836 -1.2049 -0.3251  0.0950
32991SOL    HW2  981   7.262   4.803   2.759 -0.6303  0.6377 -0.8689
32992SOL     OW  982   4.241   0.266   9.426 -0.4283  0.1902 -0.3327
32992SOL    HW1  983   4.287   0.183   9.433 -2.9622 -1.4103 -1.2761
32992SOL    HW2  984   4.242   0.302   9.515 -0.5276 -1.5861  0.4274
32993SOL     OW  985   7.515   6.462   1.168  0.2213  0.0958 -0.1581
32993SOL    HW1  986   7.553   6.495   1.250 -1.6920 -2.6123  2.0172
32993SOL    HW2  987   7.423   6.489   1.172  0.0887 -0.1210 -1.4183
32994SOL     OW  988   6.367   7.738   0.524 -0.4179  0.7370  0.4185
32994SOL    HW1  989   6.380   7.758   0.616  4.9358 -2.1474  0.6462
32994SOL    HW2  990   6.427   7.796   0.478 -0.5531 -0.1415 -0.9294
32995SOL     OW  991   3.661   1.474   6.773  0.0506 -0.1530 -0.1133
32995SOL    HW1  992   3.702   1.418   6.839  1.4787  0.4877 -0.4318
32995SOL    HW2  993   3.705   1.558   6.780 -2.6741  1.3197  0.9741
32996SOL     OW  994   2.552   0.320   5.696  0.1340 -0.2980 -0.9004
32996SOL    HW1  995   2.457   0.322   5.712 -0.0340  1.2290 -1.7758
32996SOL    HW2  996   2.569   0.231   5.665 -0.5409 -1.3876  1.6045
32997SOL     OW  997   3.624   8.186   1.444 -0.2627  0.2991 -0.3522
32997SOL    HW1  998   3.573   8.180   1.362 -0.3864  1.7787 -0.4093
32997SOL    HW2  999   3.561   8.164   1.512 -0.3841 -0.1102 -0.5908
32998SOL     OW 1000   0.812   5.527   0.381  0.2387  0.0802  0.5118
32998SOL    HW1 1001   0.730   5.576   0.377 -0.3871 -1.0173 -1.4701
32998SOL    HW2 1002   0.863   5.561   0.307  1.4445  0.4609  1.4782
32999SOL     OW 1003   7.170   7.739   7.924  0.1369  0.0302  0.0860
32999SOL    HW1 1004   7.083   7.765   7.893  0.0613 -1.4422 -1.0462
32999SOL    HW2 1005   7.185   7.793   8.001  0.2578  3.8881 -2.3813
33000SOL     OW 1006   4.857   8.968   7.099  0.0605  0.0029  0.1625
33000SOL    HW1 1007   4.828   8.881   7.070 -1.9393  0.7302 -0.2098
33000SOL    HW2 1008   4.889   8.954   7.188 -1.3225 -0.9672  0.5530
33001SOL     OW 1009   5.712  10.790   5.927  0.2099 -0.0540  0.3884
33001SOL    HW1 1010   5.784  10.844   5.895 -0.2040 -1.0823 -2.6919
33001SOL    HW2 1011   5.752  10.730   5.989  1.9096 -0.1385 -0.7250
33002SOL     OW 1012   8.233   9.213   4.101  0.3659 -0.0102 -0.4867
33002SOL    HW1 1013   8.200   9.142   4.156 -0.9829 -0.7380 -2.1393
33002SOL    HW2 1014   8.300   9.172   4.047  2.6428  0.9977  1.4172
33003SOL     OW 1015   0.067   3.937   8.177 -0.1403 -0.2106 -0.7536
33003SOL    HW1 1016   0.117   3.887   8.242 -0.3110  1.4409  0.7119
33003SOL    HW2 1017   0.007   3.991   8.229 -0.4118  1.0477 -2.2938
33004SOL     OW 1018   1.149   2.958   3.716 -0.3297 -0.6408 -0.0260
33004SOL    HW1 1019   1.236   2.984   3.747 -0.8762 -0.5985  1.6125
33004SOL    HW2 1020   1.151   2.976   3.622  0.3833  2.4061  0.4350
33005SOL     OW 1021   9.130   4.137   4.843  0.1902 -0.7600 -0.3034
33005SOL    HW1 1022   9.122   4.184   4.760 -0.8649  0.7736  0.6268
33005SOL    HW2 1023   9.060   4.172   4.898  0.9591 -1.6220  1.3072
33006SOL     OW 1024  10.537   7.314   5.421 -0.5240 -0.2842  0.3846
33006SOL    HW1 1025  10.620   7.359   5.440 -0.3549  0.8336 -2.5301
33006SOL    HW2 1026  10.489   7.317   5.504  1.7409  0.3116  1.7755
33007SOL     OW 1027   6.681   8.876   0.246 -0.3806 -0.1229 -0.3621
33007SOL    HW1 1028   6.733   8.829   0.181  0.4515  0.9018 -0.4729
33007SOL    HW2 1029   6.610   8.816   0.268  1.5363 -2.1031  0.7656
33008SOL     OW 1030   8.495   8.717   8.936  0.2754  0.3224 -0.1479
33008SOL    HW1 1031   8.568   8.664   8.903 -0.2627 -1.0718  0.8284
33008SOL    HW2 1032   8.444   8.657   8.989 -1.3391  1.4076 -0.4161
33009SOL     OW 1033   2.980   9.825  10.057 -0.5621  0.2298  0.5702
33009SOL    HW1 1034   2.996   9.918  10.039  0.1201 -0.1425 -0.8744
33009SOL    HW2 1035   2.887   9.813  10.039 -0.2977  0.2909 -0.9034
33010SOL     OW 1036   6.942  10.575   2.511 -0.6790 -0.5478 -0.0386
33010SOL    HW1 1037   6.889  10.501   2.542 -1.4810  0.6780  1.7058
33010SOL    HW2 1038   6.882  10.650   2.514  0.8660  0.7028  1.0544
33011SOL     OW 1039   7.184   5.213   7.794 -0.6244  0.1826 -0.2627
33011SOL    HW1 1040   7.166   5.269   7.869  0.0807  1.1542 -0.7908
33011SOL    HW2 1041   7.235   5.140   7.829  1.9006  1.8866 -0.1175
33012SOL     OW 1042   9.631  10.395   3.375 -0.4172  0.2190 -0.1543
33012SOL    HW1 1043   9.671  10.308   3.374  0.3219  0.5518 -1.2275
33012SOL    HW2 1044   9.607  10.409   3.467 -1.1898 -1.3920 -0.0850
33013SOL     OW 1045   4.779  10.348   1.155  0.4266 -0.0449  0.1671
33013SOL    HW1 1046   4.827  10.304   1.085  0.5720  0.8793 -0.3343
33013SOL    HW2 1047   4.838  10.346   1.230  0.8943  0.2883 -0.1852
33014SOL     OW 1048   0.290   4.919   2.534  0.1687  0.0558 -0.1064
33014SOL    HW1 1049   0.338   4.931   2.616  0.5148  1.5289 -0.4963
33014SOL    HW2 1050   0.203   4.954   2.551  0.5975  1.4549 -0.6926
33015SOL     OW 1051   7.790  10.597   6.501  0.2078  0.8524  0.3992
33015SOL    HW1 1052   7.708  10.581   6.454 -0.7464  0.6686  2.0441
33015SOL    HW2 1053   7.837  10.514   6.496  0.2522  0.9122 -0.4290
33016SOL     OW 1054   9.956   9.547   6.906  0.2952 -0.2825 -0.2798
33016SOL    HW1 1055  10.046   9.558   6.937  0.6442 -2.4531 -0.4043
33016SOL    HW2 1056   9.904   9.540   6.986  0.2883  0.4565 -0.2107
33017SOL     OW 1057   7.909   4.074   1.968 -0.6927  0.4059  0.6646
33017SOL    HW1 1058   7.832   4.026   1.999 -0.9103 -2.4499 -3.5206
33017SOL    HW2 1059   7.878   4.121   1.891  1.4700  0.0557 -0.4776
33018SOL     OW 1060   8.434   7.616   9.237 -0.3601  0.5057  0.5607
33018SOL    HW1 1061   8.509   7.577   9.281  0.1924  0.6958 -0.1977
33018SOL    HW2 1062   8.471   7.660   9.161 -0.8371  3.2458  1.8044
33019SOL     OW 1063   8.731   0.086   7.325  0.0431 -0.5161  0.3939
33019SOL    HW1 1064   8.740  -0.006   7.349  0.0359 -0.6975 -0.2792
33019SOL    HW2 1065   8.817   0.124   7.345  0.6005 -1.0444 -0.8957
33020SOL     OW 1066   8.814   7.835   2.173 -0.2672  0.9874  0.2829
33020SOL    HW1 1067   8.894   7.819   2.224  0.0667  2.7640  0.3677
33020SOL    HW2 1068   8.760   7.758   2.189  1.2755 -0.1051  0.5104
33021SOL     OW 1069   8.202   1.683   6.572 -0.2801  0.1605  0.2300
33021SOL    HW1 1070   8.145   1.735   6.515 -1.6154 -0.2768  1.1129
33021SOL    HW2 1071   8.282   1.669   6.521 -1.6935 -0.8468 -1.8323
33022SOL     OW 1072   0.820  10.585   2.699  0.7686 -0.2253 -0.1106
33022SOL    HW1 1073   0.876  10.513   2.671  0.3959 -0.4563 -0.2783
33022SOL    HW2 1074   0.733  10.561   2.667  0.8195  0.8098 -1.0954
33023SOL     OW 1075   8.511   6.887   8.486  0.6860  0.1463  0.3046
33023SOL    HW1 1076   8.484   6.978   8.476 -0.2302 -0.2962 -1.9756
33023SOL    HW2 1077   8.558   6.867   8.405  0.4082 -1.5303  0.5201
33024SOL     OW 1078   0.512   2.599   5.185 -0.4950 -0.1351 -0.5909
33024SOL    HW1 1079   0.422   2.575   5.162 -1.3075  0.4804  1.6799
33024SOL    HW2 1080   0.504   2.646   5.268  1.8496  0.7873 -0.8027
33025SOL     OW 1081  10.586   1.192   5.222  0.2903  0.1254  0.3517
33025SOL    HW1 1082  10.643   1.260   5.257  0.5612 -1.2257  2.7639
33025SOL    HW2 1083  10.498   1.217   5.252  0.4120 -0.6009  1.3896
33026SOL     OW 1084   3.843   3.334   1.266 -0.1185  0.0881  0.2844
33026SOL    HW1 1085   3.872   3.376   1.185  0.3029 -0.6664  0.0374
33026SOL    HW2 1086   3.787   3.400   1.308  0.2785  0.7783 -0.2388
33027SOL     OW 1087   7.390   1.415   3.646 -0.4243 -0.1555 -0.6341
33027SOL    HW1 1088   7.427   1.446   3.564  0.6621  2.0935  0.6059
33027SOL    HW2 1089   7.304   1.457   3.651 -0.6320 -0.5547 -0.7364
33028SOL     OW 1090   5.682   5.844   4.285 -0.2112 -0.1175 -0.1956
33028SOL    HW1 1091   5.671   5.762   4.237 -0.7973  0.3197 -0.8137
33028SOL    HW2 1092   5.772   5.840   4.319 -0.1557 -0.9023 -0.4243
33029SOL     OW 1093   2.751   1.956   1.779 -0.0073 -0.1270 -0.5010
33029SOL    HW1 1094   2.833   1.976   1.733  1.0681  1.1507  1.7747
33029SOL    HW2 1095   2.778   1.930   1.866 -2.0279  0.7332  0.4598
33030SOL     OW 1096   3.365   9.537   8.678  0.6844 -0.3622 -0.7226
33030SOL    HW1 1097   3.371   9.471   8.608  1.4372 -1.0435 -0.0350
33030SOL    HW2 1098   3.316   9.493   8.748  2.7721 -0.9061  0.4845
33031SOL     OW 1099   0.625   6.104   1.307 -0.3322 -0.2052 -0.0766
33031SOL    HW1 1100   0.651   6.052   1.383 -0.4276  0.6761  0.5728
33031SOL    HW2 1101   0.705   6.112   1.255  0.1141  0.4274  0.6844
33032SOL     OW 1102  10.692   3.971   6.348  0.0493  0.6783 -0.6639
33032SOL    HW1 1103  10.750   4.013   6.410 -0.7829  2.8240 -1.2500
33032SOL    HW2 1104  10.747   3.954   6.271  0.4931  0.3342 -0.2694
33033SOL     OW 1105   8.163   3.091   0.664 -0.0350 -0.0609  0.7051
33033SOL    HW1 1106   8.127   3.108   0.751  1.2042  0.4247  1.1323
33033SOL    HW2 1107   8.244   3.043   0.680 -0.0181 -0.3551 -0.2062
33034SOL     OW 1108   0.317   2.615  10.364 -0.1982  0.3892  0.8114
33034SOL    HW1 1109   0.291   2.675  10.294 -0.8400  0.5186  1.1521
33034SOL    HW2 1110   0.291   2.528  10.332 -0.2264  0.4124  0.7718
33035SOL     OW 1111   3.646   1.251  10.978 -0.3148  0.1261 -1.0455
33035SOL    HW1 1112   3.729   1.240  11.026 -0.8595  0.3781 -0.0134
33035SOL    HW2 1113   3.581   1.205  11.031 -1.2455  1.8588 -0.5848
33036SOL     OW 1114   7.057   4.263   7.742  0.0802 -0.2203  0.4473
33036SOL    HW1 1115   7.117   4.328   7.705 -0.4342  0.1828  0.3080
33036SOL    HW2 1116   7.036   4.205   7.669 -0.7733  0.4548  0.1361
33037SOL     OW 1117   8.292  11.011   8.742  0.6195  0.5600 -0.2472
33037SOL    HW1 1118   8.315  10.934   8.794  0.9391  0.2631 -0.8230
33037SOL    HW2 1119   8.198  11.003   8.728  0.4857  0.7732  0.4911
33038SOL     OW 1120   8.507   6.630   1.674  0.4000  0.4024  0.4073
33038SOL    HW1 1121   8.448   6.594   1.740 -1.3866  2.0174 -0.2119
33038SOL    HW2 1122   8.480   6.589   1.592  0.3024  0.9395  0.1621
33039SOL     OW 1123   5.575   4.399   5.953  0.1475  0.1929  0.2411
33039SOL    HW1 1124   5.620   4.327   5.908  0.9465  1.1665 -0.5711
33039SOL    HW2 1125   5.586   4.379   6.046 -0.7375 -1.3768  0.0397
33040SOL     OW 1126   8.854   5.303   0.615  1.2170  0.0193 -0.0418
33040SOL    HW1 1127   8.879   5.238   0.681 -3.3836  0.1036  2.1801
33040SOL    HW2 1128   8.850   5.385   0.663 -1.1465  0.2871 -0.5408
33041SOL     OW 1129   1.445   1.020  10.616 -0.3718 -0.4727 -0.3421
33041SOL    HW1 1130   1.443   0.933  10.575  2.0227 -1.8697  2.1331
33041SOL    HW2 1131   1.362   1.025  10.664  0.2164 -2.3060  0.9934
33042SOL     OW 1132   8.868   0.282   4.370  0.0942  0.2208  0.1387
33042SOL    HW1 1133   8.843   0.211   4.311  0.5552  0.1499  0.0219
33042SOL    HW2 1134   8.869   0.360   4.315 -2.6183  0.7590  0.7242
33043SOL     OW 1135   0.015   9.872   8.463  0.1307  0.0176 -0.4396
33043SOL    HW1 1136   0.090   9.902   8.515 -0.7108 -1.7660  1.9812
33043SOL    HW2 1137  -0.014   9.792   8.507 -2.1841 -0.2601 -2.2975
33044SOL     OW 1138   7.688   1.621   0.792  0.3222  0.3908 -0.0544
33044SOL    HW1 1139   7.705   1.527   0.801  0.4800  0.4665  0.4679
33044SOL    HW2 1140   7.606   1.636   0.839 -0.1539  0.3767 -0.8543
33045SOL     OW 1141   4.910   9.933   4.235  0.4047  0.0722 -0.3886
33045SOL    HW1 1142   4.974   9.967   4.173 -0.5726 -0.3077 -1.6498
33045SOL    HW2 1143   4.875   9.854   4.194  0.3716 -0.7067  1.0714
33046SOL     OW 1144  10.881   9.326   2.206  0.1147 -0.2580  0.2266
33046SOL    HW1 1145  10.800   9.305   2.252 -1.1328  0.0255 -1.7425
33046SOL    HW2 1146  10.889   9.258   2.140  0.6011  0.6438 -0.6628
33047SOL     OW 1147   6.103   7.366   3.881 -0.0887 -0.2764 -0.2247
33047SOL    HW1 1148   6.176   7.313   3.849  0.6663  0.8304 -0.3718
33047SOL    HW2 1149   6.104   7.444   3.826 -1.0280  0.0194  0.1574
33048SOL     OW 1150   7.392   8.007   4.048  0.6315 -0.3958 -0.0722
33048SOL    HW1 1151   7.386   8.102   4.050  3.8169 -0.0386 -1.2249
33048SOL    HW2 1152   7.453   7.986   4.119 -1.0763 -1.7863  1.0798
33049SOL     OW 1153   5.562   4.772   7.452  0.2660 -0.0163 -0.2536
33049SOL    HW1 1154   5.640   4.826   7.467 -0.8359  2.1543 -1.9290
33049SOL    HW2 1155   5.586   4.686   7.488  2.8730  0.9670  0.5928
33050SOL     OW 1156  10.941   4.361   8.147  0.2010  0.1170  0.0554
33050SOL    HW1 1157  10.895   4.284   8.180  1.3666 -1.1164 -1.0730
33050SOL    HW2 1158  11.011   4.376   8.210 -1.0031  1.3356  1.1840
33051SOL     OW 1159   8.830   8.163   7.271  0.1767  0.3494  0.6657
33051SOL    HW1 1160   8.876   8.230   7.221 -0.9343 -0.9972 -2.3768
33051SOL    HW2 1161   8.889   8.087   7.269  0.2403  0.3617  1.6786
33052SOL     OW 1162   6.753   8.882  10.558  0.2921  0.2224 -0.8138
33052SOL    HW1 1163   6.848   8.874  10.563  0.1792 -1.3293  4.0469
33052SOL    HW2 1164   6.722   8.791  10.551 -0.8619  0.6410 -1.3944
33053SOL     OW 1165   2.986   8.521   3.842 -0.0469 -0.0733  0.4663
33053SOL    HW1 1166   2.997   8.437   3.885  1.1124  1.1724  2.7757
33053SOL    HW2 1167   2.898   8.517   3.805  0.6915 -2.9926 -1.2819
33054SOL     OW 1168  10.430   9.116   5.978 -0.3285 -0.0936 -0.4717
33054SOL    HW1 1169  10.374   9.189   6.003  1.5741  0.5844  2.2462
33054SOL    HW2 1170  10.399   9.042   6.029  1.8836  0.6184  2.1495
33055SOL     OW 1171   8.980  10.754   2.021 -0.6706 -0.0409  0.0982
33055SOL    HW1 1172   8.922  10.782   1.950  0.4074  2.6818  0.1570
33055SOL    HW2 1173   8.965  10.817   2.091  0.7404 -0.6131  0.9593
33056SOL     OW 1174   5.179   5.410   8.115 -0.1396  0.2802 -0.1802
33056SOL    HW1 1175   5.094   5.453   8.102 -0.6632 -1.0925 -1.5607
33056SOL    HW2 1176   5.156   5.324   8.151  0.5117 -0.7790 -2.1838
33057SOL     OW 1177   2.567   1.968   9.611 -0.3427  0.1372  0.2210
33057SOL    HW1 1178   2.493   2.027   9.604 -1.1211 -0.6284  1.4942
33057SOL    HW2 1179   2.543   1.892   9.557 -1.4773 -1.0154  2.2159
33058SOL     OW 1180   1.073   7.733   8.457  0.3070 -0.3433 -0.1382
33058SOL    HW1 1181   1.120   7.771   8.532 -1.0157 -0.5891  0.8459
33058SOL    HW2 1182   0.987   7.774   8.460 -0.3872 -1.7430 -0.4060
33059SOL     OW 1183   7.249   9.420   9.732 -0.6367  0.3487  0.1763
33059SOL    HW1 1184   7.226   9.480   9.662  2.7119 -1.0530 -2.3641
33059SOL    HW2 1185   7.195   9.342   9.716  0.4986 -0.1715 -1.2438
33060SOL     OW 1186   0.883   6.713   9.876 -0.0933  0.1095  0.8333
33060SOL    HW1 1187   0.949   6.651   9.909  2.3518  2.3309  0.4144
33060SOL    HW2 1188   0.904   6.796   9.919 -2.1682  1.1034  0.0598
33061SOL     OW 1189   4.420   3.695   3.218  0.7020  0.5577 -0.2192
33061SOL    HW1 1190   4.351   3.638   3.254  0.4796  0.2963 -1.0381
33061SOL    HW2 1191   4.378   3.741   3.145  1.8097 -0.8766 -1.8554
33062SOL     OW 1192  10.792   1.338  10.691 -0.3387 -0.4334  0.3314
33062SOL    HW1 1193  10.699   1.341  10.670 -0.4651  1.7976  0.8910
33062SOL    HW2 1194  10.822   1.429  10.679  1.5547 -0.9125  1.0412
33063SOL     OW 1195   4.271   8.033   5.552 -0.0699 -0.2346  0.6035
33063SOL    HW1 1196   4.348   8.043   5.608 -0.0564  0.2737  0.5003
33063SOL    HW2 1197   4.204   7.994   5.609 -0.4824  1.5041  1.3632
33064SOL     OW 1198   7.574  10.627   6.811 -0.0653  0.0304 -0.7734
33064SOL    HW1 1199   7.513  10.564   6.775 -0.5185 -0.6429  1.0766
33064SOL    HW2 1200   7.584  10.602   6.902  0.2645  2.2350 -0.1393
33065SOL     OW 1201   5.285   0.714   8.134  0.1126  0.1426  0.0327
33065SOL    HW1 1202   5.225   0.658   8.085  1.1918 -1.1648  0.1658
33065SOL    HW2 1203   5.356   0.657   8.160  2.2114  1.9508 -1.3708
33066SOL     OW 1204   1.834   2.346   1.412  1.0371 -0.8254  0.8210
33066SOL    HW1 1205   1.849   2.369   1.321 -1.8795  0.3146  0.5177
33066SOL    HW2 1206   1.919   2.358   1.454  1.7295  2.0804 -1.0888
33067SOL     OW 1207   3.165   9.109   1.415 -0.1400 -0.4268  0.3852
33067SOL    HW1 1208   3.106   9.182   1.434 -1.8850 -2.1913  2.2760
33067SOL    HW2 1209   3.227   9.108   1.488  0.7122 -0.0935 -0.3119
33068SOL     OW 1210   2.026   6.482   3.471  0.3542  0.2842 -0.1212
33068SOL    HW1 1211   1.942   6.445   3.445  0.6840 -1.1686  0.7668
33068SOL    HW2 1212   2.065   6.416   3.529  0.9758  2.0290  1.5661
33069SOL     OW 1213   5.090   9.177   6.045  0.6416  0.0179  0.2057
33069SOL    HW1 1214   5.116   9.262   6.010  2.0285 -1.4568 -2.6618
33069SOL    HW2 1215   5.165   9.120   6.028 -0.4917 -1.9657  1.4638
33070SOL     OW 1216   7.258   1.132   1.840  0.5749 -0.5920 -0.6166
33070SOL    HW1 1217   7.325   1.069   1.811  0.9028 -0.8560  0.6681
33070SOL    HW2 1218   7.304   1.216   1.843  1.0632 -0.8814  0.8943
33071SOL     OW 1219   3.189   3.797   5.362  0.1864 -0.5862  0.4015
33071SOL    HW1 1220   3.108   3.787   5.313  0.5147  1.4930 -0.6867
33071SOL    HW2 1221   3.193   3.720   5.418 -3.5491  0.0994  1.9552
33072SOL     OW 1222   9.021   4.585   7.022  0.2263  0.8475 -0.3465
33072SOL    HW1 1223   9.077   4.550   6.953 -3.0207 -0.7636 -2.4591
33072SOL    HW2 1224   8.990   4.669   6.988  0.1871  1.0252  0.1185
33073SOL     OW 1225   8.071   5.205   9.521  0.4112  0.5555 -0.0867
33073SOL    HW1 1226   8.035   5.181   9.606 -0.5682  0.9036 -0.3741
33073SOL    HW2 1227   8.006   5.266   9.485  0.2857 -0.3566 -1.5009
33074SOL     OW 1228   2.221   8.028   2.676 -0.8571 -0.1062  0.0694
33074SOL    HW1 1229   2.250   8.119   2.666  2.1318 -0.5862  2.8041
33074SOL    HW2 1230   2.256   8.001   2.761 -2.8906 -3.4076  0.0118
33075SOL     OW 1231   1.332   0.496   0.098 -0.1865 -0.1115 -0.1918
33075SOL    HW1 1232   1.291   0.572   0.058 -1.6355 -0.9841 -0.4475
33075SOL    HW2 1233   1.322   0.510   0.193  0.8709  0.7006 -0.1951
33076SOL     OW 1234   8.842  11.017  10.206  0.3798  0.1856 -0.0087
33076SOL    HW1 1235   8.773  10.973  10.155 -0.7093  0.4403  1.1979
33076SOL    HW2 1236   8.839  11.108  10.177  0.7628  0.0474 -0.5144
33077SOL     OW 1237   9.818   9.132   1.435  0.2790  0.1644  0.0417
33077SOL    HW1 1238   9.907   9.097   1.436 -0.6172 -2.3110  1.6340
33077SOL    HW2 1239   9.811   9.182   1.516 -0.2452 -0.9650  0.7013
33078SOL     OW 1240   5.658   7.184   0.964 -0.1731  0.1624  0.2585
33078SOL    HW1 1241   5.626   7.099   0.934 -0.0593  0.8811 -2.0989
33078SOL    HW2 1242   5.747   7.190   0.929  0.0751  0.9767  0.9972
33079SOL     OW 1243   6.292   5.897   3.294 -0.6632  0.2558  0.0912
33079SOL    HW1 1244   6.356   5.863   3.231 -2.6022 -0.4643 -1.5846
33079SOL    HW2 1245   6.260   5.978   3.255 -0.8354  0.5848  0.8878
33080SOL     OW 1246   3.154   9.034   7.956  0.2662  0.3545  0.5761
33080SOL    HW1 1247   3.125   9.031   8.048 -0.4984  0.8150  0.3618
33080SOL    HW2 1248   3.119   8.954   7.918 -1.8172  1.4514  0.0316
33081SOL     OW 1249   5.016   7.192   5.861  0.5789  0.8162  0.4291
33081SOL    HW1 1250   5.104   7.230   5.854  1.6089 -1.3906  0.6954
33081SOL    HW2 1251   5.024   7.106   5.821 -1.7000  0.8561 -0.2431
33082SOL     OW 1252  10.725   0.014   7.677 -0.4742 -0.6464  0.5658
33082SOL    HW1 1253  10.782   0.020   7.753  2.6295  0.2758 -1.6525
33082SOL    HW2 1254  10.684   0.101   7.669  2.6542  0.8387 -1.1474
33083SOL     OW 1255   5.489  10.417   0.263 -0.0664  0.1043 -0.2545
33083SOL    HW1 1256   5.403  10.385   0.292 -1.9326 -0.0358 -5.0121
33083SOL    HW2 1257   5.480  10.512   0.264 -1.5534  0.1199 -3.3735
33084SOL     OW 1258   5.039   2.999   7.482 -0.1179 -0.7826  0.0026
33084SOL    HW1 1259   4.960   3.002   7.428 -0.5900 -2.6050  0.4946
33084SOL    HW2 1260   5.109   3.028   7.425 -0.4993 -3.1905 -1.8384
33085SOL     OW 1261   1.637   7.866   7.930  0.1681  0.2640  0.3937
33085SOL    HW1 1262   1.729   7.871   7.958  0.9977 -2.6098 -1.3758
33085SOL    HW2 1263   1.611   7.776   7.948 -2.2767  0.9437  0.5883
33086SOL     OW 1264   6.790   3.512   9.483 -0.2518  0.2810  0.3554
33086SOL    HW1 1265   6.871   3.489   9.437 -0.2496 -0.0792  0.5327
33086SOL    HW2 1266   6.775   3.603   9.460 -1.1499 -0.3273 -1.6960
33087SOL     OW 1267   3.477   7.107   7.537  0.0048 -0.8461 -0.1893
33087SOL    HW1 1268   3.464   7.170   7.609  1.4667 -1.3155  0.5220
33087SOL    HW2 1269   3.552   7.142   7.489 -1.1789 -0.3442 -1.7484
33088SOL     OW 1270   6.972   9.873   1.686  0.1823 -1.0985  0.2931
33088SOL    HW1 1271   7.034   9.821   1.635 -1.0446 -2.6688  0.3230
33088SOL    HW2 1272   6.902   9.894   1.624 -0.1430 -0.9351  0.7109
33089SOL     OW 1273   7.009   8.712   1.833 -0.1747 -0.1239 -0.0491
33089SOL    HW1 1274   6.950   8.787   1.826 -2.0483 -1.6473 -2.1720
33089SOL    HW2 1275   6.998   8.682   1.924  0.5067  1.9939  0.7964
33090SOL     OW 1276   0.926   8.117   7.785  0.0039 -0.1692  0.2953
33090SOL    HW1 1277   0.907   8.027   7.810 -1.8102  0.5312  1.6264
33090SOL    HW2 1278   0.920   8.167   7.867 -0.8626  1.4316 -0.6943
33091SOL     OW 1279   9.778   4.774   0.862 -0.4181  0.6663  0.4188
33091SOL    HW1 1280   9.687   4.768   0.892 -0.6874  2.3804  0.0585
33091SOL    HW2 1281   9.778   4.727   0.778 -1.0372  0.8343  0.3137
33092SOL     OW 1282  10.322   4.117   5.339 -0.0081 -1.1199 -0.3593
33092SOL    HW1 1283  10.260   4.147   5.273 -1.8648 -0.2580  1.6342
33092SOL    HW2 1284  10.400   4.171   5.326 -0.6918 -0.3242 -1.2607
33093SOL     OW 1285   7.186   9.764   3.405  0.0967 -0.4311  0.2247
33093SOL    HW1 1286   7.228   9.836   3.358 -0.2414 -0.3639  0.0214
33093SOL    HW2 1287   7.146   9.710   3.335 -0.0080 -0.5849  0.4021
33094SOL     OW 1288   4.137   9.919   5.532  0.8016 -0.3968  0.3019
33094SOL    HW1 1289   4.203   9.965   5.480  0.2445 -0.4427 -0.4724
33094SOL    HW2 1290   4.055   9.965   5.511  0.2151 -1.7475 -0.5292
33095SOL     OW 1291   1.162   5.363   3.556 -0.0647  0.6300 -0.7685
33095SOL    HW1 1292   1.244   5.375   3.507  0.5563 -0.0367  0.0752
33095SOL    HW2 1293   1.131   5.452   3.571 -0.5659  0.8607 -2.8051
33096SOL     OW 1294   7.546   2.544   2.669  0.8646  0.7335 -1.0122
33096SOL    HW1 1295   7.512   2.629   2.642  1.6046  1.5051  0.3823
33096SOL    HW2 1296   7.641   2.551   2.659  0.9254  0.0442 -0.9723
33097SOL     OW 1297   1.325   6.055   5.138  0.6970 -0.3237  0.7275
33097SOL    HW1 1298   1.412   6.020   5.115  0.1673 -0.2974 -1.5025
33097SOL    HW2 1299   1.313   6.131   5.081 -0.2222  0.5907  2.0555
33098SOL     OW 1300   6.571   6.884  10.591 -0.8228  0.3045  0.1734
33098SOL    HW1 1301   6.508   6.866  10.662  0.6622 -1.0221  1.2366
33098SOL    HW2 1302   6.624   6.957  10.624 -0.5674  0.1389  0.1297
33099SOL     OW 1303   1.235  10.223   6.691 -0.2813  0.2918 -0.0682
33099SOL    HW1 1304   1.302  10.223   6.759 -0.8589 -0.9347  0.5487
33099SOL    HW2 1305   1.259  10.294   6.632  1.3590  0.0945  0.3254
33100SOL     OW 1306  10.100   4.953   1.017 -0.1503 -0.0859 -0.4058
33100SOL    HW1 1307  10.052   4.956   1.100  0.6892  0.8485  0.0689
33100SOL    HW2 1308  10.170   4.889   1.032 -0.3869 -0.4001 -0.6230
33101SOL     OW 1309   0.512   5.477   9.123  0.1016  0.0981 -0.3082
33101SOL    HW1 1310   0.569   5.504   9.051 -1.2314  1.8109 -0.7941
33101SOL    HW2 1311   0.568   5.424   9.180  3.2883  4.2751  1.0081
33102SOL     OW 1312   5.465   4.871   5.231  0.0575  0.0579  0.5373
33102SOL    HW1 1313   5.558   4.879   5.210  0.0835  1.2691  1.0196
33102SOL    HW2 1314   5.457   4.906   5.320 -0.9359  0.4934  0.2957
33103SOL     OW 1315   0.984   2.559   5.550 -0.0169 -0.2423  0.4524
33103SOL    HW1 1316   0.950   2.530   5.465 -0.0230 -0.9683  0.6960
33103SOL    HW2 1317   0.924   2.521   5.614  2.4341 -3.5253  1.0648
33104SOL     OW 1318   0.459   1.266   4.270  0.0334 -0.1304 -0.4486
33104SOL    HW1 1319   0.468   1.235   4.180  0.7782 -0.3014 -0.3200
33104SOL    HW2 1320   0.489   1.193   4.324  1.0403  0.5050 -0.1178
33105SOL     OW 1321   6.929  10.721  10.920 -0.8308 -0.3584  0.5390
33105SOL    HW1 1322   7.002  10.684  10.870 -0.2577  1.2817  0.0965
33105SOL    HW2 1323   6.971  10.767  10.993 -1.4153  0.5759  0.2955
33106SOL     OW 1324   6.259   0.628   9.907 -0.7284  0.2341 -0.0997
33106SOL    HW1 1325   6.305   0.544   9.896 -0.3039  0.1444  1.9138
33106SOL    HW2 1326   6.277   0.676   9.826  1.9575 -0.2659  0.1055
33107SOL     OW 1327   4.297   0.741   4.273 -0.5824  0.1048  0.6697
33107SOL    HW1 1328   4.390   0.765   4.269 -1.0924  2.3285  0.8057
33107SOL    HW2 1329   4.290   0.690   4.354  0.4964  0.0190  0.7319
33108SOL     OW 1330   0.157   5.122   4.382  0.1476  0.1513  0.1329
33108SOL    HW1 1331   0.110   5.180   4.322 -0.3358 -0.1793  0.1809
33108SOL    HW2 1332   0.132   5.153   4.470  0.9660  0.7253  0.1686
33109SOL     OW 1333   4.302   2.424   7.157  0.5147 -0.5374  0.2350
33109SOL    HW1 1334   4.213   2.410   7.124  0.1437 -0.5057  1.1822
33109SOL    HW2 1335   4.337   2.335   7.166  0.7585 -0.5310 -0.5940
33110SOL     OW 1336   9.590   3.253   5.545  0.5775  0.3572  0.5195
33110SOL    HW1 1337   9.529   3.189   5.583  0.1098 -0.2016 -1.0921
33110SOL    HW2 1338   9.595   3.322   5.610  1.4611 -1.5032  2.5607
33111SOL     OW 1339   7.397   5.035   1.503  0.2206 -0.0332 -0.3153
33111SOL    HW1 1340   7.320   4.985   1.477  0.4776 -0.2056 -0.7558
33111SOL    HW2 1341   7.372   5.126   1.491 -0.1974 -0.0499  0.3420
33112SOL     OW 1342   1.927   1.829   0.798  0.9643  0.0417  0.2346
33112SOL    HW1 1343   1.866   1.760   0.773 -0.8730  1.8845 -0.6747
33112SOL    HW2 1344   1.936   1.821   0.893 -0.2669 -0.6270  0.3084
33113SOL     OW 1345   1.926   4.191   8.507  0.1275 -0.5084 -0.4209
33113SOL    HW1 1346   1.895   4.130   8.440 -0.9944  0.6570 -1.0105
33113SOL    HW2 1347   1.997   4.239   8.465 -0.3608 -0.0015 -0.6776
33114SOL     OW 1348   1.057   1.366   5.402 -0.2207 -0.0201 -0.4287
33114SOL    HW1 1349   1.066   1.292   5.461  0.0936 -0.1748 -0.6745
33114SOL    HW2 1350   1.146   1.399   5.389 -0.3424  0.3167 -0.4251
33115SOL     OW 1351   8.632   3.957   5.427 -0.0519  0.2090 -0.2621
33115SOL    HW1 1352   8.633   4.018   5.501  1.5127 -0.9779  0.7570
33115SOL    HW2 1353   8.639   3.870   5.468 -2.6145 -0.7542 -1.6310
33116SOL     OW 1354   9.644   5.448   5.895 -0.5418 -0.3426 -0.1548
33116SOL    HW1 1355   9.634   5.428   5.802  1.6708  1.2654 -0.8277
33116SOL    HW2 1356   9.584   5.522   5.910 -0.7105 -0.4328 -0.3832
33117SOL     OW 1357   4.613   8.125   1.688 -0.5753  0.6248  0.4703
33117SOL    HW1 1358   4.687   8.167   1.732 -0.1972 -0.5931  1.0221
33117SOL    HW2 1359   4.539   8.185   1.705 -0.0759  1.0244  1.3339
33118SOL     OW 1360  10.232   3.197   0.587  0.2410 -0.8749 -0.5318
33118SOL    HW1 1361  10.231   3.132   0.658 -1.9215 -2.4521 -1.8820
33118SOL    HW2 1362  10.292   3.264   0.617 -1.2365 -0.9969  3.2099
33119SOL     OW 1363   0.289   5.594   5.890  0.0163 -0.2600 -0.3546
33119SOL    HW1 1364   0.232   5.640   5.951 -1.4903 -0.8444 -1.2539
33119SOL    HW2 1365   0.258   5.620   5.803  2.1299  0.5983 -0.9233
33120SOL     OW 1366   1.452   7.876  10.283 -0.4188  0.3428  0.3473
33120SOL    HW1 1367   1.485   7.936  10.216 -0.5625 -0.2354 -0.2491
33120SOL    HW2 1368   1.411   7.804  10.234 -1.0644  0.2085  1.0580
33121SOL     OW 1369   5.289   0.372  10.134 -0.5586 -0.4166  0.2917
33121SOL    HW1 1370   5.381   0.387  10.112 -0.3793  0.0853  1.3152
33121SOL    HW2 1371   5.254   0.460  10.148 -0.3543 -0.6946  3.0722
33122SOL     OW 1372   4.730   4.571   2.303  0.3410  0.0775 -0.7711
33122SOL    HW1 1373   4.669   4.504   2.271  0.1052  0.2124 -0.6084
33122SOL    HW2 1374   4.728   4.639   2.235 -0.5055  0.5734 -0.2583
33123SOL     OW 1375   3.040   0.508   5.822 -0.4041 -0.7024  0.8913
33123SOL    HW1 1376   3.078   0.451   5.889 -0.6922 -0.2838  1.4167
33123SOL    HW2 1377   3.112   0.524   5.760  0.8507  1.5109  2.7800
33124SOL     OW 1378  10.642   5.675   0.948  0.1619 -0.0583 -0.4665
33124SOL    HW1 1379  10.668   5.710   1.033 -1.1648  0.0542 -0.0746
33124SOL    HW2 1380  10.548   5.659   0.957  0.1714 -0.8990 -1.6225
33125SOL     OW 1381   2.773  10.503   4.101 -0.9204  0.0016  0.2857
33125SOL    HW1 1382   2.755  10.486   4.009  0.1779  1.0951 -0.1481
33125SOL    HW2 1383   2.693  10.543   4.134 -0.8184  0.9384 -0.5585
33126SOL     OW 1384   1.152   2.954   5.601 -0.0651 -0.1585  0.1358
33126SOL    HW1 1385   1.072   2.914   5.567  1.1843 -3.0519  0.2639
33126SOL    HW2 1386   1.222   2.895   5.571  2.4412  3.6801 -2.3873
33127SOL     OW 1387   0.972   7.035   2.096  0.6897 -0.3537  0.8664
33127SOL    HW1 1388   0.953   6.961   2.039  1.9001  1.6633 -2.4080
33127SOL    HW2 1389   0.901   7.097   2.082  0.3415 -0.2987  2.5910
33128SOL     OW 1390   9.283  11.092   6.891  0.2971 -0.0008 -0.3000
33128SOL    HW1 1391   9.378  11.094   6.891  0.2952  0.6600 -1.1797
33128SOL    HW2 1392   9.257  11.184   6.881 -0.4779  0.1382  2.1571
33129SOL     OW 1393   4.963   2.974   8.808  0.5742 -1.5441 -0.0635
33129SOL    HW1 1394   5.049   2.939   8.785  0.3880 -2.5043  0.6806
33129SOL    HW2 1395   4.909   2.897   8.825  0.6396 -0.9769  3.4207
33130SOL     OW 1396   8.760   1.360   4.970 -0.5978 -0.3224 -0.0260
33130SOL    HW1 1397   8.734   1.350   5.061 -0.4324 -1.8504 -0.1301
33130SOL    HW2 1398   8.824   1.290   4.954  1.7325  1.7567 -0.4917
33131SOL     OW 1399   8.347   0.356   6.974 -0.1960 -0.0729 -0.2470
33131SOL    HW1 1400   8.385   0.368   7.062 -3.0514  0.7359  0.9826
33131SOL    HW2 1401   8.255   0.378   6.985 -1.4713 -3.5267 -2.6815
33132SOL     OW 1402   2.921   8.705   1.361  0.2085 -0.1476  0.4285
33132SOL    HW1 1403   2.941   8.787   1.406  2.1801 -0.7631  0.7740
33132SOL    HW2 1404   2.891   8.646   1.430 -0.5652  0.0630  0.2836
33133SOL     OW 1405   1.671   0.417  10.649 -0.3450  0.6326 -0.4801
33133SOL    HW1 1406   1.677   0.489  10.585 -1.0895  2.4410  1.3692
33133SOL    HW2 1407   1.608   0.449  10.714  0.0139 -1.3343  0.9011
33134SOL     OW 1408   7.717   6.188   9.684 -0.5369 -0.3617 -0.5669
33134SOL    HW1 1409   7.651   6.208   9.618  0.3284  1.2273 -1.0080
33134SOL    HW2 1410   7.720   6.267   9.739  1.5779 -0.0178 -1.0868
33135SOL     OW 1411   5.088   5.245   7.708  0.1950 -0.1797  0.4743
33135SOL    HW1 1412   5.095   5.184   7.781 -0.2668  0.3337  0.9661
33135SOL    HW2 1413   5.145   5.318   7.732  0.4613 -0.2481  0.0632
33136SOL     OW 1414   9.716   5.994   1.597  0.4980 -0.2376  0.5912
33136SOL    HW1 1415   9.632   5.989   1.551  0.4760 -0.0362  0.6068
33136SOL    HW2 1416   9.707   6.069   1.655  1.5315  1.3133 -1.1448
33137SOL     OW 1417   9.850   5.458   2.886 -0.6607  0.0909  0.3272
33137SOL    HW1 1418   9.795   5.424   2.815  1.4008 -0.8246 -0.9197
33137SOL    HW2 1419   9.858   5.385   2.947 -1.0621  0.3297  0.6721
33138SOL     OW 1420   8.201   1.609   3.644 -0.3242 -0.1649  0.4413
33138SOL    HW1 1421   8.238   1.570   3.565  1.1442 -0.0775  1.0602
33138SOL    HW2 1422   8.176   1.698   3.617 -1.7058 -0.7791 -0.4180
33139SOL     OW 1423   6.440   7.352   8.446  0.2244  0.4189  0.2377
33139SOL    HW1 1424   6.388   7.308   8.513 -1.6220  0.7108 -0.9205
33139SOL    HW2 1425   6.465   7.283   8.386 -0.7618  0.5781 -0.3821
33140SOL     OW 1426   2.105   6.568   8.790  0.5326 -0.5759  0.0356
33140SOL    HW1 1427   2.195   6.570   8.756  0.6503 -1.1806  0.3011
33140SOL    HW2 1428   2.112   6.518   8.871 -0.4209 -2.6655 -1.0861
33141SOL     OW 1429  10.076  10.653   3.907 -0.1024  0.0482 -0.0383
33141SOL    HW1 1430  10.155  10.708   3.897 -0.7246  0.7807 -1.1565
33141SOL    HW2 1431  10.086  10.585   3.840 -0.1939 -0.1514  0.1494
33142SOL     OW 1432   0.495   3.144  10.483  0.0687 -0.0973 -0.2044
33142SOL    HW1 1433   0.468   3.129  10.393  1.0931 -1.8012 -0.2664
33142SOL    HW2 1434   0.533   3.061  10.512  2.3107  1.1900  0.8829
33143SOL     OW 1435   7.657  10.581   7.463  0.1326 -0.1104  0.2389
33143SOL    HW1 1436   7.712  10.519   7.510 -1.0982 -1.1755  0.3255
33143SOL    HW2 1437   7.685  10.667   7.495 -0.1252 -0.7480  2.3301
33144SOL     OW 1438   5.241   9.278   1.288  0.2974  0.0085 -0.4864
33144SOL    HW1 1439   5.175   9.338   1.252  0.0311 -1.0544 -1.8129
33144SOL    HW2 1440   5.197   9.193   1.291  1.0392 -0.3610  0.3187
33145SOL     OW 1441   7.268   6.731   9.592 -0.3425  0.1196  0.1649
33145SOL    HW1 1442   7.345   6.685   9.624  1.3225  1.7483 -1.3300
33145SOL    HW2 1443   7.253   6.696   9.505 -0.8944  0.2821  0.1906
33146SOL     OW 1444   0.394   3.602   8.275 -0.2843  0.8188  0.1518
33146SOL    HW1 1445   0.484   3.632   8.273  0.2080 -0.4957 -2.8473
33146SOL    HW2 1446   0.389   3.535   8.207 -3.4494  0.5815  0.4384
33147SOL     OW 1447   3.185  10.018   1.940 -0.4459 -0.3330 -0.0594
33147SOL    HW1 1448   3.209  10.053   1.855  1.4622  0.3831  0.7102
33147SOL    HW2 1449   3.139  10.090   1.983  0.6302  0.1450  0.3326
33148SOL     OW 1450   1.571   7.811   4.799  0.1519 -0.3018 -0.3553
33148SOL    HW1 1451   1.556   7.746   4.868 -0.4786 -0.0497 -0.2531
33148SOL    HW2 1452   1.519   7.887   4.826 -0.1888 -0.2419 -1.1724
33149SOL     OW 1453  10.837   4.021   8.227 -0.1022 -0.0527 -0.0564
33149SOL    HW1 1454  10.824   3.927   8.244 -0.3793 -0.2571 -1.3173
33149SOL    HW2 1455  10.909   4.045   8.285 -1.2136 -0.6068  1.6427
33150SOL     OW 1456  10.237   2.309   6.948 -0.5389 -0.4590  0.1384
33150SOL    HW1 1457  10.142   2.306   6.935 -0.4732 -0.7676 -0.2901
33150SOL    HW2 1458  10.268   2.370   6.881 -0.4636 -0.1425  0.4602
33151SOL     OW 1459   9.308   4.105   2.225 -0.1746 -0.0939  0.1023
33151SOL    HW1 1460   9.320   4.010   2.219  0.5301 -0.1164  1.3600
33151SOL    HW2 1461   9.229   4.116   2.278 -1.0487  0.0484 -1.1846
33152SOL     OW 1462   8.033  10.939   2.469 -0.5261 -0.1519 -0.7086
33152SOL    HW1 1463   8.071  10.921   2.555 -1.0101 -1.6636 -0.7862
33152SOL    HW2 1464   8.007  11.031   2.473  3.3541  1.1457 -0.7381
33153SOL     OW 1465   8.403   4.217   8.980  0.1441  0.0427 -0.1444
33153SOL    HW1 1466   8.331   4.159   8.957 -0.8724  1.1940  0.0149
33153SOL    HW2 1467   8.379   4.251   9.067  1.8899 -1.0979  0.8564
33154SOL     OW 1468   8.103   6.698   3.243  0.3248  0.2225 -0.7910
33154SOL    HW1 1469   8.104   6.735   3.332 -1.7762  0.6157 -0.8646
33154SOL    HW2 1470   8.084   6.773   3.187 -0.1891 -0.3272 -1.3650
33155SOL     OW 1471   6.040  10.642   4.826  0.6621 -0.0059 -0.6367
33155SOL    HW1 1472   6.035  10.550   4.797 -0.2619  0.1654 -1.0663
33155SOL    HW2 1473   6.131  10.654   4.853  0.9272 -0.8972 -1.1010
33156SOL     OW 1474   3.681   7.209   9.002 -0.4957 -0.0145  0.4279
33156SOL    HW1 1475   3.690   7.191   8.908  2.0834 -0.9392  0.7644
33156SOL    HW2 1476   3.588   7.196   9.020 -1.6864  2.9709 -2.4889
33157SOL     OW 1477   9.000   7.297   9.572 -0.4876 -0.1259  0.6427
33157SOL    HW1 1478   8.933   7.280   9.506 -0.6239  1.1097  0.4365
33157SOL    HW2 1479   9.026   7.211   9.603  0.7526 -0.8759 -2.1871
33158SOL     OW 1480   7.052   9.784   2.203  0.5050 -0.0433  0.3916
33158SOL    HW1 1481   6.970   9.806   2.248  0.2390  0.8150 -0.4851
33158SOL    HW2 1482   7.032   9.789   2.110  1.9006  1.7191  0.1159
33159SOL     OW 1483  10.968   2.581   2.811 -0.0378 -0.7659 -0.1346
33159SOL    HW1 1484  10.881   2.603   2.777 -0.0407 -1.1485 -0.3853
33159SOL    HW2 1485  10.964   2.486   2.826 -0.2268 -0.5248  1.4986
33160SOL     OW 1486   5.289   5.392   7.811  0.1808 -0.4316  0.0059
33160SOL    HW1 1487   5.364   5.440   7.774 -0.2353 -1.1925 -1.9761
33160SOL    HW2 1488   5.326   5.343   7.884  1.1292  0.9496  0.4922
33161SOL     OW 1489   3.216   1.130   1.970 -0.0205 -0.4987 -0.2129
33161SOL    HW1 1490   3.130   1.097   1.998 -1.1021  0.9660 -1.5967
33161SOL    HW2 1491   3.206   1.225   1.969  0.7917 -0.3677 -2.7185
33162SOL     OW 1492   9.523   0.585   1.364  1.2311 -0.1266  0.4251
33162SOL    HW1 1493   9.472   0.581   1.445  0.5044  0.2806 -0.0106
33162SOL    HW2 1494   9.576   0.665   1.373 -3.3543  3.6660 -2.0696
33163SOL     OW 1495   3.315   5.528  11.058  0.0546 -0.3113  0.0701
33163SOL    HW1 1496   3.394   5.488  11.022 -0.1592 -1.0749  0.4279
33163SOL    HW2 1497   3.261   5.454  11.084  0.6376  0.1715  2.9518
33164SOL     OW 1498   5.962   5.509   1.766  0.2127  0.6735 -0.4053
33164SOL    HW1 1499   6.049   5.489   1.802 -0.1922  1.0662  0.8093
33164SOL    HW2 1500   5.901   5.488   1.836 -0.6863  0.5013 -1.2150
33165SOL     OW 1501   1.601  10.564   4.158 -0.2207 -0.0987  0.8082
33165SOL    HW1 1502   1.600  10.536   4.067 -1.0871 -0.8256  1.0233
33165SOL    HW2 1503   1.685  10.608   4.169 -0.2504  0.2931 -0.4195
33166SOL     OW 1504   7.225   9.964   9.569  0.4117  0.3027  0.0915
33166SOL    HW1 1505   7.234   9.952   9.663  0.9251  0.9774  0.1298
33166SOL    HW2 1506   7.257   9.881   9.532 -0.0565 -0.0735  0.5150
33167SOL     OW 1507   6.597   1.430   3.746  0.0950  0.2505  0.0068
33167SOL    HW1 1508   6.516   1.464   3.783  0.7931  0.0238  1.8746
33167SOL    HW2 1509   6.612   1.347   3.792  0.8095 -0.2922 -1.1358
33168SOL     OW 1510   9.458  10.668   1.127 -0.8401  0.3158 -0.0754
33168SOL    HW1 1511   9.512  10.671   1.048  1.3246 -0.3286  1.2861
33168SOL    HW2 1512   9.490  10.591   1.175 -1.2369  1.3632  1.9795
33169SOL     OW 1513   8.959   1.328  10.126  0.5075 -0.3262 -0.1085
33169SOL    HW1 1514   8.879   1.275  10.124 -0.9474  1.6936  1.0133
33169SOL    HW2 1515   8.980   1.342  10.034 -0.6584 -0.5823 -0.4313
33170SOL     OW 1516   1.675   1.176   9.834 -0.3781 -0.0290  0.1482
33170SOL    HW1 1517   1.715   1.250   9.788 -1.0845  2.0073  2.5921
33170SOL    HW2 1518   1.684   1.198   9.927 -3.2806 -1.5682  0.9037
33171SOL     OW 1519   5.944   6.476   1.336 -0.4098  0.2594 -0.1086
33171SOL    HW1 1520   5.970   6.477   1.428  0.7881 -0.1335 -0.4164
33171SOL    HW2 1521   5.867   6.419   1.333  0.2508 -0.7037  0.4911
33172SOL     OW 1522   1.025   7.924   3.852 -0.0773 -0.1707 -0.3653
33172SOL    HW1 1523   1.016   7.852   3.914 -0.0187 -0.0355 -0.2006
33172SOL    HW2 1524   0.946   7.977   3.867 -0.1053 -0.1835 -0.4658
33173SOL     OW 1525   5.329   7.879   1.356 -0.2108 -0.1335  0.1627
33173SOL    HW1 1526   5.378   7.926   1.289 -0.9980 -0.2026 -0.4696
33173SOL    HW2 1527   5.329   7.939   1.432  0.4874  0.0375  0.0325
33174SOL     OW 1528   7.717   3.942   9.730  0.4441 -0.0208 -0.6112
33174SOL    HW1 1529   7.724   3.942   9.635  0.0858  0.5254 -0.6380
33174SOL    HW2 1530   7.632   3.981   9.749  0.3741 -0.4165 -0.0735
33175SOL     OW 1531  10.835   5.636   8.606 -0.1297  0.0058  0.3020
33175SOL    HW1 1532  10.867   5.717   8.565 -0.8418  0.9981  1.6269
33175SOL    HW2 1533  10.760   5.611   8.552  1.7781 -1.4465 -1.8583
33176SOL     OW 1534   8.547   4.277   8.353 -0.6222 -0.4069  0.1828
33176SOL    HW1 1535   8.456   4.253   8.374  0.4611 -3.3070  2.2620
33176SOL    HW2 1536   8.583   4.198   8.312  1.2764  0.2205  0.5667
33177SOL     OW 1537   3.325   4.442   3.625 -0.7404 -0.5556  0.2973
33177SOL    HW1 1538   3.254   4.497   3.591 -1.6931 -2.7343 -1.5057
33177SOL    HW2 1539   3.391   4.503   3.657 -2.0525  1.5818 -0.9165
33178SOL     OW 1540  10.289   8.940   8.405  0.2464  0.3922  0.9506
33178SOL    HW1 1541  10.345   8.881   8.354  0.9548  1.3956  0.5217
33178SOL    HW2 1542  10.200   8.912   8.384  0.4588  1.3926 -1.7145
33179SOL     OW 1543   2.236   2.667   7.458 -0.4170 -0.2643 -0.3078
33179SOL    HW1 1544   2.316   2.616   7.469  1.2889  2.4428  1.1609
33179SOL    HW2 1545   2.264   2.744   7.407 -2.1462  0.6173 -0.0148
33180SOL     OW 1546   9.574   8.315   4.055 -0.4294  0.0964 -0.3708
33180SOL    HW1 1547   9.648   8.323   3.994  0.4398 -0.8682  0.5130
33180SOL    HW2 1548   9.586   8.386   4.117  1.6069 -1.7834  1.6054
33181SOL     OW 1549  11.060  10.181   2.962 -0.8293 -0.2487  0.8098
33181SOL    HW1 1550  11.140  10.219   2.926 -1.2738 -0.2046 -0.1516
33181SOL    HW2 1551  11.086  10.148   3.049  0.2507 -0.3386  0.4650
33182SOL     OW 1552   8.193   7.017   0.245 -0.3139 -0.4835  0.2744
33182SOL    HW1 1553   8.146   7.072   0.181 -1.5136 -1.4466  0.2960
33182SOL    HW2 1554   8.161   7.047   0.330 -0.4095 -0.7189  0.3213
33183SOL     OW 1555   9.997   0.252   1.711  0.0967 -0.4371  0.4192
33183SOL    HW1 1556   9.915   0.266   1.663 -0.4267 -0.7294  1.2139
33183SOL    HW2 1557  10.056   0.319   1.677 -0.6340  0.1244  0.2242
33184SOL     OW 1558   8.145   8.053   5.871 -0.0043 -1.1153 -0.2324
33184SOL    HW1 1559   8.207   8.015   5.810 -1.0626 -3.5053  0.0875
33184SOL    HW2 1560   8.197   8.071   5.950  1.0369  0.6054 -1.2388
33185SOL     OW 1561   3.418   2.902   2.256 -0.1423 -0.1173 -0.7655
33185SOL    HW1 1562   3.406   2.996   2.242  0.5411 -0.1307 -1.5512
33185SOL    HW2 1563   3.384   2.886   2.344 -1.0275  0.7133 -0.9392
33186SOL     OW 1564   2.481   1.349   4.553 -0.1743  0.0450  0.4577
33186SOL    HW1 1565   2.495   1.269   4.605  0.2313 -0.9172 -1.0695
33186SOL    HW2 1566   2.387   1.363   4.556 -0.1777 -0.1007  1.2943
33187SOL     OW 1567   3.775   3.166   0.314 -0.7580  0.3842  0.2220
33187SOL    HW1 1568   3.758   3.178   0.408 -4.0651  0.5303 -0.2970
33187SOL    HW2 1569   3.802   3.252   0.284 -3.6432  1.4668  0.4080
33188SOL     OW 1570   9.634   9.250   0.991 -0.1449 -0.6724  0.7118
33188SOL    HW1 1571   9.628   9.227   1.083 -0.8154  1.6433  1.3065
33188SOL    HW2 1572   9.728   9.258   0.974  0.0411 -2.4039  0.8058
33189SOL     OW 1573   7.429   8.495   3.944 -0.0389  0.3121 -0.2806
33189SOL    HW1 1574   7.509   8.547   3.944 -0.1447  0.4755 -0.9262
33189SOL    HW2 1575   7.451   8.417   3.996  0.2925  0.7214  0.2051
33190SOL     OW 1576   2.227   2.845   4.127  1.0310 -0.0981 -0.0223
33190SOL    HW1 1577   2.215   2.831   4.221  0.7000 -1.3502 -0.2395
33190SOL    HW2 1578   2.259   2.762   4.094  0.6730  0.1768 -1.1038
33191SOL     OW 1579   8.101  10.443  10.265 -0.2107 -0.2444 -0.4647
33191SOL    HW1 1580   8.135  10.401  10.185 -1.4823  1.7619 -2.1831
33191SOL    HW2 1581   8.009  10.462  10.244 -0.2024  1.5885  0.9421
33192SOL     OW 1582   0.045   2.909   4.323 -0.2721  0.3746 -0.4446
33192SOL    HW1 1583   0.109   2.935   4.257  1.2288 -3.0704 -0.5696
33192SOL    HW2 1584   0.068   2.960   4.400  1.5712  0.4545 -0.9972
33193SOL     OW 1585   6.713   0.922   7.917 -0.6618  0.3488 -0.5279
33193SOL    HW1 1586   6.768   0.998   7.897 -1.0729  0.8680  0.2263
33193SOL    HW2 1587   6.768   0.846   7.899 -0.0411  0.8442 -0.7381
33194SOL     OW 1588  10.859   1.070   3.312 -0.3568  0.0370  0.4501
33194SOL    HW1 1589  10.809   0.992   3.337 -0.5645  0.0934  0.2141
33194SOL    HW2 1590  10.858   1.125   3.390 -1.5820  0.5153  0.1132
33195SOL     OW 1591   0.169   7.183   4.273  0.5476  0.2590  0.6696
33195SOL    HW1 1592   0.096   7.245   4.279  0.4787  0.4989 -1.7233
33195SOL    HW2 1593   0.247   7.236   4.294  0.2513  0.5380  1.0799
33196SOL     OW 1594   3.854   9.365   8.637  0.4718  0.0556 -0.0666
33196SOL    HW1 1595   3.786   9.432   8.642 -0.0468 -0.1946 -2.3916
33196SOL    HW2 1596   3.936   9.413   8.648 -0.0021  0.5337  1.6133
33197SOL     OW 1597   8.073   8.453   0.518  0.2220  0.0621  0.0352
33197SOL    HW1 1598   8.024   8.371   0.508  1.1726 -0.5062 -0.0192
33197SOL    HW2 1599   8.164   8.426   0.529  0.6730  1.1410 -0.8113
33198SOL     OW 1600   6.303   8.320   3.717  0.4737  0.1223 -0.1354
33198SOL    HW1 1601   6.311   8.322   3.621  0.9316 -0.8226 -0.1350
33198SOL    HW2 1602   6.317   8.410   3.745  1.0692  0.2827 -0.9158
33199SOL     OW 1603   5.997   1.740   8.057 -0.3576  0.1657 -0.0727
33199SOL    HW1 1604   5.954   1.663   8.094 -1.0971  0.6644  0.1295
33199SOL    HW2 1605   6.071   1.704   8.008 -0.2266 -0.6092  0.6627
33200SOL     OW 1606   7.428   6.646  10.273  0.1936  0.0316 -0.4156
33200SOL    HW1 1607   7.472   6.714  10.325 -0.6756  0.2828  0.0221
33200SOL    HW2 1608   7.361   6.610  10.332  0.7624 -1.3494 -0.5766
33201SOL     OW 1609   1.696   8.180   5.571  0.0349  0.0344  0.1206
33201SOL    HW1 1610   1.665   8.259   5.527  0.2190 -0.4548 -0.9179
33201SOL    HW2 1611   1.731   8.211   5.655 -1.0685  0.8826  0.2891
33202SOL     OW 1612   1.130   8.169   7.578 -0.4430  0.4981 -0.2114
33202SOL    HW1 1613   1.116   8.252   7.624 -1.5379 -1.1994  2.7720
33202SOL    HW2 1614   1.059   8.112   7.607 -1.1161 -0.8748 -3.9887
33203SOL     OW 1615   7.036   1.447  10.287  0.4220  0.6945  0.2022
33203SOL    HW1 1616   6.965   1.512  10.292  0.2068  0.4090  1.2352
33203SOL    HW2 1617   7.005   1.382  10.225  0.4200  1.3132 -0.4636
33204SOL     OW 1618   9.559   5.050   6.754 -0.3684 -0.1042  0.4449
33204SOL    HW1 1619   9.641   5.022   6.794  0.7942  0.4887 -1.4034
33204SOL    HW2 1620   9.544   4.989   6.682 -1.8394 -0.4937  1.0333
33205SOL     OW 1621   9.574   2.890   5.702 -0.0605  0.0766  0.2741
33205SOL    HW1 1622   9.513   2.899   5.775  0.2791 -0.0619  0.5773
33205SOL    HW2 1623   9.574   2.797   5.682  1.5574 -0.2546  1.5982
33206SOL     OW 1624   8.483   9.263  10.055 -0.4938 -0.5812  0.1851
33206SOL    HW1 1625   8.467   9.286   9.963  1.2413 -0.7425 -0.1971
33206SOL    HW2 1626   8.578   9.251  10.060 -0.6960 -1.8259  1.7276
33207SOL     OW 1627   2.521   7.163   5.249 -0.1415  0.3062 -0.0648
33207SOL    HW1 1628   2.567   7.219   5.312 -0.4946  1.6238 -0.9423
33207SOL    HW2 1629   2.432   7.159   5.282  0.0573 -0.4069  0.4177
33208SOL     OW 1630   9.504   2.623   5.667  0.0481  0.2044  0.0234
33208SOL    HW1 1631   9.434   2.577   5.714  0.1908 -0.3920 -0.3332
33208SOL    HW2 1632   9.549   2.554   5.619  0.2903  0.7200 -0.5018
33209SOL     OW 1633   0.656   4.787  10.075  0.4179  0.4043 -0.8958
33209SOL    HW1 1634   0.575   4.773  10.026  0.1948  1.1533 -0.7573
33209SOL    HW2 1635   0.645   4.874  10.115  1.8486  1.1363 -2.0056
33210SOL     OW 1636   5.625  10.393   2.140 -0.9772 -0.5675  0.0552
33210SOL    HW1 1637   5.700  10.403   2.198 -0.6701  0.2979 -0.4859
33210SOL    HW2 1638   5.557  10.448   2.179 -0.2518  1.3855 -1.2513
33211SOL     OW 1639   5.789  10.461   0.590 -0.3002 -0.5666 -0.5981
33211SOL    HW1 1640   5.752  10.541   0.553  1.1336  0.4290  0.0086
33211SOL    HW2 1641   5.762  10.391   0.530 -2.1358  0.2477 -0.7747
33212SOL     OW 1642   8.862   5.287   0.079 -0.3131  0.0198  0.0529
33212SOL    HW1 1643   8.894   5.254   0.162 -1.2047 -0.8981  0.0404
33212SOL    HW2 1644   8.936   5.277   0.019 -0.7947 -2.8728 -0.1904
33213SOL     OW 1645   2.348   9.934   9.573  0.2049  0.2865  0.0442
33213SOL    HW1 1646   2.285   9.926   9.645  0.0139  2.1755  0.1384
33213SOL    HW2 1647   2.417   9.872   9.596 -1.4476 -1.6519  0.0716
33214SOL     OW 1648   4.223   1.794   1.574 -0.5886 -0.1863  0.3458
33214SOL    HW1 1649   4.236   1.699   1.570  0.1714 -0.1242  1.1300
33214SOL    HW2 1650   4.225   1.814   1.667 -2.0188  0.4441  0.2675
33215SOL     OW 1651  10.556  10.981  10.497  0.0787  0.5697 -0.2479
33215SOL    HW1 1652  10.650  10.979  10.482  0.3326  0.3003  1.2299
33215SOL    HW2 1653  10.522  11.040  10.429  1.1016 -0.4964 -1.7336
33216SOL     OW 1654   2.547   8.032   9.056  0.2007  0.6400 -0.6272
33216SOL    HW1 1655   2.510   8.026   9.144 -0.4112  0.7674 -0.8712
33216SOL    HW2 1656   2.471   8.027   8.998  0.6014  0.5418 -1.1486
33217SOL     OW 1657   4.839  10.262  10.780  0.4999 -0.2393  0.0158
33217SOL    HW1 1658   4.744  10.251  10.787  0.4672 -0.1857 -0.3681
33217SOL    HW2 1659   4.869  10.189  10.727  0.4619  0.6736 -1.3084
33218SOL     OW 1660   5.251   0.775   3.409 -0.3720  0.0872 -0.0153
33218SOL    HW1 1661   5.238   0.811   3.497 -0.2086 -0.4353  0.2276
33218SOL    HW2 1662   5.185   0.819   3.355 -1.7966 -0.9903  0.7654
33219SOL     OW 1663   7.851  10.129   8.269 -0.7578  0.3931  0.3966
33219SOL    HW1 1664   7.857  10.134   8.364  1.4351 -1.8891  0.4703
33219SOL    HW2 1665   7.941  10.125   8.239 -1.3949 -1.9462 -1.5284
33220SOL     OW 1666   8.837   8.491   0.281  0.0394 -0.6880 -0.3846
33220SOL    HW1 1667   8.826   8.413   0.335  0.6666  0.4864  1.5388
33220SOL    HW2 1668   8.751   8.532   0.280  0.1358 -0.4744  0.1019
33221SOL     OW 1669   8.331   9.608   9.741 -0.4957  0.0251 -0.0114
33221SOL    HW1 1670   8.272   9.684   9.743 -2.3721 -1.2730 -1.8942
33221SOL    HW2 1671   8.366   9.608   9.652 -0.6209 -1.3847 -0.0726
33222SOL     OW 1672   5.907   0.914   1.090 -0.5213 -1.0158 -0.0212
33222SOL    HW1 1673   5.909   0.999   1.134 -0.1095  0.0778 -2.0412
33222SOL    HW2 1674   5.817   0.883   1.101 -0.0266 -1.7287  3.1287
33223SOL     OW 1675   9.873  10.321   9.616  0.3392  0.1843  0.0722
33223SOL    HW1 1676   9.927  10.384   9.663 -0.2500  2.6263 -2.2244
33223SOL    HW2 1677   9.902  10.236   9.646  2.5283  1.5006  1.9786
33224SOL     OW 1678   8.624   7.800   5.475  0.1138 -0.0783 -0.2836
33224SOL    HW1 1679   8.696   7.786   5.414 -0.7166  0.5969 -1.4579
33224SOL    HW2 1680   8.560   7.850   5.425 -0.7359  0.2159  1.0520
33225SOL     OW 1681   1.808  10.848  10.878  0.3064  0.6970  0.1700
33225SOL    HW1 1682   1.786  10.774  10.934 -0.6297  0.6407 -0.2549
33225SOL    HW2 1683   1.729  10.864  10.826  0.5078  1.9406  0.1928
33226SOL     OW 1684   6.826   0.676   0.866  0.2660 -0.3266  0.7693
33226SOL    HW1 1685   6.804   0.583   0.858  0.3106 -0.2271 -0.9210
33226SOL    HW2 1686   6.913   0.683   0.826  0.2159  0.4540  0.7791
33227SOL     OW 1687   9.618   2.889   8.859  0.0397 -0.5265 -0.2311
33227SOL    HW1 1688   9.704   2.917   8.891 -0.7848  0.4385  1.2514
33227SOL    HW2 1689   9.589   2.960   8.803  0.5514 -1.2528 -1.4648
33228SOL     OW 1690   7.647   3.414   0.747  0.0306  0.3841  0.3794
33228SOL    HW1 1691   7.690   3.420   0.832 -1.8877  0.8488  1.3891
33228SOL    HW2 1692   7.698   3.349   0.699  3.5723  2.9501  0.3201
33229SOL     OW 1693   8.680  10.522   7.325  0.0567 -0.8843 -0.4909
33229SOL    HW1 1694   8.663  10.594   7.386 -1.5365 -1.1343 -0.5887
33229SOL    HW2 1695   8.740  10.464   7.372  0.5419 -0.0183 -0.0110
33230SOL     OW 1696   7.646   2.424   9.464 -0.3985  0.4080  0.3861
33230SOL    HW1 1697   7.573   2.436   9.402 -2.7354 -0.1890  2.8307
33230SOL    HW2 1698   7.722   2.459   9.418 -1.2346 -2.8207 -4.1036
33231SOL     OW 1699   5.558   1.057   1.895  0.0361  0.0221 -0.0423
33231SOL    HW1 1700   5.556   1.147   1.860 -2.1321 -0.3550 -1.0707
33231SOL    HW2 1701   5.522   1.004   1.824 -2.0256 -1.1699  1.7799
33232SOL     OW 1702   4.419   5.844   4.179 -0.2936  0.5519  0.3265
33232SOL    HW1 1703   4.438   5.764   4.130 -3.3284  0.1191 -0.2903
33232SOL    HW2 1704   4.441   5.915   4.118 -0.9294  0.0912 -0.4601
33233SOL     OW 1705   8.985   1.695   2.702  0.0412 -0.0117 -0.5780
33233SOL    HW1 1706   8.989   1.737   2.788  0.7825 -0.1555 -0.5350
33233SOL    HW2 1707   8.892   1.672   2.691 -0.0293 -0.1858  0.2796
33234SOL     OW 1708   2.787  10.665   9.772 -0.3924  0.1066  0.6540
33234SOL    HW1 1709   2.824  10.597   9.715 -1.5155 -2.3741  2.6480
33234SOL    HW2 1710   2.752  10.731   9.712 -0.8823 -1.9772 -1.5246
33235SOL     OW 1711  10.295   8.290   6.940  0.4787 -0.4900  0.0620
33235SOL    HW1 1712  10.206   8.299   6.906  0.2880 -1.4886  0.2453
33235SOL    HW2 1713  10.334   8.221   6.886  0.7493 -0.8676  0.7221
33236SOL     OW 1714   6.745   7.905  10.896 -0.4243 -0.4268  0.6627
33236SOL    HW1 1715   6.684   7.872  10.830  0.1967 -1.0852  0.3986
33236SOL    HW2 1716   6.828   7.861  10.875  0.6946  1.8996 -0.2454
33237SOL     OW 1717   2.489   8.406   6.555  0.4212  0.3289  0.0858
33237SOL    HW1 1718   2.402   8.418   6.518 -0.1295 -1.0137  0.8762
33237SOL    HW2 1719   2.537   8.358   6.487 -0.5595 -2.0478  0.9601
33238SOL     OW 1720   3.673   1.189   3.630  0.3224  0.0800  0.2758
33238SOL    HW1 1721   3.688   1.131   3.555  0.7730  0.5146  0.0262
33238SOL    HW2 1722   3.582   1.218   3.620  0.2902 -0.0983  0.0581
33239SOL     OW 1723   2.004  10.236   5.503 -0.1263 -1.0893 -0.5734
33239SOL    HW1 1724   1.991  10.295   5.429  1.1621 -0.4519 -0.3337
33239SOL    HW2 1725   2.052  10.290   5.567 -1.1400 -1.6439  0.6903
33240SOL     OW 1726   5.548   8.713   2.401  0.0813 -0.1766 -0.4991
33240SOL    HW1 1727   5.587   8.700   2.488  1.3924 -2.3486 -1.3372
33240SOL    HW2 1728   5.469   8.659   2.401 -0.2325  0.2745 -0.4885
33241SOL     OW 1729   2.920   7.813   6.766 -0.2086 -0.8696 -0.4160
33241SOL    HW1 1730   2.937   7.898   6.807  1.7975 -2.0589  1.4459
33241SOL    HW2 1731   2.995   7.800   6.708  0.8219 -2.3618  1.1620
33242SOL     OW 1732   8.147  10.837   8.568 -0.7310 -0.2336 -0.2734
33242SOL    HW1 1733   8.236  10.803   8.559  0.3502  2.1113  0.8453
33242SOL    HW2 1734   8.107  10.823   8.482  0.9783 -0.5981 -1.0384
33243SOL     OW 1735   7.636   0.137   5.171 -0.2050  0.0589  0.0864
33243SOL    HW1 1736   7.699   0.072   5.139 -1.8232 -1.1819 -0.6938
33243SOL    HW2 1737   7.687   0.217   5.177  0.8271 -0.1304 -3.4439
33244SOL     OW 1738   7.104   6.065   2.233  0.2679 -0.6445 -0.1810
33244SOL    HW1 1739   7.169   6.080   2.301 -0.0248 -0.9176  0.1622
33244SOL    HW2 1740   7.023   6.049   2.281 -0.5154  1.6770 -0.6206
33245SOL     OW 1741   0.533  10.102   1.598  1.0969  0.7264  0.2727
33245SOL    HW1 1742   0.609  10.148   1.563  0.5602  1.5672  0.1969
33245SOL    HW2 1743   0.548  10.099   1.693  2.7061 -1.8268  0.0376
33246SOL     OW 1744   7.665   4.822   1.109  0.1991  0.1093 -0.0539
33246SOL    HW1 1745   7.667   4.914   1.084  0.0822 -0.1532 -1.0658
33246SOL    HW2 1746   7.653   4.823   1.204  0.1540  1.1340 -0.0643
33247SOL     OW 1747   5.081   7.397   7.041 -0.4912 -0.2130 -0.0161
33247SOL    HW1 1748   5.144   7.463   7.013 -0.0982 -1.2924 -1.7895
33247SOL    HW2 1749   5.003   7.448   7.065  0.2599  0.9737  0.0231
33248SOL     OW 1750   2.228   0.592   1.673  0.6916 -0.1946  0.1739
33248SOL    HW1 1751   2.320   0.565   1.669  0.3094 -1.5002  0.0044
33248SOL    HW2 1752   2.217   0.651   1.599  1.7098  1.0225  0.9447
33249SOL     OW 1753  10.472   6.141   0.139  0.1245 -0.2911 -0.6104
33249SOL    HW1 1754  10.546   6.112   0.085  0.4785 -0.6217  0.0469
33249SOL    HW2 1755  10.503   6.220   0.182 -0.3215  0.2378 -1.2375
33250SOL     OW 1756  11.059   0.134  10.324 -0.6312  0.2328  0.0480
33250SOL    HW1 1757  11.040   0.135  10.418 -1.3081 -2.7175  0.0363
33250SOL    HW2 1758  10.979   0.166  10.282 -0.7483  0.4209  0.4127
33251SOL     OW 1759   5.595   6.937   9.701  0.3546 -0.4207  0.7565
33251SOL    HW1 1760   5.638   6.908   9.781  1.2918  0.6572  0.6753
33251SOL    HW2 1761   5.667   6.965   9.644 -0.4067  2.2671  0.9491
33252SOL     OW 1762   4.385   9.630   7.851  0.3045  0.7740 -0.4041
33252SOL    HW1 1763   4.387   9.539   7.820 -0.6234 -0.2681  2.2842
33252SOL    HW2 1764   4.477   9.656   7.855  0.6840 -0.5092 -0.0858
33253SOL     OW 1765   3.901   7.094   3.201  0.4563 -0.5708  0.3286
33253SOL    HW1 1766   3.985   7.047   3.204  0.3407 -0.7653  0.5225
33253SOL    HW2 1767   3.868   7.077   3.113  0.4786 -0.7411  0.3527
33254SOL     OW 1768   2.943  10.357   4.587 -0.2739  0.6891 -0.1721
33254SOL    HW1 1769   2.868  10.308   4.622 -0.8237  2.1858  0.9225
33254SOL    HW2 1770   2.997  10.292   4.542 -0.2681 -1.1495  2.2947
33255SOL     OW 1771   6.589   3.914   8.589 -0.2422  0.1327 -0.4458
33255SOL    HW1 1772   6.595   4.010   8.587  0.6509  0.0864 -0.9073
33255SOL    HW2 1773   6.615   3.890   8.677  0.3147  0.2876 -0.5604
33256SOL     OW 1774   1.960   8.926  11.061 -0.5315 -0.1351 -0.0859
33256SOL    HW1 1775   1.901   8.859  11.028  1.3203 -2.6470  1.3407
33256SOL    HW2 1776   2.033   8.927  10.999  0.6891 -1.4330  1.2552
33257SOL     OW 1777   1.355   2.079   8.569  0.1303 -0.1365  0.9375
33257SOL    HW1 1778   1.366   2.172   8.587  1.1075  0.1046 -0.6699
33257SOL    HW2 1779   1.428   2.057   8.511  0.7948 -2.2612  2.4228
33258SOL     OW 1780   0.364   6.111  10.848 -0.5958 -0.1223  0.5328
33258SOL    HW1 1781   0.399   6.044  10.907 -0.1092  1.2716  1.9154
33258SOL    HW2 1782   0.427   6.114  10.776  1.6609  1.5209  2.3992
33259SOL     OW 1783   8.120   2.678   8.455 -0.4470  0.0784 -0.3603
33259SOL    HW1 1784   8.118   2.617   8.382  0.2238  0.0484 -0.3623
33259SOL    HW2 1785   8.210   2.673   8.489  0.2225  2.4171 -1.5474
33260SOL     OW 1786   5.816   2.213   2.944 -0.3030 -0.0353 -0.0761
33260SOL    HW1 1787   5.908   2.213   2.970 -0.4880 -2.6002  0.9730
33260SOL    HW2 1788   5.770   2.254   3.017 -0.3124 -2.6680  1.5574
33261SOL     OW 1789   5.892   3.189   1.741 -0.6679 -0.0635  0.4623
33261SOL    HW1 1790   5.871   3.250   1.671  0.3381  0.5101  0.6350
33261SOL    HW2 1791   5.853   3.106   1.713 -1.2850  0.4370 -0.2028
33262SOL     OW 1792   0.928   1.524   8.003  0.2681  0.4517  0.7212
33262SOL    HW1 1793   0.938   1.432   8.027  0.1224 -0.0042 -0.8212
33262SOL    HW2 1794   0.835   1.543   8.016  0.2318  0.2751  0.7202
33263SOL     OW 1795   5.245   5.755   1.518 -0.3408  0.5108  0.5063
33263SOL    HW1 1796   5.339   5.744   1.505 -0.5964 -1.4870  0.0708
33263SOL    HW2 1797   5.214   5.668   1.542 -2.5798  0.3426 -2.4659
33264SOL     OW 1798   8.238   9.015   4.870  0.6436  0.5816 -0.4103
33264SOL    HW1 1799   8.269   8.950   4.934  0.1744 -0.2464 -1.0053
33264SOL    HW2 1800   8.213   9.091   4.923  3.2538  1.1551  0.1440
33265SOL     OW 1801   2.026   1.914   9.627  0.2821 -0.0126  0.7742
33265SOL    HW1 1802   2.104   1.861   9.610 -0.9079 -2.5810  2.5953
33265SOL    HW2 1803   2.060   2.001   9.649  2.6131 -0.9370  1.1011
33266SOL     OW 1804   5.367   4.594   7.651  0.2623  0.0021  0.2834
33266SOL    HW1 1805   5.329   4.634   7.573 -1.8782  0.8496  1.6665
33266SOL    HW2 1806   5.347   4.501   7.641  0.9406 -0.0604 -0.6465
33267SOL     OW 1807   7.310  10.180  10.370 -0.6584  0.8014  0.2764
33267SOL    HW1 1808   7.348  10.261  10.338  0.8855  0.6762  1.6824
33267SOL    HW2 1809   7.246  10.207  10.436 -0.1511  0.8918  0.7364
33268SOL     OW 1810   0.827   0.585   0.237 -0.0325 -0.1608  0.0123
33268SOL    HW1 1811   0.795   0.584   0.147 -0.3276 -0.0533  0.1126
33268SOL    HW2 1812   0.750   0.608   0.289  0.6063  2.0519  0.0874
33269SOL     OW 1813   3.925   5.720   4.729 -0.2526 -0.0486  0.2410
33269SOL    HW1 1814   3.923   5.645   4.789  0.5262 -1.4984 -1.4583
33269SOL    HW2 1815   3.981   5.692   4.657 -0.8807  1.7460 -1.0231
33270SOL     OW 1816   8.342   5.382   1.639  0.2215  0.3136  0.5372
33270SOL    HW1 1817   8.365   5.385   1.546 -0.2464  2.7427  0.4566
33270SOL    HW2 1818   8.257   5.338   1.642  0.7730 -0.8285 -0.0334
33271SOL     OW 1819   0.755  10.783   4.427  0.1667 -0.4289 -0.1757
33271SOL    HW1 1820   0.848  10.782   4.404  0.7580  0.4648  1.9082
33271SOL    HW2 1821   0.743  10.865   4.475 -1.3853 -1.1497  0.7551
33272SOL     OW 1822   6.450   2.734   2.226  0.7931  0.2349  0.4907
33272SOL    HW1 1823   6.540   2.709   2.247  0.7087 -0.1043  0.4498
33272SOL    HW2 1824   6.457   2.824   2.195  1.3687 -0.4209 -1.3805
33273SOL     OW 1825   5.429   5.671   3.792  0.6628  0.4143  0.3907
33273SOL    HW1 1826   5.450   5.581   3.766  0.5881 -0.0238  1.7291
33273SOL    HW2 1827   5.512   5.717   3.789  0.4492  0.7560 -1.8630
33274SOL     OW 1828   3.038   8.661   7.594 -0.6881  1.1164  0.0998
33274SOL    HW1 1829   2.997   8.575   7.604 -0.3681  1.0590  1.0635
33274SOL    HW2 1830   3.019   8.686   7.504  0.8391 -0.8169 -0.8467
33275SOL     OW 1831   4.585   0.048   6.856 -0.4003  0.0240  0.8972
33275SOL    HW1 1832   4.596  -0.045   6.872  1.4441  0.3249  1.6212
33275SOL    HW2 1833   4.659   0.089   6.902  0.7692  1.5602 -2.1014
33276SOL     OW 1834   2.476   0.580   6.653 -0.2464  0.1174  0.6086
33276SOL    HW1 1835   2.392   0.542   6.626  0.6647 -0.7987 -1.0814
33276SOL    HW2 1836   2.520   0.601   6.571  0.3988  2.4437  1.4878
33277SOL     OW 1837   7.410   5.456   1.672 -0.6780 -0.2767 -0.3620
33277SOL    HW1 1838   7.399   5.549   1.693  0.1013 -0.2004 -0.2505
33277SOL    HW2 1839   7.465   5.423   1.743 -1.6244 -1.0148  0.0479
33278SOL     OW 1840   2.292   8.175   4.234 -0.5751 -0.2412  0.1448
33278SOL    HW1 1841   2.201   8.200   4.253  0.2904  1.6678  2.2128
33278SOL    HW2 1842   2.331   8.162   4.321  0.9627 -1.7735 -0.7238
33279SOL     OW 1843   3.574   1.738   2.350  0.7037  0.1770  0.1800
33279SOL    HW1 1844   3.658   1.722   2.307  0.9311 -0.1908  0.7517
33279SOL    HW2 1845   3.532   1.653   2.354  1.0074  0.0643  1.3382
33280SOL     OW 1846   0.011   2.696   9.835  0.5635  0.1587  0.4786
33280SOL    HW1 1847   0.080   2.757   9.860 -0.3121  1.1487  0.5203
33280SOL    HW2 1848   0.008   2.701   9.740 -0.5463  1.3691  0.5575
33281SOL     OW 1849   8.073   7.687  10.512 -0.0534  0.0894  0.3359
33281SOL    HW1 1850   8.098   7.619  10.450 -0.7457  0.7554 -0.7119
33281SOL    HW2 1851   8.142   7.686  10.579  0.5575 -0.8359 -0.2917
33282SOL     OW 1852  11.100   1.398   2.233 -0.2380 -0.3406 -0.0778
33282SOL    HW1 1853  11.154   1.464   2.189 -0.2938 -0.7606 -0.7969
33282SOL    HW2 1854  11.063   1.346   2.161 -0.9275 -0.5833  0.4415
33283SOL     OW 1855   3.314   5.651   7.410 -0.3599  0.1536  0.1940
33283SOL    HW1 1856   3.306   5.561   7.443 -1.0782  0.2084  0.1919
33283SOL    HW2 1857   3.301   5.706   7.487 -0.3243  0.2618  0.1220
33284SOL     OW 1858   0.436   0.052   9.234 -0.1773  0.1706  0.3585
33284SOL    HW1 1859   0.525   0.067   9.200  0.0910  0.7361  1.2782
33284SOL    HW2 1860   0.432   0.105   9.313 -0.7098 -1.2902  1.3384
33285SOL     OW 1861   2.684   2.086   6.654 -0.9148  0.7245  0.6103
33285SOL    HW1 1862   2.725   2.067   6.739 -0.7244  0.7009  0.5142
33285SOL    HW2 1863   2.608   2.028   6.651  2.0309 -3.5647 -1.5789
33286SOL     OW 1864   5.956   0.905   5.733 -0.3230  0.0454  0.0051
33286SOL    HW1 1865   6.028   0.869   5.785 -0.4593  0.7997  0.7462
33286SOL    HW2 1866   5.990   0.909   5.644 -0.6527 -2.8963 -0.3553
33287SOL     OW 1867   8.231  11.066   4.001 -0.0857 -0.0324  0.6702
33287SOL    HW1 1868   8.206  11.150   3.961  2.0898  1.4688  2.1906
33287SOL    HW2 1869   8.327  11.068   4.004  0.0558 -2.8390  0.3303
33288SOL     OW 1870  11.096   9.225   0.581  0.3059  0.4218  0.0267
33288SOL    HW1 1871  11.022   9.257   0.633  1.4940  0.3726  1.8057
33288SOL    HW2 1872  11.172   9.271   0.615  1.3270 -0.6398 -0.7379
33289SOL     OW 1873   5.677   5.566  10.050 -0.1823 -0.2499 -0.0662
33289SOL    HW1 1874   5.620   5.496  10.018  1.8895 -1.9758 -0.2659
33289SOL    HW2 1875   5.720   5.528  10.128  0.1024  1.2601  0.5431
33290SOL     OW 1876   0.743   3.362   7.391  0.5487  0.3836 -0.3333
33290SOL    HW1 1877   0.694   3.430   7.436 -0.4410 -1.2330  1.1619
33290SOL    HW2 1878   0.833   3.373   7.420  0.7450  2.0413 -1.4249
33291SOL     OW 1879   8.284   8.474   4.603  0.2534  0.0574 -0.0585
33291SOL    HW1 1880   8.229   8.423   4.662  1.3440  0.0941  1.0282
33291SOL    HW2 1881   8.236   8.557   4.592 -0.7512 -0.5710 -0.5667
33292SOL     OW 1882   3.676   2.417   9.526  0.3152  0.1861 -0.0797
33292SOL    HW1 1883   3.617   2.469   9.580  0.9648  0.8351  0.0130
33292SOL    HW2 1884   3.738   2.378   9.588  0.6129  0.3430 -0.2741
33293SOL     OW 1885   1.608   6.480   7.082 -0.1465  0.4498  0.2935
33293SOL    HW1 1886   1.565   6.399   7.108 -2.6309  2.0810  1.6220
33293SOL    HW2 1887   1.608   6.477   6.986  3.3283 -2.7267  0.1410
33294SOL     OW 1888   3.917   4.681   2.743 -0.4229 -0.2924 -0.4311
33294SOL    HW1 1889   3.919   4.704   2.836 -0.7708  1.4291 -0.8062
33294SOL    HW2 1890   3.998   4.633   2.728 -0.2213 -0.3328  0.6918
33295SOL     OW 1891   6.478   9.427   0.385  0.7480 -0.7138 -0.5284
33295SOL    HW1 1892   6.421   9.390   0.317 -0.4287 -0.3925  0.2511
33295SOL    HW2 1893   6.553   9.461   0.336 -0.4418  0.2509 -1.8030
33296SOL     OW 1894   3.277   9.837   8.146 -0.5416 -0.3127  0.4576
33296SOL    HW1 1895   3.266   9.807   8.237 -0.6982  1.6407  1.1339
33296SOL    HW2 1896   3.312   9.926   8.155 -2.8073  0.8433 -1.3335
33297SOL     OW 1897   0.504   5.129   8.236 -0.2929  0.1657  0.5604
33297SOL    HW1 1898   0.585   5.081   8.253 -0.8602 -1.3525 -0.8113
33297SOL    HW2 1899   0.460   5.133   8.321 -0.1886 -1.7097  0.7454
33298SOL     OW 1900   5.832  11.005   1.579 -0.6796  0.1275 -0.0038
33298SOL    HW1 1901   5.840  10.911   1.560 -0.7841  0.2464 -0.6461
33298SOL    HW2 1902   5.827  11.009   1.675  0.9669 -0.4088  0.1339
33299SOL     OW 1903   8.833   7.180   6.648  0.1276 -0.7518 -0.0900
33299SOL    HW1 1904   8.747   7.216   6.667  0.1900 -0.2381 -0.7283
33299SOL    HW2 1905   8.888   7.256   6.632  0.2649 -1.1029 -1.4727
33300SOL     OW 1906   9.965   6.575   2.812 -0.0094 -0.3984 -0.4077
33300SOL    HW1 1907   9.885   6.523   2.828  0.2230 -0.8019 -0.5405
33300SOL    HW2 1908   9.985   6.614   2.897 -0.6698  0.1642 -0.5052
33301SOL     OW 1909   2.505   0.961   1.242 -0.4077 -0.4502  0.1743
33301SOL    HW1 1910   2.462   0.930   1.321 -3.0043  1.7687 -0.2146
33301SOL    HW2 1911   2.449   0.930   1.170  1.5355 -1.8607 -0.8352
33302SOL     OW 1912   1.348   8.964  10.493  0.6528 -0.0447 -0.3207
33302SOL    HW1 1913   1.346   8.876  10.531  1.0005 -0.7256 -1.8040
33302SOL    HW2 1914   1.303   8.955  10.409 -1.3524  1.7297  0.4725
33303SOL     OW 1915   3.573   3.742   6.713 -0.6166  0.3976  0.0925
33303SOL    HW1 1916   3.549   3.800   6.786 -1.3744  0.7000 -0.3841
33303SOL    HW2 1917   3.624   3.672   6.754  0.8406  1.7040  0.5960
33304SOL     OW 1918   8.515   7.094   7.878 -0.1177  0.6873  0.0887
33304SOL    HW1 1919   8.506   7.032   7.806  1.3410  0.3554  0.1602
33304SOL    HW2 1920   8.436   7.149   7.872 -1.3016 -0.9654 -0.1467
33305SOL     OW 1921   1.231   6.237   7.002 -0.5546 -0.2767  0.2677
33305SOL    HW1 1922   1.169   6.247   7.075  0.8884 -0.3061  1.5456
33305SOL    HW2 1923   1.314   6.216   7.044  0.5184  0.5406 -1.3599
33306SOL     OW 1924   1.917   8.699   9.149  0.0613 -0.4770  0.3243
33306SOL    HW1 1925   1.872   8.712   9.066 -0.2026  0.8630  0.6486
33306SOL    HW2 1926   2.007   8.729   9.132  0.0019 -0.1824  0.5167
33307SOL     OW 1927   7.006   0.240   7.747  0.8608 -0.5679 -0.2242
33307SOL    HW1 1928   6.951   0.262   7.672  1.4050 -1.5171 -0.9237
33307SOL    HW2 1929   6.968   0.289   7.820 -0.7322 -0.9795 -0.7402
33308SOL     OW 1930   7.354   2.722   9.413  0.0276 -0.1861 -0.2111
33308SOL    HW1 1931   7.305   2.742   9.333  1.0770  0.1789 -0.7795
33308SOL    HW2 1932   7.364   2.627   9.412  0.1132 -0.1738 -0.5680
33309SOL     OW 1933  10.771   9.506   6.601 -0.7680 -0.2641 -0.5451
33309SOL    HW1 1934  10.812   9.567   6.540 -1.2295 -0.8172 -1.4269
33309SOL    HW2 1935  10.819   9.424   6.590 -0.1710 -0.0873  0.6104
33310SOL     OW 1936   9.368   9.420   4.123 -0.8513  0.0716  0.6736
33310SOL    HW1 1937   9.462   9.439   4.123 -0.4258 -1.5862 -1.3188
33310SOL    HW2 1938   9.326   9.506   4.126  0.8053  1.0248 -0.9977
33311SOL     OW 1939   7.886   4.194   1.371 -0.1726 -0.0497 -0.2751
33311SOL    HW1 1940   7.917   4.254   1.438 -1.6668  1.9428 -1.2407
33311SOL    HW2 1941   7.871   4.250   1.294 -2.5121 -1.4593 -0.9445
33312SOL     OW 1942   1.772   6.410   5.514  0.6139 -0.2175 -0.1879
33312SOL    HW1 1943   1.798   6.376   5.600  3.5771 -1.4280 -1.4368
33312SOL    HW2 1944   1.704   6.350   5.484 -2.0381  1.4217  2.0470
33313SOL     OW 1945   4.743   2.882   7.979 -0.3046 -0.0551 -0.1048
33313SOL    HW1 1946   4.691   2.803   7.963 -0.9148  0.0218  1.3656
33313SOL    HW2 1947   4.713   2.914   8.064  2.5375 -0.3372  1.1171
33314SOL     OW 1948   0.944   9.207   6.697 -0.4875  0.0536 -0.3156
33314SOL    HW1 1949   0.974   9.118   6.682  0.9317  0.6484 -1.2803
33314SOL    HW2 1950   0.879   9.200   6.767  2.2253 -1.2867  2.2545
33315SOL     OW 1951   3.492   7.796   7.171  1.1324  0.0758  0.0583
33315SOL    HW1 1952   3.424   7.861   7.151  2.5029  1.1696 -1.3347
33315SOL    HW2 1953   3.480   7.777   7.264 -1.0698  0.2029 -0.1560
33316SOL     OW 1954   8.843   4.765   7.735 -0.0702 -0.1205  0.3356
33316SOL    HW1 1955   8.855   4.686   7.787 -0.9860 -0.0982  0.6022
33316SOL    HW2 1956   8.754   4.793   7.756  0.1893  0.8850  0.1110
33317SOL     OW 1957   5.092   8.185  10.411  0.2313 -0.9586 -0.8962
33317SOL    HW1 1958   5.087   8.100  10.366 -0.2095  0.8405 -4.6308
33317SOL    HW2 1959   5.010   8.190  10.461  0.3815 -2.7780 -0.3823
33318SOL     OW 1960   1.849   2.276   7.658 -0.1002 -0.2247 -0.0113
33318SOL    HW1 1961   1.935   2.256   7.696 -0.5137  0.4843  1.3282
33318SOL    HW2 1962   1.859   2.253   7.565  1.5939  0.0091  0.0749
33319SOL     OW 1963   2.885   2.617   7.805  0.2898  0.0952 -0.6045
33319SOL    HW1 1964   2.910   2.694   7.855  0.6208 -0.6583  0.4387
33319SOL    HW2 1965   2.941   2.547   7.840  0.0806 -0.5939 -1.6003
33320SOL     OW 1966  10.654   4.918   9.644  0.2075 -0.0363  0.0458
33320SOL    HW1 1967  10.630   4.848   9.704  0.2499 -0.5745 -0.5513
33320SOL    HW2 1968  10.701   4.874   9.573 -0.0458  0.5496 -0.4964
33321SOL     OW 1969   5.612   9.792   0.469  0.1728  0.0561  0.0452
33321SOL    HW1 1970   5.689   9.772   0.415  0.0239  1.1101 -0.5839
33321SOL    HW2 1971   5.602   9.887   0.461 -0.4149  0.1029  1.1861
33322SOL     OW 1972   3.502   2.195   5.118 -0.4606 -0.0009  0.1928
33322SOL    HW1 1973   3.487   2.281   5.079  1.9983 -0.1297 -1.2495
33322SOL    HW2 1974   3.594   2.197   5.147 -0.9818 -1.4022  2.2132
33323SOL     OW 1975   8.422   2.728   5.518 -0.0500 -0.3936 -0.1940
33323SOL    HW1 1976   8.461   2.644   5.493  0.4408  0.3999 -2.2758
33323SOL    HW2 1977   8.425   2.781   5.438 -0.2794  1.6490  1.0752
33324SOL     OW 1978   1.694   1.595   0.589  1.1125  0.3223 -0.1745
33324SOL    HW1 1979   1.714   1.535   0.517  1.3422 -0.1686  0.2906
33324SOL    HW2 1980   1.613   1.638   0.563  0.3687 -0.9612 -0.0535
33325SOL     OW 1981   2.750   2.737   2.997  0.0542  0.0217 -0.2943
33325SOL    HW1 1982   2.784   2.820   2.961  1.5437 -0.6501 -0.4986
33325SOL    HW2 1983   2.827   2.682   3.006 -0.7664 -0.9586  0.9399
33326SOL     OW 1984   6.180   1.527   3.287 -0.3793 -0.0115 -0.5022
33326SOL    HW1 1985   6.175   1.475   3.367  2.8190  0.4346  0.1372
33326SOL    HW2 1986   6.204   1.464   3.219 -0.2025  0.0656 -0.5106
33327SOL     OW 1987   6.004   8.928   0.074 -0.4430 -0.2254  0.5076
33327SOL    HW1 1988   5.960   9.013   0.086 -2.4735 -1.3224  1.1878
33327SOL    HW2 1989   5.934   8.868   0.048  1.1368 -1.5004 -1.0716
33328SOL     OW 1990   2.340   6.681   4.041  0.4267 -0.3226  0.1445
33328SOL    HW1 1991   2.296   6.604   4.004 -0.8582  0.5105 -0.1381
33328SOL    HW2 1992   2.433   6.662   4.032  0.1472 -1.0698 -1.6265
33329SOL     OW 1993   7.680   5.417   5.480  0.2713 -0.0489  0.2898
33329SOL    HW1 1994   7.750   5.470   5.516 -0.6996  0.8493  0.8999
33329SOL    HW2 1995   7.601   5.470   5.491 -0.5080 -1.0257 -0.3931
33330SOL     OW 1996  11.003   7.797   4.576  0.6458 -0.1008  0.4320
33330SOL    HW1 1997  11.088   7.834   4.554  1.5571 -3.0046 -1.5878
33330SOL    HW2 1998  10.948   7.815   4.499  0.8608 -1.9700 -0.2260
33331SOL     OW 1999   8.524   4.818   0.571  0.6455 -0.0501 -0.1304
33331SOL    HW1 2000   8.500   4.765   0.495  0.0265  0.8562 -0.5763
33331SOL    HW2 2001   8.444   4.865   0.594  0.8970 -0.1112  0.9256
33332SOL     OW 2002   7.809   3.461   7.391  0.0603 -0.6225  0.0233
33332SOL    HW1 2003   7.828   3.389   7.331 -1.3644  0.7497 -2.2298
33332SOL    HW2 2004   7.715   3.453   7.410 -0.5396  1.4864 -1.6329
33333SOL     OW 2005   5.504   3.257   5.789 -0.5957  0.0806 -0.0161
33333SOL    HW1 2006   5.424   3.246   5.739  0.3037  1.6906 -1.9349
33333SOL    HW2 2007   5.546   3.171   5.787 -1.1786 -0.1913 -0.9983
33334SOL     OW 2008   8.689   3.673   8.801 -0.0787  0.7739 -0.5853
33334SOL    HW1 2009   8.782   3.671   8.783  0.1804 -1.9108  0.5528
33334SOL    HW2 2010   8.658   3.756   8.763  2.7324  1.7592 -0.9083
33335SOL     OW 2011   6.425   0.480   6.153  0.2206 -0.0514  0.3715
33335SOL    HW1 2012   6.368   0.459   6.079 -0.3874 -1.1838  1.1306
33335SOL    HW2 2013   6.384   0.436   6.228  1.9614 -0.6981  0.9834
33336SOL     OW 2014   9.707   2.295   8.609  0.2810 -0.5856 -0.4731
33336SOL    HW1 2015   9.791   2.253   8.625  0.3380 -1.0941 -1.9131
33336SOL    HW2 2016   9.712   2.378   8.656  0.3766 -1.8877  2.0076
33337SOL     OW 2017  10.183   1.417   0.393  0.1742  0.6118  0.1339
33337SOL    HW1 2018  10.246   1.353   0.358 -2.2409 -3.3372  2.2620
33337SOL    HW2 2019  10.137   1.369   0.461 -3.9492  3.8204 -0.0518
33338SOL     OW 2020   9.675   4.703   5.149 -0.3479  0.4742 -0.5952
33338SOL    HW1 2021   9.617   4.664   5.083 -0.4941  0.8059 -0.6657
33338SOL    HW2 2022   9.736   4.633   5.172 -1.1939 -0.0976 -0.0321
33339SOL     OW 2023   0.597   4.088   1.826 -0.4480 -0.2199 -0.6776
33339SOL    HW1 2024   0.563   3.998   1.833 -3.1582  0.7388 -0.1727
33339SOL    HW2 2025   0.549   4.126   1.753 -0.5187  1.2621  0.1048
33340SOL     OW 2026  10.248   1.768   2.507 -0.0822 -0.5894  0.7061
33340SOL    HW1 2027  10.207   1.689   2.541 -2.5117 -1.2643 -3.1358
33340SOL    HW2 2028  10.176   1.818   2.469  1.9407  1.3134 -0.9156
33341SOL     OW 2029   8.925   2.870   0.122 -0.2304 -0.4437  0.4892
33341SOL    HW1 2030   8.833   2.896   0.127 -0.2120  0.0859 -1.4221
33341SOL    HW2 2031   8.937   2.811   0.197 -2.4982 -1.6637 -0.0253
33342SOL     OW 2032   1.056   6.748   3.453  0.1064  0.4903  0.3353
33342SOL    HW1 2033   1.077   6.819   3.393  1.3375  0.7939  1.0746
33342SOL    HW2 2034   1.046   6.791   3.539  1.3431 -0.2516  0.8779
33343SOL     OW 2035   4.598   0.651   6.499 -0.4965  0.4005 -0.5069
33343SOL    HW1 2036   4.548   0.593   6.442 -0.3590  2.6555 -3.1390
33343SOL    HW2 2037   4.689   0.632   6.479 -0.4371  0.9036 -0.7280
33344SOL     OW 2038   3.881   6.160  10.750  0.2868  0.1479 -0.3576
33344SOL    HW1 2039   3.787   6.144  10.753  0.2702  0.3288  0.9299
33344SOL    HW2 2040   3.912   6.136  10.838  1.5756 -0.7052 -1.0187
33345SOL     OW 2041   9.550   5.848   6.423 -0.2690 -0.2142 -0.3676
33345SOL    HW1 2042   9.594   5.778   6.374 -1.0248  0.0918 -1.5198
33345SOL    HW2 2043   9.528   5.914   6.357 -0.8105  0.4785  0.4778
33346SOL     OW 2044   9.228   5.220   6.883 -0.8144 -0.1078  0.3470
33346SOL    HW1 2045   9.229   5.294   6.943  1.3891 -0.6596  1.0894
33346SOL    HW2 2046   9.169   5.156   6.924  0.7421 -0.5257  2.0625
33347SOL     OW 2047   6.368   7.795   2.691 -0.4773 -0.1292  0.8280
33347SOL    HW1 2048   6.382   7.757   2.604 -1.0215 -2.2854  1.6108
33347SOL    HW2 2049   6.429   7.869   2.695  0.3181 -0.6251 -0.9908
33348SOL     OW 2050   0.293   7.837   3.712  0.3279 -0.0831 -0.2445
33348SOL    HW1 2051   0.354   7.774   3.749 -0.0380 -0.8072 -0.8601
33348SOL    HW2 2052   0.207   7.799   3.727 -0.0764  1.3693  1.4780
33349SOL     OW 2053   0.542   8.368   6.734  1.3131 -0.5835 -0.6927
33349SOL    HW1 2054   0.568   8.321   6.654  0.3875 -1.0543 -0.7316
33349SOL    HW2 2055   0.456   8.332   6.755  1.3436 -0.1123  0.2517
33350SOL     OW 2056   9.275   6.818   9.907  0.3752  0.1960 -0.1216
33350SOL    HW1 2057   9.277   6.907   9.871 -0.4580  0.5890  0.7615
33350SOL    HW2 2058   9.365   6.801   9.934  0.2581  1.4152  1.1729
33351SOL     OW 2059   8.340  10.682  10.884  0.5550 -0.1650  0.3369
33351SOL    HW1 2060   8.359  10.646  10.798 -0.2487 -0.3583  0.2273
33351SOL    HW2 2061   8.299  10.609  10.932  1.9680 -0.3929  1.2529
33352SOL     OW 2062   7.700   1.893   0.038 -0.4487  1.1157 -0.4194
33352SOL    HW1 2063   7.698   1.809   0.084  0.3820  0.8309 -0.8804
33352SOL    HW2 2064   7.635   1.947   0.083  0.4716  0.9209  1.2241
33353SOL     OW 2065   6.329   1.085   1.544 -0.0742  0.4006  0.5876
33353SOL    HW1 2066   6.309   1.079   1.451 -0.4488  0.9461  0.6321
33353SOL    HW2 2067   6.275   1.158   1.576 -1.9920 -1.4043  1.7625
33354SOL     OW 2068   3.522   9.771   3.043 -0.0411 -0.3440 -0.2720
33354SOL    HW1 2069   3.435   9.810   3.055 -0.3212 -0.6297 -1.3013
33354SOL    HW2 2070   3.574   9.841   3.003  0.7258  0.4093  1.8886
33355SOL     OW 2071   0.408   6.575   9.073 -0.2910 -0.0618  0.5142
33355SOL    HW1 2072   0.314   6.560   9.081 -0.4987 -0.1475 -1.4646
33355SOL    HW2 2073   0.431   6.630   9.148 -2.0049  0.2980  0.8059
33356SOL     OW 2074   3.768   8.110   7.690  0.1553 -0.1253  0.2476
33356SOL    HW1 2075   3.856   8.086   7.660 -0.7811 -1.6503 -1.4238
33356SOL    HW2 2076   3.781   8.193   7.737  2.0003  1.6914 -3.0928
33357SOL     OW 2077   2.966  10.198   9.372 -0.0364  0.2236  0.6642
33357SOL    HW1 2078   2.890  10.149   9.340  0.9452 -0.0006 -1.4957
33357SOL    HW2 2079   2.944  10.290   9.358  0.3785  0.1325 -0.8383
33358SOL     OW 2080   9.556   5.248   5.537 -0.1504 -0.1193 -0.3998
33358SOL    HW1 2081   9.509   5.326   5.565 -2.0927 -0.9131 -1.2841
33358SOL    HW2 2082   9.550   5.249   5.442 -0.3007 -1.4062 -0.4212
33359SOL     OW 2083   2.348  10.636   8.612 -0.2499  0.3522 -0.0632
33359SOL    HW1 2084   2.417  10.644   8.546 -0.8934 -0.5262 -0.8673
33359SOL    HW2 2085   2.266  10.639   8.561 -0.8225  1.4030  0.8742
33360SOL     OW 2086   8.880   4.171   6.377 -0.1477 -0.2960 -0.4507
33360SOL    HW1 2087   8.939   4.246   6.366  1.3630 -0.9295  2.4239
33360SOL    HW2 2088   8.938   4.098   6.397 -1.7662 -1.6670 -0.6012
33361SOL     OW 2089   4.401   3.600   6.880  0.2330  0.0489  0.0778
33361SOL    HW1 2090   4.432   3.686   6.851 -0.7140  0.0519 -0.9604
33361SOL    HW2 2091   4.481   3.554   6.907  0.8495  0.9318 -0.1916
33362SOL     OW 2092   5.822   3.410   3.850 -0.6015 -0.5527  0.1598
33362SOL    HW1 2093   5.797   3.370   3.767  0.1488 -1.5197  0.3823
33362SOL    HW2 2094   5.774   3.360   3.916 -0.2805 -0.5684  0.3850
33363SOL     OW 2095   6.356  10.592   5.855 -0.2544  0.0024 -0.7221
33363SOL    HW1 2096   6.274  10.605   5.809 -0.0469 -1.2390 -1.4648
33363SOL    HW2 2097   6.332  10.543   5.934 -0.1921 -0.6142 -1.0841
33364SOL     OW 2098   7.022   7.985  11.010 -0.3109  0.7750 -0.6915
33364SOL    HW1 2099   6.948   7.988  11.071 -0.5876 -1.7751 -0.8170
33364SOL    HW2 2100   6.983   8.003  10.924 -1.0798 -1.7216 -0.9286
33365SOL     OW 2101   0.213   8.862   6.022 -0.6746 -1.0115 -0.0128
33365SOL    HW1 2102   0.256   8.786   5.982 -0.7391 -1.9673  1.6024
33365SOL    HW2 2103   0.196   8.922   5.950  2.2130 -1.1385 -0.9288
33366SOL     OW 2104   8.982   7.388  10.433 -0.3907 -0.0160 -0.0362
33366SOL    HW1 2105   8.980   7.374  10.339 -0.9465  0.0066 -0.0276
33366SOL    HW2 2106   8.895   7.365  10.463 -0.2037 -0.0630  0.4802
33367SOL     OW 2107   3.843  10.160   4.428 -0.3548 -0.0397 -0.1524
33367SOL    HW1 2108   3.930  10.200   4.426 -0.7798  1.2240  2.3312
33367SOL    HW2 2109   3.796  10.202   4.355  0.2873  1.4281  0.2257
33368SOL     OW 2110   7.100   9.204   8.003  0.4648 -0.3102 -0.5371
33368SOL    HW1 2111   7.012   9.194   8.040 -0.2876  2.8413 -1.1409
33368SOL    HW2 2112   7.121   9.296   8.017  2.8823 -0.5330 -2.1570
33369SOL     OW 2113   5.496  10.899   8.341  0.2426 -0.1846 -0.3682
33369SOL    HW1 2114   5.483  10.829   8.277  3.0508  0.5704 -1.9210
33369SOL    HW2 2115   5.472  10.859   8.425  1.1558 -2.8457 -1.2511
33370SOL     OW 2116   9.585  10.617   5.681 -0.5105  0.3811 -0.5995
33370SOL    HW1 2117   9.547  10.530   5.673  0.3028 -0.0864  0.4352
33370SOL    HW2 2118   9.578  10.638   5.774  1.8494  0.2135 -0.3404
33371SOL     OW 2119   2.793   6.564   8.285  0.3945  0.1932 -0.5787
33371SOL    HW1 2120   2.807   6.648   8.242  0.9299 -0.5986 -2.0174
33371SOL    HW2 2121   2.880   6.525   8.291  0.3979  0.3926  1.5592
33372SOL     OW 2122   6.476  10.612   2.707  0.5559  0.1054  0.2272
33372SOL    HW1 2123   6.440  10.527   2.684 -0.4115  0.4483  0.4336
33372SOL    HW2 2124   6.425  10.675   2.655  1.1334  0.5718  0.2155
33373SOL     OW 2125   9.302   1.656   5.051 -0.0941  0.3178  0.0632
33373SOL    HW1 2126   9.297   1.751   5.039  1.9118  0.1063 -4.4500
33373SOL    HW2 2127   9.211   1.627   5.048 -0.6441  1.9776 -1.1931
33374SOL     OW 2128   9.733   8.562   2.768 -0.8719 -0.0635 -0.0505
33374SOL    HW1 2129   9.662   8.537   2.709 -0.6960 -1.2498  0.2080
33374SOL    HW2 2130   9.791   8.616   2.714 -0.9584 -0.7374 -0.8547
33375SOL     OW 2131   7.074   5.216   9.309 -0.5634  0.4357 -0.8508
33375SOL    HW1 2132   7.078   5.241   9.402  0.9418  2.3264 -1.3611
33375SOL    HW2 2133   7.015   5.141   9.307 -1.2007  0.7878  1.5458
33376SOL     OW 2134   9.690   7.983   2.189  0.1768 -0.3234 -0.2984
33376SOL    HW1 2135   9.638   7.985   2.108  1.2280 -1.0344 -1.0256
33376SOL    HW2 2136   9.743   7.903   2.181  0.1867 -0.4874  1.1756
33377SOL     OW 2137   4.634   7.392   3.403  0.0796 -0.3392 -0.9896
33377SOL    HW1 2138   4.728   7.407   3.412 -0.1366  0.9826 -0.7134
33377SOL    HW2 2139   4.594   7.474   3.433 -1.1508 -0.8059 -1.3114
33378SOL     OW 2140   7.141   5.119   7.263  0.3084 -0.1908 -0.7675
33378SOL    HW1 2141   7.095   5.152   7.186 -0.5274 -1.3411 -0.8061
33378SOL    HW2 2142   7.209   5.061   7.229 -0.6986 -1.4923 -0.6723
33379SOL     OW 2143   5.328   5.903   9.588  0.0729  0.8008  0.0002
33379SOL    HW1 2144   5.284   5.988   9.577  0.5600  1.2155  1.1396
33379SOL    HW2 2145   5.409   5.912   9.538 -0.0790  0.8427 -0.2440
33380SOL     OW 2146   9.892   3.762   3.524  0.1123  0.1893  0.5206
33380SOL    HW1 2147   9.921   3.672   3.538 -1.9617 -0.1987  3.4402
33380SOL    HW2 2148   9.840   3.759   3.444  0.7670 -0.9964  0.1133
33381SOL     OW 2149   6.744   3.672   7.801  0.1487  0.1851 -0.2058
33381SOL    HW1 2150   6.677   3.719   7.751  0.1586  0.1575 -0.2449
33381SOL    HW2 2151   6.738   3.581   7.771  0.1810  0.1762 -0.1857
33382SOL     OW 2152   0.068   1.550   1.048  0.1590 -0.0543  0.5055
33382SOL    HW1 2153   0.060   1.456   1.066 -0.4072  0.1276  1.2429
33382SOL    HW2 2154   0.152   1.558   1.002  0.4306 -0.8677  0.8295
33383SOL     OW 2155   4.679   5.818   7.073 -0.1004 -0.9575  0.0178
33383SOL    HW1 2156   4.628   5.741   7.046  1.5732 -1.4619 -1.9964
33383SOL    HW2 2157   4.709   5.857   6.990  1.1128  0.4528  1.0674
33384SOL     OW 2158   9.206   0.708   0.720 -0.1570  0.1934  0.6618
33384SOL    HW1 2159   9.165   0.744   0.799 -0.5180  2.3232 -0.4380
33384SOL    HW2 2160   9.157   0.747   0.648 -0.1721 -2.0934 -0.6747
33385SOL     OW 2161   7.268   4.265   9.926  0.1320 -0.4816  0.6118
33385SOL    HW1 2162   7.188   4.220   9.952  0.6310 -1.9640 -0.2656
33385SOL    HW2 2163   7.243   4.357   9.921 -1.8438 -1.0157 -0.7438
33386SOL     OW 2164   6.642   9.627   8.416  0.3386  0.5457  0.0358
33386SOL    HW1 2165   6.589   9.676   8.479  0.2508  0.9542 -0.3432
33386SOL    HW2 2166   6.699   9.694   8.377  1.7291 -0.0190  1.0220
33387SOL     OW 2167   8.912   4.149   5.382 -0.5052 -0.0940  0.4094
33387SOL    HW1 2168   8.866   4.201   5.448 -1.3894  0.3646 -0.5289
33387SOL    HW2 2169   8.861   4.162   5.302 -0.1343 -1.5798 -0.0980
33388SOL     OW 2170   5.894   6.164   2.494  0.3470 -0.5376 -0.1068
33388SOL    HW1 2171   5.808   6.131   2.471  0.2833 -0.8324  0.5180
33388SOL    HW2 2172   5.895   6.254   2.462 -0.5502 -0.2243  0.6840
33389SOL     OW 2173   7.894   9.138   5.523 -0.2424  0.5333  0.2975
33389SOL    HW1 2174   7.943   9.172   5.598  0.3064 -1.4309  0.8897
33389SOL    HW2 2175   7.894   9.210   5.460  1.8371  1.2347  1.0186
33390SOL     OW 2176   9.642   6.057   6.596 -0.1463 -1.0246  0.5407
33390SOL    HW1 2177   9.629   5.978   6.543  1.4176  0.9142 -3.1214
33390SOL    HW2 2178   9.560   6.106   6.587 -0.4551 -1.3924  1.2884
33391SOL     OW 2179   2.578   8.692   5.098 -0.2046 -0.1924 -0.1977
33391SOL    HW1 2180   2.635   8.757   5.138 -1.7272  0.3668  1.1640
33391SOL    HW2 2181   2.617   8.608   5.122  1.1387  0.1831 -1.0018
33392SOL     OW 2182   6.559   2.744   4.776  0.0906 -0.7039 -0.2868
33392SOL    HW1 2183   6.560   2.799   4.854  2.0390 -1.9130  0.6126
33392SOL    HW2 2184   6.545   2.805   4.704 -0.0687  0.6548  0.8528
33393SOL     OW 2185   2.482   6.210   4.254  0.0755 -0.5425 -0.2056
33393SOL    HW1 2186   2.527   6.275   4.201  0.3508  0.9309  1.7476
33393SOL    HW2 2187   2.414   6.259   4.301 -0.0369 -1.7444  0.9534
33394SOL     OW 2188   6.895   4.027   2.084 -0.4806 -0.0696 -0.0200
33394SOL    HW1 2189   6.866   3.999   1.997 -0.2484 -4.4118  1.0847
33394SOL    HW2 2190   6.815   4.030   2.136 -0.9946  4.8253 -0.6521
33395SOL     OW 2191   2.692   3.696   5.395 -0.2484 -0.0265  1.0674
33395SOL    HW1 2192   2.747   3.767   5.361 -0.2182  0.6877  2.5421
33395SOL    HW2 2193   2.708   3.623   5.335  1.2949  0.5710  0.6891
33396SOL     OW 2194   3.687   4.119  10.481  0.0895 -0.3072  0.2388
33396SOL    HW1 2195   3.707   4.089  10.570  2.7401  0.6004  0.0391
33396SOL    HW2 2196   3.723   4.050  10.424  0.8761  0.3929 -0.1338
33397SOL     OW 2197   9.721  10.049  10.926  0.0495 -0.3351 -0.4970
33397SOL    HW1 2198   9.779  10.125  10.937 -0.0931 -0.0071 -1.8444
33397SOL    HW2 2199   9.635  10.081  10.952 -0.1051  0.1374 -1.5392
33398SOL     OW 2200   6.409   9.969   7.205  0.0073  0.3754 -0.0825
33398SOL    HW1 2201   6.432  10.057   7.236  1.8827  0.3089 -1.1446
33398SOL    HW2 2202   6.470   9.952   7.133  1.0543 -2.5730  1.3419
33399SOL     OW 2203   0.586   0.660   4.030  0.0071 -0.0425 -0.4996
33399SOL    HW1 2204   0.522   0.592   4.008 -0.6995 -0.4554  2.3969
33399SOL    HW2 2205   0.591   0.715   3.951 -4.2926  0.2917 -0.7891
33400SOL     OW 2206   7.016   7.052  10.233 -0.1187 -0.1151 -0.4684
33400SOL    HW1 2207   6.974   6.967  10.223 -1.7930  0.6551 -0.3861
33400SOL    HW2 2208   7.047   7.053  10.324 -1.2105 -0.1671 -0.0876
33401SOL     OW 2209   4.453   5.607   3.084  0.0625  0.2550  0.3976
33401SOL    HW1 2210   4.542   5.572   3.083 -0.2241 -0.5274  1.0716
33401SOL    HW2 2211   4.448   5.657   3.166 -0.6184 -1.0848  1.1981
33402SOL     OW 2212   4.521  10.918   0.830  0.1147 -0.3004 -0.5625
33402SOL    HW1 2213   4.519  10.997   0.777  1.6978  1.9908  2.4617
33402SOL    HW2 2214   4.614  10.895   0.836 -0.0847 -0.9355  0.5348
33403SOL     OW 2215   4.039   2.949   7.879  1.0889  0.0812  0.2988
33403SOL    HW1 2216   3.960   2.894   7.877  1.6020 -0.6754 -2.1429
33403SOL    HW2 2217   4.085   2.922   7.958 -0.6729 -0.0298  1.3425
33404SOL     OW 2218  10.857   0.721   7.417 -0.0156  0.6116  0.0562
33404SOL    HW1 2219  10.929   0.657   7.420  0.9471  1.5843 -1.0265
33404SOL    HW2 2220  10.897   0.799   7.377 -1.8408  0.9640 -1.1890
33405SOL     OW 2221   4.011   3.720   6.069 -0.3080  0.2420  0.2146
33405SOL    HW1 2222   4.089   3.665   6.058  0.3706  1.1052  0.5201
33405SOL    HW2 2223   3.941   3.673   6.024 -0.0475 -1.4573  1.4894
33406SOL     OW 2224   2.575   8.472   9.598 -1.1349  0.4455  0.2546
33406SOL    HW1 2225   2.481   8.471   9.581 -1.2881  0.8164  1.0371
33406SOL    HW2 2226   2.584   8.448   9.690 -0.3631 -0.9809 -0.1611
33407SOL     OW 2227   9.588   9.395   6.906  0.6727  0.5562 -0.5422
33407SOL    HW1 2228   9.591   9.362   6.996 -0.4444 -1.2187 -1.0780
33407SOL    HW2 2229   9.581   9.490   6.915  1.3586  0.4766  1.2151
33408SOL     OW 2230   7.645  10.485   3.473 -0.4194 -0.0045  0.4536
33408SOL    HW1 2231   7.595  10.408   3.502 -0.6683 -0.0308 -0.0301
33408SOL    HW2 2232   7.582  10.536   3.422  0.5535 -1.0316 -1.9112
33409SOL     OW 2233   8.263   5.422   2.976 -0.2040  0.1597 -1.5924
33409SOL    HW1 2234   8.212   5.503   2.979  0.9550  0.9537  1.9119
33409SOL    HW2 2235   8.209   5.357   3.020  0.7836  0.4395  0.1548
33410SOL     OW 2236   3.401  10.179   2.496  0.2266  0.2802  0.1785
33410SOL    HW1 2237   3.381  10.224   2.578 -1.5334  0.5798 -0.3678
33410SOL    HW2 2238   3.422  10.250   2.435  2.2991  0.0201  0.5058
33411SOL     OW 2239   2.411   6.385   1.142  0.3178 -0.0040 -0.0450
33411SOL    HW1 2240   2.452   6.436   1.212 -1.0631  0.4764  0.4538
33411SOL    HW2 2241   2.321   6.373   1.172 -0.1035 -0.4055 -1.4260
33412SOL     OW 2242  11.041   5.127   3.737  0.0130  1.0761  0.6152
33412SOL    HW1 2243  11.093   5.047   3.730 -0.6207  0.8211 -2.2297
33412SOL    HW2 2244  11.096   5.194   3.697 -0.3114  1.6350  1.0977
33413SOL     OW 2245   3.471   8.892   9.561 -0.0312 -0.2479  0.1827
33413SOL    HW1 2246   3.532   8.965   9.547  0.2023 -0.3111  0.8370
33413SOL    HW2 2247   3.523   8.826   9.607 -0.0365 -1.1411 -1.0603
33414SOL     OW 2248   5.086   8.628   4.634 -0.7538 -0.3651  0.3589
33414SOL    HW1 2249   5.050   8.589   4.555 -0.7985  0.8696 -0.2551
33414SOL    HW2 2250   5.010   8.661   4.682 -0.5699  2.5221 -1.0890
33415SOL     OW 2251   5.910   6.573   4.788 -0.6993  0.4491 -0.4225
33415SOL    HW1 2252   5.916   6.649   4.729  3.4034  1.9829  1.5355
33415SOL    HW2 2253   5.996   6.532   4.781 -1.1442 -1.0991  2.2205
33416SOL     OW 2254   4.462   3.646  10.193  0.1328 -0.5509  0.3171
33416SOL    HW1 2255   4.404   3.701  10.140  2.1616  1.8642  0.4364
33416SOL    HW2 2256   4.459   3.561  10.150 -2.0541 -0.0376 -0.7232
33417SOL     OW 2257  10.391   8.816   6.311 -0.6108  0.0002  0.2216
33417SOL    HW1 2258  10.298   8.795   6.311 -0.5179 -0.4234  0.8664
33417SOL    HW2 2259  10.429   8.757   6.245 -0.5444 -1.0333  1.1541
33418SOL     OW 2260   8.409   0.954   2.812  0.0975 -0.3088  0.1272
33418SOL    HW1 2261   8.412   0.888   2.880 -1.1952  0.5980  1.1118
33418SOL    HW2 2262   8.500   0.982   2.801  0.3598 -0.6885  1.2680
33419SOL     OW 2263   2.152   9.585   5.209 -0.5083 -0.5649  0.5967
33419SOL    HW1 2264   2.118   9.519   5.270  0.8756 -0.1611  1.8762
33419SOL    HW2 2265   2.076   9.641   5.191 -0.5614  0.5784  3.7012
33420SOL     OW 2266   1.551   2.959  10.134  0.1021 -0.9669  0.6370
33420SOL    HW1 2267   1.572   2.876  10.091 -0.8524 -1.7356  1.6027
33420SOL    HW2 2268   1.637   2.999  10.151  0.6252 -2.1897  0.9855
33421SOL     OW 2269  10.685   9.372   4.335  0.3543  0.0614  0.7003
33421SOL    HW1 2270  10.774   9.406   4.330  0.3517 -0.1474 -1.6936
33421SOL    HW2 2271  10.694   9.287   4.379  1.6805 -0.8800 -1.2480
33422SOL     OW 2272   9.015   9.712   2.148  0.7412 -0.4255 -0.3602
33422SOL    HW1 2273   8.938   9.668   2.111  1.0042 -0.1222 -1.3027
33422SOL    HW2 2274   9.089   9.668   2.108  1.0559 -0.5793  0.3882
33423SOL     OW 2275   2.913   4.357   4.567  0.5978 -0.2664 -0.3044
33423SOL    HW1 2276   2.967   4.433   4.544 -0.0390 -0.1323 -1.4195
33423SOL    HW2 2277   2.828   4.395   4.593  0.9533 -0.4812  1.3000
33424SOL     OW 2278   2.534   0.343   7.668 -0.8679  0.1549 -0.0105
33424SOL    HW1 2279   2.527   0.347   7.573 -0.9892  1.7971  0.0373
33424SOL    HW2 2280   2.478   0.269   7.694  0.7957 -1.6503 -1.3300
33425SOL     OW 2281   6.254   6.714   8.236  0.1292  0.3461 -0.2304
33425SOL    HW1 2282   6.315   6.641   8.253  1.0776  1.0001 -0.7577
33425SOL    HW2 2283   6.231   6.746   8.323 -1.8595 -1.8026  0.1282
33426SOL     OW 2284   6.219   1.561   4.133 -0.6016 -0.3561 -0.4329
33426SOL    HW1 2285   6.153   1.492   4.136 -0.7510 -0.2776 -1.5520
33426SOL    HW2 2286   6.240   1.578   4.225 -0.8195 -1.6390 -0.1298
33427SOL     OW 2287   5.890   5.235   4.615 -0.0806 -0.0472  0.4326
33427SOL    HW1 2288   5.911   5.146   4.585  0.1278  0.1424  0.0173
33427SOL    HW2 2289   5.935   5.242   4.699  1.3653  0.2655 -0.3282
33428SOL     OW 2290   2.707   8.420   7.365  0.0514  0.1225  0.1364
33428SOL    HW1 2291   2.726   8.489   7.301 -0.8368  0.0175 -0.2627
33428SOL    HW2 2292   2.674   8.466   7.441 -1.4137  0.1217 -0.4583
33429SOL     OW 2293   2.039   9.714   1.635 -0.0692 -0.0445  0.0384
33429SOL    HW1 2294   1.974   9.646   1.616 -1.0683  0.5563  1.1445
33429SOL    HW2 2295   1.995   9.796   1.614  0.5215  0.3507  0.3013
33430SOL     OW 2296   8.122   5.943   2.363  0.5112  0.4941  0.9869
33430SOL    HW1 2297   8.104   5.994   2.442 -0.3053  2.3742 -0.3572
33430SOL    HW2 2298   8.042   5.946   2.312  0.7520 -1.3800  0.3934
33431SOL     OW 2299   2.994   5.502   8.645 -0.6556 -0.3383 -1.0094
33431SOL    HW1 2300   2.911   5.483   8.688 -0.6845  1.4997 -0.1600
33431SOL    HW2 2301   2.998   5.597   8.640  1.6162 -0.3430 -0.5758
33432SOL     OW 2302   5.496   8.766   6.347  0.0408 -0.1253 -0.2898
33432SOL    HW1 2303   5.440   8.689   6.347 -0.3175  0.1155 -1.2265
33432SOL    HW2 2304   5.580   8.736   6.313  0.0040 -0.1688 -0.3407
33433SOL     OW 2305   8.645   1.874   9.279 -0.4208  0.0516 -0.0630
33433SOL    HW1 2306   8.570   1.820   9.303 -0.7339  0.3224 -0.4339
33433SOL    HW2 2307   8.610   1.962   9.273  0.1212  0.3299  0.6910
33434SOL     OW 2308   6.004   9.679   6.040  0.0964  0.3397 -0.3723
33434SOL    HW1 2309   6.023   9.622   6.115 -1.6806 -0.3969 -0.4310
33434SOL    HW2 2310   5.909   9.690   6.042 -0.0008  0.3144 -2.5050
33435SOL     OW 2311   0.101  10.230   7.612  0.0947 -0.6662  0.4804
33435SOL    HW1 2312   0.131  10.150   7.570 -0.7633 -0.1016 -1.3274
33435SOL    HW2 2313   0.019  10.205   7.655  0.1300 -0.8944  0.4136
33436SOL     OW 2314   3.606   6.239   4.359 -0.0718  0.0129 -0.8755
33436SOL    HW1 2315   3.640   6.154   4.332  1.7614  0.2209  0.5641
33436SOL    HW2 2316   3.551   6.220   4.435 -0.8843 -0.0265 -1.4657
33437SOL     OW 2317   3.788   8.741   4.539  0.2196  0.0856  0.4177
33437SOL    HW1 2318   3.775   8.681   4.613  2.1059  1.5083  2.0078
33437SOL    HW2 2319   3.866   8.708   4.495  0.8709  0.9531  0.8965
33438SOL     OW 2320   5.357  10.221   9.979 -0.2629  0.3689  0.1615
33438SOL    HW1 2321   5.366  10.175  10.062  1.8423 -0.4325 -0.4339
33438SOL    HW2 2322   5.293  10.289   9.995  0.9282  0.9828  2.7849
33439SOL     OW 2323   6.018   5.029   3.086  0.3107  0.2240  0.3432
33439SOL    HW1 2324   5.951   5.031   3.155 -0.0090  2.0230  0.0420
33439SOL    HW2 2325   6.096   5.064   3.128  0.8006 -0.9290  0.4177
33440SOL     OW 2326   6.333   0.255   7.016  0.1037  0.7808  0.1012
33440SOL    HW1 2327   6.396   0.320   6.986  2.9302 -2.1714 -0.9343
33440SOL    HW2 2328   6.273   0.244   6.942  0.0748  1.5913 -0.0072
33441SOL     OW 2329   3.696   5.696   2.767 -0.2821  0.1177  0.2763
33441SOL    HW1 2330   3.758   5.723   2.835 -1.0915 -2.4648  2.2020
33441SOL    HW2 2331   3.745   5.635   2.712 -0.2998  0.4067 -0.0684
33442SOL     OW 2332   8.267   4.226  10.238 -0.7688 -0.0247 -0.1693
33442SOL    HW1 2333   8.341   4.183  10.281 -1.0174 -0.8950 -0.5946
33442SOL    HW2 2334   8.207   4.247  10.310  0.1233  1.2271  0.2583
33443SOL     OW 2335  10.734   5.865   9.584  0.0064 -0.4272 -0.8654
33443SOL    HW1 2336  10.727   5.772   9.561 -0.4862 -1.4744  2.8689
33443SOL    HW2 2337  10.643   5.893   9.599  0.2377  0.3341 -0.8366
33444SOL     OW 2338   2.104   4.788   3.918 -0.0308 -0.3556 -0.2576
33444SOL    HW1 2339   2.019   4.743   3.922  0.0698 -0.4864  0.8898
33444SOL    HW2 2340   2.148   4.751   3.842 -0.5116 -1.1935 -0.1342
33445SOL     OW 2341   6.374   1.381   8.038  0.5486 -0.2587  0.1016
33445SOL    HW1 2342   6.308   1.320   8.071 -0.0603  0.7232  0.7351
33445SOL    HW2 2343   6.426   1.329   7.976 -1.7807 -0.6993 -1.6343
33446SOL     OW 2344   6.619   2.749   9.772  0.1569  0.2784 -0.2219
33446SOL    HW1 2345   6.571   2.675   9.809  1.5617 -1.0386 -0.8926
33446SOL    HW2 2346   6.711   2.730   9.793  0.5368  1.9955 -0.1743
33447SOL     OW 2347   7.909   8.664   5.401  0.2246 -0.2876 -0.3810
33447SOL    HW1 2348   7.849   8.721   5.353 -0.0587 -1.3509 -1.3167
33447SOL    HW2 2349   7.992   8.672   5.355 -0.2857 -2.0533 -1.7142
33448SOL     OW 2350   2.162   4.505   6.043  0.2510 -0.2350  0.3087
33448SOL    HW1 2351   2.150   4.589   6.087 -0.2511 -0.0623 -0.1563
33448SOL    HW2 2352   2.199   4.448   6.111 -1.0724 -0.1422  1.1524
33449SOL     OW 2353  10.501   1.464   0.850 -0.6505 -0.3430 -0.6741
33449SOL    HW1 2354  10.435   1.531   0.868  0.6332  0.7232  0.3070
33449SOL    HW2 2355  10.506   1.412   0.930 -0.4163 -0.5109 -0.7960
33450SOL     OW 2356   7.171   3.048   9.774 -0.1424  0.1170 -0.0273
33450SOL    HW1 2357   7.162   3.129   9.724  1.3119  1.0512  1.1402
33450SOL    HW2 2358   7.137   3.069   9.861 -0.0046 -0.5968  0.2105
33451SOL     OW 2359   9.770   3.294   2.526  0.0764 -0.7233 -0.0048
33451SOL    HW1 2360   9.811   3.229   2.583 -0.1804 -0.3043  0.6696
33451SOL    HW2 2361   9.833   3.307   2.455 -0.2000 -2.2617 -0.5658
33452SOL     OW 2362   2.398   0.822   9.630  0.0104  0.0996  0.3730
33452SOL    HW1 2363   2.390   0.791   9.720  0.2623  1.5650  0.9253
33452SOL    HW2 2364   2.450   0.902   9.637 -0.5356  0.6010 -0.9877
33453SOL     OW 2365   6.823   6.038   1.973 -0.2790 -0.1031  0.3606
33453SOL    HW1 2366   6.815   6.133   1.985 -1.4039 -0.2273  0.6751
33453SOL    HW2 2367   6.826   6.003   2.062  1.0196 -0.3113  0.2524
33454SOL     OW 2368   6.551   8.912   6.624  0.1971  0.0979 -0.1804
33454SOL    HW1 2369   6.516   8.864   6.699 -0.1385 -1.2745 -1.1848
33454SOL    HW2 2370   6.617   8.853   6.587  0.1092  0.6008 -1.1662
33455SOL     OW 2371   3.889   1.409   7.622  0.1269  0.7871  0.5974
33455SOL    HW1 2372   3.915   1.326   7.583  0.8322  0.8834  0.8354
33455SOL    HW2 2373   3.824   1.445   7.561  0.2730  0.3522  0.1741
33456SOL     OW 2374   0.611   6.072   2.123 -0.2958  0.4734 -0.6890
33456SOL    HW1 2375   0.688   6.084   2.067 -0.7406  0.5707 -1.2853
33456SOL    HW2 2376   0.606   6.153   2.174 -0.3353  0.7079 -1.0645
33457SOL     OW 2377   0.063   8.912   3.651  0.0057  0.4317  0.1681
33457SOL    HW1 2378   0.037   8.861   3.729  0.4994  0.2676  0.2270
33457SOL    HW2 2379   0.074   8.846   3.583 -0.8160  0.6138 -0.1556
33458SOL     OW 2380  10.635   9.460   6.901 -0.0606 -1.3053  0.5993
33458SOL    HW1 2381  10.654   9.420   6.816  0.5058 -1.5224  0.8260
33458SOL    HW2 2382  10.682   9.543   6.900 -1.1238 -0.6819  0.1840
33459SOL     OW 2383   7.984   4.954   0.438  0.2645  0.7744  0.1400
33459SOL    HW1 2384   7.935   4.942   0.356  0.8182  2.4145 -0.4863
33459SOL    HW2 2385   8.047   5.023   0.417  2.5465 -0.9298  1.0562
33460SOL     OW 2386   9.901   5.468   7.892 -0.1194 -0.0859  0.0156
33460SOL    HW1 2387   9.975   5.417   7.925 -0.3180 -0.9855 -0.8788
33460SOL    HW2 2388   9.939   5.552   7.866  0.7571 -0.8017 -1.1253
33461SOL     OW 2389   4.910   4.495   4.003  0.1711 -0.4135  0.1534
33461SOL    HW1 2390   4.948   4.572   4.045  2.3609 -1.2980 -0.1030
33461SOL    HW2 2391   4.859   4.453   4.072  0.1854  0.4314  0.6981
33462SOL     OW 2392   9.654   6.126   8.542  0.0778 -0.0443  0.8580
33462SOL    HW1 2393   9.637   6.044   8.495 -0.3440  0.3910  0.2353
33462SOL    HW2 2394   9.622   6.194   8.484 -2.6842  0.4316  2.7669
33463SOL     OW 2395   0.301   2.948   3.907  0.5900  0.2981 -0.2319
33463SOL    HW1 2396   0.214   2.975   3.936  0.2294 -0.8588 -0.1921
33463SOL    HW2 2397   0.350   3.030   3.898 -0.6317  0.9988 -0.7078
33464SOL     OW 2398   3.018   8.804   3.716  0.0602 -0.2007  0.9237
33464SOL    HW1 2399   3.038   8.843   3.801 -3.0423  1.2504  1.1341
33464SOL    HW2 2400   2.977   8.719   3.737 -0.5527  0.0829  0.9065
33465SOL     OW 2401   6.019   9.995   8.907 -0.2583  0.5094 -0.1818
33465SOL    HW1 2402   5.991   9.987   8.816 -2.1410  2.6253  0.1310
33465SOL    HW2 2403   5.970   9.926   8.953  1.4478 -1.2331 -0.8285
33466SOL     OW 2404   2.651   0.726   1.748 -0.4315  0.2142 -0.2798
33466SOL    HW1 2405   2.642   0.749   1.655 -0.4219 -2.3565 -0.9971
33466SOL    HW2 2406   2.732   0.674   1.752 -0.4962  0.1931  1.1531
33467SOL     OW 2407   6.718   9.894  10.221 -0.7989  0.3499  0.4446
33467SOL    HW1 2408   6.693   9.979  10.255 -0.1825  0.7183 -0.0119
33467SOL    HW2 2409   6.636   9.852  10.198 -1.0284  2.4868 -3.3829
33468SOL     OW 2410   1.909   9.934  10.450 -0.3121 -0.6360  0.8692
33468SOL    HW1 2411   1.974   9.948  10.518 -0.8199 -0.0364  1.2380
33468SOL    HW2 2412   1.926   9.845  10.419  2.2779  0.3313 -0.7891
33469SOL     OW 2413   8.897   5.484   5.686  0.5781 -0.2852  0.5961
33469SOL    HW1 2414   8.954   5.538   5.741  1.1448  0.5689 -0.7943
33469SOL    HW2 2415   8.904   5.522   5.599  1.1337 -2.7241 -0.4967
33470SOL     OW 2416   9.127   0.538   3.471  0.0047  0.0585 -0.8462
33470SOL    HW1 2417   9.189   0.605   3.443  1.1436  0.0800  1.5753
33470SOL    HW2 2418   9.123   0.545   3.566 -4.2948  0.5427 -0.8430
33471SOL     OW 2419   5.186   0.779   5.079  0.1024 -0.0288  0.0978
33471SOL    HW1 2420   5.138   0.853   5.116 -0.2679 -0.3886  0.3449
33471SOL    HW2 2421   5.228   0.738   5.155 -4.0385 -3.3371  0.9730
33472SOL     OW 2422   2.945   0.195   0.466 -0.2108  0.5835 -0.4699
33472SOL    HW1 2423   3.000   0.120   0.488  1.9212  2.7880  2.4307
33472SOL    HW2 2424   2.977   0.223   0.380 -2.4602 -2.7990 -2.6926
33473SOL     OW 2425   2.504   4.662   1.619  0.4228  0.0281  0.5219
33473SOL    HW1 2426   2.446   4.616   1.559 -1.0486 -0.7995  2.4758
33473SOL    HW2 2427   2.445   4.709   1.679  1.8156  0.8887  1.2824
33474SOL     OW 2428   1.011   0.278  10.680 -0.4158 -0.2341 -0.1669
33474SOL    HW1 2429   0.973   0.362  10.705  1.2531  1.0813 -1.7223
33474SOL    HW2 2430   0.970   0.257  10.596  0.5345  0.0223 -0.7101
33475SOL     OW 2431   7.954   6.152   7.471 -0.2439  0.2438 -0.3580
33475SOL    HW1 2432   7.889   6.082   7.468  0.3724 -0.4860  1.5462
33475SOL    HW2 2433   7.908   6.228   7.436 -0.6407 -1.2328 -3.4291
33476SOL     OW 2434   4.558   9.568   0.896 -0.5510  0.4569  0.0572
33476SOL    HW1 2435   4.492   9.502   0.915 -0.0270 -0.5990 -1.5838
33476SOL    HW2 2436   4.532   9.605   0.811  1.1068 -0.2237 -0.7925
33477SOL     OW 2437   0.388   2.847   0.956 -0.1868  0.0708  0.3057
33477SOL    HW1 2438   0.430   2.918   1.004 -1.2680 -0.2677  1.8603
33477SOL    HW2 2439   0.435   2.842   0.873  2.6834 -0.1558  1.8121
33478SOL     OW 2440   3.096   8.045   1.629  0.3188  0.4450  0.0649
33478SOL    HW1 2441   3.186   8.013   1.639  0.8577  0.7412 -3.0156
33478SOL    HW2 2442   3.106   8.132   1.591 -1.2987  1.3253  1.5145
33479SOL     OW 2443  10.247   4.789   6.326  0.4805  0.2338  0.4003
33479SOL    HW1 2444  10.340   4.766   6.323  0.1154 -1.3171  0.5708
33479SOL    HW2 2445  10.210   4.749   6.248 -0.5599 -1.5899  1.7832
33480SOL     OW 2446   4.147   2.171   0.695 -0.7607 -0.6125 -0.3124
33480SOL    HW1 2447   4.162   2.087   0.653 -0.9335 -1.5292  1.3966
33480SOL    HW2 2448   4.055   2.169   0.720 -1.0318  0.5176 -1.1301
33481SOL     OW 2449   5.833   6.648   5.179 -0.3222  0.4597 -0.1401
33481SOL    HW1 2450   5.907   6.670   5.236  0.6180  1.5953 -1.7330
33481SOL    HW2 2451   5.868   6.587   5.115 -0.3683  1.9613 -1.6786
33482SOL     OW 2452   7.014   1.566   2.672 -0.1074 -0.2481  0.2716
33482SOL    HW1 2453   7.062   1.515   2.606  0.0029  1.3817 -0.9514
33482SOL    HW2 2454   6.989   1.501   2.738  0.8042 -1.7276 -0.7726
33483SOL     OW 2455   5.838   1.184   0.297  0.7335  0.8475 -0.3343
33483SOL    HW1 2456   5.764   1.211   0.352  0.3037 -2.4752  0.9637
33483SOL    HW2 2457   5.895   1.135   0.356  0.7117 -2.1288 -2.5278
33484SOL     OW 2458   4.902   1.329   3.985  0.2916  0.7119  0.3074
33484SOL    HW1 2459   4.965   1.273   3.939 -0.0496  0.6495 -0.0965
33484SOL    HW2 2460   4.830   1.340   3.922 -0.1941  0.6128  0.8408
33485SOL     OW 2461   0.734   4.362   2.429  1.1511 -0.2054  0.2945
33485SOL    HW1 2462   0.787   4.353   2.350  2.7920  0.1180  1.3051
33485SOL    HW2 2463   0.734   4.274   2.467 -1.0159 -0.7613 -0.8482
33486SOL     OW 2464   5.166   9.324   5.466 -0.0159 -0.2119  0.0956
33486SOL    HW1 2465   5.119   9.282   5.394  1.3046  0.9221 -1.5268
33486SOL    HW2 2466   5.142   9.417   5.460  0.4499 -0.0330  0.8325
33487SOL     OW 2467   2.853   0.934   0.131  0.1619 -0.2684  0.1995
33487SOL    HW1 2468   2.781   0.873   0.150 -0.3702  0.4393  0.4979
33487SOL    HW2 2469   2.927   0.878   0.107 -0.5880 -1.0019 -0.4565
33488SOL     OW 2470   2.284   2.467   5.626  0.7766  0.2328  0.4465
33488SOL    HW1 2471   2.265   2.445   5.717  0.8753  0.5193  0.5360
33488SOL    HW2 2472   2.235   2.547   5.609 -0.0521 -0.3605 -0.0576
33489SOL     OW 2473   7.426   1.554   5.597 -0.1147 -0.2374 -0.1867
33489SOL    HW1 2474   7.501   1.551   5.538  0.2285  1.6691  0.0784
33489SOL    HW2 2475   7.363   1.613   5.554 -0.4993 -0.0300  0.6332
33490SOL     OW 2476   7.486   6.069  10.777 -0.3339 -0.2343  0.4524
33490SOL    HW1 2477   7.436   5.990  10.798 -3.0865  1.1426 -0.4689
33490SOL    HW2 2478   7.441   6.139  10.825 -2.2685  1.8123 -3.7901
33491SOL     OW 2479   9.018   7.915   1.615  0.0984 -0.1561 -0.1604
33491SOL    HW1 2480   8.991   7.828   1.645 -0.7651 -0.3494 -1.4143
33491SOL    HW2 2481   9.070   7.899   1.537  0.5105  0.4242 -0.0080
33492SOL     OW 2482   3.822   9.544   1.158  0.3020  0.5048 -0.3103
33492SOL    HW1 2483   3.878   9.621   1.165 -0.5150  1.2770 -1.6475
33492SOL    HW2 2484   3.840   9.509   1.070  0.1836 -0.4562  0.0293
33493SOL     OW 2485   8.462   3.088   0.034  0.1975 -0.1734 -0.0665
33493SOL    HW1 2486   8.370   3.096   0.010 -0.3198  0.9112  1.9978
33493SOL    HW2 2487   8.462   3.093   0.130  2.5716  2.1958 -0.0837
33494SOL     OW 2488   8.400   4.644  10.128  0.3542 -0.6481 -0.4769
33494SOL    HW1 2489   8.431   4.673  10.215 -1.9713 -0.0076  0.2163
33494SOL    HW2 2490   8.472   4.667  10.069  1.2535  0.6475  1.0085
33495SOL     OW 2491   1.044   6.096   0.504 -0.1938  0.6391  0.4915
33495SOL    HW1 2492   1.132   6.072   0.475 -0.8234 -0.6411 -0.4833
33495SOL    HW2 2493   1.009   6.017   0.543 -0.5977  1.4085  1.7531
33496SOL     OW 2494   0.086   5.722   0.746  0.0196  0.1316  0.4748
33496SOL    HW1 2495   0.060   5.705   0.837 -1.2005  0.7608  0.2522
33496SOL    HW2 2496   0.058   5.811   0.729  1.7846  0.6393 -0.0007
33497SOL     OW 2497   0.515   1.080   5.231  0.3107 -0.2256  0.8077
33497SOL    HW1 2498   0.456   1.154   5.244 -0.1194 -0.1080 -1.4055
33497SOL    HW2 2499   0.568   1.105   5.155  1.6057 -1.3239  1.3144
33498SOL     OW 2500   8.944   2.193   6.049 -0.2654  0.0530  0.4537
33498SOL    HW1 2501   9.023   2.143   6.028 -1.6007 -1.4183 -1.4499
33498SOL    HW2 2502   8.884   2.128   6.084 -2.2295  0.0522 -2.5404
33499SOL     OW 2503   5.067   6.904   7.986 -0.2274  0.1691 -0.1251
33499SOL    HW1 2504   5.074   6.997   7.966 -0.2729  0.1795 -0.0906
33499SOL    HW2 2505   5.122   6.892   8.064 -0.3195  0.1884 -0.0580
33500SOL     OW 2506   5.585   1.134   3.224 -0.0891 -0.1532 -0.0350
33500SOL    HW1 2507   5.521   1.109   3.291  0.4560 -0.4551  0.3839
33500SOL    HW2 2508   5.622   1.051   3.195  2.6476  0.1184  2.2682
33501SOL     OW 2509   6.416   5.102   6.005 -0.3879 -0.8639 -0.2227
33501SOL    HW1 2510   6.358   5.058   5.943  2.3440 -2.9112 -1.5510
33501SOL    HW2 2511   6.436   5.186   5.963 -0.1865 -1.3538 -1.1323
33502SOL     OW 2512   7.315   9.850   1.667 -0.3128 -0.6916  0.1117
33502SOL    HW1 2513   7.409   9.829   1.673 -0.2270 -0.5844 -0.8068
33502SOL    HW2 2514   7.313   9.943   1.642 -0.6806 -0.3575  1.3100
33503SOL     OW 2515   7.863   7.903   0.572 -0.0134  0.4044 -0.1725
33503SOL    HW1 2516   7.774   7.934   0.591 -0.2146 -0.2547  0.0069
33503SOL    HW2 2517   7.866   7.816   0.612  0.2327 -0.1685 -1.4046
33504SOL     OW 2518   5.401   1.028   6.710  0.0853 -0.2177 -0.2319
33504SOL    HW1 2519   5.457   1.060   6.639  0.4367 -0.0607  0.1090
33504SOL    HW2 2520   5.312   1.047   6.681  0.1083 -1.8155 -1.4521
33505SOL     OW 2521  11.034   2.496   7.604  0.3799  0.2405  0.3350
33505SOL    HW1 2522  10.951   2.528   7.640 -0.1306  0.0431 -0.6058
33505SOL    HW2 2523  11.014   2.480   7.511  1.7130  1.0354 -0.1178
33506SOL     OW 2524   0.936   8.302   7.208 -0.4521  0.3612  0.0237
33506SOL    HW1 2525   0.965   8.384   7.168  0.0084  0.2500  0.1237
33506SOL    HW2 2526   0.841   8.306   7.204 -0.4228  0.3665 -1.0565
33507SOL     OW 2527   3.102   0.826   6.992  0.4811 -0.3196  0.2195
33507SOL    HW1 2528   3.083   0.742   7.035 -0.4306 -0.1487  0.1817
33507SOL    HW2 2529   3.154   0.802   6.915 -0.9424 -1.0317 -0.5719
33508SOL     OW 2530   5.151   8.508   5.701  0.1483  0.5296 -0.3039
33508SOL    HW1 2531   5.077   8.556   5.738 -0.5085  0.3787 -1.3601
33508SOL    HW2 2532   5.112   8.425   5.672  1.0415 -0.1860  0.4912
33509SOL     OW 2533   0.652   4.908  10.473 -0.2449  0.1361 -0.8250
33509SOL    HW1 2534   0.734   4.870  10.504  0.2692  2.0182  0.2737
33509SOL    HW2 2535   0.592   4.898  10.547  0.0353  1.7895 -0.3389
33510SOL     OW 2536   8.034   7.971   8.577  0.1684 -0.5312 -0.0110
33510SOL    HW1 2537   8.070   8.039   8.520 -0.4676  1.4024  1.7720
33510SOL    HW2 2538   8.095   7.967   8.650  0.3839 -2.1882 -0.2393
33511SOL     OW 2539   3.876   5.115   6.346  0.3855  0.3004 -0.1503
33511SOL    HW1 2540   3.863   5.205   6.316 -0.2156  0.3204  0.1489
33511SOL    HW2 2541   3.802   5.066   6.308 -0.8291  0.4650  1.8429
33512SOL     OW 2542   7.477   5.167  11.034 -0.1223 -0.7255  0.6360
33512SOL    HW1 2543   7.472   5.234  11.103 -0.9985 -0.5610  0.4182
33512SOL    HW2 2544   7.517   5.212  10.960  1.2386 -1.0215  1.1688
33513SOL     OW 2545   4.460   7.627  10.480  0.4813 -0.3967 -0.3735
33513SOL    HW1 2546   4.458   7.709  10.431 -0.8268 -0.7512 -0.9695
33513SOL    HW2 2547   4.528   7.575  10.437 -0.3723 -0.5453 -1.5860
33514SOL     OW 2548   2.379   1.759   4.643  0.3470  0.2946  0.4042
33514SOL    HW1 2549   2.472   1.780   4.649 -0.3091  3.6327  1.0877
33514SOL    HW2 2550   2.355   1.780   4.553 -0.1508  1.8515  0.8591
33515SOL     OW 2551   7.851   2.187   3.370  0.1022  1.1157 -0.0092
33515SOL    HW1 2552   7.823   2.251   3.305 -1.6647 -0.9317 -1.3819
33515SOL    HW2 2553   7.907   2.126   3.321 -0.0211  0.3868  0.7434
33516SOL     OW 2554   3.122   7.365   8.336 -0.2226  0.3421  0.2099
33516SOL    HW1 2555   3.111   7.439   8.276  1.3208  0.0322 -0.5047
33516SOL    HW2 2556   3.112   7.287   8.281 -1.9167 -0.0461  0.9694
33517SOL     OW 2557   3.088   6.930   7.856  0.4407 -0.5204  0.0204
33517SOL    HW1 2558   3.101   6.879   7.936  0.4242  0.7067  0.8308
33517SOL    HW2 2559   3.172   6.926   7.810  0.2993 -1.6407 -0.1504
33518SOL     OW 2560   1.441   3.513   0.736 -0.0607  0.4861 -0.1048
33518SOL    HW1 2561   1.413   3.527   0.827  0.0818  0.4012 -0.0458
33518SOL    HW2 2562   1.466   3.599   0.705 -1.3587  0.7347 -0.4959
33519SOL     OW 2563   5.236   8.015   8.756 -0.5962  0.2814  0.3859
33519SOL    HW1 2564   5.297   7.943   8.741 -1.4283 -0.4131  0.2611
33519SOL    HW2 2565   5.251   8.075   8.683  1.1709  1.0230  1.2931
33520SOL     OW 2566   1.044  10.682   9.568  0.0253  0.0657  0.0683
33520SOL    HW1 2567   0.980  10.709   9.635 -0.6371  2.3641 -1.3721
33520SOL    HW2 2568   1.088  10.763   9.544  0.2894 -0.7100 -2.2429
33521SOL     OW 2569   6.464   6.041   0.454 -0.0104  0.1208 -0.0332
33521SOL    HW1 2570   6.393   6.105   0.456 -0.3420 -0.2471  1.6925
33521SOL    HW2 2571   6.543   6.092   0.435 -0.4960  0.7634 -0.3616
33522SOL     OW 2572   7.541   0.117   0.671  0.0587  0.2163 -0.0136
33522SOL    HW1 2573   7.450   0.147   0.665  0.5255  1.7530  0.2751
33522SOL    HW2 2574   7.561   0.087   0.582 -0.2628  1.3392 -0.4917
33523SOL     OW 2575   9.635   0.979   4.217  0.0252 -0.1607 -0.5109
33523SOL    HW1 2576   9.692   0.916   4.174 -0.3650  0.1161 -1.4737
33523SOL    HW2 2577   9.583   1.016   4.145 -2.9506 -1.9902  0.5489
33524SOL     OW 2578   0.583   0.463  10.205 -0.6287 -0.3207 -0.2674
33524SOL    HW1 2579   0.510   0.493  10.259 -1.3968 -1.6393 -0.5255
33524SOL    HW2 2580   0.619   0.543  10.166 -3.3147  0.2259 -1.8412
33525SOL     OW 2581   7.112   6.063   9.753 -0.5563  0.3715 -0.8729
33525SOL    HW1 2582   7.026   6.022   9.752  0.3930 -1.7763 -0.3963
33525SOL    HW2 2583   7.094   6.157   9.753 -2.9521  0.0136  0.9307
33526SOL     OW 2584   1.677   6.045   7.209  0.0420 -0.1404  0.3716
33526SOL    HW1 2585   1.749   6.093   7.250  0.6603  0.4387 -1.3265
33526SOL    HW2 2586   1.714   6.011   7.128 -1.2754 -0.8649  0.0568
33527SOL     OW 2587   0.604   9.274   6.366  0.1437 -1.1333  0.1647
33527SOL    HW1 2588   0.641   9.316   6.289 -1.6014 -0.4618 -0.3633
33527SOL    HW2 2589   0.516   9.246   6.338  0.2291 -2.7163  1.3127
33528SOL     OW 2590   6.464   0.094   7.817  0.3447  0.1865  0.1500
33528SOL    HW1 2591   6.555   0.067   7.806 -0.0544 -1.9877  1.4782
33528SOL    HW2 2592   6.438   0.128   7.732  1.0692 -3.6220 -1.8376
33529SOL     OW 2593   2.477   0.774   3.888 -0.6171  0.1946  0.5025
33529SOL    HW1 2594   2.469   0.867   3.868 -1.4923  0.3246  1.4012
33529SOL    HW2 2595   2.387   0.742   3.890 -0.4730 -0.1720  2.4792
33530SOL     OW 2596   9.103   7.089   7.388  0.8714  0.3000  0.0708
33530SOL    HW1 2597   9.071   7.006   7.352  0.6054  0.8013 -0.8803
33530SOL    HW2 2598   9.159   7.125   7.320  1.4862  0.6139  0.7337
33531SOL     OW 2599   3.258   0.012   8.049 -0.1251 -0.5052 -0.0300
33531SOL    HW1 2600   3.167   0.041   8.042 -0.1099 -0.4264  0.1141
33531SOL    HW2 2601   3.295   0.062   8.122 -0.1393 -0.9827  0.3085
33532SOL     OW 2602   0.807   9.734   9.292 -0.4372  0.2673 -0.0184
33532SOL    HW1 2603   0.811   9.689   9.207  0.4417 -1.1315  0.7155
33532SOL    HW2 2604   0.879   9.797   9.289 -1.6014  1.6251 -1.0094
33533SOL     OW 2605   7.998   6.261   7.975  0.0665  0.0005 -0.4139
33533SOL    HW1 2606   8.020   6.175   7.938  0.3433 -0.5708  0.9997
33533SOL    HW2 2607   8.080   6.292   8.014  0.3344  1.5719 -2.0872
33534SOL     OW 2608   3.601   1.979   9.948  0.1899 -0.1284 -0.0279
33534SOL    HW1 2609   3.581   2.017  10.033  0.1272  1.1235 -0.5769
33534SOL    HW2 2610   3.650   2.048   9.902  2.6356 -1.7353 -0.0413
33535SOL     OW 2611   7.862  10.724   0.621 -0.2359  0.0736  0.3627
33535SOL    HW1 2612   7.813  10.757   0.696  2.2933  1.4604  1.5580
33535SOL    HW2 2613   7.864  10.797   0.559 -0.8273 -0.4512 -0.2843
33536SOL     OW 2614   8.994   2.848   0.800 -0.4199  0.1565 -0.4181
33536SOL    HW1 2615   8.913   2.798   0.793 -1.0137  1.1361 -0.7052
33536SOL    HW2 2616   8.982   2.904   0.876  0.1089  0.1173 -0.2971
33537SOL     OW 2617   0.073   9.893   1.364 -0.1439 -0.3552 -0.5705
33537SOL    HW1 2618   0.101   9.945   1.439  0.4583 -0.0811 -0.9853
33537SOL    HW2 2619   0.016   9.826   1.402  0.5360 -0.5162  0.2044
33538SOL     OW 2620   3.392   5.068   9.787 -0.1837 -0.0928 -0.2057
33538SOL    HW1 2621   3.335   5.047   9.861 -0.4532  0.4939 -0.2437
33538SOL    HW2 2622   3.344   5.135   9.738 -0.9637 -1.8801 -2.0447
33539SOL     OW 2623   6.782   2.978   9.557 -0.0834 -0.0057  0.7026
33539SOL    HW1 2624   6.867   2.991   9.515  0.2982 -1.6917  0.8772
33539SOL    HW2 2625   6.766   3.059   9.604  2.0283 -0.0801  1.6814
33540SOL     OW 2626   6.825   8.714   7.949 -0.0704  0.5565  0.4833
33540SOL    HW1 2627   6.814   8.800   7.991  0.0994 -0.3595  2.5171
33540SOL    HW2 2628   6.769   8.718   7.871 -0.1080  2.4847  0.5659
33541SOL     OW 2629   7.187   0.990   5.586  0.1196 -0.1610  0.4381
33541SOL    HW1 2630   7.138   1.044   5.525  1.5862  0.7672  0.0227
33541SOL    HW2 2631   7.278   0.997   5.557  0.4905 -2.1467  0.9111
33542SOL     OW 2632   4.395   8.912   4.846  0.1311 -0.2512 -0.1592
33542SOL    HW1 2633   4.430   8.874   4.927 -0.4381 -0.6115 -0.0707
33542SOL    HW2 2634   4.320   8.965   4.875  0.6082  0.5283 -0.3378
33543SOL     OW 2635   4.062   0.045   9.504 -0.9149 -0.0469 -0.0857
33543SOL    HW1 2636   4.050   0.065   9.597 -1.6080  3.6346 -0.8041
33543SOL    HW2 2637   3.993  -0.018   9.484 -0.9400 -0.6864  1.7985
33544SOL     OW 2638   9.212   5.460   0.932  0.7173 -0.3711 -0.0504
33544SOL    HW1 2639   9.227   5.553   0.951 -0.4928 -0.6970  3.1993
33544SOL    HW2 2640   9.282   5.415   0.979  0.4355 -1.1600 -0.3701
33545SOL     OW 2641   8.578   5.336   2.257 -0.4465  0.0686  0.0805
33545SOL    HW1 2642   8.499   5.390   2.268 -0.5508  0.0123 -0.3894
33545SOL    HW2 2643   8.610   5.357   2.170  1.4946  1.9800  1.1481
33546SOL     OW 2644   5.530   8.349   4.125  0.0659  0.7239 -0.1141
33546SOL    HW1 2645   5.553   8.259   4.101 -1.9697  0.7352 -2.4632
33546SOL    HW2 2646   5.581   8.403   4.065  0.6874  1.1473  0.7726
33547SOL     OW 2647   0.178   9.561   3.561 -0.2281 -0.0471 -0.1502
33547SOL    HW1 2648   0.186   9.508   3.640  0.3154  2.1103  1.3415
33547SOL    HW2 2649   0.262   9.553   3.517  1.0533  1.8964  1.7116
33548SOL     OW 2650   1.347   0.008   9.588  0.2936  0.1921  0.4330
33548SOL    HW1 2651   1.420  -0.041   9.627  0.9029  1.5528  1.0728
33548SOL    HW2 2652   1.281   0.011   9.657  0.3448  0.4523  0.4700
33549SOL     OW 2653   1.276   2.200   3.168  0.0518 -0.6390  0.4341
33549SOL    HW1 2654   1.338   2.257   3.213  0.3776 -1.6059  1.2340
33549SOL    HW2 2655   1.330   2.140   3.118 -0.2671  1.6040 -2.9680
33550SOL     OW 2656   0.828  10.941   8.279  0.2097  0.4573  0.5384
33550SOL    HW1 2657   0.887  10.922   8.206  1.4099  0.6739  1.4136
33550SOL    HW2 2658   0.771  10.864   8.285 -1.1332  1.1928 -1.7357
33551SOL     OW 2659   6.546   0.953   0.186 -0.0671  0.2993 -0.0329
33551SOL    HW1 2660   6.479   1.018   0.208  1.4828  1.5265  1.3750
33551SOL    HW2 2661   6.536   0.884   0.251  0.5255  0.8710  0.6730
33552SOL     OW 2662   1.003   1.186   6.558  0.4712  0.6444 -0.0406
33552SOL    HW1 2663   1.042   1.109   6.599  0.3105  0.7927  0.3999
33552SOL    HW2 2664   0.928   1.152   6.509 -0.7197  0.7016  1.6195
33553SOL     OW 2665   5.058  10.303   4.319  0.4799  0.0150 -0.8114
33553SOL    HW1 2666   5.090  10.344   4.399  1.0745 -0.5063 -0.7747
33553SOL    HW2 2667   4.981  10.354   4.295 -0.4697 -0.5958  0.7888
33554SOL     OW 2668   6.257   2.512   4.798  0.5326  0.3813 -0.6736
33554SOL    HW1 2669   6.243   2.419   4.818 -0.4222  0.4523 -0.9742
33554SOL    HW2 2670   6.317   2.511   4.723  1.8818  0.0643  0.3569
33555SOL     OW 2671   8.961   6.305   5.108 -0.7765  0.2142  0.3055
33555SOL    HW1 2672   9.051   6.328   5.085 -1.3259  0.8305 -1.4126
33555SOL    HW2 2673   8.966   6.214   5.136  0.2211 -0.1377 -0.9240
33556SOL     OW 2674   9.682   4.471   0.890  1.2148 -0.0786  0.0123
33556SOL    HW1 2675   9.709   4.545   0.945 -0.0051  1.4684 -1.3496
33556SOL    HW2 2676   9.605   4.436   0.933  0.8851  0.4512 -0.1326
33557SOL     OW 2677  10.731   8.175   9.130  0.5964  0.3530  0.1553
33557SOL    HW1 2678  10.672   8.127   9.189  1.7617 -1.7811 -0.3323
33557SOL    HW2 2679  10.684   8.178   9.047 -0.4554  2.1469  0.7673
33558SOL     OW 2680   0.117   7.011   9.681  0.0487  0.3879  0.0892
33558SOL    HW1 2681   0.134   6.945   9.614  0.0600 -0.9141  1.3126
33558SOL    HW2 2682   0.161   7.090   9.650  0.5780 -0.3553 -1.1174
33559SOL     OW 2683   7.493   3.079   4.343  0.4750 -0.0294 -0.3172
33559SOL    HW1 2684   7.581   3.116   4.331  0.2437  0.0523 -2.0843
33559SOL    HW2 2685   7.455   3.080   4.255 -0.4169 -2.2986 -0.0298
33560SOL     OW 2686   8.987   4.658   2.803  0.0732 -0.0221  0.5060
33560SOL    HW1 2687   9.071   4.614   2.792  1.1349  1.4550  2.1176
33560SOL    HW2 2688   9.009   4.751   2.801 -1.8962  0.4792 -1.4037
33561SOL     OW 2689   6.456   0.684   6.343  0.1737  0.0966 -0.2297
33561SOL    HW1 2690   6.547   0.709   6.334  0.7067 -1.9158 -1.0219
33561SOL    HW2 2691   6.442   0.617   6.276 -1.5717 -0.4518  0.5997
33562SOL     OW 2692   6.559   0.698   6.030 -0.2937 -0.0672  0.4870
33562SOL    HW1 2693   6.521   0.624   6.077 -0.0857  0.2919  1.2331
33562SOL    HW2 2694   6.653   0.692   6.046 -0.0992 -0.4717 -0.6628
33563SOL     OW 2695   3.222   8.133   4.361  0.0198  0.5297  0.7030
33563SOL    HW1 2696   3.275   8.086   4.424  0.5616  1.0793  0.6612
33563SOL    HW2 2697   3.282   8.155   4.290 -0.6915 -0.5529 -0.2775
33564SOL     OW 2698   6.744   1.126   4.861  0.1714  0.4273  0.0512
33564SOL    HW1 2699   6.802   1.201   4.856 -3.7632  3.7781 -1.6035
33564SOL    HW2 2700   6.748   1.087   4.774  1.3207 -0.5874  0.5415
33565SOL     OW 2701   9.590   4.864   5.889  0.0424  0.5415  0.4231
33565SOL    HW1 2702   9.603   4.948   5.845 -0.9815  0.8249  0.6284
33565SOL    HW2 2703   9.556   4.806   5.821 -1.3340  0.9202  0.7386
33566SOL     OW 2704   6.369  10.809   9.382  0.5374  0.1615  0.5877
33566SOL    HW1 2705   6.313  10.737   9.411 -0.3671  0.2448 -0.8364
33566SOL    HW2 2706   6.444  10.767   9.341  0.3438  0.0330  0.3665
33567SOL     OW 2707   8.941   3.278   0.731  0.3830 -0.1427 -0.0035
33567SOL    HW1 2708   8.888   3.226   0.671  0.8027 -2.0055  1.1790
33567SOL    HW2 2709   9.002   3.216   0.770  2.8296  1.7488 -0.5811
33568SOL     OW 2710   1.523   4.714   5.094  0.0415  0.1402 -0.0680
33568SOL    HW1 2711   1.506   4.746   5.006 -1.5531 -2.5185 -0.8138
33568SOL    HW2 2712   1.438   4.723   5.139  0.7503  1.1547  1.1455
33569SOL     OW 2713   9.277  10.693   9.870  0.3377  0.1461 -0.3647
33569SOL    HW1 2714   9.237  10.610   9.898 -0.6376  0.5329 -0.5656
33569SOL    HW2 2715   9.239  10.710   9.784 -1.7032  2.2008  0.8386
33570SOL     OW 2716   1.421   1.462   6.530 -0.4603  0.3400  1.2101
33570SOL    HW1 2717   1.495   1.490   6.584  0.7045 -2.0418  0.9587
33570SOL    HW2 2718   1.421   1.366   6.537 -0.9800 -0.0152 -2.0568
33571SOL     OW 2719   1.458  10.447   2.028 -0.2426 -0.7756 -0.3508
33571SOL    HW1 2720   1.434  10.511   1.962 -0.6331 -0.1381  0.3949
33571SOL    HW2 2721   1.521  10.492   2.084 -0.8185 -0.8937  0.4126
33572SOL     OW 2722   8.675   5.714   2.934 -0.3504  0.0589 -0.0637
33572SOL    HW1 2723   8.624   5.720   2.853 -0.2164  0.3229 -0.1262
33572SOL    HW2 2724   8.648   5.630   2.972  1.6334 -1.4414 -1.7707
33573SOL     OW 2725   1.415   1.190  10.982 -0.1440 -0.3553  0.8336
33573SOL    HW1 2726   1.375   1.215  10.899 -1.7189 -0.2585  1.5786
33573SOL    HW2 2727   1.508   1.212  10.972 -0.4281  0.2746 -0.6492
33574SOL     OW 2728   4.521   7.517   2.937  0.2447  0.3069  0.0577
33574SOL    HW1 2729   4.522   7.422   2.932  0.6770  0.2471  0.9920
33574SOL    HW2 2730   4.614   7.543   2.933  0.1824  0.6302  0.5815
33575SOL     OW 2731   7.736   9.157   7.706  0.1794  0.2965  0.5255
33575SOL    HW1 2732   7.642   9.137   7.709  0.3292 -0.6964 -0.5736
33575SOL    HW2 2733   7.762   9.136   7.616  0.9035  3.1726 -0.0612
33576SOL     OW 2734   7.458   1.885   5.629  0.2544 -0.4303  0.3772
33576SOL    HW1 2735   7.541   1.841   5.613 -0.5086 -1.1275 -1.9834
33576SOL    HW2 2736   7.411   1.881   5.546 -2.2897 -0.3253  1.6942
33577SOL     OW 2737   2.549  10.270   5.200 -0.5311 -0.2068  0.0763
33577SOL    HW1 2738   2.513  10.184   5.179 -0.2885 -0.2926  0.0079
33577SOL    HW2 2739   2.514  10.291   5.286 -0.4938 -0.4281  0.1451
33578SOL     OW 2740   0.146   4.401   2.787 -0.3040 -0.0643 -0.0957
33578SOL    HW1 2741   0.210   4.456   2.832 -0.2386  1.0500 -1.4537
33578SOL    HW2 2742   0.106   4.460   2.722 -0.0350 -1.6952 -1.8025
33579SOL     OW 2743   8.413   6.863   1.495  0.5948  0.0440  0.2153
33579SOL    HW1 2744   8.432   6.817   1.576  1.9885 -0.8121 -0.5550
33579SOL    HW2 2745   8.389   6.951   1.522 -2.2409 -1.1000  1.7352
33580SOL     OW 2746   9.651   3.063   6.836  0.4188  0.4775  0.4346
33580SOL    HW1 2747   9.640   3.158   6.834  1.2155  0.6150  1.7308
33580SOL    HW2 2748   9.594   3.034   6.907 -2.5668 -0.4765 -2.1257
33581SOL     OW 2749  10.456   2.127   9.091 -0.4424 -0.2238 -0.8427
33581SOL    HW1 2750  10.429   2.144   9.001  1.1032 -0.5119 -1.4009
33581SOL    HW2 2751  10.426   2.038   9.108 -1.4356  0.1165 -0.7850
33582SOL     OW 2752   8.038   3.146   5.964 -0.6482  0.1258  0.8503
33582SOL    HW1 2753   8.082   3.225   5.995  0.1834 -0.4163  1.0638
33582SOL    HW2 2754   8.008   3.102   6.044 -0.7170 -0.0071  0.7529
33583SOL     OW 2755   7.802  10.059   7.106  0.2057 -0.4137 -1.3015
33583SOL    HW1 2756   7.866  10.109   7.056  1.3575 -1.1722 -0.6500
33583SOL    HW2 2757   7.829   9.968   7.095  0.7554 -0.5971  0.9327
33584SOL     OW 2758   1.325   3.762   7.611 -0.8167  1.0347  0.2541
33584SOL    HW1 2759   1.258   3.808   7.560 -1.1373 -1.4165 -1.7475
33584SOL    HW2 2760   1.407   3.781   7.565 -0.9195 -0.1309 -0.4447
33585SOL     OW 2761   3.794   7.968   7.196  0.4488  0.0793 -0.4399
33585SOL    HW1 2762   3.763   8.045   7.243 -0.2678 -0.8709  0.6855
33585SOL    HW2 2763   3.889   7.980   7.190  0.3944  0.8357  0.0984
33586SOL     OW 2764   2.515   1.817   8.503  0.3555  0.2684  0.7698
33586SOL    HW1 2765   2.533   1.908   8.526 -0.5870  0.7160 -0.1816
33586SOL    HW2 2766   2.601   1.775   8.500  0.8622  1.3070  0.4382
33587SOL     OW 2767   6.556   4.277   4.130 -0.3676 -0.0029 -0.3995
33587SOL    HW1 2768   6.500   4.346   4.093 -2.2224 -0.7497  0.8489
33587SOL    HW2 2769   6.496   4.223   4.181  1.2548 -1.8232 -0.3064
33588SOL     OW 2770   6.579   1.643   1.587 -0.4686 -0.2323  0.1798
33588SOL    HW1 2771   6.674   1.649   1.584 -0.0420 -4.2896 -2.0510
33588SOL    HW2 2772   6.549   1.732   1.606  3.6982  1.1915  1.0257
33589SOL     OW 2773   6.831   5.908   2.204  0.0098  0.0244 -0.3791
33589SOL    HW1 2774   6.782   5.828   2.224  0.8590 -0.6089 -0.7131
33589SOL    HW2 2775   6.836   5.955   2.286  1.1178 -1.2043  0.3024
33590SOL     OW 2776   2.901   7.115   6.792 -0.7670 -0.5403 -0.0564
33590SOL    HW1 2777   2.882   7.207   6.811 -0.5045 -0.6924  1.0287
33590SOL    HW2 2778   2.993   7.115   6.768 -1.3787 -0.1730 -2.7196
33591SOL     OW 2779   7.598   1.175   7.285  0.1357  0.9372 -0.0333
33591SOL    HW1 2780   7.653   1.180   7.363  0.1301 -0.4088  0.0834
33591SOL    HW2 2781   7.566   1.265   7.272 -0.3963  1.0751  1.8939
33592SOL     OW 2782   7.262   6.473   1.176  0.3392  0.1529  0.1118
33592SOL    HW1 2783   7.234   6.506   1.262  3.4501 -0.2904  1.4490
33592SOL    HW2 2784   7.242   6.379   1.179 -0.4157  0.3107 -0.0264
33593SOL     OW 2785   4.296   7.541   7.752  0.8816 -0.0544  0.0608
33593SOL    HW1 2786   4.240   7.581   7.685  3.1830  0.5881 -1.5858
33593SOL    HW2 2787   4.259   7.453   7.764 -0.7421  0.4995 -0.6051
33594SOL     OW 2788   8.678   4.531   0.566 -0.5701  0.2550 -0.1193
33594SOL    HW1 2789   8.644   4.579   0.490 -0.1277  0.9343  0.0978
33594SOL    HW2 2790   8.708   4.599   0.625  0.3820 -0.3018  0.0609
33595SOL     OW 2791  10.140   7.748   0.653  0.3556  0.4712  0.1379
33595SOL    HW1 2792  10.234   7.766   0.656  0.1544  1.5301  0.4008
33595SOL    HW2 2793  10.131   7.661   0.692  1.4161 -0.4579 -1.5548
33596SOL     OW 2794   7.775   4.029   7.238  0.3372 -0.3532  0.5695
33596SOL    HW1 2795   7.795   4.072   7.155  1.1173 -0.1873  0.8348
33596SOL    HW2 2796   7.806   3.940   7.227 -0.5913 -0.6554  0.2899
33597SOL     OW 2797   1.701   3.351  10.653  0.2740  0.3198  0.0221
33597SOL    HW1 2798   1.658   3.332  10.737  0.1894 -1.0568 -0.2951
33597SOL    HW2 2799   1.747   3.270  10.632 -1.1988 -0.0595 -2.1377
33598SOL     OW 2800   1.391   2.527   3.943  0.1493  0.0776 -0.1679
33598SOL    HW1 2801   1.481   2.521   3.913 -0.3235 -0.8001 -1.4808
33598SOL    HW2 2802   1.348   2.584   3.879 -0.6936 -1.1601 -0.7266
33599SOL     OW 2803   7.095   5.170  10.608  0.0305 -0.8694  0.0977
33599SOL    HW1 2804   7.041   5.240  10.646  0.7501 -0.0669 -0.3245
33599SOL    HW2 2805   7.127   5.121  10.684  1.0566  0.4214  0.5330
33600SOL     OW 2806   7.239   1.337   5.704  0.9162 -0.2379 -0.4138
33600SOL    HW1 2807   7.152   1.299   5.720  1.4821 -2.3134 -1.7665
33600SOL    HW2 2808   7.222   1.415   5.652 -0.2630  0.8911  1.5600
33601SOL     OW 2809   2.444   1.351   9.775  0.0434  0.6900  0.3846
33601SOL    HW1 2810   2.471   1.435   9.738 -1.2483  2.3353  2.8283
33601SOL    HW2 2811   2.353   1.365   9.801 -0.8401 -2.1550 -0.8176
33602SOL     OW 2812   6.560   4.307   5.175  0.5902  0.3200 -0.1208
33602SOL    HW1 2813   6.632   4.247   5.194  0.7495  0.4803 -0.2127
33602SOL    HW2 2814   6.602   4.383   5.136  0.3432  0.3049 -0.4179
33603SOL     OW 2815   0.448   6.924   9.529  0.7234  0.5061 -0.1265
33603SOL    HW1 2816   0.412   6.915   9.617 -0.8005  2.1658 -0.5355
33603SOL    HW2 2817   0.543   6.925   9.543  0.5934 -1.1747  1.2634
33604SOL     OW 2818   1.847   6.003   8.787 -0.0460  0.2275  0.5089
33604SOL    HW1 2819   1.883   6.075   8.736 -2.4645  1.3135  0.2223
33604SOL    HW2 2820   1.802   5.948   8.723 -0.6695  0.0341  1.1011
33605SOL     OW 2821   3.639   9.041  10.329  0.1608  0.1022  0.3652
33605SOL    HW1 2822   3.575   8.999  10.271  0.6941 -0.4561  0.1669
33605SOL    HW2 2823   3.657   9.125  10.286 -1.0438  0.6408  0.8535
33606SOL     OW 2824  11.007   6.531   0.739 -0.1314  0.0740  0.1694
33606SOL    HW1 2825  11.033   6.554   0.828  2.2139  0.0694 -0.4578
33606SOL    HW2 2826  11.019   6.612   0.689 -1.2924  0.0376 -0.2012
33607SOL     OW 2827   0.308   8.230   6.537 -0.5672  0.4961 -0.9366
33607SOL    HW1 2828   0.279   8.289   6.467  1.2088  2.1574 -0.3648
33607SOL    HW2 2829   0.252   8.152   6.528  0.7940 -0.2804 -5.4981
33608SOL     OW 2830   3.912   4.049   8.617  0.5403  0.3646 -0.2206
33608SOL    HW1 2831   3.959   4.100   8.683  0.5113 -2.5852  2.2563
33608SOL    HW2 2832   3.979   4.023   8.554  1.1386  0.8133  0.2172
33609SOL     OW 2833   8.111   4.839   6.066  0.0082  0.0761  0.2544
33609SOL    HW1 2834   8.068   4.902   6.124  0.5373 -0.4146  1.2057
33609SOL    HW2 2835   8.171   4.791   6.124 -0.2115 -1.1297 -0.5002
33610SOL     OW 2836   1.037   0.847  10.523 -0.2161  0.7938  0.3152
33610SOL    HW1 2837   1.110   0.890  10.568  0.4275 -0.5339  0.5797
33610SOL    HW2 2838   0.969   0.914  10.519  0.3398  1.4773  1.7129
33611SOL     OW 2839   1.785   6.997   2.759  0.2177 -0.2494 -0.3759
33611SOL    HW1 2840   1.875   7.012   2.787  0.5892 -1.1064 -1.0682
33611SOL    HW2 2841   1.789   6.995   2.664 -0.9610  2.2221 -0.5533
33612SOL     OW 2842   0.534   4.745  10.736 -0.5637 -0.2877  0.1434
33612SOL    HW1 2843   0.572   4.664  10.771  0.9446 -0.1753 -1.1343
33612SOL    HW2 2844   0.605   4.810  10.744 -0.1351 -0.2489 -2.9784
33613SOL     OW 2845   6.613   6.708   7.959 -0.2359 -0.2934  0.9500
33613SOL    HW1 2846   6.599   6.616   7.982 -0.9354 -0.7471 -1.0584
33613SOL    HW2 2847   6.642   6.705   7.867 -0.7610  1.5144  0.6871
33614SOL     OW 2848   1.370   9.373   7.440  0.8771  0.4930 -0.0534
33614SOL    HW1 2849   1.326   9.288   7.445  0.0753  0.8626 -0.6749
33614SOL    HW2 2850   1.418   9.379   7.522 -0.7373  0.3404  0.9493
33615SOL     OW 2851   7.654  10.514   8.930 -0.3848  0.1432  0.0161
33615SOL    HW1 2852   7.671  10.501   9.023 -0.0982 -1.0335 -0.1815
33615SOL    HW2 2853   7.559  10.510   8.922 -0.3916 -0.1516  0.2132
33616SOL     OW 2854   5.370   5.347   4.357 -0.3462  0.1986  0.3259
33616SOL    HW1 2855   5.396   5.261   4.324  0.0096  1.1990 -2.1972
33616SOL    HW2 2856   5.448   5.379   4.403  0.1271 -0.0912 -0.2680
33617SOL     OW 2857   8.014   3.739   5.283 -0.0686 -0.4826 -0.1747
33617SOL    HW1 2858   7.927   3.701   5.268 -0.8902  1.3494 -0.2635
33617SOL    HW2 2859   8.007   3.828   5.250  1.2690  0.3141  1.5727
33618SOL     OW 2860  10.351   9.130   6.963  0.1233 -0.3293  0.2435
33618SOL    HW1 2861  10.435   9.143   6.918 -0.7299 -0.2388 -1.3865
33618SOL    HW2 2862  10.373   9.135   7.056  2.3448 -2.7335 -0.0380
33619SOL     OW 2863   0.503   5.033   7.735 -0.5252  0.3072  0.2483
33619SOL    HW1 2864   0.428   5.051   7.678 -0.8004  0.0003  0.5014
33619SOL    HW2 2865   0.463   5.011   7.820 -0.1611 -0.1286  0.3105
33620SOL     OW 2866   0.971   3.620   0.178 -0.3952  0.6084 -0.2447
33620SOL    HW1 2867   0.944   3.567   0.102 -3.2004  0.6984  0.5667
33620SOL    HW2 2868   0.944   3.569   0.254  2.2652  0.5787  0.7808
33621SOL     OW 2869   1.400   6.377   0.150  0.4199  0.4025  0.5885
33621SOL    HW1 2870   1.323   6.342   0.195 -0.3202 -0.8852 -1.5556
33621SOL    HW2 2871   1.471   6.319   0.176  0.4610  0.9316  1.7079
33622SOL     OW 2872   2.022   3.129  10.853 -0.6419  0.2334  0.1406
33622SOL    HW1 2873   2.008   3.070  10.927  1.0472  2.0807  2.0732
33622SOL    HW2 2874   2.110   3.108  10.823  0.2338  2.0637  1.2530
33623SOL     OW 2875   1.189   6.505   2.961 -0.6666  0.0382  0.3425
33623SOL    HW1 2876   1.274   6.462   2.969 -0.3372  0.7462  0.8520
33623SOL    HW2 2877   1.148   6.494   3.047 -0.7549  0.3629  0.3442
33624SOL     OW 2878   4.754   1.172   6.298 -0.2451 -0.0561  0.2334
33624SOL    HW1 2879   4.717   1.120   6.226 -1.2715  0.4140  0.4001
33624SOL    HW2 2880   4.804   1.240   6.254 -1.4240  0.6408 -0.0909
33625SOL     OW 2881   9.978   5.913   8.806  0.1928  0.4178 -0.1060
33625SOL    HW1 2882  10.014   6.001   8.798  0.2431  0.3145 -1.2231
33625SOL    HW2 2883  10.054   5.855   8.800 -0.1111  0.1892 -2.7577
33626SOL     OW 2884   6.721   4.911   7.735  0.5676 -0.6101  0.4695
33626SOL    HW1 2885   6.679   4.991   7.704 -1.1227 -1.7973 -0.4561
33626SOL    HW2 2886   6.814   4.924   7.716 -0.1057 -0.4038 -3.2878
33627SOL     OW 2887  10.693   6.893   7.466  0.5967 -0.4048 -0.1877
33627SOL    HW1 2888  10.737   6.824   7.416 -0.7597 -0.9707 -0.6669
33627SOL    HW2 2889  10.633   6.933   7.403  0.6780  0.5883  0.3430
33628SOL     OW 2890   0.646   6.448   8.415  0.4806 -0.3537  0.3403
33628SOL    HW1 2891   0.738   6.421   8.417  0.8810  0.6877 -1.6251
33628SOL    HW2 2892   0.598   6.373   8.451  2.0773 -0.9070  1.3974
33629SOL     OW 2893   1.231   4.044   2.778 -0.3403 -0.0253 -0.2397
33629SOL    HW1 2894   1.314   4.091   2.773 -0.6365  0.5933  0.3573
33629SOL    HW2 2895   1.255   3.953   2.795  0.2117  0.5769  2.8464
33630SOL     OW 2896   1.178   6.572   8.015 -0.3057  0.7422 -0.4011
33630SOL    HW1 2897   1.157   6.656   7.976 -3.0082  1.3677  2.0628
33630SOL    HW2 2898   1.249   6.591   8.076 -0.6582  1.1710 -0.1198
33631SOL     OW 2899   2.404   2.133   2.031  0.0655  0.3109  0.2175
33631SOL    HW1 2900   2.415   2.223   2.062  0.3504  1.5563 -3.0568
33631SOL    HW2 2901   2.311   2.127   2.009  0.1351 -0.0383  0.0198
33632SOL     OW 2902   6.661   3.429   2.932 -0.0480  0.0741  0.0055
33632SOL    HW1 2903   6.599   3.490   2.892  1.6930  0.5877 -2.1106
33632SOL    HW2 2904   6.619   3.343   2.922 -0.7934  0.4987 -0.6250
33633SOL     OW 2905   4.333   3.451   3.550  0.0014 -0.0692 -0.5388
33633SOL    HW1 2906   4.333   3.540   3.586  0.9146 -0.2743  0.0004
33633SOL    HW2 2907   4.371   3.460   3.463  0.1638  0.0528 -0.4545
33634SOL     OW 2908   3.380   7.668   3.269  0.5361 -0.2009 -0.2296
33634SOL    HW1 2909   3.356   7.637   3.182 -1.5628 -1.3633  0.6779
33634SOL    HW2 2910   3.345   7.758   3.273 -0.5443 -0.6041 -0.1850
33635SOL     OW 2911   0.976   4.795   6.896  0.4750  0.2179 -0.1319
33635SOL    HW1 2912   1.010   4.707   6.879  0.9503  0.7921 -2.6069
33635SOL    HW2 2913   0.885   4.792   6.867  0.6108  0.6324 -0.6197
33636SOL     OW 2914  10.682   1.742   6.830  0.8341  0.3299  0.3867
33636SOL    HW1 2915  10.629   1.822   6.833 -0.7625 -0.6266 -0.7205
33636SOL    HW2 2916  10.751   1.761   6.766 -0.6751  0.2025 -1.3481
33637SOL     OW 2917   7.256   5.895   8.625  0.2080 -0.3092  0.0345
33637SOL    HW1 2918   7.292   5.916   8.711 -2.0242  0.2746  0.8796
33637SOL    HW2 2919   7.244   5.800   8.627  0.2386 -0.3092  0.3434
33638SOL     OW 2920   1.550   2.455   9.926 -0.4670 -0.5725 -0.5903
33638SOL    HW1 2921   1.637   2.454   9.887 -0.7755  1.5354 -1.4535
33638SOL    HW2 2922   1.563   2.420  10.014  0.6530 -3.2530 -1.7208
33639SOL     OW 2923  10.159   3.334  10.768 -0.2298 -0.7577 -0.3634
33639SOL    HW1 2924  10.226   3.268  10.783 -0.4358 -0.6916  0.8792
33639SOL    HW2 2925  10.154   3.383  10.850 -0.3587  0.5569 -1.1204
33640SOL     OW 2926   2.150   9.751   3.743  0.2657  0.1350  0.2758
33640SOL    HW1 2927   2.058   9.736   3.725  0.3324  1.0219 -0.9054
33640SOL    HW2 2928   2.193   9.669   3.717 -0.2677 -0.7416  1.9485
33641SOL     OW 2929   6.535   8.416   5.894  0.6345 -0.6485  0.2570
33641SOL    HW1 2930   6.544   8.505   5.929  1.7942 -0.9352  0.7235
33641SOL    HW2 2931   6.529   8.428   5.799  2.3078 -0.1459  0.1880
33642SOL     OW 2932   0.236   4.567   9.667  0.4518  0.2745  0.4190
33642SOL    HW1 2933   0.238   4.472   9.655  0.8887  0.1770  1.2099
33642SOL    HW2 2934   0.180   4.598   9.596  0.7662 -0.5136 -0.1990
33643SOL     OW 2935   3.746   4.065   1.401  0.9960 -0.6196  0.7908
33643SOL    HW1 2936   3.815   4.072   1.467  1.2888 -2.2846  0.6879
33643SOL    HW2 2937   3.667   4.094   1.447  1.4634 -0.2793  1.4014
33644SOL     OW 2938   1.850   5.805   9.008 -0.8019 -0.1305 -0.0160
33644SOL    HW1 2939   1.870   5.764   9.092  1.3987  0.0783 -0.3808
33644SOL    HW2 2940   1.755   5.806   9.004 -0.9578 -0.6402  2.2271
33645SOL     OW 2941   0.425  10.601   7.089 -0.3931  0.1142 -0.1006
33645SOL    HW1 2942   0.496  10.550   7.049  0.1074 -0.4978  1.4843
33645SOL    HW2 2943   0.380  10.538   7.146  1.5598  1.7545  3.6329
33646SOL     OW 2944   9.841   5.057   1.778 -0.2553  0.5228  0.0354
33646SOL    HW1 2945   9.804   5.133   1.823  0.9602  1.5073 -0.5617
33646SOL    HW2 2946   9.902   5.018   1.842 -2.8309 -1.6559  1.3725
33647SOL     OW 2947   9.532   3.751   1.845  0.4906 -0.0666 -0.2045
33647SOL    HW1 2948   9.598   3.820   1.838  1.4569  0.2800  6.3516
33647SOL    HW2 2949   9.582   3.670   1.852 -0.1158 -0.4570 -0.3316
33648SOL     OW 2950   2.919   9.219   6.410  0.0582  0.1342 -0.7625
33648SOL    HW1 2951   2.919   9.252   6.500 -1.3636  0.2901 -0.7972
33648SOL    HW2 2952   2.966   9.286   6.360  2.0032 -0.5656  0.0364
33649SOL     OW 2953   7.865   9.065   2.859  0.4079 -0.6506  0.2563
33649SOL    HW1 2954   7.958   9.082   2.844  0.2156  1.2959  0.9173
33649SOL    HW2 2955   7.857   9.060   2.954 -0.1965 -0.5929  0.2128
33650SOL     OW 2956   0.889   9.166   6.134 -0.1175 -0.6514  0.1085
33650SOL    HW1 2957   0.891   9.182   6.228  0.5016  0.2275 -0.0456
33650SOL    HW2 2958   0.973   9.124   6.115  2.2573  3.8961 -0.8072
33651SOL     OW 2959   0.623   8.012   6.821  0.3351 -0.5310  0.3970
33651SOL    HW1 2960   0.689   7.950   6.793  1.1631  0.4106  0.2008
33651SOL    HW2 2961   0.597   8.059   6.742 -0.7919 -1.0883  0.4205
33652SOL     OW 2962   9.679   0.689   5.262  0.4252  0.2987 -0.7032
33652SOL    HW1 2963   9.643   0.602   5.278 -1.8341  1.1863 -0.6238
33652SOL    HW2 2964   9.748   0.675   5.196 -0.2236 -1.4643 -1.0533
33653SOL     OW 2965   9.770   4.137   8.931  0.3005 -0.3514  0.5112
33653SOL    HW1 2966   9.679   4.168   8.935  0.8389  1.7482 -1.3156
33653SOL    HW2 2967   9.786   4.124   8.838  1.9675 -0.3456  0.7749
33654SOL     OW 2968   1.015   7.955   6.454  0.1000 -0.4961 -0.4267
33654SOL    HW1 2969   0.949   8.013   6.417 -1.5763 -1.6439  0.6245
33654SOL    HW2 2970   1.072   8.012   6.505  0.0044  0.5378 -1.4492
33655SOL     OW 2971  10.043   9.764   3.809  0.1123 -0.3545  0.5101
33655SOL    HW1 2972   9.955   9.727   3.801  0.4734 -1.5147  1.5368
33655SOL    HW2 2973  10.029   9.859   3.812 -0.8047 -0.2764 -2.7767
33656SOL     OW 2974  11.001   4.468   1.384 -0.4290  0.0260  0.2273
33656SOL    HW1 2975  11.026   4.551   1.343 -0.3572  0.9443  2.0478
33656SOL    HW2 2976  10.909   4.480   1.408  0.1579  0.4772  2.4757
33657SOL     OW 2977   4.983   7.865   7.682 -0.7907  0.0087  0.0935
33657SOL    HW1 2978   4.966   7.853   7.589 -0.2178 -1.9254  0.1782
33657SOL    HW2 2979   5.071   7.902   7.686  0.1338 -2.0157 -0.1531
33658SOL     OW 2980   1.870   6.893   3.803  0.2274  0.3491  0.0709
33658SOL    HW1 2981   1.924   6.892   3.882  1.4248 -0.0221 -0.7284
33658SOL    HW2 2982   1.898   6.815   3.754 -0.7030  0.4167 -0.5903
33659SOL     OW 2983   1.961   3.747   8.837 -0.5324 -0.4564 -0.1390
33659SOL    HW1 2984   2.019   3.719   8.766  0.1956  1.6935 -0.4636
33659SOL    HW2 2985   2.007   3.821   8.877 -0.9161 -1.6153  2.6317
33660SOL     OW 2986   4.240   9.746   5.211  0.1797  0.1653 -0.3690
33660SOL    HW1 2987   4.147   9.761   5.194 -0.1361 -1.3813 -0.1979
33660SOL    HW2 2988   4.241   9.671   5.271  1.5565 -0.2552 -0.8799
33661SOL     OW 2989   5.237   0.267   8.863  0.0782 -0.4043 -0.3390
33661SOL    HW1 2990   5.182   0.328   8.814  1.5716  1.3025 -0.0132
33661SOL    HW2 2991   5.289   0.223   8.796  0.4128  0.1682 -0.4638
33662SOL     OW 2992   0.991   7.316   8.889 -0.0520 -0.1942  0.3803
33662SOL    HW1 2993   1.013   7.273   8.972 -2.4780 -1.0823  0.6598
33662SOL    HW2 2994   0.962   7.244   8.832 -2.4961  0.8063  0.2496
33663SOL     OW 2995   0.443  10.778   1.307 -0.8890  0.0076  0.2226
33663SOL    HW1 2996   0.521  10.832   1.320 -1.3712  0.2228  2.7370
33663SOL    HW2 2997   0.389  10.828   1.245 -0.3933  1.3731  0.8621
33664SOL     OW 2998   1.267  10.518   9.275  0.1787  0.1774 -0.3013
33664SOL    HW1 2999   1.281  10.557   9.361 -3.0425 -0.4471  0.6362
33664SOL    HW2 3000   1.221  10.586   9.225 -0.4378 -0.4072 -0.5530
33665SOL     OW 3001   4.142  10.178   1.132  0.2856  0.9209  0.7120
33665SOL    HW1 3002   4.188  10.192   1.049  0.6496  1.9322  1.0738
33665SOL    HW2 3003   4.201  10.122   1.182  0.1086  0.3850  0.3337
33666SOL     OW 3004   3.088   3.893   3.411 -0.0206  0.2599 -0.2432
33666SOL    HW1 3005   3.088   3.925   3.501  0.7508 -1.8662  0.5883
33666SOL    HW2 3006   3.179   3.868   3.395 -0.5026 -1.1686 -0.9156
33667SOL     OW 3007   7.385   9.597   0.006 -0.3660 -0.6259  0.1778
33667SOL    HW1 3008   7.373   9.505   0.028  1.3091 -0.9254 -0.0185
33667SOL    HW2 3009   7.418   9.637   0.087  3.6143 -1.2717 -0.8811
33668SOL     OW 3010   0.696   8.821  10.717  0.3697 -0.9432 -0.0989
33668SOL    HW1 3011   0.774   8.829  10.662 -0.5689 -0.5885 -1.4319
33668SOL    HW2 3012   0.650   8.905  10.706 -0.1102 -1.0661  0.8275
33669SOL     OW 3013  10.352  10.525   4.321 -0.2207 -0.2514 -0.2210
33669SOL    HW1 3014  10.291  10.544   4.249 -1.3503 -2.5530  0.0190
33669SOL    HW2 3015  10.296  10.490   4.391  0.9187  1.4762  1.6382
33670SOL     OW 3016   4.645   9.069   1.166 -0.0333 -0.4283  0.0650
33670SOL    HW1 3017   4.557   9.106   1.163 -1.2189 -2.8486  1.4589
33670SOL    HW2 3018   4.632   8.975   1.156  2.1321 -1.1026  2.4618
33671SOL     OW 3019   0.191   4.612   1.585  0.3303 -0.3443 -0.1622
33671SOL    HW1 3020   0.146   4.689   1.619 -0.0751  0.3728 -2.2053
33671SOL    HW2 3021   0.239   4.577   1.660 -3.9131 -1.4805  2.3311
33672SOL     OW 3022   5.301   1.512   0.320 -0.2089 -0.0861 -0.1294
33672SOL    HW1 3023   5.283   1.475   0.233 -0.4625  1.1226 -0.6037
33672SOL    HW2 3024   5.383   1.470   0.347  0.3615  0.2027 -1.3452
33673SOL     OW 3025   2.217   6.387   8.543  0.0331 -0.3635  0.6640
33673SOL    HW1 3026   2.132   6.406   8.504  0.6031  0.1783 -0.3568
33673SOL    HW2 3027   2.256   6.320   8.486  2.0663  2.4341 -1.5587
33674SOL     OW 3028   0.508   2.797   0.025  0.0179 -0.0446  0.2958
33674SOL    HW1 3029   0.464   2.846   0.096 -0.1726  1.1049 -0.5889
33674SOL    HW2 3030   0.445   2.728   0.002  0.2897 -0.7505  1.5657
33675SOL     OW 3031  10.491   0.042   3.363 -0.6211  0.2139 -0.4821
33675SOL    HW1 3032  10.453   0.029   3.276  0.9911  1.1213 -1.3688
33675SOL    HW2 3033  10.531  -0.042   3.385  1.5859  0.8063 -1.9977
33676SOL     OW 3034   8.907   6.016   5.123  0.6510  0.0184  0.0243
33676SOL    HW1 3035   8.937   6.019   5.032  1.6211 -0.7864  0.2995
33676SOL    HW2 3036   8.893   5.924   5.141  0.5955  0.1583  0.7281
33677SOL     OW 3037   7.600   2.260   7.829  0.1555 -0.4357  0.2621
33677SOL    HW1 3038   7.682   2.295   7.866  1.8941 -1.3934 -2.3820
33677SOL    HW2 3039   7.604   2.166   7.847 -0.3863 -0.4825  0.1550
33678SOL     OW 3040  10.970   9.903   7.308  0.4488 -0.1928  0.2923
33678SOL    HW1 3041  11.025   9.960   7.362  0.0381  0.3038  0.1884
33678SOL    HW2 3042  11.028   9.875   7.237  0.9663 -0.7828  0.9372
33679SOL     OW 3043   4.947   8.613   3.683 -0.0183 -0.2312  0.2579
33679SOL    HW1 3044   4.991   8.584   3.602  0.7772 -1.6076  1.1308
33679SOL    HW2 3045   5.012   8.667   3.727  0.2504 -0.9787  0.8091
33680SOL     OW 3046   6.218   4.394   9.205  0.2480 -0.5452  0.0984
33680SOL    HW1 3047   6.310   4.405   9.180  0.4808 -0.0049  1.1256
33680SOL    HW2 3048   6.191   4.481   9.235 -0.8185 -0.5232 -0.8671
33681SOL     OW 3049  10.583   1.545   3.442  0.2615 -0.4360 -0.1834
33681SOL    HW1 3050  10.660   1.591   3.410 -0.6199  0.4305 -1.1586
33681SOL    HW2 3051  10.558   1.592   3.521  1.3234 -1.3789  0.7383
33682SOL     OW 3052   1.146   3.818   9.688  0.4729  0.4413  0.3624
33682SOL    HW1 3053   1.185   3.731   9.674 -0.3353  0.1651 -0.2602
33682SOL    HW2 3054   1.210   3.879   9.649  0.1993 -0.0201 -0.8802
33683SOL     OW 3055   3.736   9.333   2.125  0.3686  0.2367  0.0004
33683SOL    HW1 3056   3.712   9.371   2.210 -0.4383  1.3910 -0.7189
33683SOL    HW2 3057   3.730   9.238   2.139  2.5978  0.2681  1.8933
33684SOL     OW 3058   2.737   6.798   1.905  0.0343  0.3830 -1.0888
33684SOL    HW1 3059   2.695   6.717   1.933 -0.8155  0.7346 -1.3124
33684SOL    HW2 3060   2.731   6.856   1.980  0.2490  0.3884 -1.0754
33685SOL     OW 3061   2.026   5.803   5.382  0.0100  0.2112 -0.0322
33685SOL    HW1 3062   1.998   5.729   5.328 -0.7695  1.0029 -0.7531
33685SOL    HW2 3063   2.053   5.763   5.464  0.4329 -0.9508 -0.7012
33686SOL     OW 3064  11.016   4.882   0.554 -0.4736  0.2442  0.2319
33686SOL    HW1 3065  11.018   4.839   0.468 -1.4852 -0.5345  0.5881
33686SOL    HW2 3066  11.014   4.975   0.533 -1.1667  0.0583 -0.6086
33687SOL     OW 3067   7.297   2.321  10.609 -0.1622 -0.3296  0.4123
33687SOL    HW1 3068   7.356   2.286  10.543 -2.2242 -3.4918  0.0097
33687SOL    HW2 3069   7.211   2.284  10.587 -2.0013  2.6030  1.9576
33688SOL     OW 3070   5.566   6.601   5.204 -0.1277 -0.7401 -0.2868
33688SOL    HW1 3071   5.660   6.610   5.186 -0.0083 -0.9280  0.2124
33688SOL    HW2 3072   5.558   6.624   5.297 -0.5063 -1.1993 -0.2023
33689SOL     OW 3073   1.426  10.047   8.171  0.0806  0.2605 -0.2757
33689SOL    HW1 3074   1.351  10.003   8.130 -0.0110 -0.1458  0.3151
33689SOL    HW2 3075   1.394  10.073   8.257  0.9343 -0.8715  0.4108
33690SOL     OW 3076   9.641   1.637   3.969  0.3106 -0.0016  1.1661
33690SOL    HW1 3077   9.574   1.596   3.914  0.1600 -1.5610  2.4183
33690SOL    HW2 3078   9.624   1.730   3.963 -1.3560 -0.3104  0.6617
33691SOL     OW 3079   4.126   0.356   7.351  0.1439 -0.1596  0.6758
33691SOL    HW1 3080   4.109   0.417   7.423 -0.7150  0.1564  0.2303
33691SOL    HW2 3081   4.111   0.270   7.388  2.5145 -0.2381  1.6431
33692SOL     OW 3082   1.641   6.996   3.872  0.1783 -0.3637  0.5869
33692SOL    HW1 3083   1.727   6.965   3.843  0.0699  0.1949 -0.3774
33692SOL    HW2 3084   1.585   6.987   3.795 -0.1547  1.0728  0.6313
33693SOL     OW 3085   8.480   7.720   8.424 -0.2521 -0.1992  0.3507
33693SOL    HW1 3086   8.494   7.754   8.335 -2.4932 -0.3239 -0.1074
33693SOL    HW2 3087   8.506   7.791   8.482  1.4111 -0.1745 -0.3627
33694SOL     OW 3088   5.242   2.256   7.114  0.4462 -0.7281  0.3096
33694SOL    HW1 3089   5.306   2.201   7.068  0.2449 -1.3954  0.8266
33694SOL    HW2 3090   5.176   2.195   7.146 -1.3044  0.0888 -1.5414
33695SOL     OW 3091   0.853   0.062  10.236  0.1086 -0.4194  0.2991
33695SOL    HW1 3092   0.775   0.114  10.256  0.8254  0.3099  1.2887
33695SOL    HW2 3093   0.908   0.119  10.183  0.0110 -0.9074 -0.3374
33696SOL     OW 3094   6.224   8.379   4.296 -0.2040 -0.7275 -0.6498
33696SOL    HW1 3095   6.283   8.438   4.342 -2.0446  1.0824 -0.4516
33696SOL    HW2 3096   6.167   8.343   4.364 -1.7175  0.4952 -1.1953
33697SOL     OW 3097   9.193   2.268   7.309  0.0455 -0.4885  0.6569
33697SOL    HW1 3098   9.195   2.330   7.382 -0.3035 -1.4442  1.5067
33697SOL    HW2 3099   9.270   2.213   7.322 -0.6219 -1.3848  0.9821
33698SOL     OW 3100   0.504   3.763   9.314  0.2110 -0.2261  0.2353
33698SOL    HW1 3101   0.589   3.798   9.285  0.5470 -1.2488 -0.0567
33698SOL    HW2 3102   0.513   3.668   9.305 -1.2808 -0.3104 -0.6480
33699SOL     OW 3103   9.004   1.515   7.235 -0.0493 -0.1107 -0.1198
33699SOL    HW1 3104   8.979   1.443   7.293 -3.8576  0.9475 -0.1705
33699SOL    HW2 3105   9.064   1.569   7.288  0.4763 -1.7130  0.9758
33700SOL     OW 3106   3.057   5.337   7.018 -0.2587  0.8193  0.4629
33700SOL    HW1 3107   3.068   5.428   7.046 -0.5409  0.6267  1.2079
33700SOL    HW2 3108   3.143   5.311   6.986 -0.4619  1.7264 -0.9166
33701SOL     OW 3109   6.855   9.887   1.393 -0.0582  0.1155  0.1344
33701SOL    HW1 3110   6.880   9.859   1.305 -0.0749 -0.0501  0.1812
33701SOL    HW2 3111   6.790   9.823   1.420 -0.0455  0.1614  0.2713
33702SOL     OW 3112   3.004   8.803   9.451  0.1556 -0.2166  0.4004
33702SOL    HW1 3113   3.035   8.804   9.360 -0.2268  0.4092  0.2674
33702SOL    HW2 3114   2.932   8.740   9.450  0.4865 -0.5998  0.3901
33703SOL     OW 3115   4.864   1.795   8.725 -0.1085 -0.4586  0.1139
33703SOL    HW1 3116   4.881   1.876   8.676 -0.0727  0.2696  1.3009
33703SOL    HW2 3117   4.915   1.728   8.679 -0.2187  0.1599 -0.9473
33704SOL     OW 3118   6.475   7.383  10.271 -0.1309 -0.1514  0.2136
33704SOL    HW1 3119   6.551   7.441  10.275  1.6541 -2.3149 -0.3601
33704SOL    HW2 3120   6.512   7.295  10.266 -2.6826 -1.2782 -0.6698
33705SOL     OW 3121  11.041   8.093   1.217  0.2456 -0.3678  0.4894
33705SOL    HW1 3122  11.080   8.036   1.151 -0.9807 -0.7306  0.0600
33705SOL    HW2 3123  11.115   8.142   1.253  1.3342 -2.2134  0.8773
33706SOL     OW 3124   4.853   0.024   5.322 -0.4043 -0.2843  0.0770
33706SOL    HW1 3125   4.798   0.024   5.243 -1.7164  2.1104  0.8890
33706SOL    HW2 3126   4.892   0.112   5.323  0.7428 -0.7880  1.3463
33707SOL     OW 3127   9.384   5.958   0.190 -0.3975 -0.3225 -0.8506
33707SOL    HW1 3128   9.416   5.901   0.121 -0.2799 -2.6544  1.0034
33707SOL    HW2 3129   9.300   5.920   0.216 -1.5357  1.8214 -1.1529
33708SOL     OW 3130   6.868   4.272   1.603  0.3587  0.2402  0.0359
33708SOL    HW1 3131   6.902   4.183   1.612 -0.8051 -0.3758 -1.3207
33708SOL    HW2 3132   6.838   4.295   1.690  1.8926 -0.1558  0.7095
33709SOL     OW 3133   5.214  10.696   3.088 -0.6818 -0.7038 -0.0806
33709SOL    HW1 3134   5.188  10.661   3.003  0.9056  0.7371 -1.2219
33709SOL    HW2 3135   5.148  10.761   3.109 -1.3229 -1.3753  0.0369
33710SOL     OW 3136   9.809   6.330   4.661 -0.1255 -0.1631  0.4852
33710SOL    HW1 3137   9.827   6.413   4.703  0.8738  0.4302 -1.0507
33710SOL    HW2 3138   9.873   6.323   4.591 -1.9036 -0.9362 -1.1745
33711SOL     OW 3139   8.986   5.976   6.122 -0.3345 -0.0250  0.3370
33711SOL    HW1 3140   9.006   5.894   6.167 -1.9854 -0.2172  0.7720
33711SOL    HW2 3141   8.992   6.043   6.190  1.1122  0.2724 -0.0382
33712SOL     OW 3142  10.493   0.067   4.908 -0.3103  0.0246 -0.3997
33712SOL    HW1 3143  10.561   0.127   4.878 -1.1216  0.9210 -0.4624
33712SOL    HW2 3144  10.503   0.065   5.004  1.0682 -1.3970 -0.5314
33713SOL     OW 3145   0.251   5.998   8.869 -0.3354  0.0576  0.7887
33713SOL    HW1 3146   0.241   6.060   8.942  0.1600 -0.3773  1.2298
33713SOL    HW2 3147   0.308   5.929   8.903 -2.1932 -1.5099  0.8368
33714SOL     OW 3148   7.246   4.105   1.105  0.6370 -0.3870  0.4843
33714SOL    HW1 3149   7.338   4.079   1.102  0.5330 -0.6847 -0.2771
33714SOL    HW2 3150   7.218   4.106   1.014  0.1513  0.6848  0.6306
33715SOL     OW 3151   8.156   9.421   7.258 -0.4698 -0.3663 -0.3940
33715SOL    HW1 3152   8.246   9.434   7.288 -1.3857 -1.8854  3.6585
33715SOL    HW2 3153   8.153   9.329   7.232 -0.7982 -0.2543 -0.7521
33716SOL     OW 3154   5.140   6.423   2.040 -0.2484 -0.7273 -0.3607
33716SOL    HW1 3155   5.065   6.434   2.098  0.0228  2.1642 -0.4126
33716SOL    HW2 3156   5.216   6.426   2.098 -0.0739 -0.6886 -0.5890
33717SOL     OW 3157   3.217   5.888   9.521 -0.0467 -0.2029 -0.1376
33717SOL    HW1 3158   3.146   5.951   9.531  0.8419  0.8140  0.0179
33717SOL    HW2 3159   3.227   5.848   9.607  0.5957  0.8057  0.2708
33718SOL     OW 3160   6.933   3.233   3.562 -0.0877  0.5306  0.1168
33718SOL    HW1 3161   6.941   3.147   3.522  1.1373  0.8529 -0.3465
33718SOL    HW2 3162   6.912   3.215   3.654  1.0138 -0.2858  0.2224
33719SOL     OW 3163  10.499   8.663   5.546 -0.1547 -0.3203 -0.4235
33719SOL    HW1 3164  10.487   8.735   5.484  0.3507  1.8388  1.8189
33719SOL    HW2 3165  10.588   8.632   5.529  0.9941  2.0103  0.8026
33720SOL     OW 3166   4.660   6.100   2.734 -0.3624  0.1538  0.3305
33720SOL    HW1 3167   4.650   6.022   2.789 -0.2529  0.4992  0.8529
33720SOL    HW2 3168   4.571   6.133   2.722 -0.5380 -0.7022 -0.8751
33721SOL     OW 3169   2.364   7.013   3.181 -0.1811  0.4761  0.3275
33721SOL    HW1 3170   2.363   6.929   3.227 -1.9640  0.9448  1.2241
33721SOL    HW2 3171   2.272   7.030   3.160  0.4526  0.6142 -2.9121
33722SOL     OW 3172  10.785   5.854   7.255  0.0208 -0.0357  0.7414
33722SOL    HW1 3173  10.768   5.871   7.162  2.0047  1.1148  0.5029
33722SOL    HW2 3174  10.699   5.852   7.295 -0.8559  0.3755 -0.9891
33723SOL     OW 3175   1.252   9.128   4.813  0.0233  0.7004  0.4392
33723SOL    HW1 3176   1.229   9.037   4.793 -0.3224  0.9036 -0.1214
33723SOL    HW2 3177   1.250   9.132   4.909 -2.1216  0.6309  0.4609
33724SOL     OW 3178   5.224   4.273   2.514  0.2050  0.2017 -0.3474
33724SOL    HW1 3179   5.179   4.332   2.453 -0.2764  0.4931  0.2668
33724SOL    HW2 3180   5.155   4.212   2.542  0.6716 -0.5852 -0.8850
33725SOL     OW 3181   9.639   7.176   1.958 -0.4209  0.0758 -0.4901
33725SOL    HW1 3182   9.581   7.107   1.988 -0.1707 -0.3474 -0.9651
33725SOL    HW2 3183   9.648   7.234   2.034 -2.1640  0.6525 -0.6767
33726SOL     OW 3184   8.694   8.908   3.844  0.3356 -0.6441  0.1375
33726SOL    HW1 3185   8.676   8.982   3.786 -0.1144 -1.1291 -0.3562
33726SOL    HW2 3186   8.754   8.853   3.793  0.2847 -0.8578  0.3103
33727SOL     OW 3187   5.007   3.517   2.059 -0.6810 -0.2264  0.8808
33727SOL    HW1 3188   5.014   3.590   2.120 -0.4087  0.6422 -0.1573
33727SOL    HW2 3189   5.058   3.447   2.100  0.7767  0.8375  0.9504
33728SOL     OW 3190   0.775   2.668   5.319  0.0449 -0.0121 -0.0071
33728SOL    HW1 3191   0.698   2.692   5.370  0.6040  1.3369  0.2245
33728SOL    HW2 3192   0.759   2.577   5.294 -1.2004 -0.0366  0.7956
33729SOL     OW 3193   7.344   6.488   7.198 -0.0751  0.2363 -1.0137
33729SOL    HW1 3194   7.349   6.535   7.115  0.1898 -0.1761 -1.2303
33729SOL    HW2 3195   7.376   6.400   7.179 -1.1661 -0.2327 -0.7575
33730SOL     OW 3196   4.561   5.393   1.672 -0.2910  0.0343  0.6464
33730SOL    HW1 3197   4.646   5.410   1.631 -1.0680  1.7429 -0.3737
33730SOL    HW2 3198   4.506   5.466   1.643 -2.3289 -1.4215  0.6659
33731SOL     OW 3199  10.082   9.895   3.420 -0.2730  0.8213  0.2518
33731SOL    HW1 3200  10.158   9.839   3.436 -1.5225 -0.7694  0.8299
33731SOL    HW2 3201  10.046   9.864   3.337 -0.9054  0.8753  0.5079
33732SOL     OW 3202   5.683   9.833   5.643  0.3350  0.9301 -0.0033
33732SOL    HW1 3203   5.647   9.807   5.728 -1.2418 -1.0362 -1.1944
33732SOL    HW2 3204   5.761   9.778   5.632 -2.1243 -2.5316 -1.8224
33733SOL     OW 3205   6.375   5.614   6.707 -0.0639  0.1942 -0.0310
33733SOL    HW1 3206   6.342   5.564   6.782 -0.1507 -1.1690 -0.9463
33733SOL    HW2 3207   6.302   5.614   6.645 -0.0240  1.3824 -0.0958
33734SOL     OW 3208   9.790   6.604   6.985  0.6179 -0.0780 -0.2539
33734SOL    HW1 3209   9.700   6.584   6.958  0.9736 -0.7553 -0.9605
33734SOL    HW2 3210   9.784   6.619   7.079 -0.2407 -0.0795 -0.3016
33735SOL     OW 3211   7.034   2.274   4.395 -0.2969  0.0801 -0.0349
33735SOL    HW1 3212   6.949   2.317   4.403 -0.7074 -0.7550  0.1395
33735SOL    HW2 3213   7.060   2.291   4.304 -0.2243  1.0930  0.1580
33736SOL     OW 3214   4.904   2.119   9.468 -0.1842 -0.5509  0.2045
33736SOL    HW1 3215   4.972   2.051   9.467 -0.1619 -0.5662  1.3365
33736SOL    HW2 3216   4.828   2.077   9.429 -0.8650 -2.0358  2.8587
33737SOL     OW 3217   8.515   8.813   1.455  0.3110  0.1788  0.1218
33737SOL    HW1 3218   8.582   8.746   1.443  0.0459 -0.1889  0.6619
33737SOL    HW2 3219   8.538   8.855   1.538  1.0301  1.4109 -0.6679
33738SOL     OW 3220   9.639   1.209   1.423  0.1067  0.2957 -0.3712
33738SOL    HW1 3221   9.632   1.234   1.516  0.9824 -0.1571 -0.1709
33738SOL    HW2 3222   9.726   1.170   1.416 -0.5838 -1.1923 -1.0229
33739SOL     OW 3223  10.126  10.112   1.243  0.2339  0.4144 -0.7864
33739SOL    HW1 3224  10.041  10.082   1.210 -0.3920  1.5495 -0.2591
33739SOL    HW2 3225  10.109  10.199   1.278  0.9306 -0.5107  2.1465
33740SOL     OW 3226   6.577   3.101   6.168  0.6974  0.1682  0.4193
33740SOL    HW1 3227   6.622   3.130   6.248  0.6127  1.8607 -0.1187
33740SOL    HW2 3228   6.586   3.005   6.169  3.1822  0.3456  0.9881
33741SOL     OW 3229   5.412   1.680   5.335  0.2860  0.1421 -0.0114
33741SOL    HW1 3230   5.440   1.767   5.366  0.6648 -0.3835  1.1605
33741SOL    HW2 3231   5.491   1.626   5.342  0.5558  0.1015 -2.4463
33742SOL     OW 3232   7.992   2.410   8.583 -0.8484 -0.2375 -0.1346
33742SOL    HW1 3233   8.062   2.344   8.581 -1.1075 -0.5296  0.3279
33742SOL    HW2 3234   8.036   2.492   8.561 -0.5124 -0.5500 -0.6594
33743SOL     OW 3235  10.306   2.736   4.113 -0.1619 -0.4647 -0.4991
33743SOL    HW1 3236  10.264   2.652   4.093  0.5881 -1.0733  0.3771
33743SOL    HW2 3237  10.334   2.727   4.204 -2.2280  1.6529  0.4622
33744SOL     OW 3238   5.378   5.674   9.970 -0.6351 -0.0276  0.1326
33744SOL    HW1 3239   5.430   5.754   9.962 -0.5809 -0.1355 -0.7336
33744SOL    HW2 3240   5.316   5.692  10.041  0.4367  0.1757  1.0356
33745SOL     OW 3241   6.908   2.956   4.716  0.0209  0.7753 -0.0854
33745SOL    HW1 3242   6.853   2.956   4.795 -0.6682  1.0503 -0.5635
33745SOL    HW2 3243   6.923   3.049   4.697 -0.2066  0.7154 -0.5526
33746SOL     OW 3244   2.388   9.224   4.655 -0.1244  0.8356  0.0382
33746SOL    HW1 3245   2.299   9.191   4.650  0.7106 -1.5659 -0.4180
33746SOL    HW2 3246   2.410   9.246   4.564  0.8406 -1.9493 -0.4961
33747SOL     OW 3247   3.918   5.085   1.959  0.1795  0.0373  0.2062
33747SOL    HW1 3248   3.979   5.076   2.031  0.6243  0.5718 -0.0949
33747SOL    HW2 3249   3.837   5.045   1.990  0.9756 -1.6476  0.2311
33748SOL     OW 3250   7.580   7.096   3.430 -0.1816 -0.7879 -0.2214
33748SOL    HW1 3251   7.523   7.129   3.361  1.7590 -2.9214 -3.0642
33748SOL    HW2 3252   7.525   7.033   3.477 -1.4550  0.5154  0.1171
33749SOL     OW 3253   0.938   8.771   5.852  0.2198  0.1843 -0.2723
33749SOL    HW1 3254   1.018   8.718   5.851 -0.8604 -1.5028 -1.6369
33749SOL    HW2 3255   0.950   8.831   5.926  2.1858 -0.8790  0.3346
33750SOL     OW 3256   3.254  10.073   3.505  0.4025  0.4070  0.1184
33750SOL    HW1 3257   3.307   9.997   3.481 -1.3527 -0.6510 -0.6051
33750SOL    HW2 3258   3.282  10.094   3.595 -0.1193 -2.1013  0.9528
33751SOL     OW 3259  10.201  10.488   3.706 -0.2983  0.1212 -0.4672
33751SOL    HW1 3260  10.262  10.551   3.745  1.0028 -1.4678  0.1863
33751SOL    HW2 3261  10.209  10.502   3.612 -1.0900  1.8489 -0.3169
33752SOL     OW 3262   1.913   4.748   2.354 -0.0133  0.1723  0.3924
33752SOL    HW1 3263   1.867   4.698   2.287 -1.5060  1.2139  0.5930
33752SOL    HW2 3264   1.849   4.813   2.384  0.3568 -0.6874  3.3241
33753SOL     OW 3265   5.558   6.976   2.813 -0.6001 -0.4579 -0.2438
33753SOL    HW1 3266   5.635   6.930   2.848 -1.0280  0.9390  2.8355
33753SOL    HW2 3267   5.488   6.910   2.816 -0.1618 -0.9433 -0.4127
33754SOL     OW 3268   1.769   7.308  10.948  0.1423 -0.1966 -0.1765
33754SOL    HW1 3269   1.692   7.362  10.968  0.6919  0.4359  0.2684
33754SOL    HW2 3270   1.733   7.221  10.933 -0.4821 -0.5185  2.5551
33755SOL     OW 3271   5.730   9.407   9.790 -0.5516  0.0209  0.0987
33755SOL    HW1 3272   5.779   9.345   9.735 -0.0529  0.8045 -0.3597
33755SOL    HW2 3273   5.660   9.438   9.734 -0.5604  0.1705  0.1927
33756SOL     OW 3274   9.249   3.540   0.990  0.3883  0.0237 -0.0098
33756SOL    HW1 3275   9.154   3.546   0.984  0.4552  0.5914 -0.8072
33756SOL    HW2 3276   9.277   3.627   1.021  0.7252  0.3619 -1.1998
33757SOL     OW 3277   5.164   7.928   5.835  0.1112 -0.1968  0.3814
33757SOL    HW1 3278   5.071   7.923   5.855 -0.0173 -0.1953 -0.1857
33757SOL    HW2 3279   5.176   7.869   5.761  0.8804 -1.5116  1.5058
33758SOL     OW 3280   0.752   3.137   0.315  0.6203 -0.2369  0.0374
33758SOL    HW1 3281   0.818   3.197   0.351 -2.2055  2.3225  1.3813
33758SOL    HW2 3282   0.728   3.177   0.231  0.1325 -0.6419 -0.0146
33759SOL     OW 3283   5.499   4.248   3.620 -0.4344 -0.9307 -1.1904
33759SOL    HW1 3284   5.486   4.342   3.613 -1.3493 -1.0774 -1.5907
33759SOL    HW2 3285   5.413   4.213   3.643  0.1735 -1.5477  0.3165
33760SOL     OW 3286   0.963   7.479   3.177  0.3856 -0.0881 -0.1331
33760SOL    HW1 3287   1.015   7.557   3.194  1.2273 -0.0496 -2.5904
33760SOL    HW2 3288   0.937   7.485   3.085 -1.9788 -1.3098  0.3590
33761SOL     OW 3289   8.655   5.470   1.392 -0.4277 -0.5236  0.3540
33761SOL    HW1 3290   8.562   5.450   1.393 -1.6452  4.0820  0.0641
33761SOL    HW2 3291   8.695   5.398   1.442 -4.1415 -2.3536  1.0645
33762SOL     OW 3292   6.487   9.309   9.523 -0.4678  0.8834  0.0352
33762SOL    HW1 3293   6.456   9.279   9.438 -1.8064  3.0907 -0.3135
33762SOL    HW2 3294   6.428   9.268   9.586 -1.0678  1.2180 -0.2988
33763SOL     OW 3295   1.707   5.416   5.933 -0.0208 -0.8239 -0.5775
33763SOL    HW1 3296   1.794   5.380   5.916  0.7433  0.7729 -0.2852
33763SOL    HW2 3297   1.653   5.385   5.860  0.8277 -1.6907 -0.8537
33764SOL     OW 3298   8.686   2.656   6.277  0.4150 -0.3868  0.5869
33764SOL    HW1 3299   8.756   2.614   6.228  0.5320 -0.3250  0.7003
33764SOL    HW2 3300   8.716   2.653   6.368 -0.4544 -1.8274  0.8656
33765SOL     OW 3301   1.347   0.454   4.709 -0.3603 -0.4022  0.0635
33765SOL    HW1 3302   1.285   0.527   4.706 -0.3415 -0.4108 -0.5641
33765SOL    HW2 3303   1.321   0.397   4.637  0.4172 -0.3719 -0.2543
33766SOL     OW 3304   0.996   1.403   8.484  0.1174  0.3458  0.2597
33766SOL    HW1 3305   1.002   1.487   8.528  0.1290  1.1247 -1.1537
33766SOL    HW2 3306   1.019   1.422   8.393 -0.1757 -1.1306 -0.1555
33767SOL     OW 3307   5.678   8.128   4.026 -0.2377  0.0811  0.1810
33767SOL    HW1 3308   5.739   8.147   3.955 -0.6597  1.2444  0.0917
33767SOL    HW2 3309   5.725   8.070   4.085 -0.6304 -2.8037 -2.1484
33768SOL     OW 3310   5.405   9.205   5.097  0.3386 -1.1244 -0.2898
33768SOL    HW1 3311   5.361   9.124   5.071  0.9597 -1.5485 -0.0188
33768SOL    HW2 3312   5.485   9.177   5.141  2.5056 -0.3919 -3.4418
33769SOL     OW 3313  10.037   9.278   1.164 -0.1549  0.0408  0.0782
33769SOL    HW1 3314  10.117   9.299   1.115 -0.6245 -1.5090 -1.4404
33769SOL    HW2 3315  10.066   9.214   1.229 -0.0644 -0.1934 -0.1876
33770SOL     OW 3316   7.800   1.306   3.795  0.0585  0.1775 -0.2547
33770SOL    HW1 3317   7.881   1.299   3.847  1.3223  0.2640 -2.1047
33770SOL    HW2 3318   7.801   1.395   3.762 -2.4656  1.2424  2.1495
33771SOL     OW 3319   3.218   1.893   5.463  0.8920  0.0206 -0.1403
33771SOL    HW1 3320   3.276   1.935   5.399  1.4187 -1.1273 -0.4568
33771SOL    HW2 3321   3.197   1.808   5.423  0.6519 -0.4243  0.8976
33772SOL     OW 3322  10.915   5.536   6.099 -0.1551 -0.1798  0.4876
33772SOL    HW1 3323  10.997   5.494   6.123  0.0958  0.7047  1.2290
33772SOL    HW2 3324  10.856   5.464   6.077  1.0132 -0.8029 -0.7412
33773SOL     OW 3325  10.859   7.930  10.740  0.5915 -0.4200 -0.2795
33773SOL    HW1 3326  10.778   7.891  10.706  0.7039 -0.8671 -0.0383
33773SOL    HW2 3327  10.831   8.008  10.787  0.1426 -1.4106  1.1352
33774SOL     OW 3328   2.622   0.667   1.074  0.1970 -0.2539  0.7996
33774SOL    HW1 3329   2.560   0.638   1.007 -0.9938 -2.9439  2.9081
33774SOL    HW2 3330   2.586   0.751   1.104 -0.6626 -0.2651 -0.1354
33775SOL     OW 3331   4.583   8.667   5.295 -0.5517 -0.0579  0.2241
33775SOL    HW1 3332   4.613   8.637   5.381 -0.2087 -2.2673 -0.6164
33775SOL    HW2 3333   4.487   8.661   5.299 -0.7657  2.5565  1.3288
33776SOL     OW 3334   0.301   3.002   4.209  0.3156  0.7642  0.3820
33776SOL    HW1 3335   0.267   3.085   4.176  0.0036 -0.0036 -1.3326
33776SOL    HW2 3336   0.393   3.002   4.185  0.1352  0.2890 -0.3336
33777SOL     OW 3337   0.552   2.676   3.055 -0.2998 -0.8812 -0.1273
33777SOL    HW1 3338   0.609   2.692   2.980 -0.0114 -1.7469 -0.1079
33777SOL    HW2 3339   0.492   2.607   3.026 -0.6627 -0.7040  0.1935
33778SOL     OW 3340   7.186   0.440   9.888  0.1053  0.1767  0.4439
33778SOL    HW1 3341   7.200   0.535   9.883 -0.9511  0.2630 -2.2123
33778SOL    HW2 3342   7.145   0.417   9.806  2.6627 -3.0229 -0.1689
33779SOL     OW 3343   1.195   5.818  10.964  0.0191 -0.0333  0.9877
33779SOL    HW1 3344   1.123   5.767  11.001  0.1558 -0.1412  1.1059
33779SOL    HW2 3345   1.152   5.883  10.908 -0.1911  0.1657  1.3755
33780SOL     OW 3346   4.717   8.864   3.836  0.1239  0.2666  0.4508
33780SOL    HW1 3347   4.658   8.798   3.800 -1.0144  1.3062  0.3746
33780SOL    HW2 3348   4.779   8.881   3.765 -0.0311 -0.1716  0.2053
33781SOL     OW 3349   4.602   7.739   9.656 -0.0149  0.0627 -0.7243
33781SOL    HW1 3350   4.551   7.724   9.576 -1.1453  0.0541 -0.0179
33781SOL    HW2 3351   4.649   7.821   9.640 -1.3988  0.8640 -0.8365
33782SOL     OW 3352   5.132   5.913   7.489 -0.4935 -0.2600  0.4655
33782SOL    HW1 3353   5.173   5.830   7.467 -0.9868 -1.0565  2.3162
33782SOL    HW2 3354   5.191   5.980   7.454 -0.4073 -1.3553 -1.6114
33783SOL     OW 3355  11.027   1.489   9.655 -0.2448 -1.0147  0.2815
33783SOL    HW1 3356  10.958   1.529   9.709  0.1707 -1.0825  0.8708
33783SOL    HW2 3357  11.007   1.517   9.566  0.0737  0.5817  0.6894
33784SOL     OW 3358   2.661   2.779   1.815  0.3838 -0.2500 -0.5297
33784SOL    HW1 3359   2.656   2.725   1.736 -0.3028 -1.4056  0.2829
33784SOL    HW2 3360   2.751   2.810   1.816  0.4787 -0.4354 -1.6265
33785SOL     OW 3361   9.349  10.594   4.321 -0.7085 -0.3291 -0.5161
33785SOL    HW1 3362   9.332  10.560   4.234 -1.8143  2.1815 -1.3802
33785SOL    HW2 3363   9.440  10.625   4.318 -0.2780 -1.5240 -0.2789
33786SOL     OW 3364   3.483   1.549   5.895  0.2211  1.0041  0.4128
33786SOL    HW1 3365   3.468   1.616   5.962 -0.9077  1.9840 -0.7701
33786SOL    HW2 3366   3.444   1.585   5.815  0.5653 -0.5965 -0.5303
33787SOL     OW 3367  11.060   7.372   9.428 -0.2725 -0.3377 -0.2053
33787SOL    HW1 3368  11.043   7.380   9.522  0.4532 -1.5513  0.0437
33787SOL    HW2 3369  10.991   7.424   9.387 -0.4421  0.4313  0.9973
33788SOL     OW 3370   8.307   6.515  10.900 -0.4852 -0.1468 -0.3504
33788SOL    HW1 3371   8.388   6.564  10.906 -0.2503 -0.3210 -1.7949
33788SOL    HW2 3372   8.278   6.505  10.991 -0.7746  2.9881  0.0123
33789SOL     OW 3373   4.583   0.540   3.703 -0.2350  0.1695 -0.2585
33789SOL    HW1 3374   4.497   0.577   3.720 -0.6269 -0.6500 -0.4228
33789SOL    HW2 3375   4.571   0.446   3.712  0.1561 -0.1317 -2.2974
33790SOL     OW 3376   7.488   2.174   7.358  0.6014  0.2308  0.1496
33790SOL    HW1 3377   7.563   2.226   7.331  2.5278 -1.2439  2.2578
33790SOL    HW2 3378   7.439   2.231   7.418 -0.5161  1.4790 -1.8457
33791SOL     OW 3379   5.275   5.046   0.035 -0.5112 -0.3709 -0.8811
33791SOL    HW1 3380   5.243   5.102  -0.036  2.1554  2.9776  0.2414
33791SOL    HW2 3381   5.364   5.023   0.008 -0.1113 -0.5541  0.5189
33792SOL     OW 3382  10.967   9.730  10.961 -0.6897  0.3874  0.0833
33792SOL    HW1 3383  11.015   9.662  10.912  0.4133  1.5199 -0.4875
33792SOL    HW2 3384  10.991   9.812  10.917 -1.2618  1.2476  1.3142
33793SOL     OW 3385   7.434   5.844   7.845  0.0067 -0.7610 -0.1077
33793SOL    HW1 3386   7.363   5.805   7.897  0.1694 -1.9159 -0.7189
33793SOL    HW2 3387   7.451   5.928   7.888 -0.0496 -1.5400  1.5462
33794SOL     OW 3388   6.751   9.103   9.123  0.0747  0.0249 -0.0952
33794SOL    HW1 3389   6.699   9.181   9.105 -0.1789 -0.3900 -1.2208
33794SOL    HW2 3390   6.806   9.092   9.045  0.6227 -0.5227  0.3573
33795SOL     OW 3391   6.208   4.437   5.512 -0.1163  0.2984  0.0446
33795SOL    HW1 3392   6.300   4.411   5.514 -0.4376 -0.9948 -0.4368
33795SOL    HW2 3393   6.179   4.428   5.603 -0.5791 -2.6893 -0.2728
33796SOL     OW 3394   8.244   2.240   0.096  0.5203 -0.1785 -0.0556
33796SOL    HW1 3395   8.335   2.211   0.099  0.7548  0.2515 -1.9123
33796SOL    HW2 3396   8.248   2.335   0.095 -0.0313 -0.1248  1.1754
33797SOL     OW 3397   2.853   1.986   6.869  0.4823 -0.3356  0.0272
33797SOL    HW1 3398   2.853   1.903   6.821  1.7450 -0.4188  0.1299
33797SOL    HW2 3399   2.795   1.971   6.943  0.5948 -1.0882 -0.0329
33798SOL     OW 3400   7.568   6.326   9.948  0.0674  0.7584 -0.0787
33798SOL    HW1 3401   7.555   6.409   9.903 -2.2839  0.0925 -0.7837
33798SOL    HW2 3402   7.528   6.338  10.034  3.6063  1.6781  1.6216
33799SOL     OW 3403   9.915   4.658   3.156  0.1391  0.0048  1.0783
33799SOL    HW1 3404   9.961   4.655   3.240  0.7558 -0.6363  0.7266
33799SOL    HW2 3405   9.985   4.670   3.091 -0.4310  2.0121  0.7444
33800SOL     OW 3406   6.255   3.742   5.517  0.1479 -0.2074  0.0523
33800SOL    HW1 3407   6.176   3.690   5.531  0.7327 -0.6858  2.0118
33800SOL    HW2 3408   6.274   3.733   5.424 -2.2239  0.1405 -0.5191
33801SOL     OW 3409   4.122  10.674   3.766 -0.1268  0.1124  0.5052
33801SOL    HW1 3410   4.100  10.613   3.695 -2.1518  0.6038  0.6401
33801SOL    HW2 3411   4.053  10.660   3.831 -0.8456  2.6995  0.4097
33802SOL     OW 3412   5.130   6.641   2.259  0.2818 -0.1451  0.2444
33802SOL    HW1 3413   5.094   6.687   2.184  0.0929 -2.4766 -1.2033
33802SOL    HW2 3414   5.220   6.673   2.266 -0.4208  1.8650  0.5997
33803SOL     OW 3415   7.623   4.345   9.667  0.0390 -0.1320  0.1084
33803SOL    HW1 3416   7.668   4.375   9.588 -0.5887  2.0873  0.5238
33803SOL    HW2 3417   7.633   4.250   9.665  0.9061 -0.0711 -2.1071
33804SOL     OW 3418   0.718   2.693   1.189  0.2418 -0.2632 -0.2272
33804SOL    HW1 3419   0.702   2.717   1.281  1.7872  0.0219  0.0028
33804SOL    HW2 3420   0.801   2.644   1.192  0.4714  0.0251 -1.5064
33805SOL     OW 3421   9.095   9.951   2.016 -0.6629 -0.2953 -0.4901
33805SOL    HW1 3422   9.136   9.896   2.083 -0.3940  0.1604 -0.2758
33805SOL    HW2 3423   9.024   9.996   2.062 -0.5726 -0.0942 -0.5476
33806SOL     OW 3424   8.811   6.503   3.582  0.7529 -0.1009 -0.0000
33806SOL    HW1 3425   8.861   6.462   3.511 -0.6786 -0.7314 -0.6826
33806SOL    HW2 3426   8.757   6.568   3.538  0.3218 -0.0499  0.6058
33807SOL     OW 3427   5.785   5.396   2.978 -0.0392  0.2481 -0.2710
33807SOL    HW1 3428   5.725   5.345   3.032  1.0357 -0.6073  0.1400
33807SOL    HW2 3429   5.809   5.471   3.033 -0.6285  0.5391 -0.3980
33808SOL     OW 3430   8.052   8.476   2.996  0.1725  0.1171  0.7771
33808SOL    HW1 3431   8.027   8.445   2.909  0.7814 -2.3896  1.4077
33808SOL    HW2 3432   8.136   8.520   2.983  0.5553 -0.7646  0.1757
33809SOL     OW 3433   6.029   6.360   0.615 -0.2353  0.3976  0.6747
33809SOL    HW1 3434   6.004   6.452   0.627 -0.8493  0.1447  1.3986
33809SOL    HW2 3435   6.011   6.319   0.699  1.0812 -0.1638  0.7035
33810SOL     OW 3436   1.853  10.133   0.727 -0.4247 -0.6881  0.1278
33810SOL    HW1 3437   1.833  10.152   0.636  0.2182 -0.3883  0.0434
33810SOL    HW2 3438   1.769  10.109   0.766 -1.1764  1.5778  0.0576
33811SOL     OW 3439   1.742   0.246   0.766  0.4950 -0.5770 -1.1066
33811SOL    HW1 3440   1.683   0.289   0.704  1.2433  1.4012 -0.5270
33811SOL    HW2 3441   1.762   0.162   0.726 -1.2980 -0.5517 -2.1538
33812SOL     OW 3442   5.478   9.658  10.918 -0.4759 -0.3523  0.2657
33812SOL    HW1 3443   5.516   9.668  10.831  0.6797  0.1045  0.8176
33812SOL    HW2 3444   5.550   9.671  10.979 -1.5771  1.0114  1.3624
33813SOL     OW 3445   9.545  10.688   5.396  0.4363  0.3990  0.4724
33813SOL    HW1 3446   9.549  10.681   5.491 -1.1354 -0.6033  0.5095
33813SOL    HW2 3447   9.457  10.656   5.374  0.5755  1.1284 -1.2705
33814SOL     OW 3448   2.036   2.327   3.286  0.2457 -0.2773 -0.0728
33814SOL    HW1 3449   2.090   2.405   3.294 -0.3276 -0.0140  1.5062
33814SOL    HW2 3450   2.071   2.282   3.209 -0.2345  2.1435 -1.8224
33815SOL     OW 3451   6.005   3.209   5.073 -0.3958  0.5012  0.1960
33815SOL    HW1 3452   6.038   3.205   5.163 -0.3583  2.1646  0.2869
33815SOL    HW2 3453   6.063   3.151   5.024  1.6218  1.9563  0.6962
33816SOL     OW 3454  10.235   5.993   7.734  0.6802 -0.0212  0.7236
33816SOL    HW1 3455  10.219   5.981   7.827  0.1531 -1.1426  0.5098
33816SOL    HW2 3456  10.153   6.030   7.701  0.0517 -1.6588  0.3615
33817SOL     OW 3457   4.304  10.611   2.679  0.2862 -0.0324 -0.6887
33817SOL    HW1 3458   4.254  10.544   2.725  1.2626 -1.7196 -1.9610
33817SOL    HW2 3459   4.393  10.603   2.712  1.1474 -1.6713 -3.0877
33818SOL     OW 3460   9.862   5.462  10.445  0.1000 -0.4885 -0.1366
33818SOL    HW1 3461   9.797   5.497  10.505  1.1927 -0.1710  0.9003
33818SOL    HW2 3462   9.824   5.379  10.414 -0.4097 -0.7558  1.1301
33819SOL     OW 3463   4.657   8.032  10.504 -0.2648 -0.1599 -0.3693
33819SOL    HW1 3464   4.708   8.109  10.532  0.4762  0.4431 -3.0586
33819SOL    HW2 3465   4.568   8.050  10.535  0.3144  0.7399  0.8861
33820SOL     OW 3466   6.669   1.539   7.879 -0.0923 -0.6519 -0.1581
33820SOL    HW1 3467   6.763   1.541   7.894  0.1667 -0.0632 -1.7182
33820SOL    HW2 3468   6.657   1.479   7.805 -0.9730 -0.9238  0.1895
33821SOL     OW 3469   5.075   2.361   8.772 -0.8338  0.4357  0.4528
33821SOL    HW1 3470   5.034   2.444   8.749 -0.6331  0.6222  0.7631
33821SOL    HW2 3471   5.062   2.305   8.695 -1.9910  0.3638  0.6906
33822SOL     OW 3472   3.912   9.279   9.439 -0.1924  0.9716 -0.8108
33822SOL    HW1 3473   3.821   9.267   9.468 -0.0411  0.3308 -0.5760
33822SOL    HW2 3474   3.909   9.261   9.345 -0.2460  0.5516 -0.7336
33823SOL     OW 3475   5.808   7.428   2.951  0.7401 -0.3064 -0.4242
33823SOL    HW1 3476   5.763   7.495   2.900  1.3941  1.4653  1.1739
33823SOL    HW2 3477   5.739   7.368   2.979  0.2178 -0.6451 -2.3125
33824SOL     OW 3478   2.933   7.848   0.999  0.0065 -0.3965  0.2320
33824SOL    HW1 3479   2.893   7.917   1.052  0.1567 -1.0250  1.1835
33824SOL    HW2 3480   2.900   7.863   0.910  0.5605  1.3023  0.2801
33825SOL     OW 3481   6.703   5.023   0.590  0.1137  0.2713  0.6689
33825SOL    HW1 3482   6.773   4.987   0.644  0.4761  0.4258  0.3083
33825SOL    HW2 3483   6.625   5.017   0.645 -0.1833 -2.4680  0.0864
33826SOL     OW 3484   6.611  10.955   8.589 -0.2437  0.2221  0.4967
33826SOL    HW1 3485   6.653  11.029   8.632 -0.4407  1.1244 -0.8110
33826SOL    HW2 3486   6.615  10.884   8.653  2.1963  0.6079  0.8773
33827SOL     OW 3487   9.675   0.009   2.585 -0.4708 -0.4512  0.3200
33827SOL    HW1 3488   9.624   0.004   2.665 -1.9121  0.1621 -0.5302
33827SOL    HW2 3489   9.750   0.065   2.607 -0.3480 -1.0445  1.4662
33828SOL     OW 3490   9.431   0.436   4.745  0.2218  0.0543 -0.2002
33828SOL    HW1 3491   9.359   0.382   4.778 -1.1171  1.7610 -0.1765
33828SOL    HW2 3492   9.449   0.402   4.657 -1.7978  0.6449 -0.8873
33829SOL     OW 3493   9.421   0.936   7.782  0.5157  0.3152  0.4310
33829SOL    HW1 3494   9.347   0.986   7.817  0.3375  1.9827 -2.0143
33829SOL    HW2 3495   9.381   0.866   7.730  0.6740  0.2829  0.3510
33830SOL     OW 3496   6.623  10.297   3.841  0.3375 -1.0506 -0.2492
33830SOL    HW1 3497   6.602  10.338   3.925 -0.1994  0.8893 -1.2555
33830SOL    HW2 3498   6.678  10.222   3.863  3.7633  1.6843  1.6915
33831SOL     OW 3499   9.606   0.171  10.047  0.3524 -0.2746 -0.5652
33831SOL    HW1 3500   9.614   0.240   9.981  3.2918 -0.7969 -0.9043
33831SOL    HW2 3501   9.693   0.130  10.049 -0.5707 -2.3477  1.3974
33832SOL     OW 3502   1.642  10.370   0.993  0.1547  0.4689 -0.2845
33832SOL    HW1 3503   1.602  10.359   1.080  0.9889 -1.3388 -0.0742
33832SOL    HW2 3504   1.701  10.445   1.003 -2.1916  2.4567 -0.2901
33833SOL     OW 3505   6.071   9.660   1.022 -0.0879  0.3395 -0.2212
33833SOL    HW1 3506   5.993   9.702   1.056  1.3184  2.2173  0.8822
33833SOL    HW2 3507   6.061   9.663   0.927 -1.3315  0.5612 -0.0906
33834SOL     OW 3508   6.376   5.711   2.481  0.7327 -0.2286 -0.2662
33834SOL    HW1 3509   6.442   5.777   2.505 -1.0502  1.2828  0.8008
33834SOL    HW2 3510   6.426   5.631   2.468  2.6385  0.3986  2.2750
33835SOL     OW 3511   6.316   3.494   3.789 -0.1339  0.1989 -0.0272
33835SOL    HW1 3512   6.400   3.452   3.810  0.0846  0.5078 -0.2693
33835SOL    HW2 3513   6.303   3.557   3.860 -0.4649 -0.2811  0.3399
33836SOL     OW 3514   0.802   0.907   1.647  0.0130  0.4264 -0.7911
33836SOL    HW1 3515   0.832   0.969   1.713  0.5915  0.3368 -0.9693
33836SOL    HW2 3516   0.763   0.962   1.579 -4.0890  0.4203  1.2548
33837SOL     OW 3517   6.064  10.901   7.830  0.1287  0.4825 -0.5374
33837SOL    HW1 3518   6.026  10.967   7.889  1.8743  1.4532 -0.4283
33837SOL    HW2 3519   6.101  10.835   7.888  0.4800  0.6444 -0.5723
33838SOL     OW 3520  10.532   6.864   0.842 -0.3499 -0.6861 -0.1262
33838SOL    HW1 3521  10.596   6.936   0.839 -0.1992 -0.8331 -0.5404
33838SOL    HW2 3522  10.504   6.854   0.751  0.9659 -2.3518 -0.3895
33839SOL     OW 3523   0.584   7.067   8.145 -0.5992 -0.1670 -0.3163
33839SOL    HW1 3524   0.494   7.069   8.113 -0.9659  0.4918  0.7259
33839SOL    HW2 3525   0.579   7.097   8.235  0.7129  0.1656 -0.3266
33840SOL     OW 3526   1.498  10.226   4.799  0.2632  0.0668 -0.4257
33840SOL    HW1 3527   1.541  10.141   4.809 -1.4815 -0.8333 -0.0995
33840SOL    HW2 3528   1.476  10.253   4.888 -0.0578  0.3817 -0.5952
33841SOL     OW 3529   6.070  10.589   7.039  0.6181  0.1121 -0.3315
33841SOL    HW1 3530   6.121  10.668   7.021  0.3683  0.4527  0.4048
33841SOL    HW2 3531   6.128  10.517   7.014  0.3917  0.5305 -2.1608
33842SOL     OW 3532   4.603   9.866   1.339 -0.3250 -0.3708 -0.2023
33842SOL    HW1 3533   4.582   9.794   1.399 -1.2499  0.0108 -0.0537
33842SOL    HW2 3534   4.545   9.852   1.264 -1.7433  1.1301  0.5422
33843SOL     OW 3535   5.101   6.282   8.100 -0.4100 -0.4699 -0.3426
33843SOL    HW1 3536   5.052   6.203   8.075  1.2281 -1.0068 -2.1346
33843SOL    HW2 3537   5.169   6.250   8.159 -0.8232 -0.1048  0.3337
33844SOL     OW 3538   8.941   0.421   9.011  0.0973 -0.1299  0.2376
33844SOL    HW1 3539   8.991   0.447   9.089 -0.1384 -1.8348  0.9983
33844SOL    HW2 3540   8.852   0.452   9.028  0.7019  2.4214 -0.8729
33845SOL     OW 3541   5.272  10.300   6.176 -0.2911  0.2489 -0.1657
33845SOL    HW1 3542   5.197  10.288   6.233  1.1626 -0.3601  1.7367
33845SOL    HW2 3543   5.255  10.245   6.101 -1.7521  0.1613  0.2132
33846SOL     OW 3544   7.665   7.066   7.266 -0.2525  0.7043  0.0584
33846SOL    HW1 3545   7.698   7.063   7.176  0.0471 -2.2688  0.1787
33846SOL    HW2 3546   7.663   7.160   7.287  2.6840  1.3538 -1.9202
33847SOL     OW 3547   7.983   9.320   0.392 -0.3587  0.1948  0.2405
33847SOL    HW1 3548   8.017   9.347   0.477 -0.2475  4.4537 -0.9314
33847SOL    HW2 3549   7.888   9.318   0.404 -0.3640  1.1012  0.4447
33848SOL     OW 3550   2.157   1.100   4.399  0.0959 -0.3954  0.0478
33848SOL    HW1 3551   2.131   1.016   4.437 -0.4326 -0.7127 -0.9853
33848SOL    HW2 3552   2.086   1.123   4.339 -0.3373  1.3872  1.1903
33849SOL     OW 3553   7.862   3.328   8.256 -0.4425 -0.3187  0.2967
33849SOL    HW1 3554   7.880   3.278   8.176  0.9984 -0.6143  0.7793
33849SOL    HW2 3555   7.894   3.417   8.236 -1.3306 -0.0388  0.0801
33850SOL     OW 3556   8.491  10.552   2.716 -0.4801 -0.1029  0.3986
33850SOL    HW1 3557   8.421  10.505   2.669  0.5369 -0.9414 -0.3212
33850SOL    HW2 3558   8.547  10.586   2.647  0.1233  0.0960  0.9758
33851SOL     OW 3559   3.257   3.569   6.172  0.5970  0.7602 -0.2805
33851SOL    HW1 3560   3.342   3.594   6.208  0.6749  0.7412 -0.4518
33851SOL    HW2 3561   3.262   3.592   6.079  1.4349 -1.7787 -0.9448
33852SOL     OW 3562   0.164   9.087   8.313  0.1747 -0.5778  0.2249
33852SOL    HW1 3563   0.210   9.006   8.296 -0.8570 -1.6486  2.1377
33852SOL    HW2 3564   0.087   9.085   8.256  1.4841  0.3959 -1.6918
33853SOL     OW 3565  11.045   6.406   3.161 -0.6110  0.0286 -0.3037
33853SOL    HW1 3566  11.031   6.466   3.235  3.0035 -1.9534  2.2954
33853SOL    HW2 3567  11.055   6.464   3.086 -1.3546  2.3889  1.2747
33854SOL     OW 3568   8.866   6.224   2.609  0.8763  0.2452  0.0598
33854SOL    HW1 3569   8.836   6.155   2.549  0.8550  0.1849  0.1391
33854SOL    HW2 3570   8.810   6.214   2.686  0.4859  0.7294 -0.1615
33855SOL     OW 3571   2.233   4.644   5.808  0.0832 -0.1185  0.2003
33855SOL    HW1 3572   2.210   4.582   5.877 -0.2426  0.4151  0.5829
33855SOL    HW2 3573   2.221   4.595   5.727  1.5145 -1.0921  0.5373
33856SOL     OW 3574   7.966   1.353   4.137 -0.6154  0.0546  0.5509
33856SOL    HW1 3575   8.033   1.386   4.196 -1.4742  0.7630  1.1551
33856SOL    HW2 3576   8.013   1.326   4.058  0.1991  2.0539  0.3088
33857SOL     OW 3577  10.311   6.154   3.908 -0.0666 -0.3338  0.1795
33857SOL    HW1 3578  10.353   6.102   3.839  0.3138 -0.5404  0.5598
33857SOL    HW2 3579  10.283   6.234   3.864 -4.0683 -2.3216 -1.3338
33858SOL     OW 3580   3.738   1.292   4.690  0.3036  0.1742 -0.3114
33858SOL    HW1 3581   3.666   1.297   4.627 -0.5295 -0.0219  0.6118
33858SOL    HW2 3582   3.737   1.377   4.735  1.3096  0.5662 -0.9723
33859SOL     OW 3583  10.315   9.882   5.101  0.0118 -0.4180 -0.2793
33859SOL    HW1 3584  10.304   9.961   5.154  0.0965 -2.0899  2.4408
33859SOL    HW2 3585  10.238   9.880   5.045 -1.3374  0.3148  1.4513
33860SOL     OW 3586   1.135   5.393   4.343 -0.3487  0.1664 -0.4522
33860SOL    HW1 3587   1.203   5.366   4.404  0.2464 -0.5672 -1.3999
33860SOL    HW2 3588   1.056   5.401   4.396  0.3973  0.7101  0.6075
33861SOL     OW 3589  10.603   4.753  10.833 -0.0920 -0.0573 -1.3271
33861SOL    HW1 3590  10.528   4.805  10.860  0.7775  0.5978 -0.0319
33861SOL    HW2 3591  10.567   4.687  10.774 -1.8790 -0.4999  0.1621
33862SOL     OW 3592   7.183   8.936   8.069  0.2591  0.3458  0.0151
33862SOL    HW1 3593   7.157   8.930   8.161 -0.3115 -0.1965 -0.1776
33862SOL    HW2 3594   7.171   9.028   8.046 -0.5206  0.2981  0.2172
33863SOL     OW 3595   7.914   3.612   9.544  0.1241  0.3960 -0.3365
33863SOL    HW1 3596   7.921   3.543   9.610  1.7925 -0.0126 -0.8816
33863SOL    HW2 3597   7.820   3.630   9.537 -0.2750 -1.2324  0.4136
33864SOL     OW 3598   7.983   4.408   6.417  0.0480 -0.0284 -0.3621
33864SOL    HW1 3599   8.011   4.357   6.341  3.3215  2.0799 -0.7378
33864SOL    HW2 3600   7.892   4.431   6.398  0.3655 -0.6685 -3.0248
33865SOL     OW 3601   6.289   8.416   0.079  0.0306  0.2181 -0.5433
33865SOL    HW1 3602   6.320   8.377  -0.003 -0.2806 -3.4838  0.9180
33865SOL    HW2 3603   6.213   8.363   0.104  0.7260  0.5104  2.6241
33866SOL     OW 3604   8.573   2.555   4.629 -0.0660  0.0592  0.0791
33866SOL    HW1 3605   8.629   2.495   4.580 -1.3073 -1.4113  0.3880
33866SOL    HW2 3606   8.623   2.574   4.709 -0.7023 -2.7613  1.2646
33867SOL     OW 3607   2.749  10.390   0.710 -0.4842  0.1990 -0.0226
33867SOL    HW1 3608   2.788  10.354   0.790  0.8030 -0.6927 -1.0185
33867SOL    HW2 3609   2.748  10.318   0.648  0.0961  1.2818 -1.3566
33868SOL     OW 3610   6.471   1.993   4.925  0.3865  0.0294 -0.4043
33868SOL    HW1 3611   6.557   1.999   4.968  0.5861  0.5571 -0.8547
33868SOL    HW2 3612   6.447   2.085   4.908  0.0714 -0.1474 -0.9365
33869SOL     OW 3613  11.053   1.956   0.532 -0.8479 -0.3183  0.3636
33869SOL    HW1 3614  11.130   2.004   0.560  0.1985 -1.0864 -1.0309
33869SOL    HW2 3615  11.033   1.991   0.445 -1.3624 -0.9336  0.2243
33870SOL     OW 3616   5.373   1.558   6.992 -0.3488  0.7428  0.2684
33870SOL    HW1 3617   5.390   1.484   6.933  0.5368  1.6598 -0.6532
33870SOL    HW2 3618   5.281   1.547   7.018 -0.6047  0.0262 -0.8740
33871SOL     OW 3619   2.400   5.777   9.043  0.5116  0.3710  0.0978
33871SOL    HW1 3620   2.429   5.690   9.069  2.1107  1.5544  2.7528
33871SOL    HW2 3621   2.312   5.785   9.082 -0.2206 -0.4783 -1.3114
33872SOL     OW 3622   5.205  10.009   2.764 -0.5219 -0.1157  0.3415
33872SOL    HW1 3623   5.187  10.103   2.756 -3.1213 -0.6500 -2.0552
33872SOL    HW2 3624   5.139   9.978   2.826 -3.7744 -1.0090 -3.1163
33873SOL     OW 3625   6.964   6.065   0.381 -0.4536 -0.0818 -0.1938
33873SOL    HW1 3626   6.875   6.091   0.358 -0.7202 -0.4593  0.3816
33873SOL    HW2 3627   6.997   6.134   0.438  0.6437  1.4738 -2.5521
33874SOL     OW 3628   7.173   6.799   7.226 -0.4052 -0.4511 -0.4901
33874SOL    HW1 3629   7.266   6.779   7.215 -0.4637 -1.3403  0.5006
33874SOL    HW2 3630   7.140   6.731   7.285 -1.0726  1.3470  1.3537
33875SOL     OW 3631   6.127   0.738   1.059 -0.0881 -0.0504 -1.0977
33875SOL    HW1 3632   6.141   0.748   0.964  1.2590  2.6033 -0.7051
33875SOL    HW2 3633   6.038   0.769   1.074 -0.1687 -0.1205 -1.4192
33876SOL     OW 3634   5.686   9.491   1.884 -0.7538 -0.5568  0.2375
33876SOL    HW1 3635   5.658   9.565   1.938 -1.2375  0.3631 -1.2050
33876SOL    HW2 3636   5.608   9.466   1.835 -0.0623 -0.6065 -0.8785
33877SOL     OW 3637   5.548   4.569   6.219 -0.5709  0.0471  0.1662
33877SOL    HW1 3638   5.558   4.510   6.295 -1.1176  1.6386  1.5426
33877SOL    HW2 3639   5.455   4.564   6.198 -0.5230  0.0475 -0.0474
33878SOL     OW 3640   3.126   7.646   5.574  0.4851  0.1236  0.4210
33878SOL    HW1 3641   3.078   7.670   5.495  1.0461  1.1085  0.3617
33878SOL    HW2 3642   3.100   7.713   5.638  1.3474  0.3488  0.5493
33879SOL     OW 3643   3.593   4.611   7.125 -0.6343  0.3342 -0.1493
33879SOL    HW1 3644   3.603   4.517   7.140  1.8437  0.4067 -0.8765
33879SOL    HW2 3645   3.520   4.618   7.063 -1.3794 -1.0253  0.5382
33880SOL     OW 3646   6.153   8.560   1.206  0.3849  0.2765  0.4258
33880SOL    HW1 3647   6.106   8.488   1.249  0.9036 -0.9193 -0.9072
33880SOL    HW2 3648   6.116   8.639   1.244 -0.3024 -0.6855  1.8641
33881SOL     OW 3649   8.718   8.974   2.015 -0.1252  0.4054 -0.3468
33881SOL    HW1 3650   8.759   9.044   1.965  1.6300 -0.7168 -0.5477
33881SOL    HW2 3651   8.650   8.939   1.958 -2.9567  3.5587  0.7011
33882SOL     OW 3652   6.620   0.369   5.314 -0.7615  0.0111  0.0773
33882SOL    HW1 3653   6.607   0.275   5.302  0.6283 -0.2470  0.4264
33882SOL    HW2 3654   6.651   0.378   5.404  0.2326  0.6658 -0.3080
33883SOL     OW 3655   4.657   2.790   3.928  0.3901  0.1616 -0.1723
33883SOL    HW1 3656   4.727   2.737   3.890  0.9806  1.1099 -0.4318
33883SOL    HW2 3657   4.687   2.880   3.920  0.3372  0.4584  2.1072
33884SOL     OW 3658   3.910   8.914   7.775 -0.2688 -0.1347 -0.0594
33884SOL    HW1 3659   3.868   8.918   7.861  0.2757  0.2539  0.1943
33884SOL    HW2 3660   3.995   8.874   7.792 -0.2254 -0.2046 -0.4464
33885SOL     OW 3661   5.092  10.252   6.358  0.0910  0.3411  0.1435
33885SOL    HW1 3662   5.135  10.265   6.442 -0.7116 -1.0657  0.7964
33885SOL    HW2 3663   5.001  10.278   6.373 -0.0591  0.0833 -0.2914
33886SOL     OW 3664   5.494   9.512   3.776 -0.1708  0.8782  0.2283
33886SOL    HW1 3665   5.481   9.602   3.806 -1.1739  1.9515 -3.0238
33886SOL    HW2 3666   5.582   9.512   3.739  0.3279  0.1190  1.3706
33887SOL     OW 3667   3.480   5.518   5.649  0.0628 -0.0708  0.4951
33887SOL    HW1 3668   3.429   5.534   5.728 -1.3624  0.3537 -0.4707
33887SOL    HW2 3669   3.545   5.588   5.647  1.1681 -0.9792  2.0681
33888SOL     OW 3670   8.499   9.611   8.037  0.2013 -0.4975 -0.5293
33888SOL    HW1 3671   8.566   9.543   8.044  0.8800  0.2669  0.5383
33888SOL    HW2 3672   8.536   9.687   8.082 -1.7165 -0.3218  0.8834
33889SOL     OW 3673   3.982   0.186   6.162  0.4441 -0.2713 -0.6453
33889SOL    HW1 3674   3.906   0.165   6.108 -0.0999 -2.0674  0.7217
33889SOL    HW2 3675   3.946   0.210   6.247  1.2743  2.6941 -1.0112
33890SOL     OW 3676   3.329   1.770   4.459 -0.2096 -0.2105 -0.2642
33890SOL    HW1 3677   3.309   1.722   4.539 -1.1302  0.2659 -0.1915
33890SOL    HW2 3678   3.261   1.837   4.453 -0.3686 -0.4521 -1.6147
33891SOL     OW 3679   1.566   3.595   4.421  0.4342 -0.0595  0.1658
33891SOL    HW1 3680   1.608   3.509   4.430 -2.0748 -1.4772 -0.8051
33891SOL    HW2 3681   1.516   3.606   4.502 -1.4786 -0.8845 -0.8350
33892SOL     OW 3682   2.041  10.551  10.555  0.1924 -0.0716  0.0570
33892SOL    HW1 3683   2.010  10.634  10.591 -1.8879 -1.2587  1.1401
33892SOL    HW2 3684   2.080  10.505  10.629 -0.6665 -0.9687 -0.0395
33893SOL     OW 3685   8.615  10.557   1.104  0.2887  0.4720 -0.0084
33893SOL    HW1 3686   8.609  10.646   1.138  1.8905  0.2508  0.9652
33893SOL    HW2 3687   8.709  10.543   1.091 -0.1023  0.0531 -3.3213
33894SOL     OW 3688   6.127   6.661   2.591  0.3421 -0.2562  0.1801
33894SOL    HW1 3689   6.150   6.730   2.653  0.0178 -0.2364  0.2828
33894SOL    HW2 3690   6.032   6.671   2.579  0.2361 -0.8819  0.4472
33895SOL     OW 3691   0.589   0.087   4.479  0.4756 -0.2777  0.4848
33895SOL    HW1 3692   0.532   0.069   4.554  1.6005 -2.5176  0.8968
33895SOL    HW2 3693   0.655   0.017   4.482  1.2793  0.2875 -1.8913
33896SOL     OW 3694   2.726   7.305   0.184 -0.1401 -0.0075 -0.3443
33896SOL    HW1 3695   2.730   7.268   0.272  0.6774 -0.7340 -0.6621
33896SOL    HW2 3696   2.818   7.314   0.158 -0.3778 -0.2274 -1.2835
33897SOL     OW 3697   5.523   4.096  10.493 -0.0849  0.7810  0.3049
33897SOL    HW1 3698   5.590   4.165  10.495 -0.5794  1.2853 -0.1416
33897SOL    HW2 3699   5.450   4.132  10.543  0.1089  0.0818  1.1075
33898SOL     OW 3700   3.122   9.391   1.282  0.3290  0.1512  0.2472
33898SOL    HW1 3701   3.070   9.351   1.351  0.8219  1.2728  1.3112
33898SOL    HW2 3702   3.209   9.351   1.290 -0.2976 -1.6818 -1.4945
33899SOL     OW 3703   8.934   7.725   1.293 -0.0128  0.6724  0.1748
33899SOL    HW1 3704   8.887   7.661   1.346  0.7823 -0.1638 -0.0877
33899SOL    HW2 3705   9.013   7.678   1.264  0.9870  2.0173  0.6189
33900SOL     OW 3706   8.717   8.918   2.323  0.2374  0.1173 -0.2992
33900SOL    HW1 3707   8.769   8.982   2.371  0.8705 -0.3593 -0.3310
33900SOL    HW2 3708   8.717   8.949   2.233  1.0541 -0.2366 -0.4287
33901SOL     OW 3709   2.178  10.005   4.663  0.3257  0.1590  0.2166
33901SOL    HW1 3710   2.252  10.064   4.670  2.3379 -2.0701 -0.7909
33901SOL    HW2 3711   2.180   9.954   4.744  0.7970 -0.8374 -0.4040
33902SOL     OW 3712  10.313   2.730   8.814  0.2343  0.3157 -0.0869
33902SOL    HW1 3713  10.222   2.731   8.784  0.6660 -0.8985 -1.5594
33902SOL    HW2 3714  10.329   2.639   8.840  1.2531  0.3150 -0.6368
33903SOL     OW 3715  10.050   1.733   0.848 -0.3732 -0.2326  0.1163
33903SOL    HW1 3716  10.077   1.697   0.764 -0.7205  0.0680 -0.1329
33903SOL    HW2 3717   9.965   1.774   0.830 -0.4699 -0.1987  0.6216
33904SOL     OW 3718   8.665   0.055   0.051 -0.1006 -0.1224  0.2082
33904SOL    HW1 3719   8.750   0.039   0.011  0.9947 -0.5377  2.5340
33904SOL    HW2 3720   8.662   0.149   0.064 -0.8614  0.1431 -1.5450
33905SOL     OW 3721   8.551   8.688   5.840 -0.0787  0.0578  0.1620
33905SOL    HW1 3722   8.607   8.622   5.880  0.2010  0.8623  1.1421
33905SOL    HW2 3723   8.554   8.669   5.746 -0.1963 -1.4540  0.4365
33906SOL     OW 3724   8.131   4.478   8.691 -0.3543  0.2010 -0.0601
33906SOL    HW1 3725   8.125   4.416   8.618  1.3644 -0.3035  0.1838
33906SOL    HW2 3726   8.163   4.559   8.651 -0.9162  0.4033 -0.1036
33907SOL     OW 3727   4.500   2.473  10.805  0.0960 -0.7248  0.2545
33907SOL    HW1 3728   4.506   2.559  10.845 -3.5630 -0.2927  0.2199
33907SOL    HW2 3729   4.540   2.483  10.719  0.2432  0.7842  0.4820
33908SOL     OW 3730   6.894   4.586  10.534 -0.2104  0.4811 -0.3100
33908SOL    HW1 3731   6.832   4.546  10.473 -0.8317 -1.6541  1.5858
33908SOL    HW2 3732   6.840   4.610  10.610  1.0045 -0.0199  0.7461
33909SOL     OW 3733   8.286   5.097   0.868 -0.1000  0.2611 -0.9515
33909SOL    HW1 3734   8.234   5.177   0.876 -1.2775 -0.6145  0.9845
33909SOL    HW2 3735   8.230   5.028   0.902  1.7093 -1.0183 -0.3702
33910SOL     OW 3736  10.925   9.909   0.120  0.0196 -0.0046 -0.3945
33910SOL    HW1 3737  10.914   9.876   0.209  1.1392  0.3123 -0.1163
33910SOL    HW2 3738  10.956   9.834   0.070  2.0174  0.4211  0.1130
33911SOL     OW 3739   8.525   6.389   2.697 -0.1527 -0.0222  0.3251
33911SOL    HW1 3740   8.435   6.394   2.727  0.1389 -0.7144  1.3845
33911SOL    HW2 3741   8.550   6.297   2.712 -0.2016 -0.6581 -2.7907
33912SOL     OW 3742   3.437   4.617   6.889  0.5134  0.4716 -0.0918
33912SOL    HW1 3743   3.473   4.579   6.808 -2.2428  1.2616 -1.8091
33912SOL    HW2 3744   3.342   4.618   6.875 -0.1137  0.3985  3.3179
33913SOL     OW 3745   2.515   0.044   2.160  1.3374 -0.5571 -0.5259
33913SOL    HW1 3746   2.521   0.140   2.155  1.0964 -0.6116 -2.7253
33913SOL    HW2 3747   2.582   0.019   2.224  0.4437  1.1475  1.1852
33914SOL     OW 3748   3.124   3.449   9.494  0.6625  0.3695  0.2951
33914SOL    HW1 3749   3.176   3.392   9.438 -3.8836 -2.2427 -1.8674
33914SOL    HW2 3750   3.102   3.524   9.439  1.9214  1.4390  1.1786
33915SOL     OW 3751  10.128   4.190   9.705  0.4245 -0.6135 -0.3096
33915SOL    HW1 3752  10.129   4.279   9.670 -1.3421 -0.2843  0.3662
33915SOL    HW2 3753  10.087   4.138   9.635 -1.8409 -0.1989  0.6045
33916SOL     OW 3754   0.060   1.088   3.325 -0.9720  0.4488 -0.0903
33916SOL    HW1 3755  -0.028   1.092   3.289 -0.6416 -0.6139 -1.1158
33916SOL    HW2 3756   0.117   1.087   3.248 -0.0149  1.6807  0.5572
33917SOL     OW 3757  10.138   1.159   6.055  0.2457 -0.1734  0.1987
33917SOL    HW1 3758  10.191   1.234   6.029 -1.9184  0.8229 -1.6653
33917SOL    HW2 3759  10.190   1.083   6.031  0.8601  0.7502 -1.5661
33918SOL     OW 3760   9.509   6.850   8.650 -0.2870 -0.4194 -0.3697
33918SOL    HW1 3761   9.509   6.923   8.589  1.1902  0.3780  0.5543
33918SOL    HW2 3762   9.417   6.840   8.675 -0.6528  0.3813 -1.3352
33919SOL     OW 3763   6.390   3.321   4.657  0.2536  0.1392  0.0876
33919SOL    HW1 3764   6.369   3.392   4.597  0.3369 -0.9609 -1.3006
33919SOL    HW2 3765   6.409   3.364   4.740  1.0305  1.7923 -0.8999
33920SOL     OW 3766  10.528   7.747   8.436  0.3418 -0.2431 -0.2624
33920SOL    HW1 3767  10.504   7.715   8.349  0.3420  1.6578 -1.0202
33920SOL    HW2 3768  10.583   7.824   8.419  0.4346  0.1102  1.4195
33921SOL     OW 3769   9.829   6.955   4.939  0.1114  0.4628  0.3296
33921SOL    HW1 3770   9.919   6.955   4.972 -0.0097  0.1172  0.6615
33921SOL    HW2 3771   9.830   7.018   4.867  0.4914  0.8749  0.6910
33922SOL     OW 3772   6.491   5.959   1.840 -0.1473 -0.7323  0.0927
33922SOL    HW1 3773   6.480   6.020   1.767 -1.6395  0.6496  1.3851
33922SOL    HW2 3774   6.547   5.889   1.805  0.8042  0.8540 -1.7554
33923SOL     OW 3775   5.284   9.783  10.444  0.7338  0.1436 -0.1312
33923SOL    HW1 3776   5.258   9.693  10.465  0.2674  0.3442  0.1573
33923SOL    HW2 3777   5.311   9.780  10.352  0.9559 -0.3415 -0.0527
33924SOL     OW 3778   3.799   1.040   5.552 -0.3031  0.0461 -0.3172
33924SOL    HW1 3779   3.831   1.079   5.470 -0.1833 -0.5429 -0.5545
33924SOL    HW2 3780   3.766   1.115   5.602  0.7240  0.5769 -0.3935
33925SOL     OW 3781   4.556  10.792   3.080  0.0206 -0.3669 -0.0852
33925SOL    HW1 3782   4.582  10.822   3.167  0.6676  0.5150 -0.5768
33925SOL    HW2 3783   4.464  10.767   3.090 -0.3107  1.0088  0.5404
33926SOL     OW 3784   1.281   7.073   7.311 -0.2443  0.4916  0.3950
33926SOL    HW1 3785   1.318   6.999   7.359 -1.6585 -1.4772 -1.3707
33926SOL    HW2 3786   1.283   7.145   7.374  2.8757 -0.4786  1.6267
33927SOL     OW 3787   3.832   0.190   9.086 -0.5571  0.8808 -0.3441
33927SOL    HW1 3788   3.890   0.250   9.039 -1.2921  0.1535 -2.2488
33927SOL    HW2 3789   3.886   0.113   9.104 -0.9725  0.0539 -2.4315
33928SOL     OW 3790   9.451   8.179   3.838  0.8965 -0.3554 -0.3785
33928SOL    HW1 3791   9.520   8.230   3.882  1.1138 -1.4731  0.6540
33928SOL    HW2 3792   9.387   8.244   3.809  1.7288  0.5917 -0.1456
33929SOL     OW 3793   4.029   0.895  10.487  0.2354  0.2382 -0.6755
33929SOL    HW1 3794   4.079   0.875  10.566 -1.3949  0.4646  0.4551
33929SOL    HW2 3795   4.015   0.989  10.490 -0.9426  0.0736 -0.5230
33930SOL     OW 3796  10.914   2.855   2.031  0.4004  0.3073  0.4678
33930SOL    HW1 3797  11.000   2.891   2.054  1.8353 -2.1272 -0.6430
33930SOL    HW2 3798  10.890   2.800   2.106 -1.0424  2.1863  1.4799
33931SOL     OW 3799   4.798   3.479   3.142  0.5089  0.4302  0.7597
33931SOL    HW1 3800   4.729   3.469   3.076  1.2601 -1.3985  0.1722
33931SOL    HW2 3801   4.768   3.550   3.198 -1.4132  0.2940 -0.0161
33932SOL     OW 3802   3.076   0.466  10.221  0.6451 -0.5431  0.1859
33932SOL    HW1 3803   3.009   0.523  10.258 -2.5411 -1.7837 -3.1778
33932SOL    HW2 3804   3.138   0.526  10.178 -1.5443  0.5633 -1.5952
33933SOL     OW 3805   6.217   4.897   1.692 -0.4980  0.5323  1.0172
33933SOL    HW1 3806   6.176   4.819   1.654  0.1304  0.2399  0.9346
33933SOL    HW2 3807   6.204   4.887   1.787  0.4295 -0.1732  1.0875
33934SOL     OW 3808   9.974   9.062   7.281 -0.3923 -0.2143 -0.7198
33934SOL    HW1 3809   9.987   9.002   7.207  2.8479 -0.2399 -0.3053
33934SOL    HW2 3810   9.993   9.008   7.358 -0.7805  0.5287 -0.0971
33935SOL     OW 3811  10.906  10.524   9.763  0.4551 -0.3432  0.1842
33935SOL    HW1 3812  10.834  10.531   9.824  0.2044  0.6899 -0.2057
33935SOL    HW2 3813  10.866  10.531   9.676  1.1957  2.7658 -0.0200
33936SOL     OW 3814   2.591   2.792  11.052  0.6300  0.0377  0.3049
33936SOL    HW1 3815   2.578   2.702  11.082  1.2901 -0.2931 -0.3715
33936SOL    HW2 3816   2.505   2.833  11.062 -0.0885 -1.1090 -0.8427
33937SOL     OW 3817   1.868   2.696   2.102 -0.4612  0.4321  0.0696
33937SOL    HW1 3818   1.848   2.762   2.035 -2.9005 -1.2812 -1.0703
33937SOL    HW2 3819   1.814   2.722   2.177 -0.9483  0.1209 -0.1624
33938SOL     OW 3820   5.715   2.732   3.205 -0.5373  1.1263 -0.2360
33938SOL    HW1 3821   5.641   2.701   3.153 -0.2246 -1.1637  0.5409
33938SOL    HW2 3822   5.676   2.779   3.278 -1.3122 -0.3786  0.3708
33939SOL     OW 3823   6.351   0.491   7.531 -0.2071 -0.2202 -0.0409
33939SOL    HW1 3824   6.324   0.449   7.613 -1.1446 -0.1702 -0.3109
33939SOL    HW2 3825   6.300   0.572   7.527 -0.4813 -0.4215 -0.8692
33940SOL     OW 3826   3.367   8.719   9.164  0.1836  0.7273 -0.1828
33940SOL    HW1 3827   3.336   8.676   9.085 -0.1262  1.9756 -0.7740
33940SOL    HW2 3828   3.459   8.740   9.145  0.2274  0.6620 -0.0466
33941SOL     OW 3829   5.419   4.220   2.806 -0.2937  0.1069  0.4790
33941SOL    HW1 3830   5.351   4.287   2.799  2.2341  2.8159 -0.2948
33941SOL    HW2 3831   5.462   4.221   2.721 -0.4255 -2.9891  0.2593
33942SOL     OW 3832   4.635   7.305   5.870 -0.2766 -0.1535  0.1006
33942SOL    HW1 3833   4.696   7.251   5.820  0.5643 -0.5360  1.5051
33942SOL    HW2 3834   4.656   7.288   5.961 -2.2621 -0.0185  0.6320
33943SOL     OW 3835   8.970   5.225   6.755  0.3639  0.1934 -0.1839
33943SOL    HW1 3836   9.045   5.239   6.698  1.3104  1.5566  1.3025
33943SOL    HW2 3837   8.944   5.313   6.782 -0.3606 -0.3773  1.0730
33944SOL     OW 3838   4.829   6.108   6.312 -0.2186  0.1463  0.4125
33944SOL    HW1 3839   4.899   6.122   6.248 -1.2588 -0.1166 -0.8305
33944SOL    HW2 3840   4.857   6.031   6.362 -0.3142 -0.9047 -1.0880
33945SOL     OW 3841   5.200   2.608   7.075 -0.5523 -0.4248  0.8523
33945SOL    HW1 3842   5.124   2.663   7.060 -0.3384 -0.5656 -0.8591
33945SOL    HW2 3843   5.257   2.661   7.131 -1.1202  0.3832  0.6848
33946SOL     OW 3844   6.170   3.154   1.866 -0.6010  0.8853 -0.1494
33946SOL    HW1 3845   6.082   3.133   1.835 -0.5138  0.7360 -0.2959
33946SOL    HW2 3846   6.161   3.241   1.905 -0.9219  0.6605  0.2889
33947SOL     OW 3847   1.052  11.036   9.165  0.0433 -0.2196  0.6922
33947SOL    HW1 3848   1.017  10.973   9.101 -0.5087 -1.3979  2.0921
33947SOL    HW2 3849   1.008  11.118   9.143  0.3300 -0.4462 -0.8165
33948SOL     OW 3850   5.009   8.526   0.195  0.2917  0.3092  0.6751
33948SOL    HW1 3851   4.922   8.515   0.156  1.4158 -0.4470 -1.8719
33948SOL    HW2 3852   5.050   8.439   0.189  2.2404  1.2477 -1.0181
33949SOL     OW 3853   2.991   3.007   2.266  0.6126  1.3198  0.6936
33949SOL    HW1 3854   3.032   2.922   2.252 -1.3359  0.3689  0.4870
33949SOL    HW2 3855   2.977   3.012   2.360 -1.4777  0.2825  0.4870
33950SOL     OW 3856   6.159   9.293  10.899 -0.0085 -0.3051 -0.0099
33950SOL    HW1 3857   6.177   9.371  10.952 -0.3112 -0.4751  0.3500
33950SOL    HW2 3858   6.066   9.275  10.914 -0.3368  0.1801 -1.3179
33951SOL     OW 3859   6.359   3.867   3.556 -0.1913 -0.1494 -0.1633
33951SOL    HW1 3860   6.316   3.947   3.587 -0.2278  0.1662 -0.9796
33951SOL    HW2 3861   6.290   3.801   3.558 -0.0003 -0.3244  1.1138
33952SOL     OW 3862  10.559   0.342  10.124  0.5588  0.4840 -0.5246
33952SOL    HW1 3863  10.520   0.371  10.207  0.1838 -0.1478 -0.4768
33952SOL    HW2 3864  10.484   0.327  10.067  0.8146  0.8609 -0.9676
33953SOL     OW 3865   0.064   2.077   0.774  0.1497 -0.5204 -0.5656
33953SOL    HW1 3866  -0.019   2.105   0.736 -0.8272 -1.4155  0.8182
33953SOL    HW2 3867   0.059   2.105   0.866  1.2366 -0.8796 -0.3816
33954SOL     OW 3868  10.057   9.521   1.838  0.1699 -0.1339  0.1763
33954SOL    HW1 3869  10.121   9.591   1.848  2.3767 -1.9353 -0.6020
33954SOL    HW2 3870  10.109   9.440   1.839 -2.0743 -1.6784 -0.7207
33955SOL     OW 3871   6.945  10.376   0.843 -0.0969  0.1408 -0.2457
33955SOL    HW1 3872   6.865  10.427   0.853  0.2011  0.6419 -0.3888
33955SOL    HW2 3873   7.009  10.420   0.899  0.0349 -0.3604  0.0032
33956SOL     OW 3874   3.159   7.681   2.403  0.0503  0.5385 -0.6808
33956SOL    HW1 3875   3.083   7.626   2.423 -1.4856  2.5710 -0.5980
33956SOL    HW2 3876   3.201   7.697   2.487  0.4453 -0.3910 -0.6935
33957SOL     OW 3877   0.373   5.981   9.237 -0.2617 -0.6768  0.2144
33957SOL    HW1 3878   0.292   5.989   9.288 -1.2591 -0.5534 -1.3229
33957SOL    HW2 3879   0.362   5.901   9.186  1.0498 -1.2112  0.7127
33958SOL     OW 3880   8.927  11.096  10.667 -0.2148  0.2739 -0.2290
33958SOL    HW1 3881   8.913  11.008  10.634 -1.1186 -0.0262  0.8829
33958SOL    HW2 3882   8.864  11.105  10.739  0.7289  1.3760  0.4900
33959SOL     OW 3883   3.481   3.023   0.597 -0.2811  0.2634 -0.5382
33959SOL    HW1 3884   3.437   3.096   0.643 -2.1571 -1.9968  1.5424
33959SOL    HW2 3885   3.425   2.947   0.614  3.2573 -2.4150  0.3400
33960SOL     OW 3886   8.619   6.485   0.038 -0.2157 -0.4111 -0.0195
33960SOL    HW1 3887   8.685   6.428   0.076  1.5080  1.5861  0.1765
33960SOL    HW2 3888   8.581   6.531   0.114  1.6870  1.9788 -0.3965
33961SOL     OW 3889   1.120   4.732   9.362  0.3028  0.8482 -0.2298
33961SOL    HW1 3890   1.086   4.727   9.272 -0.6307  0.4580  0.1290
33961SOL    HW2 3891   1.208   4.694   9.356 -0.6330 -1.4569 -0.5785
33962SOL     OW 3892   1.708   3.064  10.391  0.1625  0.1372  0.2364
33962SOL    HW1 3893   1.764   2.988  10.377 -1.4461 -1.0150 -0.2612
33962SOL    HW2 3894   1.765   3.139  10.375  1.8284 -0.9387  0.8485
33963SOL     OW 3895   0.913   6.304   0.398  0.3495  0.1512  0.0765
33963SOL    HW1 3896   0.902   6.230   0.458 -1.5975 -0.7430 -1.2594
33963SOL    HW2 3897   1.006   6.306   0.379  0.6236 -1.1658  1.1366
33964SOL     OW 3898  10.073  10.470   6.280  0.0678 -0.3825  0.2121
33964SOL    HW1 3899  10.003  10.535   6.288 -0.0806 -0.4332 -0.6095
33964SOL    HW2 3900  10.144  10.505   6.333  0.4645  1.1005 -1.2301
33965SOL     OW 3901   9.476   2.134   7.387  0.4634 -0.2554 -0.1416
33965SOL    HW1 3902   9.523   2.199   7.333  0.2655  0.7967  0.9123
33965SOL    HW2 3903   9.458   2.180   7.469 -2.4784 -0.5832 -0.5207
33966SOL     OW 3904   0.079   7.457   4.855 -0.1927 -0.6795 -0.1263
33966SOL    HW1 3905   0.129   7.375   4.851 -2.4864 -2.3033  1.4769
33966SOL    HW2 3906   0.012   7.447   4.788 -0.5128 -0.1301  0.1103
33967SOL     OW 3907   4.140   7.262   8.257 -0.0206  0.4316 -0.2468
33967SOL    HW1 3908   4.122   7.276   8.350  2.9646 -0.9639  0.6477
33967SOL    HW2 3909   4.212   7.323   8.238 -0.3298  0.4078 -1.5648
33968SOL     OW 3910   2.313   7.675   9.174  0.3754  0.1611  0.6477
33968SOL    HW1 3911   2.236   7.719   9.211  0.1997  0.1779  0.2670
33968SOL    HW2 3912   2.363   7.647   9.250 -0.2098 -0.2077  0.9078
33969SOL     OW 3913   7.243   0.037  10.348 -0.4061 -0.1411  0.2538
33969SOL    HW1 3914   7.253  -0.013  10.429 -2.0456  1.3773  1.4767
33969SOL    HW2 3915   7.305   0.109  10.356 -1.2175  0.5394  0.6459
33970SOL     OW 3916   9.791   7.612   5.996 -0.0506  0.9157 -0.4228
33970SOL    HW1 3917   9.823   7.666   6.068  1.9015 -0.4100 -0.2207
33970SOL    HW2 3918   9.726   7.554   6.036  0.6500  0.5299  0.1622
33971SOL     OW 3919   0.899  10.668   1.698  0.0530  0.3418  0.3805
33971SOL    HW1 3920   0.848  10.618   1.634  3.1263 -0.6634 -1.5104
33971SOL    HW2 3921   0.906  10.755   1.661  1.2078 -0.0394 -0.3562
33972SOL     OW 3922   9.194   0.367   5.722 -0.2906  0.0059  0.2034
33972SOL    HW1 3923   9.162   0.281   5.694 -0.8802  0.2498  0.1118
33972SOL    HW2 3924   9.289   0.363   5.709 -0.3503 -0.5242 -0.0918
33973SOL     OW 3925   5.882   7.724  10.438 -0.2539  0.4940  0.7121
33973SOL    HW1 3926   5.952   7.699  10.377  1.7446  3.4483  1.5904
33973SOL    HW2 3927   5.816   7.656  10.427  2.0827 -1.6825 -1.2690
33974SOL     OW 3928   7.291   7.017   7.627 -0.2309 -0.4106 -0.0742
33974SOL    HW1 3929   7.247   6.934   7.646 -1.6650 -0.1307 -1.9551
33974SOL    HW2 3930   7.367   6.993   7.575 -2.4133 -0.4650 -3.5570
33975SOL     OW 3931   8.060   4.602   9.833 -0.1431  1.0990 -0.2906
33975SOL    HW1 3932   8.044   4.522   9.884 -0.1527  1.1960 -0.1420
33975SOL    HW2 3933   8.156   4.609   9.831 -0.0563  0.0285 -1.9334
33976SOL     OW 3934   2.641   1.598  10.467  0.2813 -0.3209  0.2433
33976SOL    HW1 3935   2.591   1.678  10.484  0.3389 -0.1968 -0.1572
33976SOL    HW2 3936   2.677   1.574  10.552 -0.0539 -0.1358  0.4411
33977SOL     OW 3937   0.257   8.777   5.690  0.0854  0.1071 -0.5883
33977SOL    HW1 3938   0.230   8.720   5.763 -0.8006 -0.3052 -1.2177
33977SOL    HW2 3939   0.352   8.776   5.693  0.1944  2.9765  2.8053
33978SOL     OW 3940   2.780  10.502   1.188  0.5798  0.1201  0.2068
33978SOL    HW1 3941   2.836  10.531   1.259 -0.1356  0.0644  0.7999
33978SOL    HW2 3942   2.716  10.445   1.229  1.2247 -1.3741 -0.7440
33979SOL     OW 3943   6.318   7.792   4.950  0.3306  0.0091 -0.6813
33979SOL    HW1 3944   6.339   7.758   4.864  0.0786 -1.2127 -0.2846
33979SOL    HW2 3945   6.241   7.742   4.978  0.2665  0.5416  0.1563
33980SOL     OW 3946   5.864   8.678   9.804  0.1153 -0.7231  0.3654
33980SOL    HW1 3947   5.898   8.687   9.714 -0.4996 -0.2031  0.1799
33980SOL    HW2 3948   5.833   8.588   9.808  1.4782 -1.2132  0.5357
33981SOL     OW 3949   2.343   4.823   9.921 -0.0614 -0.5409 -0.2915
33981SOL    HW1 3950   2.290   4.886   9.970  2.1659  1.0359  0.1923
33981SOL    HW2 3951   2.307   4.826   9.832 -2.1377 -1.1520  0.4510
33982SOL     OW 3952   0.136   5.918   3.711 -0.0055  0.0915  0.0639
33982SOL    HW1 3953   0.193   5.994   3.726 -0.4513  0.2040  1.2510
33982SOL    HW2 3954   0.101   5.932   3.623 -2.8169  3.1394  1.4707
33983SOL     OW 3955   1.824  10.656   8.321 -0.4216  0.5629  0.0283
33983SOL    HW1 3956   1.906  10.661   8.273  0.3435 -4.4957  0.3392
33983SOL    HW2 3957   1.849  10.646   8.412 -1.4542  0.2116  0.2905
33984SOL     OW 3958   5.957   6.656   0.592 -0.3826  0.0454 -0.4834
33984SOL    HW1 3959   5.939   6.692   0.505 -1.7418  0.0698 -0.2161
33984SOL    HW2 3960   6.036   6.702   0.622 -0.5354  0.8297 -1.2476
33985SOL     OW 3961   8.504  10.630   9.993 -0.1061  0.0798  0.7116
33985SOL    HW1 3962   8.523  10.622   9.899 -1.1199 -2.6819  0.6573
33985SOL    HW2 3963   8.447  10.707  10.000 -2.3605 -1.2443 -1.4209
33986SOL     OW 3964   7.881  10.241   8.514 -0.7826  0.4390 -0.1832
33986SOL    HW1 3965   7.789  10.264   8.523 -1.3741 -2.3576  3.3053
33986SOL    HW2 3966   7.928  10.324   8.524 -2.8458  1.7732 -0.9916
33987SOL     OW 3967   5.683   0.908   3.118  1.0733  0.2570 -0.2631
33987SOL    HW1 3968   5.627   0.846   3.164  1.1557  0.5515  0.2462
33987SOL    HW2 3969   5.660   0.897   3.025  1.3878 -0.8246 -0.2293
33988SOL     OW 3970   0.689   0.239   0.485 -0.0444 -0.6270  0.3049
33988SOL    HW1 3971   0.667   0.149   0.508 -0.5255 -0.5595  0.1192
33988SOL    HW2 3972   0.655   0.249   0.396 -1.9416  0.4039  1.0996
33989SOL     OW 3973   4.195   1.824   6.543 -0.0183 -0.0801 -0.0571
33989SOL    HW1 3974   4.266   1.784   6.493 -0.7723 -2.9201  0.9552
33989SOL    HW2 3975   4.123   1.833   6.481  0.5636  1.0512 -0.6117
33990SOL     OW 3976   5.912   8.369   8.619 -1.3693 -0.2181 -0.6789
33990SOL    HW1 3977   5.970   8.324   8.558 -1.0492 -0.4739 -0.1915
33990SOL    HW2 3978   5.859   8.298   8.657 -0.3713 -0.2994  0.6265
33991SOL     OW 3979   1.060   5.109   0.646 -0.1859 -0.3885  0.6855
33991SOL    HW1 3980   1.035   5.099   0.738 -1.1469  0.0753  0.4863
33991SOL    HW2 3981   1.052   5.020   0.610 -1.8503 -0.2401  0.5816
33992SOL     OW 3982   3.498  10.316   8.502  0.2496 -0.0918 -0.3603
33992SOL    HW1 3983   3.442  10.318   8.425 -0.2991 -1.5838 -0.0277
33992SOL    HW2 3984   3.497  10.406   8.534 -2.8294 -0.2352  0.2117
33993SOL     OW 3985   0.022   8.843   1.860  0.0737 -0.1080  0.0948
33993SOL    HW1 3986  -0.064   8.869   1.893  0.6546  0.8901  0.8596
33993SOL    HW2 3987   0.074   8.826   1.938  0.4893 -1.0362 -0.3675
33994SOL     OW 3988   4.898   9.684   0.067  0.0083 -0.2590 -0.0359
33994SOL    HW1 3989   4.934   9.601   0.037 -0.8609 -0.3647 -0.8153
33994SOL    HW2 3990   4.972   9.744   0.064  0.3073 -0.6571 -0.8828
33995SOL     OW 3991   3.902  10.529   8.088 -0.0539 -0.0931  0.7861
33995SOL    HW1 3992   3.923  10.455   8.030 -0.8898 -0.1313  0.5232
33995SOL    HW2 3993   3.985  10.575   8.098  0.7538 -1.6894  1.8531
33996SOL     OW 3994   8.499  11.021   3.992 -1.0352 -0.3675  0.3689
33996SOL    HW1 3995   8.552  11.074   3.932 -0.6485  1.8281  2.4835
33996SOL    HW2 3996   8.540  10.934   3.989  0.1642  0.1994 -1.0549
33997SOL     OW 3997   6.400   6.505   3.082  0.2690  0.6116  0.1293
33997SOL    HW1 3998   6.339   6.486   3.153  0.2565 -1.5377 -0.3978
33997SOL    HW2 3999   6.482   6.528   3.127  0.1982 -0.4781  0.8455
33998SOL     OW 4000   5.269   5.523   6.759 -0.3601 -1.2346  0.2994
33998SOL    HW1 4001   5.354   5.480   6.746  0.5894  0.9801 -1.6803
33998SOL    HW2 4002   5.206   5.451   6.761  1.3441 -2.8382 -0.3079
33999SOL     OW 4003   2.624   8.337   2.063 -0.2131 -0.4682  0.3280
33999SOL    HW1 4004   2.684   8.356   2.134  0.9046 -2.8404  0.1320
33999SOL    HW2 4005   2.635   8.410   2.002  3.1193 -1.1128 -0.0651
34000SOL     OW 4006   9.531  10.177   0.749  0.3230 -0.3293 -0.3454
34000SOL    HW1 4007   9.509  10.087   0.776 -1.7420  0.1594 -0.2784
34000SOL    HW2 4008   9.580  10.213   0.824  2.9971 -1.9658 -1.1473
34001SOL     OW 4009   5.914   3.527   7.797  0.7486  0.5253 -0.5887
34001SOL    HW1 4010   5.839   3.576   7.831 -0.5509 -0.4691 -1.8926
34001SOL    HW2 4011   5.887   3.498   7.710  2.0321 -1.2398 -0.4621
34002SOL     OW 4012   3.128   8.488  10.962  0.5126  0.5273 -0.1190
34002SOL    HW1 4013   3.080   8.522  11.037  1.1194  0.3306  0.3747
34002SOL    HW2 4014   3.075   8.414  10.931  0.5677  0.2069  0.5200
34003SOL     OW 4015   7.609   8.572   0.190 -0.3411  0.7297  0.0228
34003SOL    HW1 4016   7.695   8.605   0.216 -0.4670  1.5869 -0.5763
34003SOL    HW2 4017   7.622   8.478   0.178  0.5385  0.8612 -0.1557
34004SOL     OW 4018   3.378  10.745   7.035  0.1282 -0.4324 -0.0538
34004SOL    HW1 4019   3.299  10.754   6.982  1.6625  2.1662 -2.1467
34004SOL    HW2 4020   3.416  10.662   7.008 -0.7940 -0.6967 -0.5886
34005SOL     OW 4021   2.671   8.363   5.466 -0.4254 -0.1053 -0.0213
34005SOL    HW1 4022   2.620   8.394   5.541 -1.5347  2.2219 -1.6046
34005SOL    HW2 4023   2.761   8.362   5.498 -0.8986  0.4255  1.4658
34006SOL     OW 4024   7.042   9.207   0.985 -0.1067  0.3568  0.1263
34006SOL    HW1 4025   6.988   9.253   0.920  0.5954  0.7206 -0.2092
34006SOL    HW2 4026   7.011   9.117   0.982  0.1755  0.2859 -0.9907
34007SOL     OW 4027   4.940  10.665   2.926 -0.3656  0.0709  0.5396
34007SOL    HW1 4028   4.896  10.582   2.941 -1.3581  0.2337 -1.2450
34007SOL    HW2 4029   4.921  10.717   3.004 -0.2068 -1.1604  1.4219
34008SOL     OW 4030   0.383   3.314   9.851 -0.5178 -0.2202 -0.2923
34008SOL    HW1 4031   0.373   3.393   9.905  4.6422  0.1167  0.6910
34008SOL    HW2 4032   0.455   3.335   9.792 -0.0612 -3.6814 -1.1419
34009SOL     OW 4033   6.353  11.088   1.926 -0.8033  0.1590 -0.3214
34009SOL    HW1 4034   6.386  11.025   1.990  1.2303  1.2834 -0.1533
34009SOL    HW2 4035   6.332  11.166   1.978 -0.6704  0.5262 -0.8074
34010SOL     OW 4036   7.427   6.327   6.238 -0.2256 -0.2807  0.8151
34010SOL    HW1 4037   7.371   6.383   6.184  0.7548 -0.2053 -0.1629
34010SOL    HW2 4038   7.477   6.388   6.292 -0.4894 -0.3091  1.0932
34011SOL     OW 4039   3.598   0.902  10.603 -0.4463  0.4059  0.8255
34011SOL    HW1 4040   3.660   0.882  10.533  0.8055  2.0652  1.4173
34011SOL    HW2 4041   3.628   0.849  10.677  0.6540  1.6200  1.2821
34012SOL     OW 4042   5.050   3.608   0.527 -0.1374  0.3573  0.0869
34012SOL    HW1 4043   5.111   3.619   0.600 -0.7088  0.7039  0.5332
34012SOL    HW2 4044   4.964   3.604   0.569 -0.5327  1.1681 -0.5952
34013SOL     OW 4045   4.246   3.410   9.702  0.3670 -0.3325 -0.4155
34013SOL    HW1 4046   4.253   3.390   9.795  0.5658  4.4232  0.8571
34013SOL    HW2 4047   4.336   3.408   9.670  0.3433 -1.5169 -0.4664
34014SOL     OW 4048   2.771   8.984   1.120  0.6972  0.0269 -0.5775
34014SOL    HW1 4049   2.718   8.987   1.199 -0.3952  0.2429 -1.2895
34014SOL    HW2 4050   2.844   9.044   1.137  1.6611 -1.5217  1.0517
34015SOL     OW 4051   6.368   9.665   3.065  0.3166  0.1563 -0.1741
34015SOL    HW1 4052   6.302   9.735   3.071  0.1328  0.1518 -1.7748
34015SOL    HW2 4053   6.330   9.603   3.003  2.4482  0.8718 -2.3187
34016SOL     OW 4054   9.256   4.480   8.600 -0.2567 -0.3405  0.5132
34016SOL    HW1 4055   9.349   4.502   8.590 -0.4537  0.1362 -0.4267
34016SOL    HW2 4056   9.210   4.561   8.577 -0.9431 -1.0094 -0.5539
34017SOL     OW 4057   2.434  10.584   1.409 -0.4959  0.5078 -0.0180
34017SOL    HW1 4058   2.401  10.663   1.453 -1.9954 -1.0210  1.7687
34017SOL    HW2 4059   2.388  10.582   1.325 -2.6498  0.0945  1.1150
34018SOL     OW 4060  10.116   3.434   5.966 -0.3559  0.1696 -0.2437
34018SOL    HW1 4061  10.094   3.341   5.953  1.7546 -0.1732 -1.8707
34018SOL    HW2 4062  10.091   3.452   6.057 -0.4588 -2.1034  0.2364
34019SOL     OW 4063   9.599   7.511   0.009 -0.3204 -0.3070  0.0049
34019SOL    HW1 4064   9.509   7.506  -0.024 -0.0035 -1.9850 -0.7116
34019SOL    HW2 4065   9.604   7.443   0.076  0.4850 -0.4116 -0.1520
34020SOL     OW 4066   2.361   4.620   3.362 -0.1924 -0.3276  0.0717
34020SOL    HW1 4067   2.386   4.528   3.370 -2.2805 -0.8930  1.1649
34020SOL    HW2 4068   2.300   4.622   3.289  1.8092  0.7400 -1.6639
34021SOL     OW 4069   1.003   0.299   0.071  0.2909 -0.5875 -0.6138
34021SOL    HW1 4070   1.052   0.309   0.153 -0.9210 -0.3518  0.1091
34021SOL    HW2 4071   0.912   0.292   0.099 -0.3683  1.4528 -2.0405
34022SOL     OW 4072   4.676   4.227   1.742 -0.7542  0.5043 -0.3786
34022SOL    HW1 4073   4.669   4.283   1.819 -1.0697  1.1990 -0.8959
34022SOL    HW2 4074   4.714   4.284   1.675  1.6009 -0.6851 -0.1621
34023SOL     OW 4075   9.597   9.882   3.625  0.2123 -0.3724 -0.1601
34023SOL    HW1 4076   9.692   9.891   3.615  0.3251  0.1413  1.1750
34023SOL    HW2 4077   9.564   9.883   3.535  1.2308  2.2320 -0.6017
34024SOL     OW 4078   9.390   8.482   7.064 -0.4421  0.4171 -0.2547
34024SOL    HW1 4079   9.444   8.406   7.085 -1.7788 -0.5699 -0.2855
34024SOL    HW2 4080   9.406   8.543   7.137  1.7469  0.7655 -0.9511
34025SOL     OW 4081   6.668   9.892   9.182  0.6939  0.1635 -0.4958
34025SOL    HW1 4082   6.693   9.952   9.253  3.8405 -1.1219 -0.3297
34025SOL    HW2 4083   6.633   9.815   9.228 -0.0470  0.4783 -0.5228
34026SOL     OW 4084   7.110   7.305   1.158  0.1021  0.0451 -0.3631
34026SOL    HW1 4085   7.200   7.275   1.143  0.1261  0.2626 -0.6368
34026SOL    HW2 4086   7.066   7.227   1.194  0.1269 -0.3707 -1.2193
34027SOL     OW 4087   0.301   3.303   4.227  0.3247  0.2769  0.1015
34027SOL    HW1 4088   0.210   3.329   4.238 -0.2010 -1.1769 -0.6312
34027SOL    HW2 4089   0.338   3.370   4.170  0.9494  3.3170  3.6665
34028SOL     OW 4090   9.695   6.038   3.004 -0.3364  0.2060 -0.5171
34028SOL    HW1 4091   9.606   6.073   3.009 -1.6337 -2.7716 -0.1812
34028SOL    HW2 4092   9.751   6.109   3.034 -2.5822  2.2222 -0.8270
34029SOL     OW 4093  11.046   4.313   7.447  0.2289 -0.1368 -0.2119
34029SOL    HW1 4094  11.062   4.406   7.430 -2.2508  0.3202 -0.3884
34029SOL    HW2 4095  10.994   4.283   7.373  1.0405 -1.7376 -0.1997
34030SOL     OW 4096   5.114   2.926   5.547 -0.1283  0.0930 -0.0070
34030SOL    HW1 4097   5.169   2.882   5.482 -0.7393  2.0048 -1.9367
34030SOL    HW2 4098   5.047   2.971   5.495  1.9272  5.5126  1.3577
34031SOL     OW 4099  10.710   1.123   6.937  0.3647  0.3827  0.2530
34031SOL    HW1 4100  10.758   1.199   6.970 -0.6337  1.1970 -0.1275
34031SOL    HW2 4101  10.706   1.136   6.842  0.4112 -0.2874  0.1514
34032SOL     OW 4102   5.947   5.658   1.040  0.1752 -0.0522 -0.0821
34032SOL    HW1 4103   6.033   5.676   1.003 -0.2247  1.2993 -0.3920
34032SOL    HW2 4104   5.891   5.728   1.007 -0.8668 -0.4520  0.7650
34033SOL     OW 4105   3.837   9.935   5.775  0.2068  0.0078 -0.2906
34033SOL    HW1 4106   3.766   9.883   5.811 -0.2752  0.7177 -0.1919
34033SOL    HW2 4107   3.892   9.872   5.728  1.3321 -1.1045  2.3481
34034SOL     OW 4108   3.454  10.507   4.054  0.5838 -0.4978 -0.2674
34034SOL    HW1 4109   3.478  10.537   4.142 -0.9765 -2.2313  0.8282
34034SOL    HW2 4110   3.358  10.509   4.054  0.4585  2.5590 -3.1218
34035SOL     OW 4111   1.185   2.425   2.782  0.5563 -0.0094  0.1197
34035SOL    HW1 4112   1.253   2.365   2.752 -0.3204 -0.9637 -0.0279
34035SOL    HW2 4113   1.221   2.465   2.860  1.8499  0.5719 -0.7394
34036SOL     OW 4114   2.153   8.465   8.931  0.7042  0.0380 -0.5841
34036SOL    HW1 4115   2.082   8.442   8.871  0.7625  0.6639 -0.9020
34036SOL    HW2 4116   2.138   8.410   9.008 -0.3837  0.4705 -0.4657
34037SOL     OW 4117   2.050   6.755   1.289 -0.0622  0.2941  0.1776
34037SOL    HW1 4118   2.136   6.764   1.329 -0.6827  1.2804  1.3545
34037SOL    HW2 4119   1.990   6.799   1.349 -1.1231  1.4261 -1.5920
34038SOL     OW 4120   9.609   7.107   4.260  0.0791  0.3170 -0.2589
34038SOL    HW1 4121   9.514   7.095   4.252 -0.2537  1.3884  1.5504
34038SOL    HW2 4122   9.630   7.179   4.201 -0.3000  0.3793 -0.3171
34039SOL     OW 4123   2.579   9.707   7.773  0.6776 -0.1866 -0.7704
34039SOL    HW1 4124   2.654   9.693   7.716  0.4636 -1.7303 -0.7017
34039SOL    HW2 4125   2.537   9.786   7.738  2.5071  0.9223 -0.5772
34040SOL     OW 4126   5.713   2.925   9.852  0.3626  0.3909  0.1478
34040SOL    HW1 4127   5.802   2.890   9.852 -0.1225 -0.8874  0.4901
34040SOL    HW2 4128   5.666   2.872   9.916 -0.4739  1.5295  0.5105
34041SOL     OW 4129   2.235   1.557   1.474  0.1402  0.2367 -0.2341
34041SOL    HW1 4130   2.269   1.637   1.433  0.2732  0.7408  0.8302
34041SOL    HW2 4131   2.171   1.588   1.538 -1.8242 -0.6599 -1.6499
34042SOL     OW 4132   0.384   1.664   3.576  0.0677  0.4830  1.1687
34042SOL    HW1 4133   0.358   1.755   3.558  0.5369  0.2906 -0.6116
34042SOL    HW2 4134   0.477   1.670   3.596  0.4706  0.2510 -0.4932
34043SOL     OW 4135   3.901   8.291   0.264  0.2689 -0.1026 -0.4111
34043SOL    HW1 4136   3.810   8.313   0.283  0.7944 -0.3330  2.8940
34043SOL    HW2 4137   3.931   8.362   0.207 -1.6174  0.6690 -0.5296
34044SOL     OW 4138   8.692   7.823   1.917 -0.2332  0.4793  0.2609
34044SOL    HW1 4139   8.740   7.853   1.994  1.0029  2.5795 -1.2499
34044SOL    HW2 4140   8.715   7.730   1.909 -0.1094  0.3158  2.1897
34045SOL     OW 4141   8.536   0.850   3.962 -0.4945  0.2070  0.0299
34045SOL    HW1 4142   8.475   0.874   4.031 -0.9087  0.7523 -0.5128
34045SOL    HW2 4143   8.555   0.933   3.917 -1.4343 -0.3585 -1.4784
34046SOL     OW 4144   4.896   7.092   2.568 -0.3109  0.0911 -0.4559
34046SOL    HW1 4145   4.988   7.093   2.592  0.0105  1.1871 -1.5993
34046SOL    HW2 4146   4.880   7.003   2.537 -0.2220 -0.7365  1.7179
34047SOL     OW 4147   3.131   2.639   6.880  0.4745  0.8056  0.5499
34047SOL    HW1 4148   3.110   2.703   6.948  0.0969  0.8884  0.3585
34047SOL    HW2 4149   3.221   2.612   6.900 -0.1458 -0.3540  2.0376
34048SOL     OW 4150   6.572  10.276   9.971  0.3476 -0.2220 -0.3636
34048SOL    HW1 4151   6.527  10.350   9.930  0.9131  1.2397  1.5176
34048SOL    HW2 4152   6.524  10.261  10.053  0.7457 -1.4053 -0.3261
34049SOL     OW 4153   9.279   3.671   2.812 -0.1637  0.0302 -0.4423
34049SOL    HW1 4154   9.367   3.686   2.846  0.4003 -3.3904 -0.0028
34049SOL    HW2 4155   9.222   3.675   2.889  0.2690 -1.7729  0.0263
34050SOL     OW 4156   5.255   6.517   5.547  0.1416  0.3080 -0.1081
34050SOL    HW1 4157   5.322   6.560   5.495 -0.5755  0.3713 -1.0152
34050SOL    HW2 4158   5.177   6.518   5.491 -0.4892 -0.1673  0.7350
34051SOL     OW 4159   7.004   4.639   6.382 -0.0834  0.1239 -0.7928
34051SOL    HW1 4160   6.988   4.593   6.299  0.1954  0.8047 -1.2267
34051SOL    HW2 4161   7.050   4.719   6.357 -1.7678  1.3263 -0.1908
34052SOL     OW 4162  11.089   0.023   1.409 -0.3813 -0.3730 -0.1256
34052SOL    HW1 4163  11.123   0.025   1.499 -0.4325  0.5185 -0.1208
34052SOL    HW2 4164  11.168   0.017   1.355 -0.3991 -2.5445  0.0017
34053SOL     OW 4165   8.734   9.919   6.915  0.3329  0.0005 -0.5269
34053SOL    HW1 4166   8.731  10.011   6.889 -0.1244  0.4850  1.1129
34053SOL    HW2 4167   8.642   9.891   6.916  0.3242  0.0155  0.5202
34054SOL     OW 4168   7.378   8.119   4.887 -0.3997 -0.5470  0.3799
34054SOL    HW1 4169   7.387   8.148   4.978 -2.5843  1.3526  0.0821
34054SOL    HW2 4170   7.299   8.064   4.887  0.7979 -2.3454 -0.0291
34055SOL     OW 4171   9.856   8.906   2.967 -0.0552  0.1583 -0.1069
34055SOL    HW1 4172   9.885   8.986   3.011  1.9467 -0.4573 -0.2531
34055SOL    HW2 4173   9.839   8.933   2.877 -3.4085  1.2540  0.6950
34056SOL     OW 4174   3.710   9.160   2.725  0.9050 -0.4208  0.2369
34056SOL    HW1 4175   3.668   9.210   2.655 -0.2737 -0.9634  0.5252
34056SOL    HW2 4176   3.678   9.202   2.806  0.3136 -1.3016  0.4719
34057SOL     OW 4177  10.068   0.699   7.993 -0.7254 -0.1103  0.7290
34057SOL    HW1 4178  10.103   0.666   8.076 -0.3942  1.3391  1.1807
34057SOL    HW2 4179   9.993   0.754   8.018 -0.7081  0.2340  0.0591
34058SOL     OW 4180   5.230  10.734   4.753  0.1927  0.0263 -0.1245
34058SOL    HW1 4181   5.238  10.731   4.849  3.5098 -2.1712 -0.3269
34058SOL    HW2 4182   5.192  10.649   4.730 -0.6374  0.5659 -0.7993
34059SOL     OW 4183   7.672   0.454   3.637 -0.1721 -0.2204  0.2283
34059SOL    HW1 4184   7.582   0.444   3.669  0.6722 -2.0004  2.3154
34059SOL    HW2 4185   7.701   0.365   3.618  1.5538  0.1785  0.8048
34060SOL     OW 4186   8.040   6.901   8.360  0.4624  0.1513 -0.0293
34060SOL    HW1 4187   8.108   6.847   8.401  1.7995  0.7259 -1.3794
34060SOL    HW2 4188   8.089   6.968   8.312 -1.0915  0.9391 -0.5825
34061SOL     OW 4189   8.460   9.921   2.279  0.5233 -0.3101 -0.2348
34061SOL    HW1 4190   8.464   9.999   2.334  1.2238 -0.5135  0.0128
34061SOL    HW2 4191   8.551   9.902   2.258  0.7835 -3.1253  2.6636
34062SOL     OW 4192   4.927   8.484   1.627 -0.6205  0.1029  0.2513
34062SOL    HW1 4193   4.922   8.555   1.691 -1.9975  0.6010 -0.3785
34062SOL    HW2 4194   4.944   8.527   1.544  1.8322 -0.5944  0.3045
34063SOL     OW 4195   1.403  10.907   8.467  0.6961 -0.5836  0.0846
34063SOL    HW1 4196   1.487  10.882   8.429  0.0569 -3.3505  0.2881
34063SOL    HW2 4197   1.367  10.971   8.406  2.4004 -0.2407 -0.6297
34064SOL     OW 4198   6.441   3.159   7.098 -0.4394 -0.4797 -0.1609
34064SOL    HW1 4199   6.463   3.074   7.059  0.9581 -0.3502  0.3020
34064SOL    HW2 4200   6.345   3.162   7.095 -0.4703 -1.5942 -1.1838
34065SOL     OW 4201  11.018   7.859   0.559  0.7540  0.8412  0.9256
34065SOL    HW1 4202  10.925   7.880   0.555  0.7720  0.7643  0.0830
34065SOL    HW2 4203  11.062   7.944   0.553  0.7419  0.8658  1.1873
34066SOL     OW 4204   0.921   1.561   9.864  0.1486 -0.2072  0.8409
34066SOL    HW1 4205   1.015   1.581   9.863 -0.1966  1.5677  1.1296
34066SOL    HW2 4206   0.878   1.647   9.868 -1.6038 -0.6968 -2.9380
34067SOL     OW 4207   6.471   4.832   2.376 -0.1969 -0.2149  0.5686
34067SOL    HW1 4208   6.500   4.924   2.381  1.9370 -0.8705  1.2349
34067SOL    HW2 4209   6.505   4.801   2.292  0.3869 -0.7717  0.9978
34068SOL     OW 4210  10.801   7.161   0.229  0.0044  0.5897 -0.0327
34068SOL    HW1 4211  10.785   7.067   0.216 -0.1694  0.4055  1.3241
34068SOL    HW2 4212  10.792   7.173   0.324 -2.7900  2.4961 -0.4261
34069SOL     OW 4213   5.814   5.129   2.607  0.0707  0.5000  0.1467
34069SOL    HW1 4214   5.850   5.168   2.527 -0.1215  0.0451 -0.1670
34069SOL    HW2 4215   5.858   5.044   2.614  1.0138  1.0537  1.2131
34070SOL     OW 4216   0.566   7.749  10.412 -0.2175 -0.3976  0.1381
34070SOL    HW1 4217   0.534   7.659  10.405  0.2697 -0.4753 -1.7442
34070SOL    HW2 4218   0.542   7.789  10.328 -0.1185  1.1326  0.8103
34071SOL     OW 4219  10.721   8.850   0.783 -0.4443 -0.0499  0.6906
34071SOL    HW1 4220  10.717   8.928   0.729 -0.5900 -0.2275  0.4414
34071SOL    HW2 4221  10.775   8.875   0.858 -1.6492  0.7190  1.3293
34072SOL     OW 4222   6.171  10.956   5.466 -0.1681 -0.4495  0.0864
34072SOL    HW1 4223   6.241  10.995   5.518  1.0940  0.3436 -2.0686
34072SOL    HW2 4224   6.211  10.880   5.424 -0.5662 -0.0042 -1.1476
34073SOL     OW 4225   3.396   9.332   3.716  0.1878  0.2491 -0.2677
34073SOL    HW1 4226   3.440   9.406   3.673 -0.4882  0.8800  0.1078
34073SOL    HW2 4227   3.303   9.354   3.711 -0.0462 -0.7670 -0.4826
34074SOL     OW 4228   8.492   9.288   8.317  0.8459  0.0567 -0.5576
34074SOL    HW1 4229   8.530   9.246   8.394  1.6804 -1.8685 -1.9630
34074SOL    HW2 4230   8.416   9.235   8.295  0.2728  0.9312 -0.7611
34075SOL     OW 4231   8.646   3.779   2.610 -0.0710 -0.0701 -0.5601
34075SOL    HW1 4232   8.661   3.684   2.611 -1.6802 -0.3696 -1.2151
34075SOL    HW2 4233   8.728   3.816   2.577  0.9788 -1.1219  0.7386
34076SOL     OW 4234   6.974   2.097   5.320 -0.2532  0.3523  0.1503
34076SOL    HW1 4235   6.879   2.086   5.328 -0.6556  2.0614 -1.4707
34076SOL    HW2 4236   6.999   2.144   5.399 -0.7016 -0.3132  0.7036
34077SOL     OW 4237   4.358  10.437  10.156  0.2674  0.0636 -0.2344
34077SOL    HW1 4238   4.329  10.431  10.065 -0.8872 -0.5280  0.1588
34077SOL    HW2 4239   4.306  10.373  10.203 -0.9367  2.0205  1.2755
34078SOL     OW 4240   9.567   2.948  10.381  0.6004 -0.0576  0.1054
34078SOL    HW1 4241   9.554   2.951  10.476  0.5784  0.7661  0.0857
34078SOL    HW2 4242   9.655   2.983  10.368  0.7099 -0.4329 -0.1606
34079SOL     OW 4243   3.314   9.777   2.569  0.5067  0.9284 -0.0504
34079SOL    HW1 4244   3.274   9.694   2.542  2.3464 -0.4087  1.1041
34079SOL    HW2 4245   3.371   9.801   2.496  0.4457  0.8525 -0.1233
34080SOL     OW 4246   3.585   8.324   7.583 -0.1788 -0.4339 -0.0927
34080SOL    HW1 4247   3.575   8.325   7.678  0.7389  0.1475  0.0164
34080SOL    HW2 4248   3.610   8.234   7.563  2.3644  0.0185  0.5833
34081SOL     OW 4249  10.886   1.882   8.158  0.1839  0.1544  0.2486
34081SOL    HW1 4250  10.823   1.950   8.181  0.1797 -0.2884  1.6678
34081SOL    HW2 4251  10.884   1.878   8.062 -0.4416  1.5392  0.1860
34082SOL     OW 4252   7.111   5.185   0.186 -0.5444  0.1301 -0.2674
34082SOL    HW1 4253   7.118   5.271   0.145  2.0038 -0.6642 -1.7112
34082SOL    HW2 4254   7.109   5.123   0.113  0.9784 -1.1733  0.7214
34083SOL     OW 4255   5.830  10.866   0.815  0.0191  0.4632  0.1279
34083SOL    HW1 4256   5.792  10.792   0.863  0.3906  0.4075  0.3387
34083SOL    HW2 4257   5.865  10.827   0.735  1.3326  0.1927  0.8089
34084SOL     OW 4258   9.842   9.771   0.760 -0.2110  0.0761  0.1076
34084SOL    HW1 4259   9.842   9.842   0.696  3.0627 -0.7173 -0.9739
34084SOL    HW2 4260   9.841   9.691   0.706 -0.1393 -0.6475  1.1567
34085SOL     OW 4261   2.399  10.564   9.859 -0.6327 -0.6009  0.3114
34085SOL    HW1 4262   2.369  10.541   9.947 -2.5893  0.3996 -0.0483
34085SOL    HW2 4263   2.391  10.659   9.855  1.5329 -0.3778 -0.2589
34086SOL     OW 4264  10.319   2.660  10.724 -0.3919  0.3743  0.0480
34086SOL    HW1 4265  10.356   2.609  10.652 -1.4929 -1.3231  0.6227
34086SOL    HW2 4266  10.316   2.749  10.690  0.1922 -0.1757 -1.5805
34087SOL     OW 4267  10.459   2.122   7.991  0.0317 -0.4245 -0.0553
34087SOL    HW1 4268  10.437   2.213   8.011 -1.6941 -0.3724 -1.8716
34087SOL    HW2 4269  10.439   2.074   8.071 -0.9618  0.5155  0.2770
34088SOL     OW 4270  10.014   3.301   9.059 -0.2311  0.6034 -0.0004
34088SOL    HW1 4271   9.945   3.318   8.995 -0.2486 -0.3975 -0.2609
34088SOL    HW2 4272   9.980   3.229   9.112  0.8742 -0.3557 -0.5468
34089SOL     OW 4273   2.283   0.379   6.577  0.7775 -0.1691  0.8185
34089SOL    HW1 4274   2.310   0.299   6.621  0.5945 -0.4463  0.4322
34089SOL    HW2 4275   2.276   0.354   6.485  2.6727  0.7713  0.3623
34090SOL     OW 4276   6.393   6.860  10.785 -0.0730  0.0781 -0.6315
34090SOL    HW1 4277   6.362   6.950  10.768 -1.0469 -0.0299  0.4389
34090SOL    HW2 4278   6.347   6.834  10.865  2.3318 -0.3574  0.7188
34091SOL     OW 4279   9.565   9.516   2.994 -0.3069 -0.2791 -0.4142
34091SOL    HW1 4280   9.573   9.430   3.034  1.6520  0.3658  0.6873
34091SOL    HW2 4281   9.605   9.576   3.057  3.4173  0.7530 -3.3890
34092SOL     OW 4282   1.962  10.505   0.125 -0.1105  0.2060  0.5738
34092SOL    HW1 4283   1.919  10.583   0.159 -0.2215 -0.1212  1.2097
34092SOL    HW2 4284   1.905  10.474   0.054  1.0156  1.8852 -1.1508
34093SOL     OW 4285   6.093   3.239   2.767  0.4023 -0.4049 -1.0649
34093SOL    HW1 4286   6.069   3.278   2.683 -0.6907  0.8454 -0.2171
34093SOL    HW2 4287   6.186   3.255   2.776 -0.0621  2.4591 -0.5880
34094SOL     OW 4288   2.255   7.473   1.879  0.1153 -0.2598  0.1992
34094SOL    HW1 4289   2.289   7.389   1.911  2.1355  0.1827 -0.6777
34094SOL    HW2 4290   2.205   7.450   1.801  0.4853 -0.6644  0.0793
34095SOL     OW 4291   2.931   1.273   0.602  0.0051  0.3805 -0.3883
34095SOL    HW1 4292   3.012   1.316   0.575  0.7629  0.1837  1.4402
34095SOL    HW2 4293   2.862   1.335   0.578  0.8302  1.2882 -0.4792
34096SOL     OW 4294   4.242   1.165   4.145  0.0388 -0.2661  0.4057
34096SOL    HW1 4295   4.272   1.097   4.206 -1.1697  0.2344  1.5968
34096SOL    HW2 4296   4.190   1.225   4.199  2.1750  2.4316 -0.3105
34097SOL     OW 4297   7.331   0.447   1.440 -0.1741  0.3855 -0.4197
34097SOL    HW1 4298   7.372   0.497   1.511  2.6993 -0.6649 -1.1935
34097SOL    HW2 4299   7.306   0.513   1.375  0.2302  1.0860  0.1216
34098SOL     OW 4300   1.218   2.282   7.053 -0.3422 -0.5016 -0.3288
34098SOL    HW1 4301   1.265   2.198   7.054 -0.5121 -0.6265 -1.3672
34098SOL    HW2 4302   1.278   2.343   7.011 -0.2490 -0.1033  0.3576
34099SOL     OW 4303   0.493   8.605   2.648 -0.4315 -0.3494 -0.3458
34099SOL    HW1 4304   0.439   8.666   2.597  0.7705  2.1968  1.1921
34099SOL    HW2 4305   0.443   8.593   2.730 -0.6725 -1.5109 -0.6502
34100SOL     OW 4306   5.572  10.989   7.421 -0.3758  0.2159 -0.2493
34100SOL    HW1 4307   5.641  10.980   7.355 -0.3399 -1.5057 -0.0067
34100SOL    HW2 4308   5.492  10.963   7.375 -0.5807  0.3870  0.0065
34101SOL     OW 4309   0.196   1.114   6.163  0.5289 -0.0165  0.1113
34101SOL    HW1 4310   0.229   1.196   6.200 -1.6890  1.2543 -0.5530
34101SOL    HW2 4311   0.180   1.134   6.070  0.5863 -1.4205 -0.2273
34102SOL     OW 4312   1.481   1.623   1.713 -0.2909 -0.0914 -0.1638
34102SOL    HW1 4313   1.396   1.662   1.734  0.9824  1.8641  1.7744
34102SOL    HW2 4314   1.540   1.697   1.701  1.6206 -1.3724  0.7620
34103SOL     OW 4315   6.089   1.109   9.670 -0.0740 -0.0612  0.2930
34103SOL    HW1 4316   6.075   1.126   9.576 -0.6377 -0.5136  0.2913
34103SOL    HW2 4317   6.011   1.145   9.713  0.2410  0.2543  0.6013
34104SOL     OW 4318   7.594   3.283   8.374  0.2808  0.1683  0.7053
34104SOL    HW1 4319   7.633   3.340   8.440  0.1037  0.7854  0.2945
34104SOL    HW2 4320   7.612   3.328   8.291  2.2755 -1.5712  0.0981
34105SOL     OW 4321   7.990   3.197   9.885 -0.4681 -0.3255  0.0310
34105SOL    HW1 4322   8.036   3.114   9.901 -0.2853 -0.4739 -1.2128
34105SOL    HW2 4323   7.983   3.237   9.972  0.7968 -0.9319  0.4400
34106SOL     OW 4324   8.485   6.963   6.252 -0.1804  0.6302  0.0082
34106SOL    HW1 4325   8.522   6.961   6.163 -1.8976 -0.6741 -0.7406
34106SOL    HW2 4326   8.471   7.056   6.270  0.5486  0.9387 -0.9333
34107SOL     OW 4327   8.654   9.941   0.815  0.1988 -0.4788 -0.1540
34107SOL    HW1 4328   8.732   9.904   0.855 -0.5732 -0.7321  1.2056
34107SOL    HW2 4329   8.594   9.955   0.889 -0.0901  2.1416 -0.7913
34108SOL     OW 4330   7.526   7.810   4.638  0.3860  0.2870 -0.2707
34108SOL    HW1 4331   7.488   7.765   4.713  1.7931 -1.5108 -0.5576
34108SOL    HW2 4332   7.473   7.889   4.627 -0.8815 -0.2590  1.5585
34109SOL     OW 4333   3.544   5.842  10.326 -0.4965 -0.1426  0.5129
34109SOL    HW1 4334   3.586   5.790  10.258 -0.2827 -1.2544  1.4656
34109SOL    HW2 4335   3.617   5.882  10.374 -0.5524 -0.8992  1.2560
34110SOL     OW 4336   7.534   4.598  10.855 -0.4323  0.0048 -0.3051
34110SOL    HW1 4337   7.477   4.674  10.841  1.1120  0.9769 -1.6934
34110SOL    HW2 4338   7.609   4.633  10.904  0.9674 -0.2387 -2.1420
34111SOL     OW 4339   4.997   8.316   3.769  0.0830 -0.4157  0.2872
34111SOL    HW1 4340   5.082   8.359   3.783 -0.1513  0.0454  0.3358
34111SOL    HW2 4341   5.011   8.259   3.694  0.4909 -0.5008  0.4232
34112SOL     OW 4342   3.094  10.474   8.805  0.3851 -0.1532  0.3424
34112SOL    HW1 4343   3.159  10.431   8.748  1.2777 -0.9017  1.8686
34112SOL    HW2 4344   3.010  10.439   8.775  0.1004  3.2923 -3.9349
34113SOL     OW 4345   6.965   8.559   5.925  0.4247 -0.1475  0.0810
34113SOL    HW1 4346   6.986   8.602   6.008 -2.9439  0.6922  0.6253
34113SOL    HW2 4347   6.976   8.627   5.859  1.6482 -0.4127 -0.0235
34114SOL     OW 4348  10.439   3.983   6.651 -0.3403 -0.4136 -0.4241
34114SOL    HW1 4349  10.534   3.996   6.657 -0.5663  1.8089 -0.7709
34114SOL    HW2 4350  10.418   4.006   6.560 -1.1706 -1.3612 -0.4837
34115SOL     OW 4351   2.911   8.103   9.543  0.0017  0.2945  0.3177
34115SOL    HW1 4352   2.956   8.107   9.458 -0.8146  0.2400 -0.1236
34115SOL    HW2 4353   2.819   8.120   9.522 -0.1363  0.7468  1.2525
34116SOL     OW 4354   9.172   4.802   1.549  0.4597 -0.5993 -0.5779
34116SOL    HW1 4355   9.177   4.796   1.453 -0.1251  1.3667 -0.7714
34116SOL    HW2 4356   9.079   4.811   1.567  0.3311 -3.0732  0.3985
34117SOL     OW 4357   9.508   9.737   9.438  0.0632  0.5253 -0.2727
34117SOL    HW1 4358   9.519   9.809   9.377  0.5921  0.2269 -0.5412
34117SOL    HW2 4359   9.421   9.702   9.419  0.3726  0.1928 -1.1240
34118SOL     OW 4360   5.705   9.254   3.878  0.2230 -0.0508 -0.1190
34118SOL    HW1 4361   5.654   9.203   3.816  0.1992 -0.6137  0.3547
34118SOL    HW2 4362   5.713   9.198   3.955  1.5911  0.0017 -0.1880
34119SOL     OW 4363   6.976   4.693   8.044 -0.1186  0.0433  0.2047
34119SOL    HW1 4364   6.895   4.687   7.993 -1.0165 -2.0014  1.7384
34119SOL    HW2 4365   7.005   4.603   8.055  1.7770  0.6534  0.6615
34120SOL     OW 4366  10.128   9.732   9.550  0.7638 -0.1154 -0.0310
34120SOL    HW1 4367  10.055   9.684   9.587  0.7307  1.0296  1.4743
34120SOL    HW2 4368  10.169   9.670   9.489 -1.0479 -0.9847 -0.4451
34121SOL     OW 4369  10.992   6.533   9.093  0.0889 -0.6996  0.3403
34121SOL    HW1 4370  10.917   6.507   9.039  0.5818 -0.1666 -0.6394
34121SOL    HW2 4371  10.954   6.589   9.161 -0.3293  0.1599 -0.5705
34122SOL     OW 4372   0.436   0.212   7.277  0.2860 -0.1363 -0.4382
34122SOL    HW1 4373   0.344   0.193   7.259 -0.1488  1.5498 -0.1938
34122SOL    HW2 4374   0.484   0.159   7.213 -0.8790 -0.5403 -1.0207
34123SOL     OW 4375   8.944   4.380  10.335 -0.0138  0.3266 -0.7840
34123SOL    HW1 4376   8.955   4.398  10.429 -3.7888  1.7920 -0.4433
34123SOL    HW2 4377   9.024   4.413  10.295  1.3825  0.3942  1.8107
34124SOL     OW 4378   2.321   6.253   7.685 -0.2407  0.3966 -0.2516
34124SOL    HW1 4379   2.283   6.319   7.627  0.5048  0.0828 -1.1226
34124SOL    HW2 4380   2.266   6.176   7.673 -0.8028  0.6892  0.3773
34125SOL     OW 4381   5.670   4.687   2.273  0.5891  0.0429 -0.4424
34125SOL    HW1 4382   5.698   4.633   2.199  0.3194 -0.0469 -0.4789
34125SOL    HW2 4383   5.729   4.763   2.270  1.6319 -0.7096  0.2002
34126SOL     OW 4384   5.265   7.617   2.892 -0.6741 -0.1616 -0.5237
34126SOL    HW1 4385   5.288   7.694   2.945  1.6585 -0.9958 -0.2185
34126SOL    HW2 4386   5.262   7.651   2.803  0.9853  0.2171 -0.4754
34127SOL     OW 4387   7.972   9.501   7.458 -0.4412 -0.3336  0.4083
34127SOL    HW1 4388   8.010   9.479   7.373  0.6163 -0.1141  0.8118
34127SOL    HW2 4389   8.043   9.544   7.506 -2.3100  4.2417 -0.3461
34128SOL     OW 4390   2.274   1.047   8.503  0.6087  0.1002 -0.3696
34128SOL    HW1 4391   2.200   1.026   8.560  1.3475  3.1277  1.9670
34128SOL    HW2 4392   2.351   1.036   8.559  1.5948  0.8818 -1.5227
34129SOL     OW 4393  10.039   7.266  10.732 -0.1512 -0.2861 -0.5317
34129SOL    HW1 4394  10.123   7.221  10.723  0.1550 -0.0533  0.8650
34129SOL    HW2 4395   9.974   7.201  10.706  0.2504 -1.7814  1.8958
34130SOL     OW 4396   6.148   0.993  10.279 -0.2241 -0.4643  0.1837
34130SOL    HW1 4397   6.196   1.075  10.269 -1.3972  0.1622 -0.5612
34130SOL    HW2 4398   6.175   0.941  10.203  0.3125 -0.6697  0.5101
34131SOL     OW 4399   2.074   4.374   7.162 -0.4417 -0.8917 -0.0446
34131SOL    HW1 4400   2.150   4.402   7.112 -1.0265 -0.1257 -0.5227
34131SOL    HW2 4401   2.073   4.278   7.153  0.6320 -0.9413  0.2350
34132SOL     OW 4402   9.794   4.804   0.406 -0.1584  0.0113  0.0688
34132SOL    HW1 4403   9.771   4.769   0.492 -0.0224  0.1312  0.1545
34132SOL    HW2 4404   9.855   4.875   0.424 -0.3208  0.1993 -0.1147
34133SOL     OW 4405   2.512   7.176   6.209  0.6075 -0.3721 -0.7225
34133SOL    HW1 4406   2.554   7.091   6.220  1.9219  0.2292 -0.9185
34133SOL    HW2 4407   2.539   7.226   6.286 -1.6998 -0.7037  0.3895
34134SOL     OW 4408   0.705  10.246  10.267  0.5016  0.1629  0.3251
34134SOL    HW1 4409   0.632  10.184  10.259 -2.0711  2.8380  1.3650
34134SOL    HW2 4410   0.731  10.239  10.359  0.1512  0.6619  0.4641
34135SOL     OW 4411   4.077   3.077   4.137 -0.6616 -0.1296 -0.0866
34135SOL    HW1 4412   4.053   3.076   4.230  1.3784 -0.8243  0.5012
34135SOL    HW2 4413   4.113   2.989   4.121 -1.2549 -0.1188 -1.6260
34136SOL     OW 4414   9.943  10.454   5.181  0.0516  0.0564  0.2082
34136SOL    HW1 4415  10.006  10.526   5.185  2.2276 -1.6256 -0.9983
34136SOL    HW2 4416   9.997  10.375   5.188 -1.8321 -1.5170 -1.6413
34137SOL     OW 4417   8.665  10.484   6.317 -0.6195  0.2108  0.4558
34137SOL    HW1 4418   8.665  10.434   6.236  1.6513  1.7668 -0.5914
34137SOL    HW2 4419   8.624  10.567   6.294 -1.2120  0.1676  1.2885
34138SOL     OW 4420   1.381   9.017   5.432 -0.0092 -0.3263 -0.4243
34138SOL    HW1 4421   1.393   9.112   5.435  1.7312 -0.4670  3.6929
34138SOL    HW2 4422   1.302   9.002   5.483  0.4447 -1.1452  0.0448
34139SOL     OW 4423  10.505  10.049   2.252 -0.2510 -0.5550  0.4764
34139SOL    HW1 4424  10.442  10.113   2.284 -0.1823 -0.8987  1.3067
34139SOL    HW2 4425  10.581  10.100   2.225 -1.6181  0.1203 -2.5796
34140SOL     OW 4426   4.746   9.249   5.331  0.2344  0.5186  0.0820
34140SOL    HW1 4427   4.812   9.267   5.264 -0.0496  3.3018  0.4518
34140SOL    HW2 4428   4.729   9.333   5.372 -1.6533 -0.5989  1.7962
34141SOL     OW 4429   2.314   8.630   7.734 -0.0245  0.4115  0.7782
34141SOL    HW1 4430   2.355   8.711   7.765  0.1182  0.2507  1.0155
34141SOL    HW2 4431   2.220   8.647   7.739 -0.0253  0.1131  2.0638
34142SOL     OW 4432   0.722   0.135   3.010 -0.2732  0.0442 -0.0209
34142SOL    HW1 4433   0.767   0.220   3.006 -3.3178  1.7680 -1.1867
34142SOL    HW2 4434   0.697   0.125   3.101 -0.5516  0.8059 -0.0062
34143SOL     OW 4435  10.363   1.809   2.172  0.3574  0.4562  0.6465
34143SOL    HW1 4436  10.278   1.779   2.206  1.8408 -4.0510  1.0614
34143SOL    HW2 4437  10.399   1.864   2.242 -1.7549  1.7648  0.8135
34144SOL     OW 4438   9.462   4.634   1.690  0.0280  0.1457 -0.4336
34144SOL    HW1 4439   9.386   4.584   1.718 -0.8782  1.0449 -1.2272
34144SOL    HW2 4440   9.434   4.725   1.692 -0.3410  0.3140 -4.6009
34145SOL     OW 4441   0.977   3.120   6.263 -1.0010 -0.0389 -0.3282
34145SOL    HW1 4442   1.011   3.113   6.353  3.3351 -1.2329 -1.8197
34145SOL    HW2 4443   0.942   3.033   6.245 -0.2720 -0.3356 -0.3371
34146SOL     OW 4444   3.155   5.417   5.111 -0.4146 -0.1451  0.4315
34146SOL    HW1 4445   3.195   5.341   5.153 -0.1393  0.0147  0.4557
34146SOL    HW2 4446   3.118   5.468   5.183  0.0447  0.1216  0.4769
34147SOL     OW 4447   5.736  10.718   0.196 -0.1390 -0.0061  0.5154
34147SOL    HW1 4448   5.748  10.800   0.148 -1.4489 -0.2640 -0.3073
34147SOL    HW2 4449   5.763  10.650   0.134  0.3732 -0.2425  0.9853
34148SOL     OW 4450   5.421   5.918   8.776  0.5007 -0.5527  0.8123
34148SOL    HW1 4451   5.378   5.880   8.700 -0.0388 -0.0910  0.8832
34148SOL    HW2 4452   5.494   5.969   8.741  0.7648 -1.0321  0.6660
34149SOL     OW 4453   6.073   6.598   7.462  0.2509  0.0475 -0.6750
34149SOL    HW1 4454   6.082   6.530   7.528 -1.0889 -0.1890 -0.7186
34149SOL    HW2 4455   6.111   6.559   7.383 -1.4119 -1.0675 -0.9633
34150SOL     OW 4456   4.463   0.312   4.956 -0.4627 -0.2993  0.2532
34150SOL    HW1 4457   4.547   0.357   4.953 -1.6170  1.9587 -0.6177
34150SOL    HW2 4458   4.405   0.374   5.001 -1.9542 -1.2362 -0.3266
34151SOL     OW 4459   7.894   2.733   7.752 -0.4834 -0.2917 -0.1964
34151SOL    HW1 4460   7.820   2.696   7.799 -1.1015 -0.3453 -1.1674
34151SOL    HW2 4461   7.921   2.664   7.692  0.6790 -0.4490  0.4980
34152SOL     OW 4462   8.674  10.688  10.628 -0.1671 -0.8869  0.0384
34152SOL    HW1 4463   8.716  10.773  10.612 -1.3274 -0.2056  0.4696
34152SOL    HW2 4464   8.709  10.659  10.712 -0.2536 -0.5206  0.2013
34153SOL     OW 4465   0.539  10.729   0.237 -0.5734 -0.1025  0.6733
34153SOL    HW1 4466   0.621  10.681   0.222 -0.0454  0.9321  0.1505
34153SOL    HW2 4467   0.546  10.763   0.326 -0.4632 -0.0714  0.6525
34154SOL     OW 4468   5.770   2.512   5.581 -0.7819 -0.2260 -0.3525
34154SOL    HW1 4469   5.773   2.449   5.653  2.3196 -2.9347 -2.5471
34154SOL    HW2 4470   5.705   2.477   5.520 -0.3108 -0.3634 -0.7869
34155SOL     OW 4471   8.685   8.641   1.580  0.6624 -0.3603  0.1936
34155SOL    HW1 4472   8.678   8.545   1.579  1.4200 -0.4912 -2.4037
34155SOL    HW2 4473   8.774   8.658   1.610  0.3062 -0.4254  1.3000
34156SOL     OW 4474   8.764  10.991   9.390 -0.2852  0.4958 -0.0610
34156SOL    HW1 4475   8.776  10.978   9.296  1.0878 -3.3762  0.4679
34156SOL    HW2 4476   8.845  11.032   9.419 -0.0112  0.1896 -0.3788
34157SOL     OW 4477   0.520   1.460   2.715 -0.1821 -0.3075  0.4938
34157SOL    HW1 4478   0.595   1.419   2.672 -0.0902 -1.9571  2.0903
34157SOL    HW2 4479   0.445   1.434   2.663  0.2491  1.0231 -0.8848
34158SOL     OW 4480   4.248   7.469  10.224 -0.3863 -0.1978  0.1150
34158SOL    HW1 4481   4.322   7.506  10.176 -0.5629  0.2879  0.2094
34158SOL    HW2 4482   4.192   7.544  10.244 -1.2034 -0.6199 -0.4742
34159SOL     OW 4483   4.446   1.802   3.890  0.1067 -0.0801  0.5940
34159SOL    HW1 4484   4.417   1.713   3.870  1.2506 -0.5231  0.8465
34159SOL    HW2 4485   4.461   1.843   3.805 -1.5047  0.2660  0.4436
34160SOL     OW 4486   7.633   5.693   3.592  0.0853  0.6713  0.0162
34160SOL    HW1 4487   7.633   5.777   3.637  0.9202  1.3534 -1.2008
34160SOL    HW2 4488   7.553   5.694   3.539 -0.1147  0.5158  0.3114
34161SOL     OW 4489   6.791   0.495  10.289 -0.1868 -0.1736 -0.3303
34161SOL    HW1 4490   6.769   0.402  10.296  0.5269 -0.2700  0.9072
34161SOL    HW2 4491   6.830   0.517  10.373  1.8957  0.6541 -1.4383
34162SOL     OW 4492   0.224   0.160   9.678 -0.1194 -0.1939 -0.0028
34162SOL    HW1 4493   0.260   0.241   9.714 -0.5431 -0.1703  0.3753
34162SOL    HW2 4494   0.142   0.147   9.726 -0.7084 -0.1538 -0.9728
34163SOL     OW 4495   9.036   8.925   8.019 -0.6454  0.0892  0.8446
34163SOL    HW1 4496   9.020   8.988   7.949 -0.8117 -0.2321  0.5926
34163SOL    HW2 4497   9.055   8.843   7.974  3.1200  0.6848  1.0010
34164SOL     OW 4498   6.557   5.272   2.699 -0.0804 -0.4073 -1.0126
34164SOL    HW1 4499   6.613   5.289   2.774  0.1987  0.2419 -1.3596
34164SOL    HW2 4500   6.475   5.239   2.736  0.4775 -1.2328 -0.4948
34165SOL     OW 4501   7.229   9.356  10.918 -0.3556 -0.6234 -0.0844
34165SOL    HW1 4502   7.177   9.276  10.912 -0.9655 -0.2317 -0.1291
34165SOL    HW2 4503   7.165   9.427  10.910  0.0211 -0.1151  1.1293
34166SOL     OW 4504   6.324   7.510   0.759  0.4259 -0.3012  0.2345
34166SOL    HW1 4505   6.335   7.605   0.755 -1.6050 -0.0584 -0.5727
34166SOL    HW2 4506   6.386   7.482   0.827  0.0357  1.7888  1.5633
34167SOL     OW 4507   5.414   6.422   5.835 -0.2103 -0.3816 -0.3220
34167SOL    HW1 4508   5.331   6.386   5.868 -0.6260  0.7061 -0.1295
34167SOL    HW2 4509   5.456   6.348   5.791 -0.8268 -1.2107  0.4253
34168SOL     OW 4510   2.083   7.727   7.757  0.2484  0.0857  0.6207
34168SOL    HW1 4511   2.118   7.815   7.743 -0.5143  0.4004  0.6627
34168SOL    HW2 4512   2.158   7.676   7.789  1.0563  0.3413 -0.7906
34169SOL     OW 4513   4.757   7.647  10.613 -0.6663 -0.8034  0.3539
34169SOL    HW1 4514   4.795   7.662  10.700 -0.2815 -1.0988  0.2382
34169SOL    HW2 4515   4.675   7.695  10.615  0.1149  0.5935  0.3067
34170SOL     OW 4516  10.380   5.527   9.472 -0.0123 -0.3587 -0.1740
34170SOL    HW1 4517  10.353   5.436   9.479  0.7225 -0.5281  0.6418
34170SOL    HW2 4518  10.389   5.557   9.562  3.3555 -0.6178 -0.2866
34171SOL     OW 4519   3.525   3.668   0.332 -0.2882  0.5846  0.0562
34171SOL    HW1 4520   3.524   3.753   0.287 -1.2824  0.2620 -0.5930
34171SOL    HW2 4521   3.455   3.618   0.289 -0.0479 -0.3922  0.7584
34172SOL     OW 4522   9.098   1.574   9.652 -0.0159 -0.1281  0.2437
34172SOL    HW1 4523   9.020   1.600   9.604 -0.4729  1.1336  1.5963
34172SOL    HW2 4524   9.134   1.655   9.687  2.3749 -0.5647 -0.9679
34173SOL     OW 4525   7.021   2.646   9.477 -0.1565 -0.9305  0.1733
34173SOL    HW1 4526   7.041   2.553   9.468  0.2167 -0.8008 -0.3503
34173SOL    HW2 4527   6.936   2.648   9.522  1.1422 -1.4788  2.8048
34174SOL     OW 4528  10.045   0.276   3.143  0.2101 -0.4068 -0.4665
34174SOL    HW1 4529  10.126   0.327   3.145 -0.1627  0.1848 -0.3620
34174SOL    HW2 4530  10.053   0.216   3.217  0.2590  0.1009 -0.0615
34175SOL     OW 4531   2.099   0.205   9.029 -0.2989 -0.1419 -0.3811
34175SOL    HW1 4532   2.146   0.285   9.052  0.4177 -0.7498  0.3325
34175SOL    HW2 4533   2.114   0.146   9.103 -0.0732 -1.2569 -1.2830
34176SOL     OW 4534   9.603  10.359  10.711  0.6028  0.0769  0.3407
34176SOL    HW1 4535   9.557  10.379  10.792 -1.6094 -1.5715 -0.4127
34176SOL    HW2 4536   9.666  10.291  10.735 -0.0519 -0.4137  0.6916
34177SOL     OW 4537   1.408   3.207   1.518 -0.1623 -0.3827 -0.1746
34177SOL    HW1 4538   1.459   3.130   1.545  0.8444  0.1904 -0.4233
34177SOL    HW2 4539   1.376   3.184   1.430 -0.3475 -0.7453 -0.0169
34178SOL     OW 4540  10.520   6.912  10.877 -0.2958 -0.7669 -0.1262
34178SOL    HW1 4541  10.468   6.985  10.843  1.5852  1.0152  0.6279
34178SOL    HW2 4542  10.507   6.916  10.972  2.4904  0.8687  0.2812
34179SOL     OW 4543   2.260   2.340   9.983  0.2401  0.4496 -0.6548
34179SOL    HW1 4544   2.220   2.263   9.943 -0.5359 -0.0503  1.0039
34179SOL    HW2 4545   2.347   2.310  10.011 -0.2711 -0.0160  0.4920
34180SOL     OW 4546   8.648   9.959   1.466  0.4060 -0.1460 -0.2731
34180SOL    HW1 4547   8.553   9.965   1.481  0.1771 -2.7341 -0.1465
34180SOL    HW2 4548   8.687   9.998   1.544 -0.4974  1.7106 -0.6931
34181SOL     OW 4549   2.400   7.443   1.024 -0.3510 -0.7393 -0.0638
34181SOL    HW1 4550   2.341   7.390   0.970  0.0191 -1.6748  0.4183
34181SOL    HW2 4551   2.484   7.437   0.980 -0.5021  0.2170 -0.5007
34182SOL     OW 4552   0.101   5.427   1.866  0.6653 -0.3071 -0.2322
34182SOL    HW1 4553   0.149   5.503   1.832  0.9745 -0.0210  0.7840
34182SOL    HW2 4554   0.156   5.352   1.845  0.8411 -0.1390 -0.3771
34183SOL     OW 4555   6.308   6.885   8.913  0.3366 -0.0300 -0.6049
34183SOL    HW1 4556   6.400   6.858   8.906  0.7607  1.4456 -1.0685
34183SOL    HW2 4557   6.311   6.969   8.957 -0.8232 -0.0401 -0.4760
34184SOL     OW 4558   8.943   8.501  10.027  0.1533  0.1114 -0.0672
34184SOL    HW1 4559   8.904   8.417  10.049 -1.6718  0.8212 -0.3291
34184SOL    HW2 4560   8.906   8.522   9.941 -1.5885  2.3447  1.1174
34185SOL     OW 4561   9.990   1.273  10.092 -0.0128 -0.3559 -0.1653
34185SOL    HW1 4562  10.079   1.308  10.093 -0.5549  1.1067  1.2641
34185SOL    HW2 4563   9.959   1.288  10.003  0.8891 -0.1783 -0.4605
34186SOL     OW 4564   9.532   9.187   8.679 -0.0887 -0.3765  0.2165
34186SOL    HW1 4565   9.493   9.256   8.731  0.4193  1.1439 -1.3307
34186SOL    HW2 4566   9.525   9.109   8.734 -1.7663  0.6224  1.5270
34187SOL     OW 4567   8.489   9.973   3.624  0.0267  0.6985  0.1498
34187SOL    HW1 4568   8.460  10.056   3.664 -0.5968  0.8931 -0.6827
34187SOL    HW2 4569   8.468   9.907   3.690 -0.4771  1.0794  0.3803
34188SOL     OW 4570   8.493   1.809  10.781  0.1804 -0.4087  0.0603
34188SOL    HW1 4571   8.490   1.745  10.711  1.0035  0.1844 -0.5457
34188SOL    HW2 4572   8.473   1.760  10.860  0.5238 -1.3552 -0.4238
34189SOL     OW 4573   4.583   1.174   3.438  0.4998  0.5721 -0.3643
34189SOL    HW1 4574   4.568   1.230   3.361 -1.0357  1.6538  0.6729
34189SOL    HW2 4575   4.499   1.130   3.452  0.9139  0.0110  0.4090
34190SOL     OW 4576   9.860   5.131   2.596 -0.6761  1.0401  0.2699
34190SOL    HW1 4577   9.777   5.120   2.550 -1.6495  3.2104  1.3675
34190SOL    HW2 4578   9.836   5.145   2.688  1.0594 -0.4326  1.0308
34191SOL     OW 4579   0.918   6.869   0.609  0.3259 -1.0589  0.0932
34191SOL    HW1 4580   0.921   6.781   0.570 -0.3698 -0.1002 -2.3358
34191SOL    HW2 4581   0.977   6.921   0.554 -1.1394  0.5261 -0.0743
34192SOL     OW 4582   0.653  10.445   7.017  0.3806  0.5678 -0.0279
34192SOL    HW1 4583   0.683  10.495   6.941  0.8533  1.1668  0.5381
34192SOL    HW2 4584   0.725  10.452   7.080 -0.9892  2.2813  1.4910
34193SOL     OW 4585   3.571   7.415   2.104  0.1627  0.7290  0.0931
34193SOL    HW1 4586   3.602   7.400   2.015 -1.3398 -0.7849 -0.2240
34193SOL    HW2 4587   3.629   7.362   2.159 -0.0692  0.1915 -0.1809
34194SOL     OW 4588   2.587   9.932   3.146 -0.5225  0.0343  0.8240
34194SOL    HW1 4589   2.515   9.873   3.169  0.2841 -1.3005  0.0991
34194SOL    HW2 4590   2.555   9.981   3.070 -1.8282  1.8214  2.4343
34195SOL     OW 4591   7.151   8.789   1.612 -0.5783 -0.1996  0.0945
34195SOL    HW1 4592   7.109   8.752   1.689  0.3174  1.0960  1.2622
34195SOL    HW2 4593   7.217   8.848   1.647  0.1730  0.0820 -1.6820
34196SOL     OW 4594   6.593   1.239   5.166  0.2560 -0.5879  0.5442
34196SOL    HW1 4595   6.545   1.319   5.147 -2.5237 -2.1805  0.3623
34196SOL    HW2 4596   6.615   1.202   5.080  2.5864  0.4473  0.6060
34197SOL     OW 4597   9.121   6.938   5.202 -0.0603  0.1282 -0.1092
34197SOL    HW1 4598   9.212   6.966   5.216 -1.0100  2.3798  2.3151
34197SOL    HW2 4599   9.076   7.017   5.174 -1.7252 -0.3503  1.0830
34198SOL     OW 4600   1.066   4.054   6.882 -0.4288 -0.0684  0.2589
34198SOL    HW1 4601   1.083   4.047   6.975  0.3312 -2.5802  0.0086
34198SOL    HW2 4602   1.142   4.101   6.847 -1.2843  1.9620  0.9943
34199SOL     OW 4603   0.862   2.982   1.143  0.3725  0.0439 -0.0589
34199SOL    HW1 4604   0.836   2.890   1.147  0.4323  0.0352  0.1279
34199SOL    HW2 4605   0.956   2.979   1.122 -0.2666  0.0962 -3.5558
34200SOL     OW 4606   9.716   3.932   2.880  0.3182  0.2212  0.2027
34200SOL    HW1 4607   9.766   3.946   2.961  2.5648 -1.5035 -0.7656
34200SOL    HW2 4608   9.653   3.864   2.903 -0.9644  1.6747  1.1709
34201SOL     OW 4609   1.930   9.618   0.259 -0.1654  0.8697  0.1736
34201SOL    HW1 4610   2.021   9.648   0.264 -0.0861  0.5047  1.1929
34201SOL    HW2 4611   1.882   9.680   0.313 -0.4123  0.6559  0.1984
34202SOL     OW 4612   6.753  10.060   8.978 -0.6618  0.2820 -0.6811
34202SOL    HW1 4613   6.753   9.992   9.045 -0.7790  1.2191  0.2960
34202SOL    HW2 4614   6.845  10.082   8.965 -0.5889 -0.3827 -1.3487
34203SOL     OW 4615  10.910   3.603   6.597 -0.3109  0.1206  0.4441
34203SOL    HW1 4616  10.927   3.513   6.571  1.0285  0.7837 -1.1940
34203SOL    HW2 4617  10.858   3.639   6.526  2.1294  1.5569 -0.7616
34204SOL     OW 4618   9.191   1.298   3.069 -0.2137 -0.2957  0.2053
34204SOL    HW1 4619   9.243   1.354   3.012  0.7461 -0.1538  1.1884
34204SOL    HW2 4620   9.166   1.355   3.142 -2.5831 -0.0985 -0.6900
34205SOL     OW 4621   1.975   6.663  10.794 -0.2197  0.3616  0.2105
34205SOL    HW1 4622   1.899   6.717  10.816  0.8729  2.1913 -0.2930
34205SOL    HW2 4623   2.041   6.725  10.764  0.6265 -1.3848 -1.8432
34206SOL     OW 4624   6.363   3.577  10.424 -0.5918  0.5520 -0.0442
34206SOL    HW1 4625   6.456   3.554  10.426 -0.8536 -0.5093  0.7617
34206SOL    HW2 4626   6.352   3.622  10.340  0.9172  1.9628  0.4756
34207SOL     OW 4627   0.568   9.380   5.253  0.1748  0.3315  0.4279
34207SOL    HW1 4628   0.542   9.300   5.300 -1.7386  1.0584  0.6825
34207SOL    HW2 4629   0.647   9.409   5.298  0.7936 -1.2862  0.4595
34208SOL     OW 4630   2.317   4.135   2.556 -0.0418  0.1135 -0.1256
34208SOL    HW1 4631   2.305   4.105   2.646 -0.8546 -1.9195 -0.8591
34208SOL    HW2 4632   2.338   4.055   2.507 -0.1863  1.0933 -1.8450
34209SOL     OW 4633   6.966   8.990   3.638  0.0405 -0.4126 -0.3360
34209SOL    HW1 4634   7.015   9.018   3.561 -0.4769  0.8729 -0.2206
34209SOL    HW2 4635   7.032   8.956   3.697  0.3354 -2.4410 -1.7411
34210SOL     OW 4636   1.805   2.722   9.450 -0.2846  0.6767  0.7954
34210SOL    HW1 4637   1.815   2.690   9.540  0.9707  1.1429  0.8417
34210SOL    HW2 4638   1.775   2.646   9.401 -0.7393  0.3508  1.5541
34211SOL     OW 4639   2.768   2.273   8.708  0.1427  0.7062  0.0721
34211SOL    HW1 4640   2.830   2.215   8.752 -0.4344 -1.4998 -1.8231
34211SOL    HW2 4641   2.818   2.312   8.636  0.0301  1.1340  0.2185
34212SOL     OW 4642   6.145   7.967   8.876  0.2006 -0.0296  0.4586
34212SOL    HW1 4643   6.174   8.050   8.840  0.2997  0.2385  1.1516
34212SOL    HW2 4644   6.084   7.990   8.946 -1.2592 -0.5735 -0.5741
34213SOL     OW 4645   1.592   1.147   6.724  0.1327  0.5286  0.0282
34213SOL    HW1 4646   1.497   1.135   6.719  0.4134 -2.1065 -0.7375
34213SOL    HW2 4647   1.627   1.088   6.657  2.3004  2.3969 -0.6145
34214SOL     OW 4648  10.752   4.782   7.973  0.1277  1.0966  0.0039
34214SOL    HW1 4649  10.741   4.735   8.056  2.1097  0.7927  0.1540
34214SOL    HW2 4650  10.710   4.726   7.908  0.9187 -0.0476  0.4345
34215SOL     OW 4651   3.949   6.564   0.919  0.2292 -0.1589  0.5727
34215SOL    HW1 4652   3.981   6.542   1.006  0.5502 -1.6244  0.1128
34215SOL    HW2 4653   3.954   6.482   0.870 -1.2189  0.3197 -0.4438
34216SOL     OW 4654   7.591   7.169   8.162 -0.5176 -0.1497 -0.1521
34216SOL    HW1 4655   7.606   7.142   8.071 -1.2829 -2.0546  0.2326
34216SOL    HW2 4656   7.651   7.116   8.213 -2.8263 -2.0889  0.7310
34217SOL     OW 4657   2.988  10.706   1.627 -0.2010  0.6901 -0.1202
34217SOL    HW1 4658   2.896  10.707   1.653  0.6858  0.9785  3.6012
34217SOL    HW2 4659   3.007  10.798   1.607 -0.7118  0.6248 -0.9381
34218SOL     OW 4660   2.083   8.835   9.400 -0.0641 -0.7764 -0.4901
34218SOL    HW1 4661   2.120   8.786   9.327 -0.7937 -1.8264 -0.1802
34218SOL    HW2 4662   2.029   8.771   9.447 -0.2765  0.0877  0.4827
34219SOL     OW 4663   1.661   8.887   6.836 -0.2892  0.1167 -0.1423
34219SOL    HW1 4664   1.637   8.918   6.749 -5.3490 -1.8233  0.2126
34219SOL    HW2 4665   1.657   8.965   6.892  2.3772  1.2515 -1.3613
34220SOL     OW 4666   6.475   2.568   3.582  0.0279 -0.5779 -0.2356
34220SOL    HW1 4667   6.383   2.542   3.575  0.6696 -3.0565 -0.5354
34220SOL    HW2 4668   6.490   2.576   3.676 -0.6477  0.5343 -0.2096
34221SOL     OW 4669   3.498   6.126   5.286  0.6268 -0.2207  0.1390
34221SOL    HW1 4670   3.533   6.158   5.369  2.3958 -2.0507  0.1673
34221SOL    HW2 4671   3.474   6.035   5.303 -1.7099  0.1790 -0.6427
34222SOL     OW 4672   1.435   4.300  10.476  0.8524 -0.3364 -0.4000
34222SOL    HW1 4673   1.399   4.363  10.415 -1.0903  0.5514  1.5269
34222SOL    HW2 4674   1.509   4.261  10.430  1.6261  2.7167 -1.9946
34223SOL     OW 4675   1.887   1.624   1.371  0.7487  0.0683  0.1902
34223SOL    HW1 4676   1.851   1.711   1.356  0.0095  0.0266  1.5818
34223SOL    HW2 4677   1.964   1.620   1.314  0.2721  1.2822 -0.5715
34224SOL     OW 4678   7.127   9.408  10.571  0.3265 -0.3128  0.4891
34224SOL    HW1 4679   7.076   9.466  10.628 -0.3213 -1.3158  0.9717
34224SOL    HW2 4680   7.214   9.446  10.568  0.5802 -0.6136  2.7551
34225SOL     OW 4681   0.956   1.049   4.649 -0.5331 -0.4259  0.3631
34225SOL    HW1 4682   0.975   1.139   4.675 -0.7943  0.2009 -1.4612
34225SOL    HW2 4683   0.906   1.058   4.568  0.9505 -2.2067 -0.8406
34226SOL     OW 4684   2.916   3.325   8.797  0.1251 -0.8512  0.2504
34226SOL    HW1 4685   2.959   3.314   8.713 -0.2201 -1.4752  0.1455
34226SOL    HW2 4686   2.866   3.244   8.809 -0.5990 -0.3615  0.6026
34227SOL     OW 4687   1.364   3.316  10.303 -0.1444  0.5822 -0.0879
34227SOL    HW1 4688   1.312   3.383  10.347 -0.6466 -0.4536  0.9424
34227SOL    HW2 4689   1.331   3.233  10.337  0.5652 -0.2011 -1.2218
34228SOL     OW 4690   3.261   8.150   4.760 -0.4679  0.1452 -0.0925
34228SOL    HW1 4691   3.339   8.182   4.715 -0.5337  0.1059 -0.2353
34228SOL    HW2 4692   3.262   8.056   4.744 -0.8094  0.2115 -0.5084
34229SOL     OW 4693   3.252   1.765   7.648 -0.0801 -0.2171  0.1221
34229SOL    HW1 4694   3.196   1.763   7.726 -0.8069 -0.4917 -0.4066
34229SOL    HW2 4695   3.267   1.674   7.626 -1.2026 -0.1589 -0.9956
34230SOL     OW 4696   1.892   8.661  10.643  0.2560  0.4653  0.8612
34230SOL    HW1 4697   1.824   8.658  10.711  0.8669  0.8786  1.5044
34230SOL    HW2 4698   1.856   8.609  10.571 -0.4342  0.0715  1.4765
34231SOL     OW 4699   8.962   7.093   7.887  0.4624  0.0011 -0.4746
34231SOL    HW1 4700   9.007   7.092   7.803  0.8559  1.0913 -0.2971
34231SOL    HW2 4701   8.926   7.005   7.897 -0.9597  0.2950 -2.5204
34232SOL     OW 4702   1.495   1.643   7.959 -0.8122  0.2308  0.0317
34232SOL    HW1 4703   1.407   1.606   7.971 -0.7459  0.1481  0.2656
34232SOL    HW2 4704   1.544   1.613   8.036 -0.3255 -0.4583 -0.5406
34233SOL     OW 4705   7.739   8.186   9.086  0.1556  0.3912  0.8014
34233SOL    HW1 4706   7.721   8.280   9.085  0.3239  0.4458  1.6204
34233SOL    HW2 4707   7.747   8.165   9.179  0.5511 -0.3513  0.6050
34234SOL     OW 4708   1.730   5.874   8.215 -0.0277 -0.3097 -0.0600
34234SOL    HW1 4709   1.635   5.883   8.208 -0.2019  0.6160  2.5018
34234SOL    HW2 4710   1.746   5.781   8.201 -1.2680 -0.4426 -0.7271
34235SOL     OW 4711   9.595   5.435   3.769 -0.0050  0.0405 -0.8749
34235SOL    HW1 4712   9.515   5.425   3.819  0.5272 -0.8338 -0.1618
34235SOL    HW2 4713   9.574   5.500   3.702 -0.1652  2.7638  1.6350
34236SOL     OW 4714   7.563   0.556   7.543 -0.0600 -0.1163  0.6952
34236SOL    HW1 4715   7.652   0.548   7.578 -0.3583 -0.2792  1.4150
34236SOL    HW2 4716   7.509   0.576   7.619 -0.4804  1.1053  0.1051
34237SOL     OW 4717   1.720   7.849   8.510  0.1660  0.4146 -0.6472
34237SOL    HW1 4718   1.802   7.801   8.504 -0.2265 -0.5558  1.0640
34237SOL    HW2 4719   1.745   7.934   8.547  0.4542  0.2239 -0.3926
34238SOL     OW 4720   0.826   5.383   5.374  0.2735 -0.1778 -0.2050
34238SOL    HW1 4721   0.889   5.454   5.383  0.3284 -0.1881 -0.4964
34238SOL    HW2 4722   0.878   5.307   5.350  0.1717 -0.2268 -0.2739
34239SOL     OW 4723   2.728   9.065   7.197 -0.2261 -0.0058  0.1559
34239SOL    HW1 4724   2.797   9.119   7.235 -0.8778  1.1760 -0.2632
34239SOL    HW2 4725   2.669   9.128   7.155  0.2908 -1.1914 -2.5297
34240SOL     OW 4726  10.208   6.787   5.947 -0.2263 -0.5053 -0.5481
34240SOL    HW1 4727  10.158   6.824   5.874 -0.7717 -1.6660 -0.7716
34240SOL    HW2 4728  10.299   6.812   5.928 -0.5535  0.5366 -0.7965
34241SOL     OW 4729   5.180   7.931   3.799  0.4352  0.5559 -0.3902
34241SOL    HW1 4730   5.095   7.957   3.834  0.6804  0.1530  0.5527
34241SOL    HW2 4731   5.212   8.009   3.754 -0.8393  0.4236 -1.5958
34242SOL     OW 4732   6.520   5.157  11.045 -0.1976 -0.5437 -0.2273
34242SOL    HW1 4733   6.471   5.096  10.990  0.0919 -0.4059 -0.6463
34242SOL    HW2 4734   6.590   5.105  11.083  0.2743 -0.4051 -0.8789
34243SOL     OW 4735   8.817   8.699   7.265 -0.0390 -0.2435  0.2795
34243SOL    HW1 4736   8.804   8.784   7.308  2.2200 -0.7455  2.2008
34243SOL    HW2 4737   8.912   8.689   7.261 -0.2306 -2.7067  0.1761
34244SOL     OW 4738   7.108   4.036   4.900  0.0588 -0.0820  0.2875
34244SOL    HW1 4739   7.107   4.067   4.810  0.2196 -0.3112  0.2058
34244SOL    HW2 4740   7.029   4.073   4.939 -0.9133 -1.3677 -0.4065
34245SOL     OW 4741   3.339   9.004   5.812 -0.2157 -0.6532  0.3420
34245SOL    HW1 4742   3.424   9.030   5.777  0.1025 -0.7082  1.0466
34245SOL    HW2 4743   3.291   9.086   5.824 -0.7794 -0.7127 -1.3076
34246SOL     OW 4744   1.001  11.094   9.718 -0.0732 -0.0982  0.3137
34246SOL    HW1 4745   1.047  11.041   9.783 -0.7643 -0.0281  0.8630
34246SOL    HW2 4746   0.917  11.050   9.706 -0.0837  0.0763 -0.2901
34247SOL     OW 4747   2.047   8.734  10.212 -0.2567 -0.5470 -0.4854
34247SOL    HW1 4748   2.002   8.817  10.195 -0.7108 -0.5804  0.4996
34247SOL    HW2 4749   2.138   8.759  10.227 -0.8704  0.1480  2.6177
34248SOL     OW 4750   5.657   6.720   2.393 -0.2677  0.3217  0.4707
34248SOL    HW1 4751   5.695   6.804   2.367  5.0371 -1.9959 -0.4953
34248SOL    HW2 4752   5.597   6.698   2.322 -3.1125  3.7122  1.5039
34249SOL     OW 4753  10.802   0.092   6.369 -0.1285 -0.4288 -0.1701
34249SOL    HW1 4754  10.891   0.103   6.402 -0.8908 -0.2324  2.0297
34249SOL    HW2 4755  10.787  -0.003   6.371 -0.2549 -0.4025  0.3459
34250SOL     OW 4756  10.807   2.070  10.481 -0.2536 -0.1538  0.0107
34250SOL    HW1 4757  10.744   2.140  10.501  0.3613  1.0548 -1.9706
34250SOL    HW2 4758  10.880   2.116  10.439  1.0505 -1.7783  0.4309
34251SOL     OW 4759   5.689   6.380   5.018 -0.0454 -0.4487  0.0819
34251SOL    HW1 4760   5.630   6.306   5.027 -0.5562 -0.0099  0.3932
34251SOL    HW2 4761   5.632   6.457   5.015  0.4098 -0.1307 -1.2398
34252SOL     OW 4762   3.144   2.539  10.467  0.0577  0.4434  0.4064
34252SOL    HW1 4763   3.081   2.547  10.396  0.9022 -0.8927 -0.5488
34252SOL    HW2 4764   3.091   2.523  10.545 -0.8464  1.0415 -0.0673
34253SOL     OW 4765   6.500   9.448   4.657 -0.0003  0.0701  0.7024
34253SOL    HW1 4766   6.419   9.441   4.708  0.6819  2.1606  2.2010
34253SOL    HW2 4767   6.568   9.469   4.722  1.4901 -0.2415 -0.6957
34254SOL     OW 4768   4.589   2.030  10.662 -0.2065 -0.7196 -0.9021
34254SOL    HW1 4769   4.510   1.990  10.626 -0.5706  0.8884 -1.9919
34254SOL    HW2 4770   4.648   2.039  10.587 -0.8812  2.4687 -1.1927
34255SOL     OW 4771   9.214   0.305   0.619 -0.0445  0.0945 -0.4757
34255SOL    HW1 4772   9.235   0.246   0.546  1.6403  1.6849 -1.3627
34255SOL    HW2 4773   9.275   0.280   0.689  0.7744  0.8324 -0.9056
34256SOL     OW 4774   4.819   7.565   4.170  0.0555 -0.2196  0.0134
34256SOL    HW1 4775   4.768   7.527   4.098  2.2457 -0.7399 -1.3407
34256SOL    HW2 4776   4.785   7.654   4.179  0.2026  0.1193 -2.2042
34257SOL     OW 4777  10.600   5.584   3.579  0.4534  0.2001 -0.4102
34257SOL    HW1 4778  10.681   5.607   3.534  1.5262 -2.5830 -0.0653
34257SOL    HW2 4779  10.627   5.528   3.652 -1.8525 -2.7467 -1.5925
34258SOL     OW 4780   7.884   5.269   7.115  0.2453 -0.5685  0.0109
34258SOL    HW1 4781   7.934   5.249   7.194 -0.0513 -2.0740 -0.1471
34258SOL    HW2 4782   7.943   5.322   7.062  1.2878 -1.4276  0.2840
34259SOL     OW 4783   5.324   4.930   2.396  0.2128 -0.0264  0.4532
34259SOL    HW1 4784   5.276   5.006   2.429 -1.0091 -1.3812  1.9374
34259SOL    HW2 4785   5.277   4.904   2.317 -0.6628 -0.5082  1.1246
34260SOL     OW 4786   9.906   3.964   8.372 -0.2492  0.3259 -0.1994
34260SOL    HW1 4787   9.989   3.986   8.330  0.5034 -1.7003  0.1121
34260SOL    HW2 4788   9.892   3.872   8.350 -2.0041  0.4088  0.4510
34261SOL     OW 4789  10.103   1.481   9.790 -0.0027 -0.1338  0.6120
34261SOL    HW1 4790  10.168   1.525   9.844  2.3074 -0.9222 -1.3708
34261SOL    HW2 4791  10.063   1.551   9.738  0.3389  0.1763  0.7612
34262SOL     OW 4792   3.864   5.972   0.810  0.3370  0.4374 -0.6111
34262SOL    HW1 4793   3.941   5.940   0.763 -0.0863  0.1711 -1.1278
34262SOL    HW2 4794   3.897   5.995   0.897  0.7380 -1.0113 -0.3547
34263SOL     OW 4795   7.862   1.475   1.143 -1.0520 -0.2345 -0.3690
34263SOL    HW1 4796   7.816   1.442   1.065  0.0111 -0.6064 -0.8678
34263SOL    HW2 4797   7.898   1.396   1.184 -1.7680 -0.0574  0.6268
34264SOL     OW 4798   9.690   8.973   7.695 -0.4209  0.3711  0.4845
34264SOL    HW1 4799   9.763   9.013   7.648  0.6883 -1.1400  0.8270
34264SOL    HW2 4800   9.648   9.045   7.742  0.6348  1.3235  0.0092
34265SOL     OW 4801   0.613  11.081   7.965 -0.0989  0.4405 -0.0628
34265SOL    HW1 4802   0.627  10.988   7.980  3.8620  0.8236 -0.4673
34265SOL    HW2 4803   0.605  11.089   7.870 -0.3629  0.5346 -0.0338
34266SOL     OW 4804   9.826   0.597   8.939  0.1001  1.0785 -0.2380
34266SOL    HW1 4805   9.786   0.514   8.966  0.3987 -0.6387 -4.3343
34266SOL    HW2 4806   9.909   0.600   8.986  0.2805 -1.2187 -0.2895
34267SOL     OW 4807   1.437   4.089   8.638  0.5557  1.2352 -0.7017
34267SOL    HW1 4808   1.492   4.167   8.641  2.0925  0.1604  0.9388
34267SOL    HW2 4809   1.431   4.059   8.728  1.9096 -1.7752 -1.4790
34268SOL     OW 4810   7.938   6.667   0.923 -0.4244  0.3465 -0.3810
34268SOL    HW1 4811   8.009   6.605   0.903 -1.8021 -0.8930 -1.6437
34268SOL    HW2 4812   7.969   6.713   1.001  0.8509 -1.6508  0.3873
34269SOL     OW 4813   7.627   3.583   4.682 -0.4000  0.5665  0.2632
34269SOL    HW1 4814   7.625   3.490   4.701  0.2504  0.4886 -0.0062
34269SOL    HW2 4815   7.675   3.622   4.756 -0.2944  0.6279  0.1634
34270SOL     OW 4816   9.273  10.535   2.922  1.0658 -0.1928  0.3762
34270SOL    HW1 4817   9.363  10.561   2.945  1.8210 -1.5889 -0.8192
34270SOL    HW2 4818   9.276  10.440   2.919  0.0085 -0.2074 -1.4954
34271SOL     OW 4819   2.598   6.116   7.554 -0.5757  0.1281 -0.2075
34271SOL    HW1 4820   2.666   6.182   7.540  0.6921 -0.9303  0.6812
34271SOL    HW2 4821   2.524   6.145   7.500  0.8461  0.9144 -1.7965
34272SOL     OW 4822   4.073   9.383  10.177  0.5636 -0.0228 -0.5680
34272SOL    HW1 4823   4.000   9.438  10.207  2.8766  2.0031  1.8774
34272SOL    HW2 4824   4.064   9.302  10.227  0.4440  0.5526  0.3616
34273SOL     OW 4825   2.311   3.450   5.159  0.1712 -0.6104  0.9600
34273SOL    HW1 4826   2.375   3.518   5.181 -0.3924  0.0433  0.6489
34273SOL    HW2 4827   2.278   3.477   5.073 -0.1292 -1.2407  0.8740
34274SOL     OW 4828   4.990   4.882   6.093 -0.5910 -0.1690 -0.3039
34274SOL    HW1 4829   4.994   4.919   6.005  0.1626  0.0805 -0.1791
34274SOL    HW2 4830   4.897   4.880   6.115 -0.8401 -0.8329 -1.3513
34275SOL     OW 4831   4.884   0.744   5.094  0.7426 -0.5118 -0.1318
34275SOL    HW1 4832   4.823   0.757   5.021  1.0581 -0.4866 -0.3914
34275SOL    HW2 4833   4.840   0.784   5.169 -0.0095 -1.3690 -0.0953
34276SOL     OW 4834   2.788   1.165   8.765  0.5809 -0.2567 -0.1880
34276SOL    HW1 4835   2.852   1.113   8.717  0.3719 -0.6110 -0.0855
34276SOL    HW2 4836   2.705   1.150   8.719  0.4830 -0.1672 -0.0432
34277SOL     OW 4837   9.493   0.598   0.828 -0.2736 -0.3591  0.0369
34277SOL    HW1 4838   9.402   0.622   0.814  0.2186  0.6704 -1.8783
34277SOL    HW2 4839   9.504   0.597   0.923 -2.2902 -0.6759  0.3151
34278SOL     OW 4840   7.943   9.956   8.969 -0.0694  0.0305 -0.4140
34278SOL    HW1 4841   7.921   9.863   8.977 -3.0118  0.5848 -0.9308
34278SOL    HW2 4842   7.932   9.975   8.875  1.8931  0.6597 -0.5723
34279SOL     OW 4843   2.861  10.533   8.398  0.2795  0.2304 -0.9129
34279SOL    HW1 4844   2.917  10.533   8.320 -0.6405  1.1398 -1.6107
34279SOL    HW2 4845   2.898  10.600   8.455 -0.4135  1.2557 -1.6350
34280SOL     OW 4846  10.586   3.289   9.978 -0.0856  0.2720 -0.0305
34280SOL    HW1 4847  10.609   3.254   9.892 -0.1334 -0.3634  0.2116
34280SOL    HW2 4848  10.533   3.366   9.959 -0.1070  0.1301 -0.5675
34281SOL     OW 4849   8.182   6.222   5.606  0.4695 -0.0937 -0.3675
34281SOL    HW1 4850   8.093   6.213   5.641 -0.3589 -0.0712 -2.3172
34281SOL    HW2 4851   8.218   6.133   5.612  0.2552 -0.1431  0.2781
34282SOL     OW 4852   4.895   9.006   5.639 -0.1055 -0.5493 -0.3413
34282SOL    HW1 4853   4.966   9.069   5.654  0.3281 -0.4239 -2.5789
34282SOL    HW2 4854   4.834   9.021   5.711 -1.0695  3.9644 -1.7565
34283SOL     OW 4855   6.840   2.388   8.785 -0.3436  0.3153 -0.3654
34283SOL    HW1 4856   6.899   2.464   8.782 -0.3371  0.2886 -0.9419
34283SOL    HW2 4857   6.756   2.422   8.756 -0.9874  0.6707  1.7160
34284SOL     OW 4858   2.866   5.314   1.177  0.0700  0.3381 -0.2419
34284SOL    HW1 4859   2.878   5.360   1.260  0.4332 -0.9588  0.4436
34284SOL    HW2 4860   2.771   5.307   1.167  0.0285  0.2028  0.2339
34285SOL     OW 4861  10.246  10.448  10.256 -0.1634  0.8012 -0.2344
34285SOL    HW1 4862  10.215  10.459  10.166 -2.0663  2.1785  0.4977
34285SOL    HW2 4863  10.300  10.526  10.272  1.0729  0.0119 -0.5052
34286SOL     OW 4864   4.814   1.192  10.564 -0.7515 -0.0159  0.1130
34286SOL    HW1 4865   4.788   1.283  10.552 -1.7711 -0.3796 -0.5271
34286SOL    HW2 4866   4.904   1.187  10.530 -0.8657  0.6440 -0.2844
34287SOL     OW 4867   2.741   5.316   7.924  0.4729 -0.3964 -0.3549
34287SOL    HW1 4868   2.695   5.400   7.928 -3.0001 -1.7444 -4.2990
34287SOL    HW2 4869   2.811   5.329   7.861  0.4646 -0.2244 -0.3275
34288SOL     OW 4870   7.034   3.508   2.184 -0.1103  0.1467 -0.0516
34288SOL    HW1 4871   7.094   3.475   2.252  2.5788  0.4231 -2.1248
34288SOL    HW2 4872   6.975   3.434   2.166  1.5926 -1.2896 -0.0417
34289SOL     OW 4873   1.215   7.498   4.238 -0.0097 -0.2473  0.1297
34289SOL    HW1 4874   1.303   7.461   4.250 -0.1339 -0.7072 -0.3802
34289SOL    HW2 4875   1.179   7.503   4.327  1.7014  2.8817  0.7899
34290SOL     OW 4876   2.846   2.560   2.334  0.4080  0.2730  0.2091
34290SOL    HW1 4877   2.782   2.621   2.297 -0.7294  0.2918  2.0846
34290SOL    HW2 4878   2.906   2.541   2.262 -1.7354  0.2001 -1.6352
34291SOL     OW 4879   4.991   1.027   1.296  0.0629  0.3629 -0.3863
34291SOL    HW1 4880   4.944   0.958   1.250 -0.5451  0.8409 -0.5076
34291SOL    HW2 4881   4.923   1.092   1.317  0.3872  0.3309  0.8451
34292SOL     OW 4882   9.935   6.169  10.829  0.6659 -0.0401  0.3351
34292SOL    HW1 4883   9.952   6.168  10.735 -1.3469  1.2307 -0.1216
34292SOL    HW2 4884   9.921   6.077  10.852 -0.6036 -0.2331 -1.0285
34293SOL     OW 4885   5.584   1.312   4.681  0.0811 -0.0653  0.2004
34293SOL    HW1 4886   5.656   1.355   4.636 -0.9719  1.2302 -0.2889
34293SOL    HW2 4887   5.514   1.377   4.683  0.1003  0.0649  3.9014
34294SOL     OW 4888   0.440   2.549   4.045 -0.8979 -0.6161  0.5274
34294SOL    HW1 4889   0.402   2.637   4.054 -0.3623 -0.1338 -1.4153
34294SOL    HW2 4890   0.400   2.498   4.116 -0.2635  1.4932  2.5104
34295SOL     OW 4891   1.296   6.242   6.442  0.7667  0.1415  0.1662
34295SOL    HW1 4892   1.301   6.337   6.446  0.2738  0.1552  0.5348
34295SOL    HW2 4893   1.327   6.220   6.354  3.3849  0.4512  0.9186
34296SOL     OW 4894   4.011   8.610   6.801  0.2645  0.1028 -0.5176
34296SOL    HW1 4895   4.019   8.519   6.829 -1.2855 -0.2286 -1.0771
34296SOL    HW2 4896   4.008   8.660   6.883  3.4900 -0.0206 -0.1613
34297SOL     OW 4897   7.619  10.868   3.870  0.3908  0.5139  0.3097
34297SOL    HW1 4898   7.635  10.842   3.779 -1.3707  1.9409 -0.4830
34297SOL    HW2 4899   7.544  10.927   3.864  0.4105  0.8465  2.6860
34298SOL     OW 4900   0.423  10.195   8.674 -0.4435 -0.2505 -0.9449
34298SOL    HW1 4901   0.468  10.130   8.620  0.8866 -0.0501 -0.1196
34298SOL    HW2 4902   0.466  10.189   8.759 -2.4872 -0.5545  0.1112
34299SOL     OW 4903   9.856   9.934   3.569  0.1930  0.0794  0.1805
34299SOL    HW1 4904   9.927   9.897   3.516  0.8228  0.3770  0.7969
34299SOL    HW2 4905   9.899   9.965   3.649 -0.2637  2.3172 -0.3636
34300SOL     OW 4906  10.852   3.225   5.507 -0.1715 -0.0852 -1.0283
34300SOL    HW1 4907  10.848   3.274   5.425  0.2820  1.6598 -0.0436
34300SOL    HW2 4908  10.880   3.289   5.572  0.7809 -1.7323  0.2591
34301SOL     OW 4909   3.085   2.743   2.370 -0.2616 -0.2867 -0.2448
34301SOL    HW1 4910   3.075   2.804   2.444  2.3141 -0.8300  0.6467
34301SOL    HW2 4911   3.010   2.683   2.379 -0.5685  0.2731  1.3219
34302SOL     OW 4912   8.499   2.071   4.584  0.4373 -0.1967 -0.2596
34302SOL    HW1 4913   8.529   2.052   4.495  0.0422 -0.8241 -0.2703
34302SOL    HW2 4914   8.452   1.992   4.610 -0.4305  0.4147  0.0814
34303SOL     OW 4915   5.812   9.702   9.697 -0.5755 -0.3183  0.3241
34303SOL    HW1 4916   5.717   9.705   9.695 -0.6244  2.2736  1.6353
34303SOL    HW2 4917   5.837   9.666   9.612 -2.7269  0.6714 -0.8090
34304SOL     OW 4918   7.145  10.828   7.200  0.2976  0.1891  0.1946
34304SOL    HW1 4919   7.126  10.761   7.265  0.2174 -0.1700 -0.2011
34304SOL    HW2 4920   7.072  10.823   7.138  0.0478  0.9502  0.4090
34305SOL     OW 4921   5.620   1.522   1.504  0.3565  0.1403 -0.3634
34305SOL    HW1 4922   5.536   1.565   1.521  0.7879  2.7839 -3.7689
34305SOL    HW2 4923   5.598   1.444   1.453 -0.0954  0.2044 -0.2632
34306SOL     OW 4924   7.584   3.655   6.221  0.0470  0.6521 -0.2272
34306SOL    HW1 4925   7.608   3.595   6.291  2.4682  0.8061 -0.8409
34306SOL    HW2 4926   7.493   3.678   6.239  0.4274  0.2639  2.5348
34307SOL     OW 4927   7.538   7.997   6.516 -0.8683  0.3665  0.1900
34307SOL    HW1 4928   7.455   8.020   6.472 -0.3158  0.7330 -0.6914
34307SOL    HW2 4929   7.556   8.072   6.573  0.4551  1.8086 -1.9878
34308SOL     OW 4930   5.895   1.777   3.410 -0.9389  0.8159 -0.4845
34308SOL    HW1 4931   5.983   1.806   3.386 -0.8679 -0.0584 -1.3496
34308SOL    HW2 4932   5.910   1.700   3.465 -1.1540 -0.1528 -1.7355
34309SOL     OW 4933   6.736   8.127   9.318  0.2096 -0.2498  0.0391
34309SOL    HW1 4934   6.683   8.179   9.258  1.5497 -1.3241 -2.2014
34309SOL    HW2 4935   6.778   8.061   9.263  1.4943 -1.3582  2.1825
34310SOL     OW 4936   1.205   9.601   4.218 -0.1867  0.8097 -0.7132
34310SOL    HW1 4937   1.147   9.539   4.260 -0.0325  2.1178  1.6087
34310SOL    HW2 4938   1.157   9.631   4.141 -1.5665  0.1298 -0.1493
34311SOL     OW 4939   1.482   1.797  10.939  0.0609  0.4098  0.3878
34311SOL    HW1 4940   1.451   1.716  10.899  2.0741  0.3606 -1.2728
34311SOL    HW2 4941   1.541   1.768  11.008 -0.3537  0.4768  0.7716
34312SOL     OW 4942   7.431   2.707   1.276 -0.3247  0.2537  0.4272
34312SOL    HW1 4943   7.361   2.705   1.341 -1.0616  0.4440 -0.3440
34312SOL    HW2 4944   7.448   2.800   1.262  0.7978  0.2064  1.3446
34313SOL     OW 4945   8.955   1.696   9.975 -0.3201  0.1808 -0.2260
34313SOL    HW1 4946   8.903   1.635   9.922  1.7790  0.0601 -2.3241
34313SOL    HW2 4947   8.920   1.782   9.954 -1.0920 -0.0343  0.1262
34314SOL     OW 4948   0.503  10.467   1.352  0.0787  0.5057 -0.4088
34314SOL    HW1 4949   0.501  10.379   1.315 -0.1961  0.2114  0.2760
34314SOL    HW2 4950   0.462  10.523   1.285  0.8051  0.2213 -1.0988
34315SOL     OW 4951   3.572   3.436   9.571 -0.1217 -0.0612 -0.3451
34315SOL    HW1 4952   3.553   3.527   9.593 -1.8459 -0.3083 -0.6362
34315SOL    HW2 4953   3.665   3.425   9.591  0.2232  1.8631 -0.6949
34316SOL     OW 4954  10.595  10.080   6.250 -0.1046  0.2799 -0.0518
34316SOL    HW1 4955  10.687  10.073   6.273 -0.2127  1.5884  0.8946
34316SOL    HW2 4956  10.594  10.121   6.164  0.2096 -0.9544 -0.6608
34317SOL     OW 4957   7.424  10.846   7.955 -0.2072  0.0780  0.1850
34317SOL    HW1 4958   7.462  10.783   7.892  0.5449  1.1455 -0.4637
34317SOL    HW2 4959   7.353  10.888   7.906  0.3828  0.9153  0.0147
34318SOL     OW 4960   2.544   4.933   1.904  0.4337  0.4755  0.1135
34318SOL    HW1 4961   2.459   4.905   1.869  1.2052 -1.0750 -0.5953
34318SOL    HW2 4962   2.556   4.880   1.983  1.3656 -0.3672 -0.5718
34319SOL     OW 4963   6.879   0.391   7.194  0.1581 -0.0343  0.1450
34319SOL    HW1 4964   6.953   0.344   7.154 -0.7857 -1.4669  0.0136
34319SOL    HW2 4965   6.870   0.353   7.281 -1.0259 -0.5927 -0.1971
34320SOL     OW 4966   6.297   2.668   8.784  0.0360 -0.3081 -0.0766
34320SOL    HW1 4967   6.207   2.687   8.809 -0.3559 -3.5567  1.3976
34320SOL    HW2 4968   6.349   2.692   8.861  0.6411  2.0666 -1.1061
34321SOL     OW 4969   6.492   2.351   0.534  0.5794 -0.0578  0.2099
34321SOL    HW1 4970   6.518   2.346   0.626 -0.4757  0.8501  0.5786
34321SOL    HW2 4971   6.463   2.263   0.512  1.3471 -0.4102  0.5801
34322SOL     OW 4972   8.655   8.386   7.177  0.4059  0.7355 -0.4321
34322SOL    HW1 4973   8.739   8.360   7.213 -0.7086  0.0329  1.8740
34322SOL    HW2 4974   8.636   8.320   7.110  1.1483  0.2037 -0.1205
34323SOL     OW 4975   2.106   9.351   0.494  0.0397  0.2688  0.0917
34323SOL    HW1 4976   2.139   9.434   0.459 -0.6242  1.6446  2.4721
34323SOL    HW2 4977   2.181   9.312   0.538 -0.1448  0.7397  0.8578
34324SOL     OW 4978   8.814   8.422   5.145 -0.3570 -0.4710  0.1096
34324SOL    HW1 4979   8.804   8.500   5.199 -2.4996 -0.7691  0.2323
34324SOL    HW2 4980   8.729   8.379   5.149  0.8989 -3.1086  0.4349
34325SOL     OW 4981   9.112  11.080  10.274  0.2640  0.3602 -0.5115
34325SOL    HW1 4982   9.202  11.073  10.244  0.7912 -0.1586  1.1122
34325SOL    HW2 4983   9.062  11.029  10.210  1.2300 -0.0581 -0.9528
34326SOL     OW 4984   3.918   3.999   5.131  0.0717  0.0338 -0.1842
34326SOL    HW1 4985   3.830   3.969   5.105 -0.3644  0.1782  1.0443
34326SOL    HW2 4986   3.969   3.998   5.050 -1.0393 -0.1552 -0.9023
34327SOL     OW 4987  10.919   9.166   1.949  0.3220  0.4587  0.2321
34327SOL    HW1 4988  11.012   9.146   1.953  0.2618  0.3465  1.2355
34327SOL    HW2 4989  10.915   9.257   1.918  0.7149  0.1290 -0.8118
34328SOL     OW 4990   4.345   3.389   5.350 -0.2031  0.7742  0.1617
34328SOL    HW1 4991   4.421   3.336   5.326 -0.7611 -0.3456  0.7677
34328SOL    HW2 4992   4.380   3.476   5.366  0.9365  0.2964  0.3339
34329SOL     OW 4993   7.510   8.955   8.694  0.5098 -0.9107  0.5364
34329SOL    HW1 4994   7.556   9.037   8.712  1.5101 -1.6646  1.5627
34329SOL    HW2 4995   7.421   8.982   8.671  0.8010  0.4556  0.9276
34330SOL     OW 4996   3.176   9.636   4.859 -0.3246 -0.7977  0.3683
34330SOL    HW1 4997   3.256   9.625   4.910  0.2635 -0.8840 -0.5386
34330SOL    HW2 4998   3.110   9.587   4.907  0.1154 -0.5513  1.2452
34331SOL     OW 4999  10.908   1.468   3.044  0.6167 -0.0363 -0.4773
34331SOL    HW1 5000  10.899   1.539   3.108  1.3901  0.2516 -0.6781
34331SOL    HW2 5001  10.917   1.389   3.096 -1.4077 -0.1751 -0.2423
34332SOL     OW 5002   5.984   1.650   5.861  0.1082 -0.2319 -0.8319
34332SOL    HW1 5003   5.961   1.742   5.868  0.7717 -0.1141 -0.0127
34332SOL    HW2 5004   6.024   1.629   5.946 -3.2120 -2.1765  0.4230
34333SOL     OW 5005   4.292  10.840   8.951  0.0690 -0.4342 -0.7191
34333SOL    HW1 5006   4.306  10.751   8.985  0.7345 -0.2109 -0.4084
34333SOL    HW2 5007   4.202  10.838   8.918 -0.7530 -0.5874  1.3474
34334SOL     OW 5008   0.354   7.623   3.023  0.0310  0.0990 -0.2214
34334SOL    HW1 5009   0.299   7.547   3.003 -0.2713 -0.2522  1.7272
34334SOL    HW2 5010   0.293   7.695   3.032 -0.3164 -0.4420  2.7129
34335SOL     OW 5011   7.172   8.711   0.843  0.3752 -0.0715 -0.0225
34335SOL    HW1 5012   7.208   8.750   0.923  0.3930 -2.0965  1.0107
34335SOL    HW2 5013   7.087   8.755   0.832  1.6386  2.4385 -0.6952
34336SOL     OW 5014   9.218   8.171   9.795  0.2602 -0.0696 -0.7960
34336SOL    HW1 5015   9.229   8.201   9.886 -1.3793 -1.0599 -0.2244
34336SOL    HW2 5016   9.303   8.131   9.773  0.6202 -0.0111  0.3874
34337SOL     OW 5017   8.353   8.652   9.372  0.1351 -0.5634 -0.5630
34337SOL    HW1 5018   8.267   8.684   9.398  1.2923  3.1154 -0.6497
34337SOL    HW2 5019   8.350   8.651   9.276  0.1445 -0.6433 -0.5624
34338SOL     OW 5020   3.838   7.888   9.888  0.6385  0.7517  0.2920
34338SOL    HW1 5021   3.808   7.914   9.801  1.2941 -1.7358 -0.7918
34338SOL    HW2 5022   3.768   7.833   9.922  1.0841  0.3581  0.6006
34339SOL     OW 5023   7.036  10.762   2.981  0.1939  0.4596 -0.0249
34339SOL    HW1 5024   6.961  10.822   2.983 -0.2607 -0.0759  2.1539
34339SOL    HW2 5025   7.107  10.811   3.021 -0.2207 -0.4162  1.9143
34340SOL     OW 5026   8.316   9.261   6.865  0.5131  0.7465  0.5053
34340SOL    HW1 5027   8.251   9.211   6.816  0.4168  0.5735  0.8036
34340SOL    HW2 5028   8.377   9.294   6.799  0.4013  0.4962  0.2776
34341SOL     OW 5029   6.810   9.435   7.004 -0.3741 -0.5440  0.1048
34341SOL    HW1 5030   6.793   9.419   6.911  2.1375  2.0955 -0.9552
34341SOL    HW2 5031   6.868   9.364   7.031  2.0112  0.6519 -1.5141
34342SOL     OW 5032   0.342   5.913   6.854  0.2479 -0.3357  0.0976
34342SOL    HW1 5033   0.402   5.917   6.779  0.0948 -0.3131 -0.0235
34342SOL    HW2 5034   0.297   5.997   6.853 -1.0205 -0.9984 -0.8439
34343SOL     OW 5035   2.959   3.886   0.996  0.0377  0.3472 -0.5798
34343SOL    HW1 5036   2.977   3.807   1.047 -1.0876  0.1195 -0.5068
34343SOL    HW2 5037   2.901   3.856   0.926 -0.7026  1.1586 -0.3331
34344SOL     OW 5038   8.888   8.441   2.783 -0.2079 -0.1202 -1.0906
34344SOL    HW1 5039   8.818   8.379   2.764  1.3336 -2.0247 -0.8029
34344SOL    HW2 5040   8.846   8.527   2.774 -2.0605 -1.1196 -2.9945
34345SOL     OW 5041   2.126   6.103   5.627  0.0857 -0.1351 -0.0835
34345SOL    HW1 5042   2.095   6.016   5.653  0.7960 -0.0469  1.1166
34345SOL    HW2 5043   2.083   6.163   5.688 -0.3467  0.3597 -0.8613
34346SOL     OW 5044   3.672   4.630   1.985 -0.0254  0.3988 -0.0709
34346SOL    HW1 5045   3.594   4.683   1.969 -0.0818  0.1503 -0.6559
34346SOL    HW2 5046   3.723   4.637   1.904  0.1018 -0.2004 -0.0522
34347SOL     OW 5047   2.109   5.043   8.745  0.3155  0.4179  0.5252
34347SOL    HW1 5048   2.104   4.949   8.756  1.1561 -0.0173 -2.1409
34347SOL    HW2 5049   2.165   5.073   8.816  0.9667 -1.2503  0.7506
34348SOL     OW 5050   8.532   9.268   5.744 -1.2410  0.0926  0.4472
34348SOL    HW1 5051   8.597   9.289   5.811 -1.0720 -0.3161  0.4172
34348SOL    HW2 5052   8.548   9.176   5.723 -1.8508 -0.0272  0.4631
34349SOL     OW 5053   3.148   4.294   8.820  1.1463 -0.0532 -0.0762
34349SOL    HW1 5054   3.135   4.324   8.730 -0.4128  0.4055  0.2812
34349SOL    HW2 5055   3.148   4.199   8.814  0.2816 -0.0357 -0.4832
34350SOL     OW 5056   8.190   1.137   5.460 -0.6966 -0.4730  0.2872
34350SOL    HW1 5057   8.206   1.148   5.553 -0.1485 -2.7824  0.5399
34350SOL    HW2 5058   8.264   1.085   5.429 -0.2748  1.1538 -1.7085
34351SOL     OW 5059   5.984   7.860   0.087  0.0802  0.1492  0.3179
34351SOL    HW1 5060   6.001   7.897   0.174  1.6215 -0.5066  0.3291
34351SOL    HW2 5061   5.890   7.845   0.086 -0.0115  0.4281  1.7740
34352SOL     OW 5062   1.808   3.759   4.953 -0.1414  0.6805 -0.1909
34352SOL    HW1 5063   1.903   3.755   4.968 -0.3630  0.3970  1.3272
34352SOL    HW2 5064   1.777   3.823   5.016 -1.0313  0.3206 -0.2532
34353SOL     OW 5065   0.547   0.257  10.619 -0.1786  0.5282  0.3261
34353SOL    HW1 5066   0.504   0.246  10.534 -1.1066 -0.0915  0.8565
34353SOL    HW2 5067   0.617   0.192  10.618 -0.1070  0.6075 -0.0137
34354SOL     OW 5068   5.470   8.621   6.687  0.2730  0.5339  0.0601
34354SOL    HW1 5069   5.448   8.652   6.774 -0.0903 -1.4262  0.7192
34354SOL    HW2 5070   5.386   8.609   6.643  0.3620 -0.0981  0.0486
34355SOL     OW 5071   0.762   0.568   5.721 -0.2349 -0.3678  0.5140
34355SOL    HW1 5072   0.805   0.643   5.680 -0.0023  0.9408  2.9555
34355SOL    HW2 5073   0.834   0.516   5.757 -0.4556 -1.2143 -0.2258
34356SOL     OW 5074   7.214   4.905   1.116 -0.1305  0.3966  0.1463
34356SOL    HW1 5075   7.233   4.814   1.137 -2.6174 -0.4509 -0.9297
34356SOL    HW2 5076   7.298   4.950   1.127  0.6527 -1.4885  3.1980
34357SOL     OW 5077   5.266   1.966   4.289  0.5643  0.5000 -0.9766
34357SOL    HW1 5078   5.267   1.940   4.197 -1.4588  0.3557 -1.0047
34357SOL    HW2 5079   5.294   2.058   4.289 -0.0563  0.6939 -1.8196
34358SOL     OW 5080   8.427   9.856   9.168  0.1656  0.5276 -0.0694
34358SOL    HW1 5081   8.387   9.907   9.097  1.9338  2.7064  0.3757
34358SOL    HW2 5082   8.493   9.802   9.125  0.5798  1.1301 -0.1951
34359SOL     OW 5083   2.988   2.357   8.589 -0.1609 -0.0507  0.6444
34359SOL    HW1 5084   3.083   2.357   8.605  0.0939 -0.5004 -0.7143
34359SOL    HW2 5085   2.968   2.449   8.570  0.4208 -0.2482 -1.1335
34360SOL     OW 5086   2.358   8.097   5.258 -0.4671  0.4021  0.3067
34360SOL    HW1 5087   2.309   8.059   5.331 -0.2572  1.1402  0.8499
34360SOL    HW2 5088   2.379   8.023   5.201  1.9081 -0.7463  2.4379
34361SOL     OW 5089   6.366  10.988   0.396  0.1461  0.1351 -0.4109
34361SOL    HW1 5090   6.413  10.924   0.450 -0.4733  0.0281  0.0177
34361SOL    HW2 5091   6.410  10.985   0.311  0.8978  0.0276 -0.0243
34362SOL     OW 5092   6.009   9.885   0.749 -0.0640  0.1122  0.0432
34362SOL    HW1 5093   6.040   9.969   0.783  2.0253 -0.9340  0.8574
34362SOL    HW2 5094   6.049   9.877   0.662 -1.4187  0.5605 -0.6523
34363SOL     OW 5095   2.471   2.269   5.715 -0.0785  0.6706 -0.1256
34363SOL    HW1 5096   2.489   2.328   5.788 -0.2165  0.6864 -0.1033
34363SOL    HW2 5097   2.413   2.318   5.657 -0.5758  0.3914  0.1260
34364SOL     OW 5098   1.664   7.848   0.689  0.1093  0.1809  0.8408
34364SOL    HW1 5099   1.698   7.766   0.724 -0.5530  0.3066  1.8431
34364SOL    HW2 5100   1.631   7.825   0.602 -1.3619 -0.9692  1.6544
34365SOL     OW 5101   8.224   9.672  10.893  0.9770 -0.0195  0.1578
34365SOL    HW1 5102   8.316   9.677  10.918  0.7145  1.5794  0.9182
34365SOL    HW2 5103   8.208   9.579  10.880  2.4629 -0.4176  0.9403
34366SOL     OW 5104   9.780   2.789   3.376 -0.2259 -0.5301  0.7759
34366SOL    HW1 5105   9.860   2.793   3.429 -1.3370  0.1339  2.4801
34366SOL    HW2 5106   9.718   2.739   3.428 -1.3088 -0.0406  0.0134
34367SOL     OW 5107  10.936   3.730   8.137 -0.4342 -0.3804 -0.4523
34367SOL    HW1 5108  10.993   3.701   8.209  0.7239 -0.5493 -1.4043
34367SOL    HW2 5109  10.996   3.768   8.073 -1.6020  1.2032 -0.6699
34368SOL     OW 5110   2.265   7.238   2.570  0.2130 -0.1885 -0.3137
34368SOL    HW1 5111   2.324   7.312   2.582 -0.4026  0.1835  0.5544
34368SOL    HW2 5112   2.180   7.270   2.602 -0.5057 -0.6544 -1.6755
34369SOL     OW 5113   9.949   6.761   0.598 -0.0124 -0.5566  0.5524
34369SOL    HW1 5114  10.017   6.699   0.574  0.1940 -1.9254  4.1144
34369SOL    HW2 5115   9.997   6.838   0.630 -0.0822 -1.1365  2.1326
34370SOL     OW 5116   3.151   7.030   9.942  0.0475 -0.4931  0.0435
34370SOL    HW1 5117   3.221   7.073   9.895  0.5810 -1.5842 -0.2010
34370SOL    HW2 5118   3.104   7.101   9.986  0.3530  0.4033 -1.0333
34371SOL     OW 5119   0.226   8.212   2.989  0.3071  0.1859 -0.0091
34371SOL    HW1 5120   0.196   8.302   3.000  2.4765  0.8950  0.5995
34371SOL    HW2 5121   0.305   8.206   3.043  1.4544 -1.4229 -1.7374
34372SOL     OW 5122   2.652   7.970   8.129  0.2887 -0.0010  0.1311
34372SOL    HW1 5123   2.579   7.910   8.114  0.4247  0.0588 -0.8268
34372SOL    HW2 5124   2.631   8.047   8.076  0.7114  0.2964  0.3882
34373SOL     OW 5125   0.908   9.571   1.303 -0.0318 -0.0457  0.5177
34373SOL    HW1 5126   0.972   9.608   1.365 -0.1761 -1.8211  1.8017
34373SOL    HW2 5127   0.895   9.481   1.333 -2.2476 -0.0967 -0.4378
34374SOL     OW 5128   6.909   7.788   7.201 -0.0953  0.4930  0.0821
34374SOL    HW1 5129   6.827   7.831   7.226 -0.8333 -1.5719  1.4166
34374SOL    HW2 5130   6.976   7.852   7.222 -1.1291  0.9716  2.1482
34375SOL     OW 5131   7.627   2.989   4.993  0.8136 -0.0121  0.2963
34375SOL    HW1 5132   7.686   2.956   4.926 -0.4902 -0.8086 -0.5031
34375SOL    HW2 5133   7.592   2.910   5.035 -1.3185  0.3080 -0.7268
34376SOL     OW 5134   5.460   1.903   9.644  0.4934  0.2263 -0.0021
34376SOL    HW1 5135   5.531   1.968   9.644  1.1354 -0.4182 -1.4899
34376SOL    HW2 5136   5.389   1.946   9.690  0.9452  1.9615 -0.8202
34377SOL     OW 5137   9.766   3.418   3.855 -0.3437  0.0011 -0.3978
34377SOL    HW1 5138   9.730   3.369   3.929  0.5207 -1.2524 -0.7603
34377SOL    HW2 5139   9.792   3.502   3.892  0.9262 -0.9280  0.9669
34378SOL     OW 5140  10.384   5.282   9.141  0.5208 -0.0794  0.1442
34378SOL    HW1 5141  10.398   5.205   9.085 -0.4871 -0.6319  0.6184
34378SOL    HW2 5142  10.290   5.299   9.134  0.3194 -0.3487  1.9049
34379SOL     OW 5143   5.208   3.341   2.421  0.2584 -0.1119  0.5882
34379SOL    HW1 5144   5.259   3.421   2.411  0.0909 -0.1652 -0.8940
34379SOL    HW2 5145   5.185   3.316   2.332 -1.6131 -0.5864  1.1752
34380SOL     OW 5146   9.552   6.819   9.992 -0.3039 -0.1245 -0.0549
34380SOL    HW1 5147   9.616   6.847   9.926 -0.0361  1.8618  0.9616
34380SOL    HW2 5148   9.601   6.763  10.051  0.1030  0.1142 -0.1600
34381SOL     OW 5149   3.855   7.997   1.550  0.3854  0.0434  0.3538
34381SOL    HW1 5150   3.763   7.992   1.574  0.8095  0.0753  2.1653
34381SOL    HW2 5151   3.881   8.087   1.569  0.9560 -0.1604  0.5851
34382SOL     OW 5152   5.667   0.696   8.239 -0.2782 -0.6243  0.2250
34382SOL    HW1 5153   5.577   0.717   8.263 -0.5489 -2.6860  1.2825
34382SOL    HW2 5154   5.721   0.741   8.304 -0.4426  1.1912 -0.8268
34383SOL     OW 5155  11.014   4.467   3.834 -0.6485  0.5420 -0.0372
34383SOL    HW1 5156  10.929   4.502   3.809  0.2803  0.7491 -3.5494
34383SOL    HW2 5157  11.077   4.527   3.792  1.1515 -0.8520  0.5513
34384SOL     OW 5158   6.609   4.180   8.517  0.0722  0.0624  0.3051
34384SOL    HW1 5159   6.605   4.255   8.458 -0.3653  0.1316  0.4201
34384SOL    HW2 5160   6.700   4.150   8.511  0.5013  1.1848  0.9839
34385SOL     OW 5161   3.089  11.000   5.195 -0.2823  1.0645  0.4998
34385SOL    HW1 5162   3.065  11.019   5.105 -0.7202  1.9968  0.8013
34385SOL    HW2 5163   3.036  11.060   5.247 -0.0278  0.5470  1.3798
34386SOL     OW 5164   5.007   6.666   7.476 -0.0133  0.7170  0.1078
34386SOL    HW1 5165   5.003   6.661   7.571  0.3812 -2.1846  0.0705
34386SOL    HW2 5166   5.100   6.677   7.455 -0.1484  1.8355  0.0285
34387SOL     OW 5167   8.735   9.531   7.281  0.5249 -0.5331 -0.1652
34387SOL    HW1 5168   8.751   9.504   7.372 -0.0415 -0.5179 -0.0571
34387SOL    HW2 5169   8.687   9.613   7.289 -0.0756 -0.8487 -0.4707
34388SOL     OW 5170   1.373   9.749   9.229 -0.0245 -0.2226  0.2842
34388SOL    HW1 5171   1.322   9.702   9.295 -2.2514  1.3520 -0.1886
34388SOL    HW2 5172   1.443   9.791   9.278 -0.5801 -0.5442  1.3774
34389SOL     OW 5173   9.951   5.829   1.840  0.1192  0.0607  0.2493
34389SOL    HW1 5174   9.890   5.786   1.900 -1.4805  0.9179 -0.6678
34389SOL    HW2 5175   9.929   5.792   1.754  1.4476 -0.1720 -0.0012
34390SOL     OW 5176   5.728   3.354   3.205  0.2619  0.1370 -0.3709
34390SOL    HW1 5177   5.685   3.269   3.220  1.7059 -0.9757 -2.0633
34390SOL    HW2 5178   5.703   3.377   3.115  0.5342  1.1279 -0.1982
34391SOL     OW 5179   0.304   4.611   2.469  0.0065  0.4563  0.3542
34391SOL    HW1 5180   0.309   4.557   2.391 -3.4473  1.4704 -0.7670
34391SOL    HW2 5181   0.343   4.694   2.444  0.8089  0.1076  0.4298
34392SOL     OW 5182   4.867   3.369   6.587 -0.6915 -0.3892 -0.0416
34392SOL    HW1 5183   4.876   3.287   6.636 -0.5826 -0.4259 -0.1224
34392SOL    HW2 5184   4.947   3.374   6.534 -1.4236 -1.0572 -1.2806
34393SOL     OW 5185   3.960   5.601   1.474  0.3261 -0.4757  0.3399
34393SOL    HW1 5186   3.881   5.582   1.423 -0.3466  2.8909 -0.1047
34393SOL    HW2 5187   3.931   5.664   1.540  2.3878 -0.1823  1.0305
34394SOL     OW 5188  10.257   9.510   4.897  0.1072  0.5391  0.0425
34394SOL    HW1 5189  10.315   9.473   4.830  0.9995 -0.3589  1.2815
34394SOL    HW2 5190  10.186   9.446   4.905 -0.0358  0.6795 -0.0753
34395SOL     OW 5191   6.335   6.877   3.596 -0.1495  0.0497 -0.6749
34395SOL    HW1 5192   6.389   6.956   3.585  1.5958 -1.1516 -1.1736
34395SOL    HW2 5193   6.248   6.910   3.617  1.2992  2.0811  2.9023
34396SOL     OW 5194  10.158   1.858   3.066  0.2601  0.1833  0.6886
34396SOL    HW1 5195  10.137   1.774   3.106 -0.2960  0.5767  1.2543
34396SOL    HW2 5196  10.152   1.843   2.972 -1.1484 -0.0940  0.8013
34397SOL     OW 5197   7.120   9.883   2.780 -0.2917  0.5770  0.0398
34397SOL    HW1 5198   7.201   9.914   2.740 -0.1386  1.5111  1.0204
34397SOL    HW2 5199   7.085   9.959   2.825 -0.6102 -0.3424  1.4177
34398SOL     OW 5200   3.459   1.741   0.143  0.7283 -0.3657  0.1534
34398SOL    HW1 5201   3.523   1.767   0.208  1.2495  0.7421 -0.7807
34398SOL    HW2 5202   3.374   1.756   0.185  1.0537 -0.8236  0.9966
34399SOL     OW 5203   1.132   4.713   4.325 -0.3741  0.6033  0.4440
34399SOL    HW1 5204   1.219   4.686   4.296 -0.6601 -0.2939  0.4070
34399SOL    HW2 5205   1.127   4.684   4.417 -1.0108 -0.2961  0.1410
34400SOL     OW 5206   7.242   5.790   3.240 -0.2473 -0.1319  0.5831
34400SOL    HW1 5207   7.158   5.819   3.274  0.0062  0.8321  0.4148
34400SOL    HW2 5208   7.297   5.778   3.318 -0.3783 -0.2421  0.6577
34401SOL     OW 5209   9.433   8.450  11.017  0.4763  0.0783  0.0525
34401SOL    HW1 5210   9.375   8.508  11.065  1.5183  0.6365  0.6775
34401SOL    HW2 5211   9.445   8.491  10.931  0.6222  0.4023  0.2286
34402SOL     OW 5212   3.051   0.857   4.781 -0.7364 -0.2055 -0.8158
34402SOL    HW1 5213   3.027   0.886   4.869  0.3222 -2.1013  0.1429
34402SOL    HW2 5214   3.144   0.837   4.786 -0.4598  0.4129 -2.6134
34403SOL     OW 5215   5.185   3.136   3.341 -0.2409  0.4433 -0.5811
34403SOL    HW1 5216   5.211   3.201   3.406  1.3048 -1.2915  0.6521
34403SOL    HW2 5217   5.261   3.126   3.284 -0.4277 -0.2787 -0.7233
34404SOL     OW 5218   4.948   7.258   2.845 -0.0549 -0.4155 -0.5861
34404SOL    HW1 5219   4.906   7.344   2.844 -0.1367 -0.3555  1.7769
34404SOL    HW2 5220   4.942   7.227   2.755 -0.6098  1.7674 -1.3524
34405SOL     OW 5221   5.674   8.119   8.466  0.0282 -0.4499  0.0297
34405SOL    HW1 5222   5.641   8.052   8.406  0.0077 -0.2059 -0.2322
34405SOL    HW2 5223   5.666   8.079   8.553 -4.3955  0.8448  0.4521
34406SOL     OW 5224   9.912   8.139   0.227 -0.1312 -1.0185  0.7518
34406SOL    HW1 5225   9.945   8.053   0.201  0.4697 -0.2049 -1.4208
34406SOL    HW2 5226   9.843   8.158   0.162  2.0220  1.5147 -1.0030
34407SOL     OW 5227   0.124   8.700   7.147 -0.6425 -0.5885  0.8069
34407SOL    HW1 5228   0.115   8.775   7.206  2.5423  1.1340 -0.6631
34407SOL    HW2 5229   0.113   8.736   7.060 -2.7479 -2.6407  0.0967
34408SOL     OW 5230   0.458   0.376   2.185  0.7448  0.5687 -0.1453
34408SOL    HW1 5231   0.489   0.467   2.187 -1.8605  1.5466 -0.2669
34408SOL    HW2 5232   0.458   0.354   2.092  1.8353  0.2407 -0.0811
34409SOL     OW 5233   4.054   3.982   4.895  0.7305 -0.5792 -0.4528
34409SOL    HW1 5234   4.064   3.892   4.865  0.8410 -0.1909 -1.6343
34409SOL    HW2 5235   4.071   4.036   4.817  1.8987  0.5157  0.4934
34410SOL     OW 5236   8.636   5.318  10.465  0.2755 -0.1977  0.3954
34410SOL    HW1 5237   8.557   5.300  10.516  1.1734 -2.2457  1.1705
34410SOL    HW2 5238   8.698   5.250  10.492  1.9213  0.6542 -1.0343
34411SOL     OW 5239   6.524   0.862   3.274 -0.7388  0.2918  0.2814
34411SOL    HW1 5240   6.475   0.782   3.292 -2.1768  1.3555  1.2684
34411SOL    HW2 5241   6.458   0.930   3.267  0.5711  2.1100  3.3204
34412SOL     OW 5242   9.456  10.954   8.313 -0.2510 -1.1005  0.1883
34412SOL    HW1 5243   9.403  11.018   8.266 -0.7828 -1.9724 -0.4261
34412SOL    HW2 5244   9.538  10.950   8.263 -0.5809 -1.5832 -0.3177
34413SOL     OW 5245   4.716   8.018   5.524  0.2426 -0.2206  0.2659
34413SOL    HW1 5246   4.676   8.017   5.437  1.8253 -0.8800 -0.4807
34413SOL    HW2 5247   4.647   7.985   5.582 -1.3766  1.6738 -0.4462
34414SOL     OW 5248  10.151   7.110   1.651 -0.1580 -0.2039 -0.3757
34414SOL    HW1 5249  10.195   7.081   1.731  0.4275 -0.0218 -0.6288
34414SOL    HW2 5250  10.182   7.049   1.584  0.5021  0.5452 -0.7602
34415SOL     OW 5251   7.310   0.929   4.644 -0.0414 -0.2132  0.3282
34415SOL    HW1 5252   7.244   0.981   4.597 -0.6548 -0.4093  0.9476
34415SOL    HW2 5253   7.303   0.959   4.734  0.9325 -0.0400  0.3508
34416SOL     OW 5254  10.449   6.309   0.932 -0.4869  0.4809 -0.4006
34416SOL    HW1 5255  10.386   6.267   0.990  0.5908 -2.7078 -1.3514
34416SOL    HW2 5256  10.534   6.274   0.959  0.6380  2.8007 -0.7180
34417SOL     OW 5257   4.520   3.604   7.529  0.2541  0.8696 -0.1427
34417SOL    HW1 5258   4.595   3.576   7.476  0.5220  0.5120  0.4153
34417SOL    HW2 5259   4.535   3.564   7.615 -1.1936 -0.2345 -0.3626
34418SOL     OW 5260  10.377   6.962   2.156  0.1762 -0.2326 -0.6908
34418SOL    HW1 5261  10.471   6.974   2.162 -0.1444  2.4938  0.0618
34418SOL    HW2 5262  10.366   6.873   2.122  2.9861 -0.5582 -0.9394
34419SOL     OW 5263   7.792   3.942   1.309 -0.0441  0.2250 -0.1933
34419SOL    HW1 5264   7.794   4.029   1.268 -1.5111 -1.0939 -3.3828
34419SOL    HW2 5265   7.740   3.955   1.389 -0.0954  2.2916 -0.4962
34420SOL     OW 5266   6.430   7.564   9.177  0.3980 -0.1389 -0.5256
34420SOL    HW1 5267   6.522   7.554   9.152  0.8159 -0.3871  1.0175
34420SOL    HW2 5268   6.430   7.556   9.272 -1.3056 -0.7059 -0.5458
34421SOL     OW 5269   8.873   7.819   2.476  0.7285  0.1877  0.5192
34421SOL    HW1 5270   8.933   7.744   2.472 -1.4791 -1.6756 -0.4280
34421SOL    HW2 5271   8.833   7.812   2.563  0.5870  0.3248  0.4649
34422SOL     OW 5272   7.529   2.814   4.057 -0.6670 -1.7179 -0.4590
34422SOL    HW1 5273   7.480   2.737   4.028 -0.5760 -2.6982  1.8135
34422SOL    HW2 5274   7.546   2.798   4.150  0.9355  0.2261 -0.3644
34423SOL     OW 5275   9.134   7.609   0.864  0.1558  0.5751 -0.7714
34423SOL    HW1 5276   9.187   7.671   0.914 -3.2246  1.2296  2.4504
34423SOL    HW2 5277   9.196   7.543   0.834  3.6892  4.4191 -2.8915
34424SOL     OW 5278   3.384   4.446   0.881  0.1339 -0.1865  0.6290
34424SOL    HW1 5279   3.392   4.512   0.950  1.0083 -0.0012  0.3676
34424SOL    HW2 5280   3.470   4.446   0.838  0.1429 -1.4769  0.6062
34425SOL     OW 5281   5.191   6.441   1.160  0.1656 -0.3213 -0.3204
34425SOL    HW1 5282   5.243   6.462   1.083 -1.4082  2.5384 -0.7201
34425SOL    HW2 5283   5.184   6.523   1.209  2.3801 -2.3073  3.8254
34426SOL     OW 5284   3.051   5.822   3.852  0.3141 -0.8588 -0.0350
34426SOL    HW1 5285   2.956   5.833   3.845  0.4440  2.1426  1.3924
34426SOL    HW2 5286   3.083   5.829   3.762 -0.6006  2.2255 -0.2552
34427SOL     OW 5287   4.975   7.087   9.571  0.1137 -0.0097  0.2315
34427SOL    HW1 5288   4.911   7.117   9.506  0.0655  0.9410  0.7036
34427SOL    HW2 5289   5.049   7.056   9.518  0.0379  0.6631 -0.2873
34428SOL     OW 5290   8.839   3.808   4.102 -0.4684  0.4225  0.1352
34428SOL    HW1 5291   8.866   3.735   4.158  1.7253  1.1589  0.1380
34428SOL    HW2 5292   8.797   3.767   4.026  2.7415 -1.0847 -0.9902
34429SOL     OW 5293   7.669   5.275   8.449 -0.4118  0.1889  0.2257
34429SOL    HW1 5294   7.707   5.187   8.456 -1.2981 -0.4020 -1.6298
34429SOL    HW2 5295   7.592   5.272   8.505 -0.9285 -0.5378 -0.4933
34430SOL     OW 5296   5.754   9.057   3.615  0.4370 -0.5411 -0.2953
34430SOL    HW1 5297   5.754   8.966   3.586 -1.5690 -0.8010  0.3757
34430SOL    HW2 5298   5.835   9.094   3.579  0.8552 -2.3382 -1.3025
34431SOL     OW 5299   6.026   8.303   4.821 -0.4217  0.3291 -0.1735
34431SOL    HW1 5300   5.948   8.356   4.836 -1.5163 -1.2605  0.0120
34431SOL    HW2 5301   6.034   8.248   4.899 -1.0044 -1.7591 -1.4760
34432SOL     OW 5302   3.932   5.794   1.182  0.2322 -0.1805 -0.3505
34432SOL    HW1 5303   4.009   5.747   1.213 -0.0772 -1.1581 -1.0182
34432SOL    HW2 5304   3.870   5.789   1.255 -0.7406 -3.0289 -1.2368
34433SOL     OW 5305  10.783   4.212   3.004  0.1538 -0.0312 -0.5575
34433SOL    HW1 5306  10.877   4.193   2.998  0.2920  0.5956 -0.4865
34433SOL    HW2 5307  10.755   4.222   2.913 -0.0941 -1.3401 -0.6405
34434SOL     OW 5308   9.848   4.450   0.296  1.2577  0.6399  0.2264
34434SOL    HW1 5309   9.876   4.537   0.267  0.5056  0.6548 -0.5174
34434SOL    HW2 5310   9.923   4.394   0.279  0.8384  0.6316 -1.9506
34435SOL     OW 5311   9.305   9.549   1.485 -0.4164 -0.2425  0.0372
34435SOL    HW1 5312   9.383   9.576   1.535  1.5671 -0.9052 -2.4724
34435SOL    HW2 5313   9.276   9.469   1.527  0.6172 -0.2920  0.6945
34436SOL     OW 5314   9.899   4.313   1.632  0.4957 -0.6591 -0.1335
34436SOL    HW1 5315   9.808   4.344   1.634  0.9943  0.9079 -0.5688
34436SOL    HW2 5316   9.949   4.387   1.598  2.1767 -0.9318  1.6034
34437SOL     OW 5317   2.538  10.500   5.750  0.1539  0.2821  0.2684
34437SOL    HW1 5318   2.608  10.490   5.686  0.2205 -0.5045  0.4605
34437SOL    HW2 5319   2.463  10.530   5.699  0.8222  1.9300  0.1752
34438SOL     OW 5320   0.373   3.035   2.365  0.5455 -0.4822  0.0357
34438SOL    HW1 5321   0.322   3.089   2.304  0.8576  0.3876  0.5229
34438SOL    HW2 5322   0.348   2.945   2.344 -1.7853 -0.0637  0.7993
34439SOL     OW 5323   2.193   1.291   2.294 -0.3843 -0.2159  0.3752
34439SOL    HW1 5324   2.162   1.227   2.357 -1.6157  0.1226  0.1295
34439SOL    HW2 5325   2.174   1.376   2.334 -3.8482  0.0924 -1.5805
34440SOL     OW 5326   7.496   7.777   7.318 -0.5406 -0.5902 -0.3277
34440SOL    HW1 5327   7.531   7.775   7.407 -1.0353 -1.5597 -0.1362
34440SOL    HW2 5328   7.542   7.849   7.276  1.7485 -1.8308 -0.1119
34441SOL     OW 5329   2.049  10.326   6.546  0.0899  0.3249 -0.2196
34441SOL    HW1 5330   2.071  10.324   6.453  0.6584 -0.6285 -0.0847
34441SOL    HW2 5331   2.047  10.234   6.572 -2.3641  0.4233  0.2131
34442SOL     OW 5332   0.294   4.163   1.436  0.3335  0.5094 -0.2963
34442SOL    HW1 5333   0.230   4.094   1.417  0.9657  0.3089 -1.8404
34442SOL    HW2 5334   0.254   4.242   1.399 -0.2296  0.9510  1.1612
34443SOL     OW 5335   9.758  10.339   5.765  0.0294 -0.9236 -0.3326
34443SOL    HW1 5336   9.763  10.393   5.686  1.1402 -0.4311  0.0524
34443SOL    HW2 5337   9.665  10.329   5.782 -0.2064 -0.5061 -1.3519
34444SOL     OW 5338   0.087   6.131   4.188 -0.5269 -0.1259 -0.2680
34444SOL    HW1 5339   0.118   6.204   4.133  0.5015  0.9645  1.6520
34444SOL    HW2 5340  -0.008   6.133   4.178 -0.7408  2.8145  1.2014
34445SOL     OW 5341   8.748   8.892   7.928 -0.0317  0.0113 -0.1574
34445SOL    HW1 5342   8.816   8.840   7.884 -0.2569 -0.3544 -0.0808
34445SOL    HW2 5343   8.733   8.846   8.011 -2.3673 -1.5832 -1.3352
34446SOL     OW 5344   9.140   9.275   9.075 -0.0028 -0.7428 -0.3064
34446SOL    HW1 5345   9.091   9.256   8.994 -3.1659  0.6809  1.1097
34446SOL    HW2 5346   9.093   9.227   9.143  0.0203  1.3456  1.2718
34447SOL     OW 5347   5.057   1.334   7.445  0.7390  0.4521 -0.1960
34447SOL    HW1 5348   4.972   1.337   7.487  0.4370  0.2790 -0.7816
34447SOL    HW2 5349   5.099   1.417   7.467  1.2966 -0.3225  1.8816
34448SOL     OW 5350   4.232   6.075   7.309  0.3045  1.0912 -0.4695
34448SOL    HW1 5351   4.317   6.033   7.302 -0.3335 -0.0827 -1.5524
34448SOL    HW2 5352   4.252   6.165   7.333  1.9294  1.1562 -1.8592
34449SOL     OW 5353   0.775  10.346   3.265 -0.1654 -0.3599 -0.5345
34449SOL    HW1 5354   0.744  10.321   3.178  1.8197  1.3567 -1.8367
34449SOL    HW2 5355   0.829  10.424   3.249  1.2259 -0.6970  2.0870
34450SOL     OW 5356   0.296   1.712   5.706 -0.2830  0.4262 -0.0237
34450SOL    HW1 5357   0.361   1.706   5.636 -1.6401 -0.8930 -1.2583
34450SOL    HW2 5358   0.326   1.784   5.761  0.6371  1.7781 -2.1849
34451SOL     OW 5359   9.381   0.853   1.889 -0.1502 -0.4679 -0.1467
34451SOL    HW1 5360   9.336   0.845   1.805  0.5344  0.6560 -0.6479
34451SOL    HW2 5361   9.466   0.810   1.876  0.4014  0.6599 -0.4024
34452SOL     OW 5362   9.403   2.094   5.178 -0.2062 -0.5441  0.5152
34452SOL    HW1 5363   9.395   2.124   5.269 -2.6255 -0.0882  0.2275
34452SOL    HW2 5364   9.360   2.162   5.127  1.5525 -0.5570 -1.0758
34453SOL     OW 5365   6.830   2.577   3.503  0.2090  0.4991 -0.0343
34453SOL    HW1 5366   6.853   2.490   3.470 -0.0433  0.9111 -1.3482
34453SOL    HW2 5367   6.741   2.591   3.473 -0.5858  0.3285  2.0811
34454SOL     OW 5368   6.625   7.454   0.235  0.7341 -0.2920  0.8086
34454SOL    HW1 5369   6.637   7.453   0.140 -1.6585  0.0047  0.4473
34454SOL    HW2 5370   6.640   7.546   0.260  1.2152 -0.3401  0.7056
34455SOL     OW 5371   1.343   7.400   7.646 -0.3173 -1.0233  0.3908
34455SOL    HW1 5372   1.287   7.400   7.724  0.5548  0.2804  1.0465
34455SOL    HW2 5373   1.406   7.470   7.661  0.2772 -1.1620 -1.2149
34456SOL     OW 5374   9.162   7.373  10.643  0.0542 -0.2806  0.3876
34456SOL    HW1 5375   9.107   7.404  10.572 -1.3207 -0.5438  1.3146
34456SOL    HW2 5376   9.139   7.427  10.718 -0.8158 -2.0233  1.4513
34457SOL     OW 5377   5.082   4.188   3.596  0.2930  0.0635 -0.4721
34457SOL    HW1 5378   5.155   4.212   3.653  0.1105  1.8318 -0.9026
34457SOL    HW2 5379   5.066   4.267   3.544 -1.9534 -0.2528 -0.3609
34458SOL     OW 5380   9.536  10.053   9.803  0.3363  0.1166 -0.2196
34458SOL    HW1 5381   9.489   9.997   9.865  0.4484 -0.7542 -0.9153
34458SOL    HW2 5382   9.618  10.074   9.848  0.9969 -1.5887 -0.5732
34459SOL     OW 5383   0.609   8.330   3.673  0.2940 -0.5700 -0.5132
34459SOL    HW1 5384   0.683   8.291   3.626 -0.0210 -1.9594  0.0933
34459SOL    HW2 5385   0.555   8.368   3.604  2.6342  2.5808 -0.8616
34460SOL     OW 5386   3.019   2.663   2.988 -0.2468 -0.9409  0.7304
34460SOL    HW1 5387   3.096   2.624   2.947  0.1571  0.7803 -0.2450
34460SOL    HW2 5388   3.053   2.737   3.039 -1.1789 -0.5530  0.8206
34461SOL     OW 5389   1.786   0.566   6.434 -0.9980 -0.0949 -0.1825
34461SOL    HW1 5390   1.777   0.605   6.347 -3.0333  0.1248  0.0609
34461SOL    HW2 5391   1.799   0.640   6.492  0.6031 -0.2596 -0.2890
34462SOL     OW 5392   9.631   5.684   5.051  0.3807  0.0824 -0.5933
34462SOL    HW1 5393   9.603   5.771   5.080  2.1622  0.3698  0.4149
34462SOL    HW2 5394   9.649   5.695   4.958  3.3702  1.6624  0.0392
34463SOL     OW 5395   9.024   2.685   8.256  0.1077 -0.2507 -0.8014
34463SOL    HW1 5396   9.050   2.615   8.196 -0.6361 -0.8892 -0.3978
34463SOL    HW2 5397   9.105   2.731   8.275  0.8439 -1.7828 -0.0897
34464SOL     OW 5398   1.646   0.442   5.037 -0.2802  0.5142  0.3688
34464SOL    HW1 5399   1.557   0.429   5.005 -0.1251 -1.4522  0.6141
34464SOL    HW2 5400   1.695   0.368   5.001  1.0146  0.9958  1.0982
34465SOL     OW 5401   1.978  10.734   5.129 -0.2750  0.2895 -0.1488
34465SOL    HW1 5402   1.908  10.681   5.090  0.7729 -0.4402 -1.1014
34465SOL    HW2 5403   2.052  10.725   5.069  0.8117  0.6291  1.0749
34466SOL     OW 5404   2.165   6.023   8.509 -0.1283 -0.5142  0.0690
34466SOL    HW1 5405   2.087   6.062   8.550  1.3309  0.9404  1.6241
34466SOL    HW2 5406   2.204   6.094   8.459  0.9201 -0.8234  0.4177
34467SOL     OW 5407   3.055   8.343   7.590 -0.0106 -0.9223  0.1486
34467SOL    HW1 5408   3.124   8.389   7.541  1.4670 -3.1653 -0.0026
34467SOL    HW2 5409   3.011   8.289   7.525 -0.7874 -0.8000  0.5678
34468SOL     OW 5410  10.346   7.909   2.113  0.2617  0.3629 -0.0639
34468SOL    HW1 5411  10.385   7.822   2.099  0.8457  0.5836  0.1678
34468SOL    HW2 5412  10.305   7.903   2.199 -0.8343 -0.0885 -0.6040
34469SOL     OW 5413   3.450   8.236   9.668  0.2900 -0.2893 -0.5673
34469SOL    HW1 5414   3.505   8.201   9.597 -0.3559  0.1031 -1.2823
34469SOL    HW2 5415   3.506   8.298   9.713  1.2826 -1.8087  0.3812
34470SOL     OW 5416   0.588   0.314   7.507  0.1617  0.3946 -0.2910
34470SOL    HW1 5417   0.651   0.372   7.465  0.4774  1.7962  1.9614
34470SOL    HW2 5418   0.537   0.277   7.434  1.5966  1.5342 -1.9555
34471SOL     OW 5419   4.797   4.425   6.535 -0.1786 -0.8218  0.0164
34471SOL    HW1 5420   4.711   4.385   6.525  0.4047 -2.7374  1.8449
34471SOL    HW2 5421   4.826   4.398   6.622  1.7934  0.7358 -0.0851
34472SOL     OW 5422   7.730   8.191   7.983  0.0739  0.2696 -1.1728
34472SOL    HW1 5423   7.704   8.103   7.956  0.7772  0.3381 -2.1139
34472SOL    HW2 5424   7.674   8.210   8.058  0.6751 -1.4092 -0.2510
34473SOL     OW 5425   6.609   3.624  10.618 -0.5254 -0.4760  0.0304
34473SOL    HW1 5426   6.521   3.588  10.624 -0.0608 -1.6410  0.1348
34473SOL    HW2 5427   6.603   3.710  10.660 -2.2432  0.7295 -2.4867
34474SOL     OW 5428   8.075   2.206   4.022 -0.1064 -0.6329  0.4099
34474SOL    HW1 5429   8.113   2.118   4.031  1.1300 -0.3884 -1.5950
34474SOL    HW2 5430   8.106   2.253   4.099  1.4181 -1.2695  0.2435
34475SOL     OW 5431   9.754   1.594   1.156 -0.1758  0.3777  0.5886
34475SOL    HW1 5432   9.747   1.607   1.250 -0.5432  0.9916  0.4863
34475SOL    HW2 5433   9.837   1.549   1.143 -0.9871 -1.4217  1.3623
34476SOL     OW 5434   0.887   1.989  10.195  0.3763  0.3517 -0.5276
34476SOL    HW1 5435   0.886   2.082  10.174  2.9751  0.7597  0.7340
34476SOL    HW2 5436   0.949   1.951  10.132 -0.4543 -0.4984 -0.8554
34477SOL     OW 5437  10.978   8.740   7.900 -0.3079 -0.0132  0.7410
34477SOL    HW1 5438  10.921   8.683   7.848 -1.7913  2.3999 -0.4759
34477SOL    HW2 5439  10.959   8.828   7.868  1.8859  1.2018  2.4981
34478SOL     OW 5440   5.243   0.458   6.782  0.8054  0.0409  0.4861
34478SOL    HW1 5441   5.178   0.413   6.728 -1.1286 -0.0646  2.7502
34478SOL    HW2 5442   5.295   0.387   6.820  0.9345  0.0230  0.2827
34479SOL     OW 5443   9.109   5.545  10.576  0.1717 -0.1036  0.0890
34479SOL    HW1 5444   9.073   5.529  10.488  1.0285 -0.1716 -0.2608
34479SOL    HW2 5445   9.033   5.539  10.634 -0.6436  1.1790 -0.7713
34480SOL     OW 5446   9.180   1.767   1.072 -0.1867 -0.3784  0.1570
34480SOL    HW1 5447   9.230   1.839   1.034 -2.3620  0.5029 -1.2762
34480SOL    HW2 5448   9.089   1.799   1.072 -0.8209 -1.8534  2.6447
34481SOL     OW 5449   6.129   4.481   2.131 -0.0077  1.1900  0.6000
34481SOL    HW1 5450   6.102   4.531   2.055 -0.7312  0.8325  0.6074
34481SOL    HW2 5451   6.056   4.421   2.148  0.9408 -0.0659  0.4187
34482SOL     OW 5452   9.394   5.822   2.703 -0.4623  0.1546  0.4906
34482SOL    HW1 5453   9.441   5.742   2.726  1.8393  0.7940 -1.6358
34482SOL    HW2 5454   9.438   5.854   2.625 -1.4106  3.4281  1.1639
34483SOL     OW 5455  10.595   5.119   8.564 -0.2241  0.1947 -0.0416
34483SOL    HW1 5456  10.645   5.080   8.493 -0.0818 -0.3818  0.3629
34483SOL    HW2 5457  10.535   5.050   8.592  0.1163  0.2078  0.7724
34484SOL     OW 5458   2.838   4.033   0.549  0.4287  0.5877 -0.6224
34484SOL    HW1 5459   2.930   4.016   0.570  0.3742  0.7129 -0.2788
34484SOL    HW2 5460   2.799   4.057   0.633 -0.0756 -0.1764 -0.6259
34485SOL     OW 5461   9.571   9.726   7.202 -0.3255  1.0552 -0.0633
34485SOL    HW1 5462   9.529   9.663   7.144  1.5342 -0.0274 -0.3065
34485SOL    HW2 5463   9.507   9.740   7.272 -1.4746  0.2481 -0.9177
34486SOL     OW 5464  10.671   8.020   5.502  0.3010 -0.1427  0.2939
34486SOL    HW1 5465  10.665   8.115   5.516 -1.6823 -0.0647 -0.6997
34486SOL    HW2 5466  10.759   7.996   5.533  0.0339  1.6333  2.6976
34487SOL     OW 5467   3.162  10.038   2.388 -0.4650 -0.8225  0.8556
34487SOL    HW1 5468   3.154   9.945   2.366 -1.8560 -1.5806  3.9396
34487SOL    HW2 5469   3.249  10.044   2.428 -1.1159 -1.3124  2.4331
34488SOL     OW 5470   3.895   5.300   8.823  0.1708  0.4557  0.3326
34488SOL    HW1 5471   3.980   5.300   8.779 -0.1178  0.2158 -0.2180
34488SOL    HW2 5472   3.917   5.292   8.916  0.6457 -3.3778  0.0289
34489SOL     OW 5473   1.373   3.171  10.061  0.1057 -0.6479  0.3290
34489SOL    HW1 5474   1.441   3.110  10.092  2.8417  1.7350 -0.4946
34489SOL    HW2 5475   1.382   3.248  10.117  0.8013  1.2226 -2.1727
34490SOL     OW 5476   0.116   7.678   9.513 -0.6343 -0.2348  0.0904
34490SOL    HW1 5477   0.211   7.681   9.504 -0.6748 -0.8417 -0.6134
34490SOL    HW2 5478   0.101   7.627   9.593 -0.4053 -3.4731 -1.8046
34491SOL     OW 5479   8.840   5.973   4.645  0.0458  0.3445 -0.7853
34491SOL    HW1 5480   8.800   5.886   4.633  0.4529  0.1537 -0.7650
34491SOL    HW2 5481   8.806   6.002   4.730  0.7088 -0.2424 -0.2998
34492SOL     OW 5482   5.679   0.586   4.118 -0.4664  0.1650 -0.2974
34492SOL    HW1 5483   5.639   0.516   4.171  1.1546 -1.4174 -1.0527
34492SOL    HW2 5484   5.634   0.582   4.034 -2.0423  1.7120  0.4178
34493SOL     OW 5485   1.504   7.620   6.102 -0.3691 -0.3824 -1.0941
34493SOL    HW1 5486   1.422   7.595   6.143  1.2177 -3.3522  0.6412
34493SOL    HW2 5487   1.490   7.605   6.008 -1.0073 -3.9370 -0.5720
34494SOL     OW 5488   4.542   7.308   0.871  0.6532 -0.4069 -0.7891
34494SOL    HW1 5489   4.526   7.386   0.819  0.8418  0.5895  0.5936
34494SOL    HW2 5490   4.615   7.332   0.928 -0.4238 -0.9707  0.8878
34495SOL     OW 5491   0.191   4.325  10.499 -0.2916  0.1893 -0.3153
34495SOL    HW1 5492   0.132   4.270  10.550 -0.8262 -1.2565 -2.3333
34495SOL    HW2 5493   0.263   4.344  10.558 -1.2142 -0.7589  1.1991
34496SOL     OW 5494   8.560  10.758   6.566  0.6069 -0.4671 -0.7879
34496SOL    HW1 5495   8.484  10.769   6.509 -0.2498 -0.4523  0.3302
34496SOL    HW2 5496   8.523  10.740   6.653  1.8831 -1.6049 -0.4478
34497SOL     OW 5497   6.991   3.891   9.840  0.0810 -0.4585 -0.0201
34497SOL    HW1 5498   6.923   3.855   9.898  1.2468 -0.6682  1.2545
34497SOL    HW2 5499   6.945   3.906   9.757 -1.9317  0.8916  1.2483
34498SOL     OW 5500   5.812   9.825   7.166 -0.0999  0.0965 -0.0716
34498SOL    HW1 5501   5.730   9.865   7.195 -0.6288 -1.7409  1.1401
34498SOL    HW2 5502   5.795   9.800   7.076 -1.0035 -0.5271  0.2532
34499SOL     OW 5503   4.287  10.512   8.496 -0.2761 -0.0041  0.1134
34499SOL    HW1 5504   4.327  10.533   8.412  0.7729  0.6932  0.7656
34499SOL    HW2 5505   4.201  10.554   8.493  0.8197  2.4120  0.4346
34500SOL     OW 5506  10.797   6.033   3.731 -0.3071 -0.3108  0.8805
34500SOL    HW1 5507  10.837   6.099   3.674 -0.1830 -0.8020  0.3768
34500SOL    HW2 5508  10.793   5.954   3.676  0.7325 -1.0855  1.8634
34501SOL     OW 5509   1.568   9.265   3.170 -0.1948  0.0296 -0.7725
34501SOL    HW1 5510   1.565   9.190   3.110 -1.7985  0.3087 -1.0943
34501SOL    HW2 5511   1.611   9.334   3.120 -0.4844 -0.0936 -1.1989
34502SOL     OW 5512   1.255   8.587   4.988 -0.5443 -0.3942 -0.2387
34502SOL    HW1 5513   1.181   8.642   4.964 -1.2824 -1.5595 -0.7191
34502SOL    HW2 5514   1.216   8.501   5.006  0.7535 -1.2391 -1.2726
34503SOL     OW 5515   6.729   8.296   2.395 -0.0151 -0.2482  0.2507
34503SOL    HW1 5516   6.705   8.348   2.318 -1.4522  0.7781  1.3451
34503SOL    HW2 5517   6.825   8.290   2.391  0.0453  0.9780 -0.8595
34504SOL     OW 5518   1.002   0.684   5.289 -0.6104  0.4593 -0.3756
34504SOL    HW1 5519   0.911   0.676   5.318 -0.5300  1.2448  0.1127
34504SOL    HW2 5520   1.047   0.611   5.331 -0.4557  1.6814  1.7072
34505SOL     OW 5521   5.919   4.846   1.881  0.4325  0.7271  0.3555
34505SOL    HW1 5522   5.962   4.840   1.966  0.6480  0.9788  0.2666
34505SOL    HW2 5523   5.825   4.847   1.901  0.4541 -0.1630  0.5296
34506SOL     OW 5524   5.810   6.190  10.519  0.1353 -0.3333 -0.1430
34506SOL    HW1 5525   5.730   6.209  10.470  0.3396  1.9334  0.2996
34506SOL    HW2 5526   5.879   6.185  10.452  0.1210  0.9413 -0.2697
34507SOL     OW 5527   9.858   2.526  10.955  0.7735 -0.1453  0.4549
34507SOL    HW1 5528   9.858   2.446  10.903  0.7653  0.7704 -0.9852
34507SOL    HW2 5529   9.951   2.547  10.966  0.8628 -1.2834  2.3761
34508SOL     OW 5530   3.192   3.553   7.411 -0.1852 -0.3208  0.2306
34508SOL    HW1 5531   3.186   3.476   7.467 -0.7731 -1.0823 -0.8409
34508SOL    HW2 5532   3.104   3.591   7.412 -0.2172 -0.3720 -0.1989
34509SOL     OW 5533   1.477   8.850   9.448  0.3515  0.0146 -0.0224
34509SOL    HW1 5534   1.566   8.874   9.423 -0.0910  0.6681 -1.0122
34509SOL    HW2 5535   1.425   8.927   9.429 -0.5315 -0.5771 -0.0536
34510SOL     OW 5536   8.737   6.948   8.896  0.1491 -0.3804  0.2166
34510SOL    HW1 5537   8.737   6.953   8.800  1.7924  1.9504  0.2641
34510SOL    HW2 5538   8.647   6.924   8.918  0.0718 -2.5154 -1.9047
34511SOL     OW 5539  10.637   7.870   3.351 -1.1338 -0.2934 -0.3246
34511SOL    HW1 5540  10.696   7.860   3.277 -1.7363  0.4349 -0.9221
34511SOL    HW2 5541  10.624   7.965   3.359 -1.1174 -0.3645  0.6780
34512SOL     OW 5542   2.558   4.272   4.032  0.7856  0.1893 -0.7659
34512SOL    HW1 5543   2.614   4.225   4.093  2.1555  0.3379 -1.8614
34512SOL    HW2 5544   2.566   4.364   4.058  1.6717  0.2972 -1.3707
34513SOL     OW 5545   6.705   1.942   2.440  0.3559 -1.0173  0.8578
34513SOL    HW1 5546   6.787   1.968   2.398 -0.6585 -1.4389 -1.5647
34513SOL    HW2 5547   6.706   1.846   2.438  0.2215 -1.0458  1.7256
34514SOL     OW 5548   2.140   9.539   2.647 -0.1887 -0.5999  1.0976
34514SOL    HW1 5549   2.218   9.555   2.593  0.3436  1.3282  2.3340
34514SOL    HW2 5550   2.067   9.557   2.589  0.3506  0.5149  0.7460
34515SOL     OW 5551   4.309   8.264   3.626 -0.0859 -0.1165  0.0553
34515SOL    HW1 5552   4.241   8.315   3.581 -0.5731  1.2157  2.1567
34515SOL    HW2 5553   4.260   8.209   3.688  0.6601 -0.5678  0.2597
34516SOL     OW 5554   8.094   9.869   1.804 -0.0692  0.8310  0.3229
34516SOL    HW1 5555   8.103   9.798   1.741 -0.7587  0.3595  0.7283
34516SOL    HW2 5556   8.068   9.945   1.752  0.1686  0.6550 -0.0557
34517SOL     OW 5557   3.164   6.891   2.048  0.4384 -0.4391 -0.4646
34517SOL    HW1 5558   3.215   6.951   1.993 -1.8973  0.1361 -2.1298
34517SOL    HW2 5559   3.167   6.931   2.135  1.5506  0.3888 -0.8578
34518SOL     OW 5560   1.213  10.220   3.834 -0.8582 -0.4549 -0.2987
34518SOL    HW1 5561   1.175  10.194   3.918 -0.7683 -0.9909 -0.4171
34518SOL    HW2 5562   1.288  10.275   3.857  0.8013 -2.7308  0.0912
34519SOL     OW 5563  10.941   7.346   9.664  0.3051  0.6661 -0.3180
34519SOL    HW1 5564  10.941   7.429   9.712  2.0027  0.4791  0.0775
34519SOL    HW2 5565  10.894   7.285   9.722  0.9271  0.8379  0.3862
34520SOL     OW 5566  11.089  11.003   4.357  0.4414  0.3468 -0.0014
34520SOL    HW1 5567  11.019  11.015   4.421  0.0267  1.0091 -0.5536
34520SOL    HW2 5568  11.062  11.058   4.283  0.6644 -0.7805 -0.9366
34521SOL     OW 5569   2.977   2.273   3.155 -0.4381  0.1358 -0.4561
34521SOL    HW1 5570   3.003   2.181   3.156  2.1412  0.7724  1.4694
34521SOL    HW2 5571   2.883   2.270   3.173 -0.3959 -2.1200 -0.2395
34522SOL     OW 5572   3.931   7.560   6.457 -0.1853 -1.0836  0.4329
34522SOL    HW1 5573   3.889   7.556   6.543  0.2689  1.2431  0.8161
34522SOL    HW2 5574   4.016   7.517   6.471 -0.1850 -0.8754  1.1119
34523SOL     OW 5575  10.053   0.098   8.665  1.3562  0.6707 -0.3282
34523SOL    HW1 5576  10.030   0.188   8.642 -0.9283 -0.4936 -3.3545
34523SOL    HW2 5577   9.979   0.046   8.634  1.3504 -2.1172  3.5930
34524SOL     OW 5578   9.997   0.367   1.081 -0.3249  0.5808  0.9816
34524SOL    HW1 5579   9.976   0.414   1.001 -1.7741 -0.9292  0.4175
34524SOL    HW2 5580   9.932   0.397   1.145 -0.7049  0.0146  0.8700
34525SOL     OW 5581   6.309   1.218  10.327 -0.0250 -0.1291  0.0755
34525SOL    HW1 5582   6.367   1.293  10.326 -0.0263 -0.1160  0.5569
34525SOL    HW2 5583   6.365   1.144  10.304 -0.1134  0.0714 -0.8158
34526SOL     OW 5584   8.188   1.789   6.124  0.1116  0.1664 -0.0717
34526SOL    HW1 5585   8.160   1.867   6.076 -0.6763  0.2976  0.5733
34526SOL    HW2 5586   8.263   1.818   6.177  0.5198  0.2014 -0.6650
34527SOL     OW 5587  11.074   1.186   7.576  0.0566  0.0906 -0.2951
34527SOL    HW1 5588  11.056   1.271   7.536 -1.2535 -0.1376 -0.2463
34527SOL    HW2 5589  11.118   1.136   7.507  0.9230  0.8293 -0.2888
34528SOL     OW 5590   1.807   6.003   6.035 -0.3846 -0.2571 -0.3980
34528SOL    HW1 5591   1.883   6.031   6.088 -2.3452  2.5128  1.2171
34528SOL    HW2 5592   1.761   5.940   6.091 -0.0811 -0.8232 -0.7729
34529SOL     OW 5593   7.818  11.063   5.722 -0.4692  0.0904  0.2283
34529SOL    HW1 5594   7.901  11.042   5.764 -0.1021 -0.0629 -0.5576
34529SOL    HW2 5595   7.752  11.042   5.788 -0.0650 -2.5168 -0.0891
34530SOL     OW 5596   7.916   6.035   3.925 -1.0228  0.0536  0.1100
34530SOL    HW1 5597   7.995   6.083   3.947 -1.0279  0.9139 -1.5577
34530SOL    HW2 5598   7.948   5.957   3.879 -1.1040 -0.0595  0.2473
34531SOL     OW 5599   7.777   8.905   6.422  0.1081  0.5935  0.1408
34531SOL    HW1 5600   7.772   8.863   6.337  1.2541  0.2556  0.2290
34531SOL    HW2 5601   7.862   8.881   6.457 -0.1582  1.0872  1.2012
34532SOL     OW 5602   6.357   7.266   0.602  0.6450 -0.0175 -0.2119
34532SOL    HW1 5603   6.333   7.351   0.639  0.1994  0.3934 -1.4041
34532SOL    HW2 5604   6.447   7.279   0.572  2.4790 -1.4554  3.9466
34533SOL     OW 5605   9.280   1.826   1.864 -0.0720  0.9425  0.7002
34533SOL    HW1 5606   9.352   1.769   1.892 -0.8740 -0.2119  0.4634
34533SOL    HW2 5607   9.264   1.884   1.939  0.0792  0.1788  1.3296
34534SOL     OW 5608   2.344   4.235   3.160  0.0348 -0.9501  0.3048
34534SOL    HW1 5609   2.406   4.162   3.156  0.7222 -0.3739  0.2431
34534SOL    HW2 5610   2.397   4.310   3.188 -0.3055 -0.0922 -1.2546
34535SOL     OW 5611   1.881   6.599  10.425 -0.1587  0.8382 -0.7907
34535SOL    HW1 5612   1.796   6.580  10.386 -0.0868 -0.2030 -0.4690
34535SOL    HW2 5613   1.944   6.573  10.358  0.0306 -2.5717  0.5285
34536SOL     OW 5614   1.271   4.857   4.948 -0.0848  0.2380  0.9112
34536SOL    HW1 5615   1.329   4.934   4.943 -0.0994  0.1818 -1.1954
34536SOL    HW2 5616   1.199   4.885   5.004  0.2093  1.5566  0.6797
34537SOL     OW 5617   5.686   9.424   0.622 -0.3258  0.3776 -0.4001
34537SOL    HW1 5618   5.648   9.425   0.710  0.7827  2.2024  0.1106
34537SOL    HW2 5619   5.734   9.507   0.615 -0.6715  0.4612 -2.8680
34538SOL     OW 5620   1.341   1.323   1.818 -0.1722 -0.2773 -0.4432
34538SOL    HW1 5621   1.436   1.323   1.825 -0.0912 -0.0077 -1.4040
34538SOL    HW2 5622   1.323   1.280   1.735 -0.7274  2.4226 -1.8270
34539SOL     OW 5623   2.653   8.993   7.649  0.4077  0.6201 -0.4858
34539SOL    HW1 5624   2.607   9.036   7.721  0.9883 -0.2325  0.4148
34539SOL    HW2 5625   2.725   9.051   7.627 -0.5255  1.5158 -1.2819
34540SOL     OW 5626  10.509   2.249   4.300 -0.2160  0.1164  0.5503
34540SOL    HW1 5627  10.440   2.251   4.234 -0.2374 -1.4823  0.4885
34540SOL    HW2 5628  10.534   2.157   4.307  1.6290  0.5829  0.8677
34541SOL     OW 5629   8.658   0.851   1.790 -0.3073 -0.7026 -0.6231
34541SOL    HW1 5630   8.601   0.838   1.867  1.8119 -0.0457  1.1561
34541SOL    HW2 5631   8.598   0.877   1.720 -2.0672  1.6068  1.5760
34542SOL     OW 5632   6.754  10.891   5.896  0.2344  0.0321 -0.2504
34542SOL    HW1 5633   6.662  10.872   5.877  0.4386  1.1116 -2.7417
34542SOL    HW2 5634   6.803  10.834   5.838  1.1194  0.3436  0.1698
34543SOL     OW 5635   1.160   7.963   2.286  0.7391  0.4013 -0.4117
34543SOL    HW1 5636   1.090   7.993   2.344  0.8714 -0.9114  0.4670
34543SOL    HW2 5637   1.219   8.038   2.280 -1.3546  2.0705 -2.2895
34544SOL     OW 5638   7.016   2.514   7.135 -0.2483  0.2160  0.4360
34544SOL    HW1 5639   7.028   2.439   7.193 -0.5027  2.3752  3.5239
34544SOL    HW2 5640   6.924   2.508   7.107 -0.3250 -0.5051  0.8167
34545SOL     OW 5641  10.857   6.534   4.006 -0.2762  0.4471  0.4845
34545SOL    HW1 5642  10.789   6.470   3.985  0.0158  0.8852 -2.1442
34545SOL    HW2 5643  10.868   6.527   4.100 -1.1423 -2.4654  0.4651
34546SOL     OW 5644   2.643  10.833  10.587  0.1992  0.0233 -0.1821
34546SOL    HW1 5645   2.739  10.837  10.581  0.2603 -0.8422  0.0700
34546SOL    HW2 5646   2.626  10.819  10.680 -0.2045  0.7763 -0.1384
34547SOL     OW 5647   7.943   8.237   5.055 -0.1193 -0.9503  0.8609
34547SOL    HW1 5648   7.873   8.174   5.038  0.0115 -0.8163 -0.2359
34547SOL    HW2 5649   7.899   8.322   5.055  0.2590 -0.6713 -1.7222
34548SOL     OW 5650   5.929   5.314   8.041 -0.2681 -0.4448 -0.0962
34548SOL    HW1 5651   5.966   5.263   7.969 -1.4483 -0.2632 -0.8669
34548SOL    HW2 5652   5.989   5.387   8.053  0.3006 -0.8512 -0.4376
34549SOL     OW 5653   4.179   6.775   4.987  0.4927 -0.3199  0.3176
34549SOL    HW1 5654   4.230   6.790   5.067 -0.3810 -1.3407  1.1055
34549SOL    HW2 5655   4.097   6.736   5.018 -0.8684  1.4143 -0.8787
34550SOL     OW 5656   7.788  10.200   0.006 -0.4171 -0.4703  0.3247
34550SOL    HW1 5657   7.873  10.159  -0.006 -0.9016 -1.2811 -0.5006
34550SOL    HW2 5658   7.750  10.203  -0.082 -1.7552 -1.3050  0.8302
34551SOL     OW 5659  10.028   1.494   4.208 -0.1084  0.1894 -0.6211
34551SOL    HW1 5660   9.937   1.472   4.192 -0.8769  2.4862  0.2410
34551SOL    HW2 5661  10.039   1.580   4.169  1.7188 -0.0399 -0.7028
34552SOL     OW 5662   7.222   8.310   0.282  0.3415  0.4259 -0.1611
34552SOL    HW1 5663   7.244   8.272   0.197  1.0924 -0.7539  0.5226
34552SOL    HW2 5664   7.237   8.404   0.271  1.5253  0.1657 -1.0151
34553SOL     OW 5665   8.521   2.590  10.513  0.2895 -0.2327  0.2996
34553SOL    HW1 5666   8.488   2.567  10.600 -1.8764  0.3100 -0.3265
34553SOL    HW2 5667   8.548   2.506  10.475  0.3857 -0.5880  1.1220
34554SOL     OW 5668   7.884   3.765   8.122 -0.2587 -0.3804 -0.1373
34554SOL    HW1 5669   7.949   3.695   8.114  0.1413  0.1305 -1.6728
34554SOL    HW2 5670   7.854   3.759   8.213  0.8928 -1.5372  0.2042
34555SOL     OW 5671   0.654   9.290  10.224 -0.2870  0.4466 -0.2991
34555SOL    HW1 5672   0.577   9.338  10.253 -1.3643 -0.9057 -0.8135
34555SOL    HW2 5673   0.726   9.324  10.278 -1.4789  0.8408  1.0848
34556SOL     OW 5674   3.086   7.681   0.652  0.4193  0.2371 -0.6434
34556SOL    HW1 5675   3.098   7.759   0.597  1.5752  0.6726  0.1984
34556SOL    HW2 5676   3.168   7.633   0.643  0.1850 -0.2613 -0.1683
34557SOL     OW 5677   2.149  10.495   1.561  0.4811  0.0753 -0.2825
34557SOL    HW1 5678   2.164  10.589   1.555  0.2958  0.1549  0.3814
34557SOL    HW2 5679   2.057  10.484   1.537 -0.3950  0.4491  2.5117
34558SOL     OW 5680   4.431  11.100   5.413 -0.4656  0.4606 -0.2565
34558SOL    HW1 5681   4.454  11.064   5.498  0.5983 -1.1853 -1.1890
34558SOL    HW2 5682   4.409  11.192   5.431  0.5748  0.3847  1.6399
34559SOL     OW 5683   5.884   3.063   2.647  0.1527 -0.6309  0.0414
34559SOL    HW1 5684   5.843   3.138   2.689  1.6815  0.1857  0.1260
34559SOL    HW2 5685   5.854   2.987   2.698 -2.7675 -0.3618 -1.0430
34560SOL     OW 5686   6.181   8.901   8.304 -0.3672  0.2896  0.1177
34560SOL    HW1 5687   6.246   8.839   8.337 -0.4449 -0.0568 -0.3733
34560SOL    HW2 5688   6.146   8.860   8.225 -1.7719  0.1078  0.8164
34561SOL     OW 5689   9.649   3.301   7.113  0.0191  0.3923  0.0889
34561SOL    HW1 5690   9.689   3.218   7.139 -0.1814 -0.2727 -1.6423
34561SOL    HW2 5691   9.682   3.317   7.024  2.8311  3.8989  1.5144
34562SOL     OW 5692   4.689   9.011   0.290 -0.1093 -0.2697  0.2326
34562SOL    HW1 5693   4.622   8.942   0.291 -1.4960  1.0203  1.1517
34562SOL    HW2 5694   4.755   8.979   0.229 -1.6050 -1.5802 -0.7901
34563SOL     OW 5695   9.314   9.375   0.741 -0.1459  0.5599  0.6925
34563SOL    HW1 5696   9.361   9.298   0.771  0.8783  1.2712  0.9633
34563SOL    HW2 5697   9.230   9.371   0.787 -0.0713 -0.3461  0.7630
34564SOL     OW 5698   2.353   4.475   3.862  0.2540 -0.4307 -0.3039
34564SOL    HW1 5699   2.367   4.382   3.850  0.0279 -0.2933 -1.8145
34564SOL    HW2 5700   2.269   4.481   3.908  1.1833 -0.9913  1.5868
34565SOL     OW 5701   8.896   2.513   7.324  0.0123  0.3836 -0.0162
34565SOL    HW1 5702   8.883   2.441   7.261 -0.5967  0.7038 -0.2728
34565SOL    HW2 5703   8.962   2.569   7.283  0.8485 -0.2736  0.4088
34566SOL     OW 5704   4.886   8.450   9.418  0.0562 -0.2881  0.2191
34566SOL    HW1 5705   4.877   8.525   9.476  1.5360  0.8166 -0.9109
34566SOL    HW2 5706   4.836   8.474   9.340 -0.0131 -0.7674  0.1135
34567SOL     OW 5707   7.491   8.996   2.104 -0.3026  0.1185  0.6097
34567SOL    HW1 5708   7.506   9.026   2.014 -1.3887 -0.3540  0.2615
34567SOL    HW2 5709   7.447   9.069   2.147 -0.9768 -0.1368  0.3725
34568SOL     OW 5710   0.953   1.730   5.050 -0.5478 -0.1738 -0.2591
34568SOL    HW1 5711   0.898   1.768   5.118  0.9816 -1.3444  1.7250
34568SOL    HW2 5712   0.958   1.637   5.072 -0.7438 -0.7929 -2.5435
34569SOL     OW 5713   7.325   6.962   9.733 -0.1946  0.4306  0.2792
34569SOL    HW1 5714   7.312   6.893   9.669 -2.7272 -0.3050  1.4828
34569SOL    HW2 5715   7.247   7.017   9.727  0.6640  1.8151  1.0217
34570SOL     OW 5716   1.964   8.897   7.287 -0.2476 -0.1078 -0.3055
34570SOL    HW1 5717   2.021   8.852   7.350  0.7368  0.7845 -0.5234
34570SOL    HW2 5718   1.997   8.987   7.285 -1.1965  0.2373 -1.0188
34571SOL     OW 5719  10.163   2.357   3.542  0.2433 -0.2913 -0.0417
34571SOL    HW1 5720  10.145   2.375   3.634  1.8258 -0.7708  0.4025
34571SOL    HW2 5721  10.221   2.280   3.544 -0.5655 -0.9841 -1.5004
34572SOL     OW 5722   2.398   3.265   4.619  0.0125 -0.1301 -0.0215
34572SOL    HW1 5723   2.487   3.231   4.609  0.4917  0.7471  1.0247
34572SOL    HW2 5724   2.373   3.241   4.708 -0.5283  0.2390 -0.0659
34573SOL     OW 5725   3.348   6.828   8.041 -0.5477  0.6456 -0.4240
34573SOL    HW1 5726   3.354   6.873   8.125 -3.0325  0.1225  0.1039
34573SOL    HW2 5727   3.438   6.801   8.023  0.0146  0.2648  2.3750
34574SOL     OW 5728   1.926   9.671  10.520  0.0866  0.8797  0.3319
34574SOL    HW1 5729   1.855   9.715  10.567 -0.5340 -0.3851  0.6231
34574SOL    HW2 5730   1.905   9.578  10.526  2.1851  0.3927  1.0854
34575SOL     OW 5731   9.835   9.390   6.119  0.4898 -0.6240  0.9146
34575SOL    HW1 5732   9.866   9.350   6.200  2.2091  0.1688  0.7033
34575SOL    HW2 5733   9.904   9.453   6.095 -0.1338 -0.5778 -0.9742
34576SOL     OW 5734   4.335  10.737   6.130 -0.2937 -0.2752  0.5646
34576SOL    HW1 5735   4.319  10.650   6.166 -0.4395 -0.1249  0.8677
34576SOL    HW2 5736   4.335  10.724   6.035 -1.5462 -0.4047  0.5668
34577SOL     OW 5737   6.261  11.079   0.989 -0.0090 -0.3955  0.0150
34577SOL    HW1 5738   6.182  11.104   0.942  2.3786  0.9043 -3.8453
34577SOL    HW2 5739   6.299  11.161   1.019  0.3425 -0.9103  1.0222
34578SOL     OW 5740   4.709   0.281   6.060 -0.2554  0.3486 -0.0790
34578SOL    HW1 5741   4.649   0.244   5.996 -0.3867 -0.3712  0.4593
34578SOL    HW2 5742   4.672   0.257   6.145  0.6572  0.1116  0.2575
34579SOL     OW 5743   6.683   9.697   7.766  1.0092  0.4236 -0.4174
34579SOL    HW1 5744   6.643   9.619   7.804  1.5424  1.1172  1.6931
34579SOL    HW2 5745   6.622   9.724   7.697 -0.1850 -0.7253  0.1439
34580SOL     OW 5746   8.165   3.213   2.553 -0.1231  0.1423  0.3752
34580SOL    HW1 5747   8.179   3.162   2.632 -2.0509 -0.0726  0.6325
34580SOL    HW2 5748   8.073   3.239   2.557 -0.9591 -1.6710 -2.7720
34581SOL     OW 5749   3.584   9.535   3.654  0.1186  0.1992  0.7484
34581SOL    HW1 5750   3.635   9.593   3.711  0.4565 -0.2721  0.9355
34581SOL    HW2 5751   3.622   9.547   3.567 -0.9731  1.5784  0.4466
34582SOL     OW 5752   5.521   6.970   4.793  0.3793  0.0176 -0.2035
34582SOL    HW1 5753   5.605   6.933   4.820  0.2921 -1.1950 -1.4953
34582SOL    HW2 5754   5.459   6.938   4.858  0.8578  0.7156  0.6169
34583SOL     OW 5755   4.422   4.421   7.806 -0.5232  0.5859 -0.6798
34583SOL    HW1 5756   4.334   4.411   7.771  0.2201 -0.4395 -2.3538
34583SOL    HW2 5757   4.454   4.503   7.768 -0.4391  0.5087 -0.7755
34584SOL     OW 5758  10.704   7.525   1.863  0.9625  0.4312 -0.0100
34584SOL    HW1 5759  10.657   7.483   1.791 -0.5856  0.8388  0.7160
34584SOL    HW2 5760  10.722   7.614   1.831  0.2663  0.6155  0.0850
34585SOL     OW 5761   7.847   3.154   5.720  0.3395  0.1525  0.2843
34585SOL    HW1 5762   7.874   3.165   5.812  1.7320 -2.7018  0.3107
34585SOL    HW2 5763   7.799   3.071   5.719  0.8034 -0.1268 -1.6549
34586SOL     OW 5764   7.908   7.693   6.183 -0.4530  0.9582 -0.7014
34586SOL    HW1 5765   7.902   7.788   6.184  0.4685  1.0399 -1.7402
34586SOL    HW2 5766   7.997   7.674   6.152 -0.3413 -0.2349  0.2485
34587SOL     OW 5767   5.527   3.911  10.063 -1.1681  0.2258  0.7511
34587SOL    HW1 5768   5.573   3.832  10.033  0.2575  0.9005  1.0861
34587SOL    HW2 5769   5.479   3.941   9.986 -1.3915 -0.7327  0.5046
34588SOL     OW 5770  11.041   5.700   1.302 -0.4478 -0.0931 -0.3883
34588SOL    HW1 5771  11.076   5.783   1.270 -0.5253 -0.4243 -1.3701
34588SOL    HW2 5772  11.113   5.659   1.350  0.2120 -0.3258 -1.5525
34589SOL     OW 5773   4.677   2.039   7.041  0.6468 -0.3018 -0.1079
34589SOL    HW1 5774   4.677   2.003   7.129 -1.7760  0.1204  0.1272
34589SOL    HW2 5775   4.606   1.993   6.996 -0.6666  2.0925 -0.6507
34590SOL     OW 5776   0.109   1.143   5.318  0.2195 -0.2685  0.1832
34590SOL    HW1 5777   0.062   1.111   5.242  1.3116 -0.9215 -0.2430
34590SOL    HW2 5778   0.077   1.089   5.391 -0.3249 -0.1056  0.0684
34591SOL     OW 5779  10.455   0.662   8.189 -0.3612  0.2601  0.1033
34591SOL    HW1 5780  10.424   0.741   8.144 -2.3243  0.2821  1.3761
34591SOL    HW2 5781  10.408   0.590   8.148 -0.2454  0.0032  0.4162
34592SOL     OW 5782   3.442   6.864   9.877  0.2076  0.2259  0.1908
34592SOL    HW1 5783   3.371   6.852   9.814 -0.4034  0.2239  0.8648
34592SOL    HW2 5784   3.421   6.946   9.922  3.5298  3.4074 -3.3010
34593SOL     OW 5785   0.654   3.916   7.772 -0.3220  0.0888 -0.5427
34593SOL    HW1 5786   0.620   3.976   7.706  0.9247  1.8059  0.3002
34593SOL    HW2 5787   0.742   3.949   7.791  0.8384 -2.6035 -0.7420
34594SOL     OW 5788  10.364   2.456   8.851  0.0839  0.1902 -0.6125
34594SOL    HW1 5789  10.305   2.430   8.922 -1.3575 -1.2090 -2.2307
34594SOL    HW2 5790  10.444   2.407   8.868 -0.1415  0.0778  0.1832
34595SOL     OW 5791   6.742   4.623   7.883 -0.4399  0.3428  0.0444
34595SOL    HW1 5792   6.701   4.705   7.855 -1.3397 -0.4422 -1.0578
34595SOL    HW2 5793   6.672   4.577   7.929 -0.5674 -0.6233 -1.0652
34596SOL     OW 5794   5.490   2.683   4.043  0.4857 -0.0970 -0.3686
34596SOL    HW1 5795   5.541   2.601   4.040  1.2770  0.4042 -1.2118
34596SOL    HW2 5796   5.509   2.720   4.129 -1.4602 -1.7478  0.8663
34597SOL     OW 5797   3.496   2.443   2.010 -0.4075  0.0285 -0.1974
34597SOL    HW1 5798   3.583   2.408   2.026 -0.8418 -0.1616  2.0981
34597SOL    HW2 5799   3.504   2.537   2.028 -0.3211  0.3362 -1.6941
34598SOL     OW 5800   8.509   3.113   1.414  0.0195 -0.1497  0.4971
34598SOL    HW1 5801   8.414   3.110   1.403  0.1267  0.6926 -0.9235
34598SOL    HW2 5802   8.533   3.203   1.392  1.1178 -0.2437  1.2125
34599SOL     OW 5803   9.329   0.862   6.617  0.9387 -0.1156  0.5808
34599SOL    HW1 5804   9.305   0.919   6.691  0.5267 -0.2852  0.5808
34599SOL    HW2 5805   9.424   0.870   6.611  0.8522  0.9094  0.3115
34600SOL     OW 5806   6.170   5.335   0.101  0.5452 -0.6437 -0.0266
34600SOL    HW1 5807   6.260   5.346   0.068  0.4937  0.3789  0.1337
34600SOL    HW2 5808   6.180   5.302   0.190  0.8456  1.1509  0.6498
34601SOL     OW 5809   5.735   0.945   4.997 -0.0455  0.6536  0.6948
34601SOL    HW1 5810   5.725   1.023   4.942  0.7864  0.9557  0.9609
34601SOL    HW2 5811   5.791   0.973   5.070  1.3185 -0.4988  0.1527
34602SOL     OW 5812   3.821   0.200   3.029  0.3217 -0.5020  0.2678
34602SOL    HW1 5813   3.774   0.212   3.111 -1.7933 -1.2185 -0.7753
34602SOL    HW2 5814   3.910   0.230   3.048 -0.5438  1.0165  2.3018
34603SOL     OW 5815   6.473   3.069   5.915 -0.0942  0.3872 -0.2252
34603SOL    HW1 5816   6.554   3.081   5.964 -1.1301 -1.6143  2.2232
34603SOL    HW2 5817   6.431   3.155   5.917  0.2023  0.5617  2.0005
34604SOL     OW 5818   4.372   3.253   1.708 -0.3650  0.2787  0.2251
34604SOL    HW1 5819   4.420   3.172   1.689 -0.4176  0.2322  0.2889
34604SOL    HW2 5820   4.293   3.247   1.654 -1.5380 -0.8260  1.9775
34605SOL     OW 5821   8.193   7.048   6.944  0.1382 -0.3110 -0.7967
34605SOL    HW1 5822   8.274   7.016   6.904  2.0861  1.3335  1.5713
34605SOL    HW2 5823   8.167   6.980   7.005  1.2419  0.2289  0.3105
34606SOL     OW 5824   6.703   7.545   3.441  0.0971 -0.7581 -0.2899
34606SOL    HW1 5825   6.675   7.635   3.458  2.8445 -0.0464  0.9883
34606SOL    HW2 5826   6.650   7.492   3.500  0.4289  0.3574  1.0660
34607SOL     OW 5827   2.165   9.122   6.014  0.1718  0.4891 -0.1624
34607SOL    HW1 5828   2.232   9.059   5.990  0.0608 -0.0013  0.7782
34607SOL    HW2 5829   2.213   9.203   6.030  0.5399  0.1742  0.3685
34608SOL     OW 5830   5.573   0.494   6.029  0.1137 -0.1414 -0.2326
34608SOL    HW1 5831   5.580   0.459   6.118  2.4219 -0.9702 -0.6799
34608SOL    HW2 5832   5.559   0.588   6.042  1.0389 -0.1412  1.0435
34609SOL     OW 5833   6.201   9.987   1.898  0.1234 -0.1658  0.0620
34609SOL    HW1 5834   6.147   9.913   1.871 -0.4319  0.7304 -1.3680
34609SOL    HW2 5835   6.241  10.018   1.817 -2.0459  3.0049  0.0295
34610SOL     OW 5836   5.024   0.538   5.221 -0.1226 -0.6448  0.1101
34610SOL    HW1 5837   5.119   0.541   5.217 -0.0472 -0.6037  1.4590
34610SOL    HW2 5838   4.995   0.613   5.169  0.5130 -1.4978 -1.5415
34611SOL     OW 5839   6.439   8.202   8.102  0.6755 -0.4209 -0.0784
34611SOL    HW1 5840   6.468   8.134   8.163 -1.2770  0.1009  1.5425
34611SOL    HW2 5841   6.343   8.196   8.104  0.5183  0.5469 -2.0782
34612SOL     OW 5842   6.648   9.142  10.570 -0.3510  0.5027  0.5261
34612SOL    HW1 5843   6.687   9.181  10.648  1.2417 -0.3359  0.1839
34612SOL    HW2 5844   6.700   9.063  10.554  1.1460  2.0056 -2.8976
34613SOL     OW 5845   0.294   7.822   5.780  0.2349 -0.3941  0.0656
34613SOL    HW1 5846   0.361   7.753   5.783 -0.2090 -0.8068  1.8038
34613SOL    HW2 5847   0.342   7.902   5.801  1.2042  0.3633 -4.1006
34614SOL     OW 5848  10.420   0.770  10.556  1.0941  0.1590  0.2039
34614SOL    HW1 5849  10.371   0.745  10.477  3.0947  0.0361 -1.0598
34614SOL    HW2 5850  10.448   0.687  10.593  1.0676  0.2595  0.4467
34615SOL     OW 5851   8.859   9.383   0.514 -0.2105 -0.2725  0.5429
34615SOL    HW1 5852   8.863   9.287   0.505 -0.9068 -0.4487  1.8990
34615SOL    HW2 5853   8.796   9.397   0.585 -1.1098  1.2328 -0.5066
34616SOL     OW 5854  10.128   5.778   9.187 -0.3351  0.0172 -0.8523
34616SOL    HW1 5855  10.049   5.823   9.217 -0.3716 -0.1053 -0.7631
34616SOL    HW2 5856  10.125   5.693   9.231 -0.9371 -0.5827 -1.9798
34617SOL     OW 5857   9.919   3.616   0.907  0.4173  0.1111  1.0133
34617SOL    HW1 5858   9.902   3.545   0.845 -0.2996  0.9862  0.1693
34617SOL    HW2 5859  10.001   3.655   0.877  1.2225 -0.8127  1.9374
34618SOL     OW 5860   2.700   4.578   4.680  0.0170 -0.3480 -0.3856
34618SOL    HW1 5861   2.675   4.648   4.619 -0.6956  0.9857  1.3102
34618SOL    HW2 5862   2.654   4.601   4.761 -1.3321 -3.5457 -0.1002
34619SOL     OW 5863   4.762   4.063   2.004  0.1293  0.5394 -0.4583
34619SOL    HW1 5864   4.697   4.004   1.965  0.1573  1.2615 -1.6451
34619SOL    HW2 5865   4.749   4.147   1.959  1.9447  0.6731 -0.8399
34620SOL     OW 5866   4.658  10.026   4.191 -0.6789  0.4811 -0.1102
34620SOL    HW1 5867   4.749   9.999   4.201 -0.3754  0.2927 -2.6199
34620SOL    HW2 5868   4.612   9.985   4.264  0.8020 -1.7578 -0.3418
34621SOL     OW 5869   6.204   7.684   0.075 -0.3439 -0.2270  0.4058
34621SOL    HW1 5870   6.182   7.602   0.032 -2.2073  0.0279  0.7563
34621SOL    HW2 5871   6.119   7.729   0.084  0.6341  1.7593  0.1423
34622SOL     OW 5872   0.825   3.013   1.464 -0.5810 -0.0801  0.7075
34622SOL    HW1 5873   0.748   2.956   1.471 -0.7069 -0.2229 -1.2439
34622SOL    HW2 5874   0.892   2.957   1.426 -0.1851  0.6272  0.3583
34623SOL     OW 5875   2.410   5.599   4.881  0.1860 -0.7969 -0.9178
34623SOL    HW1 5876   2.483   5.660   4.876 -0.6465  0.2587 -0.6199
34623SOL    HW2 5877   2.366   5.607   4.797 -0.7461  0.1117 -0.3731
34624SOL     OW 5878   1.837   7.641   7.673 -0.0464  0.5596  0.0266
34624SOL    HW1 5879   1.778   7.688   7.731  0.1870 -0.3267  1.0295
34624SOL    HW2 5880   1.924   7.670   7.700  0.0077  1.5116 -1.1294
34625SOL     OW 5881   3.677   3.279   0.982 -0.6173  0.3724  0.0314
34625SOL    HW1 5882   3.749   3.327   1.022 -1.6393  2.3249 -0.3459
34625SOL    HW2 5883   3.669   3.316   0.894  0.2056 -2.3346 -1.2905
34626SOL     OW 5884   5.355   4.177   8.060  0.6434  0.2559  0.0538
34626SOL    HW1 5885   5.343   4.270   8.082  0.8316  0.8674 -2.1145
34626SOL    HW2 5886   5.289   4.131   8.111  0.3675  1.6137  0.9719
34627SOL     OW 5887   9.899   0.930   6.925  0.4288  0.7775 -0.0096
34627SOL    HW1 5888   9.971   0.898   6.978  1.9491  0.8217 -1.9141
34627SOL    HW2 5889   9.941   0.985   6.858 -1.2767  0.3253 -1.5511
34628SOL     OW 5890  10.412   7.074   5.230 -0.1380 -0.5725 -0.6898
34628SOL    HW1 5891  10.507   7.085   5.236 -0.3489  2.3870 -1.2985
34628SOL    HW2 5892  10.379   7.111   5.312 -0.8487  1.5570 -1.8408
34629SOL     OW 5893   6.148   2.130   5.455 -0.0665  0.4226 -0.5931
34629SOL    HW1 5894   6.173   2.198   5.392 -2.3207  1.8855 -0.0572
34629SOL    HW2 5895   6.138   2.051   5.403  0.8655  0.9200 -1.5625
34630SOL     OW 5896   7.618  10.926   5.578 -0.1779 -0.1362 -0.3487
34630SOL    HW1 5897   7.701  10.967   5.606 -1.5226  2.2307  0.5030
34630SOL    HW2 5898   7.566  10.999   5.546 -1.5290 -1.7589 -2.0236
34631SOL     OW 5899   7.228   7.751   9.823 -0.2282 -0.4122 -0.0002
34631SOL    HW1 5900   7.300   7.703   9.864 -1.2518  1.0437  3.9648
34631SOL    HW2 5901   7.151   7.726   9.874 -1.5689  1.9775 -0.6979
34632SOL     OW 5902   2.596   6.230   3.850  0.1219 -0.7383 -0.0179
34632SOL    HW1 5903   2.542   6.193   3.780  0.2510 -2.1103  0.5755
34632SOL    HW2 5904   2.642   6.155   3.887  3.0195  0.4567 -0.9434
34633SOL     OW 5905   6.787  10.970   6.729 -0.8391  0.1715  0.8690
34633SOL    HW1 5906   6.833  10.903   6.779 -0.2074 -1.1518 -1.3348
34633SOL    HW2 5907   6.783  10.935   6.640 -0.6252  2.9892 -0.3690
34634SOL     OW 5908   8.652   4.240   7.914 -0.8805  0.7838 -0.1579
34634SOL    HW1 5909   8.566   4.226   7.954 -1.8253  2.1598 -1.5745
34634SOL    HW2 5910   8.715   4.214   7.981 -2.3959  0.1389  1.0647
34635SOL     OW 5911  10.428   6.280   5.130 -0.5365  0.4067  0.7240
34635SOL    HW1 5912  10.486   6.348   5.165 -1.6064  1.3015  0.8262
34635SOL    HW2 5913  10.340   6.309   5.155 -1.3130  0.7265 -2.0553
34636SOL     OW 5914   8.517   3.286   8.981 -0.4673 -0.4075 -0.2470
34636SOL    HW1 5915   8.599   3.260   8.939  0.3734  2.5200 -0.6790
34636SOL    HW2 5916   8.453   3.222   8.951  1.3690 -1.9505 -1.0551
34637SOL     OW 5917   0.462   5.934   6.615  0.5911  0.1107 -0.0517
34637SOL    HW1 5918   0.528   5.864   6.615  0.9504  0.4295  1.0353
34637SOL    HW2 5919   0.512   6.015   6.613  0.4030  0.4301  3.2526
34638SOL     OW 5920  10.804   6.078  10.124  0.2867  0.4845 -0.1138
34638SOL    HW1 5921  10.861   6.007  10.094  2.0122  1.0125  1.6403
34638SOL    HW2 5922  10.722   6.035  10.146  1.3734 -1.0925  1.1869
34639SOL     OW 5923   9.608   0.972   1.089  0.7795  0.0122 -0.2280
34639SOL    HW1 5924   9.600   0.963   0.994 -1.0121  2.0911 -0.3536
34639SOL    HW2 5925   9.694   0.935   1.110  0.9957 -0.9348 -2.5795
34640SOL     OW 5926   1.406   9.419   4.029  0.7122  0.2989 -0.5668
34640SOL    HW1 5927   1.419   9.485   3.962  1.2775 -0.1550 -0.9137
34640SOL    HW2 5928   1.492   9.377   4.039  1.5514  2.3631  2.6121
34641SOL     OW 5929   4.972   5.631   9.151 -0.3207 -0.2657 -0.2250
34641SOL    HW1 5930   5.012   5.712   9.183  0.0157 -1.4869  2.7274
34641SOL    HW2 5931   4.880   5.654   9.136 -0.0056  0.8941 -0.4781
34642SOL     OW 5932   7.701   0.526  10.081 -0.0136  0.5035  0.3078
34642SOL    HW1 5933   7.689   0.539   9.987  1.4804 -0.3131 -0.0273
34642SOL    HW2 5934   7.685   0.612  10.119 -0.4709  0.8825 -0.6939
34643SOL     OW 5935  10.833   3.163   5.906  0.5776  0.0013 -0.0036
34643SOL    HW1 5936  10.848   3.069   5.919  0.7000  0.2816  2.2012
34643SOL    HW2 5937  10.775   3.188   5.977 -1.9815  1.0690 -2.2794
34644SOL     OW 5938   7.080  10.390   6.347 -0.2406  0.6344 -0.5548
34644SOL    HW1 5939   7.114  10.445   6.417 -0.2828 -0.1363  0.0956
34644SOL    HW2 5940   7.036  10.450   6.287  0.4562  1.3933 -0.3163
34645SOL     OW 5941   5.288   5.510   2.392  0.6531 -0.1462 -0.0281
34645SOL    HW1 5942   5.280   5.587   2.335  0.9033  0.6870  1.0407
34645SOL    HW2 5943   5.245   5.536   2.474  3.6974  0.1640  1.6140
34646SOL     OW 5944   8.607   1.777   0.610 -0.0996 -0.4300 -0.2818
34646SOL    HW1 5945   8.532   1.827   0.579 -0.8920 -2.0450 -1.0639
34646SOL    HW2 5946   8.683   1.832   0.588 -0.9624  0.7124 -0.5033
34647SOL     OW 5947   8.863   5.725   8.057  0.1718 -0.2641  0.1841
34647SOL    HW1 5948   8.809   5.787   8.106 -0.2226  0.9234 -1.6534
34647SOL    HW2 5949   8.890   5.774   7.979  3.0053 -1.1903  0.4906
34648SOL     OW 5950   7.056   1.185   1.682 -0.4346 -0.4830 -0.5118
34648SOL    HW1 5951   7.118   1.164   1.752 -1.3373 -0.4537  0.3229
34648SOL    HW2 5952   7.034   1.100   1.644 -3.0911 -1.0709  2.0121
34649SOL     OW 5953   9.388   2.151   0.713  0.0836 -0.1869 -0.3676
34649SOL    HW1 5954   9.329   2.085   0.677  1.1563 -0.8028 -1.0426
34649SOL    HW2 5955   9.348   2.235   0.688 -0.9859 -0.5682  0.0104
34650SOL     OW 5956  10.886   8.981   7.341  0.0427 -0.0565 -0.4015
34650SOL    HW1 5957  10.837   8.935   7.409  0.2782  2.8144  1.9166
34650SOL    HW2 5958  10.824   8.989   7.268 -0.6168 -2.2166 -0.1398
34651SOL     OW 5959   2.684   4.974   1.388 -0.1491  0.1140  0.0525
34651SOL    HW1 5960   2.619   5.001   1.452 -0.5479  1.9640 -1.0354
34651SOL    HW2 5961   2.739   5.051   1.376  0.3096 -0.3875 -1.3278
34652SOL     OW 5962   4.135   4.290   6.286 -0.1857 -0.1757 -0.1215
34652SOL    HW1 5963   4.135   4.195   6.299 -2.9577 -0.2108  0.4430
34652SOL    HW2 5964   4.220   4.320   6.319 -0.1292 -2.2352  1.8483
34653SOL     OW 5965   8.000   8.083  10.321  0.7319 -0.1470  0.4764
34653SOL    HW1 5966   7.971   8.037  10.400  1.3491  0.3182  0.9832
34653SOL    HW2 5967   8.014   8.013  10.257 -1.4484 -0.3915  0.2014
34654SOL     OW 5968   8.606   1.065   9.657 -0.1888  0.8827 -0.5910
34654SOL    HW1 5969   8.550   0.998   9.617 -1.4375  1.7983 -0.4479
34654SOL    HW2 5970   8.545   1.128   9.694  0.8518 -0.0397  3.1359
34655SOL     OW 5971   7.664   8.438   9.146  0.4108  0.5015  0.0058
34655SOL    HW1 5972   7.606   8.513   9.136 -0.2310 -0.2073 -1.9426
34655SOL    HW2 5973   7.746   8.475   9.179  0.0164  2.0228 -0.6506
34656SOL     OW 5974   5.444   7.520   7.690 -0.0230  0.3999  0.2288
34656SOL    HW1 5975   5.398   7.600   7.662 -0.0710  0.7692  1.3180
34656SOL    HW2 5976   5.480   7.485   7.609 -1.1452  0.7865 -0.4758
34657SOL     OW 5977   7.259   9.835   7.653 -0.7487 -0.2637  0.4101
34657SOL    HW1 5978   7.170   9.802   7.641 -0.8381  0.7573 -2.2480
34657SOL    HW2 5979   7.253   9.894   7.728 -2.5834  0.6031 -0.3603
34658SOL     OW 5980   9.242   4.695  10.376  0.1846  0.5904 -0.5711
34658SOL    HW1 5981   9.276   4.675  10.289  2.4854  1.1551  0.1300
34658SOL    HW2 5982   9.240   4.610  10.420 -1.2173  0.2658 -1.2190
34659SOL     OW 5983   4.797   3.872   3.437 -0.3558 -0.2799  0.3762
34659SOL    HW1 5984   4.820   3.838   3.523 -4.8261 -2.0256  1.1689
34659SOL    HW2 5985   4.739   3.946   3.455 -0.7038 -0.1454 -1.1642
34660SOL     OW 5986   4.879   6.199   5.974 -0.3701  0.9602  0.6256
34660SOL    HW1 5987   4.972   6.180   5.986 -0.5577 -2.2336 -1.7101
34660SOL    HW2 5988   4.869   6.208   5.879 -2.7434 -0.9646  0.6150
34661SOL     OW 5989   4.919   1.795   1.730 -0.3702 -0.6384 -0.7024
34661SOL    HW1 5990   4.977   1.763   1.660 -0.3092 -2.2612  0.0517
34661SOL    HW2 5991   4.864   1.720   1.752 -2.0652  0.5627 -0.6582
34662SOL     OW 5992   3.254   6.564   9.562  0.0400 -0.0242 -0.7633
34662SOL    HW1 5993   3.163   6.533   9.571  1.0803 -3.2141  0.1750
34662SOL    HW2 5994   3.274   6.552   9.470 -0.4398  0.6492 -0.9662
34663SOL     OW 5995   3.500   7.024   9.122 -0.3263 -0.0963 -1.1107
34663SOL    HW1 5996   3.570   7.014   9.187 -1.6285 -2.8952  0.0407
34663SOL    HW2 5997   3.541   7.005   9.038  0.7515  0.5917 -0.7571
34664SOL     OW 5998   7.623   4.342   3.602  0.4267 -0.6215 -0.0131
34664SOL    HW1 5999   7.566   4.291   3.659 -1.2659  2.5207  1.3553
34664SOL    HW2 6000   7.650   4.417   3.655  2.4787  0.1469 -1.9714
34665SOL     OW 6001   9.711   0.759   4.468 -0.0314  0.5117  0.5590
34665SOL    HW1 6002   9.671   0.818   4.532  0.0585  1.3059 -0.0920
34665SOL    HW2 6003   9.665   0.779   4.386 -2.5799 -2.8807  0.9668
34666SOL     OW 6004  10.387   9.348  10.701 -0.5505  0.0958  0.3208
34666SOL    HW1 6005  10.454   9.398  10.748 -0.7231  2.9521 -2.1217
34666SOL    HW2 6006  10.311   9.348  10.759 -0.0011  1.3362  1.0738
34667SOL     OW 6007   8.298   4.722   9.693  0.1122  0.1169  0.3558
34667SOL    HW1 6008   8.354   4.731   9.770  0.8525  0.7372 -0.2508
34667SOL    HW2 6009   8.356   4.692   9.623 -0.0078  1.9168 -0.5917
34668SOL     OW 6010   8.217   3.098   7.579 -0.3189  0.1897 -0.6262
34668SOL    HW1 6011   8.141   3.154   7.566  0.2247  0.9316 -0.7319
34668SOL    HW2 6012   8.192   3.038   7.649 -1.0364  0.3535 -0.7417
34669SOL     OW 6013   0.342   4.077   4.933  0.6990 -0.1107  0.3969
34669SOL    HW1 6014   0.405   4.149   4.942  2.0048 -1.4642  3.6766
34669SOL    HW2 6015   0.391   4.005   4.895 -0.5287  0.4756 -2.5816
34670SOL     OW 6016   5.565   0.981   7.538 -0.4517 -0.0445  0.7585
34670SOL    HW1 6017   5.588   1.005   7.449 -0.5188 -1.8247  0.2211
34670SOL    HW2 6018   5.650   0.964   7.581 -0.4581  0.0308  0.8013
34671SOL     OW 6019  10.317   3.910   9.267 -0.3303 -0.2022 -0.0185
34671SOL    HW1 6020  10.288   3.930   9.178  0.3955 -0.2641 -0.2800
34671SOL    HW2 6021  10.385   3.844   9.255 -0.0836 -0.0570  0.5691
34672SOL     OW 6022  10.758   7.326   6.371 -0.1129  0.1383  0.2710
34672SOL    HW1 6023  10.768   7.342   6.465 -0.4027 -1.0747  0.5287
34672SOL    HW2 6024  10.665   7.304   6.360  0.3651 -2.0914  0.1247
34673SOL     OW 6025  10.385   8.935  10.230 -0.6967 -0.4288 -0.2254
34673SOL    HW1 6026  10.477   8.911  10.237 -0.8225 -0.6381  1.0169
34673SOL    HW2 6027  10.345   8.863  10.182  0.0543  0.4397 -2.2292
34674SOL     OW 6028  10.202  10.796   4.865  0.1611  0.5560  0.2982
34674SOL    HW1 6029  10.282  10.743   4.869 -1.1201 -1.4267  2.0560
34674SOL    HW2 6030  10.211  10.858   4.937 -0.0830 -0.0284  0.8451
34675SOL     OW 6031   0.173   7.889   1.662  0.3472 -0.8058 -0.1586
34675SOL    HW1 6032   0.157   7.898   1.568 -0.3199  1.1265  0.0926
34675SOL    HW2 6033   0.183   7.795   1.676 -0.1374 -1.1804 -2.0568
34676SOL     OW 6034   5.965   5.070   0.334 -0.0381 -0.3901 -0.4348
34676SOL    HW1 6035   6.016   5.146   0.305 -1.0222  0.8951  1.0408
34676SOL    HW2 6036   5.989   5.058   0.425 -1.1866 -0.7560 -0.1700
34677SOL     OW 6037   1.119  11.005   1.908  0.0117 -0.1273  0.1596
34677SOL    HW1 6038   1.028  10.981   1.890 -0.7481  0.9638  2.1836
34677SOL    HW2 6039   1.159  11.015   1.822 -1.6459 -1.0983 -0.7704
34678SOL     OW 6040   8.348   6.541   8.778  0.2331 -0.0525 -0.4888
34678SOL    HW1 6041   8.400   6.539   8.698 -1.4862  0.1729 -1.6752
34678SOL    HW2 6042   8.318   6.631   8.785  1.8343  0.3977  1.4696
34679SOL     OW 6043   7.933  10.231   2.611  0.1606  0.0831  0.1954
34679SOL    HW1 6044   7.944  10.300   2.676  0.7598  1.3530 -1.1988
34679SOL    HW2 6045   7.984  10.158   2.645 -0.5161  0.2817  1.7133
34680SOL     OW 6046   3.095   2.026   0.824 -0.2209  0.7049  0.0952
34680SOL    HW1 6047   3.083   1.980   0.907 -1.4268 -0.5824 -0.7483
34680SOL    HW2 6048   3.013   2.074   0.811  1.1076  3.4736  1.1005
34681SOL     OW 6049   9.049   8.047   3.645 -0.9803  0.4431  0.0153
34681SOL    HW1 6050   9.050   8.141   3.663  0.4133  0.2959  0.8096
34681SOL    HW2 6051   9.062   8.005   3.730  0.5929 -0.4024 -0.6054
34682SOL     OW 6052   8.724   7.456   3.493 -0.3482 -0.0643  0.0110
34682SOL    HW1 6053   8.704   7.520   3.561  1.3452  0.5278  0.0163
34682SOL    HW2 6054   8.780   7.392   3.536 -1.0551 -0.9042 -0.2971
34683SOL     OW 6055   2.199   8.037   5.764  0.5664  0.8842  0.6831
34683SOL    HW1 6056   2.275   8.061   5.711  0.7351  4.1537  2.1080
34683SOL    HW2 6057   2.236   7.998   5.843  0.4736 -1.2563 -0.2838
34684SOL     OW 6058   5.368   2.311   8.788  0.7651 -0.1573  0.6847
34684SOL    HW1 6059   5.333   2.349   8.868 -2.5315  3.0098 -1.8575
34684SOL    HW2 6060   5.331   2.223   8.785 -0.4132  0.2620  1.8886
34685SOL     OW 6061   4.375   6.590   1.438  0.2463 -0.0781 -0.0129
34685SOL    HW1 6062   4.302   6.592   1.499 -1.9208  0.1434 -2.4339
34685SOL    HW2 6063   4.384   6.498   1.413 -0.3636  0.1109 -0.9763
34686SOL     OW 6064   6.715   0.758   3.108  0.1829  0.7004  0.0994
34686SOL    HW1 6065   6.665   0.803   3.175 -0.3955 -0.8168  0.7379
34686SOL    HW2 6066   6.650   0.736   3.041  0.6937  1.9081 -0.8263
34687SOL     OW 6067   7.771   2.985   8.430  0.2788 -0.3132  0.8516
34687SOL    HW1 6068   7.724   3.043   8.371  1.8701  0.8438  0.6390
34687SOL    HW2 6069   7.852   2.963   8.383  0.2865 -1.7138  1.4496
34688SOL     OW 6070   9.906   7.456   8.712  0.0331 -0.5898 -0.5519
34688SOL    HW1 6071   9.929   7.383   8.768 -0.7459  0.8150  1.7238
34688SOL    HW2 6072   9.985   7.509   8.707  0.1004 -0.7112 -0.8159
34689SOL     OW 6073   1.069   1.173   0.759  0.0967  0.0193 -0.2624
34689SOL    HW1 6074   1.126   1.145   0.830  1.6078 -3.4100 -2.5689
34689SOL    HW2 6075   1.128   1.206   0.692 -1.0867  0.9943 -0.8827
34690SOL     OW 6076   7.797   4.836   6.224  0.0761  0.0061 -0.4780
34690SOL    HW1 6077   7.841   4.755   6.199 -1.2965 -0.8697 -0.1166
34690SOL    HW2 6078   7.790   4.831   6.319  1.1276  1.1760 -0.3107
34691SOL     OW 6079   4.192   7.096   5.590  0.3037  0.0381  0.2357
34691SOL    HW1 6080   4.212   7.065   5.502  1.2012  0.1915  0.3773
34691SOL    HW2 6081   4.209   7.020   5.646  2.5134  0.7374  0.5845
34692SOL     OW 6082  10.888   4.744   7.138  0.2284 -0.7181  0.2006
34692SOL    HW1 6083  10.817   4.682   7.152 -0.3471 -0.1433 -0.0691
34692SOL    HW2 6084  10.881   4.767   7.045 -0.4926  0.8316  0.6119
34693SOL     OW 6085   8.002  10.251  10.617 -0.0285 -0.8217 -0.0811
34693SOL    HW1 6086   7.978  10.228  10.528 -0.3965 -0.7873  0.0085
34693SOL    HW2 6087   8.073  10.190  10.639  1.7026  0.6672 -1.2064
34694SOL     OW 6088   0.671   0.982   6.136 -0.2167 -0.5474 -0.3686
34694SOL    HW1 6089   0.609   0.982   6.063  1.1926  1.2514 -1.6774
34694SOL    HW2 6090   0.747   0.934   6.103 -0.1223 -0.9952  0.4744
34695SOL     OW 6091   7.709   1.356   9.181 -0.5942 -0.6384 -0.1729
34695SOL    HW1 6092   7.790   1.344   9.232 -0.9752  0.3241  0.6858
34695SOL    HW2 6093   7.736   1.343   9.090  0.3732 -1.0746  0.1594
34696SOL     OW 6094   7.481   7.028   9.246  0.4828  0.1792  0.2401
34696SOL    HW1 6095   7.469   6.980   9.328 -0.2848  0.0548  0.0634
34696SOL    HW2 6096   7.404   7.085   9.240 -0.2231 -0.8666 -1.1000
34697SOL     OW 6097   0.127   7.693   1.453  0.1561  0.8392 -0.4174
34697SOL    HW1 6098   0.129   7.668   1.360 -0.9971 -0.0046 -0.2403
34697SOL    HW2 6099   0.034   7.692   1.476  0.4447  0.8194  0.8116
34698SOL     OW 6100   0.151  10.775   4.619  0.1025  0.3870 -0.0106
34698SOL    HW1 6101   0.171  10.795   4.711 -1.0180 -0.6195  0.4813
34698SOL    HW2 6102   0.160  10.680   4.613  0.0301  0.4312 -0.9102
34699SOL     OW 6103   1.323   2.741   8.308 -0.9007 -0.1464  0.1649
34699SOL    HW1 6104   1.398   2.795   8.331  0.4241 -1.6184 -0.4646
34699SOL    HW2 6105   1.249   2.801   8.305  0.3939  1.4930  0.0389
34700SOL     OW 6106   2.203   9.482   6.325 -0.2151 -0.1615  0.6188
34700SOL    HW1 6107   2.233   9.411   6.383  0.6540 -0.7599 -0.5220
34700SOL    HW2 6108   2.275   9.545   6.326  0.1574 -0.5534 -0.4100
34701SOL     OW 6109   0.476  11.008   6.426  1.1257  0.2364  0.0674
34701SOL    HW1 6110   0.495  10.960   6.346 -0.2239 -0.0088 -0.1406
34701SOL    HW2 6111   0.393  11.053   6.408  1.0322  0.5406  1.1548
34702SOL     OW 6112   2.458   9.832   4.494 -0.8198 -0.1447 -0.2754
34702SOL    HW1 6113   2.474   9.738   4.484 -0.5909 -0.2183  0.6370
34702SOL    HW2 6114   2.434   9.842   4.586  1.2524  0.9723  0.1971
34703SOL     OW 6115   6.108   1.792   5.176  0.1331 -0.4854  0.1857
34703SOL    HW1 6116   6.165   1.809   5.102  0.9544 -0.9076  0.6988
34703SOL    HW2 6117   6.026   1.837   5.156  0.4914 -0.2610 -0.7759
34704SOL     OW 6118   5.900   4.523   8.082 -0.1519 -0.3324 -0.2804
34704SOL    HW1 6119   5.886   4.611   8.046  0.6123 -0.4979 -0.9962
34704SOL    HW2 6120   5.859   4.527   8.169 -1.3620  0.2944 -0.8431
34705SOL     OW 6121   5.751  10.383   7.380  0.0185  0.2834 -0.0643
34705SOL    HW1 6122   5.702  10.323   7.324 -0.1471 -0.7070  1.1014
34705SOL    HW2 6123   5.752  10.466   7.332  0.9132 -0.8178 -2.0800
34706SOL     OW 6124   8.857   5.878   4.337  0.4939 -0.0650  0.3164
34706SOL    HW1 6125   8.890   5.789   4.350 -0.7581 -0.6257 -0.1597
34706SOL    HW2 6126   8.799   5.871   4.261  1.3887  1.4359 -0.5523
34707SOL     OW 6127   5.513   7.734   2.238  0.2614 -0.2087  0.0434
34707SOL    HW1 6128   5.518   7.645   2.274  1.1023 -0.5477 -0.8386
34707SOL    HW2 6129   5.431   7.735   2.188 -0.5816  0.0608  1.3812
34708SOL     OW 6130   5.078   8.638   6.729  0.4240  0.2485 -0.2873
34708SOL    HW1 6131   5.130   8.565   6.694 -2.0742 -1.8656  0.0942
34708SOL    HW2 6132   5.102   8.642   6.822  2.0868  1.3885 -0.7105
34709SOL     OW 6133   8.610   6.293   9.198 -0.5823 -0.3128  0.0752
34709SOL    HW1 6134   8.560   6.277   9.278 -0.0526  1.2600  0.7640
34709SOL    HW2 6135   8.544   6.310   9.131 -1.0207  0.7549  0.7512
34710SOL     OW 6136   9.299  10.764   2.005  0.5206 -0.6187  0.4208
34710SOL    HW1 6137   9.203  10.766   2.006  0.4595  0.8852 -1.4872
34710SOL    HW2 6138   9.324  10.751   2.096 -1.4936 -0.7462  0.9976
34711SOL     OW 6139   4.429   1.667   2.330 -0.4307  0.0165  0.5553
34711SOL    HW1 6140   4.514   1.680   2.289 -1.4511  0.8048 -1.4622
34711SOL    HW2 6141   4.367   1.709   2.270 -2.1893 -0.0815  2.2160
34712SOL     OW 6142   0.200   3.697   4.135 -0.2470  0.0517 -0.5489
34712SOL    HW1 6143   0.137   3.724   4.202  0.7969 -0.0792  0.5209
34712SOL    HW2 6144   0.273   3.758   4.144  1.5314 -2.1049  0.9760
34713SOL     OW 6145   6.186   4.348   2.588  0.4301 -0.6729  0.2162
34713SOL    HW1 6146   6.103   4.312   2.558  1.0241 -0.6678 -1.4939
34713SOL    HW2 6147   6.230   4.377   2.509  1.5314  0.4984  1.2192
34714SOL     OW 6148   5.478   1.127   2.823 -0.1727 -0.0107 -0.0152
34714SOL    HW1 6149   5.531   1.049   2.843 -1.0458 -0.6986 -0.3207
34714SOL    HW2 6150   5.425   1.101   2.748  0.9135  1.5328 -1.3978
34715SOL     OW 6151   1.589   5.509  10.551  0.9710 -0.2273 -0.0659
34715SOL    HW1 6152   1.614   5.580  10.492 -0.4205 -0.8475 -1.4519
34715SOL    HW2 6153   1.514   5.467  10.509  0.9806 -1.7515  1.3277
34716SOL     OW 6154  10.206   5.238   1.224 -0.0279 -0.2408  0.8352
34716SOL    HW1 6155  10.172   5.248   1.135  0.1202  1.8006  0.9670
34716SOL    HW2 6156  10.129   5.249   1.280  0.4974  3.5933  1.0990
34717SOL     OW 6157   1.588   4.378   2.988 -0.1816  0.1689 -0.2628
34717SOL    HW1 6158   1.603   4.292   2.949 -0.0442 -0.5653  1.3014
34717SOL    HW2 6159   1.493   4.386   2.994 -0.1875 -0.0205 -0.1076
34718SOL     OW 6160   3.950   1.750   1.865  0.2003  0.2657 -1.0343
34718SOL    HW1 6161   3.881   1.813   1.844 -1.1875 -0.8933 -0.1717
34718SOL    HW2 6162   3.908   1.665   1.854  1.3338 -0.4576  0.0566
34719SOL     OW 6163   0.331  10.166   2.535 -0.1034  0.1394 -0.0919
34719SOL    HW1 6164   0.296  10.085   2.500 -1.9048  1.1181 -0.6944
34719SOL    HW2 6165   0.323  10.229   2.463  0.9291  0.9412  0.4630
34720SOL     OW 6166   8.122  10.387  10.897  0.0513  0.2931  0.0294
34720SOL    HW1 6167   8.067  10.344  10.832  1.5355 -1.2729 -0.2559
34720SOL    HW2 6168   8.074  10.467  10.919 -2.0711 -0.7239 -0.5651
34721SOL     OW 6169   8.446   3.574   9.469 -0.4420  0.0700  0.9067
34721SOL    HW1 6170   8.384   3.502   9.460  3.4914 -3.7792  1.3531
34721SOL    HW2 6171   8.484   3.584   9.381 -0.0235  0.6612  1.1439
34722SOL     OW 6172   6.710  10.573   2.201 -0.4365 -0.0384  0.4631
34722SOL    HW1 6173   6.722  10.478   2.202 -0.0209  0.0110  1.4188
34722SOL    HW2 6174   6.642  10.588   2.134  1.6170 -0.7144 -1.9099
34723SOL     OW 6175   3.560   5.223   7.798 -0.4004  0.0665  0.0112
34723SOL    HW1 6176   3.650   5.241   7.771  0.0217 -1.2534  0.4584
34723SOL    HW2 6177   3.567   5.190   7.888 -1.3207 -0.1931  0.0051
34724SOL     OW 6178   0.878   9.633   1.983  0.3191  0.7903  0.5535
34724SOL    HW1 6179   0.803   9.574   1.985 -0.9870  2.3042 -0.7989
34724SOL    HW2 6180   0.953   9.576   1.968 -1.0425 -0.4435 -2.2369
34725SOL     OW 6181   0.800  10.952  10.839  0.0216  0.5826 -0.2971
34725SOL    HW1 6182   0.807  10.978  10.931 -1.2111 -0.2841  0.0607
34725SOL    HW2 6183   0.844  10.867  10.836 -1.7102 -0.3450 -0.0652
34726SOL     OW 6184   5.110   3.919   8.558 -0.4317  0.5130  0.4764
34726SOL    HW1 6185   5.067   4.001   8.532 -0.1790  0.3890 -0.3593
34726SOL    HW2 6186   5.090   3.858   8.488  0.3006  0.1758  0.5513
34727SOL     OW 6187   9.848   6.319   2.029  0.2292 -0.1515  0.1092
34727SOL    HW1 6188   9.830   6.245   1.971 -0.8609 -1.1916  1.7142
34727SOL    HW2 6189   9.937   6.347   2.005  0.6764 -1.9945 -0.5141
34728SOL     OW 6190   6.947   1.982   1.282  0.1979 -0.3691  0.3852
34728SOL    HW1 6191   6.978   1.929   1.209  1.3192 -0.5270  0.9597
34728SOL    HW2 6192   6.878   1.930   1.323  0.8792 -1.1290  0.5806
34729SOL     OW 6193   0.338   1.935   5.865 -0.6124  0.0584  0.3253
34729SOL    HW1 6194   0.328   2.016   5.816  2.0741 -0.7886 -1.9102
34729SOL    HW2 6195   0.306   1.955   5.953 -0.3954  3.4024 -0.2455
34730SOL     OW 6196   9.245   4.565   7.460 -0.6927 -0.4457  0.1975
34730SOL    HW1 6197   9.285   4.548   7.374  1.8024 -0.9457  1.3465
34730SOL    HW2 6198   9.151   4.560   7.445 -0.3137 -1.2143 -2.3606
34731SOL     OW 6199   3.904   7.495   9.787 -0.4174 -0.6179  0.4307
34731SOL    HW1 6200   3.915   7.450   9.871 -1.9199 -1.0801  0.4113
34731SOL    HW2 6201   3.849   7.571   9.808 -1.3339 -1.0831 -0.2185
34732SOL     OW 6202   2.806   9.327   7.278 -0.2203 -0.4193  0.0330
34732SOL    HW1 6203   2.894   9.364   7.293  0.4158 -2.1060  0.6617
34732SOL    HW2 6204   2.791   9.339   7.185  0.6963 -0.1464 -0.0923
34733SOL     OW 6205   2.682   9.000   2.530  0.5446 -0.2247 -0.0477
34733SOL    HW1 6206   2.755   8.983   2.471  0.4882 -0.6897  0.0185
34733SOL    HW2 6207   2.645   8.914   2.549  0.6837 -0.1013  0.8256
34734SOL     OW 6208   3.126   3.474   5.299 -0.1273  0.1819  0.7255
34734SOL    HW1 6209   3.146   3.510   5.386 -1.3468  0.1457  1.0350
34734SOL    HW2 6210   3.048   3.420   5.313 -0.1913 -0.0142 -0.3471
34735SOL     OW 6211   9.815   8.655   0.385  0.2741  0.7000  0.5616
34735SOL    HW1 6212   9.795   8.576   0.334 -0.0999  2.1015 -1.5930
34735SOL    HW2 6213   9.910   8.656   0.393  0.2953  0.1556  0.3901
34736SOL     OW 6214  10.829   9.589   1.072  0.3981  0.1321 -0.2040
34736SOL    HW1 6215  10.818   9.613   1.164  1.7880 -0.5268  0.1438
34736SOL    HW2 6216  10.807   9.669   1.024 -0.3818  0.4661  0.6823
34737SOL     OW 6217   8.248   3.234   0.451 -0.1147  0.1398  0.8571
34737SOL    HW1 6218   8.286   3.164   0.399 -1.0191 -0.0605  0.4328
34737SOL    HW2 6219   8.201   3.190   0.522 -0.9389  0.2852  0.4164
34738SOL     OW 6220   1.016   9.528   2.340  0.2784  0.3665 -0.0333
34738SOL    HW1 6221   1.074   9.466   2.385  1.1874  0.5090 -0.9731
34738SOL    HW2 6222   1.042   9.523   2.248 -1.0830  0.5859 -0.4429
34739SOL     OW 6223  10.361   3.335   3.271  0.5321  0.3719  0.5923
34739SOL    HW1 6224  10.284   3.287   3.303  1.2411 -0.0227  1.7724
34739SOL    HW2 6225  10.331   3.426   3.265 -0.2245  0.1199  0.3597
34740SOL     OW 6226   5.598   0.374   8.466 -0.2144 -0.1428 -0.0913
34740SOL    HW1 6227   5.680   0.335   8.496 -0.2517  0.7209  1.2312
34740SOL    HW2 6228   5.626   0.444   8.407 -0.1799 -3.1937 -4.1097
34741SOL     OW 6229   2.386   2.067   5.118 -0.6298 -0.1724  0.5193
34741SOL    HW1 6230   2.424   2.063   5.206 -1.5152 -1.1039  0.8921
34741SOL    HW2 6231   2.306   2.118   5.129 -0.5495  0.0311  0.1697
34742SOL     OW 6232   6.427   9.734   4.552  0.3212 -0.2076  0.1861
34742SOL    HW1 6233   6.478   9.665   4.510  1.2607  1.4258 -1.4937
34742SOL    HW2 6234   6.336   9.706   4.543  0.6462 -0.9213 -1.0754
34743SOL     OW 6235   0.129   4.663   2.665  0.1539 -0.0647 -0.0232
34743SOL    HW1 6236   0.181   4.670   2.745 -0.8341 -1.0359  0.7252
34743SOL    HW2 6237   0.193   4.641   2.597  0.9831  0.6503  0.5058
34744SOL     OW 6238   5.862   9.417   5.476  0.4166  0.3674 -0.4163
34744SOL    HW1 6239   5.772   9.448   5.470 -0.4955 -1.8138  0.7633
34744SOL    HW2 6240   5.897   9.459   5.555 -0.2162 -0.1920  0.1763
34745SOL     OW 6241   9.904   9.460  10.668  0.0290 -0.4740 -0.6531
34745SOL    HW1 6242   9.966   9.467  10.595 -0.1708  1.1581 -0.6873
34745SOL    HW2 6243   9.956   9.422  10.740  1.6519  2.5245 -0.1074
34746SOL     OW 6244   5.447   6.213   6.815  0.8040 -1.0706  0.0768
34746SOL    HW1 6245   5.502   6.272   6.764  0.0689  0.6090  1.1338
34746SOL    HW2 6246   5.502   6.188   6.890  0.5186 -0.2557  0.5693
34747SOL     OW 6247   1.696   2.000   6.065  0.2799 -0.3620 -0.0144
34747SOL    HW1 6248   1.695   1.941   6.140  0.0959 -1.5653 -0.9354
34747SOL    HW2 6249   1.659   2.082   6.099  2.3903 -0.0573  1.8007
34748SOL     OW 6250   0.114  10.797   9.487  0.5659 -0.3811 -0.2785
34748SOL    HW1 6251   0.150  10.863   9.547 -1.4089  0.6858 -0.1606
34748SOL    HW2 6252   0.136  10.713   9.527  4.3024  0.0293 -1.0832
34749SOL     OW 6253   4.712   0.386   6.557  0.0692  0.4692  0.3551
34749SOL    HW1 6254   4.785   0.443   6.533 -0.5671  1.7233  1.2942
34749SOL    HW2 6255   4.679   0.422   6.639 -0.0991 -1.5266  1.2244
34750SOL     OW 6256   2.583   1.216   1.366  0.3179 -0.4639 -0.4225
34750SOL    HW1 6257   2.555   1.136   1.321  1.5649  0.0509 -2.2247
34750SOL    HW2 6258   2.571   1.285   1.302 -0.9642  0.9037  1.1863
34751SOL     OW 6259   1.850  10.190   2.998  0.0063 -0.0668  0.4962
34751SOL    HW1 6260   1.814  10.109   3.034 -0.5210 -0.8597 -1.6585
34751SOL    HW2 6261   1.796  10.259   3.035 -1.0465 -0.9043  0.5793
34752SOL     OW 6262   8.323   3.448   0.220  0.3162  0.3659 -0.3293
34752SOL    HW1 6263   8.382   3.477   0.290 -0.1215  0.5643 -0.0341
34752SOL    HW2 6264   8.279   3.372   0.257  2.2978 -1.4890 -1.5110
34753SOL     OW 6265   7.674   8.829   0.495 -0.1316  0.2875  0.0733
34753SOL    HW1 6266   7.694   8.896   0.429 -2.6037 -1.1853 -2.3935
34753SOL    HW2 6267   7.632   8.878   0.566  1.7629  1.8211  0.2068
34754SOL     OW 6268   1.229   3.603   7.324  0.5207  0.0136 -0.2388
34754SOL    HW1 6269   1.189   3.634   7.242  0.0560 -2.9685 -1.2551
34754SOL    HW2 6270   1.184   3.653   7.392 -0.9500  0.7413 -1.6715
34755SOL     OW 6271   4.579   1.255   8.910  0.4545  0.4186  0.6394
34755SOL    HW1 6272   4.626   1.178   8.879 -0.5959  0.2388 -0.5908
34755SOL    HW2 6273   4.601   1.323   8.846  0.1823  0.7174  0.8608
34756SOL     OW 6274   2.588  10.061   9.508 -0.9383  0.3034 -0.4183
34756SOL    HW1 6275   2.501  10.049   9.471 -1.2674 -2.1505  0.9521
34756SOL    HW2 6276   2.648  10.034   9.438 -1.4803 -2.1872 -0.0096
34757SOL     OW 6277   4.762   3.394   6.337  0.3227 -0.1088  0.6604
34757SOL    HW1 6278   4.843   3.426   6.296  0.8639 -1.7599  0.3405
34757SOL    HW2 6279   4.783   3.389   6.430 -0.3713  2.0966  0.9939
34758SOL     OW 6280  10.766   5.534   3.167  0.9610  0.0746  0.2782
34758SOL    HW1 6281  10.847   5.534   3.115  1.2159 -0.0744  0.6703
34758SOL    HW2 6282  10.709   5.595   3.121  0.7935 -0.8364 -0.7630
34759SOL     OW 6283   2.637   7.872   5.926 -0.4559 -0.2984 -0.4586
34759SOL    HW1 6284   2.698   7.832   5.988 -1.2908 -1.9905 -0.6458
34759SOL    HW2 6285   2.660   7.833   5.841 -3.4669 -3.3271 -0.1397
34760SOL     OW 6286   2.160   6.849   8.685  0.8900 -1.0487  0.1006
34760SOL    HW1 6287   2.096   6.864   8.754 -1.6733 -1.2566 -2.0854
34760SOL    HW2 6288   2.244   6.848   8.730 -0.5352  0.0487  3.0092
34761SOL     OW 6289   9.617   2.654   7.044 -0.2210 -0.4934  0.2344
34761SOL    HW1 6290   9.675   2.679   7.117  0.9280 -0.2146 -0.7402
34761SOL    HW2 6291   9.603   2.560   7.056 -1.7194 -0.1142  1.9398
34762SOL     OW 6292   3.781   3.685   5.751  0.9426  0.3113  0.2847
34762SOL    HW1 6293   3.815   3.633   5.824  0.5561 -0.9573 -0.4095
34762SOL    HW2 6294   3.690   3.703   5.775  1.4794  1.9946  1.2143
34763SOL     OW 6295   4.515   1.789   0.647 -0.4170  0.0782 -0.3026
34763SOL    HW1 6296   4.506   1.705   0.603  0.0008 -0.2946  0.3229
34763SOL    HW2 6297   4.485   1.853   0.582 -0.4844 -0.5259 -0.8725
34764SOL     OW 6298   9.356   9.476   5.977  0.3713  0.1228  0.3440
34764SOL    HW1 6299   9.262   9.483   5.994  0.5255  2.0065  0.7027
34764SOL    HW2 6300   9.394   9.446   6.059 -0.1334 -3.4200 -0.5891
34765SOL     OW 6301   9.367   3.615   8.345  0.4216 -0.4754 -0.3813
34765SOL    HW1 6302   9.450   3.660   8.328  1.2387 -1.4739  0.7865
34765SOL    HW2 6303   9.321   3.673   8.406  0.1921  0.1401 -1.1263
34766SOL     OW 6304   7.088   0.337   7.034  0.2224 -0.1312 -0.2268
34766SOL    HW1 6305   7.103   0.360   6.942  1.4692 -0.6993 -0.1877
34766SOL    HW2 6306   7.154   0.387   7.082 -1.4561  1.4416  0.5657
34767SOL     OW 6307   7.023   6.043  10.593  0.3156  0.6975  0.0889
34767SOL    HW1 6308   6.991   6.024  10.681 -0.6638  3.3433  0.4168
34767SOL    HW2 6309   7.103   6.094  10.608  0.2687  0.9660 -0.5474
34768SOL     OW 6310   2.304   6.920   5.305 -0.0852 -0.2487  0.2323
34768SOL    HW1 6311   2.246   6.993   5.284 -2.8044 -2.8300 -2.1227
34768SOL    HW2 6312   2.350   6.948   5.384 -1.8465  3.4490  0.1665
34769SOL     OW 6313   6.381   6.043   3.058  0.2225 -0.1720 -0.6174
34769SOL    HW1 6314   6.342   6.074   2.977 -0.2433  1.2122  0.1005
34769SOL    HW2 6315   6.471   6.076   3.056  0.1501  0.0397 -0.4942
34770SOL     OW 6316   9.835   9.574   9.561  0.2497 -0.3743  0.0895
34770SOL    HW1 6317   9.783   9.553   9.638 -1.3415 -1.9425 -1.3165
34770SOL    HW2 6318   9.903   9.507   9.558 -0.6531 -1.2904 -0.6764
34771SOL     OW 6319   8.079   0.426   5.664 -0.0724  0.0753  0.1251
34771SOL    HW1 6320   8.108   0.458   5.578  1.8609  1.7130  1.2908
34771SOL    HW2 6321   8.026   0.498   5.699 -1.5742 -0.9391 -0.0102
34772SOL     OW 6322   4.860   2.398   9.524  0.5568  0.1941 -0.7337
34772SOL    HW1 6323   4.922   2.420   9.593  1.0172 -1.0177 -0.7266
34772SOL    HW2 6324   4.872   2.304   9.510 -0.1693  0.2394 -1.8330
34773SOL     OW 6325   1.893   4.489   6.863 -0.3777  0.4391  0.3873
34773SOL    HW1 6326   1.867   4.402   6.892 -1.1611 -0.1567 -1.8906
34773SOL    HW2 6327   1.988   4.487   6.861 -0.2910  0.3954  2.3787
34774SOL     OW 6328   2.868   9.728   1.598 -0.2908 -0.7372 -0.2225
34774SOL    HW1 6329   2.822   9.724   1.514  0.7252 -0.5153 -0.7989
34774SOL    HW2 6330   2.956   9.758   1.576  0.1539 -1.2086  0.8549
34775SOL     OW 6331  11.083   1.934   6.787 -0.0013  0.1863 -0.2574
34775SOL    HW1 6332  11.177   1.948   6.783  0.4387 -2.4199 -1.3984
34775SOL    HW2 6333  11.064   1.877   6.712 -1.9827 -1.6610  1.4943
34776SOL     OW 6334   5.017   6.019   8.054 -0.8191 -0.2444  0.4959
34776SOL    HW1 6335   4.949   5.972   8.007 -0.4658 -0.6235  0.3567
34776SOL    HW2 6336   5.029   5.971   8.135 -0.1146 -0.6953  0.1370
34777SOL     OW 6337   0.662  10.938   1.282  0.1047 -0.1859  0.6162
34777SOL    HW1 6338   0.658  11.031   1.259  2.1858  0.3463  2.1042
34777SOL    HW2 6339   0.694  10.895   1.202 -1.1670  0.2829 -0.1786
34778SOL     OW 6340  10.889  10.975   6.098 -0.2529  0.3337 -0.3966
34778SOL    HW1 6341  10.942  11.046   6.061 -0.0291  0.1765 -0.3822
34778SOL    HW2 6342  10.922  10.965   6.187 -0.7770  0.6979 -0.1625
34779SOL     OW 6343   9.025   8.396   7.698 -0.5115 -0.3631  0.3821
34779SOL    HW1 6344   9.107   8.370   7.740  0.0161  1.4462  0.5366
34779SOL    HW2 6345   8.990   8.466   7.754 -1.2458  0.1203 -0.6428
34780SOL     OW 6346   6.245  10.897   6.744 -0.0170  0.3419  0.5977
34780SOL    HW1 6347   6.186  10.843   6.691  1.1004 -1.7331  1.3466
34780SOL    HW2 6348   6.245  10.983   6.701 -0.5315 -0.7452 -1.7152
34781SOL     OW 6349   0.024   3.810   0.838  0.4155  0.7012 -0.2300
34781SOL    HW1 6350   0.051   3.872   0.770  1.8340  1.7868  1.2707
34781SOL    HW2 6351   0.035   3.724   0.797  1.2126  1.3220 -1.3776
34782SOL     OW 6352   4.636   9.031   4.722 -0.3666 -0.1191  0.3562
34782SOL    HW1 6353   4.650   9.033   4.817 -2.1744 -1.4855  0.7297
34782SOL    HW2 6354   4.552   8.986   4.712 -1.0223  1.4307 -1.8367
34783SOL     OW 6355   6.205   2.407   1.605  0.0537  0.1450 -0.9440
34783SOL    HW1 6356   6.288   2.405   1.653 -0.4019  0.3368 -0.1105
34783SOL    HW2 6357   6.226   2.374   1.518  0.8136 -0.7377 -0.4446
34784SOL     OW 6358   5.967   5.938   9.749 -0.1385  0.0917 -0.8118
34784SOL    HW1 6359   5.956   5.995   9.825 -2.3032 -1.4545  0.1361
34784SOL    HW2 6360   5.941   5.851   9.780 -0.8311 -0.6489 -3.2324
34785SOL     OW 6361   1.561   7.565   8.919 -0.0807  0.0106 -0.3289
34785SOL    HW1 6362   1.537   7.631   8.854  0.2199 -0.1990 -0.6479
34785SOL    HW2 6363   1.534   7.482   8.880  0.0700 -0.1114 -0.1728
34786SOL     OW 6364   7.987   4.085   6.508 -0.3084  0.5159 -0.1449
34786SOL    HW1 6365   7.966   4.036   6.587  0.0317  1.9034  0.8519
34786SOL    HW2 6366   8.077   4.114   6.521  0.7231 -1.3857 -2.2352
34787SOL     OW 6367   4.720   9.483   9.854  0.0080 -0.2748  0.3017
34787SOL    HW1 6368   4.798   9.428   9.846  2.1024  2.4495  0.6648
34787SOL    HW2 6369   4.687   9.463   9.942  0.3777 -1.3186  0.2251
34788SOL     OW 6370   6.607   8.586   5.355 -0.0290 -0.0396 -0.3784
34788SOL    HW1 6371   6.526   8.536   5.351  0.0255 -0.6053  2.9290
34788SOL    HW2 6372   6.669   8.528   5.400  0.5810  2.2292  1.9615
34789SOL     OW 6373   2.377   7.554  10.772  0.7663 -0.3489 -0.0829
34789SOL    HW1 6374   2.358   7.644  10.745 -3.6914 -1.1573 -0.3308
34789SOL    HW2 6375   2.374   7.556  10.868 -2.1721 -0.5518 -0.0782
34790SOL     OW 6376   2.601   8.807   3.291  0.2865  0.5209  0.2771
34790SOL    HW1 6377   2.603   8.870   3.219  0.4756 -0.1921 -0.3549
34790SOL    HW2 6378   2.688   8.814   3.332  0.3926  0.4923  0.0569
34791SOL     OW 6379   4.276   3.133   3.392 -0.1877 -0.3578  0.4345
34791SOL    HW1 6380   4.278   3.039   3.371  2.2352 -0.0573 -1.1348
34791SOL    HW2 6381   4.268   3.136   3.487 -1.4105 -2.0969  0.4361
34792SOL     OW 6382   5.395   4.463   5.564  0.0156 -0.0221 -0.4466
34792SOL    HW1 6383   5.443   4.515   5.499  1.2193 -1.1064 -0.4860
34792SOL    HW2 6384   5.457   4.395   5.590 -0.8409 -0.2879  1.0208
34793SOL     OW 6385   3.917   0.381   5.302  0.2380  0.3356 -0.2056
34793SOL    HW1 6386   3.835   0.332   5.308 -0.7994  1.9160 -0.8567
34793SOL    HW2 6387   3.932   0.393   5.208  0.7861  0.7594 -0.0754
34794SOL     OW 6388   5.171   7.173   9.957  0.7668  0.5167 -0.4199
34794SOL    HW1 6389   5.117   7.095   9.967  2.4202 -0.8804 -1.8668
34794SOL    HW2 6390   5.120   7.231   9.901 -0.0199  0.0494 -0.1984
34795SOL     OW 6391  10.987  10.586   5.385 -0.8354  0.5135 -0.6258
34795SOL    HW1 6392  10.916  10.649   5.394 -0.4084  1.1583 -1.6032
34795SOL    HW2 6393  10.952  10.517   5.329 -1.4628 -0.3908  0.8346
34796SOL     OW 6394   2.008   4.423  10.922  0.2317  0.1217  0.4434
34796SOL    HW1 6395   2.013   4.512  10.887  2.5690 -0.8913 -2.2311
34796SOL    HW2 6396   1.920   4.393  10.899  0.1588  1.0538 -0.5659
34797SOL     OW 6397   9.858   6.279   3.046 -0.3088 -1.0683 -0.3640
34797SOL    HW1 6398   9.919   6.349   3.072 -1.1298  0.3558 -2.0810
34797SOL    HW2 6399   9.886   6.203   3.097  1.6886  0.0521  0.3218
34798SOL     OW 6400   5.504   1.826   4.292  0.7490  0.5205  0.2461
34798SOL    HW1 6401   5.425   1.876   4.313  0.8121  1.0836 -0.7868
34798SOL    HW2 6402   5.561   1.888   4.248  0.5876 -0.5722 -1.6379
34799SOL     OW 6403   2.944   6.778   2.798  0.6053 -0.4950 -0.0539
34799SOL    HW1 6404   2.954   6.683   2.796 -0.5330 -0.6460  0.3056
34799SOL    HW2 6405   2.876   6.797   2.734  0.4901  0.0232  0.2102
34800SOL     OW 6406   8.608   0.127   2.106 -0.2166 -0.6416 -0.1184
34800SOL    HW1 6407   8.572   0.153   2.021 -0.2797  0.0744  0.1218
34800SOL    HW2 6408   8.700   0.151   2.101 -0.2231 -0.5886  0.0218
34801SOL     OW 6409  10.467  10.535   6.740  0.6162  0.0570  0.1228
34801SOL    HW1 6410  10.404  10.479   6.695  2.0817 -0.9751 -0.7271
34801SOL    HW2 6411  10.487  10.489   6.822  1.8952 -0.7524 -0.6205
34802SOL     OW 6412  10.641   5.744   2.990 -0.8204  0.1476 -0.1896
34802SOL    HW1 6413  10.609   5.827   2.954 -2.2731 -1.0004 -1.6663
34802SOL    HW2 6414  10.631   5.681   2.919 -1.7739 -1.7829  1.5620
34803SOL     OW 6415  10.120   7.995   9.563 -0.0015  0.3246  0.1556
34803SOL    HW1 6416  10.098   7.937   9.636 -0.8124 -1.1563 -1.1800
34803SOL    HW2 6417  10.038   8.037   9.539  0.0341  0.0398 -0.5042
34804SOL     OW 6418   4.055   4.660   5.271  0.2487 -0.0772 -0.7990
34804SOL    HW1 6419   4.113   4.736   5.261 -0.8032  0.5359 -2.9285
34804SOL    HW2 6420   4.114   4.589   5.298  1.2277  1.4693  1.4712
34805SOL     OW 6421   1.230   9.623  10.747  0.3015  0.4607 -0.0895
34805SOL    HW1 6422   1.241   9.608  10.841  1.2372 -2.3253 -0.5459
34805SOL    HW2 6423   1.136   9.636  10.735  0.2858  1.9592  1.3118
34806SOL     OW 6424   2.890   2.237   1.933  0.1308  0.4033 -0.2232
34806SOL    HW1 6425   2.867   2.330   1.938 -3.0826 -0.2659 -0.0331
34806SOL    HW2 6426   2.808   2.194   1.907  1.5655 -2.3633 -0.5101
34807SOL     OW 6427  10.224   0.008  10.519 -0.7592 -0.4132 -1.0084
34807SOL    HW1 6428  10.140  -0.020  10.483 -1.0838  0.2288 -0.7645
34807SOL    HW2 6429  10.220  -0.017  10.611 -0.6754 -0.3941 -0.9998
34808SOL     OW 6430   2.485   3.875   5.842  0.0194 -0.4192 -0.0197
34808SOL    HW1 6431   2.485   3.793   5.792 -0.7276  0.0818 -0.8554
34808SOL    HW2 6432   2.578   3.892   5.859  0.3782 -0.0914 -2.0910
34809SOL     OW 6433   5.301   3.541   7.643 -0.1951  0.0946  0.2504
34809SOL    HW1 6434   5.268   3.593   7.571 -0.8808 -1.2107 -0.4198
34809SOL    HW2 6435   5.348   3.603   7.698  0.6226  1.0789 -1.4691
34810SOL     OW 6436   1.807  11.033   3.557 -0.0591  0.3194  0.0343
34810SOL    HW1 6437   1.888  11.007   3.603 -0.9967 -1.9935  0.5355
34810SOL    HW2 6438   1.753  11.073   3.625 -0.3693 -0.6117  0.3530
34811SOL     OW 6439   0.244   6.380   4.275 -0.4056  0.2308  0.1362
34811SOL    HW1 6440   0.332   6.396   4.311 -0.0770  1.3824 -1.0839
34811SOL    HW2 6441   0.257   6.313   4.209 -0.7194 -0.6640  0.9609
34812SOL     OW 6442   4.312   8.435   3.869 -0.5836 -0.3260 -0.2330
34812SOL    HW1 6443   4.346   8.368   3.809  1.3444  0.8226 -0.5321
34812SOL    HW2 6444   4.307   8.391   3.954  1.5152 -0.6766 -0.2278
34813SOL     OW 6445   6.705   8.269   4.177  0.0051  0.4467  0.4951
34813SOL    HW1 6446   6.771   8.269   4.107  1.3257 -0.7719  1.6757
34813SOL    HW2 6447   6.621   8.263   4.132  0.8884 -2.0093 -0.9554
34814SOL     OW 6448   9.672  10.905   4.995  0.1943  0.4962  0.5785
34814SOL    HW1 6449   9.673  10.812   5.017 -0.5644 -0.2056 -1.9772
34814SOL    HW2 6450   9.684  10.907   4.900 -0.5045  2.9792  0.4665
34815SOL     OW 6451  10.553   9.058  10.706  0.3475 -0.5480  0.3253
34815SOL    HW1 6452  10.550   9.146  10.669 -1.9098 -0.6764  0.0421
34815SOL    HW2 6453  10.506   9.066  10.789 -1.8284 -1.8403 -0.6897
34816SOL     OW 6454   4.114   9.584   0.808 -0.9410  0.0155 -0.6613
34816SOL    HW1 6455   4.053   9.511   0.803 -1.4916  0.5181 -1.5522
34816SOL    HW2 6456   4.058   9.662   0.806 -0.7071  0.5730  4.1069
34817SOL     OW 6457   7.487   8.157   2.610  0.2672  0.6238  0.5709
34817SOL    HW1 6458   7.421   8.163   2.678  0.7289 -1.0196  1.1885
34817SOL    HW2 6459   7.551   8.095   2.643  1.1976  0.8072 -0.7923
34818SOL     OW 6460   4.194   1.157   2.813  0.3147 -0.0559  0.6260
34818SOL    HW1 6461   4.124   1.125   2.756  0.3534  0.0446  0.5230
34818SOL    HW2 6462   4.237   1.226   2.763 -0.4565  0.9243  1.2695
34819SOL     OW 6463   1.814   9.246  10.130 -0.0094 -0.7330  0.2295
34819SOL    HW1 6464   1.851   9.160  10.151 -1.7211 -1.1790  1.6807
34819SOL    HW2 6465   1.857   9.306  10.191  2.6022 -0.1234 -2.0384
34820SOL     OW 6466   5.753   0.956   6.822  0.1589 -0.2845  0.1306
34820SOL    HW1 6467   5.825   0.987   6.765  1.3300 -1.1277  1.1047
34820SOL    HW2 6468   5.780   0.868   6.848 -1.2379 -0.5979  0.5615
34821SOL     OW 6469   3.404   1.314   4.635  0.1442 -0.9297  0.5015
34821SOL    HW1 6470   3.450   1.398   4.635  0.4576 -1.1016  0.8311
34821SOL    HW2 6471   3.313   1.336   4.652  0.1637 -0.6233  0.2177
34822SOL     OW 6472   7.972   3.259   6.376 -0.2182 -0.3929 -0.4089
34822SOL    HW1 6473   7.955   3.343   6.333  2.3254  0.6819  0.4629
34822SOL    HW2 6474   8.025   3.282   6.452 -1.6605 -2.5734  1.3913
34823SOL     OW 6475   7.077   9.790   4.901 -0.2958 -0.0944  1.4966
34823SOL    HW1 6476   7.132   9.860   4.937 -1.4217  1.1885  0.8173
34823SOL    HW2 6477   7.075   9.807   4.807  0.1582 -1.6111  1.1946
34824SOL     OW 6478   6.458   1.921   5.901 -0.3233  0.2585 -0.4701
34824SOL    HW1 6479   6.493   2.004   5.869  0.6294 -0.2176 -0.7087
34824SOL    HW2 6480   6.486   1.857   5.836  0.4087 -0.5087  0.5698
34825SOL     OW 6481   0.313   5.552   4.209 -0.6037 -0.1611  0.4266
34825SOL    HW1 6482   0.386   5.613   4.211  0.4124 -1.3276  0.1534
34825SOL    HW2 6483   0.273   5.559   4.296 -0.0998  0.4118  0.6180
34826SOL     OW 6484   8.024   5.936   1.616  0.3751  0.6658  0.3791
34826SOL    HW1 6485   7.937   5.966   1.642  0.7782  1.0630  1.3158
34826SOL    HW2 6486   8.044   5.985   1.536 -1.4831 -1.6096 -1.6459
34827SOL     OW 6487   3.042   5.090   1.362  0.1631 -0.3822  0.4013
34827SOL    HW1 6488   3.121   5.139   1.338  0.6918 -1.0786  0.6781
34827SOL    HW2 6489   3.007   5.059   1.278  0.9400 -1.1955  0.3602
34828SOL     OW 6490   7.015   2.602   8.756 -0.1222 -0.7644 -0.4880
34828SOL    HW1 6491   7.048   2.588   8.667  2.0296 -2.5839  0.4794
34828SOL    HW2 6492   6.994   2.695   8.759  0.5974 -0.4693 -2.6311
34829SOL     OW 6493  10.114  10.588   0.039  0.1764 -0.1879 -0.4029
34829SOL    HW1 6494  10.152  10.501   0.035  2.7231  0.8683 -1.1894
34829SOL    HW2 6495  10.178  10.645  -0.005 -0.9335  2.2085  0.8469
34830SOL     OW 6496   8.990   7.221   8.629  0.4219  0.2542  0.2059
34830SOL    HW1 6497   8.898   7.222   8.653  0.7507  0.4679  1.5556
34830SOL    HW2 6498   9.031   7.286   8.686  1.7196 -1.2202  1.0440
34831SOL     OW 6499  10.937   8.555   1.810 -0.5238 -0.4559  0.8727
34831SOL    HW1 6500  11.001   8.505   1.861 -0.4999 -1.7345 -0.3485
34831SOL    HW2 6501  10.937   8.513   1.724  1.8404  3.6030 -1.3857
34832SOL     OW 6502   3.661   6.370   9.263  0.5912  0.8236  0.8574
34832SOL    HW1 6503   3.661   6.277   9.237 -0.0741  0.4813  2.0248
34832SOL    HW2 6504   3.752   6.388   9.287  0.8581  0.6635 -0.0053
34833SOL     OW 6505   7.416   8.660   0.628  0.1355  0.0675 -0.1711
34833SOL    HW1 6506   7.352   8.720   0.666 -1.1865 -1.8628  0.8332
34833SOL    HW2 6507   7.394   8.657   0.535 -1.7471 -1.0339  0.2501
34834SOL     OW 6508   2.574   8.715   0.107  0.6170 -0.1804 -0.2162
34834SOL    HW1 6509   2.573   8.622   0.129 -2.5636  0.1625  1.7565
34834SOL    HW2 6510   2.663   8.744   0.126  1.6517 -2.7577 -0.7929
34835SOL     OW 6511   5.228   6.808   8.195 -0.3422  0.7077  0.5490
34835SOL    HW1 6512   5.287   6.787   8.122 -0.6718  0.5031  0.3420
34835SOL    HW2 6513   5.226   6.728   8.248 -1.8898  0.0447 -0.4376
34836SOL     OW 6514   1.883   5.608   0.287 -0.2793 -0.6541 -0.1622
34836SOL    HW1 6515   1.963   5.622   0.337 -0.3241  0.4151 -0.3536
34836SOL    HW2 6516   1.911   5.560   0.209  0.1649 -0.3734 -0.1805
34837SOL     OW 6517   8.136   9.702   1.571 -0.6356 -0.2143  0.1159
34837SOL    HW1 6518   8.092   9.618   1.560  0.5681 -0.7911 -0.4291
34837SOL    HW2 6519   8.115   9.752   1.492 -2.9424  0.7982  1.2626
34838SOL     OW 6520  10.633   8.253   8.875  0.0325 -0.0347  0.4381
34838SOL    HW1 6521  10.541   8.257   8.849 -0.0049  1.7553  0.7354
34838SOL    HW2 6522  10.681   8.266   8.793  0.0160 -0.1897  0.4027
34839SOL     OW 6523   7.876  11.019   1.438  0.1918  0.7990 -0.3862
34839SOL    HW1 6524   7.783  11.042   1.428 -0.3108 -0.1316  1.6227
34839SOL    HW2 6525   7.923  11.099   1.416 -1.0798  1.2841 -1.4714
34840SOL     OW 6526   9.825  10.639   6.236 -0.6702 -0.0336  0.1417
34840SOL    HW1 6527   9.816  10.566   6.175 -1.8907  0.5618 -0.4356
34840SOL    HW2 6528   9.792  10.715   6.187  3.7885  1.7188 -0.6021
34841SOL     OW 6529   7.889   9.176   2.267  0.8184  0.4047 -0.1291
34841SOL    HW1 6530   7.834   9.255   2.272  0.1453 -0.1371  1.8099
34841SOL    HW2 6531   7.830   9.104   2.290  1.3819 -0.7393 -2.0327
34842SOL     OW 6532  10.560   5.117   3.248  0.0789 -0.3038  0.5949
34842SOL    HW1 6533  10.586   5.154   3.332 -1.2472 -1.8934  1.7872
34842SOL    HW2 6534  10.476   5.158   3.228  0.5585  0.3323 -0.1543
34843SOL     OW 6535   5.100   5.772   6.968 -0.0191  0.1294  0.1240
34843SOL    HW1 6536   5.067   5.683   6.977 -0.6579  0.2585 -0.8731
34843SOL    HW2 6537   5.031   5.827   7.006 -0.0818  0.2738 -0.2031
34844SOL     OW 6538   8.844  10.561   4.245 -0.1699  0.1164 -0.6696
34844SOL    HW1 6539   8.757  10.523   4.235  0.3437 -1.5800  0.8706
34844SOL    HW2 6540   8.866  10.594   4.157 -2.7566  1.5942 -0.8609
34845SOL     OW 6541  10.539   3.946   5.119  0.4005 -0.7236 -0.1673
34845SOL    HW1 6542  10.501   3.864   5.152  0.9205 -1.7509 -1.9801
34845SOL    HW2 6543  10.463   4.002   5.103 -0.2006 -1.7550 -1.1529
34846SOL     OW 6544  10.455   7.591  10.237 -0.4563 -0.3695  0.1679
34846SOL    HW1 6545  10.409   7.584  10.153  1.8580  0.0947 -1.2064
34846SOL    HW2 6546  10.472   7.500  10.263  0.2931 -0.4972 -0.7376
34847SOL     OW 6547   0.877   3.619   7.374 -0.5788  0.2783 -0.1047
34847SOL    HW1 6548   0.790   3.627   7.415 -1.3421  1.3452 -1.8010
34847SOL    HW2 6549   0.868   3.547   7.312  1.1125 -2.5818  2.6853
34848SOL     OW 6550   4.540   6.425   9.934  0.6988 -0.4979  0.1099
34848SOL    HW1 6551   4.478   6.483   9.889 -0.8626 -1.4762  0.9000
34848SOL    HW2 6552   4.590   6.483   9.991 -1.0693  0.0778  1.1438
34849SOL     OW 6553  10.523  10.860  10.769  0.3698  0.0226 -0.0578
34849SOL    HW1 6554  10.554  10.903  10.689  0.4124 -2.3301 -1.4022
34849SOL    HW2 6555  10.445  10.910  10.794  0.2212  0.6859 -1.6941
34850SOL     OW 6556   4.208   9.268   9.424  0.6464  0.1110 -0.0258
34850SOL    HW1 6557   4.120   9.251   9.457  1.6590 -3.7935  1.1272
34850SOL    HW2 6558   4.234   9.349   9.469 -1.6339  0.3307  1.0858
34851SOL     OW 6559  11.030   9.549   9.462  0.1775 -0.3867 -0.2512
34851SOL    HW1 6560  11.038   9.475   9.401 -1.5064  0.7954 -2.0462
34851SOL    HW2 6561  11.103   9.607   9.439  1.0202 -1.0954  0.6007
34852SOL     OW 6562   1.256   7.991   1.315  0.1071 -0.4167  0.0101
34852SOL    HW1 6563   1.182   7.936   1.288  0.5002 -0.3661 -1.2533
34852SOL    HW2 6564   1.315   7.931   1.360 -1.4522 -0.1233  2.6330
34853SOL     OW 6565   6.713   8.024   1.334  0.2397  0.9730 -0.0573
34853SOL    HW1 6566   6.665   8.052   1.256  0.0521  1.3616  0.1920
34853SOL    HW2 6567   6.799   8.064   1.323 -0.3360  2.5235  0.7772
34854SOL     OW 6568  10.835   4.682  10.374 -0.0576 -0.3657  0.0070
34854SOL    HW1 6569  10.902   4.658  10.438 -0.0710  1.2011  0.6599
34854SOL    HW2 6570  10.867   4.645  10.292  1.1526 -0.4406  0.4816
34855SOL     OW 6571   5.003   2.985   0.883  0.0734  0.1663  0.0299
34855SOL    HW1 6572   5.051   2.905   0.859  0.7945  0.6858 -0.2926
34855SOL    HW2 6573   5.017   3.044   0.809  1.8743  1.6026  1.4153
34856SOL     OW 6574   2.942   6.864   9.399  0.0618 -0.3611  0.2344
34856SOL    HW1 6575   2.942   6.851   9.305 -0.4304 -1.0674  0.3334
34856SOL    HW2 6576   2.890   6.792   9.435  0.0621  0.0164  1.0296
34857SOL     OW 6577   6.052   7.570   0.732  0.3379  0.3346 -0.5674
34857SOL    HW1 6578   6.133   7.519   0.725 -0.3178 -0.7727 -0.3174
34857SOL    HW2 6579   6.027   7.585   0.641  0.6542  0.4095 -0.6454
34858SOL     OW 6580   1.138   3.649   9.418  1.0218 -0.2098 -0.9432
34858SOL    HW1 6581   1.054   3.672   9.460 -2.5330 -3.1499 -5.4189
34858SOL    HW2 6582   1.129   3.679   9.328  3.6394 -2.9506 -2.3035
34859SOL     OW 6583   2.200   1.409   2.808  0.4882 -0.2290 -0.6971
34859SOL    HW1 6584   2.156   1.328   2.833 -0.4558  0.2165 -0.8398
34859SOL    HW2 6585   2.194   1.464   2.886 -2.8140  1.3143 -1.8174
34860SOL     OW 6586   5.436   4.002   7.167 -0.1514 -0.4698  0.0645
34860SOL    HW1 6587   5.474   4.017   7.254  1.7565  0.1497 -0.8123
34860SOL    HW2 6588   5.451   3.909   7.150 -0.5353 -0.5940  0.4007
34861SOL     OW 6589  10.400   6.602   4.244  0.4517 -0.4998  0.2805
34861SOL    HW1 6590  10.433   6.678   4.197  0.5909 -0.9259 -0.3212
34861SOL    HW2 6591  10.380   6.635   4.332  1.6453 -0.0337  0.3992
34862SOL     OW 6592  10.674   0.949   6.518  0.0419 -0.5765  0.6669
34862SOL    HW1 6593  10.709   0.912   6.437 -1.0502 -0.8611  0.3178
34862SOL    HW2 6594  10.604   0.889   6.544 -0.6284  0.3284  1.0010
34863SOL     OW 6595   7.681   3.229   9.146 -0.0838 -0.3503  0.1490
34863SOL    HW1 6596   7.623   3.290   9.191 -0.3949 -0.0150 -0.6920
34863SOL    HW2 6597   7.685   3.261   9.056  1.5919 -0.2370  0.2340
34864SOL     OW 6598   2.785   6.053  10.203  0.1016 -0.3980 -0.4609
34864SOL    HW1 6599   2.729   5.985  10.241 -0.1368  0.8490  1.5755
34864SOL    HW2 6600   2.744   6.135  10.228  0.8218  0.5457 -2.1831
34865SOL     OW 6601   1.477   2.980   4.131  0.2719 -0.0585  0.1677
34865SOL    HW1 6602   1.425   2.911   4.091 -1.0581  0.7932  0.3672
34865SOL    HW2 6603   1.544   3.000   4.065  1.8171 -2.7056  0.8157
34866SOL     OW 6604  10.210   0.130   8.145  0.0862 -0.2218  0.1991
34866SOL    HW1 6605  10.254   0.137   8.060 -2.9662  0.4353 -1.5053
34866SOL    HW2 6606  10.158   0.049   8.138 -1.5193  0.7262  0.7087
34867SOL     OW 6607   2.503   2.902   2.677 -0.4259 -0.2676  0.5281
34867SOL    HW1 6608   2.461   2.816   2.668 -0.3813 -0.1655 -0.9811
34867SOL    HW2 6609   2.529   2.925   2.587 -0.3376  1.2687  0.9226
34868SOL     OW 6610  10.639   7.034   1.609 -0.5919 -0.5645 -0.4086
34868SOL    HW1 6611  10.720   7.005   1.565  0.0097 -1.8986  1.4373
34868SOL    HW2 6612  10.569   7.008   1.549  0.2808 -0.3474 -1.5630
34869SOL     OW 6613   4.789   0.569   1.836  0.3226  0.3991 -0.3136
34869SOL    HW1 6614   4.830   0.513   1.902 -1.7624  0.8096  1.4636
34869SOL    HW2 6615   4.862   0.610   1.790  1.9715  1.3814  2.8798
34870SOL     OW 6616   3.394   5.712  10.610  0.0546  0.2915  0.2968
34870SOL    HW1 6617   3.466   5.685  10.554  1.2942  2.4794  0.7574
34870SOL    HW2 6618   3.344   5.631  10.625  1.6344 -1.0081 -1.0965
34871SOL     OW 6619   8.609   7.990   2.555 -0.1979 -0.2716  0.2051
34871SOL    HW1 6620   8.545   7.925   2.529 -0.6533  0.2165  0.0868
34871SOL    HW2 6621   8.694   7.948   2.541 -0.4864 -1.6157  2.1058
34872SOL     OW 6622   9.125  10.680   6.837  0.2037 -0.3001  0.3905
34872SOL    HW1 6623   9.166  10.764   6.812  0.6131 -0.0454  1.8001
34872SOL    HW2 6624   9.089  10.646   6.756 -0.5478  1.5595 -0.1240
34873SOL     OW 6625   1.258   1.396   3.262  0.0481 -0.3919 -0.6319
34873SOL    HW1 6626   1.185   1.421   3.206  0.8880  1.6159 -0.9096
34873SOL    HW2 6627   1.219   1.389   3.350 -1.1614 -3.0273 -1.3061
34874SOL     OW 6628   0.822   2.094   6.229 -0.0902 -0.1620  0.1278
34874SOL    HW1 6629   0.743   2.076   6.280 -1.0409 -0.6726 -1.4263
34874SOL    HW2 6630   0.887   2.034   6.263 -0.5470 -0.1510  1.0496
34875SOL     OW 6631   3.944   0.366  10.651 -0.3574 -0.1422 -0.7337
34875SOL    HW1 6632   4.013   0.388  10.589 -1.7039  3.5143 -1.1932
34875SOL    HW2 6633   3.983   0.382  10.737 -0.2608  0.9733 -0.9601
34876SOL     OW 6634  10.966   1.414   9.065 -0.0733 -0.4946  0.1357
34876SOL    HW1 6635  11.045   1.360   9.059 -0.7335 -1.4740  0.0488
34876SOL    HW2 6636  10.931   1.415   8.977 -0.1143  0.0299  0.1518
34877SOL     OW 6637  10.104   1.101   7.732  0.9285 -0.3383 -0.5602
34877SOL    HW1 6638  10.086   1.008   7.719  2.7035 -0.6798 -0.7598
34877SOL    HW2 6639  10.188   1.116   7.690  0.7607  1.3407 -0.3823
34878SOL     OW 6640   2.563   6.529   1.359  1.0306  0.5397 -0.5394
34878SOL    HW1 6641   2.613   6.603   1.393  0.3346 -0.1071  2.0889
34878SOL    HW2 6642   2.544   6.475   1.436 -1.0283 -0.8508 -1.9251
34879SOL     OW 6643   9.032   5.049   4.353  0.0747  0.5265 -0.3404
34879SOL    HW1 6644   8.978   4.976   4.381  0.8915  0.4928  1.2089
34879SOL    HW2 6645   8.972   5.124   4.348 -0.1879  0.4192  1.0484
34880SOL     OW 6646   8.785   0.509  10.476  0.0503  0.0682  0.9898
34880SOL    HW1 6647   8.855   0.469  10.425 -0.0484 -1.4626  1.9831
34880SOL    HW2 6648   8.760   0.587  10.426  1.1313 -0.4121 -0.3656
34881SOL     OW 6649   1.474   6.788   8.559 -0.1569  0.4829  0.0004
34881SOL    HW1 6650   1.538   6.718   8.565 -1.7244 -1.1123 -0.9664
34881SOL    HW2 6651   1.522   6.867   8.584  2.2604 -0.5621 -1.0798
34882SOL     OW 6652   7.290   9.507   5.996  0.5499  0.1586  0.3623
34882SOL    HW1 6653   7.252   9.440   6.051  1.5895 -0.7296  0.0443
34882SOL    HW2 6654   7.311   9.579   6.056  1.3658 -0.6613  1.1011
34883SOL     OW 6655   9.766   6.796   7.654  0.1701  0.2495 -0.5077
34883SOL    HW1 6656   9.829   6.853   7.611  0.4430 -0.2379 -0.7547
34883SOL    HW2 6657   9.786   6.804   7.748  0.1618  0.6078 -0.5347
34884SOL     OW 6658   2.790  10.024   7.394  0.8615  0.6205 -0.0575
34884SOL    HW1 6659   2.711   9.994   7.349  2.6827 -0.1859 -2.9340
34884SOL    HW2 6660   2.792  10.118   7.379  1.5133  0.3462 -1.8885
34885SOL     OW 6661   4.894   7.906  10.656 -1.1381 -0.0364 -0.2625
34885SOL    HW1 6662   4.801   7.925  10.668 -0.9627 -0.1109  1.6569
34885SOL    HW2 6663   4.898   7.851  10.578 -2.6585  0.2730 -0.5892
34886SOL     OW 6664   9.550   3.559   0.513  0.4049  0.6664 -0.4624
34886SOL    HW1 6665   9.519   3.645   0.483  1.2158  1.1285 -0.0166
34886SOL    HW2 6666   9.624   3.579   0.570  1.7873 -0.4057 -1.7918
34887SOL     OW 6667   6.024  10.795  10.750 -0.5632 -0.2973 -0.5202
34887SOL    HW1 6668   6.109  10.835  10.765  0.0045 -1.7241  0.2441
34887SOL    HW2 6669   5.989  10.840  10.673  1.6627 -0.8662 -1.9496
34888SOL     OW 6670  10.722   9.683   2.610  0.1682  0.1592 -0.0896
34888SOL    HW1 6671  10.739   9.592   2.587  0.9438  0.6985 -1.9036
34888SOL    HW2 6672  10.633   9.700   2.579  0.6928  0.4818 -1.5415
34889SOL     OW 6673   0.173   4.064   0.862  0.3180  0.1791 -0.1206
34889SOL    HW1 6674   0.168   3.987   0.805 -0.3562 -0.1244  0.3313
34889SOL    HW2 6675   0.133   4.134   0.811 -0.2090 -0.0703 -0.0572
34890SOL     OW 6676   6.281   2.639   4.328 -0.1174 -0.6653  0.6069
34890SOL    HW1 6677   6.244   2.571   4.384  0.8317 -1.6771  0.0446
34890SOL    HW2 6678   6.213   2.655   4.261 -1.4198  0.8243  2.1859
34891SOL     OW 6679   9.509   7.599   2.346 -0.3683 -0.8148  0.8644
34891SOL    HW1 6680   9.602   7.593   2.368 -0.7774 -0.3196  2.9456
34891SOL    HW2 6681   9.472   7.514   2.372 -1.3859  0.7165  5.2758
34892SOL     OW 6682   7.351   9.801   5.931 -0.4770 -0.0203  0.8225
34892SOL    HW1 6683   7.443   9.782   5.918 -0.3025  1.2107  0.1120
34892SOL    HW2 6684   7.349   9.858   6.008 -0.7716 -0.9518  1.5289
34893SOL     OW 6685   9.272   4.729   9.945  0.8206  0.1645  0.6249
34893SOL    HW1 6686   9.342   4.739  10.009 -1.3648 -0.5613  3.3326
34893SOL    HW2 6687   9.206   4.793   9.972  0.5544  1.1653 -2.1161
34894SOL     OW 6688   1.282   9.894   9.766  0.2095 -0.0815  0.3427
34894SOL    HW1 6689   1.210   9.849   9.809  1.9585 -3.3707  0.2030
34894SOL    HW2 6690   1.242   9.937   9.691 -1.6999 -1.3944  0.5284
34895SOL     OW 6691   8.801   5.580   8.677 -0.3233  0.0799  0.0355
34895SOL    HW1 6692   8.707   5.562   8.669 -0.3030  0.5358 -1.5858
34895SOL    HW2 6693   8.840   5.495   8.693 -0.6938 -0.7671 -2.9445
34896SOL     OW 6694   9.744   7.485   4.429 -0.1771  0.4785 -0.1212
34896SOL    HW1 6695   9.663   7.466   4.382  1.0927 -1.7566 -1.5691
34896SOL    HW2 6696   9.715   7.515   4.515 -2.5837 -2.0824  0.1068
34897SOL     OW 6697   6.774   6.491   9.781 -0.2430 -0.0766  0.5165
34897SOL    HW1 6698   6.824   6.561   9.740 -0.1633 -1.2665 -1.5561
34897SOL    HW2 6699   6.767   6.517   9.873  1.3579  1.7146  0.1950
34898SOL     OW 6700   1.147   2.400   5.340 -0.1292  0.9255 -0.2740
34898SOL    HW1 6701   1.053   2.411   5.330 -0.0070  0.9449 -1.4592
34898SOL    HW2 6702   1.167   2.318   5.295  0.0809 -0.4663  2.1415
34899SOL     OW 6703  10.568  10.382   6.942 -0.1300 -0.8302  0.1698
34899SOL    HW1 6704  10.642  10.429   6.981 -0.5730  0.9402 -0.9871
34899SOL    HW2 6705  10.607  10.301   6.908  1.7941  0.9397 -2.1839
34900SOL     OW 6706  10.041   3.306   1.125 -0.3631 -0.4597  0.1181
34900SOL    HW1 6707   9.969   3.262   1.080  0.2125  1.0728 -2.5656
34900SOL    HW2 6708  10.113   3.243   1.123 -0.7451 -0.9017  0.1027
34901SOL     OW 6709   5.880   2.244   3.643 -0.6892 -0.1241  0.4096
34901SOL    HW1 6710   5.970   2.218   3.625 -0.3007  1.9104 -0.8853
34901SOL    HW2 6711   5.827   2.170   3.615  0.5345 -1.2602  0.9958
34902SOL     OW 6712   8.697   3.634   4.810  0.2417  0.0285 -0.1982
34902SOL    HW1 6713   8.746   3.699   4.860  2.6605 -1.8789  0.1342
34902SOL    HW2 6714   8.738   3.635   4.723 -0.3876 -0.3508 -0.5067
34903SOL     OW 6715   5.627  10.057   6.866  0.0157 -0.2519 -0.6607
34903SOL    HW1 6716   5.563  10.090   6.803  1.6644  0.7483 -1.8930
34903SOL    HW2 6717   5.623  10.119   6.939 -2.1332 -1.5969  0.4521
34904SOL     OW 6718   5.651   4.758   0.160 -0.0181 -0.6737 -0.4559
34904SOL    HW1 6719   5.623   4.668   0.141  1.3716 -1.3636  0.6253
34904SOL    HW2 6720   5.632   4.770   0.253  0.4135 -0.0703 -0.4428
34905SOL     OW 6721   2.855   7.609   7.599 -0.2807  0.5307  0.2822
34905SOL    HW1 6722   2.942   7.574   7.616  0.1516 -0.0114 -2.5654
34905SOL    HW2 6723   2.795   7.537   7.618 -0.2759  1.1175  2.9322
34906SOL     OW 6724   5.400   3.966   3.697  0.4226  0.3526  0.0528
34906SOL    HW1 6725   5.397   3.890   3.638  1.4864  0.7656 -0.5685
34906SOL    HW2 6726   5.309   3.983   3.720  0.2619 -2.9408  2.6034
34907SOL     OW 6727   5.794   0.432   8.265  0.5977 -0.0915 -1.0466
34907SOL    HW1 6728   5.758   0.499   8.208 -1.3451 -0.1513  0.0289
34907SOL    HW2 6729   5.878   0.468   8.295 -0.6740  2.1776 -0.0030
34908SOL     OW 6730   0.110   1.170   9.621 -0.6093 -0.0698 -0.6990
34908SOL    HW1 6731   0.195   1.157   9.662 -1.8487  1.6416  2.8534
34908SOL    HW2 6732   0.115   1.258   9.583 -0.6468 -0.1600 -0.9147
34909SOL     OW 6733   1.746   8.712   8.058 -0.3888  0.0520  0.4212
34909SOL    HW1 6734   1.729   8.705   7.964  0.3093 -1.6632  0.3988
34909SOL    HW2 6735   1.800   8.636   8.079 -0.9092  0.1505  2.3001
34910SOL     OW 6736   7.372   6.835   8.039  0.0398 -0.0789  0.1259
34910SOL    HW1 6737   7.343   6.744   8.041  0.0544 -0.1590 -1.7573
34910SOL    HW2 6738   7.301   6.884   8.080 -0.0560 -0.8962  0.9762
34911SOL     OW 6739   1.949   7.776   8.834  0.1031 -0.2836 -0.5521
34911SOL    HW1 6740   1.979   7.710   8.771  1.2962  1.3581 -1.7986
34911SOL    HW2 6741   2.009   7.850   8.821 -1.0794  0.9841  0.9065
34912SOL     OW 6742   7.882   0.633   8.850  0.5271  0.4174 -0.0385
34912SOL    HW1 6743   7.925   0.652   8.767 -0.6911 -0.6544 -0.9614
34912SOL    HW2 6744   7.833   0.552   8.834  1.3891 -0.6337  2.1540
34913SOL     OW 6745   0.767   7.236   7.227 -0.8284  0.2602 -0.3938
34913SOL    HW1 6746   0.747   7.326   7.253  0.0012  0.1407  0.7516
34913SOL    HW2 6747   0.755   7.185   7.307 -1.1307 -0.6282 -0.9925
34914SOL     OW 6748   8.979   9.417   1.102  0.3212 -0.0876  0.3366
34914SOL    HW1 6749   8.930   9.335   1.108 -0.6757  0.4942  0.2078
34914SOL    HW2 6750   9.042   9.401   1.031 -0.5200 -0.4088 -0.3528
34915SOL     OW 6751   2.426   9.202  10.295  0.1626  0.0731  0.3446
34915SOL    HW1 6752   2.396   9.290  10.272 -0.9581 -0.1178  1.0390
34915SOL    HW2 6753   2.488   9.216  10.368  0.6508  0.3413 -0.1124
34916SOL     OW 6754   4.475   7.491   6.767  1.1298  0.7912 -0.2586
34916SOL    HW1 6755   4.563   7.457   6.782  1.1678  0.9884 -0.0197
34916SOL    HW2 6756   4.460   7.551   6.840 -0.0214 -0.8088  0.9000
34917SOL     OW 6757   2.941   4.344   9.912 -0.1211 -1.0587 -0.7394
34917SOL    HW1 6758   2.981   4.261   9.939 -0.2601 -0.7755  0.3671
34917SOL    HW2 6759   2.904   4.380   9.992  0.4514  0.3612 -1.0915
34918SOL     OW 6760   1.557   3.253   9.736  0.8117  0.3849 -0.0059
34918SOL    HW1 6761   1.651   3.271   9.725  0.9303 -0.9412 -1.4642
34918SOL    HW2 6762   1.513   3.327   9.693  1.2773 -1.9268 -5.1875
34919SOL     OW 6763   2.845   6.330   0.830 -0.0955 -0.0757 -0.4763
34919SOL    HW1 6764   2.779   6.343   0.762 -1.9500  1.2771  1.4468
34919SOL    HW2 6765   2.888   6.415   0.837  1.0591 -0.6069 -0.8643
34920SOL     OW 6766   6.100   9.360   3.141  0.3950  0.4987  0.8764
34920SOL    HW1 6767   6.067   9.273   3.118  1.4577 -0.3568  2.4617
34920SOL    HW2 6768   6.194   9.349   3.149  0.6999  2.1148 -0.1462
34921SOL     OW 6769   4.351   8.274   2.045 -0.4093 -0.4249  0.7720
34921SOL    HW1 6770   4.378   8.226   2.124  0.3959 -0.2014  0.6421
34921SOL    HW2 6771   4.420   8.255   1.981 -0.1843  0.7323  0.6571
34922SOL     OW 6772  10.690   8.154  10.859 -0.6369  0.1016  0.4927
34922SOL    HW1 6773  10.636   8.117  10.790 -1.0549 -0.0323  0.8895
34922SOL    HW2 6774  10.657   8.244  10.870 -0.3015  0.2598  0.2407
34923SOL     OW 6775   6.490   1.421   2.212 -0.0370 -0.1783 -0.3375
34923SOL    HW1 6776   6.495   1.512   2.239 -0.4672 -0.4394  0.6741
34923SOL    HW2 6777   6.411   1.416   2.158 -0.1832 -0.0110 -0.1398
34924SOL     OW 6778   5.325   5.301   6.472  0.3544 -0.0037 -0.0230
34924SOL    HW1 6779   5.259   5.294   6.403  2.0704 -1.1235 -1.6437
34924SOL    HW2 6780   5.355   5.211   6.485  0.7836  0.3380  1.4944
34925SOL     OW 6781   0.350   5.143   0.684  0.0578  0.1182  0.1689
34925SOL    HW1 6782   0.342   5.049   0.699  1.2165 -0.2495 -1.2328
34925SOL    HW2 6783   0.398   5.176   0.760 -1.3774 -0.2026  1.2348
34926SOL     OW 6784   9.091   8.672   7.172  0.0150  1.1136 -0.0582
34926SOL    HW1 6785   9.166   8.626   7.208 -1.4087 -1.2257  0.0976
34926SOL    HW2 6786   9.108   8.765   7.190  1.1358  0.3753  3.2166
34927SOL     OW 6787   2.626   1.677   6.469 -0.8004  0.3480  0.5491
34927SOL    HW1 6788   2.584   1.762   6.461 -4.0604 -0.9110  2.2675
34927SOL    HW2 6789   2.636   1.646   6.379  0.3988  2.4588 -0.0885
34928SOL     OW 6790   1.408   6.477   9.585  0.3983 -0.1931  0.0015
34928SOL    HW1 6791   1.355   6.493   9.663 -0.1885  0.7152 -0.5691
34928SOL    HW2 6792   1.479   6.420   9.616 -1.3333 -2.1513  0.6254
34929SOL     OW 6793   4.041   8.041   8.326 -0.1558 -0.1251  0.8503
34929SOL    HW1 6794   4.117   8.082   8.285  0.4351 -0.9310  1.1011
34929SOL    HW2 6795   4.008   8.106   8.388 -1.4967  1.4108 -1.3405
34930SOL     OW 6796   4.007   5.079   6.743  0.5543 -0.1483 -0.6978
34930SOL    HW1 6797   4.088   5.092   6.694  0.7815 -0.4417 -0.4075
34930SOL    HW2 6798   4.032   5.089   6.834  0.2686 -0.2738 -0.6025
34931SOL     OW 6799   9.011   8.867   6.273  0.4605  0.0515 -0.1572
34931SOL    HW1 6800   8.958   8.882   6.351 -0.8663  0.7452 -1.1570
34931SOL    HW2 6801   8.988   8.779   6.244  0.6251 -0.0351 -0.0313
34932SOL     OW 6802   5.077   9.099   0.652 -0.0412 -0.1215 -0.3309
34932SOL    HW1 6803   5.042   9.184   0.625 -0.3211 -0.7033 -1.9217
34932SOL    HW2 6804   5.101   9.056   0.570  0.2570 -1.5158  0.4505
34933SOL     OW 6805   1.201   9.370   4.700 -0.6439  0.1644  0.5756
34933SOL    HW1 6806   1.285   9.415   4.712 -0.3429  0.0082 -0.7690
34933SOL    HW2 6807   1.215   9.284   4.739 -0.6262  0.5780  1.5250
34934SOL     OW 6808   1.144   2.054   1.985 -0.1101  0.7513 -0.0362
34934SOL    HW1 6809   1.173   1.974   2.029 -0.8719  0.3773 -0.2097
34934SOL    HW2 6810   1.064   2.029   1.940  0.8880  1.0048 -2.0230
34935SOL     OW 6811   6.096   8.959   8.971  0.2402  0.6934  0.3407
34935SOL    HW1 6812   6.011   8.917   8.954  0.5123  0.5071 -0.6274
34935SOL    HW2 6813   6.112   8.944   9.064 -1.1844  1.4567  0.7597
34936SOL     OW 6814  10.645   0.366   8.777 -0.3376  0.2827 -0.1083
34936SOL    HW1 6815  10.649   0.271   8.789 -0.2143  0.5165  1.9745
34936SOL    HW2 6816  10.602   0.378   8.692 -3.6651 -1.5973  1.1529
34937SOL     OW 6817   6.438   2.836   3.002  0.6840 -0.4054  1.0393
34937SOL    HW1 6818   6.421   2.924   3.034 -0.3458  0.3603 -1.3234
34937SOL    HW2 6819   6.522   2.842   2.958 -0.7430  0.3606 -1.8515
34938SOL     OW 6820   8.691   3.454   9.576 -0.2308  0.2825  0.2878
34938SOL    HW1 6821   8.600   3.484   9.579  0.0463  1.3078 -0.7093
34938SOL    HW2 6822   8.713   3.433   9.667 -0.8356  1.9634  0.8578
34939SOL     OW 6823   5.762   5.261   9.734  0.0076  0.5399 -0.0455
34939SOL    HW1 6824   5.799   5.178   9.705  0.1749  0.6405 -0.1190
34939SOL    HW2 6825   5.814   5.287   9.810 -0.8346 -0.0439  0.7630
34940SOL     OW 6826   8.933   0.011   0.154 -0.3058 -0.2015 -0.3994
34940SOL    HW1 6827   8.988  -0.049   0.204  1.1226  0.5997 -0.9518
34940SOL    HW2 6828   8.895   0.069   0.220 -0.4455 -0.7212 -0.0172
34941SOL     OW 6829   6.990   6.549   2.188 -0.2124 -0.0135  0.6199
34941SOL    HW1 6830   7.069   6.521   2.233  0.7601 -2.1922 -2.1763
34941SOL    HW2 6831   6.920   6.538   2.253  1.5080  0.4845  2.6640
34942SOL     OW 6832   9.293   7.818   0.973 -1.0328  1.0009  0.1105
34942SOL    HW1 6833   9.319   7.867   1.051 -0.4040 -2.7422  2.5333
34942SOL    HW2 6834   9.366   7.759   0.957 -2.2800 -0.1524 -1.7164
34943SOL     OW 6835   2.354  10.234   9.682 -0.1920  0.4372 -0.3846
34943SOL    HW1 6836   2.418  10.171   9.649 -0.7195 -0.0248 -0.5353
34943SOL    HW2 6837   2.273  10.212   9.637 -0.3402  1.3584 -0.5976
34944SOL     OW 6838   6.432   8.528   0.670 -0.6274 -0.2594  1.0227
34944SOL    HW1 6839   6.428   8.588   0.745  0.8664  0.6245  0.4374
34944SOL    HW2 6840   6.350   8.479   0.675 -1.6934  1.4792  1.8342
34945SOL     OW 6841   9.450   8.168  10.939 -0.3102  0.6345  0.1671
34945SOL    HW1 6842   9.450   8.263  10.954 -1.2029  0.9671 -1.5748
34945SOL    HW2 6843   9.487   8.158  10.851  1.6913 -0.8436  1.1098
34946SOL     OW 6844   3.572   4.411   3.328 -0.1119  0.0278  0.2609
34946SOL    HW1 6845   3.546   4.340   3.387  0.0893  0.3150  0.7105
34946SOL    HW2 6846   3.528   4.392   3.246 -2.3192  0.8698  1.1823
34947SOL     OW 6847   2.664   7.761   8.956  0.4870 -0.0219 -0.0495
34947SOL    HW1 6848   2.651   7.852   8.983 -1.1801 -0.2763  0.0831
34947SOL    HW2 6849   2.721   7.766   8.879  1.0986  1.0604  0.4500
34948SOL     OW 6850   9.858   6.004   5.335 -0.2339 -0.5815 -0.5314
34948SOL    HW1 6851   9.953   6.013   5.325 -0.5232 -0.2192 -4.3624
34948SOL    HW2 6852   9.841   5.911   5.320 -0.5677 -0.5678 -0.2623
34949SOL     OW 6853   7.040   2.106   9.194  0.9467 -0.1809  1.0544
34949SOL    HW1 6854   7.084   2.122   9.278  1.2842  0.9077  0.6888
34949SOL    HW2 6855   7.107   2.063   9.140  2.0741  2.6321  0.0679
34950SOL     OW 6856  11.074   9.045   6.301  0.3863 -1.0689  0.3549
34950SOL    HW1 6857  10.980   9.032   6.286 -0.0948  0.5487  1.7287
34950SOL    HW2 6858  11.079   9.114   6.367  2.5903  1.2470 -1.9985
34951SOL     OW 6859   6.555   2.456   4.736 -0.0802  0.1566  0.4857
34951SOL    HW1 6860   6.564   2.459   4.640 -1.5687 -0.0401  0.3268
34951SOL    HW2 6861   6.574   2.546   4.764 -1.8964  0.7978 -0.2206
34952SOL     OW 6862   2.757  10.003   9.258  0.2023  0.4016 -0.5401
34952SOL    HW1 6863   2.780   9.992   9.166  0.8852  1.0311 -0.4561
34952SOL    HW2 6864   2.770   9.916   9.296  2.5232  0.6983 -0.5074
34953SOL     OW 6865   9.196   8.163   7.127 -0.5438  0.3614  0.4541
34953SOL    HW1 6866   9.177   8.193   7.039  1.4291  0.2516 -0.0555
34953SOL    HW2 6867   9.287   8.188   7.142 -0.5870 -0.3409  2.1603
34954SOL     OW 6868   3.152   6.566   6.465  0.2907  0.1385 -0.0363
34954SOL    HW1 6869   3.154   6.656   6.434  0.6875 -0.0819 -0.6881
34954SOL    HW2 6870   3.064   6.535   6.443  0.3273  0.2081 -0.2839
34955SOL     OW 6871   2.715   9.504   4.512  0.4542  0.6437  0.1759
34955SOL    HW1 6872   2.778   9.455   4.458 -0.3313  0.8351 -0.9514
34955SOL    HW2 6873   2.638   9.514   4.456 -0.8080 -0.0592  1.6971
34956SOL     OW 6874   8.515   9.039   8.479  0.0183  0.6094  0.2264
34956SOL    HW1 6875   8.427   9.016   8.450  1.6028 -2.1800 -3.0868
34956SOL    HW2 6876   8.527   8.987   8.559 -0.5586 -0.9518 -0.6544
34957SOL     OW 6877   4.549   2.692   7.197  0.0652 -0.7628  0.1748
34957SOL    HW1 6878   4.544   2.642   7.278 -1.6839 -2.8060 -1.0730
34957SOL    HW2 6879   4.639   2.679   7.166  1.2079  1.2001  2.3630
34958SOL     OW 6880   9.592   2.185   1.838 -0.3053 -0.0479 -0.9576
34958SOL    HW1 6881   9.554   2.272   1.836 -0.8425 -0.2550 -0.1656
34958SOL    HW2 6882   9.687   2.199   1.834 -0.2943  0.6713  0.9815
34959SOL     OW 6883   0.838   5.893  10.945  0.2236  0.1859  0.0304
34959SOL    HW1 6884   0.898   5.911  10.873  0.3676 -0.9949 -0.1649
34959SOL    HW2 6885   0.797   5.978  10.964  2.0923  1.0766  0.3235
34960SOL     OW 6886   3.228   0.140   9.653  0.4955  0.4515  0.1341
34960SOL    HW1 6887   3.190   0.209   9.600 -0.7247  1.0761  1.7411
34960SOL    HW2 6888   3.320   0.163   9.660  0.1070  1.9422  0.6511
34961SOL     OW 6889   6.404   0.608   2.308 -0.3467  0.3740 -1.0151
34961SOL    HW1 6890   6.431   0.685   2.358  0.4584 -0.8312  0.4946
34961SOL    HW2 6891   6.481   0.583   2.258  0.4764 -1.2185  0.8944
34962SOL     OW 6892   1.668   5.409   6.604 -0.0479  0.9803  0.1853
34962SOL    HW1 6893   1.625   5.356   6.537 -0.8342  0.2560  1.2216
34962SOL    HW2 6894   1.728   5.466   6.556  0.1013 -0.1745 -1.0436
34963SOL     OW 6895  10.315   0.680   1.273 -1.3732  0.5207 -0.3463
34963SOL    HW1 6896  10.236   0.633   1.300 -0.8627  1.3486  2.9432
34963SOL    HW2 6897  10.349   0.719   1.353  2.4859  0.0883 -1.5721
34964SOL     OW 6898   1.352   3.164   1.265 -0.9386  0.1253 -0.3567
34964SOL    HW1 6899   1.389   3.225   1.202 -2.1769 -1.0680 -2.3510
34964SOL    HW2 6900   1.277   3.125   1.220 -2.7885  0.2312  2.3670
34965SOL     OW 6901   4.282  10.659   0.658  0.1735  0.5785  0.2386
34965SOL    HW1 6902   4.270  10.567   0.636 -0.0639  0.7328 -0.2936
34965SOL    HW2 6903   4.211  10.704   0.612 -0.0356  0.9684  0.9318
34966SOL     OW 6904   2.493   6.033   1.753 -0.1379 -0.4003  0.3494
34966SOL    HW1 6905   2.418   5.983   1.721 -1.0613  0.6302  0.8671
34966SOL    HW2 6906   2.489   6.116   1.705  1.0077 -0.5369 -0.0217
34967SOL     OW 6907   7.017   5.626   3.791 -0.4684 -0.2957  1.0361
34967SOL    HW1 6908   6.972   5.694   3.841  0.4573  1.7333 -0.7471
34967SOL    HW2 6909   7.084   5.592   3.851 -0.2450  1.1214  1.6174
34968SOL     OW 6910  10.172   0.428   4.397 -0.0023  0.7818 -0.0675
34968SOL    HW1 6911  10.147   0.342   4.363  1.3573  0.1390  0.4580
34968SOL    HW2 6912  10.199   0.411   4.488 -0.9043  1.9857  0.4488
34969SOL     OW 6913   7.665   7.981  10.549  0.0074  0.2458 -0.5593
34969SOL    HW1 6914   7.676   8.076  10.557 -0.0581  0.1780  0.4413
34969SOL    HW2 6915   7.749   7.950  10.517 -0.1781  0.7089 -1.5241
34970SOL     OW 6916  10.841  10.190   4.028  0.5701 -0.4386  0.9742
34970SOL    HW1 6917  10.887  10.155   4.104  0.7721 -1.3377  0.4522
34970SOL    HW2 6918  10.873  10.138   3.954  0.3033  0.3526  0.2859
34971SOL     OW 6919   1.508   6.383  10.716  0.1369  0.1553  0.7754
34971SOL    HW1 6920   1.552   6.401  10.633 -0.2800  0.5960  0.6489
34971SOL    HW2 6921   1.561   6.429  10.781  0.6936 -0.5208  0.8113
34972SOL     OW 6922   9.029   6.888  10.225 -0.2140  0.0846  0.7416
34972SOL    HW1 6923   9.085   6.815  10.201  1.8578  1.1398  1.9750
34972SOL    HW2 6924   9.039   6.895  10.320 -2.5000  0.3416  1.0243
34973SOL     OW 6925   1.663   0.553  11.073 -0.4760 -1.5582 -0.1064
34973SOL    HW1 6926   1.592   0.493  11.049 -1.8846 -0.8369  1.9862
34973SOL    HW2 6927   1.621   0.619  11.129  1.7301 -0.6821  0.6270
34974SOL     OW 6928   7.206   8.602  11.042  0.1887  0.3151  0.0945
34974SOL    HW1 6929   7.268   8.645  10.983  0.5850  0.4064  0.5732
34974SOL    HW2 6930   7.256   8.586  11.122 -0.3558  0.2301  0.4209
34975SOL     OW 6931   1.980   4.867   4.672 -0.4393 -0.2373  0.6772
34975SOL    HW1 6932   2.068   4.896   4.696 -0.4104 -0.1672  0.4843
34975SOL    HW2 6933   1.986   4.772   4.672 -0.1324 -0.2272 -0.1900
34976SOL     OW 6934   0.716   6.468   0.297 -0.3927 -0.3124  0.5180
34976SOL    HW1 6935   0.782   6.413   0.341 -0.4187 -0.3129  0.5566
34976SOL    HW2 6936   0.731   6.555   0.333  1.9221  0.4658 -2.0018
34977SOL     OW 6937   5.790   4.269   0.607  0.6351  0.0739  0.0386
34977SOL    HW1 6938   5.717   4.210   0.623 -1.0674  2.0173 -0.0298
34977SOL    HW2 6939   5.857   4.245   0.671 -1.3084  0.1639  2.2213
34978SOL     OW 6940   0.487   7.880   6.315  0.2558 -0.8834  0.1372
34978SOL    HW1 6941   0.563   7.832   6.283  1.9911  0.7849  1.5721
34978SOL    HW2 6942   0.466   7.942   6.245  0.6434 -0.9009  0.0067
34979SOL     OW 6943  10.674   7.804   0.020 -0.4276  0.0009  0.0896
34979SOL    HW1 6944  10.683   7.806  -0.076  0.5877  0.4345  0.1824
34979SOL    HW2 6945  10.674   7.896   0.046  3.1035 -0.0821  0.7985
34980SOL     OW 6946   0.618   0.901   0.092  0.5831 -0.3853  0.1337
34980SOL    HW1 6947   0.532   0.932   0.122  0.4684 -0.3034 -0.2703
34980SOL    HW2 6948   0.655   0.856   0.168  1.0586  1.3408  0.9571
34981SOL     OW 6949   8.443   6.182   1.850 -0.2331 -0.0665  0.4016
34981SOL    HW1 6950   8.487   6.121   1.909  1.2414 -0.5256 -1.1181
34981SOL    HW2 6951   8.349   6.169   1.867  0.0883 -2.0818  0.7624
34982SOL     OW 6952   4.397   1.960   2.113 -0.9189  0.5781 -0.0225
34982SOL    HW1 6953   4.435   1.952   2.025 -0.6469  0.6905  0.0836
34982SOL    HW2 6954   4.321   1.902   2.112  0.1352 -0.8666  0.2493
34983SOL     OW 6955   1.115   7.343  10.696 -0.9808  0.2017 -0.2411
34983SOL    HW1 6956   1.165   7.267  10.667 -0.2217  0.5289  0.1824
34983SOL    HW2 6957   1.030   7.307  10.720 -0.6788 -0.4961 -0.1808
34984SOL     OW 6958   4.556   8.027   0.062  0.0088  0.4469 -0.3572
34984SOL    HW1 6959   4.533   8.096   0.124 -0.3190 -0.7664  0.9228
34984SOL    HW2 6960   4.577   7.951   0.117  1.2312 -0.2242 -1.6979
34985SOL     OW 6961   4.352   7.764   4.261 -0.3514  0.3002  0.1855
34985SOL    HW1 6962   4.431   7.797   4.217  1.1628 -0.0687  2.4637
34985SOL    HW2 6963   4.311   7.706   4.196  1.9849 -0.5528 -0.6227
34986SOL     OW 6964   4.790   7.081   1.136  0.0443 -0.0150  0.0225
34986SOL    HW1 6965   4.754   7.153   1.188  1.7712 -0.1477  1.4992
34986SOL    HW2 6966   4.845   7.124   1.071 -2.2368  0.1604 -1.9211
34987SOL     OW 6967  10.998   3.136   1.893  0.3289 -0.2348 -0.6652
34987SOL    HW1 6968  11.080   3.121   1.940 -0.3148 -1.8456  0.0437
34987SOL    HW2 6969  11.014   3.101   1.805  0.8259  0.7352 -0.9731
34988SOL     OW 6970   2.978   9.578   9.219 -0.1535  0.1312  0.2178
34988SOL    HW1 6971   3.049   9.565   9.156 -2.9067 -0.4052 -3.0261
34988SOL    HW2 6972   2.978   9.673   9.236  0.6528  0.2833 -0.5657
34989SOL     OW 6973   7.582   4.587   3.805  0.1810  0.8313 -0.2800
34989SOL    HW1 6974   7.605   4.662   3.750 -0.2210  1.1208 -0.0611
34989SOL    HW2 6975   7.638   4.596   3.882 -0.6007  1.5028  0.2257
34990SOL     OW 6976   4.158  10.410   2.857  0.1513  0.5799  0.1870
34990SOL    HW1 6977   4.079  10.451   2.892  0.6321  1.5194  0.2001
34990SOL    HW2 6978   4.188  10.352   2.927  0.5471  1.6881  0.9563
34991SOL     OW 6979   9.313   5.775   4.379 -0.1170 -0.5262  0.9544
34991SOL    HW1 6980   9.407   5.759   4.387  0.1363  1.0216  1.3456
34991SOL    HW2 6981   9.273   5.690   4.398  1.1422 -0.8880  2.1880
34992SOL     OW 6982   6.384   2.696   7.282  0.5799 -0.5802  0.3451
34992SOL    HW1 6983   6.389   2.684   7.377 -0.3320  0.2475  0.5262
34992SOL    HW2 6984   6.290   2.709   7.265  0.4029 -3.0673 -1.0011
34993SOL     OW 6985   3.832  11.099   2.775 -0.4334  0.4082  0.1025
34993SOL    HW1 6986   3.809  11.166   2.839  1.4466  0.7882  0.4358
34993SOL    HW2 6987   3.785  11.021   2.805 -1.4708  1.1802  0.5606
34994SOL     OW 6988   8.051   0.485   3.140 -0.0740  0.5204  0.3792
34994SOL    HW1 6989   7.957   0.480   3.161  0.0134 -0.3252  0.6045
34994SOL    HW2 6990   8.086   0.549   3.202 -0.2606 -0.1763  1.2246
34995SOL     OW 6991   4.753   2.733  10.226  0.5465  0.1363  0.9709
34995SOL    HW1 6992   4.727   2.781  10.305 -0.6264  0.8932  0.1691
34995SOL    HW2 6993   4.845   2.754  10.214  0.1921  1.8271  0.9290
34996SOL     OW 6994   2.638   1.609   0.306  0.2524  0.0414  0.1267
34996SOL    HW1 6995   2.723   1.584   0.271 -0.2827 -1.2885 -0.2992
34996SOL    HW2 6996   2.632   1.562   0.389 -0.5052 -0.8090 -0.3827
34997SOL     OW 6997   2.682   3.564   0.980  0.3310 -0.0853  0.7648
34997SOL    HW1 6998   2.602   3.579   0.930 -1.1429 -1.0519  2.7140
34997SOL    HW2 6999   2.678   3.628   1.051  0.4252 -1.2654  1.8493
34998SOL     OW 7000   4.100   5.595   6.470 -0.2268 -0.5881  0.4729
34998SOL    HW1 7001   4.030   5.653   6.502  0.5315 -0.3068  1.6697
34998SOL    HW2 7002   4.053   5.518   6.438 -1.1389 -0.1028  0.5958
34999SOL     OW 7003   6.779  10.139   8.266 -0.0565  0.0270 -0.5231
34999SOL    HW1 7004   6.730  10.153   8.347  0.7567 -0.5699  0.0915
34999SOL    HW2 7005   6.758  10.215   8.211 -2.2403 -0.5627 -0.5974
35000SOL     OW 7006  10.498   6.263   2.859 -0.0473  0.0426 -0.0965
35000SOL    HW1 7007  10.462   6.339   2.814 -2.5920 -0.3107  1.1619
35000SOL    HW2 7008  10.424   6.202   2.866  1.4034 -1.7291  0.6718
35001SOL     OW 7009   9.924   4.607   9.241 -0.1604  0.2402  0.4169
35001SOL    HW1 7010   9.991   4.552   9.202 -1.1668 -1.4900  0.9962
35001SOL    HW2 7011   9.863   4.626   9.169 -0.3791 -0.3247  0.4524
35002SOL     OW 7012   4.161   5.738   9.415  0.0721  0.1552 -0.1720
35002SOL    HW1 7013   4.158   5.828   9.384 -0.7924 -0.0578 -0.7391
35002SOL    HW2 7014   4.254   5.714   9.410  0.3325  1.0714  0.1810
35003SOL     OW 7015   5.902   3.692   3.133 -0.5881 -0.1323  0.2529
35003SOL    HW1 7016   5.902   3.755   3.061 -1.8684 -1.0743 -0.6101
35003SOL    HW2 7017   5.988   3.702   3.174 -1.0363  2.7644  0.6919
35004SOL     OW 7018   6.322   7.788  10.409 -0.0542 -0.0819 -0.0481
35004SOL    HW1 7019   6.368   7.843  10.473  1.0425  0.2869 -1.1379
35004SOL    HW2 7020   6.242   7.837  10.389 -0.0953  0.1058  0.5364
35005SOL     OW 7021   4.920   3.839   9.947 -0.5236  0.1223  0.2930
35005SOL    HW1 7022   4.862   3.778   9.993  1.6839 -0.4019  2.6009
35005SOL    HW2 7023   4.973   3.783   9.890 -0.1451  0.1717  0.5920
35006SOL     OW 7024   4.578   3.868   7.490  0.1149 -0.6659 -0.3634
35006SOL    HW1 7025   4.622   3.869   7.575 -2.5008  1.6487  1.1223
35006SOL    HW2 7026   4.551   3.776   7.479 -0.0985 -0.9044  1.6930
35007SOL     OW 7027   7.673   4.966  11.025  0.5177  0.2600  0.3520
35007SOL    HW1 7028   7.623   5.036  11.066  1.4711  0.0708  1.9179
35007SOL    HW2 7029   7.716   5.007  10.950 -0.8239  0.7474 -0.1695
35008SOL     OW 7030  10.705   2.467   6.616 -0.0352 -0.9041  0.1534
35008SOL    HW1 7031  10.787   2.432   6.652 -1.1319 -2.4459  1.2946
35008SOL    HW2 7032  10.699   2.556   6.652  2.0144 -0.0104 -1.4791
35009SOL     OW 7033  11.055   5.961   2.044 -0.2108 -0.3518 -0.5553
35009SOL    HW1 7034  10.988   5.905   2.004 -0.7797 -0.8294  0.9885
35009SOL    HW2 7035  11.078   5.917   2.126  1.7665 -0.0164 -0.8722
35010SOL     OW 7036   3.308   4.515   4.722  0.3013  0.4254 -0.5390
35010SOL    HW1 7037   3.303   4.421   4.709  3.2996  0.2106 -0.9524
35010SOL    HW2 7038   3.258   4.531   4.802 -0.1538 -1.5171 -0.3827
35011SOL     OW 7039   6.480   8.135   2.419 -0.2157  0.9900 -0.4737
35011SOL    HW1 7040   6.540   8.210   2.420 -1.0482  1.6929  1.1048
35011SOL    HW2 7041   6.399   8.169   2.457 -0.9209 -0.4956 -0.5685
35012SOL     OW 7042   6.102   5.379   3.111 -0.1825 -0.1122  0.5619
35012SOL    HW1 7043   6.165   5.414   3.048  0.5603 -1.8387  0.2816
35012SOL    HW2 7044   6.143   5.299   3.144 -2.3334 -1.4670  0.1584
35013SOL     OW 7045   1.044  10.383   2.975 -0.1436 -0.6572  0.6557
35013SOL    HW1 7046   0.959  10.370   2.935  0.1076  2.3115 -1.1467
35013SOL    HW2 7047   1.031  10.455   3.036  0.9922 -0.3176  0.5254
35014SOL     OW 7048   2.507   0.457   1.677 -0.2660 -0.1265 -0.0477
35014SOL    HW1 7049   2.534   0.497   1.595 -1.5942  0.4962 -0.2002
35014SOL    HW2 7050   2.530   0.364   1.667  3.0974  0.5364  0.4173
35015SOL     OW 7051   0.004   2.078   5.635 -0.5119 -0.2311  0.0212
35015SOL    HW1 7052   0.058   2.079   5.713 -1.4979 -0.5357  0.7308
35015SOL    HW2 7053   0.060   2.040   5.567  1.1127  2.0679 -0.0227
35016SOL     OW 7054   3.709   5.745   5.707  0.5851  0.3053  0.4885
35016SOL    HW1 7055   3.757   5.671   5.744 -1.3335 -1.4783 -0.4345
35016SOL    HW2 7056   3.757   5.822   5.738  2.0180 -1.2572  2.3994
35017SOL     OW 7057   7.641   9.061   7.075  0.0522  0.6612 -0.4502
35017SOL    HW1 7058   7.634   9.046   6.981  0.2819  0.0720 -0.3785
35017SOL    HW2 7059   7.734   9.074   7.090 -0.0642  1.4673 -0.4032
35018SOL     OW 7060   0.257   6.784   2.519  0.6560  0.8500  0.3082
35018SOL    HW1 7061   0.229   6.871   2.491  2.9864  1.7877  0.7057
35018SOL    HW2 7062   0.236   6.727   2.445  0.9483  2.1246 -0.7851
35019SOL     OW 7063   0.639   4.257   5.730 -0.6751 -0.2178  0.5726
35019SOL    HW1 7064   0.649   4.168   5.696 -1.3045  0.2311 -0.8535
35019SOL    HW2 7065   0.589   4.246   5.811  1.0804 -1.3419  1.5539
35020SOL     OW 7066   7.448   2.662   8.622 -0.0160 -0.2663  0.1529
35020SOL    HW1 7067   7.416   2.753   8.629 -0.9480 -0.4954 -0.8397
35020SOL    HW2 7068   7.527   2.660   8.675 -0.1713  1.0490  0.4646
35021SOL     OW 7069   5.419   9.206   6.379 -0.7312 -0.0143  0.1151
35021SOL    HW1 7070   5.470   9.287   6.384 -0.6231 -0.0957  0.3212
35021SOL    HW2 7071   5.330   9.235   6.357 -0.7022  0.1616  0.2332
35022SOL     OW 7072   2.235   0.596   4.328 -0.0474  0.0460 -0.0324
35022SOL    HW1 7073   2.302   0.659   4.304  0.9217 -0.6537  0.7542
35022SOL    HW2 7074   2.160   0.649   4.356  1.0095  0.8769  1.3586
35023SOL     OW 7075   3.325   3.948   7.835 -0.1551 -0.0111  0.3072
35023SOL    HW1 7076   3.346   3.857   7.817  0.1811  0.2318 -0.5939
35023SOL    HW2 7077   3.244   3.964   7.786  0.2700  0.4066 -0.2819
35024SOL     OW 7078   9.748   4.505  10.077  0.1269 -0.0199  0.1312
35024SOL    HW1 7079   9.754   4.495  10.172 -1.3662  0.5420  0.3145
35024SOL    HW2 7080   9.679   4.443  10.051 -0.7150  1.0751 -0.3284
35025SOL     OW 7081   0.008   1.672   8.014 -0.5155  0.7928 -0.8075
35025SOL    HW1 7082   0.045   1.633   8.093 -0.5708 -0.8832 -1.5752
35025SOL    HW2 7083  -0.015   1.762   8.040  0.8353  0.7532  0.6481
35026SOL     OW 7084  11.098   2.413   6.415 -0.6446  0.7160 -0.0884
35026SOL    HW1 7085  11.089   2.336   6.472 -1.5884  0.5704 -0.4149
35026SOL    HW2 7086  11.041   2.394   6.340  0.4802  0.9584 -1.0302
35027SOL     OW 7087   2.444   7.494   7.050 -0.0406 -0.7094  0.2663
35027SOL    HW1 7088   2.453   7.523   7.141 -0.7114 -0.5948  0.2981
35027SOL    HW2 7089   2.530   7.513   7.010  0.4830 -1.3902  1.0473
35028SOL     OW 7090   4.597   4.513   3.306 -0.2256  0.0575 -0.8185
35028SOL    HW1 7091   4.632   4.559   3.382  3.5353 -2.1975 -0.8987
35028SOL    HW2 7092   4.572   4.427   3.340  0.1749 -0.4898 -1.8614
35029SOL     OW 7093   2.288  10.019   2.572  0.0749  0.1285  0.4222
35029SOL    HW1 7094   2.268  10.092   2.630  2.5218  0.6989  0.6608
35029SOL    HW2 7095   2.383  10.008   2.578  0.0340 -1.8018 -1.1330
35030SOL     OW 7096   3.121   4.080   8.186 -0.2462  0.6125 -0.1923
35030SOL    HW1 7097   3.039   4.031   8.177  0.3220 -0.8445  1.8043
35030SOL    HW2 7098   3.112   4.124   8.270  0.8820  0.7237 -0.1269
35031SOL     OW 7099   0.987   3.096   2.532  0.3257  0.0700 -0.3588
35031SOL    HW1 7100   0.922   3.028   2.517  1.1285 -0.2769 -2.5972
35031SOL    HW2 7101   1.026   3.074   2.617 -2.0933  0.0224  0.8052
35032SOL     OW 7102   9.064   3.419   5.039 -0.0998  0.2303 -0.6396
35032SOL    HW1 7103   9.062   3.341   5.095 -0.9733  1.0893  0.6038
35032SOL    HW2 7104   9.085   3.386   4.952  2.0482 -1.0997  0.2851
35033SOL     OW 7105   1.429   1.419   5.781  0.1745  0.2753 -1.0014
35033SOL    HW1 7106   1.425   1.339   5.729 -0.2020  0.0762 -0.6703
35033SOL    HW2 7107   1.357   1.411   5.844  1.3515 -0.0362  0.3547
35034SOL     OW 7108   7.605   2.294   8.886 -0.0660 -0.1498  0.1143
35034SOL    HW1 7109   7.595   2.371   8.943  0.5822  0.7957 -1.0186
35034SOL    HW2 7110   7.663   2.235   8.934 -0.1138  0.3131  0.7441
35035SOL     OW 7111  10.342   1.522   9.516  0.7635  0.7651 -0.0561
35035SOL    HW1 7112  10.355   1.460   9.444 -2.1393  0.5432 -0.5125
35035SOL    HW2 7113  10.252   1.506   9.545  0.6515  3.2989  1.2491
35036SOL     OW 7114  10.101   2.392   5.437 -0.1857 -0.7504  0.1539
35036SOL    HW1 7115  10.125   2.471   5.389 -1.0176  0.5973  1.8625
35036SOL    HW2 7116  10.006   2.398   5.447 -0.2403 -1.8926  0.4517
35037SOL     OW 7117   7.711   7.232   6.934  0.2003 -0.2602 -0.2177
35037SOL    HW1 7118   7.637   7.280   6.898  1.1468  0.4645 -1.2606
35037SOL    HW2 7119   7.772   7.300   6.965  0.2436 -0.8427  1.0627
35038SOL     OW 7120   8.817   5.926   2.675 -0.2521  0.0066 -0.1335
35038SOL    HW1 7121   8.841   5.972   2.755  1.4501 -0.5029 -0.3208
35038SOL    HW2 7122   8.810   5.834   2.702 -0.2902 -0.0799 -0.4401
35039SOL     OW 7123  10.265   7.527   1.535  0.3470  0.7128  0.6681
35039SOL    HW1 7124  10.318   7.499   1.460  1.9386  4.9298 -0.0613
35039SOL    HW2 7125  10.182   7.556   1.497 -0.6293 -1.1567  1.2149
35040SOL     OW 7126   6.174   4.814   7.827  0.1045 -0.1027 -0.0383
35040SOL    HW1 7127   6.255   4.864   7.818  3.1325 -4.4506  0.2436
35040SOL    HW2 7128   6.171   4.758   7.750 -2.7422 -0.0987 -0.0438
35041SOL     OW 7129  10.682   5.194   5.915  0.0607 -1.0290  0.4541
35041SOL    HW1 7130  10.592   5.170   5.934 -0.2710  0.2124  0.5404
35041SOL    HW2 7131  10.704   5.260   5.982  1.0583 -1.3660  0.4857
35042SOL     OW 7132   4.237   9.515   8.564  0.8733 -0.6923 -1.0393
35042SOL    HW1 7133   4.224   9.610   8.571  2.5062 -0.5451  0.7204
35042SOL    HW2 7134   4.318   9.505   8.516  1.1645 -1.1533 -0.4676
35043SOL     OW 7135   7.388   3.506   4.550 -0.0464 -0.4983 -0.4052
35043SOL    HW1 7136   7.458   3.559   4.587  0.0757  2.0736 -3.8136
35043SOL    HW2 7137   7.307   3.544   4.584  0.1055  0.5225 -1.1508
35044SOL     OW 7138   8.363   2.335   5.101  1.2040  0.8531  0.1676
35044SOL    HW1 7139   8.415   2.293   5.033  0.1741  2.7178 -1.9159
35044SOL    HW2 7140   8.420   2.337   5.177  2.2079 -1.8320 -0.4182
35045SOL     OW 7141   0.687   9.055   4.071  0.5175  0.0751 -0.4402
35045SOL    HW1 7142   0.706   9.120   4.138 -1.6791  1.5965 -1.1993
35045SOL    HW2 7143   0.698   8.971   4.116 -0.5563  1.0381  1.7883
35046SOL     OW 7144   2.916   8.341   7.892  0.0338 -0.5145  0.0698
35046SOL    HW1 7145   2.954   8.331   7.979  1.2180 -0.8631 -0.4797
35046SOL    HW2 7146   2.961   8.417   7.854 -0.3347 -0.4790 -0.3119
35047SOL     OW 7147   0.878   7.427  11.048  0.4415  0.6804 -0.4053
35047SOL    HW1 7148   0.849   7.336  11.048 -2.4731  1.4236 -3.2548
35047SOL    HW2 7149   0.796   7.478  11.048  1.9653  3.3781  1.4500
35048SOL     OW 7150   1.853   3.249   6.815 -0.5293  0.1187 -0.1169
35048SOL    HW1 7151   1.883   3.159   6.817  0.7886  0.5506  1.7931
35048SOL    HW2 7152   1.794   3.253   6.739  0.7870 -1.8626 -1.3273
35049SOL     OW 7153   9.946   2.320   1.945  0.1125  0.7779 -0.3702
35049SOL    HW1 7154  10.029   2.323   1.992 -0.4028  1.9640  0.5129
35049SOL    HW2 7155   9.884   2.365   2.002 -1.0604  0.2604 -1.1867
35050SOL     OW 7156   3.886   5.658   2.036  0.0045 -0.2858 -0.1585
35050SOL    HW1 7157   3.801   5.628   2.005  0.0638 -1.0252  0.3696
35050SOL    HW2 7158   3.949   5.595   2.001  0.2059 -0.3885  0.3773
35051SOL     OW 7159   2.603   3.660   2.746 -0.3047 -0.7823 -0.5106
35051SOL    HW1 7160   2.608   3.603   2.670 -4.4662 -2.7213  0.4180
35051SOL    HW2 7161   2.573   3.604   2.817  0.0476  1.6423  1.7335
35052SOL     OW 7162   8.284   4.729   6.249 -0.4129  0.6669  0.4264
35052SOL    HW1 7163   8.212   4.701   6.305 -0.9556  1.0671 -0.0639
35052SOL    HW2 7164   8.346   4.655   6.251  0.3102  1.2627  2.7430
35053SOL     OW 7165   7.470   9.134   1.212  0.6453 -0.0142 -0.1728
35053SOL    HW1 7166   7.516   9.179   1.141  2.4038  3.0936  2.6842
35053SOL    HW2 7167   7.524   9.056   1.229  1.0473  0.0119 -1.2401
35054SOL     OW 7168  10.228   7.518   3.103 -0.7983  0.3345  0.1295
35054SOL    HW1 7169  10.143   7.486   3.074 -1.0085  0.7971  0.2347
35054SOL    HW2 7170  10.263   7.567   3.029 -1.9487  2.7274  1.0555
35055SOL     OW 7171   0.236  10.038   6.066  0.0663 -0.3704 -0.1348
35055SOL    HW1 7172   0.258  10.107   6.128  1.7146  2.4346 -3.5381
35055SOL    HW2 7173   0.305   9.973   6.077 -0.0602 -0.2854  1.3766
35056SOL     OW 7174   3.401  10.085   4.479  0.1138 -0.4729  0.0936
35056SOL    HW1 7175   3.389  10.017   4.545  1.7078 -1.5368 -0.6356
35056SOL    HW2 7176   3.361  10.048   4.400  1.0937 -0.6307 -0.3367
35057SOL     OW 7177   4.717   6.930   1.817 -0.0338 -0.2847  0.1910
35057SOL    HW1 7178   4.804   6.889   1.810  0.0335 -0.0133 -0.8290
35057SOL    HW2 7179   4.669   6.896   1.741 -0.1777  1.0239 -0.3371
35058SOL     OW 7180   7.257   5.810   5.316  0.3982 -0.3951 -0.3826
35058SOL    HW1 7181   7.338   5.841   5.276  0.5682  0.0851  0.3141
35058SOL    HW2 7182   7.200   5.790   5.242  0.2121  1.7763 -0.8799
35059SOL     OW 7183   5.790   5.080   6.844  0.4341 -0.7459  0.2671
35059SOL    HW1 7184   5.796   5.060   6.937  1.6357  0.1181  0.3962
35059SOL    HW2 7185   5.878   5.108   6.819 -0.1247  0.0963 -0.8758
35060SOL     OW 7186   5.618   4.117   8.918 -0.4927 -0.5559  0.2509
35060SOL    HW1 7187   5.595   4.190   8.974 -0.2416 -1.6365  1.8367
35060SOL    HW2 7188   5.660   4.156   8.842  2.4710  0.8235  2.4465
35061SOL     OW 7189   7.740   3.769   2.110  0.4742  0.2710 -0.4413
35061SOL    HW1 7190   7.812   3.807   2.160 -0.9119 -0.3348  2.2188
35061SOL    HW2 7191   7.667   3.830   2.122 -0.1981 -0.4467 -0.7944
35062SOL     OW 7192   2.719   9.637   0.095 -0.1800  0.3690 -0.0817
35062SOL    HW1 7193   2.664   9.667   0.167  1.3864 -1.6325  2.1272
35062SOL    HW2 7194   2.808   9.646   0.128  0.6279 -0.1486 -1.9910
35063SOL     OW 7195   9.758   4.632   5.452  0.5511  0.1170  1.0175
35063SOL    HW1 7196   9.818   4.629   5.377  0.0721  0.6424  0.6023
35063SOL    HW2 7197   9.782   4.713   5.498  1.6385 -0.8021  2.1200
35064SOL     OW 7198   4.400   9.563   3.949  0.1615 -0.1626  0.2987
35064SOL    HW1 7199   4.353   9.479   3.950 -0.6576  0.2582 -0.7759
35064SOL    HW2 7200   4.331   9.629   3.937  1.0249  0.4491 -1.8580
35065SOL     OW 7201  10.841   7.399   5.902  0.0722 -0.6782  0.4696
35065SOL    HW1 7202  10.931   7.431   5.913  0.4192 -1.6397  0.4673
35065SOL    HW2 7203  10.798   7.424   5.984  0.5824 -1.0002  0.8436
35066SOL     OW 7204   2.043  10.198   2.544 -0.5500 -0.3194 -0.0159
35066SOL    HW1 7205   1.997  10.118   2.567  0.5240 -0.7113  0.8816
35066SOL    HW2 7206   2.029  10.257   2.618 -0.6131  0.0031 -0.2790
35067SOL     OW 7207   8.236   8.487   3.531 -0.0750  0.8424 -0.0960
35067SOL    HW1 7208   8.295   8.530   3.592  0.9083 -1.2611  0.5249
35067SOL    HW2 7209   8.280   8.495   3.446  0.9097 -0.2865  0.2826
35068SOL     OW 7210   9.316   0.509   4.176 -0.2708  0.3475 -0.9206
35068SOL    HW1 7211   9.318   0.455   4.097  0.8369  0.8706 -1.2858
35068SOL    HW2 7212   9.256   0.464   4.235  0.7473 -1.3821 -1.1377
35069SOL     OW 7213   2.299   5.566   2.504  0.3908  0.1160 -0.0521
35069SOL    HW1 7214   2.338   5.530   2.424 -0.7462 -0.2225 -0.4719
35069SOL    HW2 7215   2.356   5.534   2.574  0.8868 -0.3374 -0.6425
35070SOL     OW 7216   6.338   5.819   3.585 -0.2789  0.4427  0.4762
35070SOL    HW1 7217   6.341   5.877   3.510 -1.7593 -0.1625 -0.1007
35070SOL    HW2 7218   6.315   5.733   3.549 -2.4255  0.4197  1.6937
35071SOL     OW 7219   1.728   9.939   2.060  0.6051 -0.3485 -0.0184
35071SOL    HW1 7220   1.660  10.002   2.086  3.2724  2.7038  0.1567
35071SOL    HW2 7221   1.751   9.964   1.971  2.2504 -0.5095  0.3266
35072SOL     OW 7222   2.460   4.106   0.684  0.5465 -0.0851  0.4937
35072SOL    HW1 7223   2.401   4.144   0.618 -1.1900 -2.0130  0.8437
35072SOL    HW2 7224   2.517   4.179   0.710 -2.0054  2.0547  0.5008
35073SOL     OW 7225   9.228   0.288   5.347 -0.3944 -0.1040  0.0841
35073SOL    HW1 7226   9.257   0.219   5.287 -0.4496  1.2001 -1.5289
35073SOL    HW2 7227   9.294   0.288   5.416  1.2065  0.0454 -1.3525
35074SOL     OW 7228   9.043   9.605   2.616  0.9615  0.2174 -0.1582
35074SOL    HW1 7229   8.967   9.654   2.585  1.2400  0.4780 -0.4374
35074SOL    HW2 7230   9.081   9.662   2.684  1.3245  0.4181 -0.5310
35075SOL     OW 7231   2.950   7.152   9.591  1.0336 -0.5008 -0.1526
35075SOL    HW1 7232   2.976   7.091   9.660  0.8375  0.7930  1.1133
35075SOL    HW2 7233   3.033   7.188   9.559  1.0703 -0.3357  0.1297
35076SOL     OW 7234   8.629   2.791  10.325 -0.6267  0.5776 -0.6679
35076SOL    HW1 7235   8.618   2.732  10.400 -0.6068  1.5294  0.1017
35076SOL    HW2 7236   8.596   2.741  10.251  2.8422 -1.9640 -0.7956
35077SOL     OW 7237   4.942   4.395   2.092 -0.3444  0.1634 -0.0920
35077SOL    HW1 7238   4.951   4.480   2.135  1.1239 -0.2260  0.4196
35077SOL    HW2 7239   4.967   4.331   2.159 -1.6512 -0.7137 -0.3891
35078SOL     OW 7240   4.847   2.263   8.209 -0.6172 -0.0662 -0.1457
35078SOL    HW1 7241   4.846   2.329   8.140 -2.4478  0.3468  0.2183
35078SOL    HW2 7242   4.755   2.250   8.231 -0.1011  0.8983  3.2117
35079SOL     OW 7243   1.534   8.254   9.152 -0.4916 -0.2330  0.0237
35079SOL    HW1 7244   1.580   8.211   9.224  0.0793  0.9332  0.3785
35079SOL    HW2 7245   1.584   8.334   9.135  0.9970 -1.6670 -3.4766
35080SOL     OW 7246   8.468   2.309   5.527 -0.2069 -0.0840  0.4698
35080SOL    HW1 7247   8.485   2.377   5.462  1.0145  0.0742  0.9304
35080SOL    HW2 7248   8.400   2.347   5.583 -1.1022 -0.1325 -0.5602
35081SOL     OW 7249   6.660   7.329   6.900 -0.0201 -0.5908 -0.2413
35081SOL    HW1 7250   6.631   7.418   6.922 -1.1535 -0.4358 -2.1037
35081SOL    HW2 7251   6.603   7.304   6.827  1.4707 -2.1672 -0.9097
35082SOL     OW 7252   1.549   5.856   7.374  0.5472 -0.1821  0.0664
35082SOL    HW1 7253   1.600   5.776   7.389  0.4095 -0.1244  0.8806
35082SOL    HW2 7254   1.604   5.908   7.315  1.8930  0.2810  1.6437
35083SOL     OW 7255   4.796   9.990   3.665 -0.4584 -0.1066 -0.3585
35083SOL    HW1 7256   4.732  10.061   3.660  0.4050  0.6140 -1.9137
35083SOL    HW2 7257   4.751   9.915   3.627 -1.5207 -0.5610  1.6673
35084SOL     OW 7258   9.213   3.649   8.105 -0.5783  0.3314 -0.4723
35084SOL    HW1 7259   9.261   3.722   8.067 -1.2275  0.2261 -1.5104
35084SOL    HW2 7260   9.264   3.625   8.183 -0.1185  1.5857 -0.3659
35085SOL     OW 7261   7.663   3.056   7.473  0.3243  0.0531 -0.5023
35085SOL    HW1 7262   7.619   3.062   7.388 -0.3837  0.8466 -0.0957
35085SOL    HW2 7263   7.661   2.963   7.494 -0.8675  0.0206 -0.6614
35086SOL     OW 7264   1.081   2.462   0.641  0.1379 -0.2569 -0.2762
35086SOL    HW1 7265   1.103   2.369   0.652 -0.0617 -0.3669 -0.7571
35086SOL    HW2 7266   1.000   2.474   0.691  1.2082  0.1321  1.4336
35087SOL     OW 7267   3.188   7.782   0.121 -0.3698  0.0509  0.1609
35087SOL    HW1 7268   3.164   7.689   0.115 -1.7156  0.4122 -0.4377
35087SOL    HW2 7269   3.120   7.821   0.175 -0.3285  0.8606 -0.3574
35088SOL     OW 7270   3.732   4.293   5.531 -0.3699  0.3537  0.2408
35088SOL    HW1 7271   3.754   4.386   5.535  2.2404 -0.2164  1.9119
35088SOL    HW2 7272   3.763   4.265   5.445 -0.5838  0.9072 -0.0199
35089SOL     OW 7273   7.749   2.195   0.717  0.0742 -0.0975 -0.6981
35089SOL    HW1 7274   7.669   2.240   0.744 -0.5255 -2.8882  3.0330
35089SOL    HW2 7275   7.819   2.258   0.737 -0.9285  0.6628  0.6034
35090SOL     OW 7276   5.213   2.594   1.802 -0.8332 -0.1270 -0.1242
35090SOL    HW1 7277   5.274   2.528   1.832 -0.2847 -0.1072 -1.1590
35090SOL    HW2 7278   5.135   2.582   1.857 -0.9712 -2.0038 -0.6766
35091SOL     OW 7279   6.378   9.326   3.690  0.4326  0.4938 -0.3766
35091SOL    HW1 7280   6.425   9.375   3.757  1.2337  0.4954 -0.9220
35091SOL    HW2 7281   6.363   9.240   3.729  0.1996  0.7468  0.0910
35092SOL     OW 7282   3.367   0.308   9.089  0.1654  0.8666  0.3270
35092SOL    HW1 7283   3.435   0.355   9.136  1.1191  2.0966 -2.0924
35092SOL    HW2 7284   3.412   0.266   9.016 -1.4455  0.5412 -0.5417
35093SOL     OW 7285   2.657   5.271   0.366  0.0898 -0.2509  0.0807
35093SOL    HW1 7286   2.649   5.340   0.431  0.2170 -0.7298  0.6100
35093SOL    HW2 7287   2.683   5.316   0.286  0.1839  0.3076  0.4237
35094SOL     OW 7288   7.354   7.204   8.246 -0.5451 -0.4640 -0.3265
35094SOL    HW1 7289   7.333   7.155   8.326  1.0684  0.4409  0.6966
35094SOL    HW2 7290   7.448   7.189   8.233  0.2589  3.0101  0.5491
35095SOL     OW 7291   1.459   1.121   8.621  0.1182  0.6034  0.2866
35095SOL    HW1 7292   1.423   1.067   8.551  0.9140 -0.2114  0.4900
35095SOL    HW2 7293   1.384   1.143   8.676 -0.5847  1.5437 -0.9790
35096SOL     OW 7294   2.639   7.887   4.500 -0.0546  0.0245  0.1600
35096SOL    HW1 7295   2.675   7.975   4.508 -1.5117  0.7496 -0.8195
35096SOL    HW2 7296   2.555   7.891   4.545 -0.4178 -0.6878 -0.4373
35097SOL     OW 7297   2.068   3.459   3.180 -0.1260  0.3348 -0.2923
35097SOL    HW1 7298   2.128   3.450   3.106 -0.9862 -1.0634 -0.8635
35097SOL    HW2 7299   2.039   3.369   3.198  0.8061  0.4804  2.3915
35098SOL     OW 7300   3.399   9.411   2.199  0.3780 -0.1234 -0.1554
35098SOL    HW1 7301   3.455   9.369   2.264 -1.1609  0.8134  1.9133
35098SOL    HW2 7302   3.350   9.339   2.159  1.9878 -0.8047 -1.0010
35099SOL     OW 7303   8.068  10.940   2.202  0.1121 -0.9535  0.6228
35099SOL    HW1 7304   7.977  10.927   2.174 -0.0684  0.3247  0.5527
35099SOL    HW2 7305   8.063  10.943   2.298  0.2798 -2.1283  0.6893
35100SOL     OW 7306   8.761   6.688  10.925 -0.0729 -0.3834  0.7080
35100SOL    HW1 7307   8.667   6.680  10.915 -0.0266 -1.1849  0.7974
35100SOL    HW2 7308   8.794   6.710  10.838 -0.3753  0.3173  0.7654
35101SOL     OW 7309   1.320   4.270   1.128  0.0435 -0.5719  0.3835
35101SOL    HW1 7310   1.364   4.234   1.205 -1.0906 -0.9973  0.8668
35101SOL    HW2 7311   1.388   4.317   1.080  1.1811 -1.8239  0.7026
35102SOL     OW 7312   5.012  10.750   1.375 -0.0931  0.5384  0.3826
35102SOL    HW1 7313   4.959  10.828   1.360 -0.7830 -0.3321 -2.1116
35102SOL    HW2 7314   4.989  10.691   1.303  1.3751 -1.4550  1.4561
35103SOL     OW 7315  10.902   5.626   9.001 -0.1958  0.4904  0.1210
35103SOL    HW1 7316  10.904   5.666   8.913 -1.9696 -0.2672 -0.2963
35103SOL    HW2 7317  10.895   5.700   9.061 -0.1038  0.9640 -0.4445
35104SOL     OW 7318   3.123   1.866   4.703 -0.2657 -0.3268  0.1796
35104SOL    HW1 7319   3.145   1.794   4.763 -1.2044  0.7649  1.9136
35104SOL    HW2 7320   3.190   1.932   4.719 -0.1380 -0.2854 -0.4900
35105SOL     OW 7321   4.370   5.114   8.254  0.2193  0.2725  0.4181
35105SOL    HW1 7322   4.289   5.121   8.306 -0.0012 -1.1566  0.3020
35105SOL    HW2 7323   4.342   5.131   8.164  0.0800 -0.0533  0.3994
35106SOL     OW 7324  11.091   7.512   5.609  0.2310 -0.4092 -0.1174
35106SOL    HW1 7325  11.185   7.498   5.619  0.0836 -1.2558  0.1345
35106SOL    HW2 7326  11.073   7.590   5.663  0.4691 -1.4054  1.4759
35107SOL     OW 7327   7.183   7.778   9.569 -0.0217  0.3250 -0.1164
35107SOL    HW1 7328   7.208   7.778   9.661 -1.3674  0.7011  0.2706
35107SOL    HW2 7329   7.237   7.709   9.530  0.2072 -0.1850  1.0540
35108SOL     OW 7330   0.953   3.693   1.100  0.1317  0.2052  0.9502
35108SOL    HW1 7331   1.014   3.736   1.040 -0.6004  1.0863  0.8143
35108SOL    HW2 7332   0.944   3.755   1.173 -0.1801 -0.1614  1.2227
35109SOL     OW 7333   8.184   2.101  10.266  0.0745  0.1692 -0.5927
35109SOL    HW1 7334   8.191   2.197  10.273  0.1763  0.2006 -1.1334
35109SOL    HW2 7335   8.240   2.078  10.192  0.8586 -0.4150  0.1654
35110SOL     OW 7336   0.425   2.805   9.655 -0.1028 -0.3094  0.1838
35110SOL    HW1 7337   0.424   2.722   9.702 -0.2219 -0.5364 -0.2096
35110SOL    HW2 7338   0.480   2.789   9.578 -1.9911 -0.7435 -1.1517
35111SOL     OW 7339   6.160   9.054   2.844 -0.5995  0.3544 -0.2952
35111SOL    HW1 7340   6.233   9.091   2.893  0.2602 -2.1727  0.4663
35111SOL    HW2 7341   6.109   9.006   2.909 -0.5318 -1.4390 -1.4929
35112SOL     OW 7342   9.610   7.626   1.229  0.1693  0.3296  0.3878
35112SOL    HW1 7343   9.615   7.566   1.155  1.6390 -0.5458  1.1317
35112SOL    HW2 7344   9.699   7.625   1.266 -1.1988 -2.1197  4.2629
35113SOL     OW 7345   8.056  10.173   9.308 -0.4995  0.5497  0.7888
35113SOL    HW1 7346   8.064  10.269   9.314  1.2207  0.4153  1.1399
35113SOL    HW2 7347   8.123  10.148   9.245 -1.2689 -0.4108  0.3259
35114SOL     OW 7348  10.943   0.206   8.111  0.1880  0.1188 -0.6280
35114SOL    HW1 7349  10.923   0.278   8.051  0.1721  0.5746 -0.0896
35114SOL    HW2 7350  11.027   0.231   8.150  1.3703 -1.2812 -2.1293
35115SOL     OW 7351   7.273   0.234  10.980 -0.0271  0.0578  0.3073
35115SOL    HW1 7352   7.333   0.244  11.055  1.0343 -0.5885 -0.4268
35115SOL    HW2 7353   7.193   0.198  11.018  0.5847 -0.4958  1.1048
35116SOL     OW 7354   3.888   4.350   9.144  0.7626 -0.4855 -0.6950
35116SOL    HW1 7355   3.928   4.343   9.231 -1.0942 -2.2338  0.1068
35116SOL    HW2 7356   3.827   4.423   9.152  1.6250  0.2936 -1.0193
35117SOL     OW 7357   9.397   7.822  10.915 -0.3228 -0.2796 -0.3955
35117SOL    HW1 7358   9.440   7.818  10.830 -0.3697 -1.0362 -0.3920
35117SOL    HW2 7359   9.466   7.844  10.977 -0.7976  3.5277 -0.9765
35118SOL     OW 7360   4.324   6.324   0.508  0.1990 -0.1830  0.4487
35118SOL    HW1 7361   4.317   6.417   0.488 -1.0712 -0.3010  0.2783
35118SOL    HW2 7362   4.346   6.320   0.601 -2.3918  0.2935  1.1635
35119SOL     OW 7363   1.591   0.624   3.909 -0.1607 -0.3768 -0.5084
35119SOL    HW1 7364   1.671   0.626   3.856  0.6335 -0.2757  0.6398
35119SOL    HW2 7365   1.529   0.571   3.858  0.5253 -0.1945 -1.5654
35120SOL     OW 7366   8.924   7.124   2.357  0.0884 -0.3774  0.1592
35120SOL    HW1 7367   8.852   7.082   2.405 -0.0141 -1.2888 -0.7615
35120SOL    HW2 7368   8.895   7.123   2.266 -0.2433  2.3837  0.1524
35121SOL     OW 7369   5.875   5.013   3.400  0.1444 -0.0049  0.6811
35121SOL    HW1 7370   5.797   4.957   3.395  0.0159  0.1475  0.9191
35121SOL    HW2 7371   5.942   4.958   3.438  0.2539 -0.2428  0.1538
35122SOL     OW 7372   3.519   7.725   8.249  0.2591 -0.7696  0.5210
35122SOL    HW1 7373   3.432   7.692   8.228  0.5282 -1.1996  0.0442
35122SOL    HW2 7374   3.528   7.804   8.196  0.6664 -1.4703 -0.5132
35123SOL     OW 7375   9.057   9.950  10.268  0.4839 -0.2242  0.1402
35123SOL    HW1 7376   9.011   9.932  10.186 -0.4492  0.4380  0.5044
35123SOL    HW2 7377   9.149   9.956  10.243  0.3236 -1.0567 -0.6847
35124SOL     OW 7378   7.595   2.485   5.922 -0.1463 -0.2214  0.2677
35124SOL    HW1 7379   7.557   2.398   5.913 -0.3582  0.0070 -1.3099
35124SOL    HW2 7380   7.616   2.512   5.832 -0.3841  1.4712  0.6814
35125SOL     OW 7381   5.883   7.903   0.912  0.2721  0.4991 -0.2958
35125SOL    HW1 7382   5.934   7.960   0.969  1.8102 -2.8165  1.9748
35125SOL    HW2 7383   5.813   7.959   0.878  3.1139  4.3154 -0.4967
35126SOL     OW 7384   3.890   7.855   5.543 -0.5082 -0.6093 -0.4629
35126SOL    HW1 7385   3.950   7.845   5.617 -0.4786 -1.4226 -0.5945
35126SOL    HW2 7386   3.944   7.836   5.466 -0.9699 -1.4967 -0.5710
35127SOL     OW 7387   0.425   0.924   9.234 -0.0195 -0.9590 -0.0731
35127SOL    HW1 7388   0.353   0.983   9.254 -0.3605 -1.8021  1.3517
35127SOL    HW2 7389   0.490   0.979   9.190 -0.7690  0.2197  0.2554
35128SOL     OW 7390  10.609   2.698   5.012 -0.0870  0.2831  0.5880
35128SOL    HW1 7391  10.685   2.649   5.044 -0.8719 -0.5072  1.2816
35128SOL    HW2 7392  10.556   2.713   5.091 -0.5153  1.0782  0.1565
35129SOL     OW 7393  10.233   8.491   8.999 -0.4372 -0.3405  0.0570
35129SOL    HW1 7394  10.160   8.436   8.971 -0.1896 -1.0613  0.7676
35129SOL    HW2 7395  10.195   8.577   9.014 -0.9545 -0.4708 -0.4807
35130SOL     OW 7396   6.103   3.114   6.812 -0.1518 -0.0077  0.4638
35130SOL    HW1 7397   6.189   3.087   6.779 -0.4673  1.1480 -1.4657
35130SOL    HW2 7398   6.041   3.083   6.746 -0.9444  1.4480  0.4890
35131SOL     OW 7399   6.167   7.965   1.162 -0.4876 -0.0450 -0.4562
35131SOL    HW1 7400   6.146   8.026   1.091  0.2091  3.0759  1.8219
35131SOL    HW2 7401   6.101   7.982   1.229  0.5391 -0.8058  0.7879
35132SOL     OW 7402   4.348   8.596   6.300  0.3956  0.4310 -0.2863
35132SOL    HW1 7403   4.268   8.559   6.338  1.2485 -2.5658 -1.1776
35132SOL    HW2 7404   4.363   8.545   6.220  1.9301  2.5386 -1.4537
35133SOL     OW 7405   3.414   8.208   3.074  0.4436  0.6392 -0.3279
35133SOL    HW1 7406   3.437   8.230   2.983  1.4914  0.4376 -0.1295
35133SOL    HW2 7407   3.346   8.270   3.097  0.7438  1.2343 -0.9913
35134SOL     OW 7408   4.237   1.388   6.649  0.0768 -0.3336 -0.3317
35134SOL    HW1 7409   4.148   1.383   6.614  0.6258  0.6752 -1.9561
35134SOL    HW2 7410   4.238   1.471   6.698 -0.3209 -1.1458  1.1331
35135SOL     OW 7411   7.965  10.622   7.466 -0.6375 -0.1368  0.1754
35135SOL    HW1 7412   8.001  10.635   7.379 -0.3886 -1.0391  0.1313
35135SOL    HW2 7413   7.962  10.527   7.477  0.1247 -0.0383  1.4638
35136SOL     OW 7414   4.856   0.628   7.755  0.5697  0.5511 -0.8549
35136SOL    HW1 7415   4.814   0.558   7.805 -0.1422  1.4843 -0.0795
35136SOL    HW2 7416   4.911   0.584   7.692 -1.6136 -0.7734 -1.9509
35137SOL     OW 7417   8.315   7.321   4.308  0.2502 -0.1690  0.1695
35137SOL    HW1 7418   8.324   7.263   4.383  2.1246  2.6952  2.3658
35137SOL    HW2 7419   8.307   7.409   4.345  1.0588  1.3921 -2.9549
35138SOL     OW 7420   6.299   0.104   0.637  0.5715  0.5690  0.2036
35138SOL    HW1 7421   6.301   0.026   0.583  0.8843  0.4212  0.4267
35138SOL    HW2 7422   6.371   0.158   0.606  0.2418  0.8558 -0.0743
35139SOL     OW 7423   5.322   5.645  10.590 -0.4050 -0.9419  0.4689
35139SOL    HW1 7424   5.380   5.597  10.531 -0.2299  1.8244 -1.8198
35139SOL    HW2 7425   5.244   5.665  10.537 -1.6268 -0.9358  2.1548
35140SOL     OW 7426   4.980   6.547   6.774  0.0146  0.0278  0.1230
35140SOL    HW1 7427   5.071   6.556   6.748 -0.1089 -1.3066 -0.9186
35140SOL    HW2 7428   4.957   6.457   6.749 -1.2246 -0.0936  1.5173
35141SOL     OW 7429  10.576   4.833   4.106  0.9452 -0.2818  0.0740
35141SOL    HW1 7430  10.538   4.771   4.044 -0.1795 -1.0504  1.4739
35141SOL    HW2 7431  10.584   4.914   4.056  0.6471 -1.0197 -1.2415
35142SOL     OW 7432  10.643   0.235   9.470  0.1175 -0.2916  0.9029
35142SOL    HW1 7433  10.682   0.218   9.384  0.3200 -0.8088  1.0933
35142SOL    HW2 7434  10.572   0.172   9.478 -0.9378  0.7980  0.4662
35143SOL     OW 7435   7.134   8.523   7.216  0.1336 -0.5239  0.3395
35143SOL    HW1 7436   7.184   8.591   7.261  1.8696 -1.8228  0.4937
35143SOL    HW2 7437   7.200   8.461   7.186 -1.2890 -1.5230 -0.8804
35144SOL     OW 7438   3.816   5.882   0.323 -0.0277  0.3197 -0.5306
35144SOL    HW1 7439   3.823   5.977   0.331  2.0962  0.0987  1.0913
35144SOL    HW2 7440   3.806   5.851   0.413 -1.3367 -0.9883 -1.0919
35145SOL     OW 7441   3.611   9.861   1.378  0.3663 -0.5053 -0.2760
35145SOL    HW1 7442   3.585   9.949   1.349  1.2614  0.8037  2.5693
35145SOL    HW2 7443   3.590   9.805   1.303  2.8471  2.5310 -3.6134
35146SOL     OW 7444   7.815   8.366   5.592  0.6133  0.1891  0.5804
35146SOL    HW1 7445   7.796   8.323   5.675 -3.1345 -1.3985 -0.8381
35146SOL    HW2 7446   7.858   8.298   5.539  0.3210  0.2122  0.3096
35147SOL     OW 7447   5.850   5.575   9.719  0.0055 -0.3342  0.0924
35147SOL    HW1 7448   5.927   5.559   9.774 -1.3179 -3.0739  1.3762
35147SOL    HW2 7449   5.814   5.488   9.703 -1.6113  0.6700 -2.3563
35148SOL     OW 7450  11.090   5.068   9.955 -0.3343 -0.5428  0.1635
35148SOL    HW1 7451  11.150   5.014   9.903 -1.3704 -0.9486 -0.6467
35148SOL    HW2 7452  11.144   5.101  10.026  0.2672 -3.0075  0.9546
35149SOL     OW 7453   9.276   9.787   3.514 -0.3368 -0.5933  0.1834
35149SOL    HW1 7454   9.303   9.753   3.600 -1.0713 -0.2900  0.5418
35149SOL    HW2 7455   9.199   9.735   3.492 -0.7360 -0.0016  0.1680
35150SOL     OW 7456   5.179  10.686   0.213  0.0003 -0.4300  0.0462
35150SOL    HW1 7457   5.184  10.591   0.224  0.8959 -0.3532  0.3955
35150SOL    HW2 7458   5.267  10.718   0.236 -0.2489  0.4693 -0.1918
35151SOL     OW 7459   7.005   6.315   9.758 -0.0704 -0.1303  0.0093
35151SOL    HW1 7460   6.939   6.349   9.818 -0.3419 -1.3191  0.3902
35151SOL    HW2 7461   7.012   6.383   9.690 -0.5887  0.6920  0.7569
35152SOL     OW 7462   2.569   0.939   7.514 -0.0616  0.3285 -0.2395
35152SOL    HW1 7463   2.611   0.867   7.468 -0.3706 -0.5026  0.7485
35152SOL    HW2 7464   2.476   0.930   7.494 -0.3262 -0.6451  1.3245
35153SOL     OW 7465   8.684   3.613   7.378  0.4752  0.7780 -0.3927
35153SOL    HW1 7466   8.631   3.635   7.302 -1.8405 -2.1859  0.1640
35153SOL    HW2 7467   8.741   3.541   7.348  0.1007  0.1136  0.4342
35154SOL     OW 7468   2.004   8.466   4.811  0.1805 -0.4460  0.5907
35154SOL    HW1 7469   1.969   8.553   4.795 -0.8203 -1.0099 -0.3867
35154SOL    HW2 7470   1.976   8.414   4.736  2.3946 -1.1622  0.1720
35155SOL     OW 7471   5.915   1.882   5.789  0.0246 -0.5144 -0.1944
35155SOL    HW1 7472   5.908   1.823   5.714  0.0512 -1.1567  0.3003
35155SOL    HW2 7473   5.987   1.941   5.766  1.4537 -2.0304  0.2142
35156SOL     OW 7474   2.479   5.515   2.733 -0.4372 -0.1401  0.1329
35156SOL    HW1 7475   2.509   5.595   2.777  1.1810 -0.7750  0.2343
35156SOL    HW2 7476   2.542   5.448   2.759  0.4444 -0.6292 -2.8667
35157SOL     OW 7477   8.939  10.254   8.158  0.2165 -1.0851  0.0047
35157SOL    HW1 7478   8.848  10.281   8.171  0.8052  0.8143  0.5603
35157SOL    HW2 7479   8.990  10.329   8.189  1.9427 -1.3502 -1.9777
35158SOL     OW 7480  11.003   7.342   8.182  0.0147  0.7897 -0.3401
35158SOL    HW1 7481  10.919   7.374   8.215  0.0599 -0.6910  1.3391
35158SOL    HW2 7482  11.023   7.399   8.108 -2.2006  1.5177 -0.4428
35159SOL     OW 7483   5.135   8.869  10.614 -0.2174  0.5599  0.3826
35159SOL    HW1 7484   5.050   8.888  10.653 -0.4890  2.0794 -0.8060
35159SOL    HW2 7485   5.150   8.942  10.553  1.7544  0.1235  0.2625
35160SOL     OW 7486   2.218   8.698   5.605  0.1159 -0.2846  0.1137
35160SOL    HW1 7487   2.313   8.711   5.609  0.1842 -0.3663 -0.9325
35160SOL    HW2 7488   2.205   8.641   5.530 -0.8598  0.7580 -0.5444
35161SOL     OW 7489   6.700   1.863   0.059 -0.0350  0.4926 -0.5550
35161SOL    HW1 7490   6.684   1.818   0.141 -2.2420  0.2240 -1.0850
35161SOL    HW2 7491   6.740   1.946   0.085 -1.3280  0.7139  0.8401
35162SOL     OW 7492  10.843   7.488   9.249  0.5882 -0.1441  0.0993
35162SOL    HW1 7493  10.776   7.439   9.297 -0.3001  0.9341 -0.0171
35162SOL    HW2 7494  10.818   7.482   9.157  0.5180  0.4479  0.0752
35163SOL     OW 7495   0.010   3.093   6.711 -0.3097  0.0275  0.0102
35163SOL    HW1 7496  -0.012   3.000   6.725  0.2409 -0.5511 -2.4852
35163SOL    HW2 7497   0.103   3.093   6.689 -0.3148  1.1591 -0.0578
35164SOL     OW 7498   8.039   7.022   0.501 -0.0579  0.1956  0.5317
35164SOL    HW1 7499   8.033   6.926   0.494 -0.6037  0.3057 -1.1264
35164SOL    HW2 7500   7.976   7.054   0.436  1.5712  1.6576 -0.4172
35165SOL     OW 7501   5.507   1.591   4.633  0.3512  0.3343  0.6050
35165SOL    HW1 7502   5.455   1.560   4.559  1.5529 -2.0461  0.6716
35165SOL    HW2 7503   5.592   1.613   4.596  0.8841 -0.6502  1.1832
35166SOL     OW 7504   2.041   2.594   3.064 -0.2176  0.8926  0.3543
35166SOL    HW1 7505   1.984   2.669   3.083  0.8711  1.5357  1.2147
35166SOL    HW2 7506   2.092   2.582   3.145  1.4080  0.8271 -0.6393
35167SOL     OW 7507  10.514   7.857   2.727 -0.2575  0.2273 -0.2863
35167SOL    HW1 7508  10.579   7.809   2.779 -0.6256 -0.0149 -0.0480
35167SOL    HW2 7509  10.515   7.813   2.642 -0.4844 -0.1086 -0.1172
35168SOL     OW 7510   2.439   7.620   1.731 -0.6092  0.8142 -0.2761
35168SOL    HW1 7511   2.403   7.578   1.809  1.4466  0.8517  0.7651
35168SOL    HW2 7512   2.467   7.548   1.675  1.7395  0.7122  0.9383
35169SOL     OW 7513   4.360   4.549   8.399 -0.0630  0.2960  0.3476
35169SOL    HW1 7514   4.418   4.493   8.348 -1.6769  0.3932 -1.7095
35169SOL    HW2 7515   4.275   4.507   8.394 -0.8156  1.7021  0.7441
35170SOL     OW 7516   0.391   5.800   7.154 -0.0068  0.7962  0.7206
35170SOL    HW1 7517   0.296   5.797   7.163 -0.1092  0.0915 -0.3472
35170SOL    HW2 7518   0.406   5.841   7.069  0.7443  3.1572  1.9110
35171SOL     OW 7519   5.876   6.282   3.892  0.6208  0.2556  0.3920
35171SOL    HW1 7520   5.957   6.315   3.931 -0.0724  3.0803 -0.3224
35171SOL    HW2 7521   5.876   6.318   3.804 -0.9804 -0.4540  0.0740
35172SOL     OW 7522   3.090   7.969  10.710 -0.3455  0.2717  0.4098
35172SOL    HW1 7523   3.089   7.922  10.793  0.8608 -0.2579  0.1382
35172SOL    HW2 7524   3.095   7.900  10.643  3.6494  0.7166  0.0488
35173SOL     OW 7525   0.062   8.813   2.295  0.4840 -0.2880 -0.1043
35173SOL    HW1 7526   0.081   8.781   2.383  0.2900 -0.9602 -0.3000
35173SOL    HW2 7527   0.109   8.896   2.289 -0.8500  0.6280  1.2411
35174SOL     OW 7528   1.876   8.180   9.581  0.6548  0.0074 -0.9428
35174SOL    HW1 7529   1.956   8.146   9.620  0.2919 -0.5763 -0.7015
35174SOL    HW2 7530   1.805   8.133   9.626  0.1311  1.2073 -0.4558
35175SOL     OW 7531   7.191   1.149   5.240  0.4127  0.2195 -0.1926
35175SOL    HW1 7532   7.277   1.190   5.244  0.7997 -0.6196  0.5697
35175SOL    HW2 7533   7.133   1.207   5.290  0.7858  0.2221  0.2432
35176SOL     OW 7534  10.883  10.270   2.773  0.3054  0.2993 -0.5687
35176SOL    HW1 7535  10.800  10.262   2.820  0.8703 -1.2435  0.2401
35176SOL    HW2 7536  10.946  10.222   2.827  0.8781 -2.1673 -3.1835
35177SOL     OW 7537   1.319   7.849   9.020  0.0755 -0.2980  0.1886
35177SOL    HW1 7538   1.405   7.887   9.003 -0.1119 -0.2542 -0.7346
35177SOL    HW2 7539   1.263   7.925   9.037  0.2526 -0.3392  1.0135
35178SOL     OW 7540   7.242   0.002   7.295  0.7837  0.5328  0.5108
35178SOL    HW1 7541   7.198   0.066   7.240 -0.7655  0.7809  1.9311
35178SOL    HW2 7542   7.201  -0.082   7.272  3.8704 -0.3464 -2.4508
35179SOL     OW 7543   0.745   8.772   6.825  0.3253  0.3626 -0.5646
35179SOL    HW1 7544   0.700   8.697   6.864 -1.5518  1.6083 -0.1933
35179SOL    HW2 7545   0.777   8.739   6.741 -3.4707 -0.0838 -2.0533
35180SOL     OW 7546   9.462   3.476   2.385  0.6554  0.1704 -0.6327
35180SOL    HW1 7547   9.543   3.527   2.396 -1.0828  2.9166  0.7956
35180SOL    HW2 7548   9.433   3.460   2.475 -0.7151 -0.1448 -1.1224
35181SOL     OW 7549   9.773   7.200  11.039 -0.9005  0.0635 -0.4905
35181SOL    HW1 7550   9.824   7.133  11.084 -1.7354  1.0326  2.0296
35181SOL    HW2 7551   9.838   7.266  11.013 -0.2165 -1.1568 -2.1329
35182SOL     OW 7552  10.528   4.591   0.765  1.3423 -0.4178  0.4354
35182SOL    HW1 7553  10.434   4.598   0.780  1.3826  1.9418 -0.0155
35182SOL    HW2 7554  10.538   4.518   0.705 -0.2821 -0.2326 -0.0940
35183SOL     OW 7555   7.443  10.622  10.455  0.3092 -0.7987  0.0672
35183SOL    HW1 7556   7.348  10.606  10.459  0.3106 -0.7969  0.1225
35183SOL    HW2 7557   7.469  10.628  10.547 -0.0474  1.5503  0.0938
35184SOL     OW 7558  10.892   3.008   8.235 -0.2047 -0.4188  0.0668
35184SOL    HW1 7559  10.965   3.068   8.225 -0.5640  0.1192  0.6293
35184SOL    HW2 7560  10.913   2.935   8.177  0.5296 -0.0369 -0.1565
35185SOL     OW 7561   6.494  10.767   0.506 -0.3353  0.2029  0.3686
35185SOL    HW1 7562   6.410  10.747   0.546  0.3911 -0.1277  1.8042
35185SOL    HW2 7563   6.557  10.716   0.556  0.8228  1.1014 -0.1198
35186SOL     OW 7564   4.535   3.365  10.044  0.2207 -0.0963 -0.1512
35186SOL    HW1 7565   4.526   3.272  10.021  2.4467  0.0225 -1.8638
35186SOL    HW2 7566   4.619   3.371  10.089  0.0588  1.0765  0.0189
35187SOL     OW 7567   3.923   3.849   3.656  0.0752 -0.3557 -0.0255
35187SOL    HW1 7568   3.912   3.912   3.585 -0.4455 -1.8905 -1.3636
35187SOL    HW2 7569   3.842   3.799   3.657  0.6871 -1.3811  0.6065
35188SOL     OW 7570   6.987   9.514   4.860  0.2180  0.6299 -0.4344
35188SOL    HW1 7571   6.925   9.475   4.921  2.1804 -2.3821 -0.1730
35188SOL    HW2 7572   7.028   9.585   4.909  0.1106 -0.2264  0.9297
35189SOL     OW 7573   6.644  10.183   0.075  0.2059 -0.1431 -0.9236
35189SOL    HW1 7574   6.597  10.179   0.158 -0.1484  0.3022 -1.0949
35189SOL    HW2 7575   6.711  10.115   0.082  0.2969  0.0090 -0.2052
35190SOL     OW 7576  10.660   5.675   4.081  0.0685  0.4972  0.0579
35190SOL    HW1 7577  10.615   5.725   4.149 -0.3290 -0.2805  0.3835
35190SOL    HW2 7578  10.700   5.601   4.128 -0.6040 -0.3082 -0.6061
35191SOL     OW 7579   1.560  10.746   6.097 -0.2409  0.8527 -0.0516
35191SOL    HW1 7580   1.627  10.725   6.162 -1.6468 -0.2573  1.0975
35191SOL    HW2 7581   1.609  10.783   6.023  1.5454  0.7689  1.0378
35192SOL     OW 7582   6.368  10.412  10.344 -0.1021  0.5652  0.2378
35192SOL    HW1 7583   6.347  10.352  10.272 -1.8700 -0.2967  1.3759
35192SOL    HW2 7584   6.404  10.355  10.413  0.9259  1.2728  0.3105
35193SOL     OW 7585   3.204   0.657   5.579 -0.1748 -0.1553 -0.5691
35193SOL    HW1 7586   3.202   0.737   5.631 -0.2490 -1.5004  1.5916
35193SOL    HW2 7587   3.296   0.633   5.575 -0.1101  0.1998 -1.5337
35194SOL     OW 7588   2.017   9.213   6.892  0.4008  0.3834  0.5694
35194SOL    HW1 7589   2.051   9.157   6.961  1.2252  1.6690  1.2597
35194SOL    HW2 7590   1.923   9.196   6.890  0.5657 -0.6218  1.1024
35195SOL     OW 7591   6.558   2.791   7.081  0.1202 -0.2056  0.2781
35195SOL    HW1 7592   6.509   2.780   7.000  0.1216 -1.1977  0.3930
35195SOL    HW2 7593   6.498   2.761   7.150  1.2658 -2.6775  0.3095
35196SOL     OW 7594   3.627   4.335   7.173  0.4029  0.1860  0.4409
35196SOL    HW1 7595   3.584   4.268   7.120  0.6617  0.5140 -0.1948
35196SOL    HW2 7596   3.721   4.320   7.160  0.4645  0.4850  0.5318
35197SOL     OW 7597   1.619   6.920  10.155  0.6157  0.1360  0.0765
35197SOL    HW1 7598   1.659   6.833  10.158  0.4278  0.0767  0.8105
35197SOL    HW2 7599   1.677   6.970  10.097 -0.7532 -1.2178 -2.6460
35198SOL     OW 7600   8.745  10.138   6.322  0.7958 -0.2835  0.1089
35198SOL    HW1 7601   8.684  10.211   6.326 -0.0359 -0.9944  0.8630
35198SOL    HW2 7602   8.803  10.159   6.248  0.8859  1.3443  0.6150
35199SOL     OW 7603   3.914   9.140   1.111 -0.1829 -0.1757  0.5404
35199SOL    HW1 7604   3.861   9.177   1.041 -0.2565 -0.3236  0.5189
35199SOL    HW2 7605   3.939   9.215   1.164  0.2886  0.0089  0.0775
35200SOL     OW 7606   9.894   3.846   8.641  0.6090 -0.1805  0.6669
35200SOL    HW1 7607   9.922   3.796   8.565 -1.9515  0.2691 -0.6496
35200SOL    HW2 7608   9.890   3.937   8.611 -1.4786 -0.1321  0.9502
35201SOL     OW 7609   6.396  10.798   0.084 -0.6572  0.5781  0.2604
35201SOL    HW1 7610   6.342  10.786   0.006 -2.4266  1.2686  1.3310
35201SOL    HW2 7611   6.430  10.887   0.077 -0.7789  0.6239  0.2635
35202SOL     OW 7612   3.593   5.043   2.806  0.6901 -0.2635 -0.2430
35202SOL    HW1 7613   3.613   5.078   2.719  0.2594 -1.0283 -0.6604
35202SOL    HW2 7614   3.535   4.968   2.789  0.5954 -0.4160  0.7029
35203SOL     OW 7615   8.553   4.066   2.529  0.5219  0.0527 -0.2237
35203SOL    HW1 7616   8.582   3.979   2.502 -0.2916 -0.3501  0.1536
35203SOL    HW2 7617   8.620   4.126   2.497  1.6195 -0.8177  0.4113
35204SOL     OW 7618   3.627   9.490   4.321 -0.1698 -0.0206 -0.7544
35204SOL    HW1 7619   3.557   9.535   4.273 -3.4976 -0.4554  3.1201
35204SOL    HW2 7620   3.664   9.558   4.378 -1.3195 -0.8614  1.0860
35205SOL     OW 7621   9.470   0.489   9.136  0.1093  0.3453  0.4696
35205SOL    HW1 7622   9.416   0.542   9.077  0.2257 -0.3066 -0.2490
35205SOL    HW2 7623   9.434   0.506   9.223  1.0349  2.6713  0.4657
35206SOL     OW 7624   7.323   6.313   5.622  0.3283  0.6663 -0.0807
35206SOL    HW1 7625   7.390   6.336   5.686  0.1891 -0.3455  0.4526
35206SOL    HW2 7626   7.254   6.270   5.674 -0.8517  1.8679 -0.5768
35207SOL     OW 7627   9.429   1.420  10.005 -0.2999 -0.0785 -0.6726
35207SOL    HW1 7628   9.392   1.365  10.074  1.5187  0.0406  0.4795
35207SOL    HW2 7629   9.358   1.480   9.981 -1.8872 -1.9870 -1.0033
35208SOL     OW 7630   9.748   7.155   3.875 -0.0225 -0.3556 -0.2667
35208SOL    HW1 7631   9.728   7.063   3.860  0.1453 -0.6574  1.2046
35208SOL    HW2 7632   9.665   7.200   3.861 -0.8946 -1.1231  2.0049
35209SOL     OW 7633   3.080   3.418   0.185 -0.7610  0.8653  0.2025
35209SOL    HW1 7634   3.026   3.470   0.244 -2.3575  1.1281 -1.3784
35209SOL    HW2 7635   3.039   3.431   0.099  1.2851  0.2908 -0.9110
35210SOL     OW 7636   1.567  10.995   9.288  0.0569  0.1524  0.5696
35210SOL    HW1 7637   1.530  11.080   9.265  1.2554  0.9328  1.4695
35210SOL    HW2 7638   1.535  10.936   9.219 -2.0209  0.9751  0.7415
35211SOL     OW 7639  10.467  10.018   2.893  0.3675 -0.5712 -0.1327
35211SOL    HW1 7640  10.432  10.024   2.804 -0.1841  0.8410  0.1704
35211SOL    HW2 7641  10.562  10.011   2.880  0.3346  0.0964 -0.8315
35212SOL     OW 7642   5.745  10.611   4.423  0.2408  0.2261 -0.0315
35212SOL    HW1 7643   5.784  10.685   4.376 -0.8560  2.8472  2.8279
35212SOL    HW2 7644   5.668  10.587   4.371  1.3408  0.1328 -1.6928
35213SOL     OW 7645   7.490   1.338   9.377 -0.5521 -0.3965  0.1313
35213SOL    HW1 7646   7.558   1.380   9.324  1.7965 -0.9444  2.4952
35213SOL    HW2 7647   7.505   1.244   9.365  2.1040 -0.6932  3.7861
35214SOL     OW 7648   0.276  10.074   0.725 -1.0605 -0.6720 -0.0971
35214SOL    HW1 7649   0.272  10.033   0.639 -1.7764  0.5083 -0.6547
35214SOL    HW2 7650   0.359  10.044   0.763 -0.0284 -0.0472 -1.7827
35215SOL     OW 7651   8.610   1.229   6.188 -0.0821 -0.3461 -0.1912
35215SOL    HW1 7652   8.533   1.254   6.137 -1.6647 -0.9797  1.7622
35215SOL    HW2 7653   8.626   1.304   6.245 -1.6415 -1.6126  2.0402
35216SOL     OW 7654   7.352   7.936   0.777 -0.2539  0.7562 -0.5076
35216SOL    HW1 7655   7.311   7.984   0.849  0.5411  1.4684 -0.5079
35216SOL    HW2 7656   7.291   7.865   0.757 -2.0875  2.4928 -1.3514
35217SOL     OW 7657   5.968   0.785  10.953 -0.6027 -0.0166 -0.3896
35217SOL    HW1 7658   5.954   0.785  10.858 -0.5775 -0.6823 -0.3931
35217SOL    HW2 7659   5.983   0.877  10.974  0.2075  0.0431 -1.1495
35218SOL     OW 7660   1.265   0.385   7.852  0.1388  0.1554 -0.4991
35218SOL    HW1 7661   1.315   0.445   7.908 -0.7827  0.8470 -0.3941
35218SOL    HW2 7662   1.325   0.312   7.836  1.3308  1.1266 -0.6879
35219SOL     OW 7663   9.272   8.754   7.786 -0.1994 -0.7575 -0.0432
35219SOL    HW1 7664   9.193   8.703   7.804 -2.4193  2.0168 -1.2215
35219SOL    HW2 7665   9.247   8.815   7.717  3.0138  0.2963 -0.4739
35220SOL     OW 7666   8.127   4.817   7.496  0.0601  0.1736  0.3076
35220SOL    HW1 7667   8.117   4.817   7.401  0.3306 -0.7625  0.2704
35220SOL    HW2 7668   8.187   4.745   7.514 -0.0724  0.2734  1.2035
35221SOL     OW 7669  10.690   1.992   1.767 -0.0065  0.7900 -0.9422
35221SOL    HW1 7670  10.705   1.918   1.825  3.2390  2.7686  1.0125
35221SOL    HW2 7671  10.595   2.005   1.769 -0.2778 -0.9308  1.7389
35222SOL     OW 7672   3.857   6.421   4.999 -0.0683  0.1248 -0.4315
35222SOL    HW1 7673   3.896   6.341   5.033 -1.4453 -0.4144 -0.0711
35222SOL    HW2 7674   3.881   6.488   5.063 -2.2566 -0.7919  1.5186
35223SOL     OW 7675   2.031   5.613   2.658 -0.1758 -0.1327 -0.0661
35223SOL    HW1 7676   2.071   5.579   2.739 -0.8458  0.5858  0.5812
35223SOL    HW2 7677   1.951   5.656   2.687 -0.8056 -0.4965 -1.2147
35224SOL     OW 7678   3.214   1.592   1.133 -0.1862 -0.7082 -0.1199
35224SOL    HW1 7679   3.255   1.679   1.134  0.3975 -0.9911  0.4823
35224SOL    HW2 7680   3.201   1.574   1.040  0.8459 -0.5168 -0.3100
35225SOL     OW 7681   1.786   8.058   1.811 -0.1719  0.1770  0.1167
35225SOL    HW1 7682   1.851   8.035   1.744 -0.0160 -0.3223  0.4362
35225SOL    HW2 7683   1.770   8.151   1.796  0.6291  0.3149  0.0340
35226SOL     OW 7684   9.006   0.048   9.465  0.0073 -0.6713 -0.1295
35226SOL    HW1 7685   8.959   0.067   9.546 -0.4846  3.0083 -1.0720
35226SOL    HW2 7686   9.009   0.132   9.419  3.1781 -1.8439 -2.4491
35227SOL     OW 7687   5.948   7.641   6.579  0.4894 -0.3595  0.3121
35227SOL    HW1 7688   5.971   7.705   6.646  1.1144 -0.3472  0.0953
35227SOL    HW2 7689   6.021   7.644   6.517 -0.6662  0.5837 -1.0898
35228SOL     OW 7690   4.642   5.889  10.135  0.3534 -0.5225  0.0529
35228SOL    HW1 7691   4.609   5.940  10.209  0.6864 -0.9473  0.5007
35228SOL    HW2 7692   4.601   5.928  10.058  0.4599  0.3000  0.4061
35229SOL     OW 7693   7.093   7.994  10.109 -0.3727 -0.5764  0.0049
35229SOL    HW1 7694   7.142   7.943  10.044  1.4541 -1.2065  1.7524
35229SOL    HW2 7695   7.055   8.066  10.060 -0.8078 -2.1422 -2.0950
35230SOL     OW 7696   6.166   4.062   2.108 -0.3509 -0.2013  0.1624
35230SOL    HW1 7697   6.162   3.985   2.050 -0.9147 -0.4004  0.4519
35230SOL    HW2 7698   6.154   4.026   2.196  0.2967  0.1226  0.3865
35231SOL     OW 7699   3.361  10.490   2.000 -0.2462  0.2542 -0.4597
35231SOL    HW1 7700   3.449  10.525   1.980 -1.3888  2.9521 -1.3141
35231SOL    HW2 7701   3.325  10.468   1.914 -0.8219  0.3122 -0.2341
35232SOL     OW 7702   8.498   6.778   7.442 -0.2888  0.1303 -0.0417
35232SOL    HW1 7703   8.552   6.847   7.481 -1.8004  0.9059  0.7745
35232SOL    HW2 7704   8.434   6.757   7.510  1.1351 -3.3092  0.4040
35233SOL     OW 7705   3.093   0.138  10.651  0.4258  0.5727  0.0233
35233SOL    HW1 7706   3.113   0.230  10.630  0.2071  0.9520  1.3889
35233SOL    HW2 7707   3.016   0.143  10.708 -0.8394 -0.5931 -1.4777
35234SOL     OW 7708   4.606   1.618   9.727 -0.5511  0.0615  0.3667
35234SOL    HW1 7709   4.575   1.567   9.802  1.6989  0.4565  1.6679
35234SOL    HW2 7710   4.684   1.571   9.697 -0.2465  1.0410 -0.4119
35235SOL     OW 7711   6.568   7.859   0.974  0.0858  0.4773  0.2249
35235SOL    HW1 7712   6.540   7.913   1.048 -0.2396  2.9893 -1.6154
35235SOL    HW2 7713   6.643   7.905   0.938  2.9361 -2.8539  1.3022
35236SOL     OW 7714   8.989   1.278   8.862  0.8082  0.8290  0.4088
35236SOL    HW1 7715   8.959   1.295   8.951  2.2926  1.7534  0.7741
35236SOL    HW2 7716   9.075   1.236   8.873  0.1975 -0.7760 -0.5891
35237SOL     OW 7717   2.830   3.338   1.061  0.3380 -0.1270 -0.6407
35237SOL    HW1 7718   2.768   3.409   1.042  0.2570  0.2534  0.9470
35237SOL    HW2 7719   2.780   3.258   1.044 -0.9310  0.1553  1.3988
35238SOL     OW 7720   0.233   3.188   2.108  0.2223  0.0346  0.0656
35238SOL    HW1 7721   0.306   3.203   2.048 -0.5272  0.9568 -0.6422
35238SOL    HW2 7722   0.226   3.269   2.158 -0.7258  0.2230 -0.3428
35239SOL     OW 7723   1.265   8.659   2.307  0.8312 -0.1020  0.8216
35239SOL    HW1 7724   1.215   8.579   2.320  2.7431 -1.2069  1.8013
35239SOL    HW2 7725   1.282   8.692   2.395  0.4440  1.1677  0.4529
35240SOL     OW 7726  10.249   6.918   5.458  0.0392 -0.1711  0.0445
35240SOL    HW1 7727  10.338   6.929   5.492  0.4043  0.2663 -1.0005
35240SOL    HW2 7728  10.261   6.868   5.377 -0.8496 -1.5661  0.7378
35241SOL     OW 7729   3.643   3.669   3.873  0.2963  0.5802 -0.5390
35241SOL    HW1 7730   3.689   3.630   3.947 -0.4857  0.9558  0.1539
35241SOL    HW2 7731   3.631   3.596   3.812  1.6504  0.4392 -0.6746
35242SOL     OW 7732   4.270   7.291   6.804  0.0113  0.5472 -0.0466
35242SOL    HW1 7733   4.318   7.362   6.760 -0.3074  0.3801 -0.6827
35242SOL    HW2 7734   4.313   7.282   6.889  0.5732  0.9579 -0.2797
35243SOL     OW 7735   5.071   1.312   8.372 -0.1528  0.4354 -0.5541
35243SOL    HW1 7736   5.137   1.263   8.323 -0.5562  0.5371 -1.2113
35243SOL    HW2 7737   5.051   1.387   8.317 -1.7376 -0.2452 -0.9768
35244SOL     OW 7738   6.358   4.060   5.988  0.2174  0.1559  0.1095
35244SOL    HW1 7739   6.284   4.106   5.949 -1.2263 -1.9037  0.2660
35244SOL    HW2 7740   6.417   4.044   5.914 -0.8742 -0.7010 -0.6049
35245SOL     OW 7741   9.487   9.435   6.230 -0.3400 -0.0707 -0.4913
35245SOL    HW1 7742   9.420   9.369   6.249 -0.7593 -0.1833 -2.1737
35245SOL    HW2 7743   9.569   9.395   6.259 -0.7751 -0.6932 -0.0858
35246SOL     OW 7744   1.760   2.712   8.726  0.3327 -0.1217  0.1462
35246SOL    HW1 7745   1.778   2.623   8.753  0.3071 -0.8497 -1.9944
35246SOL    HW2 7746   1.837   2.762   8.753 -0.1794 -0.4762  2.4596
35247SOL     OW 7747   3.484   1.089   0.046  0.4239 -0.3556 -0.7561
35247SOL    HW1 7748   3.530   1.100   0.130 -0.5377 -2.8885  0.2150
35247SOL    HW2 7749   3.391   1.093   0.070  0.1358 -1.7805 -1.5667
35248SOL     OW 7750   4.087   5.159   7.897 -0.0206  0.1635 -0.4017
35248SOL    HW1 7751   4.090   5.199   7.811 -2.3739  0.8681 -0.2043
35248SOL    HW2 7752   4.176   5.171   7.932  0.7560  0.5418 -2.3752
35249SOL     OW 7753   8.196   1.705  10.094 -0.1385 -0.6712 -0.0920
35249SOL    HW1 7754   8.271   1.763  10.084 -0.8118 -0.0511 -2.1320
35249SOL    HW2 7755   8.123   1.754  10.057 -1.4499 -1.4913  1.3252
35250SOL     OW 7756   2.976   0.116   5.567 -0.5083 -0.5328  0.2436
35250SOL    HW1 7757   3.049   0.172   5.540  1.1281 -2.1204  1.1748
35250SOL    HW2 7758   2.936   0.089   5.485  0.0422  0.2242 -0.2993
35251SOL     OW 7759   9.562   6.008   0.994  0.4313 -0.4283 -0.0684
35251SOL    HW1 7760   9.556   5.984   0.901 -0.2161 -1.2244  0.1682
35251SOL    HW2 7761   9.473   6.034   1.018  0.6384 -0.0286  0.2871
35252SOL     OW 7762   1.690   5.117   9.135 -0.3256  0.5605  0.1009
35252SOL    HW1 7763   1.741   5.133   9.056  0.3760  1.8829  0.7876
35252SOL    HW2 7764   1.645   5.199   9.152  1.2177  1.0685  2.2147
35253SOL     OW 7765   5.767   2.689   6.580  0.1761  0.5296 -0.4524
35253SOL    HW1 7766   5.698   2.640   6.624 -0.0482  2.0832  1.0225
35253SOL    HW2 7767   5.726   2.723   6.500 -1.1483  2.2706  0.8883
35254SOL     OW 7768   7.770   8.981   5.966 -0.0289 -0.8056  0.3693
35254SOL    HW1 7769   7.727   8.918   6.024 -0.0730 -0.8047  0.3377
35254SOL    HW2 7770   7.862   8.978   5.992 -0.2158 -0.0399  1.1257
35255SOL     OW 7771   9.917   7.900   3.210 -0.0791  0.1509 -0.2899
35255SOL    HW1 7772   9.997   7.928   3.165 -0.5145 -0.4616 -1.4860
35255SOL    HW2 7773   9.863   7.978   3.214 -0.3247  0.0576 -1.4996
35256SOL     OW 7774   0.506   0.019   0.733  1.1616 -0.8508 -0.1754
35256SOL    HW1 7775   0.425   0.005   0.782  0.0461 -5.4044 -2.6804
35256SOL    HW2 7776   0.476   0.058   0.650  2.5632  3.2673  0.9907
35257SOL     OW 7777   2.234   2.164   8.027 -0.0415 -0.1951  0.0749
35257SOL    HW1 7778   2.305   2.223   8.000 -2.1471  1.8771 -1.3923
35257SOL    HW2 7779   2.201   2.202   8.108 -2.0781  1.4842 -1.3993
35258SOL     OW 7780   2.760   5.810   2.798 -0.7751  0.2119  0.2550
35258SOL    HW1 7781   2.668   5.788   2.812 -0.9608  1.5066  1.2741
35258SOL    HW2 7782   2.799   5.807   2.885  0.5807 -1.9802 -0.3497
35259SOL     OW 7783  10.631  10.852   0.108  0.3825  0.1267 -0.0869
35259SOL    HW1 7784  10.629  10.920   0.175 -2.4049  1.4309 -1.3399
35259SOL    HW2 7785  10.702  10.879   0.049 -0.7232  2.1040 -0.6085
35260SOL     OW 7786   0.299   9.816   7.733 -0.1965  0.3023  0.0639
35260SOL    HW1 7787   0.390   9.790   7.720 -0.6833 -2.0291  0.9874
35260SOL    HW2 7788   0.267   9.760   7.803 -2.6918  0.2087 -1.0459
35261SOL     OW 7789   6.537   3.275   1.224  0.5597 -0.0070 -0.1499
35261SOL    HW1 7790   6.588   3.355   1.235  0.2429  0.3509 -1.1595
35261SOL    HW2 7791   6.472   3.278   1.294  1.5537 -0.1912  0.8012
35262SOL     OW 7792   4.777   6.344   9.152  0.4421 -0.2261 -0.7510
35262SOL    HW1 7793   4.763   6.416   9.091  1.1676 -0.9578 -1.8237
35262SOL    HW2 7794   4.827   6.383   9.224  0.7477  0.3736 -1.2759
35263SOL     OW 7795   0.637   3.975  10.691  0.3532 -0.3438  0.0283
35263SOL    HW1 7796   0.683   4.011  10.766  1.9581 -1.2426 -0.4900
35263SOL    HW2 7797   0.660   4.033  10.619  1.1103 -1.0792 -0.3364
35264SOL     OW 7798   6.511   0.987   2.725 -0.1322  1.1142 -0.3207
35264SOL    HW1 7799   6.520   1.071   2.770  1.2682  2.0062 -2.1248
35264SOL    HW2 7800   6.600   0.964   2.700 -0.3037 -1.6339  1.2669
35265SOL     OW 7801   1.335   9.773  10.483  0.0860 -0.7373 -0.2022
35265SOL    HW1 7802   1.290   9.693  10.509 -0.1211 -0.7888 -0.7167
35265SOL    HW2 7803   1.274   9.843  10.506 -1.4342 -0.9213 -3.1971
35266SOL     OW 7804   8.983   9.804   9.477 -0.1372  0.2936 -0.4285
35266SOL    HW1 7805   9.017   9.868   9.539  1.1206  0.1532 -0.9353
35266SOL    HW2 7806   8.987   9.848   9.392 -1.5909  0.3958 -0.4668
35267SOL     OW 7807   7.078   8.879  10.969  0.0327 -0.1895 -0.3963
35267SOL    HW1 7808   7.078   8.789  11.001  2.0902 -0.3573 -0.7579
35267SOL    HW2 7809   7.154   8.885  10.911  1.5262  2.4169  1.6008
35268SOL     OW 7810   9.087   5.286   3.855 -0.2294  0.5230  0.7526
35268SOL    HW1 7811   9.031   5.364   3.848  0.1104  0.8198  1.2816
35268SOL    HW2 7812   9.068   5.250   3.942 -0.2991  0.0763  0.5561
35269SOL     OW 7813   3.341   2.876   1.844 -0.1980  0.5527  0.3675
35269SOL    HW1 7814   3.252   2.855   1.871 -0.7495  0.8509 -1.1492
35269SOL    HW2 7815   3.338   2.969   1.821  0.0285  0.1395 -1.4504
35270SOL     OW 7816   9.816  10.324   4.752 -0.4941  0.1211 -0.2923
35270SOL    HW1 7817   9.849  10.275   4.677  3.1299  2.0915 -0.1918
35270SOL    HW2 7818   9.757  10.389   4.713  0.2700  0.2457 -1.2862
35271SOL     OW 7819   2.534  10.986   0.296  0.3526  0.0862  0.0858
35271SOL    HW1 7820   2.573  11.054   0.350 -2.1045  0.1272  1.9634
35271SOL    HW2 7821   2.532  11.023   0.208  2.6348  0.8127  0.2643
35272SOL     OW 7822   3.372   9.891   7.424 -0.5629 -0.0204 -0.8207
35272SOL    HW1 7823   3.464   9.866   7.432  0.2772  2.6979 -1.0250
35272SOL    HW2 7824   3.327   9.840   7.491  1.0736 -1.4051 -0.7104
35273SOL     OW 7825   0.557   7.147   0.510  0.2591 -0.5252  0.0044
35273SOL    HW1 7826   0.529   7.234   0.538  0.4067 -0.4377 -0.1196
35273SOL    HW2 7827   0.547   7.092   0.588  0.8852 -0.2317  0.2998
35274SOL     OW 7828   7.686   1.803   9.521  0.0525 -0.0251 -0.5055
35274SOL    HW1 7829   7.688   1.876   9.458  0.6695 -0.1693 -0.6575
35274SOL    HW2 7830   7.641   1.733   9.474  0.5432 -0.1455 -0.8122
35275SOL     OW 7831   9.407   0.135   5.173 -0.0399 -0.6354  0.1636
35275SOL    HW1 7832   9.437   0.056   5.218 -1.6375 -0.5974  1.3746
35275SOL    HW2 7833   9.410   0.112   5.080 -0.2268 -2.0247  0.4860
35276SOL     OW 7834   3.600   7.330   1.865 -0.0888  1.0207  0.3120
35276SOL    HW1 7835   3.603   7.235   1.872  0.9446  0.9110 -1.1822
35276SOL    HW2 7836   3.533   7.348   1.799  1.6652  1.1323 -1.5429
35277SOL     OW 7837   4.864   1.529   4.896 -0.3356 -0.1297 -0.4108
35277SOL    HW1 7838   4.934   1.589   4.922  0.0133 -0.2068 -1.1453
35277SOL    HW2 7839   4.903   1.475   4.828 -0.0736 -2.4292  1.4280
35278SOL     OW 7840   1.135   7.607   2.939  0.3409  0.3944 -0.0293
35278SOL    HW1 7841   1.213   7.628   2.990 -0.5798  1.0045  1.1704
35278SOL    HW2 7842   1.148   7.516   2.914  0.4752 -0.2105  2.0126
35279SOL     OW 7843   0.669   9.780   1.562  0.1356 -0.4730  0.9075
35279SOL    HW1 7844   0.594   9.827   1.599 -1.9010 -1.3316 -1.7778
35279SOL    HW2 7845   0.671   9.807   1.470  3.3089 -0.3833  0.8882
35280SOL     OW 7846   1.318   5.586   1.215 -0.0063 -0.0253  0.0078
35280SOL    HW1 7847   1.363   5.530   1.152  1.1171  0.5688  0.2422
35280SOL    HW2 7848   1.283   5.526   1.280 -0.4713 -0.5829 -0.7384
35281SOL     OW 7849  10.250   6.899   6.891 -0.3914  0.1382 -0.5647
35281SOL    HW1 7850  10.200   6.946   6.957 -0.0054  0.6610 -0.6406
35281SOL    HW2 7851  10.203   6.915   6.809 -0.4503  0.1067 -0.5375
35282SOL     OW 7852   1.958   9.351   9.865  0.5166  0.1017 -0.3896
35282SOL    HW1 7853   1.896   9.286   9.898 -0.2548  0.4707 -1.0877
35282SOL    HW2 7854   1.999   9.309   9.789  0.8855 -0.0061 -0.1383
35283SOL     OW 7855   7.599   8.750   1.021  0.2607  0.1233 -0.7936
35283SOL    HW1 7856   7.526   8.698   0.987 -0.2049  1.2375 -1.5458
35283SOL    HW2 7857   7.647   8.778   0.943  0.8882  0.2782 -0.3557
35284SOL     OW 7858   3.654   4.545   5.143 -0.4707 -0.7976 -0.4851
35284SOL    HW1 7859   3.572   4.552   5.193 -0.7021 -0.5572 -0.8897
35284SOL    HW2 7860   3.651   4.458   5.104 -1.8491  0.1681 -2.7209
35285SOL     OW 7861   1.031   7.279   4.200 -0.3050 -0.1451  0.0409
35285SOL    HW1 7862   1.026   7.300   4.107 -3.1340  0.6789  0.2930
35285SOL    HW2 7863   1.037   7.365   4.244  0.0569 -0.4805  0.6661
35286SOL     OW 7864   2.304   5.037   5.872 -0.1588 -0.0535  0.0401
35286SOL    HW1 7865   2.233   5.101   5.880 -0.4176 -0.4087  0.6437
35286SOL    HW2 7866   2.328   5.017   5.962  1.0716  0.4511 -0.1590
35287SOL     OW 7867   7.823   3.004   2.509  0.4914 -0.9002  0.4650
35287SOL    HW1 7868   7.864   3.076   2.462  1.9771  1.4935  4.8539
35287SOL    HW2 7869   7.736   3.037   2.534 -0.0673 -1.8990 -0.0983
35288SOL     OW 7870   0.513   0.508   4.593  0.2915 -0.3948  0.0228
35288SOL    HW1 7871   0.530   0.427   4.641  0.6159 -0.3728 -0.0483
35288SOL    HW2 7872   0.558   0.495   4.509 -1.1266 -0.8441 -0.6845
35289SOL     OW 7873  10.140   4.497   9.067 -0.1493  0.1495  0.0171
35289SOL    HW1 7874  10.144   4.425   9.130  0.3109  0.9530  0.9138
35289SOL    HW2 7875  10.229   4.532   9.065 -0.2811  0.4615 -0.7073
35290SOL     OW 7876   6.887   1.985   7.437  0.6142  0.1147 -0.2146
35290SOL    HW1 7877   6.803   1.940   7.429 -0.1784  1.6805 -1.1595
35290SOL    HW2 7878   6.877   2.042   7.513 -1.6923  5.0326 -3.6379
35291SOL     OW 7879   4.485   6.868   2.770  0.4880  0.2760  0.8007
35291SOL    HW1 7880   4.573   6.871   2.808  1.7441  0.5009 -1.9392
35291SOL    HW2 7881   4.489   6.926   2.695 -0.3568 -3.5510 -2.5297
35292SOL     OW 7882   2.545   7.894   0.037 -0.6116  0.0053  0.0904
35292SOL    HW1 7883   2.469   7.934   0.079 -1.0953  0.8524 -1.4866
35292SOL    HW2 7884   2.569   7.956  -0.031  0.6033 -0.9433 -0.3751
35293SOL     OW 7885   3.868   0.867  10.110 -0.3716 -0.5631  0.3265
35293SOL    HW1 7886   3.833   0.888  10.024 -0.1297  1.1810  0.6152
35293SOL    HW2 7887   3.912   0.783  10.098 -3.0201 -1.9329 -0.4668
35294SOL     OW 7888   9.871  10.793   4.048  0.7159  0.1033  0.3737
35294SOL    HW1 7889   9.945  10.752   4.003  1.0010  1.0570 -0.0556
35294SOL    HW2 7890   9.809  10.814   3.978  0.1353 -0.4553  0.7024
35295SOL     OW 7891   9.801   9.727   4.585 -0.0827 -0.4855 -0.4178
35295SOL    HW1 7892   9.759   9.658   4.637 -0.2390 -0.9114 -1.0971
35295SOL    HW2 7893   9.895   9.715   4.600 -0.1797  0.9162  1.6765
35296SOL     OW 7894   3.369   9.954   2.794  0.5473  0.2286  0.3803
35296SOL    HW1 7895   3.326   9.904   2.864 -0.4428  1.9585  1.0613
35296SOL    HW2 7896   3.345   9.907   2.714 -0.5259 -0.2984  0.9796
35297SOL     OW 7897   9.515   2.093   3.380 -0.2043  0.3813 -0.7564
35297SOL    HW1 7898   9.588   2.049   3.338  0.6514  0.7684  0.3000
35297SOL    HW2 7899   9.516   2.181   3.342  0.1966  0.5407 -0.3896
35298SOL     OW 7900   2.186   2.726   1.735  0.0769  0.3124  0.1879
35298SOL    HW1 7901   2.168   2.730   1.829  0.1611  1.7005  0.1627
35298SOL    HW2 7902   2.101   2.735   1.693  0.1370  0.5740  0.1221
35299SOL     OW 7903   6.770   3.721   8.478 -0.1453  0.1342 -0.2710
35299SOL    HW1 7904   6.738   3.693   8.392 -0.2044  1.7666 -0.8108
35299SOL    HW2 7905   6.712   3.792   8.503  0.5108  0.3556  0.6618
35300SOL     OW 7906   7.204   6.591   9.856  0.0983 -0.4791 -0.3000
35300SOL    HW1 7907   7.238   6.674   9.824  0.3758  1.0631  3.5241
35300SOL    HW2 7908   7.258   6.525   9.812  1.8834  1.4773 -1.2325
35301SOL     OW 7909   2.512   6.137   8.578  0.5207  0.0442 -0.1258
35301SOL    HW1 7910   2.456   6.076   8.626  0.9324 -2.9394 -3.0231
35301SOL    HW2 7911   2.542   6.200   8.643 -2.8733 -0.6419  2.3721
35302SOL     OW 7912   4.757   6.663   2.568  0.5422  0.0165 -0.3072
35302SOL    HW1 7913   4.717   6.748   2.551  0.6354  0.7470  2.6596
35302SOL    HW2 7914   4.684   6.601   2.564  0.1080  0.5287 -0.4200
35303SOL     OW 7915   5.876   9.549   2.408 -0.2754 -0.2007 -0.4741
35303SOL    HW1 7916   5.805   9.522   2.350  1.4732 -2.4204 -1.7529
35303SOL    HW2 7917   5.937   9.595   2.350  0.5184 -0.5875  0.0433
35304SOL     OW 7918   3.026   9.711   7.608  0.1896  0.3425 -1.2347
35304SOL    HW1 7919   3.119   9.695   7.625 -0.0426  1.8151  2.3782
35304SOL    HW2 7920   3.025   9.775   7.537  1.8735 -0.1219 -1.7236
35305SOL     OW 7921   6.047   2.923   0.926 -0.3727 -0.4012  0.0235
35305SOL    HW1 7922   5.979   2.886   0.870 -0.6675 -2.2472  1.5052
35305SOL    HW2 7923   6.000   2.978   0.988 -0.0224  1.8580 -1.5540
35306SOL     OW 7924   9.299  10.623   2.543 -0.7572 -0.5047 -0.0889
35306SOL    HW1 7925   9.324  10.542   2.588 -1.0060 -0.0227  0.9625
35306SOL    HW2 7926   9.331  10.612   2.454 -0.8588 -1.7998  0.0043
35307SOL     OW 7927   6.853   1.807   2.988 -0.5672  0.1623 -0.0710
35307SOL    HW1 7928   6.910   1.769   2.921 -1.2547 -3.5203  1.2247
35307SOL    HW2 7929   6.913   1.856   3.044  0.9370 -1.2594 -0.3420
35308SOL     OW 7930   3.701   4.633   2.925  0.3175 -0.2048  0.5853
35308SOL    HW1 7931   3.719   4.642   2.831  0.3883 -0.6917  0.5486
35308SOL    HW2 7932   3.739   4.548   2.948  2.0923  0.7723  1.4802
35309SOL     OW 7933   1.675   6.515  10.240  0.4103  0.2061  0.3058
35309SOL    HW1 7934   1.754   6.498  10.189 -0.2844 -0.6858 -0.4894
35309SOL    HW2 7935   1.626   6.433  10.237  1.3280 -0.7441  4.2653
35310SOL     OW 7936   9.573   0.004   6.077  0.2382 -0.4210  0.0402
35310SOL    HW1 7937   9.572   0.100   6.068  1.0428 -0.5099 -1.2494
35310SOL    HW2 7938   9.584  -0.028   5.988  0.0066 -1.7318  0.4654
35311SOL     OW 7939   1.097   3.781   7.460  0.1851 -0.2200 -0.0532
35311SOL    HW1 7940   1.032   3.711   7.460  0.5565 -0.6864  2.6284
35311SOL    HW2 7941   1.047   3.861   7.473 -0.0248 -0.3413 -0.1103
35312SOL     OW 7942   1.796   6.774   4.414 -0.0527  0.3016  0.6477
35312SOL    HW1 7943   1.775   6.692   4.370 -0.0565  0.1532  0.9212
35312SOL    HW2 7944   1.803   6.838   4.343 -0.1438  0.0864  0.4408
35313SOL     OW 7945   0.846  11.082   0.006  0.2071 -0.0528  0.0799
35313SOL    HW1 7946   0.870  11.093   0.098 -0.4677 -0.0690  0.2579
35313SOL    HW2 7947   0.897  11.149  -0.040  1.7870 -1.0680  0.2600
35314SOL     OW 7948   8.145   0.503   5.406  0.7759 -0.0294 -0.3707
35314SOL    HW1 7949   8.209   0.568   5.434 -0.3416  0.2168  1.8020
35314SOL    HW2 7950   8.065   0.552   5.389  0.1531 -0.7119  0.4886
35315SOL     OW 7951   9.084   0.665   8.939 -0.4609  0.3711  0.2884
35315SOL    HW1 7952   9.177   0.648   8.956 -0.5125 -1.6258 -1.0544
35315SOL    HW2 7953   9.038   0.597   8.988 -1.0462 -0.2048 -1.0177
35316SOL     OW 7954   4.410  10.227   3.351  0.3344 -0.0276 -0.1389
35316SOL    HW1 7955   4.387  10.309   3.393  3.0420 -0.1646  1.8441
35316SOL    HW2 7956   4.349  10.163   3.388 -0.8806  0.7867 -0.6541
35317SOL     OW 7957   7.591   9.704   9.053 -0.5359 -0.4456  0.5509
35317SOL    HW1 7958   7.542   9.786   9.064  0.1192 -0.1095  1.0495
35317SOL    HW2 7959   7.683   9.731   9.052 -0.2292 -1.3072  2.2056
35318SOL     OW 7960   0.296   3.136   7.319 -0.0441 -0.2635  0.8508
35318SOL    HW1 7961   0.351   3.124   7.241  0.4843  1.5742  0.8948
35318SOL    HW2 7962   0.235   3.205   7.295 -1.7538 -1.5878  1.1578
35319SOL     OW 7963   6.470  11.068   6.339 -0.1840  0.1066 -0.3436
35319SOL    HW1 7964   6.420  11.144   6.308  0.8440  0.3953 -1.3639
35319SOL    HW2 7965   6.521  11.040   6.263 -1.6705 -2.6110 -0.4719
35320SOL     OW 7966   7.264   0.334   8.545  0.7664 -0.4542 -0.5509
35320SOL    HW1 7967   7.182   0.384   8.548  0.7886 -0.4222 -0.4829
35320SOL    HW2 7968   7.291   0.338   8.453  1.7491  1.2303 -0.2128
35321SOL     OW 7969   4.942   3.512   4.828  0.0956 -0.4301 -0.3156
35321SOL    HW1 7970   4.882   3.463   4.772  1.0233 -2.2177  0.1443
35321SOL    HW2 7971   4.890   3.536   4.904 -0.3967 -0.7027 -0.5600
35322SOL     OW 7972   7.067   2.713   1.054  0.2170 -0.2525 -0.1906
35322SOL    HW1 7973   7.004   2.693   0.985  0.6105  0.5381 -0.7860
35322SOL    HW2 7974   7.027   2.786   1.102  0.4754 -0.0432 -0.2954
35323SOL     OW 7975   8.320   5.384  10.944  0.1372  0.0651  0.0711
35323SOL    HW1 7976   8.360   5.399  11.029  0.1650  0.4963 -0.0198
35323SOL    HW2 7977   8.392   5.392  10.881 -0.0935  0.8986 -0.0981
35324SOL     OW 7978   1.613   3.369   1.902 -0.6588  0.2820  0.0191
35324SOL    HW1 7979   1.553   3.441   1.884 -1.3398 -0.3252 -0.1620
35324SOL    HW2 7980   1.696   3.412   1.921 -0.6714  1.0618 -1.5571
35325SOL     OW 7981   0.399   1.867   2.226  0.1802 -0.2293  0.5330
35325SOL    HW1 7982   0.317   1.894   2.266 -0.0949  0.0228 -0.1937
35325SOL    HW2 7983   0.463   1.931   2.256  0.1731 -0.5830  1.3194
35326SOL     OW 7984   3.733   4.105   1.878  0.4019  0.3113 -0.1379
35326SOL    HW1 7985   3.717   4.087   1.970  2.5515 -1.0171  0.0423
35326SOL    HW2 7986   3.679   4.182   1.859 -0.0858  0.6243  2.2091
35327SOL     OW 7987   9.520   1.404   1.233  0.1403  0.6369  0.3851
35327SOL    HW1 7988   9.602   1.450   1.217  0.7760 -0.4120  0.5281
35327SOL    HW2 7989   9.546   1.321   1.273 -0.7155 -1.1570 -2.4642
35328SOL     OW 7990   5.224   9.783   9.008 -0.3002  0.0531 -0.2714
35328SOL    HW1 7991   5.157   9.850   9.016 -2.3720 -1.8828 -0.5774
35328SOL    HW2 7992   5.225   9.761   8.915  0.3132 -0.3938 -0.1686
35329SOL     OW 7993   2.769  10.245   2.176  0.2634  0.2611 -0.1863
35329SOL    HW1 7994   2.675  10.250   2.161  0.2421  1.6268  0.1714
35329SOL    HW2 7995   2.804  10.324   2.134  0.9712  0.8415  1.3968
35330SOL     OW 7996   2.139  11.061   0.988  0.2868  1.0372  0.5238
35330SOL    HW1 7997   2.228  11.032   1.008 -0.3106 -2.2326 -0.7966
35330SOL    HW2 7998   2.108  11.102   1.069  3.0824  2.7169  0.8572
35331SOL     OW 7999   0.658   5.768   7.852 -0.0085 -0.4450  0.3695
35331SOL    HW1 8000   0.677   5.861   7.862  2.3880 -0.5612 -1.9963
35331SOL    HW2 8001   0.707   5.726   7.924 -1.2901  0.0759  1.5884
35332SOL     OW 8002   3.854   8.613   3.239  0.4085  0.1797 -0.1615
35332SOL    HW1 8003   3.924   8.635   3.178  0.4303 -1.1323 -0.6426
35332SOL    HW2 8004   3.820   8.529   3.208 -2.4092  1.4496 -0.8685
35333SOL     OW 8005   9.591   3.404   1.544  0.5411 -0.5749 -0.1639
35333SOL    HW1 8006   9.669   3.348   1.552 -0.9262 -2.5645  1.1683
35333SOL    HW2 8007   9.590   3.455   1.624  0.4149 -0.6484 -0.1184
35334SOL     OW 8008   1.996   4.868   7.834 -0.4006 -0.8266  0.0781
35334SOL    HW1 8009   1.943   4.812   7.891  0.9653 -0.6947  1.5603
35334SOL    HW2 8010   2.086   4.844   7.854  0.1586  0.2826 -0.9700
35335SOL     OW 8011   5.138   5.828   9.290  0.0429 -0.1330 -0.9782
35335SOL    HW1 8012   5.207   5.777   9.333  0.2981  1.1381  0.1728
35335SOL    HW2 8013   5.183   5.903   9.252 -0.6696  0.5898 -0.4135
35336SOL     OW 8014  10.984   5.579  10.687 -0.5101  0.4266  0.0175
35336SOL    HW1 8015  10.940   5.623  10.614  0.3756 -0.4241 -1.0708
35336SOL    HW2 8016  10.922   5.513  10.717  0.2117 -1.3023 -2.0199
35337SOL     OW 8017   9.976  10.253   4.541 -0.0764 -0.5657  0.3933
35337SOL    HW1 8018   9.998  10.168   4.503 -2.5785 -1.0346 -0.1786
35337SOL    HW2 8019   9.983  10.314   4.469  2.8985  0.0508  1.0538
35338SOL     OW 8020  10.932   2.050   9.062  0.1321 -0.3072 -0.0279
35338SOL    HW1 8021  10.966   2.107   8.993  2.0110  0.9087  1.7712
35338SOL    HW2 8022  10.947   1.961   9.029 -0.5861  0.1863 -1.8451
35339SOL     OW 8023  10.284   3.881   9.675  0.8364 -0.4385  0.7164
35339SOL    HW1 8024  10.353   3.894   9.610  0.1447 -0.1832  0.0252
35339SOL    HW2 8025  10.317   3.926   9.753  0.5010  1.6206 -0.2581
35340SOL     OW 8026  10.210   1.479   5.850 -0.2231 -0.3869  0.2238
35340SOL    HW1 8027  10.166   1.546   5.902 -1.3469 -0.6511 -0.3494
35340SOL    HW2 8028  10.299   1.476   5.884 -0.2035  1.2633  0.3802
35341SOL     OW 8029   4.049   7.456   4.910 -0.3515  0.1900 -0.6305
35341SOL    HW1 8030   4.129   7.498   4.878  0.1558  1.2521  1.7583
35341SOL    HW2 8031   4.081   7.390   4.972 -1.2816  0.3075 -0.0093
35342SOL     OW 8032   5.331   4.693   4.105  0.3915 -0.6558 -0.5708
35342SOL    HW1 8033   5.272   4.672   4.033 -3.8760 -0.9573  2.6353
35342SOL    HW2 8034   5.328   4.789   4.112 -3.7927 -0.7363  2.2521
35343SOL     OW 8035   2.981   5.362  10.037  0.1001 -0.4261 -0.0810
35343SOL    HW1 8036   3.027   5.438  10.071  0.1214 -0.4229 -0.1162
35343SOL    HW2 8037   2.888   5.383  10.046  0.1030  0.0811 -1.1388
35344SOL     OW 8038   7.506   2.787   2.487 -0.4171 -0.2105 -0.4343
35344SOL    HW1 8039   7.578   2.818   2.432 -0.4920  1.2166  0.2430
35344SOL    HW2 8040   7.468   2.866   2.524  0.4783 -1.1272  2.7663
35345SOL     OW 8041   4.892   8.061   3.123 -0.4573  0.5001  0.2553
35345SOL    HW1 8042   4.922   8.072   3.033 -0.3848  2.4412  0.4751
35345SOL    HW2 8043   4.970   8.032   3.170  0.1563  1.8436  0.1159
35346SOL     OW 8044   4.924   3.912   8.308  0.1264  0.5508 -0.8641
35346SOL    HW1 8045   4.864   3.971   8.354 -0.3882 -1.0572  0.6340
35346SOL    HW2 8046   4.974   3.969   8.250 -1.9790  2.1149 -1.2563
35347SOL     OW 8047   6.433  10.872   3.640 -0.2722 -0.6406  0.6049
35347SOL    HW1 8048   6.402  10.940   3.699 -1.6304  0.9291 -1.7817
35347SOL    HW2 8049   6.527  10.867   3.656 -0.6425 -0.7373  3.2470
35348SOL     OW 8050   7.965   1.881   0.278 -0.3535  0.1716  0.4756
35348SOL    HW1 8051   8.026   1.955   0.283  1.3925 -1.2004  0.2880
35348SOL    HW2 8052   7.884   1.914   0.317  0.5338  2.0091  0.8635
35349SOL     OW 8053   7.556   5.120   0.463 -0.0053 -0.5739  0.1441
35349SOL    HW1 8054   7.613   5.178   0.412  0.4871  0.0042  1.3269
35349SOL    HW2 8055   7.548   5.163   0.548 -0.9413 -1.4475  0.5114
35350SOL     OW 8056   1.338   8.595   1.788 -0.2761  0.1777  0.0085
35350SOL    HW1 8057   1.352   8.543   1.867  1.6480  0.7995  0.1330
35350SOL    HW2 8058   1.245   8.620   1.792 -0.6931 -1.3838  1.0602
35351SOL     OW 8059   8.771   6.993  10.870  0.0577  0.2925  0.7481
35351SOL    HW1 8060   8.861   6.960  10.867  0.6935  1.8898  1.2575
35351SOL    HW2 8061   8.739   6.968  10.957  0.6777  1.3308  1.2919
35352SOL     OW 8062   4.880   6.807   9.543  0.4187 -0.0197  0.0515
35352SOL    HW1 8063   4.879   6.888   9.595 -0.5601 -1.8586  3.1354
35352SOL    HW2 8064   4.793   6.803   9.504  0.2733  0.1326  0.3597
35353SOL     OW 8065   0.213   8.323   6.039  0.5887  0.6332  0.0710
35353SOL    HW1 8066   0.264   8.259   5.989 -2.7472 -0.8082 -1.7829
35353SOL    HW2 8067   0.233   8.407   5.996  0.3966 -0.0850 -1.4897
35354SOL     OW 8068   5.180   8.740   3.301 -0.9822 -0.1349 -0.3620
35354SOL    HW1 8069   5.244   8.762   3.234 -1.9115  0.7693 -0.9807
35354SOL    HW2 8070   5.133   8.822   3.318 -2.1930 -0.8322 -0.1727
35355SOL     OW 8071   3.417   6.380   5.772  0.3968  0.2724  0.2045
35355SOL    HW1 8072   3.440   6.468   5.742 -0.9157  0.7860  0.6215
35355SOL    HW2 8073   3.434   6.381   5.866 -0.9837  0.5906  0.4805
35356SOL     OW 8074   5.051   1.394   0.625  0.1884  0.4591  0.1044
35356SOL    HW1 8075   5.011   1.308   0.612  0.2493  0.6199 -1.4006
35356SOL    HW2 8076   5.138   1.387   0.585  0.4909  0.9941  0.6545
35357SOL     OW 8077   7.829   0.046   0.780 -0.3376 -0.0572 -0.1588
35357SOL    HW1 8078   7.815  -0.029   0.838 -2.7616  0.7868  0.4681
35357SOL    HW2 8079   7.805   0.122   0.833  0.9719  1.0882 -1.1384
35358SOL     OW 8080  10.496   8.098   7.471 -0.1835  0.0521  0.1302
35358SOL    HW1 8081  10.542   8.079   7.553  1.4169  2.6068 -0.0807
35358SOL    HW2 8082  10.415   8.140   7.498 -1.3317 -2.2090  0.4271
35359SOL     OW 8083   4.721   2.654   2.985 -0.0771 -0.6849 -0.2877
35359SOL    HW1 8084   4.779   2.696   3.049 -0.4501  2.3263 -1.7244
35359SOL    HW2 8085   4.778   2.633   2.911 -0.4741  0.9162 -1.1002
35360SOL     OW 8086   6.333  10.987   7.951 -0.3890 -0.1061  0.0920
35360SOL    HW1 8087   6.366  11.063   7.902  3.5565  1.3183  4.1512
35360SOL    HW2 8088   6.265  11.023   8.007 -1.0158 -0.4236 -0.4619
35361SOL     OW 8089   2.190   2.429   2.017 -0.2421 -0.2729 -0.0588
35361SOL    HW1 8090   2.135   2.402   2.090 -0.5471  0.7598  0.1088
35361SOL    HW2 8091   2.272   2.380   2.029 -0.6612 -0.8818  0.3827
35362SOL     OW 8092   1.732   5.406   2.608 -0.1523  0.9871  0.1042
35362SOL    HW1 8093   1.665   5.353   2.566 -0.0598 -0.4515  1.6716
35362SOL    HW2 8094   1.806   5.403   2.548  0.2832 -1.7304  0.6358
35363SOL     OW 8095  10.825  10.174   8.560 -0.1225 -0.2360 -0.2251
35363SOL    HW1 8096  10.811  10.099   8.502  2.7486 -1.0460  0.0075
35363SOL    HW2 8097  10.899  10.220   8.522 -0.5580  1.3617  0.7819
35364SOL     OW 8098   4.876   8.784   0.405 -0.1607  0.6820 -0.4794
35364SOL    HW1 8099   4.823   8.859   0.429 -0.5305  0.6744 -1.2483
35364SOL    HW2 8100   4.882   8.788   0.310 -1.2537 -0.9499 -0.6592
35365SOL     OW 8101   2.318   0.341   0.624 -0.2622 -0.2785 -0.0780
35365SOL    HW1 8102   2.295   0.364   0.714  0.7423 -1.6895  0.5712
35365SOL    HW2 8103   2.346   0.250   0.629  0.1952 -0.2597 -1.7619
35366SOL     OW 8104   4.862   5.470   6.990 -0.3681  0.0647 -0.1245
35366SOL    HW1 8105   4.926   5.422   7.042  0.3441  2.8575  1.7703
35366SOL    HW2 8106   4.811   5.520   7.053 -2.5031  0.1963 -1.8222
35367SOL     OW 8107   5.162   5.616   2.011  0.0518  0.0229  0.5484
35367SOL    HW1 8108   5.156   5.525   1.982  0.6202 -0.3695  1.6364
35367SOL    HW2 8109   5.253   5.640   1.997 -0.2983  0.7533 -0.6359
35368SOL     OW 8110   7.944   8.092   2.555 -0.3263 -0.5969  0.6873
35368SOL    HW1 8111   7.916   8.168   2.503  2.9270 -0.1909 -0.6670
35368SOL    HW2 8112   8.002   8.129   2.622  2.6475 -1.8655 -0.9940
35369SOL     OW 8113   5.261   5.476   0.465 -0.2771 -0.6472  0.1787
35369SOL    HW1 8114   5.313   5.412   0.416  2.6095  0.7523  1.2019
35369SOL    HW2 8115   5.272   5.451   0.557  2.1104  1.9571  0.7383
35370SOL     OW 8116   8.044   9.986   2.646  0.8549 -0.4306 -0.1827
35370SOL    HW1 8117   7.980   9.918   2.666  0.6057 -0.4231 -0.9215
35370SOL    HW2 8118   8.052   9.984   2.551 -3.1317  4.1029 -0.9958
35371SOL     OW 8119   8.826   3.246   6.444  0.1708  0.3366  0.7461
35371SOL    HW1 8120   8.886   3.303   6.395  1.9421 -2.0211 -0.0158
35371SOL    HW2 8121   8.848   3.262   6.536  0.7424  0.8030  0.5352
35372SOL     OW 8122   3.058   9.414   6.200 -0.9356 -0.4107  0.7322
35372SOL    HW1 8123   3.072   9.497   6.246  1.4772 -0.2615 -0.1217
35372SOL    HW2 8124   3.110   9.422   6.120 -1.6654 -2.2814  0.0050
35373SOL     OW 8125   5.002   2.448   1.679  0.2011 -0.1207  0.2881
35373SOL    HW1 8126   4.910   2.422   1.672  0.4249 -1.3455  1.4248
35373SOL    HW2 8127   5.006   2.503   1.756  0.2834  0.7044 -0.2910
35374SOL     OW 8128   8.538  10.952   7.698 -0.0264  0.8193  0.1466
35374SOL    HW1 8129   8.525  11.040   7.661  0.9618  1.3554  1.0120
35374SOL    HW2 8130   8.576  10.968   7.784  0.3313 -0.4776  0.2485
35375SOL     OW 8131   2.530   5.997   5.288  0.0583 -0.1923 -0.6228
35375SOL    HW1 8132   2.577   6.080   5.293  1.1233 -0.5279 -3.3695
35375SOL    HW2 8133   2.598   5.931   5.274 -0.6403 -1.7947  2.4640
35376SOL     OW 8134   9.462   7.480   9.691  0.5447 -0.1768  0.5236
35376SOL    HW1 8135   9.501   7.415   9.750  0.3976 -0.0642  0.7495
35376SOL    HW2 8136   9.453   7.558   9.746 -1.1636 -0.5719  0.8567
35377SOL     OW 8137   8.094   6.110  10.815 -0.4034  0.4136  0.3227
35377SOL    HW1 8138   8.066   6.059  10.892 -0.9764 -0.4683 -0.4465
35377SOL    HW2 8139   8.124   6.044  10.753 -1.4596  0.9838 -0.8202
35378SOL     OW 8140   1.774   8.006   0.065  0.2126  0.2363 -0.2008
35378SOL    HW1 8141   1.681   7.999   0.043  0.0733 -0.0182  0.4460
35378SOL    HW2 8142   1.820   7.991  -0.017 -0.3464  1.7393 -0.8309
35379SOL     OW 8143   7.142   7.846   6.005 -0.1908  0.1241 -0.5437
35379SOL    HW1 8144   7.155   7.759   5.966 -0.6760 -0.1143 -0.1882
35379SOL    HW2 8145   7.180   7.839   6.092 -1.1686 -0.0742 -0.1118
35380SOL     OW 8146   3.874   7.217   1.684  0.1868 -0.2353 -0.3737
35380SOL    HW1 8147   3.796   7.247   1.638  0.6421 -0.2057 -1.1424
35380SOL    HW2 8148   3.884   7.279   1.757  2.0960  2.7159 -2.8947
35381SOL     OW 8149   1.006   8.387   6.004 -0.7680 -0.3836  0.1803
35381SOL    HW1 8150   1.059   8.395   5.925 -1.1381  2.6976  0.1397
35381SOL    HW2 8151   1.048   8.318   6.055 -0.2922 -2.1891 -2.4723
35382SOL     OW 8152   2.267   8.771   3.788  0.4301 -0.1468  0.4699
35382SOL    HW1 8153   2.199   8.766   3.720  0.1821  1.0242  0.6208
35382SOL    HW2 8154   2.274   8.681   3.821  0.9697 -0.8935 -1.4926
35383SOL     OW 8155   7.627   3.132   1.463  0.8515 -0.6297 -0.1236
35383SOL    HW1 8156   7.539   3.118   1.428  1.0723  2.6043 -2.4380
35383SOL    HW2 8157   7.621   3.107   1.555 -2.6473  0.0865 -0.0272
35384SOL     OW 8158   9.211   0.899  10.506 -0.1106  0.3603  0.6212
35384SOL    HW1 8159   9.175   0.964  10.566  0.2631  3.4730 -2.2453
35384SOL    HW2 8160   9.286   0.943  10.465  1.1554 -2.4860 -0.3916
35385SOL     OW 8161   0.035   9.508  10.537  0.1180  0.0649 -0.3463
35385SOL    HW1 8162   0.056   9.424  10.578  0.6424  0.4737  0.2448
35385SOL    HW2 8163  -0.054   9.526  10.564 -0.1280 -0.4719 -0.7766
35386SOL     OW 8164   7.251   3.043   4.875 -0.5210  0.3727 -0.2710
35386SOL    HW1 8165   7.195   2.986   4.929  0.7106  1.2141  2.0493
35386SOL    HW2 8166   7.228   3.132   4.902  0.4909  0.8028 -0.7601
35387SOL     OW 8167   6.621   0.890  10.612  0.1086 -0.9721  0.0818
35387SOL    HW1 8168   6.716   0.881  10.598  0.2908  1.7095 -1.1099
35387SOL    HW2 8169   6.584   0.893  10.524 -1.1094 -1.9528  0.5446
35388SOL     OW 8170   2.157   1.661   5.494  0.2528 -0.7766  0.4066
35388SOL    HW1 8171   2.092   1.673   5.424  0.1300 -0.0963  0.6323
35388SOL    HW2 8172   2.208   1.584   5.466  2.2853  1.2962 -2.0694
35389SOL     OW 8173   7.008   3.213   2.025  0.1788  0.4040  0.1486
35389SOL    HW1 8174   7.056   3.284   1.982  0.8682  0.3406  0.8001
35389SOL    HW2 8175   7.069   3.139   2.024  0.3746  0.5213  1.5872
35390SOL     OW 8176   3.130   1.057   3.375 -0.3329 -0.0248  0.5709
35390SOL    HW1 8177   3.189   1.052   3.450  0.9589 -1.0103 -0.4450
35390SOL    HW2 8178   3.090   0.970   3.371 -2.7790  0.9489  1.8907
35391SOL     OW 8179   1.413   8.389   9.877 -0.8053 -0.0479 -0.8798
35391SOL    HW1 8180   1.371   8.417   9.796 -0.2941  1.2890 -0.7131
35391SOL    HW2 8181   1.419   8.293   9.870 -2.0381 -0.0710 -1.7727
35392SOL     OW 8182   0.831   5.901   7.100  0.2866 -0.1077 -0.1445
35392SOL    HW1 8183   0.762   5.848   7.060  0.3274  0.4602 -0.9941
35392SOL    HW2 8184   0.899   5.906   7.033 -0.5238  2.6324 -0.8915
35393SOL     OW 8185   4.310   9.304   8.316  0.2925  0.5453 -0.2464
35393SOL    HW1 8186   4.320   9.399   8.323  0.3096  0.6837 -1.8659
35393SOL    HW2 8187   4.399   9.272   8.297  0.4448  0.0884  1.0838
35394SOL     OW 8188   6.814   8.286   4.639 -0.1908 -0.2118  0.5266
35394SOL    HW1 8189   6.827   8.226   4.712 -1.6891 -0.2457  0.8092
35394SOL    HW2 8190   6.832   8.233   4.561  2.6689  0.1612  0.8353
35395SOL     OW 8191   6.412   9.216   2.222 -0.3309 -0.2093  0.2678
35395SOL    HW1 8192   6.390   9.219   2.315 -1.2576  0.4150  0.0438
35395SOL    HW2 8193   6.335   9.177   2.180 -0.3575  0.4819 -0.3504
35396SOL     OW 8194   2.303   2.357   0.720  0.7248  0.3802  0.3058
35396SOL    HW1 8195   2.217   2.345   0.679  1.3481  1.4391 -1.4516
35396SOL    HW2 8196   2.349   2.275   0.701 -0.2361 -0.6903  2.3054
35397SOL     OW 8197   1.646  11.015  10.045  0.0146  0.3994 -0.1795
35397SOL    HW1 8198   1.561  11.013  10.090  0.4166  0.5894  0.6079
35397SOL    HW2 8199   1.709  10.990  10.112  0.3085 -3.0136 -1.5355
35398SOL     OW 8200   0.439   9.592   3.471 -0.1256  0.3068 -0.1875
35398SOL    HW1 8201   0.505   9.524   3.455 -0.8273  0.1928 -3.1590
35398SOL    HW2 8202   0.473   9.669   3.425 -1.2334  0.7352 -0.3156
35399SOL     OW 8203  10.141   6.391  11.030 -0.1324  0.7910 -1.1245
35399SOL    HW1 8204  10.143   6.338  11.109  3.3034  1.3065 -0.7434
35399SOL    HW2 8205  10.063   6.446  11.040 -1.3417 -1.0887  0.5019
35400SOL     OW 8206   5.702   1.742   2.885 -0.4327  0.2074 -0.3984
35400SOL    HW1 8207   5.732   1.676   2.823  3.3520  0.4467  0.9429
35400SOL    HW2 8208   5.705   1.697   2.970 -0.8094  1.2664  0.1857
35401SOL     OW 8209   5.934   6.000   0.423  0.3824 -0.0026  0.5302
35401SOL    HW1 8210   5.959   6.025   0.511 -1.3866 -0.4664  1.2047
35401SOL    HW2 8211   5.869   6.065   0.397  0.1674 -0.4340 -0.0419
35402SOL     OW 8212   5.329   2.487   4.408 -0.3881  0.1792  1.1169
35402SOL    HW1 8213   5.239   2.468   4.437 -1.3265  0.6595 -1.2261
35402SOL    HW2 8214   5.332   2.582   4.400  0.3031  0.1599  1.1025
35403SOL     OW 8215   9.511   4.144   8.996 -0.0222  0.0119 -0.3760
35403SOL    HW1 8216   9.472   4.065   9.033 -0.5692 -0.5264 -2.0241
35403SOL    HW2 8217   9.440   4.208   8.994 -0.5689 -0.5811 -2.2282
35404SOL     OW 8218   2.090  10.670   8.209 -0.2245 -0.3427  0.4893
35404SOL    HW1 8219   2.166  10.642   8.157 -0.0564  3.6936 -1.8740
35404SOL    HW2 8220   2.128  10.725   8.277 -0.8783  1.7757 -0.7610
35405SOL     OW 8221   6.344   9.241   9.312  0.7910  0.1140  0.1348
35405SOL    HW1 8222   6.356   9.305   9.242  1.4553  0.8447  0.8961
35405SOL    HW2 8223   6.378   9.159   9.275  1.3282  0.5397 -0.3312
35406SOL     OW 8224   9.069   8.888   0.913  0.0651 -0.3681 -0.5032
35406SOL    HW1 8225   9.133   8.848   0.972 -0.5479 -2.8506 -1.3964
35406SOL    HW2 8226   9.006   8.930   0.972  0.5893 -0.9945  0.5413
35407SOL     OW 8227  10.746  11.055   6.691  0.1925 -0.3744  0.2385
35407SOL    HW1 8228  10.817  11.010   6.645 -0.0076 -0.2569 -0.1937
35407SOL    HW2 8229  10.672  11.050   6.630 -0.1063 -0.3087  0.5952
35408SOL     OW 8230   2.730   7.373   3.804 -0.1509  0.0452 -0.3360
35408SOL    HW1 8231   2.669   7.350   3.875 -0.6061  1.2324 -0.3244
35408SOL    HW2 8232   2.675   7.379   3.726  0.2170 -0.4483 -0.6355
35409SOL     OW 8233   8.826   0.530   2.987 -0.2819 -0.0379 -0.2612
35409SOL    HW1 8234   8.915   0.494   2.987  0.6396  2.0510 -0.0084
35409SOL    HW2 8235   8.796   0.518   2.897 -0.2946 -1.9453 -0.0390
35410SOL     OW 8236   5.211   3.674   5.575  0.7171 -0.0242  0.1632
35410SOL    HW1 8237   5.134   3.638   5.530  1.1613 -1.4263  0.4646
35410SOL    HW2 8238   5.176   3.745   5.629  0.0487  1.1877 -1.7523
35411SOL     OW 8239   7.802   8.408   3.206 -0.1378  0.4834  0.1447
35411SOL    HW1 8240   7.778   8.493   3.169 -1.5767  0.0672  0.0554
35411SOL    HW2 8241   7.883   8.425   3.254  0.7031  1.4645 -1.5217
35412SOL     OW 8242  10.469   9.227   2.481 -0.2379  0.1269  0.0945
35412SOL    HW1 8243  10.477   9.151   2.538 -0.8428 -0.6767 -0.8427
35412SOL    HW2 8244  10.383   9.217   2.440  0.6720 -0.0405 -1.9005
35413SOL     OW 8245   8.950   2.986  10.409  0.3992 -0.4550  0.5491
35413SOL    HW1 8246   8.919   2.896  10.404  1.2395 -0.8211  1.5803
35413SOL    HW2 8247   8.937   3.021  10.321  2.2518 -2.3172 -0.5494
35414SOL     OW 8248   3.595   3.505   1.675  0.0970  0.5533  0.4111
35414SOL    HW1 8249   3.637   3.550   1.749  0.4421  2.2561 -0.7596
35414SOL    HW2 8250   3.512   3.473   1.710  0.6510  0.5407  1.7607
35415SOL     OW 8251   3.469   9.066   8.644  0.0171  0.1760  0.1788
35415SOL    HW1 8252   3.451   9.102   8.730 -0.8717 -0.6436  0.3550
35415SOL    HW2 8253   3.565   9.058   8.640  0.1269  1.1859  0.6763
35416SOL     OW 8254   9.223   9.823   4.534  0.5574 -0.1006 -0.8267
35416SOL    HW1 8255   9.190   9.841   4.622 -1.1373 -0.2448 -1.3852
35416SOL    HW2 8256   9.311   9.788   4.548  0.5287  0.3644  0.7633
35417SOL     OW 8257  10.685   6.450   7.922  0.4241 -0.1835  0.2861
35417SOL    HW1 8258  10.627   6.374   7.911  0.5954 -0.4436  1.0943
35417SOL    HW2 8259  10.676   6.499   7.840 -1.2823  0.0345  0.5707
35418SOL     OW 8260  10.902   1.761   3.753  0.0545  0.5005 -0.4211
35418SOL    HW1 8261  10.914   1.835   3.813 -0.1986  0.7560 -0.6805
35418SOL    HW2 8262  10.988   1.748   3.713  0.8305 -1.0947  1.5998
35419SOL     OW 8263   5.929   7.799   3.645  0.0608 -0.1482  0.2879
35419SOL    HW1 8264   5.933   7.748   3.563  1.5296  0.7950 -0.2569
35419SOL    HW2 8265   5.838   7.790   3.673 -0.6576  0.0154 -1.7896
35420SOL     OW 8266   0.076   6.477   6.885  0.3827  0.1376  0.4797
35420SOL    HW1 8267   0.022   6.537   6.938 -0.0276 -0.4017  0.6868
35420SOL    HW2 8268   0.121   6.534   6.823 -0.2145  0.6353  0.4884
35421SOL     OW 8269   8.172   9.146   2.282 -0.2229 -0.0144 -0.4085
35421SOL    HW1 8270   8.086   9.181   2.257 -0.8841  0.0884  1.7516
35421SOL    HW2 8271   8.235   9.198   2.232 -1.3902  0.0363 -1.9048
35422SOL     OW 8272   2.796   2.202   7.764 -0.5442 -0.3891  0.1909
35422SOL    HW1 8273   2.823   2.272   7.824  0.8344 -0.6793 -0.0759
35422SOL    HW2 8274   2.878   2.165   7.731 -1.2721 -1.2836 -0.6637
35423SOL     OW 8275   8.951   0.179   8.873  0.6364  0.0415  0.5361
35423SOL    HW1 8276   8.937   0.260   8.923 -2.0162  0.6095 -0.9035
35423SOL    HW2 8277   9.035   0.192   8.829 -0.1278  2.5203 -0.3862
35424SOL     OW 8278   3.494   5.380   7.432  0.4509  0.0443 -0.0637
35424SOL    HW1 8279   3.571   5.403   7.485 -0.2407  0.7233  0.6671
35424SOL    HW2 8280   3.431   5.345   7.495  0.5633 -1.6269 -0.8133
35425SOL     OW 8281   0.192   5.876   4.434 -0.2538 -0.2866 -0.2197
35425SOL    HW1 8282   0.151   5.900   4.517  0.5808  1.5354 -0.2927
35425SOL    HW2 8283   0.276   5.838   4.460 -0.0469  0.1689 -0.2052
35426SOL     OW 8284   1.519   7.979  11.057  0.1791  0.2974 -0.1735
35426SOL    HW1 8285   1.424   7.986  11.069  0.1480  0.0355 -0.2777
35426SOL    HW2 8286   1.533   7.998  10.965  0.1963 -0.0045 -0.2310
35427SOL     OW 8287   9.575   0.667   9.755  0.5585  0.1130  0.1613
35427SOL    HW1 8288   9.585   0.709   9.840  3.3799 -1.8789  0.9112
35427SOL    HW2 8289   9.535   0.582   9.774  0.3923  0.0100 -0.6158
35428SOL     OW 8290   7.708   6.756   3.344  0.3162 -0.6880 -0.1049
35428SOL    HW1 8291   7.765   6.828   3.314 -0.1972  0.6238  1.8754
35428SOL    HW2 8292   7.741   6.679   3.298  1.5890  0.6082 -1.4958
35429SOL     OW 8293  10.001   0.854   3.457  0.0792  0.5519 -0.5872
35429SOL    HW1 8294  10.015   0.949   3.461 -1.0595  0.7769 -1.5180
35429SOL    HW2 8295   9.916   0.840   3.499 -0.2858  0.0867 -1.4536
35430SOL     OW 8296   4.096   7.523   9.375  0.3179  0.6051  0.9553
35430SOL    HW1 8297   4.024   7.585   9.387  0.0352  0.6057 -0.5346
35430SOL    HW2 8298   4.077   7.452   9.436 -0.4156  1.0662  1.2758
35431SOL     OW 8299   6.059   9.744   5.190  0.4778  0.3203  0.3418
35431SOL    HW1 8300   6.063   9.649   5.201 -2.0060 -0.0963 -1.2735
35431SOL    HW2 8301   5.995   9.773   5.255 -0.1303  0.5902 -0.3622
35432SOL     OW 8302   4.763   9.475  10.687  0.2989 -0.2291  0.2357
35432SOL    HW1 8303   4.703   9.441  10.620 -0.4071  0.1309  0.6761
35432SOL    HW2 8304   4.707   9.494  10.762  0.6066  2.1636 -0.0706
35433SOL     OW 8305   6.632  10.613   5.128 -0.3198 -0.2965 -0.2941
35433SOL    HW1 8306   6.682  10.547   5.176  0.7225 -1.3479 -2.6908
35433SOL    HW2 8307   6.542  10.580   5.128 -1.2750  1.5728  3.9800
35434SOL     OW 8308   5.729   5.426  10.848 -0.4979 -0.0959 -0.1019
35434SOL    HW1 8309   5.645   5.386  10.871 -1.3837 -0.2104 -3.1385
35434SOL    HW2 8310   5.706   5.495  10.786  1.5806  0.6859 -0.0596
35435SOL     OW 8311   5.649   1.604   6.954 -0.1257 -0.2337 -0.3369
35435SOL    HW1 8312   5.683   1.517   6.976 -0.4307 -0.4966 -0.8857
35435SOL    HW2 8313   5.554   1.594   6.959 -0.2251  0.9883  3.2064
35436SOL     OW 8314   8.103   7.026   6.673 -0.3567 -0.3224 -0.3690
35436SOL    HW1 8315   8.077   6.949   6.724  1.5473 -2.1788 -2.0122
35436SOL    HW2 8316   8.193   7.043   6.700 -0.3197  0.5169 -0.9974
35437SOL     OW 8317   3.194   6.153   7.004  0.7776  0.1487  0.2644
35437SOL    HW1 8318   3.188   6.075   7.058  0.6901 -0.6381 -0.8360
35437SOL    HW2 8319   3.127   6.141   6.936  0.2633  1.5275  0.4935
35438SOL     OW 8320   1.096  10.013   2.665  0.3103  0.0536  0.0507
35438SOL    HW1 8321   1.104  10.037   2.572  0.9371  1.4668  0.4358
35438SOL    HW2 8322   1.176  10.048   2.705  0.6226 -1.5858  0.9286
35439SOL     OW 8323   5.332  10.560   3.283  0.3545  0.8033  0.1551
35439SOL    HW1 8324   5.261  10.574   3.345 -0.5445  0.4229 -0.7533
35439SOL    HW2 8325   5.303  10.604   3.203 -0.0121 -1.4453 -1.0085
35440SOL     OW 8326   9.474   5.829   2.257 -0.7384 -0.7600 -0.2208
35440SOL    HW1 8327   9.442   5.900   2.312 -1.4429  1.6841 -3.4524
35440SOL    HW2 8328   9.429   5.750   2.290 -2.0769  0.7478  1.8024
35441SOL     OW 8329   8.564   6.340   4.424 -0.0393  0.4214 -0.3740
35441SOL    HW1 8330   8.613   6.259   4.441  0.0463  0.4192 -0.6341
35441SOL    HW2 8331   8.583   6.361   4.333  2.5614  2.4946  0.5002
35442SOL     OW 8332  10.569   2.463   5.595 -0.1310  0.1742  0.2185
35442SOL    HW1 8333  10.587   2.439   5.504 -1.5521 -0.8390  0.1864
35442SOL    HW2 8334  10.605   2.552   5.603 -0.2980  0.4308 -1.4388
35443SOL     OW 8335   1.460   6.422   8.274 -0.0643 -0.1346  0.5093
35443SOL    HW1 8336   1.438   6.507   8.237 -1.4563 -0.4858  0.4647
35443SOL    HW2 8337   1.519   6.382   8.211  1.6276  1.2679  1.1225
35444SOL     OW 8338   5.870   4.764   5.045  0.1602 -0.3667  1.0431
35444SOL    HW1 8339   5.789   4.801   5.009  0.0840 -0.8177  0.7381
35444SOL    HW2 8340   5.846   4.736   5.133  0.1454  0.0471  1.1751
35445SOL     OW 8341   1.067   0.214   1.609 -0.7132  0.4091 -0.2500
35445SOL    HW1 8342   1.118   0.290   1.636 -1.5050  0.4039  1.4299
35445SOL    HW2 8343   1.100   0.142   1.663 -0.2723 -0.3667 -1.5015
35446SOL     OW 8344   4.913  10.347   0.779  0.7676 -0.4683 -0.3694
35446SOL    HW1 8345   4.896  10.253   0.780  0.0302 -0.3411 -0.3678
35446SOL    HW2 8346   4.983  10.359   0.843  1.0950 -1.0531 -0.6039
35447SOL     OW 8347   7.833   9.233   4.495 -0.1080  0.0791 -0.4552
35447SOL    HW1 8348   7.830   9.290   4.572 -0.1259  0.5814 -0.8270
35447SOL    HW2 8349   7.920   9.193   4.499 -0.0409  0.2419 -0.2774
35448SOL     OW 8350   8.510   7.066  10.742 -0.3774  0.0220 -0.4510
35448SOL    HW1 8351   8.595   7.102  10.769  0.5648 -1.7185 -0.8873
35448SOL    HW2 8352   8.531   7.015  10.664 -2.0198  0.2890 -1.0930
35449SOL     OW 8353   8.011   8.173   8.013 -0.0834 -0.4806 -1.4114
35449SOL    HW1 8354   7.917   8.163   7.995 -0.3690  0.2840 -0.4355
35449SOL    HW2 8355   8.021   8.146   8.104  0.1441  1.9275 -0.6508
35450SOL     OW 8356   7.598   4.914   3.320  0.6362  0.2530  0.7150
35450SOL    HW1 8357   7.532   4.941   3.256  0.5199  2.1306  1.5580
35450SOL    HW2 8358   7.554   4.921   3.405  1.3357 -0.3956  1.1480
35451SOL     OW 8359   5.111  11.094   1.623 -0.2926  0.1289 -0.4370
35451SOL    HW1 8360   5.165  11.143   1.560 -0.4248 -0.1175 -0.7434
35451SOL    HW2 8361   5.167  11.023   1.653  0.0168  0.6521  0.2618
35452SOL     OW 8362   5.093   7.890   2.068  0.3092 -0.9473 -0.3165
35452SOL    HW1 8363   5.096   7.898   1.973 -2.6379 -0.2733 -0.4339
35452SOL    HW2 8364   5.144   7.964   2.100 -1.4469  0.8241 -1.4307
35453SOL     OW 8365   1.487   5.998   8.784 -0.2709 -0.1030  0.3265
35453SOL    HW1 8366   1.397   6.027   8.795 -0.9881 -1.6096 -1.1280
35453SOL    HW2 8367   1.505   6.006   8.691  1.3609  0.7804  0.6655
35454SOL     OW 8368   3.703   0.257   2.137  0.5175  0.0455 -0.2312
35454SOL    HW1 8369   3.645   0.327   2.108 -0.4089 -0.6373 -0.0663
35454SOL    HW2 8370   3.751   0.231   2.058  1.5418  1.4609 -0.1073
35455SOL     OW 8371   2.036   9.282   1.515  0.6350 -0.4233 -0.1014
35455SOL    HW1 8372   1.948   9.257   1.544  0.4576 -1.7440 -1.6613
35455SOL    HW2 8373   2.072   9.203   1.477  2.0445  0.4333 -0.6147
35456SOL     OW 8374   6.228   0.334   0.358 -0.8031  0.4643  0.7104
35456SOL    HW1 8375   6.177   0.253   0.359  0.0986 -0.1278  1.6275
35456SOL    HW2 8376   6.308   0.311   0.309 -0.2965  0.6170  1.4439
35457SOL     OW 8377   9.318   4.942   6.078 -0.6199  0.2064  0.4107
35457SOL    HW1 8378   9.264   5.005   6.125 -1.0276 -0.3275  0.6683
35457SOL    HW2 8379   9.392   4.993   6.046 -0.6799  0.7067  1.0607
35458SOL     OW 8380   2.825   9.838   5.530  0.5617  0.0079 -0.0218
35458SOL    HW1 8381   2.818   9.881   5.445 -1.2075  0.7729  0.4782
35458SOL    HW2 8382   2.788   9.751   5.517 -0.6460  0.4727  0.1722
35459SOL     OW 8383   2.217   7.773   0.020  0.2801  0.6147  0.1115
35459SOL    HW1 8384   2.248   7.857   0.052  0.1303  0.7037  0.0229
35459SOL    HW2 8385   2.136   7.757   0.069 -0.2549  1.0164 -0.6214
35460SOL     OW 8386   2.869   6.234   3.500 -0.2446  0.0055  0.8657
35460SOL    HW1 8387   2.794   6.222   3.441  0.8985 -0.4620 -0.5473
35460SOL    HW2 8388   2.879   6.329   3.506  0.5657  0.0807 -0.9949
35461SOL     OW 8389   4.399   4.100   6.933  0.4869  0.7017  0.3522
35461SOL    HW1 8390   4.448   4.182   6.946  0.7184  0.3967  1.5389
35461SOL    HW2 8391   4.387   4.066   7.021 -0.9255  0.2102 -0.0037
35462SOL     OW 8392   1.917   3.511   7.226 -0.3807  0.9464  0.3486
35462SOL    HW1 8393   2.002   3.490   7.264  0.2278  2.3848 -0.1549
35462SOL    HW2 8394   1.932   3.514   7.131 -1.2478  0.1554  0.1678
35463SOL     OW 8395   3.141   4.667   3.602  0.0648  0.3052 -0.5858
35463SOL    HW1 8396   3.127   4.745   3.549 -1.8369 -0.6677 -1.6230
35463SOL    HW2 8397   3.053   4.636   3.625  0.7540  0.5565  3.0877
35464SOL     OW 8398  10.263   5.127  10.023  0.6220 -0.1065 -0.3511
35464SOL    HW1 8399  10.211   5.052   9.993  1.0782  0.3099 -2.3114
35464SOL    HW2 8400  10.326   5.089  10.084 -2.3978 -0.5173  2.7759
35465SOL     OW 8401   3.412  11.059   4.418  0.3464 -0.0864  0.1849
35465SOL    HW1 8402   3.350  11.116   4.373 -0.6370 -0.4886  0.9749
35465SOL    HW2 8403   3.362  11.024   4.492  1.2984 -1.0121  0.4099
35466SOL     OW 8404  10.456   5.885   4.226 -0.0088 -0.6370 -0.1496
35466SOL    HW1 8405  10.474   5.959   4.167  1.1588 -0.3323  0.5452
35466SOL    HW2 8406  10.513   5.902   4.302  1.7098 -3.1960 -0.7549
35467SOL     OW 8407   1.960   8.692   4.264  0.1058 -0.6045  0.5664
35467SOL    HW1 8408   1.869   8.661   4.258  0.6142 -2.0930  0.0455
35467SOL    HW2 8409   1.980   8.689   4.358 -1.3469  2.8712  1.1434
35468SOL     OW 8410   2.903   4.569   4.174 -0.4979  0.5216  0.1143
35468SOL    HW1 8411   2.857   4.521   4.243  1.0189  0.9047  1.4460
35468SOL    HW2 8412   2.901   4.510   4.099  2.1662 -2.2296  1.9724
35469SOL     OW 8413   7.728   5.902  10.868  0.1834  0.0666  0.5242
35469SOL    HW1 8414   7.635   5.885  10.855  0.0762  0.5549  0.6626
35469SOL    HW2 8415   7.732   5.970  10.935  0.6484 -0.1241  0.6989
35470SOL     OW 8416   4.118   6.797   4.226 -0.2130  0.0832 -0.3435
35470SOL    HW1 8417   4.095   6.776   4.136 -2.2304  0.2509  0.0822
35470SOL    HW2 8418   4.061   6.741   4.279 -0.4854  1.3892  0.8142
35471SOL     OW 8419   4.093   0.898   9.281  0.6705 -0.6477 -0.2093
35471SOL    HW1 8420   4.051   0.829   9.228 -0.5590  0.7817 -1.1864
35471SOL    HW2 8421   4.093   0.975   9.224 -1.6884  1.2871  2.1281
35472SOL     OW 8422   2.043   8.871   2.808  0.2556  0.1745  0.2729
35472SOL    HW1 8423   2.056   8.950   2.860 -0.5747 -0.5004  1.5732
35472SOL    HW2 8424   1.971   8.893   2.748 -1.4015 -0.1732  2.0256
35473SOL     OW 8425   8.900   1.698   8.073 -0.2340 -0.6863 -0.3735
35473SOL    HW1 8426   8.806   1.705   8.060 -0.6755 -1.2098  2.1778
35473SOL    HW2 8427   8.912   1.693   8.167  2.4360  0.3575 -0.5520
35474SOL     OW 8428   3.261  10.577   6.354  0.2923 -0.4686  0.0139
35474SOL    HW1 8429   3.237  10.492   6.391 -1.6067 -0.9204 -2.0504
35474SOL    HW2 8430   3.183  10.607   6.308  1.2993  1.8570 -0.3666
35475SOL     OW 8431   3.696   2.482   4.450  0.0846  0.0308  0.9180
35475SOL    HW1 8432   3.702   2.563   4.400  0.0777 -0.6206 -0.1596
35475SOL    HW2 8433   3.602   2.461   4.451 -0.0052  0.4123  1.8341
35476SOL     OW 8434   9.323   2.928  10.998  0.3589  0.3442 -0.1167
35476SOL    HW1 8435   9.390   2.949  11.064  1.6049  0.2777 -1.3180
35476SOL    HW2 8436   9.373   2.895  10.923 -1.1440 -1.5329 -0.3843
35477SOL     OW 8437  10.337   7.785   8.003  0.2613 -0.4129 -0.4505
35477SOL    HW1 8438  10.247   7.757   7.987 -0.3365  1.1062  0.0475
35477SOL    HW2 8439  10.332   7.835   8.084  1.6625 -0.7022 -0.1514
35478SOL     OW 8440   1.539   5.947   9.346  1.1710 -0.0857  0.0676
35478SOL    HW1 8441   1.632   5.967   9.335  0.6768  2.7245  0.0280
35478SOL    HW2 8442   1.514   5.903   9.265  2.9992 -3.6862  1.2773
35479SOL     OW 8443   4.190   8.440   2.821 -0.1254  0.2670 -0.3443
35479SOL    HW1 8444   4.138   8.396   2.754 -2.2583  1.4087  0.4529
35479SOL    HW2 8445   4.246   8.371   2.857  0.0020 -0.6864 -2.2464
35480SOL     OW 8446   8.921  10.419   4.857 -0.2993 -0.6118 -0.5924
35480SOL    HW1 8447   8.828  10.406   4.878 -0.5614  2.2918  0.3736
35480SOL    HW2 8448   8.956  10.468   4.931  1.6910 -0.4729 -1.5704
35481SOL     OW 8449  10.786   3.776   1.160 -0.8124  0.1003 -0.1683
35481SOL    HW1 8450  10.700   3.793   1.123 -0.8682  1.3730  0.4937
35481SOL    HW2 8451  10.836   3.735   1.089 -1.4456  0.8714 -1.0760
35482SOL     OW 8452   0.494   7.964  10.568  0.4559 -0.0430 -0.8876
35482SOL    HW1 8453   0.400   7.948  10.578  0.5767  0.6175  2.3450
35482SOL    HW2 8454   0.526   7.890  10.517 -1.8300 -0.1708 -2.2409
35483SOL     OW 8455   1.156   4.066  10.764 -0.1541  0.2477  0.0900
35483SOL    HW1 8456   1.102   4.013  10.707  0.5067  1.2573 -1.5545
35483SOL    HW2 8457   1.093   4.118  10.816 -0.7637  0.0401 -0.4339
35484SOL     OW 8458   3.471   8.590   3.147 -0.0706  0.4106  0.0740
35484SOL    HW1 8459   3.438   8.673   3.181 -2.6306 -0.5432  0.1949
35484SOL    HW2 8460   3.434   8.524   3.207  2.4621 -0.8185  0.4077
35485SOL     OW 8461   8.667   9.854   8.102 -0.7673 -0.0658  0.4235
35485SOL    HW1 8462   8.617   9.880   8.025  0.8560  0.4290 -0.5083
35485SOL    HW2 8463   8.739   9.917   8.107 -0.2053 -0.7620  1.6870
35486SOL     OW 8464   6.198   6.330   7.867  0.3350  0.2452  0.0195
35486SOL    HW1 8465   6.235   6.306   7.782 -1.9600 -0.7657 -0.7672
35486SOL    HW2 8466   6.179   6.424   7.858 -0.9595 -0.0778 -1.0851
35487SOL     OW 8467   1.372   4.646   2.642 -0.7061  0.4327 -0.0912
35487SOL    HW1 8468   1.443   4.672   2.701 -1.6690 -1.1818  1.9035
35487SOL    HW2 8469   1.314   4.722   2.641 -0.0277  0.9665  0.0053
35488SOL     OW 8470   7.465  10.243   5.988 -0.5456 -0.1774  0.9518
35488SOL    HW1 8471   7.371  10.235   6.000 -0.3880 -0.8317  1.8205
35488SOL    HW2 8472   7.484  10.188   5.911 -0.8826  0.0341  0.7190
35489SOL     OW 8473   6.172   0.040   6.640 -0.3301  0.5802 -0.8434
35489SOL    HW1 8474   6.214   0.107   6.587  0.5010  0.8651  0.1453
35489SOL    HW2 8475   6.143   0.085   6.719  1.8459 -0.4856  0.6667
35490SOL     OW 8476   0.883   0.819   4.248 -0.5494 -0.1827  0.3711
35490SOL    HW1 8477   0.799   0.863   4.232 -0.2265  0.5543  0.6750
35490SOL    HW2 8478   0.948   0.889   4.241 -0.0320 -0.6092  0.8875
35491SOL     OW 8479   8.068   8.494  10.636 -0.2314 -0.0627 -1.2023
35491SOL    HW1 8480   8.010   8.483  10.712  0.8863 -0.9769 -0.4446
35491SOL    HW2 8481   8.019   8.457  10.563 -0.6855 -0.6599 -0.6114
35492SOL     OW 8482   9.034   3.942   8.698 -0.1568  0.2628  0.1276
35492SOL    HW1 8483   8.977   4.001   8.649  0.9784  3.0119  1.8348
35492SOL    HW2 8484   9.031   3.976   8.788  1.9475 -1.2221  0.8357
35493SOL     OW 8485   4.457   7.703   5.704 -0.3054  0.1390 -0.4135
35493SOL    HW1 8486   4.381   7.647   5.689 -0.4236  0.6173 -1.7007
35493SOL    HW2 8487   4.517   7.682   5.633  0.1159  0.8374 -0.2743
35494SOL     OW 8488   7.742   4.433   5.413  0.3630 -0.9251 -0.5875
35494SOL    HW1 8489   7.784   4.412   5.497 -1.0484 -0.9764  0.1260
35494SOL    HW2 8490   7.714   4.348   5.379 -2.6731 -0.6424  0.8717
35495SOL     OW 8491   9.603   4.387   6.968 -0.3116  0.2850  0.2832
35495SOL    HW1 8492   9.635   4.297   6.979  1.0275  0.5326 -1.2624
35495SOL    HW2 8493   9.668   4.441   7.013 -0.7918  0.5242  0.6937
35496SOL     OW 8494   0.946   2.133   7.595  0.4139  0.3754  0.7369
35496SOL    HW1 8495   0.986   2.071   7.534 -1.1142 -1.7536  1.7676
35496SOL    HW2 8496   0.880   2.178   7.542 -0.1279 -0.6543  0.4923
35497SOL     OW 8497   0.126   3.557   0.068  0.2887  0.1777 -0.0629
35497SOL    HW1 8498   0.108   3.471   0.107 -2.5591  0.4600 -0.5636
35497SOL    HW2 8499   0.099   3.549  -0.023  0.7770  1.3667 -0.3356
35498SOL     OW 8500   2.275   6.974   6.481 -0.2975 -0.0533 -0.1434
35498SOL    HW1 8501   2.349   7.021   6.519  0.7085 -0.1382 -1.8864
35498SOL    HW2 8502   2.222   7.042   6.439 -0.6138 -0.1131  0.1594
35499SOL     OW 8503  10.353   7.777   8.645 -0.2467  0.1347  0.2030
35499SOL    HW1 8504  10.343   7.870   8.622  3.5571  0.7802  0.3834
35499SOL    HW2 8505  10.392   7.738   8.567  1.5018 -0.4183  1.2889
35500SOL     OW 8506   5.015  10.354   9.433  0.0082  0.3189 -0.1146
35500SOL    HW1 8507   4.925  10.343   9.403 -0.3030  1.2893  0.4189
35500SOL    HW2 8508   5.037  10.272   9.477 -0.4252 -0.1200 -0.7096
35501SOL     OW 8509  10.708   8.079   0.021 -0.3242  0.4318  0.0734
35501SOL    HW1 8510  10.709   8.105  -0.071  1.2925  1.3554  0.2929
35501SOL    HW2 8511  10.801   8.074   0.044 -0.6273 -2.3080  1.0036
35502SOL     OW 8512   7.143   8.678   7.910 -0.1077  0.0062  0.5650
35502SOL    HW1 8513   7.143   8.769   7.939 -0.5480 -0.6450  2.8914
35502SOL    HW2 8514   7.050   8.657   7.897  0.0057 -0.0657 -0.1656
35503SOL     OW 8515  10.719   4.782   2.494  0.7856 -0.1252 -0.9562
35503SOL    HW1 8516  10.751   4.717   2.555  1.4986  0.7488 -0.3726
35503SOL    HW2 8517  10.759   4.864   2.522 -1.8283  1.0344 -0.2785
35504SOL     OW 8518   9.602   2.603  10.978 -0.2419 -0.0771 -1.0048
35504SOL    HW1 8519   9.694   2.590  10.954  0.1041  2.2156 -1.1848
35504SOL    HW2 8520   9.578   2.523  11.025  2.6900  0.3251  1.5428
35505SOL     OW 8521   8.209   6.759   1.148 -0.0168  0.2479 -0.1162
35505SOL    HW1 8522   8.143   6.753   1.217 -0.0811  1.6895 -0.0340
35505SOL    HW2 8523   8.230   6.668   1.128 -4.6215 -0.6029 -2.6517
35506SOL     OW 8524   8.851   0.188   3.163 -0.2050  0.2834 -0.7872
35506SOL    HW1 8525   8.861   0.101   3.126  1.0867 -0.9808  2.2130
35506SOL    HW2 8526   8.933   0.233   3.143 -0.2080  0.2302 -0.9179
35507SOL     OW 8527   5.222   6.895   5.370  0.1910 -1.3973 -0.1023
35507SOL    HW1 8528   5.269   6.945   5.303  0.6739 -0.4122  0.9261
35507SOL    HW2 8529   5.130   6.903   5.346  0.3943 -1.5810 -0.9832
35508SOL     OW 8530   9.030   1.643   1.889  0.0526  0.1275 -0.3559
35508SOL    HW1 8531   9.054   1.583   1.959 -0.8581 -3.6637 -2.9694
35508SOL    HW2 8532   9.110   1.692   1.869  1.3578 -1.4559  0.8031
35509SOL     OW 8533   8.895   2.280   9.865 -0.0886 -0.1847 -0.3024
35509SOL    HW1 8534   8.987   2.306   9.856  0.2654 -1.2638  0.0172
35509SOL    HW2 8535   8.880   2.279   9.960 -0.3799 -0.1767 -0.3475
35510SOL     OW 8536   4.813   6.379   5.397 -0.0066 -0.1591  0.1153
35510SOL    HW1 8537   4.845   6.292   5.373 -0.3410  0.4802 -3.1458
35510SOL    HW2 8538   4.723   6.365   5.424 -0.3287 -0.7935 -1.1970
35511SOL     OW 8539   2.040   9.970   5.479  0.1815  0.2436  0.4539
35511SOL    HW1 8540   2.003  10.057   5.459 -1.3314 -0.3805  0.3973
35511SOL    HW2 8541   2.108   9.988   5.544  0.1474  1.5082  0.1800
35512SOL     OW 8542   8.606   3.569   9.223 -0.5132 -0.2813 -0.1730
35512SOL    HW1 8543   8.648   3.487   9.198 -0.3798 -0.3900  0.4139
35512SOL    HW2 8544   8.559   3.596   9.144 -2.7752 -2.2909  0.3698
35513SOL     OW 8545   5.447   0.474   1.481 -0.5735 -0.6846 -0.4091
35513SOL    HW1 8546   5.497   0.409   1.433 -0.8419 -2.0539  1.0941
35513SOL    HW2 8547   5.369   0.489   1.428 -1.8689 -3.6945  0.4563
35514SOL     OW 8548   2.873   7.868   2.846 -0.2404  0.2645  0.0848
35514SOL    HW1 8549   2.893   7.836   2.934  0.5657  0.8446  0.1251
35514SOL    HW2 8550   2.780   7.849   2.833 -1.1300  2.7501  2.1568
35515SOL     OW 8551   6.204   5.732   0.764 -0.0949 -0.2082  0.1408
35515SOL    HW1 8552   6.242   5.648   0.738 -2.2128 -0.9021 -0.9642
35515SOL    HW2 8553   6.244   5.797   0.706  2.4409 -0.1675  1.7657
35516SOL     OW 8554   5.614   5.586   8.222  0.0561 -1.1304  0.5657
35516SOL    HW1 8555   5.686   5.646   8.202 -0.9600  0.6338  1.8897
35516SOL    HW2 8556   5.549   5.603   8.154 -0.7471  0.2585  1.6144
35517SOL     OW 8557   8.181   1.639   4.498  0.2091 -0.1742  0.3849
35517SOL    HW1 8558   8.106   1.591   4.463  1.0988 -1.2975 -0.0479
35517SOL    HW2 8559   8.169   1.638   4.593 -0.2398 -0.4872  0.3239
35518SOL     OW 8560   7.190   4.746   7.068 -0.2433 -0.6203 -0.0799
35518SOL    HW1 8561   7.267   4.718   7.018  0.0392 -1.0480  0.5939
35518SOL    HW2 8562   7.126   4.769   7.001 -0.7516 -3.5057 -0.6993
35519SOL     OW 8563   4.419   6.467   4.496 -0.2378  0.2267  0.2542
35519SOL    HW1 8564   4.413   6.488   4.589  0.8574  1.2673  0.1096
35519SOL    HW2 8565   4.352   6.522   4.455 -1.5289 -1.0724  0.5099
35520SOL     OW 8566   9.262   3.824   6.967 -0.0277  0.2797 -0.1258
35520SOL    HW1 8567   9.326   3.881   7.009 -0.0994  2.0525 -2.2366
35520SOL    HW2 8568   9.272   3.739   7.011  2.5332  0.9610  0.7636
35521SOL     OW 8569   9.943   0.410   7.122 -0.4086 -0.1173 -0.1052
35521SOL    HW1 8570   9.965   0.481   7.183 -0.6340  0.2940 -0.5017
35521SOL    HW2 8571   9.974   0.331   7.166  0.9052  0.3402 -0.1737
35522SOL     OW 8572   9.157   4.274   9.211  0.0890 -0.1173  0.3469
35522SOL    HW1 8573   9.065   4.300   9.204 -0.0010 -0.7128 -0.8244
35522SOL    HW2 8574   9.184   4.254   9.121  1.2687 -0.2795  0.7181
35523SOL     OW 8575   7.403   5.020  10.044  0.4018 -0.0260  0.2616
35523SOL    HW1 8576   7.420   5.040   9.951  0.6948 -0.3419  0.2454
35523SOL    HW2 8577   7.452   4.940  10.061  1.0014  0.4665  0.9023
35524SOL     OW 8578   3.753   8.932   0.894  0.1161 -0.4166  0.0025
35524SOL    HW1 8579   3.714   8.846   0.907  1.9161 -1.4402 -0.9190
35524SOL    HW2 8580   3.847   8.915   0.890  0.6179  1.7621  0.9650
35525SOL     OW 8581   3.265   7.894   0.808 -0.4493  0.4382  0.4262
35525SOL    HW1 8582   3.224   7.961   0.863 -1.1377  0.0390  0.4089
35525SOL    HW2 8583   3.215   7.897   0.727 -0.8278 -0.4637  0.6231
35526SOL     OW 8584   8.474   5.950   3.839  0.3086  0.2211 -0.6431
35526SOL    HW1 8585   8.504   6.029   3.884 -3.0376  1.2943  0.0008
35526SOL    HW2 8586   8.446   5.892   3.909  1.1552 -0.9005 -1.1937
35527SOL     OW 8587   7.558   0.555   9.463  1.1739 -0.9534  0.2250
35527SOL    HW1 8588   7.515   0.575   9.380  0.9426 -2.0699  0.0682
35527SOL    HW2 8589   7.583   0.641   9.498 -0.2500 -0.3535 -0.1722
35528SOL     OW 8590   2.071   7.731   4.649 -0.1202  0.6657 -0.1692
35528SOL    HW1 8591   2.074   7.826   4.659  0.9270  0.6228 -0.0124
35528SOL    HW2 8592   2.139   7.698   4.707 -0.4583 -0.1834 -0.2381
35529SOL     OW 8593  10.729   9.820   7.864 -0.1463  0.0870 -0.5162
35529SOL    HW1 8594  10.657   9.882   7.870  1.7795  2.5987 -1.4941
35529SOL    HW2 8595  10.760   9.827   7.773  2.2411  0.2907  0.2311
35530SOL     OW 8596   9.305   4.310   7.858  0.2931 -0.3085  0.6390
35530SOL    HW1 8597   9.340   4.383   7.807  0.8986  0.0445  1.5373
35530SOL    HW2 8598   9.218   4.294   7.821  0.6113  0.1132 -0.3145
35531SOL     OW 8599   7.266   5.658   8.740 -0.1027  0.0064  0.0976
35531SOL    HW1 8600   7.224   5.598   8.678  1.2416 -1.2747  0.3755
35531SOL    HW2 8601   7.254   5.617   8.825 -0.8310  1.1215  0.5496
35532SOL     OW 8602   0.156   3.069   2.989  0.6302 -0.1525 -0.2435
35532SOL    HW1 8603   0.241   3.050   3.028  0.2306 -0.3959  0.5140
35532SOL    HW2 8604   0.150   3.009   2.914  1.5124  0.5089 -0.8708
35533SOL     OW 8605   8.197   1.770   2.855 -0.2342  0.1483 -0.2637
35533SOL    HW1 8606   8.123   1.748   2.912  1.2801 -2.2903  0.9633
35533SOL    HW2 8607   8.268   1.789   2.916  0.8328 -0.2245 -1.3618
35534SOL     OW 8608   4.220   7.749   3.290  0.1919 -0.3344  0.5783
35534SOL    HW1 8609   4.155   7.697   3.243  0.9875 -0.3961 -0.4989
35534SOL    HW2 8610   4.285   7.685   3.319  1.2135  0.0222 -0.8153
35535SOL     OW 8611   6.809   7.993   5.838  0.3191 -0.2090  0.4912
35535SOL    HW1 8612   6.849   7.915   5.877 -0.3109 -1.3459 -1.0148
35535SOL    HW2 8613   6.735   8.014   5.895  0.1625 -1.0642  0.6152
35536SOL     OW 8614   4.836   0.529   5.435  0.2327  0.5478  1.1064
35536SOL    HW1 8615   4.927   0.519   5.407  0.3974  1.7602  1.1305
35536SOL    HW2 8616   4.829   0.622   5.456 -1.1072  0.5288  0.7768
35537SOL     OW 8617   5.344   1.280   5.597  0.6620 -0.6837  0.0558
35537SOL    HW1 8618   5.319   1.370   5.579  1.7559  0.1185  2.2124
35537SOL    HW2 8619   5.436   1.275   5.569  0.3786 -1.3973 -0.8030
35538SOL     OW 8620   5.330   3.239   4.593 -0.5729 -0.3409 -0.2982
35538SOL    HW1 8621   5.248   3.268   4.635  0.2123 -0.6962  1.5979
35538SOL    HW2 8622   5.387   3.316   4.597 -0.4608 -0.4041 -0.6584
35539SOL     OW 8623   4.726   4.453   0.161  0.0951  0.3622  0.2040
35539SOL    HW1 8624   4.719   4.378   0.220 -0.2172 -0.2745 -0.6099
35539SOL    HW2 8625   4.654   4.510   0.185  0.8616  0.8618  1.4294
35540SOL     OW 8626   1.859  10.846   6.767 -0.1899 -0.2204 -0.5185
35540SOL    HW1 8627   1.825  10.924   6.724  0.7406  0.0029 -0.8827
35540SOL    HW2 8628   1.786  10.784   6.766 -0.5023  0.1432 -1.5090
35541SOL     OW 8629   6.772   1.938   4.428  0.8543 -0.2409 -0.0049
35541SOL    HW1 8630   6.761   1.986   4.510  0.1382 -0.3083 -0.0594
35541SOL    HW2 8631   6.739   1.850   4.447  0.1711 -0.1006 -0.5235
35542SOL     OW 8632   9.346   6.720   2.158 -0.2657 -0.0138 -0.5522
35542SOL    HW1 8633   9.414   6.684   2.215 -0.2049  1.0887  0.0917
35542SOL    HW2 8634   9.395   6.768   2.091 -0.3940  0.4970 -0.2819
35543SOL     OW 8635   3.078   0.430   8.431 -0.4156 -0.8991  0.4120
35543SOL    HW1 8636   3.111   0.477   8.354  1.1594 -1.7682  0.5054
35543SOL    HW2 8637   3.038   0.498   8.485  1.1440  0.2421  0.2037
35544SOL     OW 8638  11.070   7.807   7.904 -0.2320 -0.4515 -0.0035
35544SOL    HW1 8639  11.062   7.847   7.817 -1.3796  1.6189  0.9994
35544SOL    HW2 8640  11.040   7.717   7.891  1.3220 -0.7562 -2.0965
35545SOL     OW 8641   1.319   0.246   0.192 -0.0115  0.5898  0.1418
35545SOL    HW1 8642   1.378   0.252   0.267  0.8819 -1.6242 -0.2861
35545SOL    HW2 8643   1.317   0.334   0.156  3.1657  0.7699  0.1325
35546SOL     OW 8644   9.322   9.997   9.059 -0.5401 -0.4188  0.4054
35546SOL    HW1 8645   9.330   9.907   9.028 -0.3862  0.0926 -1.0843
35546SOL    HW2 8646   9.301  10.049   8.981  2.8739  1.3654  0.4877
35547SOL     OW 8647   0.217   7.301  10.502  0.4585  0.2225  0.1951
35547SOL    HW1 8648   0.131   7.275  10.533  1.7989 -2.2400  2.2142
35547SOL    HW2 8649   0.227   7.392  10.532 -1.5350  0.6870 -0.4355
35548SOL     OW 8650  10.957   6.551   0.142 -0.4853  0.3111  0.0703
35548SOL    HW1 8651  10.994   6.532   0.228 -0.9337  1.2369  0.4871
35548SOL    HW2 8652  10.926   6.467   0.110  2.0678 -0.5528 -0.3709
35549SOL     OW 8653   8.150   4.230   5.610 -0.2296  0.1184  0.2038
35549SOL    HW1 8654   8.157   4.219   5.515  0.0457  0.8409  0.1370
35549SOL    HW2 8655   8.173   4.144   5.645  2.4100  0.5338 -0.2914
35550SOL     OW 8656  10.606  10.123   4.859  0.4223 -1.1924  0.5002
35550SOL    HW1 8657  10.637  10.106   4.770  2.5030 -0.5309  1.0458
35550SOL    HW2 8658  10.511  10.126   4.851  0.4551  3.6713 -2.7330
35551SOL     OW 8659   6.424   9.396  10.600  0.1671 -0.1374 -0.0080
35551SOL    HW1 8660   6.444   9.424  10.689  1.2173 -0.6684 -0.0670
35551SOL    HW2 8661   6.407   9.302  10.606 -1.1730  0.0724 -0.1599
35552SOL     OW 8662   3.316   8.752   7.722 -0.1320  0.2573  0.0691
35552SOL    HW1 8663   3.241   8.696   7.703  1.0849 -1.7758  1.0037
35552SOL    HW2 8664   3.387   8.715   7.670  0.8016  0.6822  1.0150
35553SOL     OW 8665   7.830   2.560   6.047 -0.0081  0.4355 -0.3427
35553SOL    HW1 8666   7.756   2.516   6.006  0.3195  0.4835 -0.9977
35553SOL    HW2 8667   7.868   2.613   5.977  1.2020 -0.2901 -0.2591
35554SOL     OW 8668   9.542   9.621   1.666  0.5834 -0.3136  0.2582
35554SOL    HW1 8669   9.540   9.526   1.650  0.0368 -0.1223 -0.8743
35554SOL    HW2 8670   9.610   9.632   1.733  0.0727 -1.5906  1.0256
35555SOL     OW 8671   1.660   2.009   9.751  0.5041 -0.5643  0.3177
35555SOL    HW1 8672   1.637   2.063   9.676  1.8106  0.7286  0.7853
35555SOL    HW2 8673   1.597   1.938   9.751 -0.0146 -0.1370 -1.5152
35556SOL     OW 8674   8.591   3.087   7.893 -0.5299 -0.3733  0.3640
35556SOL    HW1 8675   8.540   3.048   7.822 -1.6650 -1.0567  1.5173
35556SOL    HW2 8676   8.680   3.055   7.879 -1.0398 -1.7344  0.1055
35557SOL     OW 8677   4.925  10.393   2.994  0.0183  0.1062  0.3064
35557SOL    HW1 8678   4.985  10.323   2.973 -1.3869 -0.8549 -0.7351
35557SOL    HW2 8679   4.905  10.383   3.087 -0.7850 -1.4171 -0.0043
35558SOL     OW 8680   8.488   3.669   3.884  0.1224 -0.6857  0.8894
35558SOL    HW1 8681   8.451   3.615   3.954 -0.4953 -1.1417  0.2279
35558SOL    HW2 8682   8.503   3.754   3.925  0.9391 -1.2940  1.9012
35559SOL     OW 8683   0.626   9.324   7.214 -0.3930 -0.6944 -0.1822
35559SOL    HW1 8684   0.598   9.325   7.306 -1.9898  0.5581 -0.6358
35559SOL    HW2 8685   0.672   9.407   7.203  0.9649 -1.4293 -0.2043
35560SOL     OW 8686   3.207   0.387   1.337 -0.6827  0.1078  0.6354
35560SOL    HW1 8687   3.131   0.346   1.296 -1.2660  1.3883  0.3729
35560SOL    HW2 8688   3.259   0.314   1.370  0.3156 -1.1275 -3.1163
35561SOL     OW 8689   6.248   1.845   7.423  0.5377 -0.5311  0.6437
35561SOL    HW1 8690   6.212   1.873   7.508  0.3251 -1.8175  0.9909
35561SOL    HW2 8691   6.171   1.829   7.368  0.5429 -2.4671  1.1254
35562SOL     OW 8692   0.900   6.837   7.569  0.1403  0.4095 -0.1827
35562SOL    HW1 8693   0.874   6.768   7.629 -0.5424 -1.4035 -2.4021
35562SOL    HW2 8694   0.980   6.873   7.607  0.9915 -2.1588  0.6955
35563SOL     OW 8695   2.314   4.697   6.571  0.4267  0.2393  0.5878
35563SOL    HW1 8696   2.330   4.622   6.627  0.7435  0.3479  0.6483
35563SOL    HW2 8697   2.245   4.747   6.616 -0.6519 -0.6342 -0.0635
35564SOL     OW 8698   7.989   7.657   9.534 -0.1252  0.1783  0.1267
35564SOL    HW1 8699   8.079   7.630   9.515  0.3214 -0.3661  2.5720
35564SOL    HW2 8700   7.945   7.660   9.449  1.3076 -2.8185 -0.8443
35565SOL     OW 8701   3.237   7.000  10.429  0.4061  0.0873  0.0420
35565SOL    HW1 8702   3.310   7.019  10.488  1.4645 -4.5665  0.6130
35565SOL    HW2 8703   3.159   7.023  10.480  1.3905  0.1480  1.6144
35566SOL     OW 8704   3.190  10.451   4.058  0.1128  0.1762 -0.3807
35566SOL    HW1 8705   3.138  10.459   4.139  1.1954 -0.0287  0.3555
35566SOL    HW2 8706   3.125  10.431   3.990 -0.6342 -1.5535  0.7580
35567SOL     OW 8707   6.516   4.133   0.802 -0.2492  0.2373  0.8651
35567SOL    HW1 8708   6.499   4.045   0.771  0.2387 -0.0920  1.4996
35567SOL    HW2 8709   6.430   4.175   0.805 -0.2884  0.3795 -1.1480
35568SOL     OW 8710   5.736   6.585   4.368  0.1425  0.0765 -0.6951
35568SOL    HW1 8711   5.783   6.518   4.317  1.1649  0.9284 -0.9072
35568SOL    HW2 8712   5.647   6.584   4.331  1.0517  1.2267 -3.1243
35569SOL     OW 8713   4.470   1.396   4.269  0.1418  0.1219  0.1536
35569SOL    HW1 8714   4.443   1.440   4.188 -1.2092  0.1465  0.5835
35569SOL    HW2 8715   4.503   1.311   4.240  1.0192  0.6816 -0.5308
35570SOL     OW 8716   4.204   2.119   8.821 -0.2125 -0.1610  0.0176
35570SOL    HW1 8717   4.193   2.119   8.916 -1.8348  0.5424 -0.1216
35570SOL    HW2 8718   4.284   2.069   8.805 -0.6852 -1.5482  1.6741
35571SOL     OW 8719   4.624   3.328   8.695 -0.1041  1.0015  0.1564
35571SOL    HW1 8720   4.565   3.253   8.686 -1.8285  2.4215 -1.1302
35571SOL    HW2 8721   4.709   3.290   8.717 -1.2274 -1.2094  0.8837
35572SOL     OW 8722   9.686   2.130   7.609 -0.0870 -0.2066 -0.4544
35572SOL    HW1 8723   9.761   2.188   7.598 -0.4176  0.6853  1.6128
35572SOL    HW2 8724   9.671   2.094   7.521  0.6375  2.2044 -1.6688
35573SOL     OW 8725   0.706   4.035   8.172 -0.1008  0.2452 -0.2041
35573SOL    HW1 8726   0.706   4.130   8.161  1.1329  0.1246 -1.5678
35573SOL    HW2 8727   0.626   4.006   8.128  0.5423  0.5139 -1.6177
35574SOL     OW 8728   1.768   4.636   2.139 -0.8045 -0.0441  0.5255
35574SOL    HW1 8729   1.854   4.631   2.097 -0.0483  2.4688  1.6179
35574SOL    HW2 8730   1.706   4.615   2.070  0.6292 -1.6461 -0.3575
35575SOL     OW 8731   0.777   0.139   3.289 -0.0167 -0.5383  0.1833
35575SOL    HW1 8732   0.764   0.089   3.369 -0.7044  0.3526  0.6381
35575SOL    HW2 8733   0.871   0.132   3.272 -0.3500 -3.7531 -0.9665
35576SOL     OW 8734   4.467   0.071   3.447 -0.0290 -0.3793  0.1139
35576SOL    HW1 8735   4.521   0.147   3.427  0.9617 -1.5634 -2.1638
35576SOL    HW2 8736   4.490   0.007   3.379 -2.5914 -1.8218  0.4688
35577SOL     OW 8737  10.057   2.325   7.626 -0.1734 -0.1838 -0.2697
35577SOL    HW1 8738  10.110   2.296   7.551 -3.3640 -0.5410 -2.6061
35577SOL    HW2 8739  10.056   2.250   7.685  0.8060 -0.6623 -0.8367
35578SOL     OW 8740   9.283   6.252   1.952 -0.0232 -0.1022 -0.2316
35578SOL    HW1 8741   9.223   6.292   2.014  1.9722  0.7070  1.3044
35578SOL    HW2 8742   9.295   6.318   1.883  0.5738  0.5565  0.4815
35579SOL     OW 8743   3.932   6.072   6.619  0.2293  0.2606 -0.4414
35579SOL    HW1 8744   3.852   6.054   6.669  0.2820  0.9617 -0.0938
35579SOL    HW2 8745   3.903   6.128   6.548  0.1921 -0.5713 -1.1007
35580SOL     OW 8746   4.632   1.408   7.763  0.1428  0.4827  0.1024
35580SOL    HW1 8747   4.651   1.373   7.676  0.4141 -1.0588  0.7508
35580SOL    HW2 8748   4.601   1.332   7.813 -2.5990  1.7970  0.6248
35581SOL     OW 8749   8.085   3.757   2.376 -0.2434  0.3079  0.0151
35581SOL    HW1 8750   8.113   3.841   2.342 -0.4658  0.2133 -0.4073
35581SOL    HW2 8751   8.084   3.769   2.471 -2.4302  1.5028 -0.0945
35582SOL     OW 8752   8.728   3.838   7.669 -0.5041 -0.4183  0.1491
35582SOL    HW1 8753   8.640   3.823   7.634 -0.0068 -0.6179 -1.0406
35582SOL    HW2 8754   8.757   3.751   7.696  0.3574 -0.8208 -1.9524
35583SOL     OW 8755   6.824   1.158   2.100 -0.5845  0.3975  0.4655
35583SOL    HW1 8756   6.856   1.083   2.050 -1.5990 -0.6471  1.3388
35583SOL    HW2 8757   6.728   1.153   2.093 -0.6829  1.3768  0.8779
35584SOL     OW 8758   8.320   0.138   5.748 -0.9255  0.2768 -0.2363
35584SOL    HW1 8759   8.358   0.207   5.694  0.8420 -1.2848 -1.1175
35584SOL    HW2 8760   8.232   0.125   5.712 -0.4318  0.4945 -1.5937
35585SOL     OW 8761   9.548   2.721   2.035 -0.3922  0.1197  0.7059
35585SOL    HW1 8762   9.483   2.704   2.103 -1.9424 -1.1280 -1.0172
35585SOL    HW2 8763   9.594   2.800   2.065 -2.2585  0.6738  2.2752
35586SOL     OW 8764   6.218   2.996  10.911  0.4298 -0.4665  0.5664
35586SOL    HW1 8765   6.295   2.961  10.865  1.5561  0.6020  1.5471
35586SOL    HW2 8766   6.144   2.951  10.871  1.5004 -1.0009 -0.9396
35587SOL     OW 8767   2.953   8.624   8.302 -0.4455  0.0371  0.7557
35587SOL    HW1 8768   2.981   8.630   8.393  0.1223 -0.6649  0.6239
35587SOL    HW2 8769   2.958   8.715   8.270 -0.4297  0.2512  1.3505
35588SOL     OW 8770   9.702   7.462   7.555  0.1480  0.6601  0.5204
35588SOL    HW1 8771   9.709   7.515   7.634  1.8436 -0.6778  1.3629
35588SOL    HW2 8772   9.675   7.376   7.587 -3.2103  1.0643 -0.8763
35589SOL     OW 8773   4.252   0.291   2.918  0.1879 -0.2599  0.2416
35589SOL    HW1 8774   4.270   0.284   3.012 -0.8561 -1.6243  0.3692
35589SOL    HW2 8775   4.338   0.302   2.878  0.6474  0.4325  1.3456
35590SOL     OW 8776   5.278   4.169  10.870 -0.5189  0.4882 -0.4828
35590SOL    HW1 8777   5.227   4.099  10.910  0.2779 -0.6440 -1.3821
35590SOL    HW2 8778   5.362   4.167  10.917 -0.0479  0.0069 -1.3276
35591SOL     OW 8779   9.484   6.048   4.610 -0.1971 -0.1505 -0.8277
35591SOL    HW1 8780   9.404   6.071   4.562 -0.1794 -0.2947 -0.9280
35591SOL    HW2 8781   9.455   5.984   4.675 -0.1873 -0.1011 -0.7750
35592SOL     OW 8782   5.211   3.649   9.227  0.5272  0.5466  0.3707
35592SOL    HW1 8783   5.258   3.732   9.236 -0.7561  1.1407  2.5180
35592SOL    HW2 8784   5.127   3.673   9.189 -0.1579  0.4017  1.7236
35593SOL     OW 8785   8.837   4.295   3.774 -0.2953  0.3188  0.3272
35593SOL    HW1 8786   8.887   4.333   3.702  1.0326 -1.9123 -0.0255
35593SOL    HW2 8787   8.758   4.261   3.733  0.4926 -1.0135 -0.1571
35594SOL     OW 8788   8.578   6.104   5.371 -0.2345 -0.2201 -0.7587
35594SOL    HW1 8789   8.534   6.133   5.290  1.3322  1.5602 -1.0417
35594SOL    HW2 8790   8.527   6.028   5.399 -2.5846  0.8204 -1.8521
35595SOL     OW 8791   7.081   9.106   5.000  0.2256 -0.3190  0.2588
35595SOL    HW1 8792   7.116   9.165   4.933  0.0434 -2.2791 -1.7090
35595SOL    HW2 8793   6.986   9.112   4.991  0.1460  0.6577  1.5551
35596SOL     OW 8794   6.280   3.297   5.908  0.2537  0.5581  0.3597
35596SOL    HW1 8795   6.242   3.353   5.840  1.6607 -0.8033 -1.6376
35596SOL    HW2 8796   6.340   3.354   5.955  0.8904  1.0203 -0.9663
35597SOL     OW 8797  10.426   4.748  10.248  0.1723 -0.1386 -0.6980
35597SOL    HW1 8798  10.448   4.824  10.195 -2.6413  1.6494  0.4500
35597SOL    HW2 8799  10.500   4.737  10.307  1.0319  1.1615 -1.4919
35598SOL     OW 8800  10.403   8.064   6.704  0.5215 -0.8192 -0.3758
35598SOL    HW1 8801  10.430   8.044   6.793  0.4270 -1.3449 -0.4597
35598SOL    HW2 8802  10.485   8.069   6.654  0.5463 -1.0056 -0.3534
35599SOL     OW 8803   3.121   3.739   9.348  0.2079 -0.5375  0.3918
35599SOL    HW1 8804   3.113   3.834   9.337 -0.9118 -0.5462  0.9241
35599SOL    HW2 8805   3.136   3.706   9.260  0.5286  0.1173  0.1851
35600SOL     OW 8806   4.290   3.005   8.434 -0.3671 -0.2777 -0.3799
35600SOL    HW1 8807   4.322   2.983   8.522 -1.6309  1.1623  0.4988
35600SOL    HW2 8808   4.357   2.971   8.375  0.1844 -1.9210  1.0783
35601SOL     OW 8809   9.484   2.950   1.556  0.3332 -0.1703 -0.2382
35601SOL    HW1 8810   9.492   2.862   1.518 -1.2938  0.6703 -2.7336
35601SOL    HW2 8811   9.535   3.006   1.498  0.7831  0.6739  0.9382
35602SOL     OW 8812   8.112   9.543  10.402  0.2031  0.1729  0.0142
35602SOL    HW1 8813   8.097   9.531  10.308 -1.2421  0.8618  0.1331
35602SOL    HW2 8814   8.200   9.507  10.417 -0.0425 -1.0918 -1.3659
35603SOL     OW 8815   1.289   7.537   3.782 -0.0386  0.1571  0.4118
35603SOL    HW1 8816   1.229   7.547   3.856  0.5142  0.2494  0.8626
35603SOL    HW2 8817   1.260   7.457   3.738  1.2888 -1.5229  2.3677
35604SOL     OW 8818   0.522   1.333   1.963 -0.1730 -0.3397  0.1128
35604SOL    HW1 8819   0.550   1.359   1.875 -2.8160  1.9370 -0.1926
35604SOL    HW2 8820   0.596   1.283   1.998  1.6581  0.1482 -2.7304
35605SOL     OW 8821   9.548  10.394   2.394 -0.4887  0.0276 -0.8481
35605SOL    HW1 8822   9.608  10.321   2.406 -0.3353  0.2940  0.0739
35605SOL    HW2 8823   9.587  10.466   2.444 -1.7357  0.1098  0.0562
35606SOL     OW 8824   9.566   9.892   5.248 -0.5690  0.7977 -0.3074
35606SOL    HW1 8825   9.485   9.842   5.241  0.4866 -0.8554 -1.2963
35606SOL    HW2 8826   9.542   9.981   5.221 -2.0094  0.2765 -0.7954
35607SOL     OW 8827   7.518  10.021   1.170 -0.0973  0.4262  0.0113
35607SOL    HW1 8828   7.595  10.005   1.115  0.8533 -1.9690  1.8653
35607SOL    HW2 8829   7.547  10.084   1.235  0.8790 -1.5326  1.5888
35608SOL     OW 8830  10.994   2.806   4.552 -0.0975 -0.1023  0.7030
35608SOL    HW1 8831  11.075   2.762   4.526  0.1595  0.0311  1.2648
35608SOL    HW2 8832  10.964   2.758   4.629 -0.7324 -0.3505  0.3165
35609SOL     OW 8833   3.037  10.660   0.225  0.7106 -0.1058  0.6042
35609SOL    HW1 8834   2.986  10.703   0.157  1.5615  2.1408  1.2937
35609SOL    HW2 8835   3.124  10.650   0.188  0.7927 -0.2862  0.8377
35610SOL     OW 8836   4.022   8.198   0.934  0.1181 -0.2715 -0.3445
35610SOL    HW1 8837   4.039   8.274   0.990  0.6540  0.3104 -1.2611
35610SOL    HW2 8838   3.935   8.168   0.959 -0.4360  1.1342 -0.5156
35611SOL     OW 8839   3.621   1.328   1.166  0.2104 -0.2905 -0.4081
35611SOL    HW1 8840   3.621   1.344   1.261  0.2083 -0.3109 -0.4046
35611SOL    HW2 8841   3.552   1.263   1.153  0.3234 -0.4095 -0.4035
35612SOL     OW 8842   3.077  10.699   8.517  0.7400  0.4155  0.5362
35612SOL    HW1 8843   3.139  10.742   8.577  1.3684  0.4274 -0.0991
35612SOL    HW2 8844   3.127  10.627   8.479 -0.4606 -1.2156  1.9498
35613SOL     OW 8845   3.750   5.900   1.389 -0.3302 -0.0315 -0.1015
35613SOL    HW1 8846   3.844   5.920   1.387 -0.0693 -1.1941 -1.3040
35613SOL    HW2 8847   3.735   5.865   1.477 -0.1073  2.0800  0.8395
35614SOL     OW 8848  11.032   8.676   7.382 -0.1259  0.2076 -0.2424
35614SOL    HW1 8849  11.008   8.766   7.359 -0.6830  0.3598  0.8929
35614SOL    HW2 8850  11.101   8.653   7.319 -0.5806  1.1153 -1.0928
35615SOL     OW 8851   5.878  11.023   6.697 -0.2653 -0.0910 -0.2137
35615SOL    HW1 8852   5.934  10.956   6.658 -1.0071 -0.1389 -1.2235
35615SOL    HW2 8853   5.796  10.978   6.717 -0.0459  0.0249  1.0883
35616SOL     OW 8854   5.523   5.156   5.853  0.6770  0.1164  0.6609
35616SOL    HW1 8855   5.436   5.134   5.819  0.4287 -0.0222  1.3615
35616SOL    HW2 8856   5.571   5.191   5.778  0.6036 -1.4545 -0.1570
35617SOL     OW 8857   3.203   8.658   6.624  0.0044  0.5269 -0.8772
35617SOL    HW1 8858   3.184   8.639   6.716 -1.4036 -0.3071 -1.2941
35617SOL    HW2 8859   3.223   8.751   6.622 -0.1235  0.5922  0.2579
35618SOL     OW 8860   1.410   9.885   5.744 -0.5832  0.1372  0.3917
35618SOL    HW1 8861   1.387   9.824   5.814 -0.7206 -0.8758 -0.5118
35618SOL    HW2 8862   1.370   9.848   5.666  1.7289 -0.1914 -0.7269
35619SOL     OW 8863  11.035   2.269   7.309  0.2748  0.5635  0.0001
35619SOL    HW1 8864  11.122   2.298   7.335 -0.6798  2.7645  0.9336
35619SOL    HW2 8865  11.050   2.218   7.229  2.4505  0.4167  0.4396
35620SOL     OW 8866   8.515   2.740   9.621 -0.6210  0.1684 -0.0649
35620SOL    HW1 8867   8.436   2.687   9.632  0.2940 -1.1533  0.4222
35620SOL    HW2 8868   8.583   2.693   9.670  1.1669 -0.2859 -2.7587
35621SOL     OW 8869   0.893  10.542   9.043 -0.2172 -0.4565 -0.2967
35621SOL    HW1 8870   0.830  10.469   9.041 -0.3749 -0.3176 -1.0147
35621SOL    HW2 8871   0.841  10.618   9.017  0.0191 -0.1494  0.1426
35622SOL     OW 8872  10.781   6.219   2.648  0.3609 -0.2196  0.2031
35622SOL    HW1 8873  10.823   6.208   2.733 -1.8606 -0.2797  1.3754
35622SOL    HW2 8874  10.724   6.295   2.659  1.3776  0.9240 -1.8412
35623SOL     OW 8875   7.842   5.146   7.729 -0.0481 -0.3032  0.3631
35623SOL    HW1 8876   7.772   5.209   7.748 -0.4706 -0.6335 -0.0578
35623SOL    HW2 8877   7.804   5.061   7.752  0.0391 -0.5357 -0.3336
35624SOL     OW 8878   5.473   2.537   2.149  0.4663 -0.5011 -0.0307
35624SOL    HW1 8879   5.385   2.499   2.156  0.4956 -0.8387 -1.2727
35624SOL    HW2 8880   5.468   2.619   2.198 -0.4369 -0.6888  0.2137
35625SOL     OW 8881  10.995   7.928   7.697 -0.0878 -0.1991 -0.4195
35625SOL    HW1 8882  11.012   8.012   7.655 -0.0489  0.2182  0.4078
35625SOL    HW2 8883  10.976   7.868   7.625 -0.2736  0.5546 -1.0082
35626SOL     OW 8884   5.792   6.314   2.754 -0.9658 -0.8361 -0.2430
35626SOL    HW1 8885   5.811   6.232   2.708 -0.7157 -0.7331 -0.3287
35626SOL    HW2 8886   5.877   6.339   2.792 -1.2168 -1.0450  0.4761
35627SOL     OW 8887   2.365   7.305   3.430 -0.0152  0.2593 -0.3248
35627SOL    HW1 8888   2.449   7.306   3.384 -0.2076  1.5759 -0.6956
35627SOL    HW2 8889   2.333   7.216   3.420  1.8025 -0.5752  0.7121
35628SOL     OW 8890   7.048   9.119  10.857  0.4430  0.1151  0.0479
35628SOL    HW1 8891   7.050   9.121  10.761 -1.1818 -0.2359 -0.0249
35628SOL    HW2 8892   7.087   9.035  10.880  2.3029  0.8606 -0.2006
35629SOL     OW 8893   6.510   6.808   1.256  0.4415 -0.1447  0.1601
35629SOL    HW1 8894   6.443   6.772   1.314  0.4696 -0.3047  0.0914
35629SOL    HW2 8895   6.514   6.901   1.280 -2.5235  0.8018 -2.4105
35630SOL     OW 8896   5.167  10.999  10.231 -0.2463  0.2609  0.1828
35630SOL    HW1 8897   5.178  10.989  10.136  0.3362 -2.0354  0.4334
35630SOL    HW2 8898   5.246  11.044  10.260 -0.2555  0.6386 -0.3521
35631SOL     OW 8899   0.614   4.751   8.545 -0.2995  1.6072  0.5233
35631SOL    HW1 8900   0.553   4.787   8.481 -1.7447 -2.9358 -1.1030
35631SOL    HW2 8901   0.565   4.750   8.627 -0.5697  2.3746  0.3759
35632SOL     OW 8902  11.045   4.136   0.290 -0.1980  0.0357 -0.8216
35632SOL    HW1 8903  11.136   4.117   0.268  0.4148 -0.1021  1.5767
35632SOL    HW2 8904  10.994   4.080   0.232  1.2947 -1.0359 -1.1435
35633SOL     OW 8905   8.340   9.047   9.834 -0.5450 -0.0034 -0.5401
35633SOL    HW1 8906   8.279   9.069   9.904 -0.9991  0.4654 -1.0722
35633SOL    HW2 8907   8.426   9.043   9.877 -0.2319  3.6176 -0.4599
35634SOL     OW 8908   8.416  10.127   4.180  0.2980  0.4137  0.9792
35634SOL    HW1 8909   8.324  10.153   4.186  0.2263  0.5077 -0.2068
35634SOL    HW2 8910   8.450  10.138   4.269 -1.3678 -1.7293  1.9731
35635SOL     OW 8911   2.047   5.465   4.839 -0.6337  0.1421  0.4818
35635SOL    HW1 8912   2.125   5.487   4.789 -0.3028 -0.4615  0.7242
35635SOL    HW2 8913   1.976   5.514   4.796 -0.4160 -0.6002 -0.7714
35636SOL     OW 8914   9.309   4.487   2.359 -0.1915  0.4130 -0.4878
35636SOL    HW1 8915   9.235   4.444   2.315 -1.4483  1.6261  0.3439
35636SOL    HW2 8916   9.268   4.552   2.416  1.5281  0.9179  0.2347
35637SOL     OW 8917   2.523   6.544   5.951 -0.0006 -0.5367  0.0712
35637SOL    HW1 8918   2.514   6.611   5.884 -0.8924  0.5418  1.2309
35637SOL    HW2 8919   2.489   6.464   5.910 -1.0203  0.2102 -0.5798
35638SOL     OW 8920   3.645   7.093   0.894 -0.3485 -0.1508 -0.8473
35638SOL    HW1 8921   3.693   7.012   0.907 -0.2649  0.1916  1.2606
35638SOL    HW2 8922   3.554   7.066   0.886 -0.1294 -0.5791 -2.1564
35639SOL     OW 8923   8.402   2.541  10.761 -0.0634 -0.3551 -0.2275
35639SOL    HW1 8924   8.343   2.599  10.713 -0.4047 -0.4138  0.1152
35639SOL    HW2 8925   8.344   2.489  10.817  0.3743  0.1714  0.7365
35640SOL     OW 8926  10.905   8.631   5.982 -0.5450  0.4601  0.1076
35640SOL    HW1 8927  10.841   8.565   6.009  0.2294 -0.6210 -0.5912
35640SOL    HW2 8928  10.868   8.669   5.902 -1.1715  1.1553  0.7178
35641SOL     OW 8929   9.935   9.730   7.826  0.5060 -0.1425  0.5445
35641SOL    HW1 8930   9.948   9.679   7.746 -0.8895 -1.0892  0.8703
35641SOL    HW2 8931  10.019   9.726   7.871  1.9087  1.9386 -1.6579
35642SOL     OW 8932   1.129   2.544   7.107 -0.0508 -0.0071  0.0996
35642SOL    HW1 8933   1.170   2.499   7.033 -0.1218 -0.9273  0.6130
35642SOL    HW2 8934   1.127   2.479   7.177 -1.5814  0.2834  0.3672
35643SOL     OW 8935   7.731   8.107  10.029  0.1149 -0.1189  0.1246
35643SOL    HW1 8936   7.818   8.146  10.029  0.4069 -0.7418 -0.7772
35643SOL    HW2 8937   7.744   8.017  10.060 -0.0500 -0.5062 -0.8755
35644SOL     OW 8938  10.053  10.737  10.323  0.6902  0.6403 -0.4794
35644SOL    HW1 8939  10.145  10.762  10.326  1.0455 -0.6079 -0.2365
35644SOL    HW2 8940  10.035  10.702  10.410  0.5263 -0.8929 -1.1027
35645SOL     OW 8941   8.346   0.364   8.226 -0.6113 -0.2578  0.0774
35645SOL    HW1 8942   8.281   0.332   8.164 -0.8996 -0.5836  0.5426
35645SOL    HW2 8943   8.381   0.285   8.267  0.0368 -0.0812 -0.1282
35646SOL     OW 8944   1.525   5.138   0.707 -0.1772  0.9895 -0.9828
35646SOL    HW1 8945   1.459   5.201   0.736 -2.4501 -2.0071  1.0274
35646SOL    HW2 8946   1.586   5.131   0.781  0.9812  1.8445 -1.8114
35647SOL     OW 8947   9.340   5.849   4.774  0.0478 -0.1254 -0.0711
35647SOL    HW1 8948   9.252   5.868   4.742 -0.1160 -0.7354  0.0108
35647SOL    HW2 8949   9.341   5.754   4.787  1.1134 -0.3111 -1.2848
35648SOL     OW 8950   1.767   4.425   0.751 -0.4245 -0.2438  0.0040
35648SOL    HW1 8951   1.767   4.339   0.708  0.9984 -0.9804  1.3521
35648SOL    HW2 8952   1.860   4.443   0.766 -0.6518  1.8980 -0.8986
35649SOL     OW 8953  10.757   5.604   0.190 -0.0880 -0.0465 -0.1268
35649SOL    HW1 8954  10.823   5.625   0.256  0.7302  0.5375 -1.0910
35649SOL    HW2 8955  10.689   5.555   0.237 -0.0512  1.2624  1.3651
35650SOL     OW 8956   8.269   4.645   3.349 -0.1448  0.2872  0.4167
35650SOL    HW1 8957   8.290   4.717   3.408 -1.5278  2.1816 -1.2718
35650SOL    HW2 8958   8.235   4.576   3.407 -0.1544  1.5243  1.9439
35651SOL     OW 8959   8.928   5.327   2.334  0.5861  0.5915 -0.2885
35651SOL    HW1 8960   8.856   5.292   2.281  0.1446 -1.2285  1.4018
35651SOL    HW2 8961   8.985   5.370   2.271 -0.1965 -0.9780 -2.1765
35652SOL     OW 8962   9.307   8.059   4.507 -0.2645 -0.0925  0.4641
35652SOL    HW1 8963   9.245   8.111   4.456 -0.1758  0.3065  0.7525
35652SOL    HW2 8964   9.393   8.082   4.471 -0.3521 -1.6532 -0.8353
35653SOL     OW 8965  10.193  10.816   4.183 -0.9004 -0.7119 -0.5924
35653SOL    HW1 8966  10.285  10.836   4.200 -1.3943  0.2823  1.1822
35653SOL    HW2 8967  10.154  10.900   4.158 -1.9223 -0.4238  1.7315
35654SOL     OW 8968   5.930   4.221   2.252  0.3366  0.4608  0.5671
35654SOL    HW1 8969   5.860   4.248   2.193  1.4692  2.2898 -0.0158
35654SOL    HW2 8970   5.931   4.125   2.245 -1.4074  0.4527 -0.1706
35655SOL     OW 8971   4.289   0.337   1.208 -0.3370  0.1449 -0.1798
35655SOL    HW1 8972   4.356   0.351   1.276 -0.1434  1.6854 -0.6624
35655SOL    HW2 8973   4.209   0.371   1.246 -0.8035 -1.3196  0.2307
35656SOL     OW 8974   2.886   5.415   3.784  0.1316 -0.0307  0.1642
35656SOL    HW1 8975   2.815   5.361   3.749 -0.8771  1.8095 -0.7378
35656SOL    HW2 8976   2.946   5.427   3.710 -0.0687  0.7452  0.1218
35657SOL     OW 8977   5.908   1.908   1.767  0.0647  0.0504  0.0421
35657SOL    HW1 8978   5.904   1.999   1.738 -0.0748  0.0691  0.1173
35657SOL    HW2 8979   6.001   1.888   1.773  0.0974 -0.0913 -0.8435
35658SOL     OW 8980   8.109   3.069   7.960  0.0514 -0.8084 -0.0983
35658SOL    HW1 8981   8.051   3.129   7.913  2.3712  0.1233 -1.9339
35658SOL    HW2 8982   8.156   3.124   8.021  2.0920 -0.6859 -1.6892
35659SOL     OW 8983   6.983   2.950   3.554 -0.5679  0.0039  0.3585
35659SOL    HW1 8984   7.013   2.889   3.486 -2.3248  0.5285 -0.9621
35659SOL    HW2 8985   6.887   2.944   3.551 -0.7848  2.5273  0.4368
35660SOL     OW 8986   5.063   7.156   7.845  0.6076 -0.2866 -0.2814
35660SOL    HW1 8987   5.115   7.236   7.834 -0.2294  0.5201  1.1632
35660SOL    HW2 8988   4.982   7.187   7.887 -0.1009 -1.7905 -0.4904
35661SOL     OW 8989   5.973   1.256   2.695  0.1009  0.4956 -0.1826
35661SOL    HW1 8990   5.996   1.164   2.686  0.0420  0.3276  1.1791
35661SOL    HW2 8991   5.933   1.280   2.611 -1.6425 -1.2179  0.0954
35662SOL     OW 8992  10.638   4.244   3.735  0.4509 -0.6869  0.4947
35662SOL    HW1 8993  10.659   4.308   3.668 -0.2315 -0.6915  0.2663
35662SOL    HW2 8994  10.694   4.267   3.810  0.7603 -0.3025  0.1473
35663SOL     OW 8995   0.870   9.964   9.457  0.2798 -0.4380  0.5872
35663SOL    HW1 8996   0.833  10.000   9.538 -0.2728 -0.8684  0.5360
35663SOL    HW2 8997   0.894   9.874   9.480  0.2601 -0.5126  0.3194
35664SOL     OW 8998   2.909   3.159   4.283 -0.0375  0.1457  0.1038
35664SOL    HW1 8999   2.959   3.234   4.315  1.2126 -0.4780 -0.3322
35664SOL    HW2 9000   2.890   3.107   4.361 -0.4932  0.6580  0.3409
35665SOL     OW 9001   1.341   2.918   9.133 -0.0726  0.9935  0.3486
35665SOL    HW1 9002   1.370   2.844   9.187 -1.3893  0.6816  0.6470
35665SOL    HW2 9003   1.282   2.880   9.068 -0.3503  1.7100  0.1693
35666SOL     OW 9004   1.098   5.348   0.208 -0.4796 -0.0229 -0.1474
35666SOL    HW1 9005   1.187   5.383   0.199 -1.0403  0.9820 -2.9268
35666SOL    HW2 9006   1.085   5.340   0.302  1.4636  2.7778  0.5030
35667SOL     OW 9007   9.285   1.041   2.260 -0.8174  0.2849  0.3593
35667SOL    HW1 9008   9.247   0.959   2.228  1.1133 -1.3224  1.8908
35667SOL    HW2 9009   9.214   1.105   2.252 -2.4728 -1.5687 -0.6933
35668SOL     OW 9010   3.284   3.921   8.437  0.3121  0.4684  0.3557
35668SOL    HW1 9011   3.257   4.010   8.458 -1.3214  0.3045 -0.9033
35668SOL    HW2 9012   3.364   3.931   8.385  1.3783  1.0624  2.0119
35669SOL     OW 9013   1.730   3.505   9.573 -0.0233 -0.5043 -0.3975
35669SOL    HW1 9014   1.731   3.475   9.482 -0.9289  0.4769 -0.7556
35669SOL    HW2 9015   1.647   3.473   9.608  1.2725 -2.8211  0.8253
35670SOL     OW 9016   5.153   1.982   1.023 -0.3788  0.5295  0.3848
35670SOL    HW1 9017   5.125   2.042   0.954 -0.5034 -1.3497 -1.2842
35670SOL    HW2 9018   5.209   2.035   1.080  2.3608  1.5017 -2.8778
35671SOL     OW 9019   5.516   2.924   8.612  0.0726  0.0961  0.3555
35671SOL    HW1 9020   5.591   2.978   8.588  0.4927 -0.9248 -0.7400
35671SOL    HW2 9021   5.441   2.984   8.609  0.4614  0.5516 -1.2119
35672SOL     OW 9022   6.180   1.572   7.935 -0.4579  0.2243 -0.0858
35672SOL    HW1 9023   6.249   1.567   8.001 -2.4264  0.1046  2.0983
35672SOL    HW2 9024   6.174   1.483   7.899  0.6030  0.2791 -0.4215
35673SOL     OW 9025   5.427   8.294   8.469 -0.1809  0.3408 -0.0502
35673SOL    HW1 9026   5.502   8.236   8.452  0.4279  1.0706  0.1121
35673SOL    HW2 9027   5.357   8.234   8.498  0.0029 -0.4659 -1.1975
35674SOL     OW 9028  10.198   1.124   2.582 -0.7943 -0.9438 -0.6021
35674SOL    HW1 9029  10.239   1.209   2.567 -0.0033 -1.5033 -1.7646
35674SOL    HW2 9030  10.238   1.066   2.517  0.8664 -2.9393  1.9821
35675SOL     OW 9031   0.931   9.691   6.820  0.3867  0.2478 -0.2635
35675SOL    HW1 9032   0.935   9.596   6.817  0.5830  0.2691 -1.0400
35675SOL    HW2 9033   0.929   9.713   6.913 -1.0150 -0.5551 -0.0786
35676SOL     OW 9034   7.194   8.931   7.675  0.2641 -0.5208  0.5057
35676SOL    HW1 9035   7.173   9.024   7.682  0.0247 -0.6166  1.2008
35676SOL    HW2 9036   7.256   8.915   7.746  1.6767 -0.5339 -0.7050
35677SOL     OW 9037   0.624   9.270   9.830  0.0880 -0.7303  0.1281
35677SOL    HW1 9038   0.712   9.285   9.796  0.6699 -0.8474  1.5224
35677SOL    HW2 9039   0.584   9.357   9.832  0.5870 -0.5087  0.5929
35678SOL     OW 9040   0.593   4.339   6.634  0.5084 -0.2919 -0.1045
35678SOL    HW1 9041   0.539   4.308   6.707 -0.2471 -2.9230 -1.6180
35678SOL    HW2 9042   0.541   4.408   6.594  0.9499  1.2103  1.7880
35679SOL     OW 9043   3.576   6.584   4.986  0.5006  1.1192 -0.3665
35679SOL    HW1 9044   3.583   6.577   5.081  1.6710  0.1146 -0.5152
35679SOL    HW2 9045   3.518   6.659   4.972 -0.1961  0.8856  1.1374
35680SOL     OW 9046   0.026   9.281   4.707 -0.2524  0.2776 -0.4746
35680SOL    HW1 9047   0.075   9.225   4.767 -0.1111 -0.4263 -1.2306
35680SOL    HW2 9048   0.083   9.291   4.631 -1.4627 -0.9946 -1.6020
35681SOL     OW 9049   7.505   3.763   2.718  0.9380 -1.1800 -0.3472
35681SOL    HW1 9050   7.550   3.804   2.792  1.3621 -0.0330 -1.1907
35681SOL    HW2 9051   7.418   3.803   2.718  1.1063 -0.8015 -0.7442
35682SOL     OW 9052   4.539   6.302  10.449 -0.2513 -0.4261  0.4386
35682SOL    HW1 9053   4.603   6.288  10.518  1.6695  2.5909 -0.5501
35682SOL    HW2 9054   4.480   6.369  10.483 -1.8399 -1.8485  0.6226
35683SOL     OW 9055   5.002   6.725   2.612 -0.4787  0.1141  0.5569
35683SOL    HW1 9056   5.000   6.741   2.707 -3.5885  0.8948  0.4979
35683SOL    HW2 9057   4.912   6.701   2.591 -0.4724  2.2583 -2.5365
35684SOL     OW 9058   4.310   0.122   7.452 -0.2759 -0.4291 -0.0439
35684SOL    HW1 9059   4.225   0.105   7.410 -1.1650  0.7910  1.1542
35684SOL    HW2 9060   4.373   0.120   7.381 -1.1649 -2.3345 -0.8382
35685SOL     OW 9061   0.019   5.629   7.831  0.2207  0.7411  0.5847
35685SOL    HW1 9062   0.096   5.677   7.863  1.1386  0.0048 -0.4289
35685SOL    HW2 9063   0.017   5.549   7.883  1.6070 -0.3713 -0.9642
35686SOL     OW 9064   4.761   3.466   7.516  0.3645 -0.3601 -0.4622
35686SOL    HW1 9065   4.845   3.429   7.489  0.3485 -1.3855  0.7877
35686SOL    HW2 9066   4.718   3.395   7.564 -0.3232  0.7974  0.7021
35687SOL     OW 9067  10.059   4.845   1.288  0.1059 -0.0770 -0.0804
35687SOL    HW1 9068   9.982   4.901   1.298 -0.1274 -0.5637  1.0721
35687SOL    HW2 9069  10.118   4.874   1.357 -1.0405 -2.8133  2.2798
35688SOL     OW 9070   5.889   0.836   7.921  0.1836  0.5978 -0.0279
35688SOL    HW1 9071   5.795   0.854   7.918 -0.0163 -0.4063 -1.6563
35688SOL    HW2 9072   5.910   0.805   7.832  1.6594 -1.0328  0.8173
35689SOL     OW 9073   1.055   3.856   9.969  0.3593  0.4037  0.5643
35689SOL    HW1 9074   0.969   3.814   9.969 -0.4210  1.7747 -2.0464
35689SOL    HW2 9075   1.087   3.844   9.879  3.3456 -0.8239  1.6592
35690SOL     OW 9076   6.158   4.210   6.211 -0.1462  0.1096 -0.0204
35690SOL    HW1 9077   6.131   4.298   6.238  0.3788  0.4114 -0.4667
35690SOL    HW2 9078   6.206   4.223   6.129  2.7358 -0.2026  1.4687
35691SOL     OW 9079   1.731   2.992   4.420  0.3307  0.3134 -0.4259
35691SOL    HW1 9080   1.679   3.059   4.374 -0.0526 -0.4341 -1.1047
35691SOL    HW2 9081   1.667   2.927   4.448  0.9333 -0.9954 -1.9185
35692SOL     OW 9082   1.420  10.331   3.313 -0.3548  0.4333  0.0496
35692SOL    HW1 9083   1.357  10.260   3.325 -0.8661  0.7844 -0.5156
35692SOL    HW2 9084   1.505  10.288   3.319 -0.6559 -0.5179 -1.8599
35693SOL     OW 9085   3.927  10.324   5.373 -0.1834  0.7037 -0.1146
35693SOL    HW1 9086   3.992  10.332   5.443 -2.1277  2.2139  1.6647
35693SOL    HW2 9087   3.972  10.352   5.294  1.6734  0.4181  0.7995
35694SOL     OW 9088  11.082   6.706   0.963 -0.2001 -0.0318  0.1414
35694SOL    HW1 9089  11.096   6.682   1.054  0.3800 -0.2484  0.0023
35694SOL    HW2 9090  11.160   6.673   0.918 -0.5803 -0.1120 -0.4633
35695SOL     OW 9091   1.298   1.508   9.605  0.0839 -0.2797 -0.5063
35695SOL    HW1 9092   1.311   1.600   9.583 -1.3843  0.1999  0.4727
35695SOL    HW2 9093   1.328   1.460   9.528  0.2715  1.0471 -1.2874
35696SOL     OW 9094   4.164   3.534   1.382  0.3205 -0.0314  0.7178
35696SOL    HW1 9095   4.070   3.536   1.362  0.6953  1.9254 -1.1272
35696SOL    HW2 9096   4.184   3.441   1.393 -1.5317 -0.6151 -0.3788
35697SOL     OW 9097   7.680   0.815   2.211 -0.2526  0.0442 -0.1091
35697SOL    HW1 9098   7.642   0.736   2.172  0.2856 -1.1618  1.6699
35697SOL    HW2 9099   7.764   0.825   2.166 -1.6861  1.5854 -2.6620
35698SOL     OW 9100   6.459   8.746   0.294 -0.3553 -0.3645 -0.4993
35698SOL    HW1 9101   6.378   8.696   0.305 -0.6458 -0.2996 -2.1409
35698SOL    HW2 9102   6.437   8.816   0.233  0.5516  0.6315  0.2669
35699SOL     OW 9103   5.554   0.736  10.381 -0.4412  0.3068  0.3631
35699SOL    HW1 9104   5.571   0.671  10.449  0.6304  0.3604  0.1653
35699SOL    HW2 9105   5.509   0.807  10.427 -1.1050 -0.3171  0.6916
35700SOL     OW 9106   9.893  11.079   6.920  0.2268  0.2654  0.1436
35700SOL    HW1 9107   9.914  11.026   6.997 -1.0718 -1.4023 -0.5791
35700SOL    HW2 9108   9.858  11.016   6.857  0.3634  1.7369 -1.4673
35701SOL     OW 9109   0.359   4.210   4.328  0.4097  0.1537 -0.6838
35701SOL    HW1 9110   0.269   4.240   4.321  0.1685 -0.5045 -0.5250
35701SOL    HW2 9111   0.355   4.134   4.386  1.0838  0.1867 -0.5787
35702SOL     OW 9112   4.059   0.591   2.595  1.1154 -0.4796 -0.4269
35702SOL    HW1 9113   4.149   0.623   2.587  1.2481 -1.2902 -2.9112
35702SOL    HW2 9114   4.068   0.508   2.643  1.4852  0.1115  0.5670
35703SOL     OW 9115   5.811   3.108   1.037 -0.3467 -0.0034 -0.0400
35703SOL    HW1 9116   5.839   3.113   0.945 -0.8476 -0.6543 -0.2374
35703SOL    HW2 9117   5.879   3.155   1.085 -0.8124  1.6158 -0.8888
35704SOL     OW 9118  10.382   3.024   0.053  0.0391 -0.1127 -0.4648
35704SOL    HW1 9119  10.357   3.048   0.142  1.0640 -0.2784 -0.1263
35704SOL    HW2 9120  10.436   3.096   0.022 -0.1310 -0.1577 -0.8785
35705SOL     OW 9121   1.888   4.147   2.412 -0.3681  0.1280  0.3931
35705SOL    HW1 9122   1.810   4.188   2.449 -1.5944 -2.6110  1.1529
35705SOL    HW2 9123   1.908   4.075   2.472  1.9011 -0.1287 -0.5651
35706SOL     OW 9124  10.493   3.628   4.999 -0.0092  0.1930  0.4809
35706SOL    HW1 9125  10.551   3.695   4.963  0.7172 -0.0355  1.1734
35706SOL    HW2 9126  10.546   3.548   4.999 -0.6648 -0.2463  0.2106
35707SOL     OW 9127   9.625   9.254  11.052  0.0696 -0.0688 -0.7388
35707SOL    HW1 9128   9.656   9.178  11.003  0.3954 -0.8041  0.5595
35707SOL    HW2 9129   9.682   9.258  11.129 -0.5081  0.9597 -0.3398
35708SOL     OW 9130   7.230   9.445   7.515 -0.2482 -0.8060  0.2979
35708SOL    HW1 9131   7.291   9.430   7.443  0.4536 -2.4781  1.1758
35708SOL    HW2 9132   7.286   9.466   7.590 -0.9767  1.1397  0.3462
35709SOL     OW 9133  10.358   6.047   9.603 -0.3455  0.5624  0.0272
35709SOL    HW1 9134  10.349   5.952   9.605  1.3081  0.3111 -1.5263
35709SOL    HW2 9135  10.337   6.071   9.513 -0.9924  1.7156  0.4713
35710SOL     OW 9136   0.188   4.513   5.027  0.2674  0.0828 -0.0297
35710SOL    HW1 9137   0.149   4.428   5.004 -1.1068  0.7697 -0.3739
35710SOL    HW2 9138   0.112   4.570   5.041  1.1604  1.6207 -1.1991
35711SOL     OW 9139   9.881   6.974   1.119 -0.3680  0.3527 -0.3451
35711SOL    HW1 9140   9.972   6.998   1.137  0.1593 -1.9235  0.3989
35711SOL    HW2 9141   9.886   6.923   1.038 -1.2320  1.4980 -1.1428
35712SOL     OW 9142   0.646   5.920   1.505 -1.1222  0.3310  0.2368
35712SOL    HW1 9143   0.718   5.862   1.483 -1.6797  0.1179 -1.0944
35712SOL    HW2 9144   0.659   5.940   1.598 -0.2783 -0.9929  0.4261
35713SOL     OW 9145   8.614   9.179   9.507  0.2806  0.5328 -0.0949
35713SOL    HW1 9146   8.522   9.188   9.535  1.0132  4.1944  1.6561
35713SOL    HW2 9147   8.614   9.207   9.416 -0.3550  0.1525 -0.2228
35714SOL     OW 9148  10.133  10.891   9.366 -0.3019  0.3343 -0.4240
35714SOL    HW1 9149  10.085  10.969   9.337 -0.8405 -0.0773 -0.6491
35714SOL    HW2 9150  10.085  10.861   9.443 -2.0029 -1.5566 -2.0915
35715SOL     OW 9151   0.665   3.607   1.752 -0.1701 -0.3274 -0.4486
35715SOL    HW1 9152   0.596   3.576   1.692  1.2545 -1.1622 -1.7153
35715SOL    HW2 9153   0.701   3.527   1.790 -0.5619  0.1627  1.0258
35716SOL     OW 9154   4.116  10.227   4.294  1.1644  0.4309 -0.7866
35716SOL    HW1 9155   4.155  10.203   4.378 -0.5774 -0.1359 -0.0909
35716SOL    HW2 9156   4.107  10.145   4.247  2.2665  0.7644 -1.6201
35717SOL     OW 9157   3.940   0.913   7.314 -0.2355 -0.0026 -0.8538
35717SOL    HW1 9158   3.973   0.853   7.248 -0.4364 -3.2833  1.7562
35717SOL    HW2 9159   4.015   0.930   7.372 -0.3824  1.7176 -1.1118
35718SOL     OW 9160   2.819   2.073   9.599  0.2275  0.5384  0.3923
35718SOL    HW1 9161   2.857   2.025   9.672 -1.8812 -0.9628  0.5930
35718SOL    HW2 9162   2.728   2.043   9.594  0.1022  1.0448 -2.4472
35719SOL     OW 9163   7.090   0.091   8.296 -0.0789 -0.0328 -0.1358
35719SOL    HW1 9164   7.139   0.019   8.336 -0.6198 -0.8959 -0.9840
35719SOL    HW2 9165   7.155   0.140   8.246 -0.0604 -1.2186 -1.3181
35720SOL     OW 9166   3.591   9.321   0.737 -0.3456  0.4794 -0.4758
35720SOL    HW1 9167   3.672   9.343   0.691  0.2344 -0.7523 -0.1051
35720SOL    HW2 9168   3.522   9.333   0.672  0.3139  0.0492 -1.2731
35721SOL     OW 9169   0.158  11.046   6.253  0.5965 -0.0943 -0.8278
35721SOL    HW1 9170   0.178  11.107   6.324 -1.0614 -0.2991 -0.1331
35721SOL    HW2 9171   0.098  11.094   6.196  0.9954 -0.3381 -1.4656
35722SOL     OW 9172   2.111   9.190   4.360  0.4697  0.8442  0.0655
35722SOL    HW1 9173   2.019   9.214   4.372  0.4351  1.0455 -0.5450
35722SOL    HW2 9174   2.110   9.129   4.286  0.7770  0.4635  0.3683
35723SOL     OW 9175   3.027   2.122   4.878  0.2140 -0.4908  0.6850
35723SOL    HW1 9176   3.020   2.167   4.963  2.6422  1.5240 -0.0570
35723SOL    HW2 9177   3.110   2.074   4.884 -0.2398 -1.4096 -0.1219
35724SOL     OW 9178   1.073   7.936   9.173 -0.1142 -0.5298 -0.3145
35724SOL    HW1 9179   0.990   7.889   9.183  1.7569 -3.8236  1.4780
35724SOL    HW2 9180   1.053   8.026   9.201 -2.7513 -1.5464  1.4819
35725SOL     OW 9181   9.198   2.150   0.025  0.1535 -0.2623  0.7184
35725SOL    HW1 9182   9.107   2.123   0.036 -0.2203 -0.8308 -2.5439
35725SOL    HW2 9183   9.236   2.081  -0.030  1.5342  1.6957 -0.9333
35726SOL     OW 9184   8.128   5.298   0.652  0.2283 -0.2027  0.6357
35726SOL    HW1 9185   8.084   5.221   0.616  1.9202 -1.4435  1.1207
35726SOL    HW2 9186   8.077   5.372   0.618 -1.2686 -1.5027 -0.0819
35727SOL     OW 9187   4.840   4.307  11.027  0.5562  0.1080  0.2439
35727SOL    HW1 9188   4.801   4.219  11.030 -0.2568  0.4406 -0.2348
35727SOL    HW2 9189   4.797   4.354  11.098 -1.4590  1.0736 -1.5113
35728SOL     OW 9190   0.643   9.111   4.861  0.2246  0.7953 -0.2754
35728SOL    HW1 9191   0.681   9.199   4.867  1.4187  0.1978  2.5148
35728SOL    HW2 9192   0.652   9.075   4.949 -3.3146 -0.9189 -0.4659
35729SOL     OW 9193   3.755   5.150   6.060 -0.0894  0.1089 -0.2739
35729SOL    HW1 9194   3.810   5.095   6.004  1.4761  1.6215 -0.3277
35729SOL    HW2 9195   3.741   5.230   6.009 -1.5010  0.1630  0.1678
35730SOL     OW 9196   6.136   0.511   1.271 -0.2149 -0.3985 -0.2315
35730SOL    HW1 9197   6.203   0.516   1.203  0.2086 -0.2504  0.1891
35730SOL    HW2 9198   6.179   0.469   1.345 -0.7835 -0.9108 -0.1801
35731SOL     OW 9199   8.897   3.219  10.831 -0.3009  0.4394 -0.1274
35731SOL    HW1 9200   8.979   3.251  10.794 -0.3623  0.0265 -0.6377
35731SOL    HW2 9201   8.921   3.186  10.918 -0.3979  2.6385  0.7961
35732SOL     OW 9202   7.173   2.031   9.438  0.3940  0.6592  0.1647
35732SOL    HW1 9203   7.150   1.942   9.465 -0.9792  0.6372 -0.9357
35732SOL    HW2 9204   7.255   2.050   9.484  1.3411 -1.5936 -0.4648
35733SOL     OW 9205   8.663   6.893   6.014  0.5007 -0.0196  0.6322
35733SOL    HW1 9206   8.735   6.950   5.989  0.4528  0.2148  1.0307
35733SOL    HW2 9207   8.698   6.804   6.006  0.0563 -0.0674 -1.7641
35734SOL     OW 9208   0.657   3.443   9.821 -0.5022  0.0380 -0.2899
35734SOL    HW1 9209   0.615   3.527   9.840  1.0086  0.9401 -0.7564
35734SOL    HW2 9210   0.684   3.450   9.730 -0.4804 -1.0348 -0.3828
35735SOL     OW 9211   6.760   5.964   9.123 -0.1276 -0.0168 -0.3522
35735SOL    HW1 9212   6.727   5.885   9.165 -0.5566  0.0681 -0.5182
35735SOL    HW2 9213   6.854   5.951   9.117 -0.3848 -1.4394 -2.2329
35736SOL     OW 9214   4.396  10.651   5.862 -0.1965  0.2831 -0.5979
35736SOL    HW1 9215   4.429  10.691   5.782 -2.6370  0.3439 -1.6485
35736SOL    HW2 9216   4.302  10.641   5.847 -0.4512 -1.2879  1.5987
35737SOL     OW 9217   5.217   1.359   6.162  0.0580  0.4446 -0.1592
35737SOL    HW1 9218   5.250   1.269   6.164  1.5363  0.9697  1.4153
35737SOL    HW2 9219   5.284   1.408   6.113  0.3210  1.0506  0.7857
35738SOL     OW 9220   8.132   0.104   5.099  0.0829  0.4524  0.2366
35738SOL    HW1 9221   8.154   0.026   5.049 -0.6358  0.4101 -0.0103
35738SOL    HW2 9222   8.204   0.165   5.081  0.7050 -0.1799  0.5192
35739SOL     OW 9223  11.054  10.934  10.361  0.4718  0.2458 -1.0212
35739SOL    HW1 9224  11.054  11.029  10.357  1.2361  0.2970 -0.1460
35739SOL    HW2 9225  11.117  10.907  10.295  2.4024  0.4922  0.6241
35740SOL     OW 9226   8.817   4.502   2.652 -0.5333 -0.2886  0.1301
35740SOL    HW1 9227   8.867   4.559   2.711 -1.1882  0.5988 -0.1667
35740SOL    HW2 9228   8.734   4.487   2.698 -0.5410 -0.6559  0.0059
35741SOL     OW 9229   2.545   6.499   3.108 -0.6532 -0.0789  0.4477
35741SOL    HW1 9230   2.487   6.575   3.099 -0.3555  0.6716  3.6290
35741SOL    HW2 9231   2.536   6.452   3.025 -1.8370  2.7197 -1.1570
35742SOL     OW 9232   4.063  10.762   8.775  0.1451 -0.3762 -0.6030
35742SOL    HW1 9233   4.081  10.850   8.741  1.4995  0.2651  1.5794
35742SOL    HW2 9234   4.075  10.705   8.699 -0.2630  1.2521 -1.9689
35743SOL     OW 9235   6.864  10.770   6.928  0.8665  0.5465 -0.4500
35743SOL    HW1 9236   6.881  10.677   6.911 -0.3445 -0.1276  1.5939
35743SOL    HW2 9237   6.951  10.809   6.937  1.4559 -1.0207  1.4790
35744SOL     OW 9238   6.039   4.489   7.417  0.0563 -0.0747 -0.4872
35744SOL    HW1 9239   6.094   4.430   7.365 -2.2394 -1.6674 -1.2428
35744SOL    HW2 9240   6.056   4.576   7.379  2.3442 -0.3988 -0.3722
35745SOL     OW 9241   9.372   7.276   4.033 -0.1210 -0.1406  0.1241
35745SOL    HW1 9242   9.442   7.264   3.969  1.2059  0.7640  1.3414
35745SOL    HW2 9243   9.325   7.354   4.003  0.3348  0.1299  0.1099
35746SOL     OW 9244   5.663   3.259   4.327 -0.7760  0.1910  0.1277
35746SOL    HW1 9245   5.582   3.296   4.363  0.3907  1.3437  1.6792
35746SOL    HW2 9246   5.700   3.329   4.273  0.1845  0.3981  1.0406
35747SOL     OW 9247   3.337   7.966   2.615  0.1470  0.0813  0.0894
35747SOL    HW1 9248   3.333   7.884   2.567 -2.3279  0.0160  0.2738
35747SOL    HW2 9249   3.430   7.986   2.621  0.8493 -2.7623  0.1455
35748SOL     OW 9250   7.109   1.203   2.096 -0.1260 -0.5919 -0.0729
35748SOL    HW1 9251   7.145   1.163   2.017  0.4313 -0.0197 -0.1215
35748SOL    HW2 9252   7.014   1.196   2.086 -0.0569 -0.7067 -0.6969
35749SOL     OW 9253   1.328   0.949   4.148  0.2138  0.0645 -0.6146
35749SOL    HW1 9254   1.237   0.957   4.178 -0.3834 -0.7810 -2.0810
35749SOL    HW2 9255   1.330   0.868   4.098  1.9689 -0.2999 -0.0265
35750SOL     OW 9256   3.671   1.438   8.564 -0.1854  0.6477  0.6442
35750SOL    HW1 9257   3.694   1.470   8.652  1.2444  1.4549  0.0064
35750SOL    HW2 9258   3.670   1.342   8.573  0.0575  0.7161  1.5123
35751SOL     OW 9259   0.818   7.589   1.621 -0.0454 -0.2800  0.1222
35751SOL    HW1 9260   0.743   7.634   1.658 -0.3265 -0.5977 -0.0580
35751SOL    HW2 9261   0.892   7.649   1.636 -0.7384  1.2204 -1.9142
35752SOL     OW 9262   5.946   2.375   2.654  0.0597 -0.8458  0.1171
35752SOL    HW1 9263   5.946   2.280   2.666  0.0449 -1.2633 -2.6800
35752SOL    HW2 9264   6.017   2.392   2.592  0.2379  1.0207  0.7783
35753SOL     OW 9265   8.908   8.246   3.011 -0.0911  0.0638  0.2089
35753SOL    HW1 9266   8.880   8.306   2.942 -0.0800  0.9386  0.9547
35753SOL    HW2 9267   8.964   8.298   3.068 -1.5026 -0.1365  1.8757
35754SOL     OW 9268   8.877   5.293   6.379 -0.2035 -0.1461 -0.0722
35754SOL    HW1 9269   8.822   5.293   6.457 -0.3605  1.6054 -0.1394
35754SOL    HW2 9270   8.819   5.263   6.309 -0.9111  0.9870 -0.0083
35755SOL     OW 9271   4.293   8.647   5.469 -0.1477 -0.2272 -0.3494
35755SOL    HW1 9272   4.299   8.614   5.559  0.0272  0.2695 -0.1774
35755SOL    HW2 9273   4.308   8.741   5.476 -0.1486 -0.1791 -0.8970
35756SOL     OW 9274   5.750   3.935   8.526  0.3786 -0.1239  0.8819
35756SOL    HW1 9275   5.821   3.871   8.531  0.6618  0.2554  1.8891
35756SOL    HW2 9276   5.794   4.018   8.507  0.0781 -0.1027  0.2486
35757SOL     OW 9277   1.186  10.432   7.920  0.1871  0.2955 -0.2126
35757SOL    HW1 9278   1.229  10.480   7.991  0.1026  0.3434 -0.1930
35757SOL    HW2 9279   1.100  10.475   7.911  0.5109  0.8200 -0.8975
35758SOL     OW 9280   2.076   3.567  10.385  0.2684 -1.0582  0.1966
35758SOL    HW1 9281   2.108   3.561  10.294 -0.5903 -0.4633 -0.1634
35758SOL    HW2 9282   2.007   3.502  10.390 -0.2211 -0.5513  0.1746
35759SOL     OW 9283   6.277   7.199   8.899 -0.1421 -0.5972  0.4844
35759SOL    HW1 9284   6.266   7.290   8.925  0.1491 -0.5202  0.3476
35759SOL    HW2 9285   6.332   7.161   8.968  0.5298 -0.4228  0.0581
35760SOL     OW 9286   7.168   9.607   4.512 -0.5350 -0.1429 -0.1416
35760SOL    HW1 9287   7.214   9.643   4.436 -0.2225 -0.7474 -0.2408
35760SOL    HW2 9288   7.080   9.590   4.480  0.7250 -4.8829 -1.8658
35761SOL     OW 9289   0.561   7.110   8.415 -0.4438  0.2926  0.1111
35761SOL    HW1 9290   0.572   7.204   8.431 -1.5816  0.3755  0.5470
35761SOL    HW2 9291   0.502   7.082   8.485 -0.1474 -0.7426 -0.0462
35762SOL     OW 9292   9.829   3.902   5.858  0.4258  0.0957  0.0902
35762SOL    HW1 9293   9.795   3.989   5.836 -0.4705 -0.4341 -0.7005
35762SOL    HW2 9294   9.843   3.860   5.773  1.2154 -0.4028  0.4606
35763SOL     OW 9295   6.848   4.338   0.079  0.3490 -0.0221 -0.1939
35763SOL    HW1 9296   6.753   4.333   0.086  0.4763 -1.5515  0.8405
35763SOL    HW2 9297   6.865   4.332  -0.015 -0.5552 -0.0560 -0.3654
35764SOL     OW 9298   2.192   0.233   8.637  0.4857 -0.1935  0.3386
35764SOL    HW1 9299   2.244   0.288   8.578 -1.4681  2.5351  0.9641
35764SOL    HW2 9300   2.106   0.229   8.595 -0.0466 -0.8732  1.4574
35765SOL     OW 9301   4.761   2.002   7.355  0.2145 -0.9476  0.4207
35765SOL    HW1 9302   4.755   1.990   7.450  0.6215  1.2303  0.7946
35765SOL    HW2 9303   4.847   2.043   7.342 -0.8123  1.0769 -0.5371
35766SOL     OW 9304   2.674   0.252   1.497 -0.1768 -0.8280  0.4609
35766SOL    HW1 9305   2.733   0.315   1.455 -2.2898  0.6220 -0.4887
35766SOL    HW2 9306   2.722   0.223   1.574  1.3332  1.1480  0.3497
35767SOL     OW 9307   0.993   1.910   9.934 -0.5441  0.1894 -0.7760
35767SOL    HW1 9308   0.978   1.970   9.861 -0.8952  0.0150 -0.8497
35767SOL    HW2 9309   0.933   1.837   9.918  1.8785 -1.6265 -2.2593
35768SOL     OW 9310   6.465   1.518   1.381 -0.0827  0.1019 -0.3130
35768SOL    HW1 9311   6.509   1.573   1.446  1.6907  0.4391 -1.7379
35768SOL    HW2 9312   6.475   1.565   1.299 -2.4965 -0.2044 -0.8634
35769SOL     OW 9313   9.556   3.904   6.596 -0.2852 -0.2306  0.1710
35769SOL    HW1 9314   9.546   3.981   6.540 -0.1770 -0.1339  0.2806
35769SOL    HW2 9315   9.542   3.829   6.539 -2.7000 -0.1055  0.5161
35770SOL     OW 9316   2.700   7.784   6.205 -0.1366 -0.0698  0.1767
35770SOL    HW1 9317   2.784   7.812   6.241 -0.3755 -0.6555  1.2405
35770SOL    HW2 9318   2.646   7.764   6.282 -0.9691 -0.5115 -0.4970
35771SOL     OW 9319   4.351   8.345   6.489 -0.2538  0.0544 -0.5166
35771SOL    HW1 9320   4.436   8.378   6.459 -1.4358  2.5847 -1.2726
35771SOL    HW2 9321   4.317   8.413   6.546 -2.3733 -0.2622 -1.3117
35772SOL     OW 9322   5.336   1.144   7.828  0.1756  0.0620  0.2529
35772SOL    HW1 9323   5.325   1.185   7.914  1.0064  0.3130  0.2493
35772SOL    HW2 9324   5.335   1.217   7.766  0.8238  0.0051  0.1689
35773SOL     OW 9325   3.512   3.748   8.245  1.0449 -0.5901  0.1731
35773SOL    HW1 9326   3.442   3.761   8.182  0.7394 -0.1093  0.6050
35773SOL    HW2 9327   3.591   3.739   8.192  0.6806 -0.9530 -0.3064
35774SOL     OW 9328   4.616   2.502  10.160  0.2652  0.0149 -0.6608
35774SOL    HW1 9329   4.661   2.585  10.178  0.1170 -0.0401 -0.0045
35774SOL    HW2 9330   4.611   2.497  10.065 -1.5779  1.7506 -0.6971
35775SOL     OW 9331   0.093   2.340   5.051  0.7566  0.2583 -0.1949
35775SOL    HW1 9332   0.066   2.426   5.019  0.6022 -0.1077 -1.0902
35775SOL    HW2 9333   0.014   2.286   5.047  0.3588  0.5496  2.2161
35776SOL     OW 9334   5.535   0.807   3.323 -0.2135 -0.0289 -0.2826
35776SOL    HW1 9335   5.442   0.806   3.301 -0.5316 -5.4168 -0.0184
35776SOL    HW2 9336   5.537   0.802   3.419  0.3712  0.3600 -0.2710
35777SOL     OW 9337   4.126   0.535   5.605  0.5193  0.0426 -0.0841
35777SOL    HW1 9338   4.190   0.604   5.623 -0.9656  1.4281  0.1311
35777SOL    HW2 9339   4.046   0.565   5.647 -0.0706 -2.0718  0.4241
35778SOL     OW 9340   9.448   5.604   0.740  0.8098 -0.2916  0.1333
35778SOL    HW1 9341   9.464   5.669   0.672 -0.8324 -2.2900 -2.3432
35778SOL    HW2 9342   9.394   5.650   0.805  0.1101  0.9818 -1.2837
35779SOL     OW 9343   7.012   2.149   8.326  0.2109 -0.2981  0.2508
35779SOL    HW1 9344   7.097   2.169   8.364  1.0061  1.3274 -2.1636
35779SOL    HW2 9345   6.952   2.211   8.366 -0.2074 -2.1744  2.8103
35780SOL     OW 9346   9.861   0.238   0.541  0.4780 -0.2025 -0.4079
35780SOL    HW1 9347   9.924   0.168   0.522  1.3596  0.4928 -0.1226
35780SOL    HW2 9348   9.839   0.274   0.455  1.6530  0.5424 -0.4167
35781SOL     OW 9349   2.420   4.293   8.846  0.3569 -0.6321 -0.5849
35781SOL    HW1 9350   2.356   4.243   8.795  0.7564 -2.9448  0.9805
35781SOL    HW2 9351   2.376   4.310   8.929  1.0653 -0.4427 -0.2413
35782SOL     OW 9352   0.041   8.988  10.658  0.0626  0.1576  0.2759
35782SOL    HW1 9353  -0.049   8.957  10.645 -0.4279  0.5534  2.3518
35782SOL    HW2 9354   0.052   9.057  10.592  0.6102 -3.0379 -3.3175
35783SOL     OW 9355   7.670   4.474   9.038  0.7422 -0.2271 -0.0256
35783SOL    HW1 9356   7.756   4.501   9.071  0.4237  2.0556 -0.8825
35783SOL    HW2 9357   7.614   4.476   9.115  0.8062  1.4076  0.0149
35784SOL     OW 9358  10.393  10.599   4.901  0.1624 -0.5220  0.0016
35784SOL    HW1 9359  10.415  10.622   4.991  0.0852 -2.2734  0.5084
35784SOL    HW2 9360  10.475  10.608   4.853  1.0255 -2.5860  0.9397
35785SOL     OW 9361   0.855   7.252   0.736  0.2284  0.2606 -0.8515
35785SOL    HW1 9362   0.821   7.245   0.647 -0.6559  2.3697 -0.7385
35785SOL    HW2 9363   0.914   7.328   0.733 -0.3819  0.8122  0.4974
35786SOL     OW 9364   0.407   4.668   0.963  0.2229 -0.2529  0.4696
35786SOL    HW1 9365   0.312   4.679   0.968 -0.1153 -1.1098 -2.4051
35786SOL    HW2 9366   0.419   4.588   0.912  2.3802  1.8766 -2.7542
35787SOL     OW 9367   3.231   7.308   0.327  0.3604 -0.0420 -0.2977
35787SOL    HW1 9368   3.188   7.284   0.245 -1.0054 -0.2556  0.4553
35787SOL    HW2 9369   3.295   7.239   0.342 -0.3010 -0.7163 -0.5269
35788SOL     OW 9370   6.501   4.314  10.795  0.0260  0.0213  0.0832
35788SOL    HW1 9371   6.482   4.224  10.820  0.7943 -0.6687 -1.6496
35788SOL    HW2 9372   6.441   4.332  10.722  0.4030  0.6513 -0.0817
35789SOL     OW 9373   5.060  10.147   8.542 -0.8904  0.9254 -0.1040
35789SOL    HW1 9374   5.065  10.183   8.630  1.8857 -1.0306  0.6792
35789SOL    HW2 9375   5.020  10.061   8.553 -3.2553  1.7997 -1.2591
35790SOL     OW 9376   4.479   6.680   0.702  0.6076  0.0845 -0.1589
35790SOL    HW1 9377   4.401   6.647   0.747 -1.6324  1.0498 -2.9633
35790SOL    HW2 9378   4.534   6.716   0.771 -2.8124  2.0328  1.8175
35791SOL     OW 9379   4.198   4.567   1.542 -0.0782  0.3127 -0.5449
35791SOL    HW1 9380   4.119   4.599   1.500 -0.9599  0.8257  1.4036
35791SOL    HW2 9381   4.197   4.606   1.629  1.1381 -1.4663  0.3351
35792SOL     OW 9382   1.033   5.317   6.967  0.0871 -0.1398 -0.1679
35792SOL    HW1 9383   1.105   5.380   6.972 -0.7019  1.2568 -3.4255
35792SOL    HW2 9384   0.974   5.342   7.037  0.0423  2.5601 -1.0453
35793SOL     OW 9385   3.392   2.917   8.355  0.0272 -0.3900  0.0069
35793SOL    HW1 9386   3.346   2.965   8.423  0.5374 -1.5660  1.2126
35793SOL    HW2 9387   3.358   2.954   8.273 -0.5645  1.0760  0.8689
35794SOL     OW 9388   1.816   8.297   4.967  0.1664 -0.0142  0.3784
35794SOL    HW1 9389   1.880   8.227   4.977 -0.6590 -1.0014 -0.9497
35794SOL    HW2 9390   1.866   8.371   4.934  0.2805 -1.7055 -3.8303
35795SOL     OW 9391   8.176   1.880   3.605  0.5025  0.7920 -0.1409
35795SOL    HW1 9392   8.209   1.941   3.539 -1.9959  1.8220 -0.5815
35795SOL    HW2 9393   8.242   1.880   3.674  1.6358  2.2402 -1.1712
35796SOL     OW 9394   6.166   1.044   3.030  0.3403  0.4378  0.3164
35796SOL    HW1 9395   6.173   1.104   2.956 -0.3224 -1.5591 -1.4490
35796SOL    HW2 9396   6.203   0.962   2.999 -0.8721 -0.7534  1.8487
35797SOL     OW 9397   2.739   2.336   2.540  0.1030 -0.5293 -0.2705
35797SOL    HW1 9398   2.796   2.269   2.504  0.9426  1.0865 -2.1615
35797SOL    HW2 9399   2.743   2.408   2.476 -0.9044  1.2310  1.5143
35798SOL     OW 9400   4.806   3.455   6.011 -0.5927 -0.1095 -0.1816
35798SOL    HW1 9401   4.726   3.417   6.047 -0.6094  0.2810  0.2011
35798SOL    HW2 9402   4.855   3.486   6.088  1.6509 -3.5331  0.0036
35799SOL     OW 9403   6.069   4.561   5.116 -0.0016  0.4922  0.1638
35799SOL    HW1 9404   6.011   4.596   5.048  0.1108  0.0535 -0.1585
35799SOL    HW2 9405   6.099   4.639   5.164 -1.0286  0.7104  0.4810
35800SOL     OW 9406   6.632   4.266   8.125 -0.5929  0.0982  0.1561
35800SOL    HW1 9407   6.666   4.218   8.200 -1.8367  1.0622  1.3820
35800SOL    HW2 9408   6.665   4.355   8.137 -0.0381  0.0568 -0.9581
35801SOL     OW 9409   7.616  10.764  10.012  0.6037 -0.2327 -0.5545
35801SOL    HW1 9410   7.595  10.680   9.969 -0.6039  0.2475 -0.9559
35801SOL    HW2 9411   7.711  10.770  10.006  0.6924 -1.4370 -0.7886
35802SOL     OW 9412   1.190   8.727   8.381 -0.3224 -0.7265 -0.2038
35802SOL    HW1 9413   1.214   8.639   8.353  1.5017  0.0562 -1.2887
35802SOL    HW2 9414   1.109   8.747   8.334 -0.5921 -1.7050 -0.1665
35803SOL     OW 9415  11.036   4.261   2.859  0.1932 -0.3070  0.2694
35803SOL    HW1 9416  11.109   4.316   2.832 -0.5416 -0.1958 -1.6983
35803SOL    HW2 9417  10.978   4.260   2.783 -1.6565 -0.7363  1.6153
35804SOL     OW 9418   2.954   9.162   4.743 -0.4752  0.5840 -0.2122
35804SOL    HW1 9419   2.866   9.173   4.707 -1.1551 -0.5771  0.9963
35804SOL    HW2 9420   2.943   9.170   4.837  0.5156 -0.5977  0.0382
35805SOL     OW 9421   6.650   2.486   7.489  0.0845 -0.7244  0.2017
35805SOL    HW1 9422   6.556   2.469   7.489  0.3156 -2.1995 -0.9935
35805SOL    HW2 9423   6.658   2.581   7.496 -1.4510 -0.6657  1.5151
35806SOL     OW 9424   0.816   7.047   4.937 -0.0681  0.2291  0.2372
35806SOL    HW1 9425   0.735   6.996   4.945  1.7284 -2.9844 -0.1075
35806SOL    HW2 9426   0.870   7.018   5.010  1.7103  0.2962 -0.9713
35807SOL     OW 9427   3.521   9.641   4.045  0.3043 -0.3701 -0.3090
35807SOL    HW1 9428   3.609   9.664   4.075  0.4801 -0.8650 -0.4416
35807SOL    HW2 9429   3.529   9.551   4.014 -0.5150 -0.8280  0.7492
35808SOL     OW 9430   4.372   7.001   7.685 -0.1935 -0.5421 -0.1738
35808SOL    HW1 9431   4.444   6.942   7.662  0.6937 -0.5175  2.3116
35808SOL    HW2 9432   4.298   6.943   7.702  0.6048 -0.9916  2.0055
35809SOL     OW 9433  10.122   5.397   3.059 -0.4052  0.2715  0.7016
35809SOL    HW1 9434  10.162   5.471   3.013  2.0404  0.7556  3.3371
35809SOL    HW2 9435  10.098   5.432   3.144 -1.8000 -1.3387  1.0185
35810SOL     OW 9436   4.117  10.665   1.214 -0.0845  0.0503 -0.4430
35810SOL    HW1 9437   4.143  10.573   1.216 -0.6056 -0.0948  1.8144
35810SOL    HW2 9438   4.199  10.714   1.207  0.5144 -0.5386  1.7296
35811SOL     OW 9439   5.941   4.644   3.273 -0.1939 -0.9278 -0.1896
35811SOL    HW1 9440   5.960   4.732   3.308  1.6545 -1.3747  0.0082
35811SOL    HW2 9441   5.886   4.604   3.340  0.7558 -0.6664  0.7837
35812SOL     OW 9442   8.022   9.602   9.812  0.3709  1.4116  0.2453
35812SOL    HW1 9443   8.079   9.568   9.881  0.4799  0.2477 -0.4000
35812SOL    HW2 9444   8.081   9.648   9.752  0.3738  1.8046  0.5477
35813SOL     OW 9445   1.047  10.532  10.705 -0.2100 -0.0871 -0.0601
35813SOL    HW1 9446   1.057  10.489  10.790 -1.3351 -1.4703 -0.5862
35813SOL    HW2 9447   1.025  10.623  10.727 -3.3919 -1.0425  1.2637
35814SOL     OW 9448   0.944   8.637   6.359  0.3396 -0.4478 -0.6902
35814SOL    HW1 9449   1.005   8.647   6.286 -0.0356 -0.0915 -0.9549
35814SOL    HW2 9450   0.910   8.549   6.350  0.2730 -0.3944 -0.9618
35815SOL     OW 9451   5.063   0.311   6.581  0.0388 -0.1377 -0.2323
35815SOL    HW1 9452   5.047   0.399   6.545 -0.1440 -0.2047 -0.3187
35815SOL    HW2 9453   4.976   0.282   6.610  0.5606  1.0056  2.7770
35816SOL     OW 9454   2.056   4.740   7.457 -0.8063  0.5031  0.1229
35816SOL    HW1 9455   2.122   4.809   7.466 -0.6494  0.0774  3.3035
35816SOL    HW2 9456   2.106   4.663   7.431 -0.8279  1.2318 -2.3256
35817SOL     OW 9457   0.902   1.175   2.745  0.3789 -0.4115 -0.1729
35817SOL    HW1 9458   0.947   1.091   2.746 -0.1595 -0.6997  0.1882
35817SOL    HW2 9459   0.964   1.235   2.702  0.2107 -1.2824 -1.6610
35818SOL     OW 9460   9.447   4.637   5.308 -0.1962 -0.4099  0.3365
35818SOL    HW1 9461   9.539   4.644   5.280  0.3271 -0.5110  1.9675
35818SOL    HW2 9462   9.426   4.722   5.345 -0.5878 -0.5762  0.4983
35819SOL     OW 9463   2.620   5.475   9.357 -0.1583 -0.0825  0.2150
35819SOL    HW1 9464   2.636   5.455   9.449 -0.2149 -1.2133 -0.0113
35819SOL    HW2 9465   2.707   5.476   9.317 -0.2074 -0.5255  0.0976
35820SOL     OW 9466   0.649  10.130   8.273 -0.1512  0.3382 -0.7199
35820SOL    HW1 9467   0.742  10.151   8.272 -0.2743  0.9854  0.1257
35820SOL    HW2 9468   0.636  10.075   8.196  1.1542 -0.6949 -0.2431
35821SOL     OW 9469  10.755   6.014   3.985  0.1383  0.0744 -0.5929
35821SOL    HW1 9470  10.760   6.018   3.889  0.6507  1.7039 -0.5214
35821SOL    HW2 9471  10.670   6.053   4.006  0.7930  1.3951 -0.3186
35822SOL     OW 9472   2.366   9.925   9.974 -0.1346  0.2319 -0.0806
35822SOL    HW1 9473   2.409  10.009   9.960 -1.3274  0.6031 -1.9116
35822SOL    HW2 9474   2.317   9.910   9.893  1.1113 -2.8895 -0.3734
35823SOL     OW 9475   9.420   6.267   4.841  0.0496 -0.3490  0.6946
35823SOL    HW1 9476   9.515   6.278   4.847  0.0679 -0.9193  1.7276
35823SOL    HW2 9477   9.409   6.173   4.824 -0.3151 -0.1748 -0.0477
35824SOL     OW 9478  10.275   3.130   5.566 -1.0502 -0.2717 -0.2110
35824SOL    HW1 9479  10.365   3.096   5.568 -1.0515 -0.2503  0.4852
35824SOL    HW2 9480  10.281   3.215   5.610 -0.9914  0.8081 -2.1943
35825SOL     OW 9481  10.756   0.909   7.814  0.5956 -0.4177 -1.1324
35825SOL    HW1 9482  10.845   0.926   7.844  0.3203 -1.8975  0.6845
35825SOL    HW2 9483  10.731   0.827   7.857 -0.9773 -1.0582 -3.0725
35826SOL     OW 9484   0.441   0.849   5.521  0.6201  0.0879  0.1090
35826SOL    HW1 9485   0.535   0.838   5.507  0.7702  0.5285  0.7405
35826SOL    HW2 9486   0.434   0.925   5.579 -0.0912 -0.3662  0.6214
35827SOL     OW 9487   0.480   4.632   9.313  0.6024  0.7286 -0.5203
35827SOL    HW1 9488   0.422   4.677   9.375 -0.6932  0.8614 -1.7558
35827SOL    HW2 9489   0.531   4.702   9.273  1.7457  0.6011  0.6479
35828SOL     OW 9490   0.610   0.785   0.351 -0.2265 -0.0294  0.2189
35828SOL    HW1 9491   0.567   0.700   0.363  0.8635 -0.4613  1.1857
35828SOL    HW2 9492   0.565   0.844   0.412 -1.3338  0.2480 -0.8237
35829SOL     OW 9493   0.777   8.892   9.087 -0.5323 -0.3393 -0.6514
35829SOL    HW1 9494   0.797   8.971   9.138 -2.0330 -0.0608 -0.4367
35829SOL    HW2 9495   0.744   8.926   9.003 -1.6366 -0.7063 -0.3810
35830SOL     OW 9496   5.206   5.519  10.804 -0.5732  0.0361 -0.0311
35830SOL    HW1 9497   5.251   5.573  10.739 -0.4554 -1.3462 -1.1527
35830SOL    HW2 9498   5.176   5.581  10.871  0.6484  1.3032 -0.6212
35831SOL     OW 9499   0.480   0.909   8.000  0.4417  0.2035 -0.5695
35831SOL    HW1 9500   0.536   0.868   8.066 -1.1210  0.1193  0.7574
35831SOL    HW2 9501   0.430   0.837   7.962  0.4165  0.4123 -0.9376
35832SOL     OW 9502   3.851   2.897   9.564  0.9890  0.0329  0.4770
35832SOL    HW1 9503   3.890   2.926   9.482  0.0792  1.3082  0.4595
35832SOL    HW2 9504   3.798   2.821   9.539  1.2526 -0.0009  0.0008
35833SOL     OW 9505   3.801   1.767   8.603 -0.2451  0.2844  0.0398
35833SOL    HW1 9506   3.775   1.727   8.520 -1.9768  0.5365  0.4314
35833SOL    HW2 9507   3.787   1.698   8.668 -0.6182  0.6549  0.3552
35834SOL     OW 9508   1.508   6.039   6.068  0.0048 -0.3195  0.6651
35834SOL    HW1 9509   1.550   5.965   6.024  0.0465  0.9786 -1.6352
35834SOL    HW2 9510   1.578   6.102   6.082  0.0306 -0.7527  2.8848
35835SOL     OW 9511   6.559   4.113   3.021  0.2258  0.2071 -0.6334
35835SOL    HW1 9512   6.624   4.156   2.967  0.1003 -0.2686 -1.1797
35835SOL    HW2 9513   6.588   4.128   3.111  2.6633 -2.3186 -0.8563
35836SOL     OW 9514   3.854   3.522   5.990 -0.1728 -0.1608  0.2251
35836SOL    HW1 9515   3.808   3.479   6.062 -2.0036 -0.2523 -0.9469
35836SOL    HW2 9516   3.924   3.460   5.966  0.8106  0.1034  2.2020
35837SOL     OW 9517   4.669   6.686   3.845  0.4569 -0.3330  0.2537
35837SOL    HW1 9518   4.733   6.693   3.916  0.2931 -0.6120  0.4311
35837SOL    HW2 9519   4.590   6.727   3.881 -0.1078 -1.8499  0.8200
35838SOL     OW 9520   6.655   5.417   6.194  0.8904 -0.5537  0.1124
35838SOL    HW1 9521   6.665   5.363   6.272  0.4571 -0.7484  0.0324
35838SOL    HW2 9522   6.687   5.504   6.221 -0.0571 -0.3903  0.7659
35839SOL     OW 9523   2.861   5.147   4.529  0.1809  0.4337 -0.3256
35839SOL    HW1 9524   2.806   5.175   4.602  0.1321  2.2962 -1.0054
35839SOL    HW2 9525   2.812   5.076   4.487 -0.9315  0.9483  0.0616
35840SOL     OW 9526   6.791   1.852   3.925  0.0021 -0.3730 -0.3639
35840SOL    HW1 9527   6.776   1.943   3.899 -3.7814 -0.7209  0.0041
35840SOL    HW2 9528   6.805   1.856   4.020 -0.2784 -0.1717 -0.3297
35841SOL     OW 9529   6.559   1.471   3.310 -0.5431 -0.0218 -0.4706
35841SOL    HW1 9530   6.624   1.509   3.251 -1.3072  0.3075 -1.1127
35841SOL    HW2 9531   6.511   1.408   3.256  0.6899 -1.9729  0.5623
35842SOL     OW 9532   9.442   6.105   7.498  0.0131  0.2875 -0.3312
35842SOL    HW1 9533   9.448   6.048   7.421 -1.9761 -1.1972  0.5411
35842SOL    HW2 9534   9.348   6.112   7.516  0.3176  2.2831  0.7773
35843SOL     OW 9535   5.452   1.685  10.502  0.0665  0.1533  0.0013
35843SOL    HW1 9536   5.506   1.763  10.516 -0.3856  0.3178  0.8985
35843SOL    HW2 9537   5.453   1.672  10.407  2.5730 -0.4633  0.0261
35844SOL     OW 9538   2.272   0.527   6.138 -0.0968 -0.2178 -0.5550
35844SOL    HW1 9539   2.368   0.525   6.135 -0.0691  0.1621 -0.0163
35844SOL    HW2 9540   2.251   0.607   6.186 -0.7178  0.5788 -2.0835
35845SOL     OW 9541   0.594   2.156   2.303 -0.3923 -0.0057  0.2868
35845SOL    HW1 9542   0.674   2.126   2.346 -0.8872  0.4441  1.5473
35845SOL    HW2 9543   0.597   2.115   2.216  1.9497  1.2359 -0.2831
35846SOL     OW 9544   8.283   8.787  10.662  0.6268 -0.0314  0.3906
35846SOL    HW1 9545   8.267   8.807  10.570 -1.2661 -0.6436  0.5390
35846SOL    HW2 9546   8.242   8.701  10.675 -1.9625  1.3688  2.4766
35847SOL     OW 9547   2.637   9.195   0.297 -0.1771 -0.4594 -0.5850
35847SOL    HW1 9548   2.732   9.189   0.281  0.2392  2.9943 -0.1840
35847SOL    HW2 9549   2.625   9.150   0.381  2.0237  2.6797  1.6646
35848SOL     OW 9550   0.493  10.716   2.687 -0.3215  0.1967 -0.8500
35848SOL    HW1 9551   0.490  10.725   2.782 -0.6929  0.6579 -0.8983
35848SOL    HW2 9552   0.581  10.744   2.663  0.3727 -1.5748 -0.4986
35849SOL     OW 9553   9.547  11.078  10.706  1.1176 -0.0090 -0.3133
35849SOL    HW1 9554   9.560  11.024  10.628  1.2680 -0.1297 -0.2034
35849SOL    HW2 9555   9.486  11.146  10.677  0.4653 -0.5748 -0.2997
35850SOL     OW 9556   0.693  10.773   7.944  0.2525 -0.7105 -0.2498
35850SOL    HW1 9557   0.741  10.756   7.864  0.3859  0.2815 -0.4008
35850SOL    HW2 9558   0.750  10.742   8.014  1.0325  0.2266 -0.4440
35851SOL     OW 9559   5.578   0.391   9.223  0.3161  0.8291 -0.5566
35851SOL    HW1 9560   5.564   0.427   9.135  0.3181  1.1378 -0.4304
35851SOL    HW2 9561   5.673   0.376   9.227  0.0988 -0.9628 -1.2936
35852SOL     OW 9562   9.611   0.482   6.542  0.1259 -0.6445 -0.1112
35852SOL    HW1 9563   9.618   0.551   6.608  0.5970 -1.5936  0.8397
35852SOL    HW2 9564   9.560   0.523   6.471  0.7036  0.7977  0.2644
35853SOL     OW 9565   1.194   0.602   1.386 -0.0268 -0.2982  0.4471
35853SOL    HW1 9566   1.132   0.557   1.328  0.9265  0.7907 -1.5106
35853SOL    HW2 9567   1.140   0.666   1.433 -0.4303  0.7276 -1.3163
35854SOL     OW 9568   8.155   9.861   9.360  0.5008  0.5087  0.4971
35854SOL    HW1 9569   8.226   9.896   9.306  1.7753  2.3978  3.2052
35854SOL    HW2 9570   8.083   9.923   9.347 -0.5565 -1.0197 -1.6879
35855SOL     OW 9571  10.557  10.289   1.028 -0.2043  0.0673  0.1108
35855SOL    HW1 9572  10.591  10.335   1.104  2.3862  2.3628 -2.2401
35855SOL    HW2 9573  10.497  10.350   0.987 -1.5044 -1.1107  0.1718
35856SOL     OW 9574   9.755   4.879   7.737 -0.4283  0.4711  0.4167
35856SOL    HW1 9575   9.733   4.946   7.801 -0.3313 -0.0156  0.9666
35856SOL    HW2 9576   9.851   4.883   7.730 -0.0486 -1.7404  2.8753
35857SOL     OW 9577   4.494   2.445   0.046  0.2204 -0.2893  0.0044
35857SOL    HW1 9578   4.439   2.488   0.111  2.9514  0.9473  1.7109
35857SOL    HW2 9579   4.523   2.516  -0.011  0.1808 -0.8734 -0.7434
35858SOL     OW 9580   7.833   5.684   3.037  0.0443 -0.1629 -0.5493
35858SOL    HW1 9581   7.830   5.779   3.049 -1.9536 -0.4919  2.4893
35858SOL    HW2 9582   7.823   5.672   2.942  2.4398  2.6177 -1.3143
35859SOL     OW 9583   8.506   6.480   8.219 -0.4240  0.3908  0.0955
35859SOL    HW1 9584   8.448   6.549   8.188 -1.1574 -0.8681 -1.4667
35859SOL    HW2 9585   8.554   6.452   8.142  0.2623 -0.4628  0.8144
35860SOL     OW 9586   8.383   0.006   5.979  0.3760 -0.3949 -0.0833
35860SOL    HW1 9587   8.342   0.049   5.904  2.0398  1.8151  0.1623
35860SOL    HW2 9588   8.310  -0.025   6.032 -0.8542 -0.9085 -1.9812
35861SOL     OW 9589   9.662   8.079   1.483 -0.1786 -0.0750 -1.0517
35861SOL    HW1 9590   9.630   8.059   1.395 -0.0884  2.7701 -1.8416
35861SOL    HW2 9591   9.751   8.044   1.485 -1.3734 -3.4365 -0.6813
35862SOL     OW 9592  10.505   4.947   5.315  0.9603  0.2668 -0.3625
35862SOL    HW1 9593  10.494   4.855   5.294  0.2395  0.0297  0.9618
35862SOL    HW2 9594  10.572   4.948   5.384  0.4901  0.6560  0.1009
35863SOL     OW 9595   4.639   8.333   4.872  0.2635 -0.1359  0.0265
35863SOL    HW1 9596   4.636   8.269   4.801 -2.2358 -0.5036  0.3460
35863SOL    HW2 9597   4.649   8.417   4.828  2.3450 -0.6073 -0.4796
35864SOL     OW 9598   7.719   1.715   1.172 -0.7734  0.1933  0.1034
35864SOL    HW1 9599   7.749   1.769   1.244  1.6231 -1.1522  0.2446
35864SOL    HW2 9600   7.769   1.633   1.181  2.5621  1.1637 -4.9847
35865SOL     OW 9601   4.801   3.264   9.876 -0.7785  0.4684 -0.2884
35865SOL    HW1 9602   4.747   3.343   9.884 -1.5207 -0.1358  1.0373
35865SOL    HW2 9603   4.740   3.195   9.850 -0.9640 -0.4830  2.3890
35866SOL     OW 9604   9.523   9.601   2.084 -0.9118 -0.0564 -0.2433
35866SOL    HW1 9605   9.574   9.580   2.163 -0.6637 -1.4335 -0.7315
35866SOL    HW2 9606   9.432   9.601   2.114 -0.7899 -0.1067  0.1378
35867SOL     OW 9607   5.948   8.669   8.507 -0.0783 -0.1780 -0.3510
35867SOL    HW1 9608   5.996   8.716   8.574 -0.3601 -1.5305  0.8701
35867SOL    HW2 9609   5.882   8.619   8.556  1.8562 -3.8983 -1.1630
35868SOL     OW 9610   8.579   6.329   5.928  0.0911 -0.5101 -0.1606
35868SOL    HW1 9611   8.606   6.420   5.941 -0.6329 -0.3245  0.1244
35868SOL    HW2 9612   8.523   6.310   6.004 -0.7467 -0.7915 -0.8283
35869SOL     OW 9613   3.324   8.283   9.219 -0.0616  0.1000 -0.7090
35869SOL    HW1 9614   3.410   8.241   9.208 -0.1744  0.1602 -2.0351
35869SOL    HW2 9615   3.286   8.282   9.131 -1.7370 -0.5753 -0.0137
35870SOL     OW 9616   5.704   9.212   0.868 -0.0552  0.1382  0.0147
35870SOL    HW1 9617   5.767   9.284   0.864  0.4387 -0.3622 -2.3511
35870SOL    HW2 9618   5.643   9.238   0.937  2.3667  0.9229  2.0436
35871SOL     OW 9619   5.107   0.009   6.325  0.3114 -0.4846  0.3195
35871SOL    HW1 9620   5.017   0.036   6.306  0.6039 -1.2385 -2.6132
35871SOL    HW2 9621   5.159   0.088   6.313  0.1281 -0.0925  1.8367
35872SOL     OW 9622   4.189   6.492   7.655  0.5778 -0.4753  0.5105
35872SOL    HW1 9623   4.177   6.411   7.704  0.1490 -0.8073 -0.1313
35872SOL    HW2 9624   4.196   6.560   7.722 -0.4090 -0.8660  1.0354
35873SOL     OW 9625   6.600  10.212   0.627 -0.3783 -0.2844  0.1811
35873SOL    HW1 9626   6.613  10.124   0.662 -0.2897 -1.2268 -2.0474
35873SOL    HW2 9627   6.513  10.209   0.586 -0.8766  1.0481  1.0870
35874SOL     OW 9628   2.948   6.578   9.857 -0.0612  0.8869 -0.4736
35874SOL    HW1 9629   2.946   6.549   9.948  1.5888  3.8349  0.6432
35874SOL    HW2 9630   2.872   6.635   9.847 -0.1034  0.7670 -0.8699
35875SOL     OW 9631   2.392   6.005   8.024 -0.0112  0.6342  0.7409
35875SOL    HW1 9632   2.444   6.008   7.944  0.4463 -1.2462  0.9016
35875SOL    HW2 9633   2.301   6.018   7.995  0.0688 -0.7282 -0.2125
35876SOL     OW 9634  10.310   6.326   8.730 -0.0461  0.7669  0.4501
35876SOL    HW1 9635  10.303   6.421   8.736 -2.3015  0.6369  0.9844
35876SOL    HW2 9636  10.260   6.294   8.805  0.3093 -0.8318  0.0374
35877SOL     OW 9637   8.508   2.546   3.332 -0.1805 -0.6778  0.2892
35877SOL    HW1 9638   8.436   2.598   3.366  0.4062  0.2924  0.0707
35877SOL    HW2 9639   8.481   2.523   3.243  0.1379  0.4215 -0.1064
35878SOL     OW 9640   1.339   1.376   5.370 -0.3881 -0.1782 -0.1913
35878SOL    HW1 9641   1.388   1.342   5.296  0.4386 -0.6504  0.5531
35878SOL    HW2 9642   1.327   1.301   5.428 -2.6972 -0.2653 -0.6940
35879SOL     OW 9643   3.629  10.136   4.660 -0.3787 -0.4056  0.2917
35879SOL    HW1 9644   3.541  10.123   4.623 -0.8145  2.6908 -0.0672
35879SOL    HW2 9645   3.688  10.094   4.597 -1.4733 -0.3267 -0.8197
35880SOL     OW 9646   9.935   8.429   9.594 -0.2383 -0.0512 -0.0764
35880SOL    HW1 9647   9.981   8.511   9.613  1.7060 -0.8132 -1.2868
35880SOL    HW2 9648   9.842   8.454   9.594  0.0511  1.4640  2.7695
35881SOL     OW 9649  10.553   8.451   4.348 -0.0693 -0.3452  0.6215
35881SOL    HW1 9650  10.626   8.448   4.411  0.5601 -3.1006 -0.1089
35881SOL    HW2 9651  10.476   8.465   4.403  0.6405 -0.9160  1.8318
35882SOL     OW 9652   7.924  10.180  10.338  0.1099  0.0522  0.5350
35882SOL    HW1 9653   7.831  10.201  10.326 -0.9601 -3.7724  0.8658
35882SOL    HW2 9654   7.966  10.213  10.258 -1.8132  0.4463 -0.3843
35883SOL     OW 9655   6.348   4.165   4.289  0.5055 -0.0403 -0.1651
35883SOL    HW1 9656   6.293   4.095   4.325  0.3416 -0.1417 -0.6133
35883SOL    HW2 9657   6.393   4.202   4.366 -1.7138  1.3913  0.5526
35884SOL     OW 9658   7.954   3.515   7.644  0.5657  0.2464 -0.2268
35884SOL    HW1 9659   8.026   3.549   7.590  1.8701 -0.1512  1.1817
35884SOL    HW2 9660   7.899   3.466   7.583  0.0732  2.6188 -1.8183
35885SOL     OW 9661   5.800   6.878   2.945  0.2177  0.0753  0.0406
35885SOL    HW1 9662   5.888   6.848   2.968  0.1689 -1.1084 -1.1629
35885SOL    HW2 9663   5.770   6.926   3.022  1.7909  0.2371  0.5901
35886SOL     OW 9664  10.418   1.263   8.252 -0.1315  0.1481  0.7645
35886SOL    HW1 9665  10.408   1.190   8.190 -0.7070  0.2775  0.6976
35886SOL    HW2 9666  10.445   1.221   8.333  3.1910  0.1890 -0.1714
35887SOL     OW 9667   0.912   8.384   5.656  0.1021  0.1728 -0.3876
35887SOL    HW1 9668   0.994   8.353   5.695 -0.0448 -2.3822 -1.9448
35887SOL    HW2 9669   0.920   8.365   5.563 -1.3601  2.0281 -0.9617
35888SOL     OW 9670  10.842   6.512   4.276  0.2563  0.2467 -0.3172
35888SOL    HW1 9671  10.886   6.427   4.282 -1.1559 -0.6968 -2.0460
35888SOL    HW2 9672  10.813   6.531   4.365 -0.3643 -1.6707 -0.0641
35889SOL     OW 9673   4.802   0.779   5.508 -0.1445  0.0026 -0.6842
35889SOL    HW1 9674   4.873   0.763   5.571 -0.5377  0.8400  0.0050
35889SOL    HW2 9675   4.839   0.842   5.447 -0.1729  0.1671 -0.5336
35890SOL     OW 9676   3.029   1.158  10.799 -0.1667 -0.8211  0.0592
35890SOL    HW1 9677   3.012   1.076  10.752  1.0549 -0.5607 -0.9133
35890SOL    HW2 9678   3.073   1.130  10.880  0.9083 -1.1113 -0.6069
35891SOL     OW 9679   2.121   3.525   1.748  0.0181  0.4063 -0.0698
35891SOL    HW1 9680   2.059   3.567   1.688 -0.5597  0.5875  0.6427
35891SOL    HW2 9681   2.109   3.431   1.734  0.4356  0.4575 -0.7882
35892SOL     OW 9682   6.615   9.369  10.968 -0.6740 -0.1114 -0.7263
35892SOL    HW1 9683   6.662   9.367  10.884  0.6807  0.6783 -0.0260
35892SOL    HW2 9684   6.532   9.324  10.950 -0.3601 -0.0884 -2.4467
35893SOL     OW 9685   4.017   6.606   9.734  0.1513 -0.4073 -0.4702
35893SOL    HW1 9686   4.036   6.687   9.685  1.2143 -0.3617  0.0006
35893SOL    HW2 9687   3.951   6.633   9.797  3.1003  1.1311  2.2514
35894SOL     OW 9688   4.835   1.473   3.603 -0.2812  0.5751 -0.1684
35894SOL    HW1 9689   4.846   1.382   3.629  2.0079  0.4203 -1.4086
35894SOL    HW2 9690   4.914   1.517   3.635 -0.4685  1.7176 -1.1754
35895SOL     OW 9691   0.243   7.649   4.654  0.2861  0.1917 -0.0621
35895SOL    HW1 9692   0.189   7.619   4.582  2.5423  0.0564 -1.8294
35895SOL    HW2 9693   0.183   7.661   4.727 -1.4763 -4.0934 -0.5432
35896SOL     OW 9694   0.879   7.399   7.001  0.2318  0.4505 -0.2357
35896SOL    HW1 9695   0.832   7.440   7.074 -0.9201 -0.0422 -0.6635
35896SOL    HW2 9696   0.864   7.305   7.013 -3.0300  0.4142 -2.9491
35897SOL     OW 9697   8.733   8.674   1.068  0.4308  0.0983  0.6673
35897SOL    HW1 9698   8.774   8.749   1.111 -0.0500  0.5257  0.3794
35897SOL    HW2 9699   8.703   8.619   1.141 -0.0168  0.6219  0.8822
35898SOL     OW 9700   0.275   4.089   3.750 -0.3443  0.5546  0.0225
35898SOL    HW1 9701   0.342   4.140   3.705  0.5952  0.8003  1.6337
35898SOL    HW2 9702   0.286   4.111   3.842 -0.0868 -2.3206  0.7717
35899SOL     OW 9703   6.464  10.772   6.038 -0.3128 -0.3315 -0.4457
35899SOL    HW1 9704   6.516  10.698   6.071 -1.5522 -1.3078 -0.5919
35899SOL    HW2 9705   6.465  10.761   5.943  0.5409  0.5935 -0.5577
35900SOL     OW 9706   7.724   3.645   1.240 -0.1745  0.1874  0.5033
35900SOL    HW1 9707   7.680   3.631   1.157  0.8304  0.5832 -0.1124
35900SOL    HW2 9708   7.678   3.719   1.280  0.7701  1.5073 -0.7627
35901SOL     OW 9709   5.500   0.171   3.762  0.0930 -0.1572 -0.5381
35901SOL    HW1 9710   5.460   0.090   3.729 -0.6551 -0.2188  0.4975
35901SOL    HW2 9711   5.580   0.180   3.710 -1.3589  0.1190 -2.8632
35902SOL     OW 9712   0.097  10.531   6.784 -0.1040  0.3993 -0.3246
35902SOL    HW1 9713   0.156  10.605   6.798 -1.7561  1.8951 -0.9211
35902SOL    HW2 9714   0.101  10.482   6.866 -0.0553  1.9490  0.6351
35903SOL     OW 9715   5.335   3.335   6.772 -0.2261 -0.3818 -0.2786
35903SOL    HW1 9716   5.376   3.258   6.812  0.5130 -0.2571 -0.7834
35903SOL    HW2 9717   5.311   3.307   6.684 -2.4807 -0.8664  0.4271
35904SOL     OW 9718  10.156  10.557   4.153  0.3575  0.4791  0.1940
35904SOL    HW1 9719  10.169  10.648   4.177  0.1608  0.6616 -0.3714
35904SOL    HW2 9720  10.114  10.560   4.067  1.4740 -0.1418 -0.4149
35905SOL     OW 9721   5.684  10.736   0.528 -0.1903 -0.0626 -1.1189
35905SOL    HW1 9722   5.611  10.780   0.571 -0.2761 -1.6640  0.5072
35905SOL    HW2 9723   5.685  10.771   0.439 -0.7758  2.5138 -0.1846
35906SOL     OW 9724   0.888   1.624   2.792  0.6099 -0.7794 -0.1537
35906SOL    HW1 9725   0.851   1.536   2.781 -1.3900 -0.2683  1.8322
35906SOL    HW2 9726   0.921   1.626   2.882  0.3691  0.5920 -0.0766
35907SOL     OW 9727   3.455   4.050   6.417 -0.1774  0.2128  0.3161
35907SOL    HW1 9728   3.379   4.103   6.443 -1.3737  0.0686 -2.4338
35907SOL    HW2 9729   3.423   3.960   6.420  0.8006 -0.1049  1.7865
35908SOL     OW 9730   9.035   3.800  10.891 -0.2931 -0.0986  0.2897
35908SOL    HW1 9731   8.973   3.867  10.919  0.0054 -0.0846  0.9281
35908SOL    HW2 9732   9.052   3.820  10.799 -2.3790 -0.9833 -0.3567
35909SOL     OW 9733   7.031   6.303   9.078 -0.0987  0.0643  0.4780
35909SOL    HW1 9734   6.999   6.337   9.162  1.1439 -1.2015  1.5256
35909SOL    HW2 9735   7.117   6.266   9.099  0.2282 -0.3039 -1.3694
35910SOL     OW 9736  11.049   9.643   6.010  0.1431 -0.1113  0.1443
35910SOL    HW1 9737  10.981   9.593   5.964  1.3106 -1.2254 -0.4487
35910SOL    HW2 9738  11.000   9.707   6.063 -1.3066  0.0707 -1.3224
35911SOL     OW 9739   0.846   7.785   2.980  0.3654 -0.1102 -0.0560
35911SOL    HW1 9740   0.911   7.746   2.921  0.4543  1.7790 -1.2974
35911SOL    HW2 9741   0.793   7.711   3.010  1.9096 -1.4580 -0.4854
35912SOL     OW 9742   6.137   4.462   0.077  0.0730 -0.3113 -0.0043
35912SOL    HW1 9743   6.157   4.554   0.093  0.8694 -0.4241 -0.3224
35912SOL    HW2 9744   6.090   4.433   0.155  0.3071  0.2166  0.3309
35913SOL     OW 9745   7.399   7.910  10.712  0.0062  0.2994  0.1706
35913SOL    HW1 9746   7.459   7.980  10.685 -1.1233  0.7642 -1.2891
35913SOL    HW2 9747   7.377   7.865  10.631 -1.5158  0.0768  0.6704
35914SOL     OW 9748   4.130   8.737  10.534  0.9287 -0.1546 -0.4643
35914SOL    HW1 9749   4.210   8.787  10.516  0.0590  1.7000  0.5459
35914SOL    HW2 9750   4.112   8.753  10.627 -1.8730  1.5108 -1.1604
35915SOL     OW 9751   4.260   6.365   9.193  0.1967 -0.4030 -0.0057
35915SOL    HW1 9752   4.320   6.290   9.197 -1.2447 -1.6348 -0.4978
35915SOL    HW2 9753   4.239   6.373   9.100 -1.0077 -0.4995  0.2486
35916SOL     OW 9754   3.466   1.792   4.996  0.2759  0.9359 -0.3139
35916SOL    HW1 9755   3.457   1.845   5.075 -4.4545  0.7495 -0.4577
35916SOL    HW2 9756   3.518   1.847   4.937  3.1019  1.4848  2.4577
35917SOL     OW 9757   0.931   6.692   4.210  0.1849 -0.4058  0.1633
35917SOL    HW1 9758   1.000   6.759   4.202 -1.1492  0.9309 -0.7333
35917SOL    HW2 9759   0.849   6.741   4.203 -0.8615 -2.2587 -1.7437
35918SOL     OW 9760   0.388   6.371   4.770 -0.0120  0.4260  0.2063
35918SOL    HW1 9761   0.434   6.360   4.687 -1.8765  2.0903 -1.1071
35918SOL    HW2 9762   0.351   6.284   4.788  1.1486 -0.1799 -0.1972
35919SOL     OW 9763   8.865   6.954   0.609  0.2866  0.2438  0.2716
35919SOL    HW1 9764   8.952   6.921   0.632 -0.1883 -1.0323  0.3072
35919SOL    HW2 9765   8.865   6.954   0.513  0.5415  0.8617  0.2667
35920SOL     OW 9766   2.991   2.108   8.333 -0.3032  0.1711  0.2573
35920SOL    HW1 9767   3.030   2.025   8.361  0.0766  0.4158  0.4593
35920SOL    HW2 9768   2.988   2.161   8.413  1.0210  0.9738 -0.1979
35921SOL     OW 9769  10.668  10.546   2.071 -0.1363  0.5575  0.4490
35921SOL    HW1 9770  10.645  10.607   2.000 -0.7396 -1.0425 -0.7924
35921SOL    HW2 9771  10.764  10.544   2.070  0.0602  3.4898  2.3447
35922SOL     OW 9772   4.182   9.585   6.666 -0.6110 -0.4648  0.1039
35922SOL    HW1 9773   4.235   9.512   6.635  0.8486  1.1658 -1.4029
35922SOL    HW2 9774   4.140   9.620   6.588  1.7922  2.6689  0.0278
35923SOL     OW 9775   4.796   5.616   7.218  0.9321  0.4196 -0.8690
35923SOL    HW1 9776   4.747   5.684   7.172  0.8410  0.1083 -1.2412
35923SOL    HW2 9777   4.856   5.664   7.275 -1.0703  0.8116  1.0308
35924SOL     OW 9778   3.946   5.835   9.723 -0.0064  0.1874 -0.0836
35924SOL    HW1 9779   3.970   5.926   9.744  1.3226  0.1746 -1.4101
35924SOL    HW2 9780   4.027   5.786   9.734 -0.3158 -0.5499 -1.0157
35925SOL     OW 9781   3.534   7.872   2.290 -0.1658 -0.7986  0.1723
35925SOL    HW1 9782   3.509   7.853   2.199  2.9083  0.2407 -1.0338
35925SOL    HW2 9783   3.469   7.936   2.320 -3.8333 -4.2047  0.3797
35926SOL     OW 9784   5.408   0.816   4.679  0.1131 -0.1096  0.3664
35926SOL    HW1 9785   5.403   0.910   4.663  0.3357 -0.2709 -0.7173
35926SOL    HW2 9786   5.394   0.807   4.774 -0.8419  0.9293  0.3484
35927SOL     OW 9787  10.668   4.204   2.541  0.4000 -0.4243  0.3719
35927SOL    HW1 9788  10.592   4.233   2.591 -0.3472  1.2276 -1.6129
35927SOL    HW2 9789  10.700   4.128   2.590 -0.7579  0.5595  2.8532
35928SOL     OW 9790   4.368   0.940   8.192  0.9477  0.0073  0.5907
35928SOL    HW1 9791   4.443   0.970   8.245  2.2377 -1.4995 -0.2943
35928SOL    HW2 9792   4.358   0.848   8.215 -0.3081  0.0430  0.2556
35929SOL     OW 9793   6.095   2.367   6.088 -0.8480 -0.2183 -0.4582
35929SOL    HW1 9794   6.085   2.454   6.127  1.3528 -1.1105  2.4372
35929SOL    HW2 9795   6.029   2.313   6.131 -0.6359 -0.4821 -0.4597
35930SOL     OW 9796   8.823   8.300   7.557  0.0082 -0.3997  0.5628
35930SOL    HW1 9797   8.906   8.342   7.582 -0.5245 -0.3839  2.4776
35930SOL    HW2 9798   8.843   8.253   7.477  0.9695  2.4668 -1.0284
35931SOL     OW 9799   7.544   4.695   2.447 -0.4784 -0.2157  0.4166
35931SOL    HW1 9800   7.572   4.785   2.427  1.2995 -1.3000 -2.6688
35931SOL    HW2 9801   7.626   4.648   2.463 -1.0711 -1.8762 -1.1154
35932SOL     OW 9802   0.919   5.139   3.304  0.1979  0.2483 -0.1238
35932SOL    HW1 9803   1.000   5.095   3.330  1.3502  2.1006 -0.3851
35932SOL    HW2 9804   0.927   5.149   3.209 -0.1373  0.8238 -0.0942
35933SOL     OW 9805  10.133   5.715   1.310 -0.1098 -0.0311  0.0816
35933SOL    HW1 9806  10.207   5.691   1.254  0.8690 -2.2004  2.1253
35933SOL    HW2 9807  10.056   5.697   1.257  0.8025 -0.6449 -1.0828
35934SOL     OW 9808   9.180   7.610   1.252  0.3025  0.0822 -0.6131
35934SOL    HW1 9809   9.254   7.659   1.217 -0.5449  0.2036 -2.3262
35934SOL    HW2 9810   9.210   7.519   1.253  0.2741  0.0405 -1.9405
35935SOL     OW 9811   6.014   7.904   8.286 -0.2701 -0.3001 -0.7849
35935SOL    HW1 9812   6.082   7.898   8.219 -0.5360 -1.2836 -0.9799
35935SOL    HW2 9813   6.025   7.824   8.338 -0.4922  0.1307 -0.0595
35936SOL     OW 9814   0.399   8.063   7.687  0.3367  0.1509  0.2788
35936SOL    HW1 9815   0.316   8.085   7.644 -0.8517 -1.1319  1.8037
35936SOL    HW2 9816   0.401   8.117   7.766  1.4311  0.8560 -0.2073
35937SOL     OW 9817   3.004   2.950   9.090 -0.4124 -0.1441 -0.5303
35937SOL    HW1 9818   2.950   3.011   9.139 -1.3521 -1.1489 -0.2710
35937SOL    HW2 9819   3.052   2.901   9.158  1.9546  1.6449 -0.7664
35938SOL     OW 9820   6.726   1.627   1.972 -0.1924 -0.2673  0.1551
35938SOL    HW1 9821   6.654   1.632   2.034  0.0792 -3.0518  0.7783
35938SOL    HW2 9822   6.785   1.562   2.008  0.7629 -0.8152 -2.2260
35939SOL     OW 9823   8.287   4.127   3.875  0.0793  0.4238 -0.2101
35939SOL    HW1 9824   8.218   4.186   3.845  0.8155  2.3177  1.5401
35939SOL    HW2 9825   8.296   4.063   3.805 -3.1507  0.3027 -0.6712
35940SOL     OW 9826   6.511  10.933   5.335  0.3483 -0.1061  0.2785
35940SOL    HW1 9827   6.446  10.863   5.347  0.1111  0.0384 -0.1478
35940SOL    HW2 9828   6.546  10.918   5.247 -0.3247  0.8114 -0.1624
35941SOL     OW 9829  10.847   5.580   2.512  0.2025 -0.0363 -0.0849
35941SOL    HW1 9830  10.808   5.626   2.438 -0.2636 -0.4839 -0.1289
35941SOL    HW2 9831  10.851   5.488   2.484  2.8947  0.2177 -0.7563
35942SOL     OW 9832   4.220   3.678   8.907 -0.6240  0.1196  0.4715
35942SOL    HW1 9833   4.220   3.585   8.887  0.3139  0.1313  0.3625
35942SOL    HW2 9834   4.178   3.684   8.993  0.0056 -0.5019  0.8384
35943SOL     OW 9835   1.089   9.331   2.521  0.3537 -0.1269  0.7290
35943SOL    HW1 9836   1.054   9.262   2.577  0.1094  1.0878  2.1494
35943SOL    HW2 9837   1.164   9.365   2.568 -0.2257  1.3518  0.6596
35944SOL     OW 9838   8.108   8.904   5.867 -0.1332  0.4097 -0.1495
35944SOL    HW1 9839   8.108   8.885   5.774  1.6770  1.9527 -0.5362
35944SOL    HW2 9840   8.200   8.896   5.893 -0.5270  0.5027  1.4040
35945SOL     OW 9841   4.153   1.327  10.625  0.3417 -0.2875  0.4616
35945SOL    HW1 9842   4.164   1.262  10.694 -1.5777 -0.0562  1.0569
35945SOL    HW2 9843   4.234   1.324  10.575  0.7930 -2.2289  1.2395
35946SOL     OW 9844   8.886   7.820  10.823 -0.1629  0.6403 -0.1900
35946SOL    HW1 9845   8.946   7.799  10.894 -0.6297  2.0615  0.6617
35946SOL    HW2 9846   8.929   7.891  10.775  0.0499 -0.1599 -1.2067
35947SOL     OW 9847   3.669   5.050   0.693 -0.3772 -0.7395  0.7309
35947SOL    HW1 9848   3.578   5.027   0.672  0.0984 -0.1167 -2.5091
35947SOL    HW2 9849   3.720   4.977   0.657  0.5403  0.4438 -0.4484
35948SOL     OW 9850   1.806   9.129   5.946  0.7408 -0.9466 -0.2937
35948SOL    HW1 9851   1.756   9.208   5.967  1.3604 -1.0663  1.7775
35948SOL    HW2 9852   1.883   9.161   5.899  0.7694 -0.3589  0.1456
35949SOL     OW 9853   3.199   6.557   5.022  0.0011  0.1308  0.6034
35949SOL    HW1 9854   3.286   6.551   5.062 -0.2401 -2.4702  0.8774
35949SOL    HW2 9855   3.217   6.572   4.929  0.8626 -1.8771  0.3913
35950SOL     OW 9856   0.315   2.160   4.382  0.2119  0.1087  0.1950
35950SOL    HW1 9857   0.394   2.108   4.391  0.4366  0.2907 -0.6083
35950SOL    HW2 9858   0.251   2.118   4.440  0.7125 -0.3964  0.3864
35951SOL     OW 9859   9.527  10.219   4.765 -0.3316  0.3850 -0.5446
35951SOL    HW1 9860   9.573  10.160   4.824 -1.6408  1.6692  1.9003
35951SOL    HW2 9861   9.597  10.257   4.711  1.2206  0.5205  1.4290
35952SOL     OW 9862   1.377   4.741   3.439  0.3290 -0.3271  0.2997
35952SOL    HW1 9863   1.405   4.831   3.425  0.5857 -0.3831  0.4453
35952SOL    HW2 9864   1.288   4.737   3.404  0.1491  0.0976  0.6992
35953SOL     OW 9865   5.538   8.477   5.936 -0.2853 -0.4238 -0.0039
35953SOL    HW1 9866   5.593   8.545   5.976  0.7303 -0.8300 -0.6636
35953SOL    HW2 9867   5.515   8.513   5.850 -1.9554  0.1868  0.6475
35954SOL     OW 9868   5.455   6.675   8.647  1.0897 -0.2776  0.3247
35954SOL    HW1 9869   5.423   6.696   8.734  0.8452 -0.6027  0.3119
35954SOL    HW2 9870   5.441   6.756   8.596  0.6227 -0.3025  0.4103
35955SOL     OW 9871   3.393   6.560   7.434  0.0491  0.7990  0.0577
35955SOL    HW1 9872   3.320   6.604   7.390 -0.8070 -0.6903 -0.0819
35955SOL    HW2 9873   3.388   6.469   7.403  1.4487  0.4729  0.7136
35956SOL     OW 9874   3.013   6.934   9.731  0.2593  0.3146 -0.1463
35956SOL    HW1 9875   3.065   6.963   9.806 -0.0836 -1.9162  1.0385
35956SOL    HW2 9876   3.076   6.888   9.675  0.5877  2.2708 -1.4782
35957SOL     OW 9877   5.157  10.309   2.088 -0.2054  0.8813  0.4304
35957SOL    HW1 9878   5.240  10.339   2.051 -0.0283  0.2030  0.2665
35957SOL    HW2 9879   5.123  10.386   2.135  0.4610  1.1964  0.4149
35958SOL     OW 9880   9.587   2.187   0.160  0.2440  0.0355  0.1494
35958SOL    HW1 9881   9.558   2.271   0.194 -1.2995  0.5237 -2.1507
35958SOL    HW2 9882   9.508   2.133   0.159  0.5109 -0.3720 -1.3438
35959SOL     OW 9883   8.859   3.914   2.521  0.6305 -0.6255 -0.2748
35959SOL    HW1 9884   8.944   3.880   2.550  0.1102 -0.9532  0.9180
35959SOL    HW2 9885   8.880   3.994   2.474  1.5262  0.0947  1.2642
35960SOL     OW 9886   1.314   4.661   8.174  0.0276  1.1813  0.6409
35960SOL    HW1 9887   1.274   4.720   8.110 -1.2504 -2.6476 -2.5617
35960SOL    HW2 9888   1.264   4.579   8.165  2.9237 -1.1030  3.1320
35961SOL     OW 9889  10.406   7.653   0.009 -0.0531  0.6079  0.7488
35961SOL    HW1 9890  10.490   7.640  -0.034  1.0093  1.5864  2.4232
35961SOL    HW2 9891  10.344   7.666  -0.062  1.1294 -0.4511 -0.5326
35962SOL     OW 9892   6.939   6.582   1.872  0.4388 -0.4103 -0.0479
35962SOL    HW1 9893   6.959   6.595   1.964  2.2578 -0.7117 -0.3628
35962SOL    HW2 9894   6.853   6.539   1.872 -1.5447  3.1915  1.2850
35963SOL     OW 9895  10.722  10.882   9.336  0.2679 -0.1652 -0.1844
35963SOL    HW1 9896  10.694  10.958   9.284  0.9320  0.7889  0.7931
35963SOL    HW2 9897  10.643  10.829   9.346 -0.9040  1.7488  1.3266
35964SOL     OW 9898   5.652   6.889   1.870  0.3679  0.7094 -0.4678
35964SOL    HW1 9899   5.720   6.941   1.913 -0.8044  0.6653  1.5608
35964SOL    HW2 9900   5.696   6.852   1.793  2.1681  1.9602 -0.1119
35965SOL     OW 9901   2.702   7.103   6.586 -1.1514  0.6743  0.3165
35965SOL    HW1 9902   2.745   7.129   6.668 -1.6679 -0.5717  1.0220
35965SOL    HW2 9903   2.731   7.014   6.571  0.1514  1.3781 -1.7435
35966SOL     OW 9904   9.923   5.100   4.353 -0.2141 -0.3236  0.2797
35966SOL    HW1 9905  10.004   5.145   4.330 -0.9429  0.6843 -0.4011
35966SOL    HW2 9906   9.924   5.020   4.299  0.2522 -0.2410  0.1643
35967SOL     OW 9907   7.624   7.691   8.454  0.3104  0.3636 -0.0203
35967SOL    HW1 9908   7.713   7.724   8.456  1.0558 -1.4352 -1.2280
35967SOL    HW2 9909   7.613   7.653   8.367 -0.6175 -2.0289  1.0425
35968SOL     OW 9910   5.836   9.551  10.026  0.3398 -0.8265 -0.4104
35968SOL    HW1 9911   5.790   9.504   9.956 -1.4865  0.4798 -0.1617
35968SOL    HW2 9912   5.771   9.614  10.059  2.3866  1.2931 -0.1737
35969SOL     OW 9913   6.779   8.116   6.763  0.1360  0.5310  0.5746
35969SOL    HW1 9914   6.829   8.038   6.786  2.3777  0.5049 -3.4105
35969SOL    HW2 9915   6.691   8.083   6.743  1.2064 -1.2174 -1.6483
35970SOL     OW 9916   3.645   9.535   3.394  0.0639  0.3676  0.0315
35970SOL    HW1 9917   3.577   9.507   3.333  2.0593  0.5777 -2.4324
35970SOL    HW2 9918   3.668   9.624   3.366  1.8647  0.0251  0.2865
35971SOL     OW 9919  10.595   8.841   1.222  0.3234 -0.2040 -0.8613
35971SOL    HW1 9920  10.583   8.757   1.266  0.5331 -0.1669 -0.7288
35971SOL    HW2 9921  10.628   8.819   1.135 -0.2258 -0.2836 -1.0539
35972SOL     OW 9922   9.098   2.557   2.792 -0.1765  0.0781  0.1959
35972SOL    HW1 9923   9.100   2.532   2.699  1.7325  0.3636  0.1103
35972SOL    HW2 9924   9.184   2.531   2.825 -0.1612  1.6125  1.4466
35973SOL     OW 9925   7.062   4.440   0.974 -0.0267 -0.1007  0.5897
35973SOL    HW1 9926   7.141   4.486   0.946 -1.6040  2.0316 -0.6952
35973SOL    HW2 9927   7.009   4.508   1.017 -1.6703 -1.1646  0.3194
35974SOL     OW 9928   0.193   2.433   8.664 -0.6277  0.5079 -0.2172
35974SOL    HW1 9929   0.283   2.450   8.638 -0.4100 -1.1888 -0.6815
35974SOL    HW2 9930   0.148   2.414   8.581 -1.5460  1.7798 -0.0476
35975SOL     OW 9931   3.819   3.470   4.052 -0.1479 -0.0461 -0.1696
35975SOL    HW1 9932   3.897   3.421   4.026 -1.9083 -1.9964 -1.9935
35975SOL    HW2 9933   3.759   3.405   4.087 -0.8208  1.4984  1.7753
35976SOL     OW 9934   9.884   3.157   6.757 -0.3503  0.3729  0.6234
35976SOL    HW1 9935   9.912   3.235   6.805  0.7041 -0.1778  0.9161
35976SOL    HW2 9936   9.808   3.125   6.806 -0.7966  1.2156  0.4969
35977SOL     OW 9937  10.304   8.334   6.020  0.6512 -0.8609 -0.3215
35977SOL    HW1 9938  10.310   8.262   6.083 -0.2799 -0.9925 -0.3671
35977SOL    HW2 9939  10.231   8.309   5.963 -0.0948  0.4059  0.0460
35978SOL     OW 9940   2.492   3.878   6.980 -0.7071  0.5472 -0.1232
35978SOL    HW1 9941   2.580   3.842   6.972 -0.9688  0.1161 -1.2277
35978SOL    HW2 9942   2.487   3.910   7.070  0.1754 -0.4845  0.3111
35979SOL     OW 9943   3.464   4.386   2.312  0.7244  0.1662  0.1723
35979SOL    HW1 9944   3.538   4.397   2.372  1.2613 -1.2475 -0.2052
35979SOL    HW2 9945   3.500   4.406   2.226 -0.1393  2.5657  0.3021
35980SOL     OW 9946   6.500   5.451   9.479  0.5455 -0.7792 -0.2886
35980SOL    HW1 9947   6.449   5.383   9.435  1.1098 -0.5101 -1.4085
35980SOL    HW2 9948   6.475   5.444   9.571 -3.0058  0.6389 -0.9775
35981SOL     OW 9949  10.695   5.616   9.419 -0.0751  0.5698 -0.1211
35981SOL    HW1 9950  10.647   5.537   9.395  0.4234  0.7536 -1.9066
35981SOL    HW2 9951  10.785   5.598   9.393  0.3106  1.2076  0.7423
35982SOL     OW 9952   4.951   7.462   8.796 -0.6967 -0.4211 -0.0922
35982SOL    HW1 9953   4.907   7.438   8.714 -0.5071  0.6158 -0.5141
35982SOL    HW2 9954   5.035   7.416   8.792 -1.0212 -1.0191 -0.0972
35983SOL     OW 9955   8.820   4.217   0.248  0.8350 -0.4984 -0.1936
35983SOL    HW1 9956   8.771   4.186   0.172 -0.6414 -0.5781  0.7636
35983SOL    HW2 9957   8.836   4.310   0.231 -1.0363 -0.0828  0.1722
35984SOL     OW 9958   5.941   2.706   5.568  0.4795 -0.0444 -0.0852
35984SOL    HW1 9959   6.018   2.715   5.625  0.0194  0.4262  0.4868
35984SOL    HW2 9960   5.909   2.617   5.584  0.7767 -0.1633 -0.1543
35985SOL     OW 9961   9.335   0.626   7.641  0.8240  0.6272  0.1854
35985SOL    HW1 9962   9.306   0.546   7.597  4.1825 -1.5504  1.5306
35985SOL    HW2 9963   9.278   0.633   7.718  1.5225 -1.5633  0.9754
35986SOL     OW 9964   4.424   0.776  10.822  0.1042  0.2118  0.5561
35986SOL    HW1 9965   4.423   0.816  10.908  2.7827 -0.0151  0.7923
35986SOL    HW2 9966   4.515   0.786  10.792 -0.5506 -0.4515 -1.8807
35987SOL     OW 9967   0.958   8.430   9.096  0.1298 -0.1279  0.2982
35987SOL    HW1 9968   1.002   8.511   9.121  1.6582 -0.3043 -1.5653
35987SOL    HW2 9969   0.865   8.452   9.094  0.4125  1.2127  1.0381
35988SOL     OW 9970   1.065   4.528   6.846  0.2945 -0.5088  0.0417
35988SOL    HW1 9971   1.071   4.494   6.935  0.2800  1.0281  0.6603
35988SOL    HW2 9972   0.998   4.475   6.804 -1.8829  0.6356  1.8824
35989SOL     OW 9973   6.952   5.960   3.225  0.1725  0.2428  0.3830
35989SOL    HW1 9974   6.983   5.963   3.315  0.4680 -1.1617  0.3621
35989SOL    HW2 9975   6.912   5.873   3.217  1.5732 -0.3150 -1.2607
35990SOL     OW 9976   5.860   9.494   7.556 -0.0625  0.1313  0.5231
35990SOL    HW1 9977   5.803   9.417   7.547  0.6212 -0.2706 -0.5375
35990SOL    HW2 9978   5.896   9.508   7.469 -1.8204  3.0177  0.1295
35991SOL     OW 9979   9.163   5.140   2.737  0.1965  0.1521 -0.1462
35991SOL    HW1 9980   9.119   5.073   2.789 -0.5723  1.1554  0.5262
35991SOL    HW2 9981   9.096   5.171   2.677  0.9058 -0.5543 -1.3396
35992SOL     OW 9982  10.860   7.612   6.697  0.4980  0.2708 -0.3002
35992SOL    HW1 9983  10.834   7.624   6.789 -0.2645 -0.0185 -0.4758
35992SOL    HW2 9984  10.783   7.577   6.654  0.2165  2.1652 -1.4634
35993SOL     OW 9985   9.079   1.935   9.526 -0.0318  0.5546  0.0736
35993SOL    HW1 9986   9.029   1.977   9.456  0.5142  0.6071 -0.2876
35993SOL    HW2 9987   9.171   1.954   9.505  0.1884 -0.3054  0.2357
35994SOL     OW 9988   3.413   4.081   9.278  0.1636 -0.1534  0.1100
35994SOL    HW1 9989   3.444   4.030   9.203 -1.8875 -0.7017 -0.4245
35994SOL    HW2 9990   3.483   4.073   9.343  2.2133  0.7021 -1.8508
35995SOL     OW 9991   9.700   3.044   7.394 -0.4936 -0.0982 -0.2679
35995SOL    HW1 9992   9.699   3.015   7.303 -2.3309 -3.6225  0.6860
35995SOL    HW2 9993   9.613   3.083   7.407 -0.3090  0.2119  0.0461
35996SOL     OW 9994   1.784   9.582  10.107  0.3127 -0.1480  0.1195
35996SOL    HW1 9995   1.869   9.540  10.111  0.5886  0.4920  2.1973
35996SOL    HW2 9996   1.730   9.534  10.169 -0.1650  0.8403  0.4944
35997SOL     OW 9997   9.095   5.317   8.003 -0.3419 -0.5465 -0.8020
35997SOL    HW1 9998   9.010   5.361   8.001  0.3243  0.8379 -0.0614
35997SOL    HW2 9999   9.090   5.253   7.933 -1.4921  0.4952 -1.7285
35998SOL     OW10000   5.864   0.618   3.941  0.1936  0.2182 -0.6330
35998SOL    HW110001   5.928   0.689   3.951  1.4925 -0.8430 -0.9875
35998SOL    HW210002   5.821   0.612   4.026  0.1585  1.3289 -0.5608
35999SOL     OW10003   0.945   3.309   9.332 -0.4282  0.0721  0.0652
35999SOL    HW110004   0.897   3.237   9.372 -0.1293 -0.1951 -0.0599
35999SOL    HW210005   0.935   3.295   9.238 -0.4558  0.2498  0.0413
36000SOL     OW10006   1.355   2.607   3.457  0.2819 -0.1698  0.2741
36000SOL    HW110007   1.358   2.681   3.517 -1.7097  0.5910 -0.4806
36000SOL    HW210008   1.435   2.557   3.476  0.8962  1.3232  1.8573
36001SOL     OW10009   7.794   0.017   0.218  0.8748  0.4188 -0.7287
36001SOL    HW110010   7.814   0.076   0.144 -1.3393  2.3392  0.0750
36001SOL    HW210011   7.879  -0.001   0.258  1.7038  2.9057 -1.1931
36002SOL     OW10012   9.721   7.322   0.462  0.4147  0.4706 -0.5577
36002SOL    HW110013   9.643   7.330   0.408  0.3055  1.2228 -0.2985
36002SOL    HW210014   9.792   7.356   0.407 -0.1623  4.2446  0.8025
36003SOL     OW10015   2.379   0.920   9.110 -0.4637  0.1604 -0.0199
36003SOL    HW110016   2.394   1.013   9.130  1.1851  0.0000 -0.3584
36003SOL    HW210017   2.376   0.916   9.014  0.9306 -0.3070 -0.0658
36004SOL     OW10018   0.383   1.412  11.093  0.0918 -0.2289  0.1947
36004SOL    HW110019   0.416   1.485  11.040  2.6753 -1.1957  0.3149
36004SOL    HW210020   0.334   1.358  11.031  0.5121  0.2012 -0.5283
36005SOL     OW10021  10.800   9.349   3.314 -0.0987 -0.1730  0.6399
36005SOL    HW110022  10.795   9.445   3.308 -2.6089 -0.2049  1.0101
36005SOL    HW210023  10.709   9.320   3.301  0.9676 -2.7279 -2.7490
36006SOL     OW10024   9.894   4.695   0.168 -0.0623  0.0665  1.2065
36006SOL    HW110025   9.888   4.761   0.099 -3.8429 -1.1589  0.1064
36006SOL    HW210026   9.846   4.732   0.241 -4.8684 -2.1579 -0.3836
36007SOL     OW10027   5.229   4.270   3.795  0.3665  0.1936 -0.7559
36007SOL    HW110028   5.205   4.355   3.830  0.7687 -0.5316  1.4784
36007SOL    HW210029   5.173   4.208   3.842  0.9277 -0.8760 -1.4444
36008SOL     OW10030   3.585   2.348   0.915 -0.6368 -0.6102 -0.1874
36008SOL    HW110031   3.526   2.397   0.973  1.2277 -0.1315  1.3849
36008SOL    HW210032   3.620   2.278   0.969  1.9894  0.4783 -0.3231
36009SOL     OW10033   0.962   2.506   1.163  0.7796 -0.0390  0.4697
36009SOL    HW110034   0.879   2.467   1.188  1.1797 -0.1461  1.6781
36009SOL    HW210035   1.028   2.442   1.191  1.2877  0.1950 -0.1674
36010SOL     OW10036  10.981  10.805   4.186 -0.2252  0.4094  0.1363
36010SOL    HW110037  11.057  10.748   4.198  1.4554  2.0563 -1.9517
36010SOL    HW210038  10.966  10.845   4.272 -0.2974 -1.6920  1.1707
36011SOL     OW10039   7.598  11.055   9.911 -0.1824 -0.0857 -0.1977
36011SOL    HW110040   7.578  10.974   9.958  1.7826  0.9723  2.7038
36011SOL    HW210041   7.513  11.085   9.878 -1.8783 -0.5916  3.3105
36012SOL     OW10042   4.404   4.285   2.974  0.0489  0.3419  0.1406
36012SOL    HW110043   4.448   4.216   2.925  0.1751  0.2703  0.3533
36012SOL    HW210044   4.474   4.346   2.998  0.1890 -0.2001  1.2118
36013SOL     OW10045   3.953   6.363   2.323 -0.2662 -0.0396  0.1890
36013SOL    HW110046   3.956   6.421   2.247  0.9676  0.3060  0.4800
36013SOL    HW210047   4.025   6.301   2.309 -0.9385 -0.8729  0.3748
36014SOL     OW10048   6.197   8.948   3.650  0.1414  0.5739  0.0278
36014SOL    HW110049   6.168   9.010   3.583  1.1667  0.5347 -0.4713
36014SOL    HW210050   6.290   8.967   3.662  0.1018  0.2209  1.0656
36015SOL     OW10051   6.720   3.065   8.561  0.5265 -0.0046  0.0078
36015SOL    HW110052   6.681   3.135   8.614  0.0121  1.0641 -1.7184
36015SOL    HW210053   6.814   3.078   8.571  0.4354  0.4235  0.3629
36016SOL     OW10054   4.091   0.783   4.111 -0.1643 -0.1609  0.7686
36016SOL    HW110055   4.174   0.770   4.155  0.3150  1.9359  0.5962
36016SOL    HW210056   4.060   0.695   4.090  1.9004 -0.9876  1.0185
36017SOL     OW10057   8.687   4.425   7.049 -0.3809 -0.3479  0.0712
36017SOL    HW110058   8.733   4.341   7.046  0.8224  0.2912 -0.2120
36017SOL    HW210059   8.703   4.464   6.963  0.7657  1.0089  0.8445
36018SOL     OW10060   4.998   1.621   7.236 -0.5957 -0.5461 -0.6123
36018SOL    HW110061   4.914   1.633   7.191  0.2723  0.3987 -2.0445
36018SOL    HW210062   5.060   1.599   7.167  0.0859 -2.8017  0.6146
36019SOL     OW10063   2.319   8.696   5.332 -0.3483  0.2512 -0.3299
36019SOL    HW110064   2.367   8.672   5.253  1.2065 -3.8018  1.5386
36019SOL    HW210065   2.231   8.664   5.318 -0.8099  1.8173 -1.2723
36020SOL     OW10066  10.585   5.942   9.108 -0.0387  0.1638  0.0920
36020SOL    HW110067  10.672   5.906   9.124 -0.1750  0.0260  0.5405
36020SOL    HW210068  10.535   5.919   9.186 -0.0910  1.4319  0.4466
36021SOL     OW10069   8.317  10.121   1.588 -0.5154  0.1639  0.0655
36021SOL    HW110070   8.360  10.049   1.635 -0.2553  0.0330 -0.3587
36021SOL    HW210071   8.352  10.114   1.499  1.9338  2.6773  0.6699
36022SOL     OW10072  11.008   1.033   5.551  0.0881 -0.2983  0.5446
36022SOL    HW110073  10.924   1.078   5.545 -1.6480 -3.0854  2.0408
36022SOL    HW210074  11.044   1.061   5.635  1.2595  1.6873 -0.5410
36023SOL     OW10075   0.416   7.379   0.505 -0.0498  0.5303 -0.5292
36023SOL    HW110076   0.452   7.405   0.420  0.8952  1.1231  0.0358
36023SOL    HW210077   0.322   7.392   0.496 -0.0237  0.0756 -1.6542
36024SOL     OW10078   7.952   6.537  11.052  0.3362 -0.6235  0.3719
36024SOL    HW110079   7.958   6.486  10.971  0.9072  1.1699 -0.7615
36024SOL    HW210080   8.028   6.510  11.103  0.2736 -1.3669  0.0932
36025SOL     OW10081   4.428   3.375   7.332 -0.4529 -0.4042 -0.7495
36025SOL    HW110082   4.405   3.384   7.424  2.1752 -0.6314  0.0077
36025SOL    HW210083   4.410   3.283   7.311  2.4804 -1.4033  0.7005
36026SOL     OW10084   0.680   4.167  10.497  0.4636 -0.0908 -0.4863
36026SOL    HW110085   0.609   4.215  10.454  0.5326 -0.5818 -1.1793
36026SOL    HW210086   0.716   4.112  10.427  0.8515 -0.6062  0.1141
36027SOL     OW10087   9.831   6.899   0.340 -0.6112 -0.2683  0.3215
36027SOL    HW110088   9.780   6.968   0.384 -0.2299 -0.6105  1.3335
36027SOL    HW210089   9.878   6.856   0.411  0.0493 -0.8297 -0.4432
36028SOL     OW10090   7.547   8.982   5.144 -0.4845  0.4077 -0.3691
36028SOL    HW110091   7.580   8.993   5.055  1.0863  0.8226  0.2333
36028SOL    HW210092   7.626   8.974   5.198 -1.4058  0.2540  0.9968
36029SOL     OW10093   8.780   9.292   0.213  0.2836  0.0243  0.5167
36029SOL    HW110094   8.686   9.309   0.208  0.4100  0.3455 -1.5162
36029SOL    HW210095   8.793   9.255   0.301 -1.9247 -1.2666  0.3743
36030SOL     OW10096   9.384   1.584   1.883  0.0223 -0.1385  0.0877
36030SOL    HW110097   9.470   1.573   1.843 -0.5242  0.5185 -1.3223
36030SOL    HW210098   9.324   1.534   1.827 -0.8680  1.3845 -0.4010
36031SOL     OW10099   3.474   6.196   0.287 -0.0716  0.3591  0.2138
36031SOL    HW110100   3.460   6.119   0.231  2.1856  0.9063 -1.2446
36031SOL    HW210101   3.387   6.234   0.297 -1.1367 -1.9519  0.3828
36032SOL     OW10102   6.556   7.528   7.635  0.0880  0.1410  0.0025
36032SOL    HW110103   6.559   7.562   7.546 -1.2766 -1.1228 -0.5842
36032SOL    HW210104   6.602   7.593   7.688 -0.6119  1.8093 -1.3455
36033SOL     OW10105   5.957   1.977   7.961  0.3216  0.7023  0.5296
36033SOL    HW110106   5.974   1.903   8.020 -2.1631  0.2458  0.7904
36033SOL    HW210107   5.986   1.947   7.875 -2.1733 -1.3688  0.2765
36034SOL     OW10108   2.523   0.537   5.249  0.6931 -0.7013 -0.0456
36034SOL    HW110109   2.503   0.447   5.275  0.9613 -0.6342  0.4180
36034SOL    HW210110   2.494   0.590   5.324  0.8856 -0.4374 -0.1569
36035SOL     OW10111   0.799   0.139   7.434 -0.4970 -0.7316  0.4182
36035SOL    HW110112   0.872   0.157   7.493 -0.9201  1.6837  0.3080
36035SOL    HW210113   0.723   0.176   7.478 -1.0351  0.0011 -1.0534
36036SOL     OW10114   6.396   7.785   6.063  0.5924 -0.8091  0.1383
36036SOL    HW110115   6.362   7.759   6.149  1.4564 -0.1268  0.7006
36036SOL    HW210116   6.482   7.745   6.058  1.0238  0.1052  0.0863
36037SOL     OW10117  11.074   9.312   1.306 -0.3929 -0.4589 -0.0069
36037SOL    HW110118  11.054   9.306   1.400  0.3600  0.7823  0.2490
36037SOL    HW210119  11.146   9.249   1.294 -0.7149 -0.8687  0.1710
36038SOL     OW10120   8.053   8.003   6.946  0.0559 -0.5412 -0.3013
36038SOL    HW110121   8.103   8.001   6.865  1.6003  1.1123  0.5453
36038SOL    HW210122   8.118   7.987   7.015 -0.7849  0.4673  0.7620
36039SOL     OW10123   7.879   8.343  10.830 -0.0697 -0.4479 -0.5224
36039SOL    HW110124   7.800   8.376  10.871  0.9925 -3.4215  4.8919
36039SOL    HW210125   7.855   8.255  10.800  0.7001 -0.6789 -0.4846
36040SOL     OW10126   6.124   8.139   3.746 -0.0322  0.3589  0.1842
36040SOL    HW110127   6.170   8.221   3.729 -0.9486  0.9093  0.2800
36040SOL    HW210128   6.192   8.072   3.740  0.7485  1.1277  0.1900
36041SOL     OW10129   2.451   9.146   2.471  0.7398 -0.1403  0.5771
36041SOL    HW110130   2.481   9.164   2.382 -0.5387  2.2203  0.5367
36041SOL    HW210131   2.527   9.109   2.515  1.6029 -0.7148 -1.3055
36042SOL     OW10132   9.846   8.728   2.581 -0.6271 -0.4661  0.9042
36042SOL    HW110133   9.939   8.727   2.558 -0.8279  0.1643 -0.0227
36042SOL    HW210134   9.832   8.814   2.621 -1.0475 -0.0229 -0.1392
36043SOL     OW10135   6.999   9.318   4.138  0.3130  0.0520 -0.3982
36043SOL    HW110136   6.952   9.248   4.183  0.2586 -0.3861 -1.1139
36043SOL    HW210137   7.089   9.312   4.170  0.4107 -0.6387 -0.7815
36044SOL     OW10138   7.428   8.164   1.155 -0.0445  0.2368 -0.0456
36044SOL    HW110139   7.485   8.096   1.117  1.8459  1.5843  0.2155
36044SOL    HW210140   7.486   8.239   1.167 -1.9397  1.7239  0.2138
36045SOL     OW10141   8.211   7.619   9.995 -0.0316 -0.1202  1.1479
36045SOL    HW110142   8.274   7.553   9.969 -0.8273 -0.6675  0.5570
36045SOL    HW210143   8.131   7.570  10.015 -0.5754  0.6328  0.8924
36046SOL     OW10144   2.712   1.372  10.925 -0.0338 -0.0459  0.4915
36046SOL    HW110145   2.776   1.301  10.931 -0.5548 -0.6287 -0.5141
36046SOL    HW210146   2.710   1.410  11.012  3.0170  1.1937  0.1344
36047SOL     OW10147   2.936   5.583   4.543  0.3762  0.4162  0.3712
36047SOL    HW110148   3.019   5.618   4.510 -1.6526  2.9903 -2.4973
36047SOL    HW210149   2.926   5.498   4.500  1.8340 -0.3160  1.4018
36048SOL     OW10150  10.667   4.113   8.034 -0.1662 -0.0049 -0.0069
36048SOL    HW110151  10.744   4.101   8.090 -1.4189  1.1619  2.0970
36048SOL    HW210152  10.685   4.059   7.958  1.4361 -2.1314  1.7357
36049SOL     OW10153   1.107   4.899   6.584  0.0326  0.6765 -0.7275
36049SOL    HW110154   1.027   4.919   6.534 -1.6452 -0.7620  1.1935
36049SOL    HW210155   1.110   4.967   6.651 -0.6239 -0.2573  0.2851
36050SOL     OW10156   3.196   2.547   0.663  0.3092  0.8570  0.1071
36050SOL    HW110157   3.174   2.566   0.572 -0.5031 -2.2296 -0.4556
36050SOL    HW210158   3.112   2.549   0.709  0.3165 -0.2890  0.1927
36051SOL     OW10159   7.870   0.653   8.174 -0.0965 -0.4127  0.7021
36051SOL    HW110160   7.926   0.615   8.106 -0.0734  0.8605 -0.0181
36051SOL    HW210161   7.808   0.708   8.127 -1.9920 -1.7871  1.5004
36052SOL     OW10162   8.091   4.381   3.300  0.1498 -0.1425 -0.3907
36052SOL    HW110163   8.068   4.456   3.246 -2.2441 -0.9308 -0.5726
36052SOL    HW210164   8.126   4.316   3.239  1.9710  0.6479 -0.2661
36053SOL     OW10165   8.361   1.828   3.979  0.3342 -0.2020 -0.2738
36053SOL    HW110166   8.408   1.854   3.900  0.6856  2.1656  0.6309
36053SOL    HW210167   8.409   1.751   4.011  1.7725  0.3500 -1.0024
36054SOL     OW10168   1.496  10.926   6.960 -0.2957 -0.1800  0.6311
36054SOL    HW110169   1.403  10.904   6.963 -0.0789 -1.4652 -0.8477
36054SOL    HW210170   1.501  11.003   6.904 -0.3349 -1.1659 -0.7731
36055SOL     OW10171   9.119   9.707   8.026 -0.8977 -0.2932  0.3553
36055SOL    HW110172   9.064   9.749   8.092 -0.7982 -0.0884  0.3069
36055SOL    HW210173   9.057   9.661   7.970 -1.2053  1.3944 -0.7744
36056SOL     OW10174   4.951   5.719   3.486 -0.0645  0.2048  0.0983
36056SOL    HW110175   4.901   5.704   3.406  0.2210  0.4116 -0.1191
36056SOL    HW210176   4.884   5.730   3.554 -0.3903  2.1998 -0.4802
36057SOL     OW10177   3.047   8.016   2.212 -0.0116 -0.1185  0.1427
36057SOL    HW110178   3.141   8.007   2.195 -0.0788 -0.4452 -0.0597
36057SOL    HW210179   3.007   7.944   2.165 -0.1745 -1.2944  1.9810
36058SOL     OW10180   4.486   4.992   7.096 -0.5100 -0.1679  1.0739
36058SOL    HW110181   4.529   4.969   7.178  1.2609  1.1159  0.5866
36058SOL    HW210182   4.518   4.926   7.034  1.1385  0.9590  0.6421
36059SOL     OW10183   0.378   8.942   5.030  0.0306  0.3130 -0.2818
36059SOL    HW110184   0.390   8.858   5.075  1.2956  0.9529  0.6660
36059SOL    HW210185   0.433   8.935   4.952  2.0133  1.0237  0.9559
36060SOL     OW10186   9.521  10.277   4.223 -0.2124 -0.7202 -0.7004
36060SOL    HW110187   9.456  10.282   4.293  0.0034  0.0361 -0.5442
36060SOL    HW210188   9.580  10.351   4.239  0.4784 -1.1822 -1.0513
36061SOL     OW10189   9.689   8.290   1.195 -0.0118 -0.1748  0.0834
36061SOL    HW110190   9.650   8.364   1.149 -0.2197 -0.2636  0.1152
36061SOL    HW210191   9.689   8.219   1.131 -2.1697 -0.8972  0.8115
36062SOL     OW10192   0.555   1.552   9.921  0.8477  0.1331 -0.2950
36062SOL    HW110193   0.513   1.524  10.002  2.4042 -0.7347  0.2427
36062SOL    HW210194   0.551   1.475   9.864 -1.5479  1.1483 -1.6788
36063SOL     OW10195   9.951   2.113   4.286  0.7308 -0.5390 -0.3214
36063SOL    HW110196   9.956   2.106   4.382  0.0374 -1.9204 -0.3616
36063SOL    HW210197  10.026   2.062   4.255  0.6625 -0.5122 -0.5292
36064SOL     OW10198   6.430   6.533   8.936  0.0997  0.2897 -0.4516
36064SOL    HW110199   6.451   6.440   8.924  0.1674  0.3443 -0.7690
36064SOL    HW210200   6.343   6.543   8.895  0.8365  0.7241 -1.9963
36065SOL     OW10201   8.987   2.236   8.863  0.5633 -0.0998  0.1125
36065SOL    HW110202   8.904   2.193   8.839  0.0697 -0.3737  2.1364
36065SOL    HW210203   8.968   2.329   8.857  0.4182 -0.1519 -0.3490
36066SOL     OW10204   1.163  10.439   8.914  0.6870 -0.0283  0.0550
36066SOL    HW110205   1.077  10.478   8.930  1.4720  2.1062 -0.5123
36066SOL    HW210206   1.144  10.357   8.868 -1.0624 -0.1598  0.9286
36067SOL     OW10207   9.603   5.259   8.721  0.9542  0.2712  0.2289
36067SOL    HW110208   9.555   5.195   8.774  0.0504  0.0146 -0.8595
36067SOL    HW210209   9.586   5.343   8.763 -0.5996  0.2062 -0.2077
36068SOL     OW10210   6.126   8.652   9.655  0.3347 -0.1291 -0.5962
36068SOL    HW110211   6.192   8.621   9.593  1.8417  0.8947  0.4064
36068SOL    HW210212   6.111   8.743   9.631  0.1003 -0.0444 -0.1409
36069SOL     OW10213  10.399   5.206   0.427  0.1570  0.0294  0.6099
36069SOL    HW110214  10.431   5.205   0.337 -1.9904  2.0559 -0.2933
36069SOL    HW210215  10.470   5.245   0.478  1.1156 -0.4690 -0.3315
36070SOL     OW10216   1.399   8.942   3.587 -0.9963 -0.3392  0.0664
36070SOL    HW110217   1.333   8.981   3.530 -1.3918  1.7573  1.8416
36070SOL    HW210218   1.374   8.970   3.675  1.3280 -0.8934  0.9629
36071SOL     OW10219  10.330   1.213   0.240  0.4080 -0.0577  0.0688
36071SOL    HW110220  10.392   1.241   0.308 -1.6563  2.3900  1.1139
36071SOL    HW210221  10.276   1.146   0.283  1.2021 -0.9461 -0.2899
36072SOL     OW10222  10.129   6.832   4.100  0.2206 -0.3131  0.0613
36072SOL    HW110223  10.068   6.879   4.044 -0.1827  1.4020  1.8738
36072SOL    HW210224  10.201   6.809   4.041 -2.1244 -2.6112 -2.1959
36073SOL     OW10225   0.495   3.834   1.820 -0.4155  0.1794  0.0094
36073SOL    HW110226   0.555   3.765   1.791 -0.6638  0.7321 -2.0031
36073SOL    HW210227   0.441   3.792   1.887  0.1992 -1.2427 -0.3426
36074SOL     OW10228   7.821   2.557   2.615  0.0220 -0.0037 -0.2545
36074SOL    HW110229   7.911   2.589   2.622 -0.0026  1.1056 -3.3753
36074SOL    HW210230   7.828   2.462   2.623  0.5634  0.1199  5.5072
36075SOL     OW10231   7.977   0.552   6.481 -0.5861 -0.0495 -0.3834
36075SOL    HW110232   8.028   0.592   6.551 -1.2403 -1.6324  1.0926
36075SOL    HW210233   7.886   0.569   6.505 -0.8960 -2.2576  0.3179
36076SOL     OW10234   1.309   1.882   0.081  0.3283 -0.2428 -0.0676
36076SOL    HW110235   1.380   1.818   0.071 -1.9205 -3.1024  0.6527
36076SOL    HW210236   1.323   1.919   0.169  0.4856 -1.4373  0.4361
36077SOL     OW10237   1.722   7.202   1.227 -0.2395 -0.1631  0.1257
36077SOL    HW110238   1.628   7.216   1.230 -0.4070 -1.0016 -0.7724
36077SOL    HW210239   1.750   7.243   1.145 -0.1994 -1.8829 -0.7639
36078SOL     OW10240   8.924   2.130  10.614  0.4396 -0.5995 -0.3647
36078SOL    HW110241   8.927   2.221  10.644  1.2709 -0.8458  0.3123
36078SOL    HW210242   8.876   2.134  10.531  0.1632  0.4052 -0.1655
36079SOL     OW10243   3.285  11.085   7.314  0.6058  0.2422  0.3926
36079SOL    HW110244   3.274  11.041   7.399  1.4652  2.0378  1.4884
36079SOL    HW210245   3.294  11.177   7.336 -1.2010  1.0396 -1.8354
36080SOL     OW10246   8.485   1.271   8.122  0.0344  0.6807 -0.3633
36080SOL    HW110247   8.477   1.228   8.207  2.1407  1.4885  0.2900
36080SOL    HW210248   8.537   1.211   8.069  0.3841  1.0526 -0.4431
36081SOL     OW10249   9.241   0.472   5.109  0.0314 -0.5767  0.0689
36081SOL    HW110250   9.273   0.430   5.188  0.6392 -0.3611 -0.0633
36081SOL    HW210251   9.196   0.551   5.140  2.4241  0.8730  0.0724
36082SOL     OW10252   0.303   7.183   6.171 -0.3569  0.5587  0.5920
36082SOL    HW110253   0.381   7.187   6.227  0.6096  0.1791 -0.6758
36082SOL    HW210254   0.335   7.146   6.089 -2.0399 -0.2915  0.2825
36083SOL     OW10255  10.484  10.792   3.040 -0.4533  0.3390 -0.4835
36083SOL    HW110256  10.549  10.766   2.974 -1.3685 -0.1480 -1.2188
36083SOL    HW210257  10.513  10.748   3.120  1.9212  2.6589  0.0961
36084SOL     OW10258   2.841   8.709   7.395 -0.2117  0.4960  0.7831
36084SOL    HW110259   2.766   8.761   7.421 -0.7069  0.7980 -1.1081
36084SOL    HW210260   2.847   8.720   7.300  0.5305 -1.7484  0.4991
36085SOL     OW10261   0.509   9.962   5.369 -0.0001 -0.0504  0.2175
36085SOL    HW110262   0.596   9.943   5.332  0.8405 -0.8747  2.4309
36085SOL    HW210263   0.513  10.055   5.391  0.7709 -0.3098  1.2867
36086SOL     OW10264   9.870   1.614   7.870 -0.2925  0.2343 -0.1773
36086SOL    HW110265   9.795   1.556   7.856 -1.6024  1.5679  0.8922
36086SOL    HW210266   9.925   1.567   7.932 -0.7361 -0.3486 -0.2118
36087SOL     OW10267   6.101   8.065   7.996  0.0218 -0.0412 -0.0756
36087SOL    HW110268   6.016   8.030   7.970  0.3371 -0.7414 -0.1789
36087SOL    HW210269   6.151   8.071   7.915  0.2969 -0.2572  0.0769
36088SOL     OW10270   1.994  10.667   4.092  0.4195  0.4452  0.4379
36088SOL    HW110271   2.018  10.603   4.160  0.4262 -0.7859 -0.6834
36088SOL    HW210272   1.900  10.657   4.083  0.9252 -4.0417 -3.9913
36089SOL     OW10273  10.112   4.348   0.636  0.1415 -0.3858 -0.1802
36089SOL    HW110274  10.132   4.277   0.575  1.4906  0.7180 -1.0886
36089SOL    HW210275  10.028   4.381   0.607 -1.3228 -2.5783  1.2455
36090SOL     OW10276   9.504   8.968   4.457 -0.8748 -0.4654 -0.0401
36090SOL    HW110277   9.511   9.063   4.453 -0.9953 -0.4837 -0.8593
36090SOL    HW210278   9.536   8.945   4.544 -0.0736  0.2605 -0.1258
36091SOL     OW10279  10.937   4.958   3.464  0.2855 -0.7820  0.1064
36091SOL    HW110280  10.919   5.018   3.537 -1.3583  1.3831 -1.9011
36091SOL    HW210281  10.851   4.939   3.427  1.1703  0.2760 -2.7625
36092SOL     OW10282   8.957   6.657   3.792 -0.0914  0.1108 -0.2467
36092SOL    HW110283   9.022   6.701   3.736 -1.5335  2.1646 -0.3936
36092SOL    HW210284   8.899   6.613   3.730 -1.0121  1.4297 -0.3610
36093SOL     OW10285   8.295   6.899   1.795 -0.3769 -0.6313 -0.0528
36093SOL    HW110286   8.311   6.962   1.725 -1.2212  0.6048  0.8217
36093SOL    HW210287   8.349   6.930   1.867  0.0072 -1.5362  0.0591
36094SOL     OW10288   9.967  10.062   9.670  0.3297  0.6995 -0.5079
36094SOL    HW110289  10.062  10.063   9.672  0.3628  3.1614 -0.1577
36094SOL    HW210290   9.945  10.012   9.591  1.8129 -1.3654  0.3026
36095SOL     OW10291   1.166   8.436   8.663  0.2075 -0.0040  0.2037
36095SOL    HW110292   1.146   8.528   8.679 -0.9982 -0.0118 -1.0631
36095SOL    HW210293   1.150   8.392   8.746 -2.1636  0.4861  0.0563
36096SOL     OW10294   0.628   9.417   2.170  0.0919  0.0366 -0.3767
36096SOL    HW110295   0.631   9.440   2.077  1.6436 -0.7789 -0.5601
36096SOL    HW210296   0.536   9.428   2.195 -0.2719  0.6316 -1.9082
36097SOL     OW10297   8.140   2.217   4.382  0.4349 -0.5071  0.2525
36097SOL    HW110298   8.147   2.123   4.366  1.2616 -0.7164  1.6485
36097SOL    HW210299   8.205   2.256   4.324 -2.3725 -0.3496 -3.1450
36098SOL     OW10300  11.031   2.146   0.256 -0.8012  0.4343  0.0972
36098SOL    HW110301  11.050   2.119   0.166  0.7580 -1.4019  0.9044
36098SOL    HW210302  11.021   2.241   0.251  0.5200  0.5337 -1.7982
36099SOL     OW10303   6.035   3.937   9.785  0.3641  0.3729 -0.5939
36099SOL    HW110304   6.078   3.910   9.703 -2.5062 -1.9639 -1.5028
36099SOL    HW210305   5.943   3.945   9.763 -0.4060  0.5191  2.2542
36100SOL     OW10306   2.578   5.477   6.113 -0.4477  1.2041  0.1501
36100SOL    HW110307   2.530   5.477   6.196  0.8692 -0.7772  0.9990
36100SOL    HW210308   2.511   5.462   6.046 -1.2588  0.3658  1.1139
36101SOL     OW10309   2.483   3.078   6.004 -0.0393 -0.1842  0.1971
36101SOL    HW110310   2.399   3.042   5.975  0.7162 -1.8364 -0.0510
36101SOL    HW210311   2.523   3.113   5.925 -0.5834  0.8628  0.3625
36102SOL     OW10312   1.175   4.887   7.673 -0.2677 -0.7085  0.1528
36102SOL    HW110313   1.234   4.835   7.727 -1.7574 -2.5357  0.1242
36102SOL    HW210314   1.126   4.940   7.736 -2.3909 -3.2378  0.7938
36103SOL     OW10315   1.030   3.440   2.656 -0.7834  0.0013 -0.5612
36103SOL    HW110316   1.017   3.352   2.692  0.5179  0.7890  2.0746
36103SOL    HW210317   1.095   3.427   2.586  0.0544 -1.0473  0.3727
36104SOL     OW10318   2.564   3.341   5.274 -0.0451  0.4481 -0.2436
36104SOL    HW110319   2.476   3.303   5.273  0.2724 -0.3179  0.1010
36104SOL    HW210320   2.600   3.321   5.188 -0.2968  0.9771 -0.4721
36105SOL     OW10321   4.916   8.167   0.493  0.0933 -0.4878 -0.0377
36105SOL    HW110322   4.823   8.179   0.473 -0.0383  0.8524  1.2424
36105SOL    HW210323   4.956   8.252   0.473  1.3913 -1.5043 -2.1676
36106SOL     OW10324   8.020   1.702   4.190 -0.6627 -0.0187 -0.1191
36106SOL    HW110325   8.006   1.646   4.267 -0.0996  1.0570  0.7930
36106SOL    HW210326   7.934   1.741   4.174 -0.7750 -0.2227 -0.0296
36107SOL     OW10327   7.439   2.007  10.741  0.4222 -0.0289  0.9011
36107SOL    HW110328   7.441   2.029  10.834  0.2027 -1.2501  1.2093
36107SOL    HW210329   7.495   1.929  10.733  0.8555  0.3535 -0.0796
36108SOL     OW10330   7.081   7.488   8.521 -0.1936  0.5876 -0.1709
36108SOL    HW110331   7.097   7.393   8.518  0.2905  0.6655 -0.1473
36108SOL    HW210332   7.058   7.505   8.612  3.5803  1.0623  0.8764
36109SOL     OW10333  10.793   8.283   1.964 -0.1566  0.0175  0.1454
36109SOL    HW110334  10.746   8.359   1.929  1.9894  1.0848 -0.6034
36109SOL    HW210335  10.773   8.212   1.902  2.2768  1.4693 -2.5887
36110SOL     OW10336   6.845  10.914   0.842  0.4999  0.3136  0.1640
36110SOL    HW110337   6.831  10.922   0.748 -0.2997  0.7224  0.3083
36110SOL    HW210338   6.851  11.004   0.873 -0.0323  0.1974  0.6127
36111SOL     OW10339   1.939   2.531   0.196 -0.1905  0.0510 -0.3299
36111SOL    HW110340   1.853   2.494   0.215  1.0243 -1.6138  2.5605
36111SOL    HW210341   1.944   2.609   0.250 -0.7910  1.7253 -2.5420
36112SOL     OW10342  10.016   9.367   6.580  0.0498  0.2166  0.3593
36112SOL    HW110343  10.092   9.321   6.616  0.8388  1.7579  0.7679
36112SOL    HW210344   9.956   9.298   6.553  2.0157 -1.0834 -0.8902
36113SOL     OW10345   9.586   4.677  10.463  0.3525 -0.1124  0.5961
36113SOL    HW110346   9.651   4.624  10.509  0.4691 -0.9548 -0.4916
36113SOL    HW210347   9.638   4.736  10.409  0.2176  0.0242  0.6160
36114SOL     OW10348   6.648   5.283   3.557 -0.2814 -0.3433 -0.6838
36114SOL    HW110349   6.587   5.338   3.506  0.4124  0.2212 -0.9211
36114SOL    HW210350   6.677   5.340   3.628  0.3832 -0.4299 -0.8817
36115SOL     OW10351   7.857   8.827  10.732 -0.1901  0.2926  0.4413
36115SOL    HW110352   7.827   8.765  10.666 -1.6850 -0.5908  1.8673
36115SOL    HW210353   7.892   8.901  10.682 -0.6377 -0.6275 -1.3043
36116SOL     OW10354  10.995   9.924   3.576  0.1201 -0.1514 -0.6387
36116SOL    HW110355  10.981   9.971   3.494  2.4109  1.8223 -0.0064
36116SOL    HW210356  11.081   9.884   3.567 -0.2431 -1.1648  0.2504
36117SOL     OW10357   3.775  10.935  10.179 -0.2789 -0.1003 -0.5330
36117SOL    HW110358   3.828  10.890  10.244 -0.0337  1.2484  0.2277
36117SOL    HW210359   3.729  11.003  10.228 -1.7027 -0.3704 -1.4085
36118SOL     OW10360   8.572  10.710   6.224 -0.1720  0.0785 -0.4413
36118SOL    HW110361   8.593  10.801   6.246  1.7089 -0.2123 -0.8179
36118SOL    HW210362   8.586  10.704   6.130 -4.1177  0.2910 -1.1936
36119SOL     OW10363  10.526   0.558   3.532  0.5298 -0.8439 -0.0185
36119SOL    HW110364  10.433   0.576   3.527  0.5969 -0.7947 -1.5029
36119SOL    HW210365  10.565   0.639   3.566  0.2750  0.0631 -1.7679
36120SOL     OW10366   4.188   7.603   8.563  0.1235 -0.2174  0.2590
36120SOL    HW110367   4.174   7.529   8.622 -1.0820 -0.4222 -0.2554
36120SOL    HW210368   4.138   7.580   8.484  0.3141  0.8308 -0.1814
36121SOL     OW10369   2.432   2.706   6.084  0.1604  0.1084  0.4231
36121SOL    HW110370   2.506   2.750   6.043 -2.0489  1.2819 -2.6910
36121SOL    HW210371   2.470   2.658   6.158  3.4814  3.1356  0.9404
36122SOL     OW10372   6.100   0.637   9.381  0.8595 -0.2450  0.9741
36122SOL    HW110373   6.173   0.645   9.319 -0.0378  0.6041 -0.0095
36122SOL    HW210374   6.066   0.549   9.366  0.8702 -0.1738  0.5038
36123SOL     OW10375   8.611   0.385   1.407  0.2233  0.0556  0.8714
36123SOL    HW110376   8.678   0.406   1.471  0.5075  2.1003 -0.0216
36123SOL    HW210377   8.530   0.380   1.457  0.9336 -2.3954  1.9542
36124SOL     OW10378   3.808  10.528  10.955  0.3976  0.1342  0.2138
36124SOL    HW110379   3.813  10.494  10.866 -0.4603 -0.0668  0.2351
36124SOL    HW210380   3.815  10.451  11.011  0.3749  0.1970  0.3039
36125SOL     OW10381  10.485   5.389   4.307  0.1020 -0.7086  0.7347
36125SOL    HW110382  10.414   5.325   4.302 -0.3782 -0.1895  0.8323
36125SOL    HW210383  10.443   5.473   4.287  0.8209 -0.4888  0.0946
36126SOL     OW10384  10.625   9.199   8.849  0.0703  0.2828  0.0834
36126SOL    HW110385  10.687   9.139   8.891 -0.2044  0.0222  0.1162
36126SOL    HW210386  10.566   9.142   8.799 -0.1024  0.5356 -0.0019
36127SOL     OW10387   8.222   4.214   1.025 -0.2488  0.1608 -0.2284
36127SOL    HW110388   8.268   4.188   1.105 -0.3420  0.3833 -0.0993
36127SOL    HW210389   8.137   4.172   1.031 -0.0113 -0.3649 -0.5355
36128SOL     OW10390   3.285   7.423   0.728 -0.4951 -0.2786  0.0503
36128SOL    HW110391   3.245   7.371   0.798  4.1845 -1.4308  2.2769
36128SOL    HW210392   3.311   7.358   0.663  3.0519 -0.6851  1.6348
36129SOL     OW10393   1.231   8.234   0.615 -0.3156 -0.1326 -0.1535
36129SOL    HW110394   1.245   8.141   0.596  2.4380  0.1638  0.0906
36129SOL    HW210395   1.296   8.280   0.563 -2.5378  1.8663 -1.3800
36130SOL     OW10396   9.349   1.830   7.625 -0.4217  0.2674  0.5498
36130SOL    HW110397   9.421   1.860   7.681  0.0541  3.0678 -1.3275
36130SOL    HW210398   9.391   1.774   7.560 -0.0788  1.0090  0.1145
36131SOL     OW10399   7.236   5.299   8.806  0.3642 -0.2930  0.3012
36131SOL    HW110400   7.254   5.283   8.899  0.8214  0.0031  0.2693
36131SOL    HW210401   7.156   5.352   8.806  0.8611  0.4883  0.5838
36132SOL     OW10402   2.145  10.567   6.265 -0.1945 -0.1029 -0.1157
36132SOL    HW110403   2.130  10.639   6.203  1.2248  1.5922  1.4067
36132SOL    HW210404   2.236  10.541   6.250  0.6067  1.2350  2.0658
36133SOL     OW10405   0.953  10.603   5.789 -0.1115  0.3442  0.5254
36133SOL    HW110406   0.890  10.536   5.816 -0.4605  0.9663  1.2915
36133SOL    HW210407   1.023  10.599   5.855  0.6340 -0.2956 -0.2810
36134SOL     OW10408   1.205   9.135   3.433  0.1744  0.1024  0.8414
36134SOL    HW110409   1.173   9.225   3.441 -0.7738 -0.1338  0.0195
36134SOL    HW210410   1.125   9.083   3.424  0.7300 -0.7747  0.9378
36135SOL     OW10411   9.014   1.259   1.730  0.6976 -0.0266  0.6055
36135SOL    HW110412   8.947   1.237   1.665  0.8551  0.5704  0.2378
36135SOL    HW210413   8.991   1.205   1.806 -1.3871  1.5877  1.2176
36136SOL     OW10414   1.772   3.648   5.827  0.6341 -0.5712 -0.7504
36136SOL    HW110415   1.798   3.730   5.870  0.6257 -1.1653  0.4438
36136SOL    HW210416   1.736   3.675   5.743  1.8964  0.5475 -0.9724
36137SOL     OW10417   5.218   3.178   8.746 -0.2686 -0.7222 -0.1193
36137SOL    HW110418   5.287   3.192   8.811  0.7597 -0.3520 -1.2646
36137SOL    HW210419   5.155   3.248   8.763 -0.9289 -1.6603  1.5990
36138SOL     OW10420   4.776   1.037   4.735 -0.1958 -0.0890 -0.0187
36138SOL    HW110421   4.754   1.090   4.811  0.3494  1.5323 -0.9467
36138SOL    HW210422   4.738   1.083   4.661  1.0083 -0.5290 -0.9510
36139SOL     OW10423   5.885   9.842   7.897  1.0430 -0.5168  0.3566
36139SOL    HW110424   5.869   9.893   7.976 -1.9962 -3.8717  2.2165
36139SOL    HW210425   5.841   9.890   7.828 -1.2611 -0.2244  1.9085
36140SOL     OW10426  10.549  10.996   6.499 -0.2769 -0.3338  0.5885
36140SOL    HW110427  10.554  11.013   6.405 -0.9841 -0.7658  0.4663
36140SOL    HW210428  10.535  10.902   6.506 -1.1735 -0.1777  1.0866
36141SOL     OW10429   0.158   0.824   1.204 -0.1367  0.2925 -0.1978
36141SOL    HW110430   0.079   0.801   1.156 -0.2933  1.4857 -0.5640
36141SOL    HW210431   0.174   0.750   1.262 -1.8308  0.2552  0.2788
36142SOL     OW10432   5.399   8.978   2.229  0.9380 -0.6804 -0.0576
36142SOL    HW110433   5.443   9.058   2.256  0.5519 -0.5472  0.1865
36142SOL    HW210434   5.307   8.993   2.251  0.7135 -0.8112 -0.8989
36143SOL     OW10435   0.832   0.405   9.905 -0.5346 -0.2344  0.0529
36143SOL    HW110436   0.916   0.371   9.871 -0.8075  0.9839 -2.0321
36143SOL    HW210437   0.768   0.337   9.882 -0.2002 -1.0544  1.4311
36144SOL     OW10438   2.996   7.907   0.242 -0.3698 -0.1728 -0.2260
36144SOL    HW110439   2.986   7.941   0.153 -0.0212 -0.2376 -0.2911
36144SOL    HW210440   2.965   7.977   0.299  0.5694  0.3457 -0.3461
36145SOL     OW10441   5.842  10.080   8.051 -0.1545 -0.2019 -0.5808
36145SOL    HW110442   5.933  10.080   8.081 -0.5843 -0.0623  0.7999
36145SOL    HW210443   5.790  10.086   8.131 -1.3969 -0.5893 -1.3237
36146SOL     OW10444   6.245   2.725   9.525 -0.4542  0.3506  0.7527
36146SOL    HW110445   6.297   2.804   9.510  5.0601 -2.4711  2.1984
36146SOL    HW210446   6.264   2.669   9.449 -1.4101 -0.8782  1.3855
36147SOL     OW10447   9.632   2.262   3.898 -0.3332 -0.4702 -0.1524
36147SOL    HW110448   9.661   2.173   3.917  0.4247 -0.1794  0.0770
36147SOL    HW210449   9.650   2.273   3.804  0.8140 -0.1100  0.1000
36148SOL     OW10450  10.381   5.966   6.516  0.1163 -0.4189  0.2230
36148SOL    HW110451  10.409   5.953   6.425  1.5507 -0.1560  0.6097
36148SOL    HW210452  10.308   6.027   6.509 -0.2355 -0.9105 -0.7961
36149SOL     OW10453   1.474   6.777   3.922 -0.2626  0.1906  0.3872
36149SOL    HW110454   1.541   6.844   3.932 -1.1116  1.2832 -1.0371
36149SOL    HW210455   1.486   6.743   3.834 -1.8346  0.7237 -0.0651
36150SOL     OW10456   6.162   0.487  10.903 -0.2389  0.3383  0.1845
36150SOL    HW110457   6.102   0.540  10.851 -0.5372  0.7642  0.9455
36150SOL    HW210458   6.187   0.415  10.845 -0.4311  0.8906 -0.5957
36151SOL     OW10459   9.540   8.432   4.531  0.1288  0.3408 -0.1680
36151SOL    HW110460   9.553   8.368   4.601  0.9645  1.1809  0.4691
36151SOL    HW210461   9.449   8.462   4.543 -0.5532 -1.2972 -0.9938
36152SOL     OW10462   3.472   6.047   7.677 -0.3025  0.3549  0.2440
36152SOL    HW110463   3.421   6.082   7.604 -0.2194  0.4242  0.2178
36152SOL    HW210464   3.407   6.021   7.742 -0.3737  0.3746  0.1808
36153SOL     OW10465   8.225   4.437   6.288 -0.4266 -0.2108 -0.6701
36153SOL    HW110466   8.302   4.437   6.231 -1.0296  0.2129 -1.5028
36153SOL    HW210467   8.259   4.413   6.374  0.8709  1.3914 -0.6978
36154SOL     OW10468   0.068   0.015   7.077 -0.2549 -0.5760 -0.0136
36154SOL    HW110469  -0.027   0.003   7.078 -0.0234 -3.1338  1.9688
36154SOL    HW210470   0.095   0.005   7.169  1.9707 -0.3416 -0.5692
36155SOL     OW10471   6.765   0.164   3.982 -0.0460  0.1114  0.1317
36155SOL    HW110472   6.743   0.257   3.986  0.3947  0.2311 -0.1310
36155SOL    HW210473   6.683   0.119   4.001 -0.1099  0.5559  0.9515
36156SOL     OW10474   9.144   7.591   7.902  0.1860 -0.3191  0.7854
36156SOL    HW110475   9.147   7.498   7.877  1.3454 -0.2967  0.7817
36156SOL    HW210476   9.111   7.590   7.992  0.6072 -0.7789  0.9418
36157SOL     OW10477   6.265   7.171  10.997  0.2237 -0.1017 -0.4606
36157SOL    HW110478   6.227   7.132  10.919 -1.4931  2.0437 -0.7923
36157SOL    HW210479   6.231   7.118  11.070 -0.5883 -0.3355 -0.9980
36158SOL     OW10480   9.989   0.533   2.952 -0.0814  0.2487  0.9814
36158SOL    HW110481  10.023   0.453   2.914 -0.9128 -0.2081  1.1504
36158SOL    HW210482  10.066   0.586   2.973  0.4837 -0.5633  0.9827
36159SOL     OW10483   6.493  10.354  10.584 -0.3198  0.3056 -0.7065
36159SOL    HW110484   6.562  10.414  10.557  1.7487 -1.1088  1.1420
36159SOL    HW210485   6.429  10.409  10.629 -0.1208  1.5536 -1.8992
36160SOL     OW10486   9.970   1.014  10.147  0.2246  0.1417 -0.3382
36160SOL    HW110487   9.996   1.106  10.154  0.8013 -0.0802  0.6841
36160SOL    HW210488   9.876   1.018  10.128  0.5684  0.9404 -2.0156
36161SOL     OW10489   3.988   9.279   3.579 -0.2710 -0.7821  0.3512
36161SOL    HW110490   4.075   9.304   3.612 -1.1009  0.9884  1.3189
36161SOL    HW210491   3.927   9.314   3.643 -1.8749  0.9070 -1.9242
36162SOL     OW10492   0.375   6.667   5.169  0.7772 -0.1014 -0.2927
36162SOL    HW110493   0.373   6.604   5.241  2.9223  1.2738  1.0909
36162SOL    HW210494   0.323   6.741   5.199  1.0872  0.1842 -0.4490
36163SOL     OW10495   2.452   0.270   0.917 -0.1225 -0.3567 -0.4807
36163SOL    HW110496   2.480   0.297   1.004 -0.2402 -1.2661 -0.1556
36163SOL    HW210497   2.496   0.187   0.902 -1.3044 -0.9731 -0.6485
36164SOL     OW10498   6.851   9.005   9.351 -0.1994  0.0218  0.4897
36164SOL    HW110499   6.811   9.049   9.276  1.0234 -0.9000 -0.7672
36164SOL    HW210500   6.810   9.045   9.427 -2.4494  0.1030 -0.6751
36165SOL     OW10501   2.960   4.862   4.648  0.0973 -0.1129  0.1415
36165SOL    HW110502   2.945   4.842   4.740 -3.4836 -0.9377 -0.4725
36165SOL    HW210503   2.975   4.957   4.646 -1.8791  0.2884  1.4764
36166SOL     OW10504  10.507   7.755   3.576  0.1267  0.2395 -0.3564
36166SOL    HW110505  10.570   7.789   3.513  0.5742  4.7329  2.0414
36166SOL    HW210506  10.438   7.821   3.578 -2.0797 -1.9355  0.8242
36167SOL     OW10507   8.229   3.852   4.901  0.3179 -0.2312  0.0612
36167SOL    HW110508   8.150   3.877   4.948  0.6594  0.9131  0.0694
36167SOL    HW210509   8.243   3.760   4.923 -1.4908 -0.7091 -0.6357
36168SOL     OW10510   0.952  10.799   0.710  0.3367 -0.6523  0.9173
36168SOL    HW110511   0.873  10.748   0.693 -0.3721  1.0671 -1.6534
36168SOL    HW210512   0.935  10.883   0.667  4.0905 -0.7002 -1.0461
36169SOL     OW10513   4.133   2.262   7.587 -0.5158 -0.0638  0.8527
36169SOL    HW110514   4.077   2.188   7.610 -0.3373 -0.7883 -0.8821
36169SOL    HW210515   4.215   2.221   7.558 -0.6859  0.7397 -0.8922
36170SOL     OW10516   3.468   8.635   2.877 -0.2740 -0.3226 -0.2945
36170SOL    HW110517   3.427   8.551   2.861 -2.6842  0.9198 -1.1066
36170SOL    HW210518   3.478   8.640   2.972 -1.2035 -1.0316 -0.1513
36171SOL     OW10519   5.159   1.188   5.424  0.4873  0.2235  0.2612
36171SOL    HW110520   5.228   1.213   5.486  0.5690  0.5948  0.0230
36171SOL    HW210521   5.178   1.097   5.403  0.0598 -0.1243  1.3072
36172SOL     OW10522   2.314   3.584   8.433 -0.2251  0.3843  0.1389
36172SOL    HW110523   2.224   3.565   8.406 -0.8953  1.8415  1.2104
36172SOL    HW210524   2.336   3.514   8.495  0.3218 -1.3810 -1.9283
36173SOL     OW10525   6.904   3.342   7.058  0.4973  0.8939  0.2059
36173SOL    HW110526   6.902   3.372   6.967 -2.1887  1.2466  0.2946
36173SOL    HW210527   6.838   3.272   7.061 -0.7684  2.0827  2.2060
36174SOL     OW10528  10.358   8.252   1.466 -0.4392 -0.2368 -0.0396
36174SOL    HW110529  10.397   8.224   1.383 -1.1650 -0.8360 -0.1976
36174SOL    HW210530  10.301   8.325   1.441 -0.0683  0.0857  0.0557
36175SOL     OW10531   8.292  10.691   9.253  0.2710 -0.5214 -0.4398
36175SOL    HW110532   8.343  10.760   9.295  0.8033 -1.4365  0.4570
36175SOL    HW210533   8.213  10.683   9.306  0.9074 -1.6238  0.3795
36176SOL     OW10534   5.566   8.666   3.734 -0.5425  0.2844  0.3525
36176SOL    HW110535   5.488   8.641   3.685 -0.0377  0.5245 -0.5928
36176SOL    HW210536   5.533   8.725   3.802 -1.3635 -0.7308  0.8674
36177SOL     OW10537  10.283   9.514   6.746 -0.1114  0.1537 -0.1373
36177SOL    HW110538  10.245   9.520   6.833  0.4255 -1.2376  0.2120
36177SOL    HW210539  10.246   9.435   6.708 -0.0283  0.5272 -1.0330
36178SOL     OW10540   9.684  10.367   5.279  0.0800 -0.1380 -0.2096
36178SOL    HW110541   9.764  10.399   5.239  0.8282 -0.3120  1.1067
36178SOL    HW210542   9.711  10.335   5.364 -1.0105 -2.2387 -0.5937
36179SOL     OW10543   4.911   2.650   6.802 -0.2058 -0.6034  0.5936
36179SOL    HW110544   4.997   2.607   6.797  0.3954  0.6105  0.1626
36179SOL    HW210545   4.880   2.631   6.891  1.1221  0.0642  1.2292
36180SOL     OW10546   7.453   3.842   5.576 -0.0581  0.1731 -0.2756
36180SOL    HW110547   7.471   3.911   5.640 -0.5807  1.2627 -1.2571
36180SOL    HW210548   7.362   3.817   5.593 -0.5012  1.1237 -1.1664
36181SOL     OW10549   2.568   8.382   4.086 -0.3421 -0.2398  0.3443
36181SOL    HW110550   2.560   8.411   4.177  0.4667 -0.9779  0.6650
36181SOL    HW210551   2.640   8.319   4.087  1.5808  1.7518 -1.3029
36182SOL     OW10552   3.136   1.606   3.194 -0.3756  0.2346 -0.3147
36182SOL    HW110553   3.192   1.598   3.117  1.3952  0.1779  0.9139
36182SOL    HW210554   3.056   1.647   3.161  0.3878  0.3683 -2.1424
36183SOL     OW10555   0.359   7.870   9.540 -0.0459  0.0992 -0.0566
36183SOL    HW110556   0.398   7.906   9.461 -0.3328 -1.1732 -0.8089
36183SOL    HW210557   0.326   7.946   9.588 -1.8089  0.7768 -2.1796
36184SOL     OW10558   1.785  10.404   6.547 -0.4388  0.3850 -0.1858
36184SOL    HW110559   1.870  10.364   6.568 -1.0379 -0.1621  1.3356
36184SOL    HW210560   1.775  10.391   6.453  0.4223 -1.0557 -0.1142
36185SOL     OW10561  10.308   5.552   5.889 -0.5935 -0.3647 -0.0813
36185SOL    HW110562  10.323   5.492   5.815  0.1125  0.6045 -0.7473
36185SOL    HW210563  10.220   5.586   5.876 -0.3007  0.1575 -0.7550
36186SOL     OW10564   1.758  10.491   4.720 -0.6913  0.3180 -0.4672
36186SOL    HW110565   1.793  10.435   4.650 -1.3501 -1.8685  0.8501
36186SOL    HW210566   1.694  10.546   4.676 -0.6144 -0.5191 -1.7135
36187SOL     OW10567   3.988   3.596   4.787  0.4130  0.2990 -0.0209
36187SOL    HW110568   4.019   3.530   4.849  0.8314  0.6553  0.1469
36187SOL    HW210569   3.958   3.669   4.841  2.0377  1.1749 -0.2532
36188SOL     OW10570   7.589   5.887   1.142 -0.3902 -0.7545  0.4240
36188SOL    HW110571   7.560   5.958   1.085  0.9151 -1.3432 -1.0319
36188SOL    HW210572   7.526   5.817   1.127 -2.0390  0.2218  2.3135
36189SOL     OW10573   4.784   6.036   5.080 -0.2305 -0.0852  0.0912
36189SOL    HW110574   4.876   6.038   5.054 -0.6102  2.4355 -1.2839
36189SOL    HW210575   4.782   5.974   5.154  2.0761 -2.1528 -1.4199
36190SOL     OW10576   8.313   3.012   0.321  0.3648  0.7902  0.9094
36190SOL    HW110577   8.246   2.962   0.274  0.4209  1.7017 -0.1853
36190SOL    HW210578   8.347   2.952   0.387 -0.4132 -0.2067  0.4140
36191SOL     OW10579   3.191   1.337  10.649 -0.1659 -0.2611 -0.7257
36191SOL    HW110580   3.123   1.291  10.698 -0.5376  1.9043  0.9065
36191SOL    HW210581   3.174   1.314  10.558 -0.8210 -2.6332 -0.0699
36192SOL     OW10582   8.139   7.311   8.624 -0.5780 -0.1304  0.2831
36192SOL    HW110583   8.179   7.299   8.538  1.4839 -2.5158  1.4288
36192SOL    HW210584   8.100   7.398   8.620  0.3794  0.2920 -2.6840
36193SOL     OW10585   0.816  10.979   7.178  0.6455  0.3195 -0.2475
36193SOL    HW110586   0.869  11.043   7.131  1.1381  0.8670  1.0159
36193SOL    HW210587   0.843  10.894   7.143  0.1316  0.7679 -1.7941
36194SOL     OW10588   1.467   4.096   5.701 -0.0846  0.2957  0.6423
36194SOL    HW110589   1.376   4.107   5.671  0.9525  0.2463 -3.0633
36194SOL    HW210590   1.501   4.185   5.708  0.3609  0.2879 -1.0070
36195SOL     OW10591   6.648   7.889   7.566 -0.5243 -0.0582  0.1773
36195SOL    HW110592   6.646   7.952   7.494  0.1716  1.6186  1.5484
36195SOL    HW210593   6.567   7.839   7.557 -0.8488  0.6746 -1.2505
36196SOL     OW10594  10.900   5.277   9.968 -0.5880  0.1791  0.2024
36196SOL    HW110595  10.827   5.221   9.942 -1.2801  1.6832 -1.2809
36196SOL    HW210596  10.970   5.216   9.991 -1.3365 -1.3003 -1.2246
36197SOL     OW10597   6.925   1.057   0.050  0.6484  0.3068  0.2109
36197SOL    HW110598   6.914   1.013   0.134  0.8998 -0.4247 -0.1313
36197SOL    HW210599   6.835   1.075   0.021  0.5611  0.6091  0.6469
36198SOL     OW10600   4.604   8.681   4.636 -0.0939 -0.1157  0.0054
36198SOL    HW110601   4.627   8.707   4.547  1.1023 -1.5222 -0.1288
36198SOL    HW210602   4.509   8.695   4.641 -0.1596  0.1069 -1.4448
36199SOL     OW10603   1.316   7.136   7.576 -0.4600 -0.6125  0.2892
36199SOL    HW110604   1.381   7.091   7.631 -0.2059 -0.8431 -0.1934
36199SOL    HW210605   1.343   7.227   7.577  1.0326 -0.9727 -1.4519
36200SOL     OW10606   0.402   3.199   6.164  0.2172  0.5904 -0.7920
36200SOL    HW110607   0.364   3.277   6.123  0.7183  0.7350 -0.9957
36200SOL    HW210608   0.334   3.166   6.222 -0.8183 -0.0699 -2.3123
36201SOL     OW10609   1.458  10.652   8.219 -0.3841  0.4351  0.0206
36201SOL    HW110610   1.468  10.737   8.262 -2.3563 -0.2805  2.1711
36201SOL    HW210611   1.509  10.659   8.139  0.1388  3.3634  0.4836
36202SOL     OW10612   1.230   5.753   2.088 -0.1415  0.1831  0.3615
36202SOL    HW110613   1.219   5.658   2.098 -0.3621  0.0569 -0.9454
36202SOL    HW210614   1.300   5.763   2.023 -2.1133  0.8352 -1.7911
36203SOL     OW10615   7.353   1.901   2.479 -0.3752 -0.0338  0.0356
36203SOL    HW110616   7.408   1.973   2.446 -0.3109 -0.4234 -0.7299
36203SOL    HW210617   7.404   1.862   2.549 -0.0720  0.1838 -0.0593
36204SOL     OW10618   4.216   8.471   0.783 -0.2632  0.6116  0.5203
36204SOL    HW110619   4.140   8.495   0.836  0.6548  1.1914  1.6075
36204SOL    HW210620   4.289   8.471   0.844  0.4913 -0.7661 -0.3325
36205SOL     OW10621   3.188  10.093  11.009  0.0205  0.5999  0.3329
36205SOL    HW110622   3.272  10.115  10.969  0.1577  2.1026  1.3994
36205SOL    HW210623   3.210  10.031  11.079  0.0279 -0.2615 -0.4045
36206SOL     OW10624   6.755  10.264   2.851 -0.1611 -0.4098  0.4878
36206SOL    HW110625   6.682  10.266   2.913 -1.8259  1.1362 -1.3818
36206SOL    HW210626   6.781  10.172   2.847 -3.1374 -1.3462  0.0411
36207SOL     OW10627   8.888  10.839   8.061 -0.0851  0.3665 -0.2852
36207SOL    HW110628   8.930  10.780   8.125  0.1201  1.2716  0.4293
36207SOL    HW210629   8.932  10.819   7.979 -0.4920 -0.9706 -0.2092
36208SOL     OW10630   9.501   9.009   6.359 -0.6193 -0.1085  0.2115
36208SOL    HW110631   9.500   8.976   6.269  0.2515 -0.6595  0.3974
36208SOL    HW210632   9.413   9.044   6.372 -1.1718 -1.2239 -0.4056
36209SOL     OW10633   5.198   0.809   1.814 -0.3179 -0.3214 -0.0305
36209SOL    HW110634   5.168   0.732   1.862  0.0023  0.4726  1.5032
36209SOL    HW210635   5.121   0.866   1.811 -0.4607 -0.5389 -0.8797
36210SOL     OW10636   5.145   0.010   0.670 -0.7821  0.6695 -0.1257
36210SOL    HW110637   5.135   0.006   0.575 -1.9285  0.9735 -0.0259
36210SOL    HW210638   5.075   0.067   0.700 -0.8804 -0.0014  0.9760
36211SOL     OW10639   5.262   8.976   5.030 -0.1826 -0.9673  1.4367
36211SOL    HW110640   5.192   9.025   4.987  3.0189  2.2277 -0.8109
36211SOL    HW210641   5.290   8.912   4.964  0.5687 -0.4958  1.2836
36212SOL     OW10642  10.782   2.151   3.933  0.0635  0.1183 -0.3943
36212SOL    HW110643  10.845   2.125   4.001 -1.2659  1.9774  1.6550
36212SOL    HW210644  10.828   2.134   3.850  2.3603 -0.7282  0.9688
36213SOL     OW10645   9.659   9.229   9.585 -0.6491 -0.3819  0.5078
36213SOL    HW110646   9.709   9.255   9.508 -1.3833 -1.5202 -0.3863
36213SOL    HW210647   9.572   9.209   9.551 -0.7914 -1.5752  1.5233
36214SOL     OW10648   6.479   9.662   9.021 -0.6137 -0.2615 -0.1661
36214SOL    HW110649   6.417   9.720   8.978  1.2641  2.3239  0.4063
36214SOL    HW210650   6.502   9.706   9.103  4.4896  0.8104 -1.8153
36215SOL     OW10651   2.230   7.099   7.591 -0.1664  0.5920 -0.1258
36215SOL    HW110652   2.218   7.193   7.582  0.5900  0.5068 -2.6055
36215SOL    HW210653   2.317   7.082   7.553 -0.1481 -1.0764  0.5654
36216SOL     OW10654   2.746   4.981   5.221 -0.0871 -0.2033 -0.1555
36216SOL    HW110655   2.691   4.903   5.230 -0.9177  0.1424 -1.9309
36216SOL    HW210656   2.685   5.054   5.217  0.5838  0.3499 -0.5196
36217SOL     OW10657   3.971   7.993  10.920 -0.2257  0.1736  0.2661
36217SOL    HW110658   3.957   7.987  10.826  3.5494  0.0076 -0.4408
36217SOL    HW210659   3.916   7.924  10.957 -1.1710 -0.3013 -1.8621
36218SOL     OW10660   8.668   0.497   7.958  0.0371 -0.4009  0.2296
36218SOL    HW110661   8.740   0.488   7.895 -0.1206 -0.4474  0.0547
36218SOL    HW210662   8.655   0.591   7.966  0.1625 -0.3906  0.3123
36219SOL     OW10663   2.460   2.974   3.975  0.0866 -0.0874  0.1047
36219SOL    HW110664   2.476   2.899   3.918  3.4686 -1.6758  2.7802
36219SOL    HW210665   2.393   2.943   4.037 -0.2670  0.0030 -0.2275
36220SOL     OW10666   2.932   0.325   3.407 -0.0163  0.2891  0.2677
36220SOL    HW110667   3.017   0.356   3.375  0.1838  0.1360  0.6390
36220SOL    HW210668   2.952   0.286   3.492 -0.5878  0.9832  0.7311
36221SOL     OW10669   0.845   1.694   6.242  0.4828 -0.4036  0.4427
36221SOL    HW110670   0.800   1.728   6.165  0.1805 -0.0940  0.7569
36221SOL    HW210671   0.812   1.604   6.252  1.9716 -1.1680 -0.9396
36222SOL     OW10672   3.600   9.733   5.422 -0.0194  0.2444  0.3729
36222SOL    HW110673   3.595   9.805   5.486  0.7053  0.0652  0.6417
36222SOL    HW210674   3.511   9.727   5.386 -0.0172  1.4706  0.1204
36223SOL     OW10675   3.489  11.080   9.620 -0.3906  0.2650  0.2870
36223SOL    HW110676   3.578  11.057   9.649 -1.5319 -1.4890  2.8349
36223SOL    HW210677   3.461  11.150   9.679 -1.3142 -0.4807  0.7718
36224SOL     OW10678   4.018   9.005   8.842 -0.4124  0.2072 -0.2460
36224SOL    HW110679   4.006   8.921   8.886 -0.2431  0.0336 -0.5368
36224SOL    HW210680   4.088   9.048   8.891 -0.4072  0.1236 -0.1802
36225SOL     OW10681   3.999   5.060   8.633  0.6329 -0.3026 -0.0780
36225SOL    HW110682   4.041   5.099   8.710 -0.8369 -0.1950  0.7062
36225SOL    HW210683   4.013   5.124   8.563  2.8214 -0.8364 -0.1943
36226SOL     OW10684  10.252   4.506   7.457 -0.1540 -0.2861  0.1767
36226SOL    HW110685  10.320   4.526   7.522 -0.7254  1.3675  0.3203
36226SOL    HW210686  10.300   4.469   7.383  0.5760 -1.6791  1.2939
36227SOL     OW10687   8.835   9.057   7.598  0.9739 -0.6664  0.1212
36227SOL    HW110688   8.847   9.120   7.670  0.3358  0.1589 -0.4669
36227SOL    HW210689   8.773   8.993   7.632  1.1451 -0.6202  0.5195
36228SOL     OW10690   1.897   8.355   5.871 -0.8435  0.5728 -0.0500
36228SOL    HW110691   1.897   8.266   5.835 -0.0845  0.2320  0.7449
36228SOL    HW210692   1.957   8.404   5.815 -0.8526  0.4447 -0.1705
36229SOL     OW10693   6.707   5.252   1.353  0.4688 -0.2620 -0.3071
36229SOL    HW110694   6.714   5.336   1.309 -1.9410 -0.9180 -2.1275
36229SOL    HW210695   6.665   5.272   1.437 -0.9073  0.3058 -1.0985
36230SOL     OW10696   5.274   3.093   1.664  0.6213 -0.1467 -0.0040
36230SOL    HW110697   5.242   3.004   1.649  0.4739 -0.3835  1.5306
36230SOL    HW210698   5.214   3.129   1.730 -0.7838  1.9673 -2.2561
36231SOL     OW10699   8.821   0.507   7.002 -0.2780  0.1159  0.0296
36231SOL    HW110700   8.905   0.466   6.980 -0.0264  0.4542  0.3351
36231SOL    HW210701   8.833   0.539   7.092  0.1852  2.4828 -0.8016
36232SOL     OW10702   7.314   9.325   8.412 -0.8816  0.5610 -0.1089
36232SOL    HW110703   7.241   9.287   8.364  0.6432  0.2460 -2.3277
36232SOL    HW210704   7.391   9.277   8.380  0.4437  1.6849  1.2352
36233SOL     OW10705   6.414   4.192   9.561  0.0511 -0.1088 -0.5039
36233SOL    HW110706   6.322   4.206   9.536  0.3600  0.2892 -1.4734
36233SOL    HW210707   6.464   4.240   9.495  0.9313  2.4585  1.8541
36234SOL     OW10708   9.687   8.812   0.124 -0.0382  0.0289  0.6211
36234SOL    HW110709   9.748   8.850   0.188 -1.2691  0.7534  1.4053
36234SOL    HW210710   9.635   8.750   0.175 -1.2124  0.8062  0.3954
36235SOL     OW10711   0.005  10.162   1.998  0.0573 -0.7192 -0.5022
36235SOL    HW110712   0.008  10.257   2.012  1.3316 -0.9316  0.8689
36235SOL    HW210713  -0.003  10.153   1.903  0.6975  0.7503 -0.7290
36236SOL     OW10714   8.376  10.760   2.931  0.2800  0.1371  0.7173
36236SOL    HW110715   8.311  10.692   2.946  0.0828 -0.4828 -2.2741
36236SOL    HW210716   8.348  10.802   2.849  1.7354  2.2310  1.2040
36237SOL     OW10717   2.581   0.009   5.235  0.2160 -0.3290  0.6479
36237SOL    HW110718   2.599  -0.027   5.148  1.5960 -0.4466  0.9625
36237SOL    HW210719   2.500  -0.035   5.262  0.9095 -1.9047  0.2932
36238SOL     OW10720   5.502   9.988   6.004 -0.1691 -0.4962 -0.6002
36238SOL    HW110721   5.518   9.928   6.077 -2.5463 -1.5335 -0.8483
36238SOL    HW210722   5.528   9.938   5.926  1.4105  0.2448 -0.5975
36239SOL     OW10723   8.022   4.976   5.832  0.3411 -0.5818  0.0057
36239SOL    HW110724   8.072   4.929   5.898  0.9319  0.1936  0.1244
36239SOL    HW210725   8.072   4.965   5.751 -0.5248 -1.7665 -0.4004
36240SOL     OW10726   9.190   2.282   0.325 -0.2068 -0.1847  0.0958
36240SOL    HW110727   9.129   2.213   0.298 -1.8447  1.1814  0.1647
36240SOL    HW210728   9.211   2.329   0.245 -0.2212  0.0948  0.2534
36241SOL     OW10729   9.684   0.373   7.140  0.6240 -0.0887 -0.2747
36241SOL    HW110730   9.665   0.376   7.046  2.4276 -1.4683 -0.7567
36241SOL    HW210731   9.776   0.346   7.145  1.0831  1.5701  1.8811
36242SOL     OW10732   1.861   8.977   8.755 -0.9273  0.1887 -0.2089
36242SOL    HW110733   1.829   8.976   8.845 -1.2237  0.1098 -0.3136
36242SOL    HW210734   1.897   9.065   8.743 -2.9019  0.9802 -0.7112
36243SOL     OW10735   2.761   2.098   2.271  0.3271 -0.4219 -0.1942
36243SOL    HW110736   2.833   2.076   2.330 -0.8329 -1.7816  0.7893
36243SOL    HW210737   2.771   2.191   2.253  1.7039 -0.3617  0.7781
36244SOL     OW10738  11.010   5.362   0.336  0.2592 -0.1872 -0.1857
36244SOL    HW110739  11.085   5.404   0.377  1.8127 -1.8713 -1.1577
36244SOL    HW210740  10.952   5.434   0.312  1.2951  1.1227  1.0743
36245SOL     OW10741   1.908   5.142   3.244  0.1550 -0.0826  0.4603
36245SOL    HW110742   1.847   5.200   3.290 -2.7505 -3.0495  0.7628
36245SOL    HW210743   1.951   5.093   3.314  0.3812 -0.3083  0.1662
36246SOL     OW10744   0.796   8.554   4.777  0.2487 -0.1247 -0.0050
36246SOL    HW110745   0.752   8.497   4.715 -0.4885  0.4752 -0.0471
36246SOL    HW210746   0.737   8.629   4.788  0.5998  0.0228  1.0302
36247SOL     OW10747   8.154   0.449   2.866 -0.1524 -0.1900  0.1094
36247SOL    HW110748   8.119   0.458   2.954 -0.0429  0.2342  0.1099
36247SOL    HW210749   8.102   0.509   2.812  1.5761  1.6767  0.4037
36248SOL     OW10750   3.286   2.818   0.640  0.1064 -0.3193 -0.0932
36248SOL    HW110751   3.245   2.870   0.709  1.5841  0.2930  0.3595
36248SOL    HW210752   3.296   2.731   0.677 -1.3018 -0.6552 -0.4322
36249SOL     OW10753   3.155   4.987   0.459 -0.5730  0.4186  0.6248
36249SOL    HW110754   3.076   4.987   0.405 -0.2835 -0.1553  0.1996
36249SOL    HW210755   3.165   4.897   0.488  0.7165  0.1687 -0.4986
36250SOL     OW10756   8.874  10.441   7.587  0.6658  0.3107  0.0315
36250SOL    HW110757   8.906  10.512   7.532  0.3144  0.5318  0.1040
36250SOL    HW210758   8.895  10.469   7.676  1.5738 -0.2226 -0.0030
36251SOL     OW10759   6.178   6.972  10.226  0.1708  0.6776 -0.3680
36251SOL    HW110760   6.183   6.885  10.185 -1.9597  0.0871  0.4929
36251SOL    HW210761   6.268   6.993  10.249  0.7707 -1.1831 -0.8660
36252SOL     OW10762  10.813   5.503   4.561  0.4041 -0.6325 -0.4812
36252SOL    HW110763  10.850   5.563   4.626 -0.7576  0.4732 -0.8014
36252SOL    HW210764  10.880   5.436   4.550  1.0915 -0.2319  1.0206
36253SOL     OW10765   6.604   0.146   8.142  0.0518 -0.1506 -0.7049
36253SOL    HW110766   6.534   0.190   8.189  0.2651  1.1350 -1.5561
36253SOL    HW210767   6.679   0.148   8.202 -0.3287 -0.6131 -0.2005
36254SOL     OW10768   2.226   2.977  11.013  0.0931  0.8119  0.5991
36254SOL    HW110769   2.144   2.928  11.023 -0.1650  0.9881 -0.5364
36254SOL    HW210770   2.278   2.952  11.089 -0.3365 -0.6366  0.4513
36255SOL     OW10771   3.993   8.331   9.045  0.4606 -0.0414  0.2974
36255SOL    HW110772   4.063   8.373   8.995 -0.0031 -0.3563 -0.6522
36255SOL    HW210773   3.950   8.273   8.981 -1.4274  1.0496  0.5027
36256SOL     OW10774   1.943   4.616   2.921 -0.6325 -1.2424  0.4014
36256SOL    HW110775   1.946   4.691   2.862  2.7339 -1.7549 -0.2603
36256SOL    HW210776   1.914   4.653   3.005 -1.1995  0.3241 -0.4395
36257SOL     OW10777   2.557   5.047   9.050  0.0123 -0.1551  0.1837
36257SOL    HW110778   2.520   4.965   9.017 -2.2727  0.2049  1.5862
36257SOL    HW210779   2.536   5.112   8.983 -2.2272  0.0639  0.9983
36258SOL     OW10780   4.869   3.620   1.555 -0.3774  0.1929  0.1804
36258SOL    HW110781   4.866   3.528   1.581  0.4093  0.0406 -0.2569
36258SOL    HW210782   4.933   3.624   1.485 -1.3685  0.8580 -0.7246
36259SOL     OW10783   0.249   9.669   1.234  0.2240  0.1430 -0.6743
36259SOL    HW110784   0.292   9.589   1.202  0.1307 -0.6081  0.9595
36259SOL    HW210785   0.158   9.643   1.247 -0.0177  0.7968 -1.0321
36260SOL     OW10786  10.874   3.583   9.044  0.3295  0.4163 -0.6333
36260SOL    HW110787  10.858   3.530   8.966 -0.0155 -0.1016 -0.2107
36260SOL    HW210788  10.955   3.632   9.024  0.2700  0.2468 -1.2883
36261SOL     OW10789   7.942   8.552   0.860 -0.3037 -0.4854 -0.5304
36261SOL    HW110790   7.867   8.494   0.851 -1.0856  0.4435 -0.1064
36261SOL    HW210791   7.956   8.558   0.955  0.0478 -0.3244 -0.5906
36262SOL     OW10792   0.169   9.072   4.811  0.1456  0.4157 -0.2219
36262SOL    HW110793   0.215   9.062   4.894  0.1347  0.5429 -0.1994
36262SOL    HW210794   0.222   9.024   4.748 -0.9734 -1.5319  0.2500
36263SOL     OW10795   3.200   2.997   3.329 -0.2059  0.8083  0.7890
36263SOL    HW110796   3.183   2.910   3.296  1.1083  0.4220  1.0704
36263SOL    HW210797   3.253   2.983   3.408  3.7175  1.8789 -1.3752
36264SOL     OW10798   5.910   7.407   9.757  0.0771  0.3127  0.0403
36264SOL    HW110799   5.972   7.466   9.715 -0.3338  0.1657 -0.8078
36264SOL    HW210800   5.851   7.464   9.805  1.5849  0.3889  1.8996
36265SOL     OW10801   4.237   4.945   8.947 -0.0428  1.0448  0.0985
36265SOL    HW110802   4.304   4.988   9.000  0.1754  1.5089 -0.5509
36265SOL    HW210803   4.266   4.956   8.857 -0.6395  0.6430 -0.1505
36266SOL     OW10804   9.639  10.951   9.568 -0.3847  0.1655 -0.3026
36266SOL    HW110805   9.665  10.968   9.658  1.1184 -0.4285 -0.5820
36266SOL    HW210806   9.684  11.020   9.518  1.3541 -1.3169 -0.8813
36267SOL     OW10807  10.729   3.077   3.595  0.3864 -0.5500  0.4300
36267SOL    HW110808  10.718   3.092   3.501  1.3147 -1.3368  0.1788
36267SOL    HW210809  10.670   3.140   3.637 -3.4504 -3.1025 -0.6964
36268SOL     OW10810   1.088   1.729   6.876  0.0333  0.1543  0.5616
36268SOL    HW110811   1.093   1.822   6.854  0.7830 -0.3531 -1.6843
36268SOL    HW210812   1.156   1.688   6.823 -0.4032 -1.7105  1.3531
36269SOL     OW10813   9.637   2.100   2.221 -0.0726  0.5962  0.1359
36269SOL    HW110814   9.726   2.081   2.191  0.1757  0.9184  0.6596
36269SOL    HW210815   9.648   2.167   2.289 -0.5310 -0.7605  1.6081
36270SOL     OW10816   0.079   2.548   3.126  0.2410  0.0889  0.2537
36270SOL    HW110817   0.097   2.614   3.059 -1.0075  0.2548  0.0612
36270SOL    HW210818   0.152   2.556   3.187  1.4597 -0.1139 -1.1104
36271SOL     OW10819   2.827   9.455   5.820  0.5830 -0.3583 -0.7586
36271SOL    HW110820   2.747   9.491   5.857  1.1716  0.4879 -0.2775
36271SOL    HW210821   2.869   9.410   5.894  1.0458  0.0796 -0.7517
36272SOL     OW10822   1.695   9.422   0.816 -0.6769 -0.1328  0.1331
36272SOL    HW110823   1.648   9.452   0.894  0.1866  0.9571  0.2643
36272SOL    HW210824   1.626   9.396   0.755 -1.4004  0.0211  0.8645
36273SOL     OW10825  10.464   9.544   9.833 -0.6918 -0.2868 -0.3198
36273SOL    HW110826  10.515   9.467   9.807  1.5582  1.3437 -1.0871
36273SOL    HW210827  10.437   9.526   9.923  1.2241 -1.3149  0.1125
36274SOL     OW10828   5.232   4.570   5.309 -0.6008  0.3001 -0.1262
36274SOL    HW110829   5.264   4.523   5.386 -1.4422  0.7821  0.5253
36274SOL    HW210830   5.140   4.544   5.302 -0.8516  1.2104 -0.2483
36275SOL     OW10831   2.838  10.893   1.742  0.6833  0.0589  0.1297
36275SOL    HW110832   2.777  10.910   1.813 -1.8699  1.8079 -2.2492
36275SOL    HW210833   2.912  10.950   1.759  0.2820  0.1966  1.5207
36276SOL     OW10834   8.213   9.798   3.413  0.1740  0.7105 -0.2421
36276SOL    HW110835   8.131   9.772   3.372 -1.5149 -1.2871  3.8827
36276SOL    HW210836   8.194   9.881   3.457  0.6722  0.7068 -0.0054
36277SOL     OW10837   5.138   7.633   7.913  0.3369  0.5684 -0.3227
36277SOL    HW110838   5.213   7.692   7.915  1.4128 -0.7568  0.7193
36277SOL    HW210839   5.069   7.683   7.871  0.9199  2.8900  1.3253
36278SOL     OW10840   0.698   5.794   3.466 -1.0497 -0.0801 -0.1224
36278SOL    HW110841   0.792   5.801   3.446 -0.7585 -1.0035  0.8219
36278SOL    HW210842   0.676   5.880   3.502 -0.1767 -0.3368  1.0932
36279SOL     OW10843   0.149   0.587   0.874  0.3483  0.0118  0.6414
36279SOL    HW110844   0.177   0.660   0.931 -0.3424 -0.9914  2.3230
36279SOL    HW210845   0.063   0.614   0.842  0.9546  0.8070 -0.3801
36280SOL     OW10846   7.978   3.263   6.735 -0.4868  0.3712  0.6457
36280SOL    HW110847   7.885   3.263   6.712 -0.1619 -0.0127 -0.7008
36280SOL    HW210848   8.014   3.187   6.692  0.5234  0.6721  0.9320
36281SOL     OW10849   5.425   2.071  10.392 -0.3545 -0.0874  0.7842
36281SOL    HW110850   5.451   2.132  10.323 -0.9155 -0.7429 -0.0313
36281SOL    HW210851   5.364   2.011  10.349  0.5962 -1.5642  1.4096
36282SOL     OW10852   4.944  10.237   3.362  0.8016  0.1809  0.0172
36282SOL    HW110853   4.858  10.217   3.324  0.9542 -0.3094 -0.0712
36282SOL    HW210854   4.945  10.190   3.445  1.0795 -0.0187 -0.0964
36283SOL     OW10855   3.239   3.115   8.097  0.0656 -0.1152  0.0717
36283SOL    HW110856   3.230   3.057   8.022 -1.0280  0.1633 -0.0407
36283SOL    HW210857   3.242   3.203   8.059  0.5155 -0.0327  0.2991
36284SOL     OW10858   6.795  10.333   2.589 -0.0811 -0.3640 -0.1514
36284SOL    HW110859   6.773  10.335   2.682 -2.1941 -0.7559 -0.5880
36284SOL    HW210860   6.721  10.375   2.546  0.5142 -0.8446 -1.7140
36285SOL     OW10861   6.871   2.554   0.372 -0.2644  0.1515  0.5472
36285SOL    HW110862   6.939   2.594   0.426 -0.6149  0.2801  0.8936
36285SOL    HW210863   6.891   2.460   0.376  3.0553  0.3947 -3.5563
36286SOL     OW10864   0.961   9.986   7.758  0.4780 -0.2364 -0.4187
36286SOL    HW110865   0.983  10.076   7.780  2.2079 -0.8515  0.5903
36286SOL    HW210866   0.986   9.977   7.666  0.8151  0.1751 -0.3702
36287SOL     OW10867   6.383   7.797   0.787  0.6809  0.0346 -0.0348
36287SOL    HW110868   6.454   7.831   0.843 -0.0586  0.6277  0.5598
36287SOL    HW210869   6.304   7.811   0.838  0.2892 -2.1910  0.0397
36288SOL     OW10870   7.503   4.895  10.343 -0.0749  0.0345  0.7602
36288SOL    HW110871   7.530   4.855  10.426  1.2261  0.5673  0.6166
36288SOL    HW210872   7.430   4.952  10.367 -0.6353 -0.8662  1.2895
36289SOL     OW10873   5.761   4.207   6.470 -0.4087  0.8299  0.3909
36289SOL    HW110874   5.743   4.205   6.564  1.1860  1.4548  0.7504
36289SOL    HW210875   5.773   4.116   6.445  1.0064  0.7622  1.2162
36290SOL     OW10876   1.498   7.487   4.372  0.5746  0.8815 -0.4250
36290SOL    HW110877   1.572   7.538   4.340  1.5085  0.8214  1.4577
36290SOL    HW210878   1.538   7.420   4.428 -0.7871 -0.3820 -0.9143
36291SOL     OW10879   0.140   4.692   0.912 -0.4163 -0.0947 -0.0456
36291SOL    HW110880   0.080   4.758   0.946  0.4363  0.7209 -0.0595
36291SOL    HW210881   0.152   4.716   0.820  0.2020 -0.0191  0.0492
36292SOL     OW10882   9.945  10.039   1.030  0.3348 -0.1229  0.8838
36292SOL    HW110883   9.977   9.954   1.002 -1.5451 -0.6696  0.3074
36292SOL    HW210884   9.918  10.083   0.949 -0.6407  0.1886  1.3618
36293SOL     OW10885   0.252  11.026   3.528 -0.3237  0.3153  0.4727
36293SOL    HW110886   0.241  11.080   3.607  0.9788 -2.6844  2.9258
36293SOL    HW210887   0.335  11.056   3.490  1.1630 -0.8148  2.6508
36294SOL     OW10888   8.064  10.070   0.083 -0.3992 -0.0247  0.0493
36294SOL    HW110889   8.134  10.083   0.018 -1.3033 -1.2958 -1.2369
36294SOL    HW210890   8.039   9.979   0.073 -1.4286  0.0981  1.3405
36295SOL     OW10891  10.587   1.965   3.793 -0.0209  0.3317 -0.9488
36295SOL    HW110892  10.549   1.880   3.814  1.1980 -0.2183 -0.8624
36295SOL    HW210893  10.663   1.972   3.850  0.0812  1.3381 -1.1897
36296SOL     OW10894   1.062   0.103   4.010  0.7220  0.5622  0.0336
36296SOL    HW110895   1.156   0.106   4.025  0.8703  3.5057 -0.9781
36296SOL    HW210896   1.024   0.154   4.081 -0.1370 -0.3485  0.2608
36297SOL     OW10897   9.243   8.830  10.886  0.8526 -0.0493 -0.0287
36297SOL    HW110898   9.335   8.843  10.867  0.3480  0.5542 -2.3299
36297SOL    HW210899   9.206   8.918  10.888  0.0699 -0.3557 -0.6178
36298SOL     OW10900   5.716   6.277  10.958  0.0456  0.2069  0.2799
36298SOL    HW110901   5.795   6.290  10.905  0.4180  1.6243  1.1265
36298SOL    HW210902   5.671   6.362  10.954 -0.1058  0.2296  1.9119
36299SOL     OW10903   1.033  10.104   1.449 -0.0598 -0.1742  0.2292
36299SOL    HW110904   1.117  10.063   1.429 -1.3807 -4.3504  2.1756
36299SOL    HW210905   1.045  10.139   1.538  0.8841  3.7423 -1.2091
36300SOL     OW10906   9.336   4.243   7.229 -1.0765 -0.7968  0.6340
36300SOL    HW110907   9.321   4.248   7.323 -1.1295 -0.5855  0.6152
36300SOL    HW210908   9.329   4.333   7.199 -1.3831 -0.9056  0.3781
36301SOL     OW10909   7.239   1.370   6.391 -0.4272 -0.6893 -0.2103
36301SOL    HW110910   7.252   1.417   6.474  0.7453 -2.8082  0.8792
36301SOL    HW210911   7.252   1.278   6.413  0.6126 -1.2806 -2.8888
36302SOL     OW10912   5.113   8.728   8.298  0.2154  0.4255  0.4015
36302SOL    HW110913   5.146   8.712   8.210 -2.7402  0.9650 -0.9132
36302SOL    HW210914   5.142   8.817   8.318  1.6281 -0.0079  0.3643
36303SOL     OW10915   2.633   7.074   4.160 -0.5157 -0.4724 -0.8548
36303SOL    HW110916   2.581   7.064   4.240 -0.4101  0.7562 -0.6079
36303SOL    HW210917   2.720   7.100   4.191 -0.9763  1.9438 -1.3834
36304SOL     OW10918   0.409   3.773   2.712  0.3645  0.1263  0.1594
36304SOL    HW110919   0.325   3.774   2.757 -0.8312 -2.0826 -1.8051
36304SOL    HW210920   0.451   3.855   2.738 -1.2251  0.1190  3.2444
36305SOL     OW10921   7.614   7.708   2.245  0.0379 -0.1567  0.0855
36305SOL    HW110922   7.696   7.660   2.234 -0.0467  0.1788 -2.6328
36305SOL    HW210923   7.548   7.640   2.260  0.1398 -0.8810 -2.3116
36306SOL     OW10924   9.456   5.762   0.380 -0.1008  0.1388 -0.6014
36306SOL    HW110925   9.472   5.669   0.364 -1.8630 -0.3882  0.4194
36306SOL    HW210926   9.464   5.802   0.293 -2.7987 -1.5664 -1.7690
36307SOL     OW10927   8.626   6.722   3.506  0.5359 -0.0705  0.4782
36307SOL    HW110928   8.557   6.703   3.442  0.9093 -0.8042  0.2720
36307SOL    HW210929   8.639   6.816   3.500  0.3536 -0.0892 -0.3134
36308SOL     OW10930   0.224   8.999   5.522  0.7359  0.4421 -0.0610
36308SOL    HW110931   0.251   8.920   5.569 -1.7445  0.1767  1.0728
36308SOL    HW210932   0.138   9.021   5.559  0.1116  2.0901 -2.2624
36309SOL     OW10933   8.705   8.476   2.497 -0.5572 -0.0311  0.3364
36309SOL    HW110934   8.620   8.435   2.509 -1.3161  0.3226 -2.9361
36309SOL    HW210935   8.765   8.403   2.481 -1.4661 -0.1809 -3.1434
36310SOL     OW10936   6.547   6.231   8.446  0.3239 -0.1154  0.4619
36310SOL    HW110937   6.539   6.141   8.479 -0.7799 -0.1033  0.2770
36310SOL    HW210938   6.638   6.238   8.417  0.3960 -1.2145  0.3629
36311SOL     OW10939   5.209   7.495   9.074 -0.9240  0.2478  0.5422
36311SOL    HW110940   5.298   7.466   9.092 -0.2602  2.2771  0.7451
36311SOL    HW210941   5.174   7.522   9.159 -1.1723  0.9161  0.2366
36312SOL     OW10942   0.316   4.095   6.553 -0.5925  0.1772 -0.2095
36312SOL    HW110943   0.320   4.128   6.463  3.4064  0.0303 -0.2408
36312SOL    HW210944   0.315   3.999   6.543 -0.3320  0.1624 -0.0976
36313SOL     OW10945   9.355   7.319   2.330 -0.3225  0.2617  0.0294
36313SOL    HW110946   9.378   7.254   2.263 -0.2308 -1.2721  1.4622
36313SOL    HW210947   9.261   7.332   2.319 -0.4255 -0.4594 -0.0401
36314SOL     OW10948   4.017   1.485   2.722  0.3416 -0.3423 -0.1205
36314SOL    HW110949   3.961   1.408   2.715 -0.0180 -0.0422 -0.6692
36314SOL    HW210950   4.055   1.495   2.635 -1.2173  1.2707 -0.6997
36315SOL     OW10951   8.423   3.392   9.937  0.5612  0.4401 -0.0550
36315SOL    HW110952   8.493   3.431   9.885  0.1119  0.4439 -0.6707
36315SOL    HW210953   8.380   3.466   9.980  1.5480  0.3594  1.1357
36316SOL     OW10954  11.034   5.171   5.991 -0.2239 -0.2253 -0.3160
36316SOL    HW110955  11.045   5.248   5.935  1.2818  0.2049  0.5295
36316SOL    HW210956  11.076   5.195   6.073 -1.0305 -1.4221  0.4743
36317SOL     OW10957   3.502   9.209   4.925  0.2831  0.4162 -0.0054
36317SOL    HW110958   3.423   9.186   4.877 -0.0429 -0.8361  1.0574
36317SOL    HW210959   3.471   9.259   5.000  0.1515 -2.0997  1.7468
36318SOL     OW10960  10.648   0.117   3.758 -0.4942  0.2936  0.3306
36318SOL    HW110961  10.688   0.030   3.756  1.4767  1.1534  0.1664
36318SOL    HW210962  10.718   0.177   3.734 -2.3481  1.7769 -1.9379
36319SOL     OW10963   7.071  10.613   3.268  0.7984  0.3464  0.1486
36319SOL    HW110964   7.098  10.661   3.190  0.3901  0.2488 -0.0534
36319SOL    HW210965   7.151  10.569   3.298  0.9203  0.2507 -0.3077
36320SOL     OW10966   4.125   3.448   7.119  0.9200 -0.2219  0.0060
36320SOL    HW110967   4.218   3.458   7.101  1.4279 -3.2746  0.3487
36320SOL    HW210968   4.116   3.464   7.213  0.9881  0.6111 -0.1260
36321SOL     OW10969   3.062   6.611  11.060  0.2759 -0.1481 -0.1031
36321SOL    HW110970   3.152   6.642  11.046 -0.3397  1.1051 -1.5998
36321SOL    HW210971   3.070   6.543  11.127  2.1887  0.6899  0.5818
36322SOL     OW10972   1.636  11.044   1.679  0.9897 -0.3254  0.3193
36322SOL    HW110973   1.726  11.076   1.670  0.2782  1.6811 -0.2852
36322SOL    HW210974   1.583  11.124   1.688 -1.0595 -1.1693 -2.5466
36323SOL     OW10975   3.300   6.806   3.109  0.4245  0.5555 -0.3680
36323SOL    HW110976   3.282   6.745   3.037 -0.2575 -1.4391  1.3669
36323SOL    HW210977   3.271   6.891   3.077 -3.7686 -0.9097 -1.0612
36324SOL     OW10978   6.605   1.378   4.746  0.3330  0.4984 -0.6718
36324SOL    HW110979   6.536   1.346   4.689 -1.6455  0.2671  1.6792
36324SOL    HW210980   6.637   1.300   4.792  1.2025  0.8004 -0.7485
36325SOL     OW10981   3.825  10.392   5.067 -0.1272  0.0883 -0.2325
36325SOL    HW110982   3.752  10.334   5.091  1.0419 -1.1684  0.3708
36325SOL    HW210983   3.849  10.364   4.979 -0.8290  1.0029 -0.7308
36326SOL     OW10984   9.665   8.688   7.713 -0.1504 -0.5858  0.4897
36326SOL    HW110985   9.754   8.690   7.679 -0.2361 -0.1835  0.2845
36326SOL    HW210986   9.640   8.780   7.722 -0.0712 -0.6750  1.8054
36327SOL     OW10987   1.814  10.803   0.151 -0.6856  0.0204  0.4931
36327SOL    HW110988   1.752  10.839   0.215  0.9338  2.2864  0.9267
36327SOL    HW210989   1.799  10.854   0.072  1.1530  1.2772  0.8839
36328SOL     OW10990   8.754  10.414   5.220  0.6996 -0.0451  0.1969
36328SOL    HW110991   8.735  10.486   5.280  2.1468 -1.3352  2.3287
36328SOL    HW210992   8.846  10.427   5.196  0.6443 -0.5632 -0.3106
36329SOL     OW10993   4.087   9.263   0.825 -0.4048 -0.7634 -0.4738
36329SOL    HW110994   4.049   9.326   0.887 -4.1160 -0.5236 -2.6660
36329SOL    HW210995   4.107   9.186   0.878  1.1307  1.0363  1.7252
36330SOL     OW10996   9.833   3.797   5.268  0.0350  0.5051 -0.6078
36330SOL    HW110997   9.886   3.870   5.235  0.1092 -0.1887 -2.1181
36330SOL    HW210998   9.747   3.835   5.284  0.8421  1.5951  1.6548
36331SOL     OW10999   3.173   1.306   6.727 -0.6165  0.8813  0.0166
36331SOL    HW111000   3.170   1.287   6.820  0.3688  0.1429 -0.0947
36331SOL    HW211001   3.213   1.392   6.721  3.5714 -0.8398  0.1297
36332SOL     OW11002  10.754   6.616   4.722 -0.1841 -0.1866 -0.2318
36332SOL    HW111003  10.697   6.586   4.651 -0.5599 -1.7933  0.7102
36332SOL    HW211004  10.842   6.605   4.688 -0.3755  0.9012 -1.1449
36333SOL     OW11005   3.483   1.422  10.388  0.0743  0.5222 -0.2320
36333SOL    HW111006   3.440   1.428  10.473 -0.5776  1.6365 -0.6179
36333SOL    HW211007   3.575   1.444  10.406  0.7785 -2.7362  0.7420
36334SOL     OW11008   2.951   7.930   3.399  0.6828  0.2969  0.3311
36334SOL    HW111009   3.013   7.911   3.468  0.1357 -0.4906  0.6132
36334SOL    HW211010   2.878   7.973   3.443  0.5748  0.2951  0.1567
36335SOL     OW11011   1.460   8.250   4.723  0.3539  0.1283  0.8602
36335SOL    HW111012   1.432   8.300   4.646  0.9487 -1.4745 -0.4566
36335SOL    HW211013   1.395   8.180   4.732  0.6744 -0.1129  1.3963
36336SOL     OW11014   7.955   4.815   8.435 -0.3231  0.4318  0.8010
36336SOL    HW111015   7.924   4.799   8.346 -2.4942  0.9122  1.4137
36336SOL    HW211016   7.905   4.754   8.489 -1.4608  2.3686  2.0415
36337SOL     OW11017   6.644   4.633   9.638  0.4357 -0.3978 -0.1640
36337SOL    HW111018   6.723   4.627   9.583 -0.7059 -0.7005 -1.8618
36337SOL    HW211019   6.626   4.543   9.663 -0.3166 -0.5557 -1.2241
36338SOL     OW11020   8.892   3.918   9.641 -0.3932 -0.1201 -0.0688
36338SOL    HW111021   8.810   3.876   9.617 -0.4014 -0.0790 -0.1119
36338SOL    HW211022   8.869   3.979   9.712 -0.3476 -0.3255  0.1238
36339SOL     OW11023   4.597   6.825   7.572 -0.5067  0.0046  0.5305
36339SOL    HW111024   4.561   6.832   7.484 -1.0160  0.9586  0.8000
36339SOL    HW211025   4.557   6.747   7.609  0.7169 -1.1620 -0.5231
36340SOL     OW11026   7.654   1.880   4.545 -0.5974 -0.5508 -0.9015
36340SOL    HW111027   7.684   1.964   4.511  1.2530  0.8737  3.5552
36340SOL    HW211028   7.574   1.900   4.593  0.1544 -1.1424  0.6750
36341SOL     OW11029   9.845   2.681   6.280  0.6674 -0.3953 -0.3047
36341SOL    HW111030   9.934   2.713   6.296 -0.0466  0.7026  1.7548
36341SOL    HW211031   9.805   2.747   6.224  0.4563  0.3142  0.6571
36342SOL     OW11032   9.595   2.922   4.039  0.8386 -0.7776 -0.0339
36342SOL    HW111033   9.532   2.991   4.018  1.3992 -0.7002 -1.5943
36342SOL    HW211034   9.677   2.970   4.056  0.7166 -0.9366  1.0901
36343SOL     OW11035   7.252  10.354   9.479 -0.5663  1.0296 -0.9481
36343SOL    HW111036   7.207  10.270   9.476 -1.4032  1.4856 -1.3130
36343SOL    HW211037   7.337  10.338   9.437 -0.4212  0.2019 -0.3646
36344SOL     OW11038   6.785   9.281   1.692  0.3081  0.2444 -0.2463
36344SOL    HW111039   6.862   9.267   1.748 -0.5933 -1.2150  0.7030
36344SOL    HW211040   6.731   9.203   1.706 -2.4378  2.1706  0.8882
36345SOL     OW11041   0.989   9.270   9.928 -0.4654 -0.4505 -0.4391
36345SOL    HW111042   1.076   9.298   9.899 -0.5173 -0.8737 -1.0072
36345SOL    HW211043   0.970   9.328  10.003  0.3665 -0.4529 -0.2061
36346SOL     OW11044  10.898   7.079   5.412 -0.2747  0.9670  0.5512
36346SOL    HW111045  10.848   6.998   5.409  0.1569  0.7106 -2.4524
36346SOL    HW211046  10.953   7.071   5.490  0.9622 -2.4227 -0.5040
36347SOL     OW11047   9.212  10.324   1.790 -0.3053  0.1777  0.4341
36347SOL    HW111048   9.256  10.400   1.826 -1.2094  0.8814  0.1041
36347SOL    HW211049   9.168  10.357   1.712  0.6575 -1.0561 -0.6671
36348SOL     OW11050   1.460  10.361   2.655  0.1827  0.6722 -0.1000
36348SOL    HW111051   1.507  10.430   2.610 -0.1329  0.5587 -0.6144
36348SOL    HW211052   1.367  10.382   2.640  0.0847  0.2268 -0.1312
36349SOL     OW11053   7.937   0.771  10.041 -0.0682 -0.6196  0.1898
36349SOL    HW111054   7.889   0.803  10.117  1.6718 -1.7397  1.8646
36349SOL    HW211055   7.994   0.703  10.076  0.1847 -1.7911 -2.3006
36350SOL     OW11056   7.355   0.718   0.212 -0.0692 -0.0821  0.2504
36350SOL    HW111057   7.297   0.790   0.189 -0.3142 -0.7417 -1.3384
36350SOL    HW211058   7.431   0.760   0.253 -0.2716  1.0667 -0.5112
36351SOL     OW11059   8.756   1.771   7.758 -0.5472  0.2958 -1.4387
36351SOL    HW111060   8.687   1.745   7.820  0.6494 -2.9347 -1.2458
36351SOL    HW211061   8.725   1.854   7.722 -2.1365  1.5218  2.1980
36352SOL     OW11062   0.541   4.346   7.515  0.5934  0.3756 -0.5720
36352SOL    HW111063   0.578   4.383   7.595  1.5118  0.8744 -1.2116
36352SOL    HW211064   0.529   4.421   7.456  1.1267 -0.1309 -1.3533
36353SOL     OW11065   8.090   9.902   8.555 -0.6566 -0.0088 -0.1021
36353SOL    HW111066   8.036   9.865   8.485  1.5118 -1.9803 -0.8657
36353SOL    HW211067   8.103   9.830   8.617 -0.2568  0.8933  0.8915
36354SOL     OW11068   5.747  10.176   6.297 -0.4230 -0.2836 -0.9906
36354SOL    HW111069   5.791  10.091   6.302 -1.1178 -0.5873  1.4985
36354SOL    HW211070   5.657  10.155   6.272 -0.4240 -0.2205 -1.0392
36355SOL     OW11071   2.665   5.009   6.989 -0.1216 -0.2711  0.4923
36355SOL    HW111072   2.687   4.915   6.993 -2.0856 -0.7784  0.1805
36355SOL    HW211073   2.740   5.048   6.944  0.9090 -1.6277  0.9533
36356SOL     OW11074   6.671   0.980   3.712 -0.3628  0.1784 -0.0655
36356SOL    HW111075   6.650   0.993   3.619 -0.0444  1.0971 -0.0195
36356SOL    HW211076   6.684   1.068   3.746 -1.0424 -0.1069  0.9960
36357SOL     OW11077   1.491   1.722   8.786 -0.1027 -0.0313 -0.5928
36357SOL    HW111078   1.555   1.773   8.735  1.2068 -0.1910  0.8289
36357SOL    HW211079   1.432   1.788   8.822  0.9361  0.4357  0.3363
36358SOL     OW11080   1.511   8.696   6.984  0.2207 -0.0530 -0.3812
36358SOL    HW111081   1.562   8.714   7.063  0.1849 -0.3997 -0.2762
36358SOL    HW211082   1.565   8.728   6.912  1.0885 -1.3989 -0.3568
36359SOL     OW11083   6.880   0.826  10.341  0.0434 -0.5438 -0.3650
36359SOL    HW111084   6.834   0.777  10.273  0.1800 -2.6980  0.9915
36359SOL    HW211085   6.896   0.762  10.410  2.8159  0.7221  0.3143
36360SOL     OW11086   7.366   0.696   6.326  0.3020 -0.1117 -0.2241
36360SOL    HW111087   7.375   0.678   6.232  2.0127 -1.4860  0.1472
36360SOL    HW211088   7.441   0.653   6.366  0.8065  2.2428  1.5818
36361SOL     OW11089   0.046   3.037   3.954 -0.6844 -0.5305  0.2071
36361SOL    HW111090  -0.027   3.073   4.005 -0.2939  2.0232 -0.8799
36361SOL    HW211091   0.036   3.076   3.867  2.7344  1.0934  0.3943
36362SOL     OW11092   3.185   0.538   1.580  0.7825  0.1906 -0.3031
36362SOL    HW111093   3.106   0.589   1.567  1.0474  0.6987  0.0727
36362SOL    HW211094   3.182   0.471   1.511  1.2420  1.6917 -1.8401
36363SOL     OW11095  10.755   7.196   4.927 -0.4459 -0.1450 -0.0668
36363SOL    HW111096  10.795   7.279   4.904  1.3776 -1.0428 -0.3440
36363SOL    HW211097  10.764   7.190   5.023  3.5773 -1.8660 -0.3386
36364SOL     OW11098   1.967   8.291   1.652  0.2175 -0.1855 -0.1516
36364SOL    HW111099   1.897   8.357   1.652  1.0981  0.7788 -0.1289
36364SOL    HW211100   2.016   8.310   1.732  1.8126  0.6079 -1.2631
36365SOL     OW11101   3.046   2.807   8.741  0.6450 -0.7251  0.2620
36365SOL    HW111102   3.049   2.785   8.834 -2.1609  0.0330  0.6407
36365SOL    HW211103   3.056   2.902   8.738 -0.3145 -0.6173 -0.0659
36366SOL     OW11104   0.661   3.669  10.965 -0.5967 -0.2476  0.2045
36366SOL    HW111105   0.604   3.736  10.927 -2.6149 -1.3477  1.1038
36366SOL    HW211106   0.641   3.589  10.916  3.3080  0.0783 -2.2873
36367SOL     OW11107   9.163   6.667   2.546  0.5262 -0.1871 -0.6312
36367SOL    HW111108   9.151   6.733   2.615  0.1638 -0.8652 -0.0279
36367SOL    HW211109   9.123   6.706   2.469 -0.0600  0.1396 -0.1759
36368SOL     OW11110   2.934   7.188   2.347 -0.6132  0.0552  0.0061
36368SOL    HW111111   2.926   7.255   2.415  1.6610  1.6328 -1.1279
36368SOL    HW211112   2.854   7.197   2.296 -2.8113 -1.7809  2.8323
36369SOL     OW11113   7.947   8.445   1.733  0.2811 -0.1034  0.2952
36369SOL    HW111114   7.949   8.361   1.685 -2.2074 -1.1483  1.8489
36369SOL    HW211115   7.960   8.511   1.665  2.0066 -1.6787 -1.0394
36370SOL     OW11116   7.427   7.795   5.741 -0.1929  0.0585  0.6318
36370SOL    HW111117   7.355   7.855   5.725  0.5093  0.7693  0.1098
36370SOL    HW211118   7.439   7.748   5.659 -0.0336 -0.0394  0.7092
36371SOL     OW11119   6.233   6.178   1.771 -0.1050  0.0811 -0.1187
36371SOL    HW111120   6.185   6.244   1.822 -1.4405 -0.2879 -0.8636
36371SOL    HW211121   6.257   6.111   1.835 -1.2436 -0.0855  0.1533
36372SOL     OW11122   3.579   6.095   3.865 -0.0417 -0.8962  0.1247
36372SOL    HW111123   3.564   6.059   3.777  2.9736 -2.6386  0.2116
36372SOL    HW211124   3.564   6.189   3.855 -0.7510 -1.1773 -1.9898
36373SOL     OW11125   9.582   6.501   6.621  0.5148  0.2340 -0.0012
36373SOL    HW111126   9.591   6.446   6.543 -0.9116 -2.8012  1.7470
36373SOL    HW211127   9.668   6.498   6.663  0.7843  0.3664 -0.5438
36374SOL     OW11128   2.792   1.703   5.040 -0.4597 -0.1720 -0.5221
36374SOL    HW111129   2.738   1.778   5.015  0.7508  0.1470 -2.3521
36374SOL    HW211130   2.813   1.719   5.132 -1.4336  0.9659 -0.4738
36375SOL     OW11131   9.005   0.938   3.250 -0.2306  0.3326 -0.0336
36375SOL    HW111132   8.916   0.922   3.283  0.2204 -0.1985  0.9880
36375SOL    HW211133   9.041   1.003   3.310  1.8292 -3.1529  2.9224
36376SOL     OW11134   5.629   0.876   1.577  0.0337  0.0904  0.0443
36376SOL    HW111135   5.551   0.823   1.595  0.2873 -0.3916 -0.2821
36376SOL    HW211136   5.606   0.928   1.500 -0.2597  0.5594  0.4386
36377SOL     OW11137   8.539   6.517   5.120 -0.5795 -0.4569  0.4818
36377SOL    HW111138   8.444   6.521   5.133 -0.7052 -1.6886  0.0749
36377SOL    HW211139   8.551   6.451   5.052  0.6838 -1.6977  1.8322
36378SOL     OW11140   9.450   9.527  10.662  1.1771 -0.3002  0.2170
36378SOL    HW111141   9.463   9.576  10.743  1.8599  0.9326 -0.5982
36378SOL    HW211142   9.362   9.552  10.632  0.3981 -1.7278  1.1733
36379SOL     OW11143  10.044   5.804   2.544 -0.1006  0.2187 -0.2295
36379SOL    HW111144  10.136   5.792   2.568 -0.4288 -0.5751  0.6988
36379SOL    HW211145  10.021   5.725   2.495 -0.5043  0.0351  0.2471
36380SOL     OW11146   1.507   6.910   4.728  0.1427 -0.6029  0.3260
36380SOL    HW111147   1.521   6.855   4.651  0.9300 -0.1699  0.1405
36380SOL    HW211148   1.412   6.918   4.736  0.0490 -0.2448 -0.9071
36381SOL     OW11149   8.854   2.410   2.250  0.1242 -0.5406 -0.2403
36381SOL    HW111150   8.766   2.376   2.235 -0.4158  0.3131  0.8681
36381SOL    HW211151   8.903   2.335   2.286  0.6063 -1.7401 -3.0967
36382SOL     OW11152  10.452   1.679  10.493  0.2798 -0.2872 -0.1178
36382SOL    HW111153  10.407   1.596  10.505  1.2337 -1.2834 -2.6232
36382SOL    HW211154  10.406   1.740  10.550 -2.9810 -1.6361 -1.0613
36383SOL     OW11155   7.459   2.759   4.332  0.1878  0.0446  0.2329
36383SOL    HW111156   7.401   2.716   4.396  0.5636 -0.8788 -0.0356
36383SOL    HW211157   7.503   2.828   4.383 -1.0573  0.6956  0.4611
36384SOL     OW11158  10.987   7.994  10.499 -0.5399 -0.0285 -0.6710
36384SOL    HW111159  10.955   7.957  10.581 -1.9220  0.0491 -1.1457
36384SOL    HW211160  10.984   8.089  10.513 -0.0850 -0.0282 -0.5663
36385SOL     OW11161   2.400   5.814   2.127 -0.1340  0.9527 -0.6692
36385SOL    HW111162   2.430   5.788   2.040  0.4868  0.0056 -0.1892
36385SOL    HW211163   2.316   5.768   2.138  0.5947 -0.3054 -0.1249
36386SOL     OW11164  10.497  10.715   6.249 -0.2236 -0.0616  0.0497
36386SOL    HW111165  10.560  10.734   6.318  1.9800  4.0374 -2.6695
36386SOL    HW211166  10.433  10.786   6.254 -1.1401 -0.7814 -0.9464
36387SOL     OW11167   1.281   9.467   3.557  0.3053 -0.3363  0.2209
36387SOL    HW111168   1.325   9.382   3.552 -0.5321 -0.7020 -1.7235
36387SOL    HW211169   1.219   9.467   3.484 -1.7759  0.8153  1.8784
36388SOL     OW11170   7.894   4.967   3.569  0.2580 -0.1349  0.3952
36388SOL    HW111171   7.950   4.980   3.646  3.0490  1.5988 -1.7171
36388SOL    HW211172   7.823   4.912   3.601  2.5861 -1.6802  3.6041
36389SOL     OW11173   9.937   5.967   9.637  0.5939  0.3275 -0.0702
36389SOL    HW111174   9.942   5.895   9.573  2.9249  1.2357 -1.0098
36389SOL    HW211175   9.872   6.027   9.600  0.5307 -0.0591 -0.6080
36390SOL     OW11176   7.635   2.005   2.072  0.3348  0.5624 -0.4075
36390SOL    HW111177   7.542   2.027   2.076  0.2157  0.2086 -1.1369
36390SOL    HW211178   7.680   2.087   2.095 -0.1456  0.8755 -0.5813
36391SOL     OW11179   1.517   6.486   0.504  0.0052 -0.1658 -0.1305
36391SOL    HW111180   1.466   6.406   0.490  0.7020 -0.7745  0.7340
36391SOL    HW211181   1.574   6.491   0.427  0.2111 -0.6980 -0.0146
36392SOL     OW11182   5.195   2.004   3.086  0.5430  0.2709 -0.8731
36392SOL    HW111183   5.198   1.964   3.173  0.8580  1.0740 -0.5098
36392SOL    HW211184   5.226   1.935   3.027 -1.2161 -0.8538 -0.5828
36393SOL     OW11185   3.966   2.947  10.680  0.1912  0.1247 -0.1445
36393SOL    HW111186   3.873   2.966  10.666  0.3124  0.6803 -0.2332
36393SOL    HW211187   3.967   2.862  10.725 -0.2589 -1.0029 -2.1697
36394SOL     OW11188   7.662   8.509  10.950 -0.1560 -0.7713  0.2156
36394SOL    HW111189   7.658   8.475  11.039 -0.2319 -2.3627 -0.3542
36394SOL    HW211190   7.595   8.459  10.902 -1.5763  1.4802 -0.3106
36395SOL     OW11191   0.668   6.261   5.134 -0.1804 -0.4636  0.0914
36395SOL    HW111192   0.682   6.307   5.216  2.8766  1.7498 -1.4641
36395SOL    HW211193   0.588   6.299   5.097 -1.2783 -1.1088  1.7133
36396SOL     OW11194   4.493   0.456   6.367 -0.4630 -0.2033  0.1373
36396SOL    HW111195   4.513   0.372   6.325  3.9724  0.0788  1.2141
36396SOL    HW211196   4.428   0.435   6.434  0.9203 -2.9235  0.7276
36397SOL     OW11197   2.787   2.381   0.815  0.3877  0.5102 -0.1164
36397SOL    HW111198   2.732   2.380   0.893  0.1719  2.3409 -0.2053
36397SOL    HW211199   2.790   2.290   0.786  1.4106 -0.4162  2.6487
36398SOL     OW11200   0.877   2.161   0.583  0.0223 -0.5932  0.0163
36398SOL    HW111201   0.936   2.170   0.657  0.9103 -0.8437 -0.6395
36398SOL    HW211202   0.840   2.073   0.591 -1.6935  0.2103  1.4328
36399SOL     OW11203   3.882   4.052   2.925  0.5383  0.0540  0.6542
36399SOL    HW111204   3.883   4.068   2.830 -0.8800 -2.1474  0.2047
36399SOL    HW211205   3.809   4.105   2.957 -1.3136 -1.8758 -0.1277
36400SOL     OW11206   9.980   9.345  10.918  0.6050 -0.5003 -0.0661
36400SOL    HW111207  10.039   9.273  10.895  0.8303 -0.2582 -0.2618
36400SOL    HW211208   9.940   9.318  11.000  1.6663 -0.2746  0.5423
36401SOL     OW11209   2.892   2.700   5.352  0.2529 -0.1588 -0.2639
36401SOL    HW111210   2.959   2.636   5.376  1.6855  1.0684 -0.8331
36401SOL    HW211211   2.858   2.669   5.268  1.5797  0.2652 -0.9846
36402SOL     OW11212   7.602   6.176   2.804  0.2338 -0.1524  0.3121
36402SOL    HW111213   7.690   6.208   2.786 -0.6113  1.1271 -1.9804
36402SOL    HW211214   7.544   6.243   2.769 -1.6541 -2.2963 -0.9806
36403SOL     OW11215   5.867   8.805  10.046  0.2243  0.3487 -0.4149
36403SOL    HW111216   5.950   8.785  10.091 -1.1697 -2.1892  1.3190
36403SOL    HW211217   5.875   8.760   9.962  0.6634  0.2228 -0.3136
36404SOL     OW11218   2.815   6.782   2.524  0.0504 -0.1437  0.1417
36404SOL    HW111219   2.727   6.746   2.538  0.7973 -1.5256  1.5254
36404SOL    HW211220   2.861   6.715   2.474  0.9510 -0.3682  1.2464
36405SOL     OW11221   8.075   8.952   8.638  0.5073  0.0927 -0.7581
36405SOL    HW111222   8.056   8.860   8.617  0.1839  0.6744 -3.2625
36405SOL    HW211223   8.002   8.980   8.693 -0.4136 -0.6373 -1.5728
36406SOL     OW11224   0.135   9.082   3.834  0.2265 -0.1042 -0.4570
36406SOL    HW111225   0.164   9.023   3.903  0.1837  1.4292  0.9244
36406SOL    HW211226   0.109   9.024   3.763  0.9524 -1.7093  0.5260
36407SOL     OW11227   7.168   1.073   4.423  0.5448 -0.9802 -0.1466
36407SOL    HW111228   7.154   1.144   4.359  0.6703 -2.3296 -1.7391
36407SOL    HW211229   7.228   1.013   4.379  1.9457 -1.1659  1.9225
36408SOL     OW11230  10.970   2.361   3.467 -0.5776  0.0335 -0.5874
36408SOL    HW111231  10.988   2.446   3.508 -1.0824  0.2515 -0.7999
36408SOL    HW211232  11.045   2.345   3.409 -0.0114 -0.1303  0.1799
36409SOL     OW11233   8.678   5.282   7.378  0.3119  0.4468 -0.0356
36409SOL    HW111234   8.722   5.203   7.410 -1.5454 -1.9832 -2.9971
36409SOL    HW211235   8.749   5.334   7.338  1.3491 -0.4022  0.6462
36410SOL     OW11236   1.033   1.759  10.389  0.8710 -0.3074 -0.0578
36410SOL    HW111237   1.124   1.741  10.365  1.9324  4.2741 -0.4009
36410SOL    HW211238   1.038   1.829  10.454 -2.2339  3.2941 -3.1585
36411SOL     OW11239   9.337   6.166   8.763 -0.2494  0.8864  0.2247
36411SOL    HW111240   9.403   6.179   8.830  0.8352  0.0969 -0.6543
36411SOL    HW211241   9.303   6.254   8.745 -0.5944  1.0967  1.8126
36412SOL     OW11242   3.481   8.987   7.910  0.3057  0.0075  0.2529
36412SOL    HW111243   3.390   8.960   7.920 -0.0673  1.5988  1.7774
36412SOL    HW211244   3.520   8.972   7.997  1.1492  0.5477 -0.0173
36413SOL     OW11245   6.347   6.464  10.594  0.2538  0.1184  0.5403
36413SOL    HW111246   6.262   6.435  10.559  0.3352 -0.2327  0.6273
36413SOL    HW211247   6.411   6.430  10.531  0.2358  1.9406 -0.5432
36414SOL     OW11248   8.438   8.858  10.932  0.2735  0.3909 -0.6868
36414SOL    HW111249   8.387   8.893  10.858  0.9653  0.6758 -1.0378
36414SOL    HW211250   8.512   8.918  10.940 -0.5363  1.2546  1.1874
36415SOL     OW11251   0.558   2.041  10.313  0.1211 -0.4200 -0.2622
36415SOL    HW111252   0.635   2.098  10.316 -1.5706  2.1349 -1.6695
36415SOL    HW211253   0.492   2.087  10.365 -1.5310 -0.6589 -2.0165
36416SOL     OW11254   0.171   9.354   9.738  0.6770  0.3402 -0.5444
36416SOL    HW111255   0.247   9.408   9.760 -0.6015  0.7199  3.8884
36416SOL    HW211256   0.096   9.403   9.772 -1.4367 -0.9639 -2.9502
36417SOL     OW11257   4.038   2.075   0.428  0.3404  0.2955 -0.4902
36417SOL    HW111258   3.984   2.081   0.507  0.8543 -0.5572 -0.0495
36417SOL    HW211259   3.975   2.064   0.357 -0.0952 -1.1362  0.0625
36418SOL     OW11260   3.652   4.035   8.106  0.2848  0.4506 -0.4434
36418SOL    HW111261   3.711   4.110   8.098  1.2803 -0.2333  0.2085
36418SOL    HW211262   3.708   3.959   8.091  0.2031 -0.3794  2.7295
36419SOL     OW11263   1.937   6.610   8.562  0.3297  0.0643 -0.2336
36419SOL    HW111264   2.013   6.668   8.571  0.7095 -0.2471 -1.2883
36419SOL    HW211265   1.953   6.540   8.625  0.0821  0.8451  0.7364
36420SOL     OW11266   2.753   1.092   4.823  0.3963 -0.1211  0.6517
36420SOL    HW111267   2.771   1.182   4.798 -0.5809  0.7383  2.8060
36420SOL    HW211268   2.809   1.076   4.898 -0.7162 -0.6818  1.3882
36421SOL     OW11269   8.375   2.061   1.822 -0.1822  0.2919 -0.0809
36421SOL    HW111270   8.464   2.030   1.839 -0.1381  0.9474  1.0351
36421SOL    HW211271   8.319   1.989   1.849  0.0044 -0.0218 -0.5305
36422SOL     OW11272   5.983   0.826   1.356  0.3465  0.6526 -0.3164
36422SOL    HW111273   6.055   0.767   1.378  2.3010  3.2908  0.8221
36422SOL    HW211274   5.990   0.840   1.262  0.1434 -0.5308 -0.5189
36423SOL     OW11275   2.757   1.412   5.158 -0.1321  0.2113  0.1521
36423SOL    HW111276   2.848   1.440   5.150  0.0809  0.6296  3.2100
36423SOL    HW211277   2.732   1.434   5.247 -2.6272 -1.7247  0.0436
36424SOL     OW11278   2.031   7.324   0.199  0.4869 -0.5969 -0.2512
36424SOL    HW111279   1.948   7.301   0.158  0.9656  1.0387 -2.3207
36424SOL    HW211280   2.007   7.377   0.275 -0.3546 -0.8623 -0.3193
36425SOL     OW11281   8.968   1.673   7.528  0.1951  0.9179 -0.8535
36425SOL    HW111282   9.010   1.759   7.529  1.0832  0.5172 -1.8056
36425SOL    HW211283   8.887   1.685   7.478 -0.2108  1.4203 -0.0851
36426SOL     OW11284   7.185   1.743   2.990 -0.6076  0.3829 -0.3238
36426SOL    HW111285   7.155   1.702   3.071 -1.6489 -1.5839 -1.6459
36426SOL    HW211286   7.279   1.728   2.990 -0.6151  0.2668  0.4402
36427SOL     OW11287   2.990  10.291   5.866 -0.2519  0.4160 -0.8172
36427SOL    HW111288   3.049  10.346   5.816 -0.4423 -1.3059 -3.1211
36427SOL    HW211289   2.906  10.337   5.865 -0.0042  0.8583 -1.2661
36428SOL     OW11290   4.540   9.842   8.608  0.5493 -0.2785  0.6660
36428SOL    HW111291   4.594   9.793   8.546  1.0757 -1.8802  2.2837
36428SOL    HW211292   4.451   9.835   8.573  1.1088  0.9089 -1.1185
36429SOL     OW11293   4.688  10.057   9.950  0.3488 -0.9637 -0.2881
36429SOL    HW111294   4.726   9.974   9.922 -0.9889 -1.7054 -0.0098
36429SOL    HW211295   4.627  10.033  10.020  0.3798  0.3330  0.2087
36430SOL     OW11296   5.708   8.649   1.844 -0.0590  0.1433 -0.1700
36430SOL    HW111297   5.751   8.694   1.917  1.4755 -1.1007 -0.2610
36430SOL    HW211298   5.689   8.561   1.877 -2.2223  0.4960 -0.2831
36431SOL     OW11299  10.067  10.728   5.189 -0.8845  0.2138 -1.1320
36431SOL    HW111300   9.996  10.753   5.249 -0.3647  1.3699 -0.9727
36431SOL    HW211301  10.112  10.810   5.170  1.7696 -0.7405  0.4905
36432SOL     OW11302   9.157   5.821   2.276  0.7148 -0.6072  1.0848
36432SOL    HW111303   9.226   5.767   2.236  0.7232  0.1482  0.0490
36432SOL    HW211304   9.204   5.894   2.316  0.5111 -0.0402  0.2932
36433SOL     OW11305   6.099   4.840   3.429  0.4746  0.0586 -0.3399
36433SOL    HW111306   6.135   4.756   3.456  0.8553  0.0372 -0.9020
36433SOL    HW211307   6.175   4.898   3.420  0.2084  0.4883  0.1215
36434SOL     OW11308   3.022   0.091   0.866 -0.2636  0.4420 -0.1417
36434SOL    HW111309   2.980   0.025   0.811  1.4779  0.4507 -1.6109
36434SOL    HW211310   2.950   0.136   0.909 -1.6728 -0.2369 -1.6596
36435SOL     OW11311   3.224  11.009   6.877 -0.0376 -1.0085 -0.2966
36435SOL    HW111312   3.303  11.042   6.920  1.6656 -1.8389 -2.6040
36435SOL    HW211313   3.168  10.980   6.949  1.8726 -0.6445  1.4197
36436SOL     OW11314   8.506  10.515   9.380 -0.5535 -0.5572  0.1559
36436SOL    HW111315   8.438  10.527   9.314 -0.6889 -3.0523 -0.2267
36436SOL    HW211316   8.459  10.500   9.462 -0.4206 -0.1338  0.3135
36437SOL     OW11317   3.874  10.708   3.048  0.7907  0.2610 -0.0203
36437SOL    HW111318   3.954  10.756   3.069 -1.2948  3.7798  0.7662
36437SOL    HW211319   3.838  10.684   3.133  0.3405 -0.0532 -0.2953
36438SOL     OW11320   6.868  10.344   1.213 -0.0087  0.1212 -0.8952
36438SOL    HW111321   6.959  10.347   1.242  1.2857  2.5246 -4.5307
36438SOL    HW211322   6.823  10.411   1.266  0.0990 -1.3924  1.2367
36439SOL     OW11323   8.451   0.502   0.263 -0.4345 -0.1111 -0.0141
36439SOL    HW111324   8.463   0.593   0.237  1.2204 -0.4807 -0.6252
36439SOL    HW211325   8.401   0.463   0.191  1.5558 -0.4106 -1.2970
36440SOL     OW11326   2.547   7.399   1.596 -0.2196  0.2357 -0.6422
36440SOL    HW111327   2.610   7.471   1.594  0.5152 -0.3875 -2.8391
36440SOL    HW211328   2.547   7.364   1.506 -0.4549 -2.5682  0.3333
36441SOL     OW11329   3.234   0.887   2.817  0.7978 -0.2465  0.0917
36441SOL    HW111330   3.197   0.801   2.798  3.3749 -1.2678 -0.5779
36441SOL    HW211331   3.277   0.914   2.736  0.9277  1.2279  0.6146
36442SOL     OW11332  10.529   5.811   4.682  0.4895  0.2271  0.6054
36442SOL    HW111333  10.542   5.743   4.617  0.0657 -0.2207  0.9795
36442SOL    HW211334  10.476   5.770   4.750 -1.0143  1.3266  0.1595
36443SOL     OW11335   6.304   3.930   1.319 -0.2192  0.2846 -0.2990
36443SOL    HW111336   6.317   3.956   1.227 -0.1076  0.0218 -0.3599
36443SOL    HW211337   6.210   3.917   1.327 -0.5745  2.7391  0.2865
36444SOL     OW11338   3.075  10.017   2.838 -0.0680 -0.8327  0.0621
36444SOL    HW111339   3.153  10.047   2.791 -0.5727  1.6917  0.7176
36444SOL    HW211340   3.003  10.034   2.778 -0.6759  2.0937  1.4741
36445SOL     OW11341   7.540   3.707   7.500  0.8450 -0.0399  0.4665
36445SOL    HW111342   7.605   3.657   7.549  1.2674 -1.3900 -1.3730
36445SOL    HW211343   7.560   3.799   7.521  1.7630 -0.5237  1.8372
36446SOL     OW11344   6.010   3.268   9.582 -0.4235 -0.6991  0.7844
36446SOL    HW111345   6.072   3.340   9.590 -1.9478  0.4379  3.8295
36446SOL    HW211346   5.968   3.281   9.497  0.9365  0.6359  0.2841
36447SOL     OW11347   0.938   9.419   4.944 -0.2660 -0.0134 -0.7370
36447SOL    HW111348   0.862   9.363   4.960 -0.4908 -0.2493 -2.4604
36447SOL    HW211349   0.967   9.396   4.856 -0.0702  2.2408 -1.3246
36448SOL     OW11350   8.541   9.669   0.178  0.2465 -0.1255  0.6168
36448SOL    HW111351   8.629   9.706   0.163  0.2083 -0.1222  0.3969
36448SOL    HW211352   8.552   9.576   0.163 -0.0208  0.0091 -0.4801
36449SOL     OW11353   3.437  10.451   8.817 -0.6910  0.5076  0.9318
36449SOL    HW111354   3.436  10.546   8.811 -1.9001  0.4111 -2.6932
36449SOL    HW211355   3.344  10.426   8.815 -0.3632 -0.7651 -1.4235
36450SOL     OW11356   2.059   7.469   4.168  0.2812  0.0879  0.2928
36450SOL    HW111357   2.050   7.505   4.256  2.8144  0.4817  0.4497
36450SOL    HW211358   2.130   7.405   4.174 -0.4511 -0.9420 -1.1886
36451SOL     OW11359   6.323   3.025  10.483  0.6788  0.0063  0.3033
36451SOL    HW111360   6.336   2.972  10.562 -1.0015 -2.0073 -0.6646
36451SOL    HW211361   6.411   3.048  10.456  1.4066 -0.9562  1.6814
36452SOL     OW11362   3.675   2.750   3.561  0.1159 -0.3393  0.1895
36452SOL    HW111363   3.662   2.821   3.498 -1.4792 -0.0219  0.8155
36452SOL    HW211364   3.670   2.793   3.646  1.7852 -0.8338  0.5661
36453SOL     OW11365   3.383   6.245   8.951 -0.0507  0.0445  0.5088
36453SOL    HW111366   3.365   6.157   8.917 -2.1951  0.7458 -0.3324
36453SOL    HW211367   3.306   6.296   8.927  1.3051  2.2743  0.6422
36454SOL     OW11368   0.012   3.404   7.611 -0.1549 -0.8603 -0.2232
36454SOL    HW111369   0.056   3.358   7.683  0.2688 -0.5904 -0.3040
36454SOL    HW211370   0.081   3.458   7.572 -1.0372  1.2010  0.9428
36455SOL     OW11371   1.006   1.330   0.250  0.5989 -0.4615 -0.2234
36455SOL    HW111372   0.979   1.383   0.175  0.8412 -0.2485 -0.1600
36455SOL    HW211373   0.940   1.348   0.317  1.1406  0.4189  0.0940
36456SOL     OW11374   2.714   6.367   3.286 -0.4416  0.3398  0.3971
36456SOL    HW111375   2.670   6.405   3.210  1.0443 -1.5709 -1.5209
36456SOL    HW211376   2.764   6.440   3.323  0.7017  0.8230 -1.9204
36457SOL     OW11377   9.476   7.146   3.798  0.5297  0.6028 -0.1880
36457SOL    HW111378   9.492   7.198   3.719  1.4863 -0.3357 -0.6386
36457SOL    HW211379   9.413   7.079   3.771  1.1449  0.0472 -0.2740
36458SOL     OW11380   9.231   9.453   8.415 -0.1798 -0.9011 -0.2087
36458SOL    HW111381   9.190   9.392   8.476 -0.7400 -1.1151 -0.7875
36458SOL    HW211382   9.236   9.405   8.333  3.4606 -1.7787  0.3788
36459SOL     OW11383   4.041   8.522   0.150 -1.2378 -0.1376 -0.4410
36459SOL    HW111384   4.106   8.500   0.083  1.0852  1.3118  1.1612
36459SOL    HW211385   4.068   8.608   0.181 -3.6440  0.2567  0.7365
36460SOL     OW11386  10.628   4.336   4.823  0.6932  0.0501 -0.6575
36460SOL    HW111387  10.692   4.408   4.823  0.1644  0.5369  0.3174
36460SOL    HW211388  10.548   4.375   4.788  1.0398 -0.6953 -2.3896
36461SOL     OW11389   4.150   4.346   4.955  0.1517 -0.3889  0.1765
36461SOL    HW111390   4.100   4.353   4.873  0.0772 -1.2292  0.1422
36461SOL    HW211391   4.083   4.349   5.023 -0.0946 -2.5479  0.0998
36462SOL     OW11392  10.860   1.589   4.868 -0.2153  0.1686  0.0069
36462SOL    HW111393  10.933   1.584   4.931  0.8822  1.3779 -1.1074
36462SOL    HW211394  10.824   1.676   4.881 -1.3362 -0.3377  0.3761
36463SOL     OW11395  10.689   0.175   5.841 -0.0563 -0.1980 -0.5163
36463SOL    HW111396  10.744   0.135   5.909 -1.7913 -1.0772  0.4399
36463SOL    HW211397  10.674   0.264   5.872  0.3584 -0.1339 -0.4946
36464SOL     OW11398   3.010   7.140   8.146  0.1074 -0.4516  0.3012
36464SOL    HW111399   3.019   7.055   8.103 -1.2998  0.3896 -1.8331
36464SOL    HW211400   2.915   7.154   8.151  0.2972  0.6794  1.3259
36465SOL     OW11401   3.310  10.658   5.448  0.5042 -0.1751 -0.0327
36465SOL    HW111402   3.231  10.628   5.403  0.8514 -2.4459  0.7751
36465SOL    HW211403   3.375  10.665   5.378 -0.4465  2.1707 -0.7893
36466SOL     OW11404   0.904  11.092   3.812  0.2044 -0.0727 -0.3276
36466SOL    HW111405   0.874  11.009   3.849 -3.1618  1.4297  0.6964
36466SOL    HW211406   0.970  11.123   3.874 -0.2306 -0.8802  0.5693
36467SOL     OW11407   6.041   2.283   8.038  0.1695  0.1947  0.0324
36467SOL    HW111408   6.112   2.222   8.056 -0.4988 -0.4801  0.4142
36467SOL    HW211409   5.976   2.231   7.991  0.4076  1.0909 -1.3522
36468SOL     OW11410   9.071   7.640   2.453  0.1076  0.3740  0.1738
36468SOL    HW111411   9.097   7.558   2.413 -3.6477 -1.7995  1.6744
36468SOL    HW211412   9.148   7.668   2.503  1.5483 -2.1261 -0.4904
36469SOL     OW11413   6.257   3.292   9.344  0.5048  1.0230  0.2930
36469SOL    HW111414   6.267   3.373   9.393 -0.4688  1.3127  0.0314
36469SOL    HW211415   6.220   3.319   9.260  0.8328  0.3816 -0.0676
36470SOL     OW11416  10.362   9.119   5.613 -0.5225 -0.4541  0.7494
36470SOL    HW111417  10.311   9.039   5.595 -2.1313  0.4579  1.0143
36470SOL    HW211418  10.295   9.187   5.624  0.7914  0.8100  1.1413
36471SOL     OW11419   5.900   3.147   9.816  0.4446  1.0913  0.2149
36471SOL    HW111420   5.861   3.085   9.753  0.5802 -0.3256  1.4818
36471SOL    HW211421   5.950   3.207   9.761 -0.1116  0.4026 -1.1074
36472SOL     OW11422   8.666   6.597   5.892  0.0882 -0.3187 -0.4898
36472SOL    HW111423   8.611   6.611   5.969 -0.9429  0.6660 -1.3691
36472SOL    HW211424   8.611   6.623   5.818  1.2156 -0.7839 -1.5297
36473SOL     OW11425   9.870   3.871  10.267 -0.5520  0.1966  0.0849
36473SOL    HW111426   9.787   3.872  10.315  0.5881  2.0110  2.1735
36473SOL    HW211427   9.937   3.862  10.335  1.1519  2.9991 -1.0405
36474SOL     OW11428   6.068   4.128   3.041  0.1998  0.6926 -0.1525
36474SOL    HW111429   6.143   4.120   3.100  0.4988  1.9194 -0.3311
36474SOL    HW211430   6.035   4.216   3.057 -0.7319  0.4407 -0.6423
36475SOL     OW11431   6.887   9.508   0.652  0.3558  0.0597  0.0574
36475SOL    HW111432   6.887   9.459   0.734 -0.7057  1.3768  0.8883
36475SOL    HW211433   6.796   9.534   0.640  0.7715  1.2377 -0.7149
36476SOL     OW11434   7.082   0.499   8.093  0.5363 -0.4277 -0.5033
36476SOL    HW111435   7.024   0.550   8.036  0.2049 -1.3007 -0.9646
36476SOL    HW211436   7.154   0.559   8.114  1.1756 -0.3549 -2.6097
36477SOL     OW11437   2.535   3.740   4.855 -0.0180  0.2071 -0.6485
36477SOL    HW111438   2.617   3.787   4.835 -0.9906  1.5460 -1.6700
36477SOL    HW211439   2.490   3.734   4.771 -0.4154 -1.6825 -0.3336
36478SOL     OW11440   0.994   0.815   5.874 -0.2355  0.0712  0.0137
36478SOL    HW111441   0.982   0.739   5.931  0.3124  1.5209  2.2049
36478SOL    HW211442   1.089   0.819   5.858 -0.5127 -1.2672 -2.5179
36479SOL     OW11443   5.170   2.450   6.041 -0.7466  0.4263  0.3166
36479SOL    HW111444   5.231   2.521   6.022 -1.6696  0.9218 -1.0011
36479SOL    HW211445   5.169   2.398   5.960 -2.3507  0.6759  0.1430
36480SOL     OW11446  10.226   9.739   0.105 -0.4840  0.2382  0.3514
36480SOL    HW111447  10.176   9.658   0.107 -0.5086  0.2640  1.3738
36480SOL    HW211448  10.314   9.713   0.131 -0.2727  0.4084 -0.1712
36481SOL     OW11449   0.961   7.461   6.432  0.0088 -0.3757 -0.6210
36481SOL    HW111450   1.048   7.444   6.396  0.1801  1.8392 -1.3921
36481SOL    HW211451   0.977   7.508   6.513 -0.4477 -0.2598 -0.5931
36482SOL     OW11452   0.095   5.749   9.205  0.1989  0.6213  0.4391
36482SOL    HW111453   0.128   5.724   9.119 -0.5905 -4.1362  1.2345
36482SOL    HW211454   0.029   5.817   9.187  1.9525  1.7464 -2.3014
36483SOL     OW11455   9.232   1.826   8.005 -0.2848  0.3575 -0.1717
36483SOL    HW111456   9.287   1.873   7.942  1.5384 -0.3633  0.8133
36483SOL    HW211457   9.203   1.748   7.957  3.6502 -1.8682  0.6161
36484SOL     OW11458   8.451   0.125   3.514 -0.9315  0.9354  0.4910
36484SOL    HW111459   8.401   0.108   3.434  1.4498  1.5367 -1.2362
36484SOL    HW211460   8.462   0.038   3.554 -1.9618  0.5936  0.0814
36485SOL     OW11461   5.903   2.418   8.238  0.1361 -0.3307 -0.9159
36485SOL    HW111462   5.955   2.378   8.169  0.6452 -3.5278  1.1050
36485SOL    HW211463   5.965   2.433   8.309 -1.1291 -1.5900  0.5265
36486SOL     OW11464  10.570   6.730   2.867 -0.3401 -0.3516  0.0289
36486SOL    HW111465  10.646   6.789   2.875 -1.5090  1.1971  0.1863
36486SOL    HW211466  10.528   6.756   2.786 -0.2462 -1.7997 -0.5047
36487SOL     OW11467   0.036   3.155   8.156  0.0332 -0.0682 -0.2606
36487SOL    HW111468   0.120   3.155   8.111  0.0306  0.7213 -0.2817
36487SOL    HW211469   0.057   3.177   8.247  0.1631 -2.6429  0.4320
36488SOL     OW11470   9.564  10.728   4.606  0.2269  0.2718 -0.2690
36488SOL    HW111471   9.616  10.782   4.666  0.2096  2.0517 -1.7734
36488SOL    HW211472   9.485  10.706   4.656  0.0327  2.0317  0.2592
36489SOL     OW11473   2.545   2.845   4.577  0.0831 -0.0718  0.2165
36489SOL    HW111474   2.488   2.868   4.503  0.2440  0.3673  0.2244
36489SOL    HW211475   2.486   2.809   4.643 -0.2870  0.9895  0.4810
36490SOL     OW11476   9.938   4.147   2.827 -0.5436  0.2905  0.2014
36490SOL    HW111477   9.876   4.187   2.767  3.4418  1.5961 -3.5420
36490SOL    HW211478   9.953   4.214   2.894 -2.1911  0.4243  0.4646
36491SOL     OW11479   8.043   0.780   9.793  0.4930  0.4743 -0.1662
36491SOL    HW111480   8.005   0.805   9.877 -0.9588  0.1616 -0.7098
36491SOL    HW211481   8.031   0.856   9.737  1.4337  0.6703 -0.1210
36492SOL     OW11482   1.215   6.914   1.777  0.1936 -1.0806 -0.0464
36492SOL    HW111483   1.271   6.910   1.699 -0.7836 -0.7712 -0.7860
36492SOL    HW211484   1.131   6.945   1.744  0.3255  1.0607  1.4568
36493SOL     OW11485   7.920  10.198   7.929 -0.3285  0.4128 -0.9409
36493SOL    HW111486   8.009  10.169   7.911 -0.3484  0.7524 -1.6127
36493SOL    HW211487   7.929  10.289   7.955 -0.2741 -0.1156  1.1093
36494SOL     OW11488   1.387   4.706  10.031 -0.4138 -0.2744  0.1431
36494SOL    HW111489   1.352   4.769  10.094 -1.6986  2.3026 -2.8932
36494SOL    HW211490   1.474   4.684  10.065 -1.2565  0.5182  3.0362
36495SOL     OW11491  11.027   1.226  10.772  0.1840  1.0499  0.4864
36495SOL    HW111492  10.941   1.264  10.755 -0.4618  0.7955  2.8723
36495SOL    HW211493  11.068   1.285  10.835  2.3284  1.8315 -1.4938
36496SOL     OW11494   7.238   4.884   7.547 -0.1443 -0.1505  0.5846
36496SOL    HW111495   7.308   4.922   7.600 -0.9421 -0.3515  1.8158
36496SOL    HW211496   7.175   4.850   7.610 -1.7280  0.6789 -0.4758
36497SOL     OW11497   4.528   9.681   2.841 -0.1688  0.9653  0.6006
36497SOL    HW111498   4.533   9.634   2.924  0.4982  1.4187  0.8314
36497SOL    HW211499   4.501   9.770   2.866 -1.5116  0.7102  0.1636
36498SOL     OW11500   8.597   9.952   3.087  0.7662 -0.0050 -0.7005
36498SOL    HW111501   8.537   9.975   3.157  1.2477  0.1129 -0.3174
36498SOL    HW211502   8.672  10.010   3.100  1.4018 -0.8400 -0.5494
36499SOL     OW11503   9.761   5.532   6.860 -0.2866  0.8567  0.5548
36499SOL    HW111504   9.729   5.584   6.787 -1.7814  2.7032  2.3999
36499SOL    HW211505   9.743   5.441   6.834 -3.0432  1.5721 -0.4276
36500SOL     OW11506   8.234   5.737   3.555 -0.2201  0.6150 -0.5234
36500SOL    HW111507   8.295   5.712   3.624 -0.2027 -3.6111 -1.7624
36500SOL    HW211508   8.283   5.724   3.474 -1.8375 -0.0335 -1.4522
36501SOL     OW11509   0.539  10.715   5.800  0.2947 -0.7502  0.5466
36501SOL    HW111510   0.507  10.789   5.749  1.2247 -1.5334 -1.2522
36501SOL    HW211511   0.629  10.738   5.822  1.2376 -2.0117 -1.5958
36502SOL     OW11512   2.612   2.187   1.076  0.9008 -0.3570  0.4541
36502SOL    HW111513   2.656   2.118   1.026  0.9811 -0.1287  0.2067
36502SOL    HW211514   2.683   2.244   1.106  1.0731 -1.5481  2.5104
36503SOL     OW11515   7.916  10.734   3.909  0.4612  0.1753  0.1640
36503SOL    HW111516   7.825  10.740   3.878  0.0672  1.4034  1.4459
36503SOL    HW211517   7.967  10.771   3.837 -0.2074  0.7958 -0.0153
36504SOL     OW11518   1.201   1.429   7.022  0.3378 -0.1256  0.0645
36504SOL    HW111519   1.145   1.466   7.090  0.6883  2.1357 -0.8148
36504SOL    HW211520   1.244   1.504   6.981 -0.6267 -1.2645 -3.3886
36505SOL     OW11521  10.198  10.944   5.098  0.5519  0.5088  0.3283
36505SOL    HW111522  10.213  11.035   5.072 -0.2826  0.6718  0.4041
36505SOL    HW211523  10.272  10.923   5.155  2.4519  0.1277 -2.1130
36506SOL     OW11524   4.566   5.114   4.358 -0.3583 -0.0999 -0.2456
36506SOL    HW111525   4.586   5.132   4.450  0.3541 -1.2242 -0.1682
36506SOL    HW211526   4.643   5.144   4.310 -1.2644  1.7661 -0.6668
36507SOL     OW11527   5.917   0.213  10.772  0.8228 -0.3246 -0.6975
36507SOL    HW111528   5.963   0.175  10.698 -1.7983 -2.5482 -1.3282
36507SOL    HW211529   5.885   0.298  10.739  1.5175 -0.3090 -1.3589
36508SOL     OW11530   0.500   0.693   2.567  0.3451 -0.9626 -0.0811
36508SOL    HW111531   0.541   0.779   2.581 -0.3583 -0.4252 -1.2200
36508SOL    HW211532   0.420   0.696   2.619  0.4883 -1.0638  0.1478
36509SOL     OW11533   3.898   3.637   1.822 -0.6991 -0.4096 -0.4773
36509SOL    HW111534   3.934   3.715   1.781  1.9181 -0.1501  1.9611
36509SOL    HW211535   3.968   3.572   1.816 -1.9740 -1.8559 -0.4470
36510SOL     OW11536  10.283   1.299   4.410  0.3528  0.5226 -0.6714
36510SOL    HW111537  10.292   1.257   4.496 -2.3525 -1.0124 -1.0189
36510SOL    HW211538  10.206   1.355   4.419 -0.6031 -0.4400 -2.3194
36511SOL     OW11539   1.841   0.295   8.984  0.6635  0.6549 -0.2176
36511SOL    HW111540   1.918   0.239   8.983  0.2933  0.1406 -0.0148
36511SOL    HW211541   1.767   0.235   8.991  0.2728  1.1695  0.1714
36512SOL     OW11542   7.856   4.405   2.901 -0.0085 -0.1282  0.5399
36512SOL    HW111543   7.770   4.446   2.904 -0.1458 -0.4413  2.1380
36512SOL    HW211544   7.916   4.473   2.934  0.5313  0.4010 -1.4095
36513SOL     OW11545  10.576   7.366  10.980 -0.2122  0.3437  0.1304
36513SOL    HW111546  10.619   7.380  10.895  1.7027  0.3707  1.0611
36513SOL    HW211547  10.562   7.271  10.983 -1.3042  0.4538 -0.6462
36514SOL     OW11548   4.352   0.906   6.933  0.4612  0.5329  0.0499
36514SOL    HW111549   4.267   0.864   6.947  0.4683  0.2286 -0.7200
36514SOL    HW211550   4.379   0.877   6.845  0.6270  1.8719 -0.3770
36515SOL     OW11551   4.133   4.901   8.369  0.6344  0.2744 -0.9493
36515SOL    HW111552   4.040   4.891   8.348  0.2326  0.6532  0.5377
36515SOL    HW211553   4.178   4.840   8.311 -0.7207 -1.4821 -0.2235
36516SOL     OW11554   5.578   2.828   2.812 -0.1618  0.0634  0.4877
36516SOL    HW111555   5.494   2.859   2.846 -0.7109 -1.2021  0.3518
36516SOL    HW211556   5.642   2.856   2.878 -0.7819  0.3956  0.9661
36517SOL     OW11557   3.744   4.137   7.809  0.2653 -0.1376  0.7574
36517SOL    HW111558   3.778   4.049   7.794 -1.2913 -0.6490 -0.0326
36517SOL    HW211559   3.821   4.192   7.815  1.2561 -0.9903 -2.3829
36518SOL     OW11560   7.973   4.667   3.125  0.1613 -0.0596  0.1686
36518SOL    HW111561   7.974   4.661   3.221  2.4993 -1.5220  0.1425
36518SOL    HW211562   8.055   4.711   3.104  1.2971 -2.6252 -1.2024
36519SOL     OW11563  11.091   5.691   4.454 -0.1611  0.4747 -0.3371
36519SOL    HW111564  11.060   5.766   4.504 -2.8568 -0.6845 -0.1220
36519SOL    HW211565  11.144   5.729   4.384 -0.6263  2.4911  0.3486
36520SOL     OW11566  10.499   3.398   1.992  0.4224  0.1101 -0.3115
36520SOL    HW111567  10.514   3.305   1.976  0.2014 -0.0819  0.5369
36520SOL    HW211568  10.411   3.414   1.959 -0.2832 -0.4284  1.2015
36521SOL     OW11569   2.062   0.855   8.954  0.5710  0.2437 -0.7799
36521SOL    HW111570   2.102   0.769   8.970  0.4924  0.3772  0.2358
36521SOL    HW211571   1.969   0.836   8.947  0.5223  0.2682 -0.2689
36522SOL     OW11572  10.167   7.160   6.455  0.5260  0.2764  0.1402
36522SOL    HW111573  10.223   7.156   6.532  0.6180 -1.4159  0.0379
36522SOL    HW211574  10.155   7.253   6.438  3.6409  0.7293 -0.0885
36523SOL     OW11575   0.138  10.135   7.033  0.4366 -0.1373 -0.9097
36523SOL    HW111576   0.157  10.170   6.946  0.7603 -2.4258 -1.8242
36523SOL    HW211577   0.224  10.115   7.070  0.4037  2.1262  0.5977
36524SOL     OW11578   1.919  10.609   3.083  0.3417 -0.3576  0.0253
36524SOL    HW111579   1.942  10.589   2.992 -1.3039  0.8653 -0.7094
36524SOL    HW211580   1.865  10.688   3.077  0.4248 -0.0974  2.0998
36525SOL     OW11581   9.650   0.833   1.405  0.1620 -0.2485  0.3294
36525SOL    HW111582   9.719   0.805   1.345 -0.8822  2.2121 -2.2360
36525SOL    HW211583   9.693   0.894   1.464  0.3166  1.0147 -1.0410
36526SOL     OW11584   5.929   0.455   4.684 -0.0437 -0.1572 -0.5475
36526SOL    HW111585   6.013   0.413   4.665 -0.7583 -2.0916  0.3011
36526SOL    HW211586   5.951   0.530   4.739  1.2424  0.3556 -1.7043
36527SOL     OW11587   4.992   8.802  11.014  0.0213  0.0222  0.1050
36527SOL    HW111588   5.028   8.760  10.937 -0.0742 -2.1396  1.1496
36527SOL    HW211589   5.066   8.848  11.054  1.1340 -2.2853  0.8851
36528SOL     OW11590   0.387   6.914   2.219  0.2042 -0.8905  0.3047
36528SOL    HW111591   0.322   6.948   2.280  0.3560  0.0036 -0.0172
36528SOL    HW211592   0.339   6.850   2.166 -0.7591  0.6471 -0.7559
36529SOL     OW11593   7.940   2.063   6.118  0.3397  0.2411  0.3395
36529SOL    HW111594   7.916   2.138   6.064  2.6340  0.3526 -0.6454
36529SOL    HW211595   7.937   2.096   6.208  1.7802  1.7082 -0.1036
36530SOL     OW11596   8.518   9.240   9.260 -1.0609  0.1393 -0.2757
36530SOL    HW111597   8.570   9.271   9.186 -2.1217  0.4190 -0.9166
36530SOL    HW211598   8.505   9.147   9.242 -0.2936 -0.0696  0.1937
36531SOL     OW11599   7.519   5.932   7.101 -0.0051 -0.3498  0.5019
36531SOL    HW111600   7.445   5.964   7.049 -1.1367 -0.3835  2.0192
36531SOL    HW211601   7.529   5.840   7.074  1.8730  0.5535 -2.3067
36532SOL     OW11602   3.166   6.087   4.308  0.1017  0.4894  0.0202
36532SOL    HW111603   3.091   6.063   4.253  0.0580  2.2361 -0.7380
36532SOL    HW211604   3.222   6.009   4.307 -0.0323  0.3489 -2.2986
36533SOL     OW11605   9.856   0.538   9.534 -0.4963 -0.2624 -0.2548
36533SOL    HW111606   9.930   0.548   9.475  0.5687  0.7513  1.2051
36533SOL    HW211607   9.870   0.603   9.603 -2.3697 -0.5282  0.4522
36534SOL     OW11608   5.732   8.588   2.561 -0.6331 -0.0269  0.1178
36534SOL    HW111609   5.824   8.562   2.557 -1.0467 -1.9641  1.7015
36534SOL    HW211610   5.705   8.565   2.650 -3.0397 -0.9922 -0.7917
36535SOL     OW11611   2.214   2.087   5.716 -0.6125 -0.3861  0.6833
36535SOL    HW111612   2.285   2.127   5.764 -1.3266  0.4479  1.0753
36535SOL    HW211613   2.135   2.127   5.751 -1.3321 -1.7345  0.6920
36536SOL     OW11614   0.726   0.187   1.023 -0.7205  0.4194 -0.2646
36536SOL    HW111615   0.663   0.226   0.963 -0.9839  0.5616  0.0987
36536SOL    HW211616   0.673   0.152   1.095 -0.3518  1.1080  0.3605
36537SOL     OW11617  10.349   8.465   2.504  0.5055 -0.2220 -0.0121
36537SOL    HW111618  10.318   8.390   2.454  0.9580 -0.1611 -0.3864
36537SOL    HW211619  10.275   8.490   2.558  0.0465 -0.3498 -0.5779
36538SOL     OW11620   9.050   7.249   3.345  0.5088 -0.2412 -0.1180
36538SOL    HW111621   8.971   7.245   3.399 -0.4225 -0.9764 -1.4725
36538SOL    HW211622   9.072   7.157   3.329  0.2365 -0.0491 -1.7019
36539SOL     OW11623   3.385   0.309   3.203 -0.1850 -0.3477 -0.0986
36539SOL    HW111624   3.468   0.329   3.248 -0.3820 -0.6810  0.4280
36539SOL    HW211625   3.318   0.335   3.266 -0.4946  0.2498 -0.6651
36540SOL     OW11626   7.795   6.819   2.605  0.6636  0.1104  0.2535
36540SOL    HW111627   7.720   6.879   2.605  0.3898 -0.2235  0.8452
36540SOL    HW211628   7.840   6.838   2.687  0.2654 -0.8614  0.7165
36541SOL     OW11629   6.788   5.951   5.636 -0.9004 -0.5759 -0.6820
36541SOL    HW111630   6.700   5.928   5.666 -2.7425  2.4730 -3.1391
36541SOL    HW211631   6.836   5.972   5.717 -2.5797 -1.6823  0.6720
36542SOL     OW11632   7.995   8.958   5.088 -0.1766 -0.2107 -0.1503
36542SOL    HW111633   8.089   8.963   5.103  0.0872  0.6263 -1.8655
36542SOL    HW211634   7.986   8.925   4.999 -1.4661  0.8732 -0.4556
36543SOL     OW11635   4.102   5.045   0.339 -0.4578 -0.2386 -0.1468
36543SOL    HW111636   4.054   4.963   0.325 -0.4634 -0.2460 -0.0852
36543SOL    HW211637   4.116   5.049   0.434  1.0598 -1.0290 -0.3133
36544SOL     OW11638   4.665   8.315   1.025 -0.0430 -0.1106 -0.9301
36544SOL    HW111639   4.716   8.376   1.078 -0.5163 -0.3359 -0.2073
36544SOL    HW211640   4.645   8.242   1.084 -0.8716 -0.2041 -1.3139
36545SOL     OW11641   3.096   0.556   8.150 -0.0720  0.0586  0.1839
36545SOL    HW111642   3.021   0.594   8.196  1.1716  0.9397  1.5996
36545SOL    HW211643   3.071   0.557   8.058 -1.2727  1.5618  0.4866
36546SOL     OW11644   2.248   3.479  10.193 -0.2137 -0.3828  0.1540
36546SOL    HW111645   2.336   3.503  10.166 -1.0374  1.1260 -1.3146
36546SOL    HW211646   2.261   3.410  10.258  2.1267  1.4855  1.8231
36547SOL     OW11647   6.337   1.586   3.863 -0.1860 -0.2611 -0.2132
36547SOL    HW111648   6.370   1.674   3.847 -0.3606  0.1539  1.5351
36547SOL    HW211649   6.291   1.592   3.947 -1.4725 -1.6840 -0.7758
36548SOL     OW11650   7.048   9.660   8.581  0.0244 -0.3445  0.1706
36548SOL    HW111651   7.094   9.666   8.665  1.2726 -0.1390 -0.5065
36548SOL    HW211652   6.980   9.593   8.596 -0.1781  0.1316  1.5103
36549SOL     OW11653  11.036   8.931   2.680 -0.1179 -0.7833  0.3090
36549SOL    HW111654  11.005   8.844   2.704 -2.0686 -0.2450 -0.1184
36549SOL    HW211655  10.970   8.964   2.619  1.4055  0.3865 -0.7867
36550SOL     OW11656   7.373   1.383   0.163  0.4035  0.3234  0.3889
36550SOL    HW111657   7.398   1.428   0.244  0.4640  0.9198  0.0485
36550SOL    HW211658   7.449   1.331   0.139 -0.4189 -1.7397  1.9634
36551SOL     OW11659   2.171   3.555   7.859  0.0793 -0.0274  0.1826
36551SOL    HW111660   2.198   3.638   7.898 -0.4055 -0.4582  1.5061
36551SOL    HW211661   2.119   3.579   7.783  0.5869  0.8611  0.1037
36552SOL     OW11662   3.181   2.461   6.590  0.1158 -0.3137  0.0165
36552SOL    HW111663   3.112   2.500   6.643  0.9116 -0.7952  1.4819
36552SOL    HW211664   3.259   2.513   6.610  0.3477 -0.2119 -1.0707
36553SOL     OW11665   8.708   4.315   6.132  0.5404  0.5192  0.3813
36553SOL    HW111666   8.792   4.353   6.105  1.4654 -2.2082 -1.0044
36553SOL    HW211667   8.731   4.237   6.182 -1.0874 -1.0466 -1.1468
36554SOL     OW11668   7.647   9.777   8.053  0.2109  0.0648 -0.2565
36554SOL    HW111669   7.692   9.694   8.066  1.3354  0.7848  0.6892
36554SOL    HW211670   7.569   9.772   8.108  0.3635 -0.3088 -0.0764
36555SOL     OW11671   6.761   1.286   1.745  0.3134  0.2335 -0.3034
36555SOL    HW111672   6.795   1.197   1.735 -0.8708 -0.1606 -1.0463
36555SOL    HW211673   6.668   1.279   1.722 -0.1094  1.4170  0.9359
36556SOL     OW11674   6.745   5.191   7.999  0.4657 -0.0187  0.0182
36556SOL    HW111675   6.814   5.125   7.992  0.1285 -0.2791 -1.0799
36556SOL    HW211676   6.764   5.237   8.081  1.4606 -0.6223  0.1469
36557SOL     OW11677   2.363   1.157   1.930  0.6670 -0.3067  0.4723
36557SOL    HW111678   2.302   1.104   1.880 -1.4445  1.7582  0.7046
36557SOL    HW211679   2.439   1.167   1.873  0.3219 -1.9607 -0.3203
36558SOL     OW11680   8.413   9.573   6.104  0.2475  0.6849  0.4578
36558SOL    HW111681   8.321   9.592   6.085  0.1763 -0.4655 -0.4670
36558SOL    HW211682   8.461   9.624   6.039  0.2250  0.6331  0.3999
36559SOL     OW11683   5.982   7.932   1.881 -0.3605 -0.0309  0.2032
36559SOL    HW111684   5.891   7.911   1.899 -0.5527  1.0873  0.6036
36559SOL    HW211685   6.020   7.952   1.967 -0.2448  1.3480 -0.1317
36560SOL     OW11686   5.042   8.104   3.579  0.1424 -0.0485  0.6755
36560SOL    HW111687   4.983   8.138   3.511  2.3675 -0.0945 -1.3943
36560SOL    HW211688   5.026   8.010   3.579 -1.2761  0.1660  1.6727
36561SOL     OW11689   7.620   3.501   5.704 -0.0048 -0.5038 -0.1915
36561SOL    HW111690   7.556   3.528   5.771 -1.4448  0.4779 -1.8611
36561SOL    HW211691   7.604   3.408   5.691 -1.3652 -0.2107 -0.7954
36562SOL     OW11692   8.382   1.009   8.035 -0.9892 -0.1601 -0.3230
36562SOL    HW111693   8.436   1.063   7.977  0.0549 -1.1888 -0.3500
36562SOL    HW211694   8.351   0.938   7.979 -1.3334 -0.2617 -0.0035
36563SOL     OW11695   1.918   1.986   4.553  0.0040 -0.3781  0.4622
36563SOL    HW111696   1.879   2.073   4.566 -3.1769 -1.7200  0.9022
36563SOL    HW211697   1.982   1.978   4.624  0.7777  1.7610  0.0846
36564SOL     OW11698   3.607   9.766   5.073 -0.2040  0.1326  0.6953
36564SOL    HW111699   3.566   9.770   5.160  2.4061  0.8755  2.0116
36564SOL    HW211700   3.566   9.837   5.024 -2.5837 -1.0459  0.8442
36565SOL     OW11701   5.101   6.023   4.314 -0.1034  0.2201  0.2857
36565SOL    HW111702   5.037   6.054   4.378 -1.8580 -1.4249 -0.5593
36565SOL    HW211703   5.054   6.023   4.231  1.3873  0.0699 -0.5876
36566SOL     OW11704   9.586   7.571   0.564  0.2430  0.4342  0.3405
36566SOL    HW111705   9.676   7.540   0.570  0.5841  1.2643 -0.2773
36566SOL    HW211706   9.591   7.647   0.506 -0.6238  1.4082  1.5099
36567SOL     OW11707   5.111   9.007   6.809  0.0001 -0.4866 -0.0151
36567SOL    HW111708   5.125   9.100   6.821 -1.0287 -0.3360  0.1023
36567SOL    HW211709   5.159   8.965   6.881  1.0510 -0.1113 -0.4722
36568SOL     OW11710   0.360  10.034   4.534 -0.1040 -0.9659  0.0127
36568SOL    HW111711   0.384   9.970   4.601 -0.0856 -0.3154  0.6340
36568SOL    HW211712   0.373  10.119   4.575  0.2310 -0.5404 -0.9269
36569SOL     OW11713   5.727   5.460   4.789  0.2818 -0.6828  0.5546
36569SOL    HW111714   5.773   5.534   4.829 -0.2030 -0.1932  0.2248
36569SOL    HW211715   5.719   5.395   4.859  1.7223 -0.9092  0.5451
36570SOL     OW11716   1.467   0.380   8.868  0.3162  0.2683  0.7849
36570SOL    HW111717   1.501   0.322   8.936  1.7070 -1.0630 -0.9369
36570SOL    HW211718   1.396   0.330   8.828  0.1186  0.6453  0.6619
36571SOL     OW11719   0.717   8.367   5.433  0.2694 -0.3580 -0.0908
36571SOL    HW111720   0.706   8.288   5.380 -0.8701 -0.8224  0.7811
36571SOL    HW211721   0.715   8.335   5.523 -0.5267  0.6870  0.2822
36572SOL     OW11722   3.930   9.070   1.592 -0.1132 -0.3354 -0.2517
36572SOL    HW111723   3.921   8.983   1.631 -2.6628  0.1097  0.3519
36572SOL    HW211724   3.893   9.061   1.505  3.6045 -0.7939 -1.9962
36573SOL     OW11725   1.267   9.016   0.316  0.5898 -0.1910 -0.2227
36573SOL    HW111726   1.267   8.924   0.342 -1.5091 -0.6202 -1.4988
36573SOL    HW211727   1.216   9.018   0.235  0.1425  2.1603  0.0355
36574SOL     OW11728   9.142   3.162   8.335  0.2576 -0.2868  0.0098
36574SOL    HW111729   9.128   3.149   8.428  0.7589 -2.4438 -0.1668
36574SOL    HW211730   9.231   3.197   8.329  0.7030 -1.3406  0.2926
36575SOL     OW11731   8.479   8.645   4.790  0.3747 -0.4050  0.2662
36575SOL    HW111732   8.428   8.603   4.720  1.8586 -0.4583 -0.8294
36575SOL    HW211733   8.462   8.591   4.867 -1.4240 -0.2545  0.0236
36576SOL     OW11734   3.565   4.846  10.339  0.0873 -0.2228 -0.5109
36576SOL    HW111735   3.520   4.841  10.423 -0.8973  0.0441 -1.0074
36576SOL    HW211736   3.559   4.757  10.303 -0.5753 -0.0562 -0.8325
36577SOL     OW11737  11.078   6.378   9.934  0.6812  0.3393  0.5614
36577SOL    HW111738  11.106   6.299   9.890  2.4434  1.3260 -0.1904
36577SOL    HW211739  11.150   6.401   9.992  0.2611  1.4660  0.6745
36578SOL     OW11740   9.283   9.407   4.447  0.4411  0.1164  0.1908
36578SOL    HW111741   9.288   9.491   4.493  0.3747  0.6615 -0.7767
36578SOL    HW211742   9.307   9.427   4.357 -0.0104 -0.8302 -0.1538
36579SOL     OW11743   0.070   9.827   4.137  0.2084  0.7699 -0.3990
36579SOL    HW111744   0.138   9.869   4.084 -1.6087  0.5661 -3.0392
36579SOL    HW211745   0.119   9.768   4.195  2.3090 -0.2807 -3.0189
36580SOL     OW11746   0.848   4.897   0.379  0.0657 -0.5769 -0.0532
36580SOL    HW111747   0.937   4.933   0.372  0.2783 -1.0877 -0.0140
36580SOL    HW211748   0.859   4.816   0.430 -0.9016  1.0388  2.9600
36581SOL     OW11749   0.132  10.435   4.290  0.7950 -0.2099  0.5791
36581SOL    HW111750   0.144  10.434   4.194 -3.2587  1.4053 -0.1230
36581SOL    HW211751   0.155  10.346   4.317 -1.3678 -1.9291 -2.5074
36582SOL     OW11752   3.710  10.115   8.520  0.4049 -0.9454  0.0916
36582SOL    HW111753   3.634  10.172   8.506  0.4034 -0.6179  1.3146
36582SOL    HW211754   3.708  10.054   8.447 -1.4642 -1.3885  0.4569
36583SOL     OW11755   4.995   4.921   8.138  0.7339  0.6572  0.3714
36583SOL    HW111756   4.959   4.850   8.086  1.0898 -0.7410  1.9423
36583SOL    HW211757   4.962   4.906   8.227  3.4775  0.4503  1.4784
36584SOL     OW11758   6.974   8.758   4.825 -0.3130  0.0139 -0.8262
36584SOL    HW111759   6.940   8.671   4.805  2.4163 -1.7600  1.4015
36584SOL    HW211760   7.030   8.779   4.751 -1.6776  0.3514 -1.8016
36585SOL     OW11761   2.495   4.198   6.423  0.2266  0.7832  0.6221
36585SOL    HW111762   2.587   4.186   6.401  0.1214  0.8513  0.1343
36585SOL    HW211763   2.490   4.286   6.460  0.5679  0.3063  1.8274
36586SOL     OW11764   5.092   1.516   6.978  0.1573  0.7604 -1.0130
36586SOL    HW111765   5.080   1.577   6.905  0.0435  0.3018 -1.3840
36586SOL    HW211766   5.005   1.480   6.992  0.3853  0.0700 -1.3439
36587SOL     OW11767   2.947   7.886   1.787  0.1877 -0.5707 -0.0634
36587SOL    HW111768   2.977   7.948   1.853  2.0141 -0.5869 -0.8229
36587SOL    HW211769   2.986   7.918   1.705 -0.5415 -1.5662 -0.8197
36588SOL     OW11770   6.278   9.110   1.676 -0.4400  0.1505 -0.0173
36588SOL    HW111771   6.236   9.165   1.610  0.1310 -1.0256 -1.4153
36588SOL    HW211772   6.317   9.172   1.737 -1.8404  1.2688 -0.2046
36589SOL     OW11773   3.497   0.738   3.516 -0.2494  0.3107  0.2725
36589SOL    HW111774   3.580   0.781   3.539 -0.5502  0.4609  1.1013
36589SOL    HW211775   3.465   0.702   3.598 -0.7368 -0.2369 -0.1471
36590SOL     OW11776   8.564   3.877   4.867  0.7862 -0.0046 -0.5180
36590SOL    HW111777   8.524   3.914   4.946 -1.8607 -0.1714 -1.6583
36590SOL    HW211778   8.654   3.909   4.869  0.8008  0.1069  2.4551
36591SOL     OW11779   4.189   3.791   5.468  0.1333 -0.3566 -0.1389
36591SOL    HW111780   4.171   3.827   5.381  0.1907 -1.2753 -0.5331
36591SOL    HW211781   4.252   3.721   5.454 -1.4044 -1.9319  0.3529
36592SOL     OW11782   6.539   6.895   3.033 -0.4608 -0.0956 -0.9524
36592SOL    HW111783   6.621   6.852   3.059 -0.8659 -0.4454 -0.2075
36592SOL    HW211784   6.519   6.858   2.947 -1.1145 -1.9131 -0.0754
36593SOL     OW11785   5.506   3.494   8.051  0.2122 -0.0041 -0.2328
36593SOL    HW111786   5.566   3.552   8.005  1.2667  0.2431  1.3800
36593SOL    HW211787   5.448   3.553   8.099  1.7294 -0.1921  1.9732
36594SOL     OW11788   1.627   6.569   1.149  0.9846 -0.1315 -0.0189
36594SOL    HW111789   1.554   6.595   1.205  0.9713 -1.9256  0.8487
36594SOL    HW211790   1.590   6.563   1.061 -0.0231 -1.3603  0.4678
36595SOL     OW11791   5.416   3.383   3.020 -0.0991 -0.4264 -0.9940
36595SOL    HW111792   5.433   3.475   3.041 -3.8458  0.1311  0.2983
36595SOL    HW211793   5.442   3.335   3.098  0.3146 -0.2828 -1.0393
36596SOL     OW11794   9.534   9.927   8.573 -0.2420  0.1423  0.0008
36596SOL    HW111795   9.563   9.895   8.488 -0.4344 -1.7508  0.6104
36596SOL    HW211796   9.465   9.991   8.552  0.6584  0.7479 -1.2776
36597SOL     OW11797  10.071   2.091   9.104  0.1898 -0.2044 -0.3600
36597SOL    HW111798  10.012   2.023   9.071 -0.5469 -0.0112  0.5032
36597SOL    HW211799  10.157   2.049   9.109 -0.4769 -1.4792  1.3091
36598SOL     OW11800   1.147   7.098   1.424  0.1182  0.1410 -0.4287
36598SOL    HW111801   1.167   7.004   1.431 -0.1365  0.1477  0.6413
36598SOL    HW211802   1.051   7.101   1.415  0.1482  0.2941 -0.7082
36599SOL     OW11803   4.472   9.963   0.765  0.4053  0.0720 -0.6810
36599SOL    HW111804   4.398  10.018   0.791 -1.0868 -2.7977  1.7352
36599SOL    HW211805   4.548  10.005   0.807 -0.1000  1.9746 -1.5646
36600SOL     OW11806   2.952   5.393   4.319 -0.2058  0.6655  0.0018
36600SOL    HW111807   2.871   5.343   4.313 -0.3849  0.8282  0.9095
36600SOL    HW211808   2.933   5.475   4.273 -0.9150  1.1416  1.1213
36601SOL     OW11809   8.690   7.350   0.334  0.2379 -0.1157 -0.2023
36601SOL    HW111810   8.633   7.277   0.313 -2.5016  1.1147  2.2541
36601SOL    HW211811   8.693   7.402   0.253 -3.2871  0.4014 -0.1595
36602SOL     OW11812  10.896   3.300   7.024 -0.3295 -0.1367  0.1351
36602SOL    HW111813  10.936   3.344   6.949  0.0656 -0.2235  0.2912
36602SOL    HW211814  10.928   3.210   7.018  1.7500  0.4193  1.7989
36603SOL     OW11815   6.754   5.822   9.962  0.0469 -0.2383 -0.3723
36603SOL    HW111816   6.762   5.731   9.934  1.3927 -0.3535  0.2838
36603SOL    HW211817   6.775   5.873   9.883  0.4091 -0.5129 -0.4583
36604SOL     OW11818   8.064   2.490   5.198 -0.0958 -0.0916 -0.0486
36604SOL    HW111819   8.099   2.558   5.256  0.4579 -0.6720  0.3126
36604SOL    HW211820   8.140   2.451   5.156 -0.5149  0.5151 -1.4106
36605SOL     OW11821   6.519   5.382   0.457 -0.1039 -0.2030 -0.2003
36605SOL    HW111822   6.450   5.441   0.425  1.0337  0.7652 -0.9669
36605SOL    HW211823   6.564   5.354   0.378 -0.2113 -1.6247  0.2163
36606SOL     OW11824   3.561   2.702   2.087 -0.1216  0.1720  0.1220
36606SOL    HW111825   3.526   2.758   2.156  0.7857  0.1692  0.5957
36606SOL    HW211826   3.653   2.729   2.079 -0.3551  0.5970 -1.5088
36607SOL     OW11827   5.772   5.805   9.938 -0.2383  0.2366 -0.0196
36607SOL    HW111828   5.755   5.715   9.965  0.7700 -1.0109 -3.0073
36607SOL    HW211829   5.690   5.835   9.899 -0.0562 -0.1124 -0.6899
36608SOL     OW11830   1.315   3.657   0.223 -0.2098 -0.1343 -0.1154
36608SOL    HW111831   1.222   3.639   0.208 -0.0724  0.0624 -1.3718
36608SOL    HW211832   1.360   3.608   0.154  0.4579  1.4753 -0.8730
36609SOL     OW11833   8.669   2.021   8.199  0.3518 -0.6538 -0.5872
36609SOL    HW111834   8.746   2.005   8.254  0.9415  1.9174 -0.5061
36609SOL    HW211835   8.652   2.115   8.209 -1.5200 -0.7469 -2.2615
36610SOL     OW11836   2.374  11.038   5.009  0.0978  0.2946  0.3438
36610SOL    HW111837   2.330  11.059   4.926  1.4696 -0.8090 -0.7109
36610SOL    HW211838   2.404  11.123   5.041 -2.8059  1.1083  1.1762
36611SOL     OW11839   5.376   9.556   7.847 -0.5097 -0.3060  0.4855
36611SOL    HW111840   5.354   9.475   7.801  1.0340 -1.6876  2.0094
36611SOL    HW211841   5.428   9.606   7.784 -0.8280 -0.8468 -0.2235
36612SOL     OW11842   7.837   1.327  10.178  0.1229  0.1645 -0.1206
36612SOL    HW111843   7.784   1.317  10.257  1.0185 -3.7487  0.1837
36612SOL    HW211844   7.906   1.388  10.203  0.1771 -0.7099  2.0626
36613SOL     OW11845   3.072   3.082   8.726  0.0960  0.9780 -0.1987
36613SOL    HW111846   3.111   3.133   8.798  1.7646  0.5328 -0.7406
36613SOL    HW211847   3.075   3.140   8.651 -0.5696  1.0381 -0.1810
36614SOL     OW11848   5.945   0.942   7.186 -0.1897 -0.6354 -0.1982
36614SOL    HW111849   5.983   0.867   7.139  0.5947 -0.0045 -0.5909
36614SOL    HW211850   5.928   1.007   7.117 -1.2072 -0.5777  0.0883
36615SOL     OW11851   6.146   1.159   7.110 -0.0483 -0.0919  0.0028
36615SOL    HW111852   6.175   1.210   7.035 -0.3129 -0.0314 -0.0582
36615SOL    HW211853   6.109   1.079   7.073 -1.6233  0.6077 -0.0430
36616SOL     OW11854   2.852  10.345   8.729 -0.5643  0.0036 -0.4576
36616SOL    HW111855   2.803  10.289   8.669 -0.9805 -3.3942  2.6452
36616SOL    HW211856   2.791  10.364   8.800  0.2460  2.8344 -0.3743
36617SOL     OW11857   6.243  10.248   3.654 -0.3575 -0.4819  0.0309
36617SOL    HW111858   6.311  10.204   3.704  2.5605  0.5678 -2.6721
36617SOL    HW211859   6.243  10.338   3.686  2.3345  0.5074 -2.2652
36618SOL     OW11860   0.137   2.709   4.508 -0.1641  0.2532 -0.0383
36618SOL    HW111861   0.126   2.700   4.413 -1.1587  1.5197 -0.0765
36618SOL    HW211862   0.220   2.666   4.527 -0.5153 -1.0694 -1.3029
36619SOL     OW11863   2.736  10.695   5.559  0.0434 -0.1325 -0.6679
36619SOL    HW111864   2.823  10.669   5.591  0.4176  1.7707 -0.0349
36619SOL    HW211865   2.753  10.771   5.503 -1.3503  1.3730  0.8553
36620SOL     OW11866   7.189   3.128   4.601  0.1944 -0.5866  0.0095
36620SOL    HW111867   7.245   3.100   4.673  2.4045  3.0778 -0.0256
36620SOL    HW211868   7.244   3.118   4.522  0.1973  1.2456 -0.2730
36621SOL     OW11869   3.430   7.056   2.674 -0.3552  0.6583 -0.8350
36621SOL    HW111870   3.356   6.994   2.675 -0.0192  0.1776 -2.3371
36621SOL    HW211871   3.400   7.129   2.727 -0.7225 -0.8281  1.1104
36622SOL     OW11872   1.763   1.669   8.425  0.2908 -0.6211  0.2276
36622SOL    HW111873   1.717   1.595   8.464 -0.0903 -0.0013  0.9841
36622SOL    HW211874   1.851   1.636   8.407 -0.4699 -1.8891 -1.4258
36623SOL     OW11875   8.196   3.586   9.232 -0.1237 -0.2018 -0.8712
36623SOL    HW111876   8.121   3.533   9.258 -0.1553  0.2374 -0.0608
36623SOL    HW211877   8.260   3.522   9.199  0.1166 -0.8284  0.7464
36624SOL     OW11878  10.233   6.866   3.404 -0.4772  0.3487 -0.7103
36624SOL    HW111879  10.266   6.825   3.483  1.2604  1.7825 -0.6279
36624SOL    HW211880  10.274   6.818   3.332 -1.1388 -0.2034 -0.7318
36625SOL     OW11881   8.300   1.228   6.274 -0.2108  0.5833 -0.2168
36625SOL    HW111882   8.271   1.139   6.252 -1.4044  0.2146  2.4766
36625SOL    HW211883   8.369   1.215   6.339  0.4511  1.6342 -0.6898
36626SOL     OW11884   0.415  10.334   9.194 -0.1377  0.4230 -0.1683
36626SOL    HW111885   0.410  10.238   9.188 -1.1700  0.4471  0.1086
36626SOL    HW211886   0.346  10.358   9.255 -0.7066  1.4414 -1.1678
36627SOL     OW11887   8.675   5.038   1.987 -0.1070 -0.5130 -0.0349
36627SOL    HW111888   8.613   5.081   1.928 -1.5084 -1.4494  0.6892
36627SOL    HW211889   8.681   4.948   1.954 -2.2357 -1.5443  2.1467
36628SOL     OW11890   4.942   6.069   7.205 -0.2776  0.3662 -0.1319
36628SOL    HW111891   4.889   6.054   7.283  1.3463 -2.5464  0.5634
36628SOL    HW211892   4.995   6.146   7.226 -0.6108  0.2464  1.2175
36629SOL     OW11893  10.379   1.303   4.071 -0.1496 -0.4601 -0.5951
36629SOL    HW111894  10.329   1.277   3.993 -2.0190  2.3696 -0.5126
36629SOL    HW211895  10.439   1.370   4.039 -3.4054  3.4738  0.6604
36630SOL     OW11896   3.141   4.515   4.951 -0.5657 -0.4909  0.0570
36630SOL    HW111897   3.102   4.457   5.016  0.3804 -0.5032  0.6375
36630SOL    HW211898   3.136   4.602   4.990  0.0094 -0.4991  0.1589
36631SOL     OW11899   8.063   5.462   2.417  0.0051 -0.1260 -0.1287
36631SOL    HW111900   7.992   5.520   2.444 -0.3830 -0.5658 -0.1895
36631SOL    HW211901   8.047   5.445   2.325 -0.2513 -0.8375  0.0412
36632SOL     OW11902  10.580   8.597   8.054 -0.3972  0.3752  0.6400
36632SOL    HW111903  10.526   8.559   8.123 -0.3324 -0.2039  0.3770
36632SOL    HW211904  10.670   8.587   8.085 -0.3603 -0.0112  0.4107
36633SOL     OW11905   0.360   3.501   4.007 -0.2978 -0.4629  0.6121
36633SOL    HW111906   0.283   3.552   4.032 -0.9917 -0.6585 -1.0215
36633SOL    HW211907   0.365   3.509   3.912  2.0602  0.0149  0.7185
36634SOL     OW11908   1.600   0.185   8.217 -0.0790 -0.6740 -0.3209
36634SOL    HW111909   1.603   0.095   8.183 -0.0842 -0.5345 -0.6986
36634SOL    HW211910   1.692   0.210   8.227  0.0219  0.1159 -2.5095
36635SOL     OW11911   8.572   3.728  10.472  0.7506 -0.2731 -0.7297
36635SOL    HW111912   8.580   3.648  10.421 -2.9908 -0.2944 -1.5241
36635SOL    HW211913   8.563   3.797  10.406 -0.4524  0.1857 -0.1127
36636SOL     OW11914   4.420  10.272   4.000  0.6974  0.4570  0.5883
36636SOL    HW111915   4.395  10.302   4.087 -1.7695  0.4375 -0.0249
36636SOL    HW211916   4.386  10.340   3.941 -0.8634 -1.1950 -0.5354
36637SOL     OW11917   1.613   4.446   2.026 -1.0782 -0.4002 -0.8317
36637SOL    HW111918   1.532   4.416   2.069  0.2561 -2.4564  0.4200
36637SOL    HW211919   1.681   4.434   2.093  0.4443  0.3145 -2.1912
36638SOL     OW11920   6.030   8.264   4.028  0.1841 -0.6667 -0.3172
36638SOL    HW111921   5.982   8.193   3.985  0.0295 -1.7580  1.5553
36638SOL    HW211922   6.103   8.221   4.073 -0.4772  0.1900  1.6818
36639SOL     OW11923   6.714   3.036   6.414 -0.7722 -0.6026  0.1304
36639SOL    HW111924   6.803   3.071   6.408 -1.3951  1.1149  0.3365
36639SOL    HW211925   6.719   2.950   6.372  1.0218 -0.6273  0.3264
36640SOL     OW11926   3.313   5.141   6.204 -0.3038 -0.4691  0.0094
36640SOL    HW111927   3.356   5.158   6.288 -2.8302 -2.3365  1.8821
36640SOL    HW211928   3.358   5.064   6.169  0.5619  0.1323 -0.2301
36641SOL     OW11929  10.940   7.905   2.665 -0.0505  0.4304  0.3804
36641SOL    HW111930  10.889   7.843   2.717  0.3600  0.8887  1.3507
36641SOL    HW211931  10.879   7.934   2.596 -1.4984  1.8052  2.1449
36642SOL     OW11932   0.684   9.366   0.836  0.5127 -0.5552  0.1558
36642SOL    HW111933   0.625   9.292   0.827 -0.2185  0.2080 -1.7715
36642SOL    HW211934   0.743   9.341   0.908  0.1888 -2.9127 -0.3185
36643SOL     OW11935   6.312   6.096   9.665 -0.1446  0.6277 -0.3640
36643SOL    HW111936   6.274   6.152   9.597 -2.2201 -0.9104 -0.5788
36643SOL    HW211937   6.242   6.087   9.730  0.9245  0.0786  0.7335
36644SOL     OW11938   0.969   2.527  10.026  0.3260 -0.2778  0.2252
36644SOL    HW111939   1.014   2.517  10.110  1.2082 -0.5245 -0.2576
36644SOL    HW211940   0.945   2.619  10.022  0.4174 -0.2333  0.6841
36645SOL     OW11941   3.248   4.721   9.168  0.2747 -0.2387 -0.5881
36645SOL    HW111942   3.297   4.638   9.164 -0.5221 -0.6868 -1.4110
36645SOL    HW211943   3.160   4.694   9.194  0.1434  0.4153 -0.3596
36646SOL     OW11944   8.124  10.127   4.114  0.5456  0.9802 -0.5804
36646SOL    HW111945   8.044  10.077   4.100 -0.0593  1.8150 -0.2023
36646SOL    HW211946   8.105  10.183   4.189  1.6430  0.8822 -0.2051
36647SOL     OW11947   1.540   7.556   5.830 -0.0342  0.1649 -0.3742
36647SOL    HW111948   1.500   7.562   5.743  0.1217  1.9418 -0.3697
36647SOL    HW211949   1.591   7.636   5.838 -0.2810  0.1890  1.4774
36648SOL     OW11950   2.236  11.014   7.805 -0.5154  0.6341  0.0998
36648SOL    HW111951   2.141  11.029   7.802 -0.3283  1.7523 -0.9419
36648SOL    HW211952   2.245  10.920   7.791 -1.3932  0.8985 -3.1355
36649SOL     OW11953  10.708  10.186   5.411 -0.1277 -1.0625  0.2636
36649SOL    HW111954  10.718  10.093   5.389  1.5116 -1.0499  0.7653
36649SOL    HW211955  10.740  10.232   5.333  0.1721 -0.9544  0.4460
36650SOL     OW11956   8.347   8.213   3.756  0.6662  0.5546  0.0264
36650SOL    HW111957   8.264   8.168   3.772  1.4672 -0.9337  0.1627
36650SOL    HW211958   8.331   8.266   3.677  0.4552 -2.1083 -1.8272
36651SOL     OW11959   7.248  10.671   4.981 -0.0585 -0.2376  0.3142
36651SOL    HW111960   7.315  10.610   5.014 -0.1053 -0.0889  0.6905
36651SOL    HW211961   7.189  10.616   4.929 -0.9690 -0.8219  1.8869
36652SOL     OW11962   1.881   6.939   5.369 -0.1781 -0.8791 -0.0600
36652SOL    HW111963   1.930   7.006   5.322 -0.0274 -0.4889  0.6327
36652SOL    HW211964   1.796   6.935   5.325 -0.6388  0.6257  0.6122
36653SOL     OW11965  10.620  10.823   6.951 -0.3797  0.0477  0.2604
36653SOL    HW111966  10.616  10.781   7.037  0.0319  1.2515  0.9010
36653SOL    HW211967  10.704  10.795   6.915 -0.2132  0.1239  0.5794
36654SOL     OW11968   4.123  10.348  10.839  0.7384  0.0537 -0.0794
36654SOL    HW111969   4.105  10.367  10.747  1.1554  1.1283  0.0445
36654SOL    HW211970   4.040  10.318  10.874  0.9678 -1.9880 -1.1828
36655SOL     OW11971   5.720   7.565   4.423  0.0785  0.3123 -0.0378
36655SOL    HW111972   5.678   7.605   4.346 -0.0785  1.2543  0.5163
36655SOL    HW211973   5.802   7.614   4.434  0.4399 -0.2924 -0.0256
36656SOL     OW11974  10.009   4.378   8.230  0.2257  0.3154 -0.1858
36656SOL    HW111975   9.958   4.331   8.295 -0.5429  0.1821 -0.8660
36656SOL    HW211976  10.000   4.325   8.150  0.6335  0.7950 -0.5573
36657SOL     OW11977   4.705   8.944   8.659  0.2971 -0.2249 -0.2498
36657SOL    HW111978   4.752   8.964   8.740  0.6427  1.2688 -0.7916
36657SOL    HW211979   4.674   8.854   8.671  1.9332 -0.6950  0.7625
36658SOL     OW11980   6.859   7.438   2.525  0.2381  0.7939 -0.2275
36658SOL    HW111981   6.894   7.525   2.505  2.6105  0.2487  1.2310
36658SOL    HW211982   6.864   7.431   2.620  0.2904 -1.0081 -0.3278
36659SOL     OW11983   0.685   7.825   1.587  0.1066  0.2588  0.4975
36659SOL    HW111984   0.734   7.789   1.513 -1.2000  0.8740 -0.7052
36659SOL    HW211985   0.722   7.913   1.600 -0.0382  0.3656  0.1983
36660SOL     OW11986   6.046   1.427   6.073 -0.1789  0.0172 -0.1709
36660SOL    HW111987   6.109   1.435   6.001 -0.6213 -1.2686 -0.7168
36660SOL    HW211988   5.980   1.366   6.042 -0.8645  0.1201  0.9989
36661SOL     OW11989   8.956   9.524   8.262  0.3344 -1.2716 -0.7615
36661SOL    HW111990   8.945   9.468   8.339 -1.0071 -1.8618 -1.3536
36661SOL    HW211991   8.985   9.465   8.193  1.1856 -0.8057 -0.8099
36662SOL     OW11992   9.164   1.353   1.027  0.1781 -0.4893  0.2164
36662SOL    HW111993   9.242   1.369   0.973 -0.3077  0.4623 -0.2080
36662SOL    HW211994   9.152   1.433   1.077  0.0181 -0.9872  0.9971
36663SOL     OW11995   6.141   3.895   9.538  0.0467 -0.0510 -0.0029
36663SOL    HW111996   6.164   3.808   9.504 -1.9697  0.1806 -2.1652
36663SOL    HW211997   6.154   3.954   9.464  0.2472  1.3403  1.0976
36664SOL     OW11998   0.198   5.237   9.227 -0.6352  0.3771 -0.2636
36664SOL    HW111999   0.264   5.255   9.295  0.7086 -0.4536 -1.2951
36664SOL    HW212000   0.212   5.306   9.162 -1.0204  0.3890 -0.3374
36665SOL     OW12001   1.875   3.933  10.580 -0.0498 -1.1209 -0.6744
36665SOL    HW112002   1.864   3.900  10.490  1.4172 -0.3229 -1.1727
36665SOL    HW212003   1.912   3.859  10.628 -0.8355 -1.5503 -0.7035
36666SOL     OW12004   5.995   7.784   3.937  0.4186 -0.4717  0.3824
36666SOL    HW112005   6.053   7.755   3.866  0.6974 -0.0371  0.4297
36666SOL    HW212006   6.019   7.729   4.011 -0.5462 -1.6042 -0.1191
36667SOL     OW12007  11.018   3.128   5.043  0.2741  0.2679 -0.2776
36667SOL    HW112008  11.070   3.067   4.990  0.7616  0.4413 -0.0115
36667SOL    HW212009  11.059   3.124   5.130 -0.5155 -0.0203  0.0916
36668SOL     OW12010   9.254   0.691   8.270 -0.3554 -0.0364  0.3412
36668SOL    HW112011   9.266   0.606   8.228  1.8461  0.0731  0.6176
36668SOL    HW212012   9.178   0.680   8.326 -1.4129 -1.1506 -1.2344
36669SOL     OW12013   5.311   5.985   2.524  0.1399 -0.6188  0.1136
36669SOL    HW112014   5.354   5.912   2.569  1.0895 -0.4731 -0.5183
36669SOL    HW212015   5.301   6.053   2.591 -1.5072 -1.5932  0.9209
36670SOL     OW12016   7.154   2.036   1.522  0.6821 -1.1948  0.3413
36670SOL    HW112017   7.119   2.007   1.438  0.1199 -1.2229  0.5771
36670SOL    HW212018   7.111   1.979   1.587  1.2078 -1.2615  0.6372
36671SOL     OW12019   1.693   9.170   8.587  0.7456  0.5475  0.4565
36671SOL    HW112020   1.725   9.092   8.633 -1.9905  0.6975  2.9376
36671SOL    HW212021   1.610   9.142   8.548  2.0244  1.0096 -2.9729
36672SOL     OW12022   0.033  10.957   3.133 -0.4024  0.4808  0.3071
36672SOL    HW112023   0.026  11.020   3.205  0.7899 -0.4875  1.3061
36672SOL    HW212024   0.110  10.905   3.154 -1.1699 -1.1129 -0.6601
36673SOL     OW12025   3.935   6.944  11.009 -0.2001  0.0602 -0.3468
36673SOL    HW112026   3.888   6.913  11.086  0.8412  1.4209  0.8924
36673SOL    HW212027   4.026   6.949  11.036  0.1996  0.5749 -1.6648
36674SOL     OW12028   7.215  10.510   2.867  1.0142  0.6223  0.1710
36674SOL    HW112029   7.285  10.552   2.817  2.8783 -2.4562 -0.0546
36674SOL    HW212030   7.231  10.537   2.957  2.5907 -0.0459  0.1325
36675SOL     OW12031   5.532   1.500   5.568  0.1021 -0.4212  0.5851
36675SOL    HW112032   5.550   1.439   5.639 -1.1859  0.0424  1.3493
36675SOL    HW212033   5.535   1.587   5.609 -0.8885 -0.1587  0.1574
36676SOL     OW12034   5.874   2.534   2.040  0.2000  0.2006 -0.1785
36676SOL    HW112035   5.927   2.481   1.981  2.2030  0.6421  1.1303
36676SOL    HW212036   5.801   2.477   2.064  0.6477 -0.8335 -1.1647
36677SOL     OW12037   4.574   4.977   3.534  0.1723 -0.0238  0.0900
36677SOL    HW112038   4.567   4.925   3.454 -1.0895 -0.8165  0.6685
36677SOL    HW212039   4.653   4.946   3.577  0.6093  0.0890 -0.6225
36678SOL     OW12040   5.314  10.844   9.952 -0.3655  0.2518 -0.0257
36678SOL    HW112041   5.361  10.840  10.035  0.3106  4.0746 -0.0574
36678SOL    HW212042   5.384  10.849   9.886 -0.6390  3.7299 -0.2271
36679SOL     OW12043   2.709  10.726   0.859 -0.4939  0.8864  0.2434
36679SOL    HW112044   2.676  10.656   0.916 -1.0043 -0.1402 -1.2734
36679SOL    HW212045   2.799  10.701   0.840 -0.0631  1.6476  1.2164
36680SOL     OW12046   4.523   8.050   7.638 -0.3516  0.2748  0.8382
36680SOL    HW112047   4.556   8.067   7.726 -1.6964  0.6446  1.3052
36680SOL    HW212048   4.575   8.106   7.581  0.3288  0.2610  1.4285
36681SOL     OW12049   4.894   4.584   1.700  0.1509 -0.8750  0.0459
36681SOL    HW112050   4.872   4.676   1.716  1.5138 -0.5601  0.2548
36681SOL    HW212051   4.978   4.572   1.746 -0.2750 -2.3686  0.4794
36682SOL     OW12052   5.269   6.744   2.657 -0.2714 -0.2117  0.2173
36682SOL    HW112053   5.251   6.650   2.663 -0.8486 -0.1245 -0.1698
36682SOL    HW212054   5.187   6.783   2.628  0.4448  0.2156 -1.3463
36683SOL     OW12055   9.235   0.452   7.122  0.0177  0.3258  0.5207
36683SOL    HW112056   9.176   0.475   7.050  0.7245  0.2359 -0.0933
36683SOL    HW212057   9.304   0.518   7.120 -0.0784  0.4641  1.2761
36684SOL     OW12058   5.647   7.986   5.959 -0.2998  1.0914  0.4361
36684SOL    HW112059   5.718   8.000   6.021 -0.8556  1.1947  1.0639
36684SOL    HW212060   5.569   8.020   6.004 -0.7536  0.9092 -0.2039
36685SOL     OW12061   4.175   8.293   5.505  0.1221  0.0853 -0.2363
36685SOL    HW112062   4.103   8.309   5.567 -0.2039 -0.1332 -0.5561
36685SOL    HW212063   4.228   8.225   5.548  1.7557  2.2147  1.3290
36686SOL     OW12064   0.558   7.704   0.168 -0.3433  0.2291  0.9440
36686SOL    HW112065   0.589   7.680   0.081 -1.0430 -0.3015  0.8293
36686SOL    HW212066   0.630   7.753   0.207 -0.1510  0.7805 -0.0677
36687SOL     OW12067   2.529  10.746   3.726 -0.2521 -0.5870 -0.1018
36687SOL    HW112068   2.581  10.672   3.756  0.6443 -1.6732 -3.7759
36687SOL    HW212069   2.464  10.707   3.667 -1.2677  1.3552 -0.3513
36688SOL     OW12070   0.603  10.446   8.214  0.4429 -0.1377 -0.4811
36688SOL    HW112071   0.680  10.405   8.177 -1.3769 -3.9271 -0.4889
36688SOL    HW212072   0.575  10.387   8.284 -1.9291  1.5590  0.1346
36689SOL     OW12073   9.079   9.583   8.767 -0.4223  0.0122 -0.4481
36689SOL    HW112074   9.009   9.567   8.830  0.3469 -0.1044  0.3881
36689SOL    HW212075   9.040   9.644   8.703 -1.3883 -0.3310 -0.1959
36690SOL     OW12076   8.604  10.700   4.505 -0.1166  0.1275 -0.0886
36690SOL    HW112077   8.688  10.739   4.481  0.3743 -0.5938  0.4225
36690SOL    HW212078   8.555  10.695   4.422  0.9750 -0.9507 -0.6941
36691SOL     OW12079   1.824   8.523   1.710 -0.4159  0.1418  0.5514
36691SOL    HW112080   1.754   8.575   1.752 -2.2504 -0.4271 -1.5867
36691SOL    HW212081   1.848   8.574   1.633 -0.5111 -0.9986 -0.2549
36692SOL     OW12082  10.118  10.279   5.785 -0.3822  0.3911 -0.5272
36692SOL    HW112083  10.109  10.315   5.697 -0.0072 -0.3852 -0.8923
36692SOL    HW212084  10.189  10.330   5.825 -0.0303  0.2450 -0.9496
36693SOL     OW12085   5.486   0.534   0.215 -0.8800  0.2362  0.1388
36693SOL    HW112086   5.412   0.586   0.183 -1.4459  0.3538  1.5465
36693SOL    HW212087   5.515   0.580   0.294 -0.9010 -1.1529  0.9863
36694SOL     OW12088   9.207   2.958   1.591  0.0793 -0.6455 -0.1096
36694SOL    HW112089   9.301   2.955   1.603  0.1476 -1.0245 -0.7035
36694SOL    HW212090   9.177   3.028   1.650  0.8714  0.2841 -0.7847
36695SOL     OW12091   8.667   8.778   8.154  0.2825  0.2921 -0.0708
36695SOL    HW112092   8.647   8.685   8.164  2.6864 -0.2982 -0.0575
36695SOL    HW212093   8.692   8.807   8.242 -2.4619  1.5691  0.3939
36696SOL     OW12094   9.599   0.541   9.469 -0.5932 -0.4336  0.1410
36696SOL    HW112095   9.576   0.580   9.553 -0.0244  0.2755 -0.0232
36696SOL    HW212096   9.693   0.556   9.460 -0.9603  1.2650 -1.5131
36697SOL     OW12097   1.026   4.673   6.416 -0.4433 -0.0898  0.3294
36697SOL    HW112098   1.108   4.645   6.375  0.0948  1.8246  0.0332
36697SOL    HW212099   1.053   4.731   6.487 -1.5284  0.0342  0.6580
36698SOL     OW12100   1.516   0.063   6.841 -0.7273 -0.0762 -0.4704
36698SOL    HW112101   1.598   0.112   6.842 -0.8604  0.1516 -0.8044
36698SOL    HW212102   1.454   0.117   6.890 -0.8664  0.0795 -0.8152
36699SOL     OW12103   7.042   1.292   9.411 -0.4004 -0.2571  0.1869
36699SOL    HW112104   7.047   1.339   9.328  0.7585 -0.3277  0.2022
36699SOL    HW212105   7.093   1.345   9.473 -0.5426 -0.6407  0.6440
36700SOL     OW12106  10.293   0.578   7.838  0.0292  0.1208 -0.1501
36700SOL    HW112107  10.228   0.577   7.908  1.7149 -1.2180  1.5129
36700SOL    HW212108  10.378   0.577   7.884  1.2102  0.2956 -2.2088
36701SOL     OW12109   5.923   4.314  11.048 -0.6283  0.3135  0.0389
36701SOL    HW112110   5.962   4.397  11.073 -0.2723  0.0042  0.5096
36701SOL    HW212111   5.840   4.311  11.097  0.7868 -1.0140  2.5353
36702SOL     OW12112   9.096   9.769   6.393 -0.3376 -0.3001  0.3994
36702SOL    HW112113   9.102   9.771   6.489  2.0099  1.3182  0.2997
36702SOL    HW212114   9.173   9.718   6.366  0.4341  1.3653 -0.6532
36703SOL     OW12115   4.865   0.530   3.632 -0.4698  0.1804 -0.5232
36703SOL    HW112116   4.775   0.512   3.603 -0.3956  1.9995 -2.0197
36703SOL    HW212117   4.912   0.553   3.552  0.9557  0.7492  0.4498
36704SOL     OW12118  10.932   6.270   4.326  0.0352 -0.0748 -0.6749
36704SOL    HW112119  10.927   6.183   4.285  2.0239  0.2675 -1.7660
36704SOL    HW212120  10.947   6.252   4.418  1.9079 -0.9544 -1.1097
36705SOL     OW12121   9.390   3.863   9.053 -0.0660  0.7491 -0.0035
36705SOL    HW112122   9.298   3.883   9.071 -1.2623 -2.1407 -2.1664
36705SOL    HW212123   9.402   3.775   9.090  1.2373  0.3048 -1.4173
36706SOL     OW12124   2.797   8.406   4.650  0.2335  0.2282 -0.3791
36706SOL    HW112125   2.830   8.474   4.708  2.0185 -1.0552  0.2135
36706SOL    HW212126   2.862   8.400   4.580 -1.8250  1.6712 -2.5557
36707SOL     OW12127   4.274   2.425   3.166  1.2422 -0.5411 -0.0831
36707SOL    HW112128   4.252   2.426   3.072  1.1147 -1.1835 -0.0698
36707SOL    HW212129   4.215   2.358   3.203 -0.1994  1.1633  0.8469
36708SOL     OW12130   8.569  11.004   0.340 -0.7562 -0.1868  0.3661
36708SOL    HW112131   8.577  11.071   0.409  0.6232 -0.6221  0.6605
36708SOL    HW212132   8.603  11.047   0.261  3.3206 -1.4030  1.1971
36709SOL     OW12133   9.043   9.605   0.494 -0.3092 -0.1631  0.6558
36709SOL    HW112134   8.960   9.652   0.487  0.2095  0.8655  1.1328
36709SOL    HW212135   9.018   9.513   0.503 -1.3024 -0.3179 -2.5661
36710SOL     OW12136   0.104   3.970  10.446 -0.2672  0.3600  0.2201
36710SOL    HW112137   0.054   4.046  10.417 -0.6720  0.0631  0.1267
36710SOL    HW212138   0.071   3.898  10.392 -0.6701 -0.1001  1.0549
36711SOL     OW12139  10.130   2.885   6.978 -0.2291 -0.0035 -0.3685
36711SOL    HW112140  10.081   2.807   6.953 -1.5104 -0.0993  2.1458
36711SOL    HW212141  10.209   2.851   7.021 -1.0323  0.0126  1.1890
36712SOL     OW12142   7.928   5.465   9.297 -0.5715  0.0977 -0.6059
36712SOL    HW112143   7.926   5.382   9.248  0.6306 -1.6855  2.1078
36712SOL    HW212144   8.007   5.509   9.266 -0.2536 -0.6177 -0.8388
36713SOL     OW12145   9.055   9.812   9.805  0.0042 -0.6295  0.0456
36713SOL    HW112146   9.057   9.723   9.772  0.5377 -0.6552  0.1432
36713SOL    HW212147   9.147   9.838   9.811 -0.0892 -0.5213  1.2163
36714SOL     OW12148   7.761   1.803   3.764 -0.1871  0.3859 -0.2819
36714SOL    HW112149   7.836   1.781   3.819 -0.0922  1.6576  0.1391
36714SOL    HW212150   7.714   1.721   3.753  1.1308 -0.3791 -0.3391
36715SOL     OW12151   2.638   2.349   6.720 -0.4820 -0.1473  0.0036
36715SOL    HW112152   2.675   2.433   6.692 -1.7408  0.0993 -1.0063
36715SOL    HW212153   2.692   2.284   6.676 -1.0681  0.2046 -1.3063
36716SOL     OW12154   4.132   8.950   1.088 -0.5239  0.2601  0.0204
36716SOL    HW112155   4.202   8.966   1.152  0.6372 -1.6500 -0.6727
36716SOL    HW212156   4.055   8.992   1.126  0.3057 -0.1056  2.3080
36717SOL     OW12157   3.172   7.658   8.899  0.6446  0.1810 -0.3410
36717SOL    HW112158   3.238   7.602   8.940 -1.1778 -0.5073  1.9074
36717SOL    HW212159   3.120   7.598   8.845 -1.2968 -0.4956  2.0537
36718SOL     OW12160   4.073   2.396   8.389 -0.0695  0.5100 -0.4929
36718SOL    HW112161   4.116   2.344   8.322  1.9171  2.6117 -0.9794
36718SOL    HW212162   3.995   2.346   8.413  0.7237 -1.6930 -2.2455
36719SOL     OW12163   8.050   4.784   7.242  0.2044 -0.4974 -0.7612
36719SOL    HW112164   8.082   4.788   7.151  2.2839 -1.1172 -0.1159
36719SOL    HW212165   7.968   4.735   7.236 -0.0211 -0.0030 -2.3691
36720SOL     OW12166   4.062   4.110   9.036 -0.4855 -0.0080 -0.1844
36720SOL    HW112167   3.990   4.142   9.091 -1.6001 -1.2926 -0.8386
36720SOL    HW212168   4.082   4.023   9.071 -1.2005 -0.8356 -1.7577
36721SOL     OW12169   4.387   6.074   4.677  0.4331 -0.3232 -0.1086
36721SOL    HW112170   4.469   6.122   4.691 -1.9494  4.0618  0.7312
36721SOL    HW212171   4.369   6.085   4.583 -0.7438  1.8339  0.3074
36722SOL     OW12172   1.678   4.964   8.745  0.5405  0.1853 -0.2951
36722SOL    HW112173   1.584   4.956   8.756  0.7166 -0.8810  0.7205
36722SOL    HW212174   1.702   5.041   8.797  0.2918  0.1571 -0.1388
36723SOL     OW12175   0.495   1.865   6.618 -0.1382  0.1172 -0.6480
36723SOL    HW112176   0.511   1.779   6.656  1.2412  0.7979  0.4105
36723SOL    HW212177   0.541   1.926   6.676 -1.9193  1.6802 -0.7910
36724SOL     OW12178   2.448   7.153   4.977  0.4518  0.4269 -0.1651
36724SOL    HW112179   2.417   7.243   4.966  0.3480  0.6189  1.4526
36724SOL    HW212180   2.510   7.157   5.050 -0.8002 -1.0557  1.0570
36725SOL     OW12181   2.623  10.861   7.176  0.5178 -0.4531  0.5093
36725SOL    HW112182   2.672  10.795   7.224  0.4279  1.3199  3.2137
36725SOL    HW212183   2.541  10.871   7.225  0.1214  0.9831 -0.3799
36726SOL     OW12184   7.766   9.112  10.263 -0.0917 -0.4498 -0.7834
36726SOL    HW112185   7.712   9.059  10.322  0.4483 -0.0774  0.0420
36726SOL    HW212186   7.705   9.136  10.192 -1.5595  1.4276  0.9805
36727SOL     OW12187   0.278   6.455   8.530 -0.6757  0.0247  0.9376
36727SOL    HW112188   0.372   6.469   8.546 -0.8208  1.6771  0.4935
36727SOL    HW212189   0.249   6.405   8.606  0.4126  0.1482  1.4658
36728SOL     OW12190   7.328   6.185   2.617  0.4050 -0.2811 -0.1340
36728SOL    HW112191   7.363   6.264   2.656 -2.3773  0.1733  1.7442
36728SOL    HW212192   7.360   6.114   2.673  2.8274 -0.5877 -1.7681
36729SOL     OW12193   8.931   7.231   7.120  0.2499 -0.3654  0.2726
36729SOL    HW112194   8.996   7.301   7.129  1.1828 -1.3071  1.3157
36729SOL    HW212195   8.974   7.165   7.065  0.3235 -1.0948  1.1541
36730SOL     OW12196   6.354   9.666   9.598  0.4171  0.1166  0.5906
36730SOL    HW112197   6.371   9.616   9.678 -3.5031 -0.0375  1.5437
36730SOL    HW212198   6.389   9.753   9.615  0.8101 -0.2957  1.9540
36731SOL     OW12199   3.789   9.771   4.033  0.2686  0.1074 -0.6901
36731SOL    HW112200   3.864   9.755   4.091  0.7460  0.4486 -1.2036
36731SOL    HW212201   3.725   9.816   4.088 -0.0849 -1.2799  0.1068
36732SOL     OW12202   2.589   2.405   4.144 -1.0504 -0.7981  0.4250
36732SOL    HW112203   2.649   2.353   4.091  2.0699  0.9317  1.9810
36732SOL    HW212204   2.614   2.387   4.234 -1.5729  1.3972  1.0767
36733SOL     OW12205   9.551   8.619   5.267  0.1943  0.3872  0.3820
36733SOL    HW112206   9.634   8.618   5.220  1.9402 -0.3642  3.1983
36733SOL    HW212207   9.500   8.548   5.229  1.6845 -0.4601 -0.1161
36734SOL     OW12208  10.325   5.984   5.569  0.4236  0.1959  0.4119
36734SOL    HW112209  10.353   5.933   5.645  0.5980  0.2650  0.3943
36734SOL    HW212210  10.371   6.067   5.577  1.4884 -0.2885 -0.4801
36735SOL     OW12211   9.700   0.641   6.773  0.0607  0.4878  0.7426
36735SOL    HW112212   9.764   0.697   6.728 -0.2630  0.8757  0.7549
36735SOL    HW212213   9.671   0.694   6.847 -4.0395  2.5661 -1.9323
36736SOL     OW12214   4.910   4.182   9.914 -0.5124 -0.3510  0.3357
36736SOL    HW112215   4.987   4.190   9.858  0.5717  0.4847  1.8949
36736SOL    HW212216   4.843   4.144   9.856  0.7592 -0.2121 -1.3125
36737SOL     OW12217   8.208  10.719   2.112  0.0133  0.1127  0.4876
36737SOL    HW112218   8.230  10.749   2.024 -0.6241 -2.0864 -0.4646
36737SOL    HW212219   8.133  10.773   2.137 -0.3179  0.2107 -0.6593
36738SOL     OW12220   5.538   4.682   4.818 -0.3445  0.1063  0.5930
36738SOL    HW112221   5.633   4.682   4.833 -0.1807  0.3357 -0.3624
36738SOL    HW212222   5.524   4.609   4.757 -0.4693  1.3885 -0.9950
36739SOL     OW12223   6.238   2.940   9.913  0.7550 -0.1620  0.0842
36739SOL    HW112224   6.205   2.851   9.917  0.0543  0.0277 -1.2231
36739SOL    HW212225   6.256   2.963  10.005 -1.7883 -0.6186  0.7720
36740SOL     OW12226   9.917   2.408   6.302 -0.0928 -0.0480 -0.2940
36740SOL    HW112227   9.860   2.356   6.245 -0.9618 -0.8474  1.2612
36740SOL    HW212228   9.885   2.498   6.293 -0.0674 -0.1251 -1.2270
36741SOL     OW12229   4.205   7.266   2.092  0.0064 -0.0342  0.1374
36741SOL    HW112230   4.296   7.284   2.071  0.6857 -2.6797  0.3829
36741SOL    HW212231   4.171   7.218   2.016 -1.0733  0.5774  0.2083
36742SOL     OW12232   3.011   5.378   2.712  0.2154 -0.7584 -0.2637
36742SOL    HW112233   2.990   5.308   2.650  0.0943  0.4589 -1.6468
36742SOL    HW212234   3.100   5.404   2.691 -0.0348  0.0723 -0.3455
36743SOL     OW12235  10.432   0.750   1.035  0.5299  1.2216 -0.2779
36743SOL    HW112236  10.353   0.738   1.088 -0.7820 -1.4937 -2.6109
36743SOL    HW212237  10.499   0.700   1.081 -0.5071 -0.8305 -0.9150
36744SOL     OW12238   3.140   9.427   8.572 -0.3199 -0.0124  0.7251
36744SOL    HW112239   3.067   9.372   8.544 -0.6646  1.0329 -0.5351
36744SOL    HW212240   3.219   9.377   8.549 -0.6140 -0.7858  1.3493
36745SOL     OW12241   2.191   6.443   7.190 -0.0648 -0.6647 -0.5075
36745SOL    HW112242   2.218   6.351   7.189  0.4107 -0.5202 -1.4762
36745SOL    HW212243   2.115   6.446   7.133 -0.4525 -0.5566  0.0064
36746SOL     OW12244   4.487   2.892   9.634 -0.5222  0.2073  0.5048
36746SOL    HW112245   4.501   2.815   9.579  3.2926  2.1411 -1.5737
36746SOL    HW212246   4.481   2.857   9.723  2.6050 -2.4905 -0.1670
36747SOL     OW12247   5.498   1.386   6.584  0.2089  0.1155 -0.0536
36747SOL    HW112248   5.419   1.392   6.531 -0.5096  0.7413  1.0428
36747SOL    HW212249   5.565   1.354   6.524 -0.3580  1.6269 -1.5817
36748SOL     OW12250   4.555   0.320   7.663  0.4363 -0.0725  0.7374
36748SOL    HW112251   4.520   0.284   7.744  1.5896 -1.7090  0.5606
36748SOL    HW212252   4.552   0.247   7.601  1.6193  0.4911 -0.0349
36749SOL     OW12253   3.968   7.942   4.669  0.0270  0.4119 -0.2546
36749SOL    HW112254   4.057   7.918   4.695  0.1613  1.6460  0.4891
36749SOL    HW212255   3.914   7.923   4.746  0.0522  1.9318  0.1555
36750SOL     OW12256   8.336   2.840   5.166  0.0927 -0.0031  0.9073
36750SOL    HW112257   8.384   2.776   5.114  1.1460  1.2208  0.3476
36750SOL    HW212258   8.403   2.899   5.200 -0.9758  1.6379  0.2655
36751SOL     OW12259  11.073   4.837   5.824 -0.6241  0.1925 -0.1430
36751SOL    HW112260  11.055   4.926   5.855  0.6074  0.4455 -0.1134
36751SOL    HW212261  11.150   4.846   5.768  0.8652 -1.1222  1.5523
36752SOL     OW12262   6.741   3.420   2.562 -0.4025  0.4849 -0.2804
36752SOL    HW112263   6.648   3.416   2.540 -0.5951  2.5020 -0.0722
36752SOL    HW212264   6.761   3.514   2.563  1.2783  0.1647  1.1772
36753SOL     OW12265   4.753   2.324   7.034  0.5126  0.8428 -0.2394
36753SOL    HW112266   4.797   2.243   7.060 -0.1935  0.6194  0.2573
36753SOL    HW212267   4.663   2.314   7.065  0.3824  1.7536 -0.3105
36754SOL     OW12268   1.316  10.055  10.284 -0.3290 -0.5024  0.5973
36754SOL    HW112269   1.348  10.025  10.199 -1.0665  2.8650 -1.0795
36754SOL    HW212270   1.387  10.109  10.319 -0.7728 -0.2670  1.1598
36755SOL     OW12271   8.502   8.205   4.773  0.7490 -0.1992  0.7333
36755SOL    HW112272   8.417   8.163   4.761  1.4607 -1.3846 -0.5125
36755SOL    HW212273   8.486   8.277   4.834 -0.7285 -1.6744  2.1858
36756SOL     OW12274   7.534   3.140   2.875 -0.0794  0.0151  0.2154
36756SOL    HW112275   7.549   3.193   2.796  0.2948 -0.0841  0.2195
36756SOL    HW212276   7.554   3.050   2.847  0.9753  0.1004  0.6823
36757SOL     OW12277  10.197   0.960   4.903  0.2031  0.4643 -0.7463
36757SOL    HW112278  10.144   0.944   4.825 -0.4224  0.4540 -0.3282
36757SOL    HW212279  10.178   1.050   4.927 -0.0754  0.2787 -0.2596
36758SOL     OW12280   3.756   9.543  10.296  0.3478 -0.0204  0.0374
36758SOL    HW112281   3.807   9.526  10.376 -1.6227  0.9788  1.6078
36758SOL    HW212282   3.759   9.638  10.285  1.4558 -0.2214 -1.7358
36759SOL     OW12283   3.314   8.165   0.015  0.2067 -0.2663  0.2823
36759SOL    HW112284   3.376   8.092   0.015  2.1661  1.2926 -0.6945
36759SOL    HW212285   3.333   8.212  -0.066 -2.5831  0.0822 -0.2486
36760SOL     OW12286   9.077   5.212   5.976  1.0618 -0.0477  0.1315
36760SOL    HW112287   9.057   5.124   5.943 -2.6608 -0.2370  2.4189
36760SOL    HW212288   9.128   5.197   6.056  0.4584 -0.1146  0.5013
36761SOL     OW12289   9.447   1.666  10.185  0.3992 -0.0057  0.8102
36761SOL    HW112290   9.357   1.661  10.151 -0.1410 -0.5696  2.2335
36761SOL    HW212291   9.499   1.618  10.121 -0.3768 -0.0101  0.1639
36762SOL     OW12292   0.337   0.914   7.417 -0.3573  0.1198  0.9541
36762SOL    HW112293   0.322   1.008   7.404 -2.6458  0.2044  3.3375
36762SOL    HW212294   0.422   0.909   7.460 -0.3650  1.1757  1.1261
36763SOL     OW12295   2.116   3.162   3.785 -0.3356  0.2272 -0.6379
36763SOL    HW112296   2.138   3.116   3.866  0.9272  2.7132  0.5731
36763SOL    HW212297   2.189   3.223   3.772 -1.1079  0.7461 -3.0088
36764SOL     OW12298   1.362   4.551   9.373 -0.5591  0.8772 -0.0455
36764SOL    HW112299   1.296   4.500   9.326 -0.5867  0.8919 -0.0227
36764SOL    HW212300   1.436   4.491   9.383 -0.2967  1.0772 -0.6980
36765SOL     OW12301   2.346   7.584   5.101 -0.6679  0.5419  0.4103
36765SOL    HW112302   2.430   7.538   5.099 -0.6715  0.5143  0.8410
36765SOL    HW212303   2.314   7.571   5.190 -1.3465  0.1630  0.1184
36766SOL     OW12304   0.444   8.964   3.552 -0.0905  0.4787  0.1198
36766SOL    HW112305   0.385   8.920   3.613  0.6296  0.6159  0.9398
36766SOL    HW212306   0.406   9.051   3.540 -0.4689  0.3007  0.0253
36767SOL     OW12307  10.325   9.965   9.528 -0.8097 -0.8817  0.4854
36767SOL    HW112308  10.270   9.893   9.496 -1.0540 -1.2438  1.6688
36767SOL    HW212309  10.415   9.934   9.514 -0.8329  0.0041 -2.1170
36768SOL     OW12310   9.865   0.630   9.819  0.1673 -0.3097 -0.8566
36768SOL    HW112311   9.783   0.636   9.770 -0.6215  0.2761  0.4876
36768SOL    HW212312   9.855   0.692   9.891  2.2407  0.6145 -1.2686
36769SOL     OW12313   3.878   5.852   2.920  0.0299 -0.3648  0.4373
36769SOL    HW112314   3.908   5.925   2.974  0.0336 -0.4890  0.6065
36769SOL    HW212315   3.913   5.870   2.833  0.7957 -0.6179  0.6825
36770SOL     OW12316   2.549   2.670   6.317 -0.2764  0.2078 -0.6640
36770SOL    HW112317   2.607   2.620   6.375  0.4984  0.1782 -1.4473
36770SOL    HW212318   2.537   2.753   6.362 -0.1081 -0.0103 -0.2060
36771SOL     OW12319   5.116   1.821   1.984 -0.8025  0.4186  0.3222
36771SOL    HW112320   5.046   1.846   1.923 -1.2527 -0.0604  0.6341
36771SOL    HW212321   5.197   1.840   1.936 -1.1396  1.1368  0.0230
36772SOL     OW12322   4.533   9.717   0.663  0.0491  0.1090 -0.5010
36772SOL    HW112323   4.514   9.808   0.687  2.6240  0.5593  0.1334
36772SOL    HW212324   4.586   9.724   0.584  2.2150 -0.6285  0.7963
36773SOL     OW12325   8.435  10.788   0.381  0.2948 -0.7477  0.0167
36773SOL    HW112326   8.472  10.875   0.368 -1.0213  0.1450  1.8554
36773SOL    HW212327   8.471  10.736   0.309  1.4079  1.2004 -0.9171
36774SOL     OW12328   8.033   9.377   8.658 -0.2082 -0.3068  0.0961
36774SOL    HW112329   8.096   9.324   8.610  0.0561 -0.6399  0.8077
36774SOL    HW212330   8.047   9.356   8.750  0.1960  1.3044  0.4473
36775SOL     OW12331   6.907   2.801   2.217 -0.6619  0.3597 -0.5456
36775SOL    HW112332   6.881   2.884   2.177  0.1139  0.2223 -1.3710
36775SOL    HW212333   6.971   2.825   2.284 -1.8553  0.5792  0.5318
36776SOL     OW12334   8.042   0.360   2.013 -0.4781  0.3145  0.4555
36776SOL    HW112335   8.042   0.271   2.049  2.2454 -0.3807 -0.9988
36776SOL    HW212336   8.113   0.405   2.061 -1.5581  1.6192  0.8925
36777SOL     OW12337   3.354   7.880   5.807 -0.2628 -0.3649 -0.1658
36777SOL    HW112338   3.359   7.943   5.735 -1.6393  0.6025  0.5280
36777SOL    HW212339   3.415   7.811   5.783  0.7384  0.8685 -1.3330
36778SOL     OW12340  10.747   5.176   4.961  0.2866 -0.6950  0.1436
36778SOL    HW112341  10.802   5.249   4.990  1.3337 -2.1703  2.1189
36778SOL    HW212342  10.666   5.218   4.932  0.7282  1.2617  1.5165
36779SOL     OW12343   5.747   9.728   3.692  0.0997  0.5777  0.4217
36779SOL    HW112344   5.746   9.637   3.664 -0.1138  0.5995  0.3526
36779SOL    HW212345   5.806   9.730   3.767 -0.6430  0.1984  1.0334
36780SOL     OW12346   1.575   9.686   1.192 -0.6928 -0.4446  0.4916
36780SOL    HW112347   1.489   9.644   1.181 -1.2835  0.5776  1.0182
36780SOL    HW212348   1.598   9.718   1.105 -1.7212  0.8857  0.6854
36781SOL     OW12349   7.610  10.926   4.760 -0.3749 -0.4856  0.4248
36781SOL    HW112350   7.690  10.979   4.760 -0.7812  0.1503  1.2808
36781SOL    HW212351   7.620  10.867   4.835 -1.0303  0.1140  0.9993
36782SOL     OW12352  10.935   1.748   5.632  0.1657 -0.2560 -0.2085
36782SOL    HW112353  10.891   1.802   5.698  1.0958  0.5647 -0.2444
36782SOL    HW212354  11.022   1.786   5.624  1.0300 -2.1067  0.1478
36783SOL     OW12355   8.578   6.963  10.502 -0.4620 -0.3866  0.8917
36783SOL    HW112356   8.577   7.040  10.446  1.0029  1.1352  2.8005
36783SOL    HW212357   8.613   6.893  10.447  0.5300  0.9322 -0.2151
36784SOL     OW12358   2.335   9.785   8.018  0.6768  0.3535  0.2345
36784SOL    HW112359   2.372   9.697   8.025  1.9421  0.8667  0.3616
36784SOL    HW212360   2.245   9.772   7.989  1.4800 -0.9121 -1.9210
36785SOL     OW12361   8.314   7.019   5.729  0.7621 -0.0986  0.2106
36785SOL    HW112362   8.322   6.948   5.665 -1.1366 -0.9952  0.8946
36785SOL    HW212363   8.337   6.979   5.813  3.4713  1.1295  0.1795
36786SOL     OW12364   2.581  10.975   5.991  0.1301  0.1080 -0.2068
36786SOL    HW112365   2.634  10.895   5.990  1.7376  1.1079  0.6316
36786SOL    HW212366   2.577  11.000   6.083 -2.4952 -0.3034 -0.1161
36787SOL     OW12367   6.874   9.383   0.312 -0.0347 -0.2008 -0.3630
36787SOL    HW112368   6.957   9.364   0.268  0.5884 -0.6720  0.9804
36787SOL    HW212369   6.897   9.443   0.382 -1.0679  0.7818 -0.8328
36788SOL     OW12370   1.612   9.338   2.743 -0.4416 -0.0516  0.5202
36788SOL    HW112371   1.669   9.409   2.715  0.0363  0.1826  1.9927
36788SOL    HW212372   1.545   9.380   2.797 -0.9389 -0.5571  0.3132
36789SOL     OW12373  10.073   1.516   7.501  0.6665 -0.3638 -0.5850
36789SOL    HW112374  10.010   1.541   7.434  1.1456  1.1582 -0.5105
36789SOL    HW212375  10.019   1.488   7.575 -0.0371  2.2089 -0.0230
36790SOL     OW12376  10.127   6.118   5.243  0.0803 -0.4151  1.0778
36790SOL    HW112377  10.142   6.207   5.273  3.8917 -0.4368 -0.2580
36790SOL    HW212378  10.153   6.119   5.151  0.6144 -2.9776  1.1347
36791SOL     OW12379   8.314   4.991   0.616 -0.1912 -0.0156  0.5109
36791SOL    HW112380   8.354   5.062   0.565 -2.2631  1.1124  0.3622
36791SOL    HW212381   8.281   5.033   0.695  1.6424 -1.4953  2.1776
36792SOL     OW12382   7.800   0.598  10.395 -0.2935  0.2709  0.1198
36792SOL    HW112383   7.837   0.654  10.463 -0.3418 -0.9647  1.2103
36792SOL    HW212384   7.842   0.513  10.409 -1.9021 -0.5869 -0.0078
36793SOL     OW12385   9.431  10.419  10.919  0.2211  0.0071 -0.5009
36793SOL    HW112386   9.481  10.393  10.997  0.1530 -1.1191 -0.8175
36793SOL    HW212387   9.356  10.467  10.954 -0.3695 -1.3840  0.2116
36794SOL     OW12388   9.818   0.876   0.567 -0.0131  0.7318 -0.5743
36794SOL    HW112389   9.860   0.795   0.594 -2.2800  0.1304  1.4081
36794SOL    HW212390   9.725   0.856   0.563 -0.8525  3.5602  1.5034
36795SOL     OW12391   6.889  11.081   5.986 -0.3996 -0.0838 -0.7644
36795SOL    HW112392   6.970  11.105   5.941  0.2485 -1.9573 -0.6644
36795SOL    HW212393   6.852  11.010   5.934 -0.5998 -1.0282  0.6124
36796SOL     OW12394   3.251   1.665   7.969  0.6165 -0.3332 -0.2727
36796SOL    HW112395   3.221   1.743   8.017  1.6621 -0.0686 -0.0248
36796SOL    HW212396   3.323   1.631   8.021  1.3497 -0.4255 -1.3200
36797SOL     OW12397   8.154   2.702   5.325 -0.2184  0.1386 -0.5123
36797SOL    HW112398   8.178   2.714   5.417  0.4322 -0.9499 -0.5224
36797SOL    HW212399   8.233   2.725   5.277  0.0340 -1.0261 -0.6858
36798SOL     OW12400   2.725   1.108   8.125  0.0288 -0.0772 -0.0373
36798SOL    HW112401   2.663   1.074   8.189 -0.2129  2.1785  1.0246
36798SOL    HW212402   2.676   1.112   8.043 -1.0271  0.9511  0.6156
36799SOL     OW12403   2.189   9.893   4.292 -0.3792  0.0886  0.5462
36799SOL    HW112404   2.172   9.811   4.246  0.0801  0.6485 -0.6746
36799SOL    HW212405   2.275   9.881   4.333  1.7226  1.2886 -3.0283
36800SOL     OW12406   5.542   8.408   4.654  0.3496  0.1557  0.8277
36800SOL    HW112407   5.493   8.387   4.575 -1.0530  1.4221  1.3135
36800SOL    HW212408   5.615   8.346   4.654 -0.0384 -0.3649 -1.0435
36801SOL     OW12409   2.699   0.039   7.314  0.6121 -0.3672  0.7089
36801SOL    HW112410   2.705  -0.019   7.238  0.6290  0.9731 -0.3449
36801SOL    HW212411   2.620   0.010   7.359  0.2895 -0.8240 -0.1215
36802SOL     OW12412   2.063   4.888   5.940 -0.6209 -0.3393  0.4559
36802SOL    HW112413   2.152   4.887   5.903 -0.6453 -0.8581  0.4065
36802SOL    HW212414   2.062   4.814   6.001 -0.1140  1.3387  2.6136
36803SOL     OW12415   0.931   7.639   2.280  0.4524  0.3388 -0.1782
36803SOL    HW112416   0.853   7.690   2.256  1.6236  2.1193 -0.3937
36803SOL    HW212417   0.936   7.646   2.375  1.9244  2.8092 -0.3424
36804SOL     OW12418  10.033   0.035   9.317  1.0156  0.5484  0.8011
36804SOL    HW112419  10.054   0.066   9.405 -1.4041  2.1805  0.9097
36804SOL    HW212420  10.052   0.110   9.260 -1.8941  1.2989  0.6450
36805SOL     OW12421  10.478   1.773   4.922  0.5479  0.5209  0.5643
36805SOL    HW112422  10.538   1.844   4.947  2.0007 -0.2422 -0.5953
36805SOL    HW212423  10.501   1.701   4.980 -1.9959  1.3742  2.8351
36806SOL     OW12424   9.264   8.386   7.819  0.0053 -0.8081  0.3152
36806SOL    HW112425   9.268   8.463   7.876 -1.1939 -0.2991 -0.2320
36806SOL    HW212426   9.354   8.356   7.813  0.8450  1.6294 -0.8556
36807SOL     OW12427   5.297   6.089   5.929 -0.2469  1.0376 -0.4150
36807SOL    HW112428   5.392   6.095   5.926  0.0294  0.2123  2.8559
36807SOL    HW212429   5.279   5.995   5.935 -1.2618  1.1910 -0.8881
36808SOL     OW12430   6.443   8.441  10.172  0.2603  0.1307  0.2166
36808SOL    HW112431   6.384   8.367  10.158  1.2442 -1.1536  2.3561
36808SOL    HW212432   6.530   8.408  10.147  0.2735  1.8674 -2.5140
36809SOL     OW12433   9.632   5.821   5.767 -0.0011  0.2499  0.5118
36809SOL    HW112434   9.590   5.905   5.752  1.5624  0.6193 -2.6387
36809SOL    HW212435   9.712   5.843   5.815  0.8215  0.7443 -1.0236
36810SOL     OW12436   6.884   1.552   5.256  0.0158 -0.5232  0.4216
36810SOL    HW112437   6.933   1.507   5.188 -0.0846  0.8522 -0.6040
36810SOL    HW212438   6.865   1.485   5.321  1.9683 -1.4065  0.1287
36811SOL     OW12439   3.392   9.941   6.090 -0.4992  0.3993 -0.5214
36811SOL    HW112440   3.483   9.918   6.070 -0.1078 -0.1014  1.6583
36811SOL    HW212441   3.371  10.010   6.027  2.2823  2.4757  0.6064
36812SOL     OW12442   4.393   1.572   4.463  0.0188  0.6998  0.4048
36812SOL    HW112443   4.418   1.506   4.398 -1.4773  1.0488 -0.5520
36812SOL    HW212444   4.444   1.649   4.440  1.1178  0.1855  1.0005
36813SOL     OW12445   7.358   1.980  10.076  0.1173 -0.0803  0.5754
36813SOL    HW112446   7.332   1.973  10.168 -0.3698 -2.1941  0.3376
36813SOL    HW212447   7.430   1.918  10.066 -1.2770 -1.5637 -0.9087
36814SOL     OW12448   3.332   5.057  10.938 -0.0882  0.2938 -0.8924
36814SOL    HW112449   3.404   4.993  10.946  2.5488  3.2376  2.0685
36814SOL    HW212450   3.274   5.036  11.011  1.0983  1.4462  0.4596
36815SOL     OW12451   5.032   6.399  10.600 -0.1673 -0.8588 -0.3033
36815SOL    HW112452   4.998   6.349  10.525  0.4138 -2.3288  0.3822
36815SOL    HW212453   5.031   6.337  10.672  1.8051 -0.2643  0.2824
36816SOL     OW12454  10.087   6.034   1.739  0.2753  0.3203  0.6160
36816SOL    HW112455  10.155   5.973   1.713  0.0972  1.4553 -3.1076
36816SOL    HW212456  10.023   5.980   1.787  2.8365 -1.0873  2.6882
36817SOL     OW12457   5.078   0.653   4.248 -0.1355  0.0925  0.3889
36817SOL    HW112458   5.140   0.670   4.319  2.7876 -1.6839 -1.4970
36817SOL    HW212459   5.052   0.561   4.260 -0.0067 -0.0744 -0.5276
36818SOL     OW12460   6.983   9.766   0.912 -0.6604  0.5447  0.4225
36818SOL    HW112461   6.955   9.746   1.001  0.6082 -0.2138  0.6797
36818SOL    HW212462   7.029   9.687   0.883  2.9240  2.3211  0.7934
36819SOL     OW12463   2.661   7.395   3.514 -0.0063  0.0965 -0.0374
36819SOL    HW112464   2.655   7.383   3.419  0.0417 -3.4423  0.2615
36819SOL    HW212465   2.631   7.485   3.529 -1.4054  0.3055 -3.2591
36820SOL     OW12466   5.606   2.452   8.719  0.3812  0.7824 -0.0237
36820SOL    HW112467   5.556   2.370   8.725  0.5507  0.7069  0.3684
36820SOL    HW212468   5.539   2.521   8.719  0.2829  0.6900  0.6564
36821SOL     OW12469   3.672   9.349   2.395 -0.1122 -0.1373  0.2282
36821SOL    HW112470   3.631   9.435   2.401 -1.4315 -0.6715 -0.6721
36821SOL    HW212471   3.617   9.292   2.449  0.1211 -0.6439 -0.0617
36822SOL     OW12472   6.304   8.750   5.668  0.4392  0.7911  0.6582
36822SOL    HW112473   6.269   8.814   5.606  0.1038 -0.2407 -0.2631
36822SOL    HW212474   6.288   8.665   5.626  5.1634  0.1952 -0.5691
36823SOL     OW12475   9.120   1.046   1.487  0.1481 -0.0912 -0.1042
36823SOL    HW112476   9.105   1.080   1.399 -1.3923 -1.6655 -0.5073
36823SOL    HW212477   9.046   1.080   1.539  2.5552  3.3210  1.4621
36824SOL     OW12478   0.938   2.235   8.586  0.4947 -0.2516 -0.0524
36824SOL    HW112479   0.887   2.155   8.601 -1.7223  1.1679  0.4483
36824SOL    HW212480   0.991   2.215   8.509 -2.1933 -1.2810 -1.7964
36825SOL     OW12481   2.900   1.714   3.087  0.7394  0.1849  0.0802
36825SOL    HW112482   2.821   1.764   3.066  0.9770  0.2230 -0.7422
36825SOL    HW212483   2.872   1.623   3.087  0.8371  0.1425 -0.9385
36826SOL     OW12484   6.631   9.090   3.341  0.0392  0.1084 -0.8420
36826SOL    HW112485   6.684   9.054   3.269 -1.1119 -0.4228 -1.4513
36826SOL    HW212486   6.548   9.042   3.336  0.0747 -0.2359  1.1103
36827SOL     OW12487  10.540   9.726   6.122  0.8440  0.3566  0.1011
36827SOL    HW112488  10.527   9.805   6.173  2.8952 -1.2768  3.4713
36827SOL    HW212489  10.609   9.748   6.060  1.0041  1.3631  0.6246
36828SOL     OW12490   2.781   0.612  10.016  0.3926  0.3111 -0.5972
36828SOL    HW112491   2.765   0.570  10.101  0.7128  2.7459  0.7455
36828SOL    HW212492   2.842   0.683  10.035 -1.0807  2.2008 -2.4727
36829SOL     OW12493   0.895   1.329   1.399  0.3780  0.2285 -0.0614
36829SOL    HW112494   0.896   1.425   1.391 -0.9718  0.2396 -0.2447
36829SOL    HW212495   0.850   1.299   1.321 -0.5184 -0.4756  0.7091
36830SOL     OW12496   1.960   6.925  10.755 -0.4670 -0.3918 -0.9320
36830SOL    HW112497   2.031   6.957  10.699  0.3936 -1.7370 -0.6385
36830SOL    HW212498   1.887   6.908  10.695 -1.0708  2.2628 -1.0812
36831SOL     OW12499   3.624   2.687   1.451 -0.4981  0.3112  0.6652
36831SOL    HW112500   3.582   2.682   1.536 -1.0201 -1.2653  0.3607
36831SOL    HW212501   3.554   2.666   1.388 -0.0050  0.8957 -0.0996
36832SOL     OW12502   0.032   2.795   3.591  0.8155  0.0250  0.3307
36832SOL    HW112503   0.062   2.818   3.503  2.7829 -1.0111  0.6829
36832SOL    HW212504   0.111   2.771   3.638 -0.3410 -0.5963  2.0495
36833SOL     OW12505   4.399   8.182  10.239  0.1650  0.1542 -0.8307
36833SOL    HW112506   4.367   8.251  10.296  0.4419 -0.2309 -0.2050
36833SOL    HW212507   4.447   8.122  10.297 -0.5224 -0.8556 -1.2749
36834SOL     OW12508   1.605   5.337   0.178 -0.3929 -0.1235  0.4023
36834SOL    HW112509   1.667   5.301   0.241  0.4183  0.5715  0.0220
36834SOL    HW212510   1.630   5.428   0.169 -1.0907  0.0157 -0.2267
36835SOL     OW12511   0.686   1.065   1.405 -0.0904 -0.5414  0.4756
36835SOL    HW112512   0.604   1.084   1.450  1.0423  1.2978  1.9122
36835SOL    HW212513   0.682   1.116   1.324 -0.6119 -0.9955  0.2072
36836SOL     OW12514   9.422  10.503   3.154  0.1783 -0.4211 -0.0155
36836SOL    HW112515   9.362  10.572   3.183  0.3434 -0.5771  0.7146
36836SOL    HW212516   9.494  10.505   3.217 -1.0567 -2.9880  1.6339
36837SOL     OW12517   7.622   4.374   9.926 -0.4385  0.0405  0.1197
36837SOL    HW112518   7.626   4.356   9.832  2.3246  2.6061 -0.4184
36837SOL    HW212519   7.672   4.303   9.967  1.0450  0.5364 -0.7551
36838SOL     OW12520   8.766  11.084   8.864 -0.0231  0.1853 -0.5183
36838SOL    HW112521   8.713  11.075   8.784  0.7076  0.2503 -1.0199
36838SOL    HW212522   8.834  11.147   8.840  0.3546  0.0080  0.0808
36839SOL     OW12523  10.969   0.786   9.711  0.0385  0.2931 -0.3660
36839SOL    HW112524  10.874   0.778   9.715  0.0095 -2.1064 -2.9760
36839SOL    HW212525  11.003   0.707   9.753  0.8834  0.6933 -0.2581
36840SOL     OW12526   7.424  10.696  10.816 -0.1012 -0.2701 -0.1297
36840SOL    HW112527   7.519  10.710  10.825 -0.2010  1.2717 -1.0356
36840SOL    HW212528   7.387  10.784  10.823 -1.2760 -0.5874 -1.8391
36841SOL     OW12529   7.093  10.908  10.538  0.2657  0.1551  0.2527
36841SOL    HW112530   7.183  10.888  10.513 -0.5891  0.6086 -3.7952
36841SOL    HW212531   7.099  10.995  10.579  1.6631  0.1450  0.1324
36842SOL     OW12532   7.646   1.194   5.454 -0.0303  0.0549  0.0642
36842SOL    HW112533   7.574   1.251   5.479 -0.5285  0.0208 -1.2091
36842SOL    HW212534   7.714   1.210   5.520 -1.7734 -1.1707  2.3105
36843SOL     OW12535  10.872   4.233   7.233  0.0189  0.0594 -0.2772
36843SOL    HW112536  10.780   4.217   7.212  0.4755 -0.5116 -2.0135
36843SOL    HW212537  10.911   4.146   7.240  0.6173  0.2960 -0.5268
36844SOL     OW12538   2.527   9.292   2.258 -0.1241  0.0222  0.6705
36844SOL    HW112539   2.534   9.372   2.311  0.7266  0.7698 -0.5148
36844SOL    HW212540   2.465   9.316   2.189 -0.6366 -0.6942  0.8697
36845SOL     OW12541   8.740   1.431   0.357  0.7186  0.1872 -0.3368
36845SOL    HW112542   8.650   1.441   0.388  0.9324 -0.7946  0.6614
36845SOL    HW212543   8.784   1.381   0.426  2.0720  0.7750 -0.7401
36846SOL     OW12544   4.030   8.427   4.650 -0.0995  0.4648  0.5978
36846SOL    HW112545   4.104   8.472   4.691  1.1755 -0.4647 -0.5931
36846SOL    HW212546   3.989   8.494   4.595  2.3980  0.0970 -1.9757
36847SOL     OW12547   6.030   7.010   3.737 -0.0498  0.3904 -0.3732
36847SOL    HW112548   5.994   7.086   3.783 -0.8355  0.1232 -0.5463
36847SOL    HW212549   6.053   7.042   3.650 -2.3837 -0.0403 -1.2034
36848SOL     OW12550   3.775   0.826   0.582 -0.1798 -0.4662 -0.6813
36848SOL    HW112551   3.755   0.739   0.546 -4.3852  0.2228 -0.5376
36848SOL    HW212552   3.764   0.815   0.677  1.2170 -0.1510 -0.4676
36849SOL     OW12553   5.272   5.515   3.137  0.4448  0.3347  0.0401
36849SOL    HW112554   5.276   5.589   3.197  1.8495 -0.9582  1.6552
36849SOL    HW212555   5.314   5.443   3.185 -0.5393 -1.4194 -1.5845
36850SOL     OW12556   9.595   5.140   2.511 -0.0184  0.3042 -0.3721
36850SOL    HW112557   9.556   5.064   2.467 -0.8765 -0.8413  2.1643
36850SOL    HW212558   9.522   5.179   2.558  1.1457  0.3710  1.4576
36851SOL     OW12559   2.896   2.643   6.692  0.0593 -0.3034  0.2646
36851SOL    HW112560   2.843   2.703   6.744  1.2964  1.6214 -0.5877
36851SOL    HW212561   2.951   2.598   6.756 -0.1911  0.1978  0.8392
36852SOL     OW12562   9.136   3.935   9.115 -0.6204  0.3444  0.8839
36852SOL    HW112563   9.075   3.950   9.187 -3.1504 -1.1678 -0.7641
36852SOL    HW212564   9.082   3.942   9.036  1.2196 -1.5540 -0.6729
36853SOL     OW12565   1.706   8.850   5.713  0.0936 -0.1700 -0.2370
36853SOL    HW112566   1.690   8.916   5.645  0.6170 -1.6132 -1.8381
36853SOL    HW212567   1.791   8.813   5.690 -0.7966 -2.3436 -0.2164
36854SOL     OW12568   7.546  10.322   9.864  0.0816 -0.0413 -0.1411
36854SOL    HW112569   7.564  10.232   9.836  0.2191 -0.3150  0.8108
36854SOL    HW212570   7.621  10.372   9.833  0.1048 -0.2873 -0.4918
36855SOL     OW12571   1.258   7.437   9.227 -0.7096 -0.5971 -0.0167
36855SOL    HW112572   1.220   7.499   9.165  0.3810 -0.1813 -0.2888
36855SOL    HW212573   1.342   7.475   9.251 -0.2412 -1.7172  0.1899
36856SOL     OW12574   2.956   4.894   2.097  0.3883  0.3633 -0.4693
36856SOL    HW112575   2.921   4.916   2.011  0.2066  0.7123 -0.3108
36856SOL    HW212576   2.934   4.802   2.110  0.9719  0.1373 -1.0599
36857SOL     OW12577   9.156   7.503  10.906 -0.0553 -0.4557  0.2552
36857SOL    HW112578   9.091   7.553  10.956  0.8589  1.5808 -0.4892
36857SOL    HW212579   9.202   7.451  10.972 -2.0872 -1.6037  0.8522
36858SOL     OW12580  10.656   2.782   7.235 -0.2340  0.5192  0.0972
36858SOL    HW112581  10.744   2.795   7.270 -0.2567  0.0076  0.3501
36858SOL    HW212582  10.615   2.719   7.294 -0.7772  0.7671 -0.0091
36859SOL     OW12583  10.404   6.355   1.313 -0.3580 -0.1634  0.2618
36859SOL    HW112584  10.428   6.442   1.280  1.4253 -0.3916  0.8487
36859SOL    HW212585  10.485   6.320   1.349 -1.7483 -0.7608  3.0596
36860SOL     OW12586  10.060   2.415   4.399 -0.6398  0.7964 -0.0315
36860SOL    HW112587  10.099   2.380   4.479 -0.1976 -0.0583 -0.6067
36860SOL    HW212588   9.966   2.403   4.412 -0.6716  1.8072  0.8698
36861SOL     OW12589   6.947   3.147  10.434  0.4705  0.2098  0.1329
36861SOL    HW112590   6.915   3.121  10.520 -0.4322 -2.0813 -0.8160
36861SOL    HW212591   6.868   3.166  10.384  0.9304  0.6366 -0.4446
36862SOL     OW12592   3.001   3.091   9.749 -0.4067  0.0132  1.0845
36862SOL    HW112593   3.063   3.021   9.766  0.0348 -0.6414 -2.4499
36862SOL    HW212594   3.049   3.154   9.695 -1.9536  0.9848  0.7427
36863SOL     OW12595   2.213   9.660   4.001  0.0027  0.0472  0.0072
36863SOL    HW112596   2.189   9.569   3.988 -0.6645 -0.3495  3.1160
36863SOL    HW212597   2.194   9.703   3.918 -0.6672 -2.4213 -1.1887
36864SOL     OW12598   0.151   6.985   5.971 -0.2843  0.1214  0.0825
36864SOL    HW112599   0.234   6.938   5.973 -0.9564 -1.1322  0.0697
36864SOL    HW212600   0.151   7.031   5.887  0.7748  0.8778  0.4870
36865SOL     OW12601   2.347  10.756   6.486  0.1279  0.1527  0.3293
36865SOL    HW112602   2.254  10.772   6.501  0.2854  2.0420 -0.4572
36865SOL    HW212603   2.361  10.781   6.395  1.5464  0.5993  0.6437
36866SOL     OW12604   3.731  10.546   5.349  0.2588  0.2153  0.0800
36866SOL    HW112605   3.793  10.524   5.418 -0.1578 -1.0805  0.0606
36866SOL    HW212606   3.760  10.496   5.273 -1.5443 -1.4977  0.4477
36867SOL     OW12607   9.204   4.910   5.801 -0.1394 -0.1226  0.3696
36867SOL    HW112608   9.116   4.943   5.818 -0.5844 -0.4802 -1.0899
36867SOL    HW212609   9.241   4.895   5.888 -2.2301 -1.8335  1.0644
36868SOL     OW12610  10.932   1.822   1.013 -0.5029 -0.6340 -0.0508
36868SOL    HW112611  10.936   1.727   1.020  0.5793 -0.5011  1.9656
36868SOL    HW212612  11.015   1.847   0.974 -1.4104 -0.5372 -2.0955
36869SOL     OW12613   8.306   6.013   5.671 -0.2376 -0.2731 -0.2953
36869SOL    HW112614   8.378   6.050   5.722 -2.9022  1.9404  2.1544
36869SOL    HW212615   8.257   5.961   5.734 -1.5954 -0.5610 -1.5477
36870SOL     OW12616   3.127   9.812   8.811 -0.0480 -0.4416 -0.2899
36870SOL    HW112617   3.197   9.863   8.853 -0.7741 -0.9705  1.6625
36870SOL    HW212618   3.133   9.836   8.718  2.4091 -0.1313 -0.1165
36871SOL     OW12619   3.256   8.992   9.172  0.4169  0.0271 -0.1205
36871SOL    HW112620   3.235   9.024   9.084  2.7889  1.7931 -0.1463
36871SOL    HW212621   3.283   8.901   9.159 -2.5305 -0.9085 -0.6343
36872SOL     OW12622   9.750   7.683   7.383 -0.0791  0.3376 -0.3821
36872SOL    HW112623   9.719   7.603   7.423  2.8102 -0.0571  1.3876
36872SOL    HW212624   9.806   7.723   7.450 -0.5229  3.2781 -1.6126
36873SOL     OW12625   0.162   5.858   1.131 -0.4520 -0.0652  0.3211
36873SOL    HW112626   0.196   5.942   1.102  2.4099 -1.1273  0.3094
36873SOL    HW212627   0.220   5.831   1.202 -2.1923 -1.3914  1.3428
36874SOL     OW12628   0.096   1.321  10.541  0.2564  0.1263 -0.4587
36874SOL    HW112629   0.072   1.269  10.619  1.9013  2.3465  1.6962
36874SOL    HW212630   0.170   1.273  10.503 -0.5726 -1.0007 -0.7116
36875SOL     OW12631   8.362   6.560   4.836  1.0179 -0.4896 -0.2360
36875SOL    HW112632   8.400   6.569   4.749  1.4779  0.8795  0.0807
36875SOL    HW212633   8.285   6.617   4.835  2.0007  0.9159  0.7673
36876SOL     OW12634   3.123   4.814  11.009  0.1486 -0.1598 -0.6503
36876SOL    HW112635   3.098   4.752  11.077  0.1495  0.8933  0.3309
36876SOL    HW212636   3.202   4.776  10.970  0.9264 -0.1177  0.8358
36877SOL     OW12637  10.332   4.425   6.706 -0.7514 -0.0030 -0.2486
36877SOL    HW112638  10.365   4.343   6.669  1.5342 -0.1967  1.8945
36877SOL    HW212639  10.355   4.492   6.642 -1.8844 -0.8828 -1.6310
36878SOL     OW12640   1.250   2.811   6.534 -0.6273 -0.0292 -0.3153
36878SOL    HW112641   1.192   2.789   6.461  0.2464 -1.4776 -0.6250
36878SOL    HW212642   1.215   2.762   6.608 -1.4262  1.3247  0.2343
36879SOL     OW12643   6.648   3.889   6.866 -0.2463 -0.3090  0.6869
36879SOL    HW112644   6.660   3.975   6.906 -0.9504  0.7421 -1.2127
36879SOL    HW212645   6.719   3.835   6.903  2.4871  2.0825 -0.6361
36880SOL     OW12646   9.468   6.830   9.419 -0.1508  0.3046 -0.4769
36880SOL    HW112647   9.449   6.904   9.477 -3.2004  0.0636 -0.9636
36880SOL    HW212648   9.423   6.852   9.337 -1.8687 -2.3673 -0.3791
36881SOL     OW12649   2.928   0.649  10.882  0.5224  0.0454  0.1216
36881SOL    HW112650   2.916   0.714  10.813 -1.6263 -1.8693 -1.4450
36881SOL    HW212651   3.017   0.615  10.869  0.8268  1.0371 -0.4643
36882SOL     OW12652   2.428   1.458   6.290 -0.3709  0.1666  0.1384
36882SOL    HW112653   2.519   1.487   6.287 -0.8917  2.3553  2.1882
36882SOL    HW212654   2.381   1.524   6.239 -1.0570  0.3833  1.0227
36883SOL     OW12655   1.153   5.240   5.371 -0.7496  0.8922  0.4597
36883SOL    HW112656   1.090   5.236   5.299  0.5893  1.4108 -0.7801
36883SOL    HW212657   1.207   5.316   5.352  3.0322 -1.8157 -0.9638
36884SOL     OW12658  10.143   8.701   2.994 -0.0916  0.3948 -0.8082
36884SOL    HW112659  10.050   8.723   2.986  0.3737  1.8456 -3.1412
36884SOL    HW212660  10.143   8.614   3.034 -2.4649  0.1793 -1.1123
36885SOL     OW12661   6.155   5.200   6.000  0.2301  0.0765  0.5330
36885SOL    HW112662   6.132   5.279   6.048 -0.9983  0.4683 -0.6169
36885SOL    HW212663   6.239   5.173   6.035  2.0692  3.4354 -0.8847
36886SOL     OW12664   4.221   0.458  10.786 -0.0645  0.1501  0.1345
36886SOL    HW112665   4.305   0.501  10.800  0.9371 -1.6009 -0.1575
36886SOL    HW212666   4.169   0.479  10.863  0.3950  1.7713  0.0311
36887SOL     OW12667   2.036   3.192   9.940 -0.3724  0.3687 -0.3143
36887SOL    HW112668   2.013   3.264   9.882  0.0076  0.8624  0.1418
36887SOL    HW212669   2.132   3.192   9.941 -0.3755  0.2845  0.2212
36888SOL     OW12670   7.868   1.778   9.186 -0.4902  0.4447  0.9165
36888SOL    HW112671   7.837   1.754   9.099  2.2015  2.7907 -0.8753
36888SOL    HW212672   7.944   1.722   9.201  0.3687  1.5315  0.7319
36889SOL     OW12673   8.050   0.223   5.904  1.0004 -0.1159  0.2948
36889SOL    HW112674   8.092   0.307   5.919 -2.9894  2.2961 -0.5132
36889SOL    HW212675   8.068   0.204   5.812 -0.8492  1.7947 -0.5535
36890SOL     OW12676   0.655   0.654   8.031  0.2136 -0.2307  0.3855
36890SOL    HW112677   0.579   0.670   7.975  0.6011 -2.6071 -0.9525
36890SOL    HW212678   0.640   0.568   8.069  0.6985  0.6882  2.8621
36891SOL     OW12679   8.609   0.101   0.541 -0.2105 -0.5782  0.7032
36891SOL    HW112680   8.703   0.116   0.555 -0.2068  1.2820 -0.9646
36891SOL    HW212681   8.567   0.142   0.617  0.1477  3.1703 -0.9182
36892SOL     OW12682   4.320   9.345   6.600  0.0773 -0.4923 -0.1778
36892SOL    HW112683   4.253   9.279   6.582  1.1207 -1.4930 -0.5251
36892SOL    HW212684   4.402   9.304   6.573  0.7322  1.0544 -0.6719
36893SOL     OW12685   6.608   7.189   8.897 -0.0723 -0.0293  0.4659
36893SOL    HW112686   6.593   7.231   8.982  1.8907  1.8234  0.0059
36893SOL    HW212687   6.607   7.261   8.834  0.9147 -1.0112 -0.7384
36894SOL     OW12688   1.441  11.004  10.237 -0.1109 -0.2164 -0.2726
36894SOL    HW112689   1.355  11.044  10.223 -0.0487  0.2858  0.6846
36894SOL    HW212690   1.458  11.015  10.330  0.3315 -1.6681 -0.1521
36895SOL     OW12691   3.055   7.302   7.045 -0.6763  0.3285 -0.1390
36895SOL    HW112692   3.007   7.317   6.964  0.2158  2.3985 -0.3325
36895SOL    HW212693   3.091   7.387   7.068  1.7509 -0.8567  0.7416
36896SOL     OW12694   7.752   2.689   6.755 -0.1270 -0.0608 -0.3078
36896SOL    HW112695   7.692   2.761   6.776  1.7825  1.6536 -0.4210
36896SOL    HW212696   7.781   2.708   6.666 -0.5612 -1.7200 -0.8237
36897SOL     OW12697   8.471   8.248   7.414  0.4556 -0.2539  0.0220
36897SOL    HW112698   8.426   8.229   7.497  1.2811 -0.3265  0.4633
36897SOL    HW212699   8.496   8.340   7.421  1.3531 -0.5047  0.2670
36898SOL     OW12700   2.599   9.361  11.097  0.1244  0.4600  0.0128
36898SOL    HW112701   2.596   9.441  11.046 -2.7471  0.1293 -0.5137
36898SOL    HW212702   2.650   9.383  11.175  3.1970  1.4357 -2.1174
36899SOL     OW12703   3.230   2.727   2.117  0.8450  0.4838 -0.2825
36899SOL    HW112704   3.197   2.716   2.206  2.6921  0.4494  0.4462
36899SOL    HW212705   3.320   2.759   2.129  1.4729 -0.4618 -2.1005
36900SOL     OW12706   9.853   8.312   4.332  0.1264  0.2820  0.0761
36900SOL    HW112707   9.946   8.292   4.322  0.4348  1.3356  0.5990
36900SOL    HW212708   9.809   8.227   4.334  1.2063 -0.2713  1.0175
36901SOL     OW12709   0.877   4.347   5.891  0.0035  0.1570 -0.1777
36901SOL    HW112710   0.833   4.262   5.897 -2.1823  1.1427 -1.0738
36901SOL    HW212711   0.871   4.371   5.799 -0.4906  1.7749  0.2312
36902SOL     OW12712   9.301   0.155   7.169 -0.4091  0.0252  0.0271
36902SOL    HW112713   9.369   0.163   7.236 -0.5966 -0.2789  0.2571
36902SOL    HW212714   9.275   0.245   7.151  0.6322  0.2031 -0.6743
36903SOL     OW12715   7.291   2.720   8.376  0.5867 -0.2483  0.3507
36903SOL    HW112716   7.271   2.787   8.311  0.5814 -1.2154 -0.6850
36903SOL    HW212717   7.386   2.722   8.385  1.0452 -2.5284 -2.5030
36904SOL     OW12718   2.122   0.058   9.696  0.2370  0.3663  0.2635
36904SOL    HW112719   2.070  -0.021   9.677 -2.2412  1.6472  1.2107
36904SOL    HW212720   2.116   0.111   9.617  0.3198  0.3994  0.2784
36905SOL     OW12721   1.930   1.362   0.534  0.0607 -0.3276  0.3096
36905SOL    HW112722   1.876   1.415   0.476 -2.2896 -1.7957  1.0245
36905SOL    HW212723   1.911   1.272   0.510  0.9352 -0.9334  1.7268
36906SOL     OW12724   8.473   4.903  10.984 -0.0341  0.0925 -0.3393
36906SOL    HW112725   8.493   4.859  10.901 -0.0112  0.2612 -0.4232
36906SOL    HW212726   8.421   4.980  10.959  0.4658  0.4645 -0.2536
36907SOL     OW12727   9.063   0.633   3.139 -0.2721 -0.9201 -0.1664
36907SOL    HW112728   8.970   0.611   3.146 -1.1672  1.7767 -2.0082
36907SOL    HW212729   9.084   0.671   3.224 -1.1542 -0.5975 -0.0733
36908SOL     OW12730   8.390   7.117   1.635 -0.1051  0.4440  0.2028
36908SOL    HW112731   8.474   7.145   1.670 -0.9426  1.7519  1.2779
36908SOL    HW212732   8.356   7.194   1.589 -0.8071  0.0098 -0.0242
36909SOL     OW12733   9.634   7.969   4.929  0.7904  0.1938  0.6206
36909SOL    HW112734   9.653   7.887   4.975 -1.4460 -1.4902 -1.2134
36909SOL    HW212735   9.568   8.013   4.984  1.6284  0.5515  1.3574
36910SOL     OW12736   8.386  10.803   5.240  0.4599  0.0645  0.1300
36910SOL    HW112737   8.358  10.719   5.276  3.4353 -1.5275 -0.9691
36910SOL    HW212738   8.427  10.848   5.315 -0.3343  0.1666  0.5111
36911SOL     OW12739   5.520   0.166   3.250 -0.1530 -0.4137 -0.3776
36911SOL    HW112740   5.456   0.165   3.321  0.6718 -1.5856  0.3824
36911SOL    HW212741   5.520   0.076   3.217  0.5656 -0.2462 -0.8511
36912SOL     OW12742   2.037   0.545   3.582  1.0114 -0.3552  0.5806
36912SOL    HW112743   1.969   0.489   3.618  0.8848  0.5972  1.8857
36912SOL    HW212744   2.118   0.512   3.620  0.9319  0.3562  1.3868
36913SOL     OW12745   4.541   0.975   3.790  0.1593  0.6617  0.1784
36913SOL    HW112746   4.601   0.960   3.864  0.2649 -0.5115 -0.1148
36913SOL    HW212747   4.504   1.061   3.806 -0.6765 -0.0022  2.2396
36914SOL     OW12748   2.328   4.080   4.019 -0.8697 -0.5190  0.0643
36914SOL    HW112749   2.352   3.997   4.060 -2.1413 -1.6612 -1.4131
36914SOL    HW212750   2.411   4.128   4.014 -0.4224 -0.8548  2.6604
36915SOL     OW12751   7.206   1.321   3.364  0.2368  0.0618  0.6810
36915SOL    HW112752   7.263   1.393   3.391 -1.5350  1.4955  0.8017
36915SOL    HW212753   7.245   1.287   3.283  1.4750  0.6967  0.9992
36916SOL     OW12754  10.216   3.632  10.971  0.9758 -0.3045  0.0661
36916SOL    HW112755  10.195   3.570  11.041  0.6877  0.6338  0.8151
36916SOL    HW212756  10.133   3.646  10.926  0.7725  0.5263  0.6976
36917SOL     OW12757  10.589   9.286   2.968 -0.8489  0.5719  0.2577
36917SOL    HW112758  10.616   9.227   3.039 -2.7378 -0.7990 -0.1013
36917SOL    HW212759  10.597   9.373   3.006  1.6722  0.1323  0.9230
36918SOL     OW12760   2.855   2.499   4.600  0.5158 -0.0857  0.2905
36918SOL    HW112761   2.897   2.564   4.543 -0.0387  0.4288  0.4598
36918SOL    HW212762   2.916   2.488   4.672 -0.2825  1.8119  1.3269
36919SOL     OW12763   0.131   4.218   9.614  0.4149 -0.0366  0.6603
36919SOL    HW112764   0.166   4.168   9.688  2.1954 -0.4037 -0.3628
36919SOL    HW212765   0.205   4.227   9.554 -1.2471 -0.8938 -1.6922
36920SOL     OW12766   2.442   0.194   1.751  0.0599  0.5083 -0.2707
36920SOL    HW112767   2.354   0.159   1.763 -0.4542  1.7694 -0.2217
36920SOL    HW212768   2.500   0.130   1.793 -0.7919 -0.4991 -0.5938
36921SOL     OW12769   7.500   3.467   7.139 -0.2650  0.0105 -0.1634
36921SOL    HW112770   7.570   3.532   7.139  0.1806 -0.3714  2.5809
36921SOL    HW212771   7.529   3.402   7.074  2.1486 -0.3013  1.1041
36922SOL     OW12772   3.074   1.846   0.567  0.1367 -0.5538 -0.4071
36922SOL    HW112773   3.095   1.888   0.650 -0.5273 -1.8748  0.4660
36922SOL    HW212774   2.981   1.867   0.553  0.2016 -0.4795 -0.7421
36923SOL     OW12775   2.689   2.169   5.039  0.1008 -0.6015  0.0295
36923SOL    HW112776   2.600   2.162   5.076 -0.1221 -0.7750 -0.5368
36923SOL    HW212777   2.744   2.188   5.115 -0.3724 -0.8330  0.4400
36924SOL     OW12778   8.684   4.889   2.815  0.2742  0.5313  0.4846
36924SOL    HW112779   8.682   4.922   2.904 -0.1769  1.9253 -0.0122
36924SOL    HW212780   8.638   4.956   2.763  2.0761  0.6832 -1.0628
36925SOL     OW12781   8.631   7.626   1.087  0.4253 -0.1191  0.2328
36925SOL    HW112782   8.719   7.661   1.099  0.8425 -1.1562  0.2943
36925SOL    HW212783   8.638   7.567   1.013  0.4220 -2.2308  1.8254
36926SOL     OW12784   5.929   1.536   7.173 -0.8743 -0.2947  0.1476
36926SOL    HW112785   5.947   1.534   7.268  0.7363  0.7735 -0.0966
36926SOL    HW212786   5.854   1.594   7.164  0.0028  0.9503  0.6552
36927SOL     OW12787   6.096   9.849   0.301 -0.2102  0.3227 -0.3364
36927SOL    HW112788   6.135   9.762   0.291  0.0868  0.0047  2.6318
36927SOL    HW212789   6.010   9.842   0.258 -0.0662 -1.3475 -0.4271
36928SOL     OW12790   9.752   0.154   3.590 -0.2811  0.3780  0.5946
36928SOL    HW112791   9.661   0.170   3.616 -0.0082  1.4891  0.9464
36928SOL    HW212792   9.777   0.234   3.543 -0.1687 -0.8209 -1.4607
36929SOL     OW12793   5.785   0.349   6.288  0.3058  0.8308 -0.1557
36929SOL    HW112794   5.825   0.393   6.213 -1.5160  2.2774 -0.3645
36929SOL    HW212795   5.828   0.264   6.293  2.3054  1.7287 -1.2134
36930SOL     OW12796   5.317   2.163  10.647  0.2039 -0.2839 -0.1763
36930SOL    HW112797   5.315   2.142  10.554 -2.1251 -4.2235  0.4999
36930SOL    HW212798   5.290   2.254  10.652  1.7452  0.4973 -3.3341
36931SOL     OW12799   8.694  10.216   6.863 -0.2004 -0.4697  0.3541
36931SOL    HW112800   8.598  10.223   6.860 -0.0658  1.5158 -1.1671
36931SOL    HW212801   8.720  10.200   6.773  1.0147  2.0034  0.1913
36932SOL     OW12802   0.817   6.535   9.666  0.4784 -0.5394 -0.0533
36932SOL    HW112803   0.793   6.443   9.652  1.6738 -1.1602  1.7299
36932SOL    HW212804   0.792   6.553   9.756  0.9886  0.6539 -0.1330
36933SOL     OW12805   0.750   8.481   6.844 -0.4086 -0.6693 -0.2734
36933SOL    HW112806   0.659   8.484   6.814 -0.9147 -1.0378  1.1655
36933SOL    HW212807   0.779   8.392   6.826 -0.3845 -0.6130 -0.5300
36934SOL     OW12808   3.935   8.571   0.446  0.0605  0.4628 -0.2891
36934SOL    HW112809   4.020   8.614   0.451  0.1474  0.2358  0.2504
36934SOL    HW212810   3.934   8.530   0.360  2.2061 -2.9887  1.1170
36935SOL     OW12811   6.530   1.105   8.027 -0.2743  0.9573  1.0247
36935SOL    HW112812   6.585   1.028   8.013 -1.9303 -0.5407  2.4048
36935SOL    HW212813   6.466   1.102   7.956  2.2603  3.6937 -1.6831
36936SOL     OW12814   5.957   7.486   1.199 -0.3361  0.3515 -0.3823
36936SOL    HW112815   5.924   7.576   1.207 -1.0409  0.4413 -3.2910
36936SOL    HW212816   6.050   7.493   1.219 -0.4666  1.6506 -0.1335
36937SOL     OW12817   3.463   0.315  11.004 -0.3636 -0.5333  0.0662
36937SOL    HW112818   3.410   0.238  10.983  1.3468 -1.4035 -1.3150
36937SOL    HW212819   3.507   0.337  10.922 -0.4297  1.6536  0.5584
36938SOL     OW12820   2.003   1.764  10.833  0.5622 -0.1846 -0.6496
36938SOL    HW112821   2.036   1.675  10.847 -0.2667 -0.1640  2.1523
36938SOL    HW212822   1.916   1.764  10.873 -1.0494  0.9868 -3.8245
36939SOL     OW12823   6.210   1.517   6.280  0.4954  0.5340  0.7066
36939SOL    HW112824   6.171   1.460   6.214 -0.5220 -0.3372  2.0010
36939SOL    HW212825   6.291   1.548   6.240  0.2633 -0.5313 -0.6703
36940SOL     OW12826   7.955   9.902   6.486 -1.0959 -0.0980 -0.0360
36940SOL    HW112827   8.003   9.952   6.552  1.3621 -0.3434 -1.5460
36940SOL    HW212828   7.896   9.966   6.446  0.6253  1.1814 -0.6241
36941SOL     OW12829   2.942   2.527   0.233 -0.5520  0.4146 -0.1084
36941SOL    HW112830   2.957   2.549   0.325 -1.3926 -1.4198  0.5049
36941SOL    HW212831   2.861   2.476   0.233  0.5053 -1.3667 -1.6089
36942SOL     OW12832  10.189   7.147   9.062  0.3904  0.1201  0.0194
36942SOL    HW112833  10.160   7.185   9.145  1.4577  0.5307  0.2097
36942SOL    HW212834  10.228   7.220   9.014 -0.3946 -0.0626 -0.9454
36943SOL     OW12835   5.002   6.133   3.303 -0.2936 -0.0887 -0.5183
36943SOL    HW112836   4.993   6.151   3.397  0.0568 -1.5569 -0.1783
36943SOL    HW212837   5.096   6.136   3.287 -0.3409 -0.0274 -0.7929
36944SOL     OW12838   2.648   7.629   9.833  0.3223 -0.5146 -0.7759
36944SOL    HW112839   2.606   7.574   9.900  0.4323  2.5907  2.0756
36944SOL    HW212840   2.729   7.583   9.812  2.2584 -0.0411  4.1945
36945SOL     OW12841   3.458   7.155   4.336  0.3888 -0.2317  0.2813
36945SOL    HW112842   3.468   7.060   4.340  0.3714 -0.2239  0.5554
36945SOL    HW212843   3.377   7.173   4.384  0.3719 -0.0826  0.1973
36946SOL     OW12844   0.734   0.311   8.928 -0.3922  0.0044  1.0165
36946SOL    HW112845   0.683   0.386   8.898 -2.0270 -0.7510  1.7900
36946SOL    HW212846   0.799   0.296   8.859 -1.9266  0.3357 -0.5404
36947SOL     OW12847   8.956   2.377   3.971  0.1324 -0.0901  0.0356
36947SOL    HW112848   8.895   2.316   4.012  0.7282  1.0405  2.8428
36947SOL    HW212849   8.905   2.457   3.956  0.6842  0.6597  1.8573
36948SOL     OW12850   0.815   6.286   6.156 -0.2137 -0.1120 -0.1267
36948SOL    HW112851   0.777   6.373   6.156  1.4216  0.6342  0.4405
36948SOL    HW212852   0.800   6.253   6.244  2.0787  0.9843  0.7567
36949SOL     OW12853  10.994   8.624   0.932  0.7333 -0.6713 -0.0107
36949SOL    HW112854  11.081   8.663   0.922  0.3011  0.5991  0.8930
36949SOL    HW212855  10.945   8.689   0.984 -1.5052 -0.2122 -2.5035
36950SOL     OW12856   6.947   1.274   5.741  0.5064 -0.6853  0.2147
36950SOL    HW112857   6.901   1.190   5.739  1.4271 -1.1895  0.0255
36950SOL    HW212858   6.941   1.307   5.652 -2.8924  1.1603  0.9566
36951SOL     OW12859  10.551   7.827   9.071 -0.4285 -0.0548 -0.8330
36951SOL    HW112860  10.458   7.841   9.090 -0.5501 -0.8287 -0.8502
36951SOL    HW212861  10.592   7.813   9.157 -0.4320 -0.3303 -0.8757
36952SOL     OW12862   3.954   6.826   8.744  0.4549 -0.0299  1.1591
36952SOL    HW112863   4.022   6.850   8.681 -0.4593  0.3502  0.2925
36952SOL    HW212864   3.883   6.793   8.690  0.8717 -2.8597  2.1845
36953SOL     OW12865  10.494   0.255   0.217 -0.1484  0.2351 -0.1124
36953SOL    HW112866  10.555   0.322   0.247  1.5716 -1.5248  0.5254
36953SOL    HW212867  10.463   0.288   0.132  2.3994  0.8219 -0.9126
36954SOL     OW12868   7.128   9.895   4.004  0.2694  0.2269 -0.6686
36954SOL    HW112869   7.131   9.989   3.988  4.8779  0.5315  0.6777
36954SOL    HW212870   7.180   9.856   3.934 -0.9010 -1.3036 -0.7517
36955SOL     OW12871   8.263   0.082   3.329 -0.1789  0.1378  0.1220
36955SOL    HW112872   8.261   0.174   3.301 -0.2608 -0.1823 -0.9772
36955SOL    HW212873   8.185   0.073   3.384 -0.8697  0.4370 -0.7722
36956SOL     OW12874  10.143   0.343   4.659 -0.2596  0.2292  0.2933
36956SOL    HW112875  10.181   0.289   4.728  0.0870 -1.7193 -1.3250
36956SOL    HW212876  10.051   0.350   4.682 -0.7298 -2.6743 -0.3230
36957SOL     OW12877   2.763   4.022   1.306  0.2980 -0.0404  0.3103
36957SOL    HW112878   2.685   4.061   1.346  0.6287  1.9713 -0.8614
36957SOL    HW212879   2.837   4.064   1.350  0.8539 -2.8873  2.3434
36958SOL     OW12880   7.700   5.754   7.693 -0.3651 -0.5738  0.0075
36958SOL    HW112881   7.723   5.847   7.702  0.8742 -0.7862 -0.7486
36958SOL    HW212882   7.609   5.749   7.723 -0.8091  1.0651 -0.9244
36959SOL     OW12883   4.981   1.850   1.308  0.0899  0.0973  0.9492
36959SOL    HW112884   4.991   1.784   1.377  1.9978  0.6922  1.2981
36959SOL    HW212885   5.070   1.877   1.288 -0.4985  0.6947 -1.0473
36960SOL     OW12886   3.637   7.438   2.998 -0.4505  0.2105  0.3935
36960SOL    HW112887   3.628   7.376   2.925  3.2048  0.5253 -0.5102
36960SOL    HW212888   3.582   7.512   2.973 -0.3369 -0.2654 -1.3927
36961SOL     OW12889   7.784   2.916   5.430 -0.9130 -0.1125 -0.2891
36961SOL    HW112890   7.835   2.890   5.354  1.1323 -2.2786  1.6845
36961SOL    HW212891   7.784   3.012   5.427  0.4732 -0.1226 -2.1055
36962SOL     OW12892   9.457  10.964   8.708  0.1038  0.1644  0.6969
36962SOL    HW112893   9.547  10.941   8.684 -0.0721  1.3815 -1.3812
36962SOL    HW212894   9.463  11.056   8.735 -0.8831  1.3024 -2.5093
36963SOL     OW12895  11.012   2.354   3.876 -0.0395  0.3249  0.8183
36963SOL    HW112896  11.029   2.436   3.923  3.1432  1.2683 -1.5656
36963SOL    HW212897  10.926   2.365   3.837  0.4244  2.7721  0.3071
36964SOL     OW12898   7.236   8.922   3.501 -0.1885 -0.4700  0.6223
36964SOL    HW112899   7.268   8.939   3.590 -1.6746  0.8630  0.9498
36964SOL    HW212900   7.154   8.875   3.514 -0.7244  0.2638  0.0080
36965SOL     OW12901   9.649   6.625  10.442  0.6188 -1.0905 -0.0853
36965SOL    HW112902   9.625   6.713  10.413 -0.3115 -1.7931 -1.5352
36965SOL    HW212903   9.741   6.616  10.417  1.1910  0.0170  1.5046
36966SOL     OW12904   8.933   2.690   9.227 -0.4195  0.0144  0.7542
36966SOL    HW112905   9.004   2.640   9.268  0.9206  0.4432 -0.9539
36966SOL    HW212906   8.941   2.778   9.264  1.6490  0.7684 -1.3126
36967SOL     OW12907   9.894   8.830   0.620  0.1361  0.3183  0.7646
36967SOL    HW112908   9.989   8.843   0.608 -0.0378 -0.5278 -2.5527
36967SOL    HW212909   9.880   8.738   0.600 -1.5813  0.8076 -0.4603
36968SOL     OW12910   8.734   1.468   9.207 -0.0237  0.0139  0.0108
36968SOL    HW112911   8.669   1.451   9.275  1.4185  0.0657  1.4710
36968SOL    HW212912   8.722   1.396   9.145  0.3838 -1.6349  1.7191
36969SOL     OW12913  10.802   1.989   0.828  0.2735  0.2343  0.5462
36969SOL    HW112914  10.841   1.915   0.876 -1.9736 -1.9033 -0.6985
36969SOL    HW212915  10.810   2.063   0.887  0.5000 -1.5497  2.8793
36970SOL     OW12916   3.465   2.535   5.352  0.2672 -0.1300  0.0586
36970SOL    HW112917   3.384   2.503   5.314  0.6309 -0.0605 -0.8063
36970SOL    HW212918   3.493   2.466   5.412  0.7444 -1.1958 -1.3432
36971SOL     OW12919   9.178   9.124   8.848  0.0722  0.2991 -0.6962
36971SOL    HW112920   9.083   9.129   8.840 -0.0166 -0.7029 -0.4345
36971SOL    HW212921   9.207   9.215   8.850 -0.8887  0.6149 -0.6778
36972SOL     OW12922   7.025   4.091  10.016 -0.5106 -0.0357 -0.1307
36972SOL    HW112923   7.076   4.041  10.081  0.0254  0.3441 -0.2471
36972SOL    HW212924   7.013   4.030   9.943 -0.9809 -0.4149  0.2563
36973SOL     OW12925   3.818   4.729   7.250  0.3391  0.4607 -0.3689
36973SOL    HW112926   3.860   4.808   7.217 -1.0638  1.9502  1.2039
36973SOL    HW212927   3.751   4.708   7.185  0.6500  0.6006 -0.7389
36974SOL     OW12928   4.384   7.354   4.052  0.3406 -0.9071 -1.1293
36974SOL    HW112929   4.334   7.433   4.078  1.1822  0.0688 -2.3696
36974SOL    HW212930   4.328   7.311   3.988 -0.5312 -1.8516  0.2195
36975SOL     OW12931   4.198   9.266   3.358  0.0401  0.5226 -0.4949
36975SOL    HW112932   4.198   9.318   3.438  1.2135  2.8011 -1.8459
36975SOL    HW212933   4.211   9.331   3.288  1.3798 -1.5998 -2.3493
36976SOL     OW12934   0.015  10.433   1.076 -0.0086  0.1466 -0.2074
36976SOL    HW112935   0.074  10.383   1.019  0.1354 -0.3492  0.3608
36976SOL    HW212936  -0.072  10.401   1.054  0.0029  0.2954 -0.4773
36977SOL     OW12937   4.881   4.701   7.990  0.2774  0.6811 -0.2560
36977SOL    HW112938   4.910   4.640   7.922 -2.8129  0.0162 -1.1789
36977SOL    HW212939   4.909   4.662   8.072  0.3254 -0.8423 -0.9599
36978SOL     OW12940   8.966   9.396  10.030  0.3243 -0.1006 -0.4522
36978SOL    HW112941   8.898   9.402  10.098 -1.3886 -1.0488 -1.9872
36978SOL    HW212942   8.927   9.438   9.953  0.6797 -2.3153 -1.9309
36979SOL     OW12943   0.012   9.007   7.512 -0.2127  0.8818 -0.7217
36979SOL    HW112944   0.051   9.094   7.511 -2.8091  2.1488 -0.5778
36979SOL    HW212945  -0.047   9.006   7.437 -0.1319 -0.8156 -0.8044
36980SOL     OW12946   4.812   5.913   5.530 -0.8404 -0.1353  0.7371
36980SOL    HW112947   4.893   5.870   5.557 -0.1544  2.0360  2.4246
36980SOL    HW212948   4.758   5.913   5.609 -1.2599  1.0659  0.4620
36981SOL     OW12949   8.829   2.897   7.452  0.0120 -0.3453  0.0468
36981SOL    HW112950   8.845   2.914   7.545 -1.1292  1.3865 -0.0373
36981SOL    HW212951   8.751   2.841   7.451 -1.0030  1.0190  0.1227
36982SOL     OW12952   3.611   6.650   9.271  0.5217 -0.1672  0.5117
36982SOL    HW112953   3.627   6.558   9.290  4.6213  0.7533  2.5718
36982SOL    HW212954   3.574   6.685   9.352 -1.7295  0.0165 -0.4988
36983SOL     OW12955   2.682   7.578   8.599  0.3411  0.5223 -0.4017
36983SOL    HW112956   2.698   7.615   8.685 -0.2534 -0.7742  0.3014
36983SOL    HW212957   2.768   7.550   8.568  0.5448  0.9252 -0.2046
36984SOL     OW12958   3.072   3.319   6.857 -0.1560  0.2332 -0.7888
36984SOL    HW112959   3.045   3.360   6.775  1.5644 -0.0323 -1.5436
36984SOL    HW212960   3.033   3.232   6.854 -0.0320  0.1916 -1.3997
36985SOL     OW12961   1.733   0.966  10.517  0.1013  0.4058  0.6006
36985SOL    HW112962   1.786   0.918  10.581 -0.6877  0.6548  1.4693
36985SOL    HW212963   1.689   1.033  10.569 -1.4903 -0.1428  0.0107
36986SOL     OW12964   1.076  10.439   0.297  0.2712  0.2756 -0.0485
36986SOL    HW112965   1.043  10.445   0.387  0.1846 -1.2899  0.0611
36986SOL    HW212966   1.159  10.487   0.298 -0.4373  1.5324  0.4832
36987SOL     OW12967   8.652   9.389   9.692 -1.0419  0.1740 -0.2286
36987SOL    HW112968   8.669   9.325   9.623  1.3568 -0.3448  0.7159
36987SOL    HW212969   8.626   9.468   9.646  1.9367  0.3151 -1.9663
36988SOL     OW12970   7.095  10.387  10.231  0.0747  0.0325  0.1853
36988SOL    HW112971   7.079  10.431  10.148  1.1712  3.4325  1.5892
36988SOL    HW212972   7.032  10.316  10.233 -2.2985  1.8692 -2.0937
36989SOL     OW12973   0.051   7.521   6.797  0.2897  0.1587 -0.4743
36989SOL    HW112974  -0.013   7.453   6.775  0.4544 -0.2055  0.1753
36989SOL    HW212975   0.099   7.535   6.715  0.8450 -1.1411 -0.3922
36990SOL     OW12976   2.118   0.503   6.755  0.2029 -0.3502  0.0168
36990SOL    HW112977   2.176   0.469   6.687 -1.6202 -2.3103 -0.6855
36990SOL    HW212978   2.031   0.470   6.731 -0.5868 -0.8015  3.0591
36991SOL     OW12979   3.923   0.127   8.446  0.2892 -0.0334  0.8695
36991SOL    HW112980   3.900   0.098   8.534  0.1084 -1.8296  0.2624
36991SOL    HW212981   3.894   0.056   8.389  2.3495  0.1252 -0.4426
36992SOL     OW12982   3.039   7.358   4.132  0.3422  0.1901  0.3956
36992SOL    HW112983   3.026   7.341   4.038 -1.1352  1.6826  0.2745
36992SOL    HW212984   3.032   7.272   4.173  0.3172 -0.4028 -0.8001
36993SOL     OW12985   9.201  10.500   9.226 -0.1068  0.2804  0.3070
36993SOL    HW112986   9.227  10.427   9.170 -1.4192  0.8330 -1.1016
36993SOL    HW212987   9.113  10.477   9.256 -0.7143  1.4329 -0.4996
36994SOL     OW12988  10.771   2.980   9.898 -0.3974 -0.1303  0.3219
36994SOL    HW112989  10.776   3.046   9.828 -0.4346 -1.0615 -0.5794
36994SOL    HW212990  10.706   2.917   9.866 -0.8850 -0.2420  1.4898
36995SOL     OW12991   9.381   8.234   3.456  0.0553  0.2538 -0.1555
36995SOL    HW112992   9.365   8.153   3.505 -2.2594  0.4662 -0.4308
36995SOL    HW212993   9.361   8.304   3.518 -1.0989  0.5362 -0.8035
36996SOL     OW12994   3.355   5.643   7.719  1.0498  0.5696  1.2443
36996SOL    HW112995   3.326   5.726   7.683  0.1259 -0.3259 -0.1758
36996SOL    HW212996   3.438   5.663   7.761  0.8750  2.1868  0.8892
36997SOL     OW12997   7.155   9.494   8.206 -0.1076  0.5345 -0.2734
36997SOL    HW112998   7.237   9.466   8.247 -1.0523  0.2392  1.4769
36997SOL    HW212999   7.091   9.428   8.232 -1.1135  1.2419 -0.8843
36998SOL     OW13000   0.673   5.621   0.885  0.7134 -0.1143  0.0029
36998SOL    HW113001   0.675   5.528   0.906  0.8473  0.0064  0.5578
36998SOL    HW213002   0.725   5.662   0.955 -1.0518  0.5984  0.9633
36999SOL     OW13003   3.896   1.690   6.000 -0.1433  0.1284 -0.2118
36999SOL    HW113004   3.907   1.706   5.907  1.3120  0.7266  0.0256
36999SOL    HW213005   3.974   1.640   6.025 -0.8509 -0.6243  0.5614
37000SOL     OW13006   0.011   2.255   1.618  0.1073 -0.0206  0.2040
37000SOL    HW113007  -0.044   2.256   1.540  1.7405  1.9485 -1.0424
37000SOL    HW213008   0.081   2.193   1.596  2.1596  2.5976 -1.2430
37001SOL     OW13009   9.319   8.827   8.405  0.1784 -0.4584  0.8893
37001SOL    HW113010   9.333   8.879   8.484 -0.0250  0.9018  0.0632
37001SOL    HW213011   9.224   8.815   8.401 -0.0194  1.1524 -0.1384
37002SOL     OW13012   6.007   1.824   7.308  0.2877 -0.3277 -0.2064
37002SOL    HW113013   5.979   1.839   7.218  1.8538 -2.2627 -1.0912
37002SOL    HW213014   5.966   1.741   7.334  3.7989 -2.5514 -1.0961
37003SOL     OW13015   0.561  10.828   6.961  0.0699 -0.1473  0.4913
37003SOL    HW113016   0.494  10.891   6.935  1.2678  0.6650 -0.6997
37003SOL    HW213017   0.511  10.757   7.003 -1.6917 -0.2646 -1.6278
37004SOL     OW13018  10.579   3.534   2.549 -0.1378  0.3445 -1.1543
37004SOL    HW113019  10.568   3.456   2.495  1.2188  0.0443 -1.0401
37004SOL    HW213020  10.659   3.574   2.517  0.1240  0.7341 -0.0623
37005SOL     OW13021   3.883   3.106   9.711  0.0066  0.4128 -0.4481
37005SOL    HW113022   3.870   3.031   9.653 -1.1317  0.1903  0.0542
37005SOL    HW213023   3.802   3.157   9.703  0.4431  1.1682 -0.1836
37006SOL     OW13024   6.982   3.561  10.080  0.2592  0.0615 -0.2296
37006SOL    HW113025   7.049   3.563  10.012  0.4092  0.7018 -0.0720
37006SOL    HW213026   6.922   3.632  10.057  2.0575  2.5480  1.9998
37007SOL     OW13027   0.429  10.807   3.577 -0.7662  0.0175  0.4369
37007SOL    HW113028   0.440  10.822   3.483 -2.0127  0.8273  0.3866
37007SOL    HW213029   0.376  10.881   3.607 -0.2780 -0.1532  1.8127
37008SOL     OW13030   8.259   5.515   9.469 -0.5892 -0.3532 -0.0348
37008SOL    HW113031   8.320   5.588   9.457 -0.3555 -0.3644  0.9823
37008SOL    HW213032   8.302   5.441   9.426 -1.6350  0.4495 -2.6908
37009SOL     OW13033   7.680   2.740   0.094 -0.0814 -0.2987 -0.4151
37009SOL    HW113034   7.665   2.666   0.153 -0.7724 -0.4381 -0.7486
37009SOL    HW213035   7.592   2.768   0.069  0.0813  1.5653  0.8318
37010SOL     OW13036  10.135   6.239   3.549 -0.7277 -0.6154 -0.2187
37010SOL    HW113037  10.084   6.299   3.495 -1.2998 -0.8864  0.0103
37010SOL    HW213038  10.197   6.294   3.596 -3.3088  0.2816  2.4487
37011SOL     OW13039   9.120   9.551   9.781 -0.0466  0.1921  0.5155
37011SOL    HW113040   9.177   9.473   9.780 -1.3602 -0.8165 -1.3803
37011SOL    HW213041   9.032   9.516   9.772 -0.7038  1.8954  0.0660
37012SOL     OW13042   1.023   5.224   8.439  0.7113 -0.4768  0.7033
37012SOL    HW113043   1.075   5.276   8.500  1.6227 -1.1125  0.4952
37012SOL    HW213044   0.941   5.272   8.429  0.6842 -0.1915  2.1538
37013SOL     OW13045   6.134   7.649   1.899 -0.3167  0.1567 -0.0125
37013SOL    HW113046   6.210   7.663   1.955  1.2445 -0.2629 -1.8871
37013SOL    HW213047   6.059   7.655   1.957  1.1278  0.9091  1.8730
37014SOL     OW13048   3.768   5.048   4.436  0.8320  0.0958  0.5419
37014SOL    HW113049   3.689   4.997   4.416 -0.4725  0.9787  2.8859
37014SOL    HW213050   3.738   5.139   4.434  2.5371  0.6645 -1.2722
37015SOL     OW13051   8.820   9.274   8.388  0.0097 -0.0774 -0.5917
37015SOL    HW113052   8.810   9.203   8.324  2.8081  0.3711 -1.6678
37015SOL    HW213053   8.821   9.229   8.473 -1.2728 -0.9685 -1.0188
37016SOL     OW13054   4.444   0.390   7.075  0.0959  0.5193  0.4300
37016SOL    HW113055   4.530   0.433   7.081 -0.2347  1.3519 -0.4829
37016SOL    HW213056   4.456   0.308   7.122  1.2612  0.8250  0.7275
37017SOL     OW13057   5.502   7.654   6.516  0.2615  0.0963 -0.5349
37017SOL    HW113058   5.489   7.657   6.611  1.3345 -2.0839 -0.2446
37017SOL    HW213059   5.430   7.705   6.480  0.2453  1.5981  1.4584
37018SOL     OW13060   8.814   8.918   0.147 -0.3144  0.2153 -0.0787
37018SOL    HW113061   8.816   8.859   0.072  0.6427 -0.0268  0.1162
37018SOL    HW213062   8.798   9.005   0.109 -1.0906 -0.0771 -0.4293
37019SOL     OW13063   8.528   3.252   1.989  0.0862  0.4953  0.5313
37019SOL    HW113064   8.571   3.243   1.904 -1.5823  0.2041 -0.3084
37019SOL    HW213065   8.599   3.278   2.048  1.5996 -0.8454 -0.5902
37020SOL     OW13066   9.545   8.352   5.896  0.5214  0.1267  0.2036
37020SOL    HW113067   9.596   8.296   5.838 -0.9922 -2.1047  0.9221
37020SOL    HW213068   9.610   8.391   5.955  1.4639 -3.3481  1.6930
37021SOL     OW13069   7.175   5.030   9.116 -0.2818 -0.2049  0.1090
37021SOL    HW113070   7.171   5.092   9.189 -0.4659 -0.1152  0.0214
37021SOL    HW213071   7.246   5.063   9.061  0.7821 -1.0275  0.9407
37022SOL     OW13072   0.016   6.267   9.524  0.2695  0.1059 -0.0215
37022SOL    HW113073   0.078   6.217   9.577  0.1552  1.1441  1.1502
37022SOL    HW213074  -0.064   6.216   9.526 -0.1153  0.7157  1.9055
37023SOL     OW13075   4.096   9.292   2.444  0.1163 -0.1626  0.5878
37023SOL    HW113076   4.091   9.355   2.372 -0.4780  1.7623  2.2210
37023SOL    HW213077   4.012   9.247   2.444 -0.7478  1.3915  1.3807
37024SOL     OW13078   7.707   4.290   9.383  0.1937 -0.0885  0.4245
37024SOL    HW113079   7.715   4.380   9.413 -2.9376  0.8736 -1.1443
37024SOL    HW213080   7.776   4.279   9.318 -0.3413  1.7994 -0.5364
37025SOL     OW13081   5.494   9.479   9.104 -0.0031 -0.2862 -0.7798
37025SOL    HW113082   5.442   9.553   9.137  1.3429  0.0133  0.8326
37025SOL    HW213083   5.437   9.435   9.041 -1.8877  0.4793  0.3178
37026SOL     OW13084   9.069   7.955   4.230 -0.2826 -0.6812  0.7278
37026SOL    HW113085   9.040   7.925   4.317 -0.0934 -0.0822  1.0075
37026SOL    HW213086   9.161   7.930   4.226 -0.7362 -2.3478 -0.0539
37027SOL     OW13087   9.364   4.889   2.642  0.0959  0.5190  0.1381
37027SOL    HW113088   9.339   4.953   2.709  0.2311  0.5218  0.1851
37027SOL    HW213089   9.427   4.832   2.685 -2.7040 -1.9558  1.3015
37028SOL     OW13090   5.074   6.717   4.767  0.3952  0.2275  0.5848
37028SOL    HW113091   5.089   6.772   4.844 -0.4617 -0.6492  1.4184
37028SOL    HW213092   4.980   6.726   4.750  0.4180 -0.2680  0.1771
37029SOL     OW13093   6.208   1.323   1.521  0.1808  0.1967  0.4405
37029SOL    HW113094   6.282   1.380   1.499  0.8290 -0.9231 -0.4287
37029SOL    HW213095   6.143   1.381   1.561 -0.0533  1.9725 -2.2337
37030SOL     OW13096   5.069   3.249  10.617  0.2831  0.2291 -0.1460
37030SOL    HW113097   5.020   3.286  10.691 -0.5335  0.8883 -1.0030
37030SOL    HW213098   5.061   3.314  10.547  1.2391 -0.2824 -0.7533
37031SOL     OW13099   5.095   2.115   5.116  0.1610 -0.1433  0.4307
37031SOL    HW113100   5.172   2.094   5.063  0.0210 -0.5252  0.3744
37031SOL    HW213101   5.021   2.104   5.056  0.1595  2.0502 -0.0640
37032SOL     OW13102   2.349  10.496   2.668 -0.2650  0.7361  0.2831
37032SOL    HW113103   2.405  10.556   2.717 -2.4014  2.3159  0.9146
37032SOL    HW213104   2.288  10.461   2.733 -0.8354  0.0447 -0.5965
37033SOL     OW13105   0.005   8.037  10.208 -0.4034  0.2601  0.8525
37033SOL    HW113106  -0.085   8.024  10.238 -0.2464 -0.7106  0.9239
37033SOL    HW213107   0.056   8.042  10.288 -0.0667 -1.7167  0.7994
37034SOL     OW13108   7.885   6.706   5.680  0.6444 -0.2744 -0.1910
37034SOL    HW113109   7.928   6.765   5.742 -0.1395 -0.4498  0.5422
37034SOL    HW213110   7.905   6.618   5.713 -0.8665 -0.3550  0.6206
37035SOL     OW13111  10.522   1.418   3.814  0.1080 -0.2851  0.2067
37035SOL    HW113112  10.494   1.333   3.782 -0.3055  0.1575 -0.6569
37035SOL    HW213113  10.613   1.406   3.841  0.3911 -0.7571 -0.9030
37036SOL     OW13114   7.861   7.894   5.911 -0.5223 -0.0646 -0.7110
37036SOL    HW113115   7.951   7.861   5.916 -1.4905 -2.8809  0.1872
37036SOL    HW213116   7.839   7.888   5.818 -0.5306 -1.7117 -0.6312
37037SOL     OW13117  11.038  10.914   4.766  0.0596  1.2036  0.0221
37037SOL    HW113118  11.045  10.833   4.817  1.4767  1.9398  1.0390
37037SOL    HW213119  10.943  10.925   4.753 -0.1668 -0.6693 -0.2658
37038SOL     OW13120   8.739   1.925   7.431 -0.3913  0.2098 -0.1918
37038SOL    HW113121   8.667   1.867   7.406  0.9404 -1.6061  0.0096
37038SOL    HW213122   8.697   2.010   7.445 -2.5999 -0.9250  0.5754
37039SOL     OW13123   8.764   0.213   4.908 -0.5582  0.6405 -0.0852
37039SOL    HW113124   8.778   0.203   5.002  1.0348  2.1494 -0.1038
37039SOL    HW213125   8.847   0.189   4.868 -1.3191 -0.3098 -1.1672
37040SOL     OW13126   4.107   8.373   2.267  0.3093 -0.1305 -0.0967
37040SOL    HW113127   4.043   8.308   2.235  1.8086 -1.2705 -0.9190
37040SOL    HW213128   4.178   8.320   2.303  0.7147  1.1182  1.0173
37041SOL     OW13129   1.181   6.344   3.192 -0.2034  0.6804 -0.1493
37041SOL    HW113130   1.105   6.393   3.223 -2.0789 -0.9021 -1.9594
37041SOL    HW213131   1.240   6.340   3.267 -1.4327  2.8288  1.0150
37042SOL     OW13132   3.056   3.022  10.457 -0.3299  0.6915 -0.0711
37042SOL    HW113133   3.138   3.030  10.505 -1.0672  0.8469  1.1964
37042SOL    HW213134   3.034   3.111  10.431  1.5112  0.3601 -3.3029
37043SOL     OW13135   2.336   2.496   1.713  0.5892  0.0338 -0.0989
37043SOL    HW113136   2.396   2.513   1.785 -0.4059  0.8512  0.5674
37043SOL    HW213137   2.300   2.582   1.690 -0.6534 -0.4852 -0.1758
37044SOL     OW13138   1.536   6.352   5.873 -0.1451 -0.3461  0.0799
37044SOL    HW113139   1.484   6.353   5.954  0.7150  0.2996  0.6427
37044SOL    HW213140   1.506   6.429   5.824  0.7718  0.4641  0.7475
37045SOL     OW13141   4.162   5.622   7.599  0.2719  0.2167  0.8476
37045SOL    HW113142   4.106   5.694   7.628  3.0721  1.5185  3.5691
37045SOL    HW213143   4.244   5.664   7.575  0.5167 -1.7070 -2.1537
37046SOL     OW13144   0.656   2.249  11.084 -0.4124  0.0335 -0.1836
37046SOL    HW113145   0.728   2.221  11.141 -1.5994 -2.0528  0.3788
37046SOL    HW213146   0.617   2.324  11.129  0.2484  0.0176  0.4263
37047SOL     OW13147   7.863   0.205   4.667  0.8139 -0.0057 -0.3183
37047SOL    HW113148   7.932   0.271   4.673  0.5557  0.4471 -1.8067
37047SOL    HW213149   7.802   0.226   4.738 -0.0594  2.3597 -1.6595
37048SOL     OW13150   3.306   8.036   1.799  0.6704 -0.6100  0.0658
37048SOL    HW113151   3.357   8.090   1.739  3.3533  1.3385  3.6428
37048SOL    HW213152   3.266   8.098   1.860 -0.8908 -2.4612  1.0627
37049SOL     OW13153   4.655   2.451   4.854 -0.6534 -0.2462 -0.1903
37049SOL    HW113154   4.714   2.376   4.855  0.5900  0.6900  0.7833
37049SOL    HW213155   4.568   2.413   4.845  0.1110 -1.6274 -2.5509
37050SOL     OW13156   6.873   1.372   1.077  0.4176  0.1894 -0.3285
37050SOL    HW113157   6.950   1.326   1.041  1.3859 -1.3718  3.3343
37050SOL    HW213158   6.817   1.302   1.110 -1.5033  1.4511 -0.7680
37051SOL     OW13159  10.600   7.113   6.688 -0.0900  0.2316 -0.5310
37051SOL    HW113160  10.572   7.125   6.597  0.7384  2.0335 -0.5819
37051SOL    HW213161  10.595   7.018   6.701  1.4203 -0.2997 -3.0232
37052SOL     OW13162   0.576   3.101   2.902  0.1831  0.2809  0.6041
37052SOL    HW113163   0.644   3.168   2.912  0.5241  0.2070 -1.0059
37052SOL    HW213164   0.503   3.147   2.860  0.1882 -0.2135  0.0509
37053SOL     OW13165   4.473   4.079   2.786 -0.1209 -0.2504 -0.5279
37053SOL    HW113166   4.530   4.154   2.768 -0.0092 -0.7763 -2.6020
37053SOL    HW213167   4.434   4.057   2.702 -0.5053 -2.2518  0.1085
37054SOL     OW13168  10.863   0.861   5.380 -0.4758  0.2345 -0.0832
37054SOL    HW113169  10.930   0.794   5.365 -0.2413 -0.6742  3.7672
37054SOL    HW213170  10.913   0.941   5.393 -0.4000  0.2450 -0.4339
37055SOL     OW13171   3.212  10.215   4.886 -0.3195  0.1224  0.2915
37055SOL    HW113172   3.297  10.243   4.851 -0.6652  1.1321  0.2288
37055SOL    HW213173   3.204  10.262   4.969 -1.1666  0.6403 -0.0822
37056SOL     OW13174   6.864   1.261   3.970  0.5082 -0.0943 -0.3639
37056SOL    HW113175   6.859   1.229   4.060 -1.5796  1.7096  0.2592
37056SOL    HW213176   6.836   1.353   3.976  1.6401  0.4782 -2.6779
37057SOL     OW13177   7.412   5.263   3.403 -0.2241  0.4371 -0.1007
37057SOL    HW113178   7.449   5.239   3.488 -1.4923  1.2591  0.7153
37057SOL    HW213179   7.329   5.215   3.398 -0.2390  0.5223 -0.8014
37058SOL     OW13180   2.893   0.159   4.396  0.4672 -1.0278 -0.4726
37058SOL    HW113181   2.897   0.070   4.430 -2.2642 -1.4792 -1.1166
37058SOL    HW213182   2.825   0.202   4.448 -0.3459 -0.2478 -2.1222
37059SOL     OW13183   4.704  10.304   0.124  0.4401  0.4261  0.0872
37059SOL    HW113184   4.633  10.313   0.188 -0.8791 -4.6753 -0.2330
37059SOL    HW213185   4.677  10.360   0.051 -3.5248 -1.3050 -0.0427
37060SOL     OW13186   4.938   5.049   3.878  0.0640 -0.0811 -0.2251
37060SOL    HW113187   5.015   5.091   3.916 -0.2194  0.9024 -0.6884
37060SOL    HW213188   4.868   5.113   3.890 -0.3876 -0.4243 -0.9529
37061SOL     OW13189   7.983   3.364  10.617 -0.1738 -0.2326  0.2215
37061SOL    HW113190   8.046   3.301  10.651  2.6633  3.3076  2.2122
37061SOL    HW213191   8.031   3.414  10.552 -1.5474  1.4074  0.4045
37062SOL     OW13192   1.536   0.277  10.450  0.2023 -0.7697 -0.0297
37062SOL    HW113193   1.589   0.321  10.516  1.4434 -1.2208 -0.6920
37062SOL    HW213194   1.473   0.225  10.500 -0.8469  1.1522  0.7709
37063SOL     OW13195   1.859   5.070   5.137 -0.1666 -1.0489 -0.0955
37063SOL    HW113196   1.844   5.113   5.052  0.1848 -0.3108  0.2033
37063SOL    HW213197   1.891   4.983   5.114  1.4009 -0.3508 -0.7599
37064SOL     OW13198   4.073   1.625   3.505 -0.1592  0.4368  0.3829
37064SOL    HW113199   4.129   1.568   3.452 -0.1549  0.8004 -0.0073
37064SOL    HW213200   3.987   1.617   3.465 -0.5201 -0.5328  1.3019
37065SOL     OW13201   9.834   1.388   2.586  0.1983 -0.4461 -0.0242
37065SOL    HW113202   9.846   1.315   2.647  0.6166 -0.9191 -0.6477
37065SOL    HW213203   9.879   1.462   2.627 -0.2755 -0.5261  0.6413
37066SOL     OW13204  10.541  10.840   2.619 -0.4848 -0.2458  0.6234
37066SOL    HW113205  10.460  10.876   2.584 -0.2981  0.1736  0.6176
37066SOL    HW213206  10.602  10.914   2.619 -0.0622 -0.5942  0.4965
37067SOL     OW13207   6.247   3.525   9.544 -0.3620 -0.0825  0.0687
37067SOL    HW113208   6.286   3.494   9.626  0.7422  0.6555 -0.1517
37067SOL    HW213209   6.158   3.549   9.568 -0.4996 -1.1746  0.7462
37068SOL     OW13210   0.191   1.964   2.351 -0.0438 -0.3366  0.2354
37068SOL    HW113211   0.186   2.023   2.426  0.7692  0.0323  0.0139
37068SOL    HW213212   0.115   1.907   2.360  0.4061 -0.7448  1.7040
37069SOL     OW13213   2.148  10.934   3.146 -0.1518 -0.1685 -0.1362
37069SOL    HW113214   2.063  10.936   3.102  0.2723  3.0676 -1.0971
37069SOL    HW213215   2.212  10.948   3.075  1.0391 -0.7585  0.7896
37070SOL     OW13216   3.244   6.743   1.645  0.7258 -0.2382  0.4799
37070SOL    HW113217   3.339   6.745   1.639  0.9660 -0.6601  2.9432
37070SOL    HW213218   3.224   6.654   1.675 -0.2663  0.3396  1.6363
37071SOL     OW13219   6.369   5.401   4.877  0.6018 -0.6573 -0.2693
37071SOL    HW113220   6.304   5.380   4.810  0.0351 -0.2048  0.1249
37071SOL    HW213221   6.325   5.379   4.960  0.7869  0.0580  0.0240
37072SOL     OW13222   6.050   6.943   0.569  0.0296 -0.2939 -0.2523
37072SOL    HW113223   6.038   7.017   0.628  0.4638 -1.0205  0.7627
37072SOL    HW213224   5.992   6.962   0.495 -2.9816 -0.8322  1.7776
37073SOL     OW13225   8.758   1.657  10.574  0.0367 -0.1121 -0.1946
37073SOL    HW113226   8.688   1.599  10.544  1.5664 -0.9429 -2.3942
37073SOL    HW213227   8.755   1.731  10.513  0.7303  0.0778 -0.0077
37074SOL     OW13228   7.426   7.920   1.410 -0.5739 -0.4038  0.4381
37074SOL    HW113229   7.401   8.001   1.455  0.1712  0.0707  0.0113
37074SOL    HW213230   7.350   7.899   1.356 -0.4911  0.4263 -0.0198
37075SOL     OW13231   9.850   0.424   8.377 -0.7965  0.6195 -0.3370
37075SOL    HW113232   9.769   0.391   8.418 -0.7922 -0.2639 -0.9992
37075SOL    HW213233   9.871   0.358   8.310  0.7392  0.5881  0.1465
37076SOL     OW13234   6.502   5.114   4.309  0.4149  0.8141 -0.8932
37076SOL    HW113235   6.552   5.149   4.383  0.2507  0.1921 -0.4881
37076SOL    HW213236   6.556   5.134   4.233  1.4310 -0.1035 -0.4382
37077SOL     OW13237  10.078   0.395   8.894  0.1287  0.2876  0.4973
37077SOL    HW113238  10.002   0.392   8.837  0.8828  2.3247 -0.7158
37077SOL    HW213239  10.097   0.303   8.912 -1.2976 -0.3509 -0.9644
37078SOL     OW13240   5.041   0.715   9.945  0.2786  0.3430  0.1057
37078SOL    HW113241   4.970   0.697   9.884  0.9459 -1.4260 -0.2213
37078SOL    HW213242   5.111   0.752   9.891  0.1601  0.6457  0.1585
37079SOL     OW13243   6.050   4.635   7.076  0.0538 -0.1322  0.0024
37079SOL    HW113244   6.056   4.711   7.018  3.9614  1.0148  1.5859
37079SOL    HW213245   6.003   4.666   7.153 -0.9184 -0.2271 -0.5419
37080SOL     OW13246  10.687   8.945   9.407 -0.0392 -0.0900  0.1670
37080SOL    HW113247  10.593   8.949   9.423 -0.1413 -0.2287 -0.3659
37080SOL    HW213248  10.726   8.938   9.494 -0.5946 -1.2408  0.3483
37081SOL     OW13249   9.602   1.908   6.299  0.2116 -0.0754 -0.0497
37081SOL    HW113250   9.559   1.880   6.217 -0.5024  1.3899 -0.2122
37081SOL    HW213251   9.692   1.925   6.273  0.9363 -2.9208  0.2332
37082SOL     OW13252   1.485   2.948   8.359  0.0129  0.4187  0.1595
37082SOL    HW113253   1.430   2.972   8.434 -0.6260 -0.0483 -0.1452
37082SOL    HW213254   1.520   3.031   8.327 -1.4425  0.8584 -0.3413
37083SOL     OW13255  10.585   5.283   3.005  0.0116 -1.1436 -0.1311
37083SOL    HW113256  10.621   5.339   3.075 -1.0126  0.8772 -1.1435
37083SOL    HW213257  10.660   5.230   2.977  0.7120 -1.2249  1.7296
37084SOL     OW13258   2.423   8.831   7.907  0.0903  0.0598  0.0911
37084SOL    HW113259   2.332   8.861   7.909 -0.1146 -0.4302 -0.8880
37084SOL    HW213260   2.471   8.895   7.959 -1.0239 -0.4642  1.8651
37085SOL     OW13261   6.726   0.752   6.576  0.2112 -0.3253  0.1405
37085SOL    HW113262   6.763   0.742   6.489 -1.4521  1.1651 -0.7976
37085SOL    HW213263   6.729   0.846   6.594  2.2318 -0.7306  2.5311
37086SOL     OW13264   5.889   4.041  10.968  0.0696 -0.8058  0.8439
37086SOL    HW113265   5.898   3.998  11.053  0.9375  0.3988  1.3725
37086SOL    HW213266   5.916   4.131  10.983 -0.8315 -0.2872 -0.4694
37087SOL     OW13267   7.824  10.521  10.227  0.1787 -0.1181 -0.6226
37087SOL    HW113268   7.738  10.482  10.239 -1.1529  2.1185 -2.1751
37087SOL    HW213269   7.824  10.598  10.283  2.1127 -1.2306  1.0847
37088SOL     OW13270   7.324   8.079   5.416 -0.2433 -0.3725 -0.2170
37088SOL    HW113271   7.322   8.143   5.487  1.9212 -2.3723  1.8290
37088SOL    HW213272   7.270   8.007   5.448  1.2658 -1.5616 -0.2614
37089SOL     OW13273   1.738   8.631   5.894  0.6546 -0.4878 -0.1141
37089SOL    HW113274   1.730   8.718   5.855  2.4096 -0.1595  0.1836
37089SOL    HW213275   1.821   8.633   5.941 -1.5927 -0.5463  4.4071
37090SOL     OW13276   1.975   4.707   5.567 -0.0429 -0.1787  0.6031
37090SOL    HW113277   1.931   4.779   5.522 -0.0173 -1.2994 -1.2876
37090SOL    HW213278   1.914   4.682   5.637 -0.5759  0.8762  0.5394
37091SOL     OW13279   5.960   5.013   1.109  0.2789 -0.7258  0.1846
37091SOL    HW113280   5.867   5.014   1.129 -0.2722 -3.7437 -1.6674
37091SOL    HW213281   6.001   4.973   1.186  0.3582  1.8374  1.6008
37092SOL     OW13282   9.962   5.708   0.495 -0.0594 -0.0350  0.6402
37092SOL    HW113283   9.873   5.674   0.507 -0.1564 -0.2925 -0.6701
37092SOL    HW213284  10.017   5.630   0.486  0.1332  0.1405  0.3115
37093SOL     OW13285   4.120   0.296   9.693  0.1916  0.0651 -0.1750
37093SOL    HW113286   4.055   0.286   9.763 -0.6044  1.5545 -0.6654
37093SOL    HW213287   4.155   0.385   9.705  0.1629  0.2829 -1.5571
37094SOL     OW13288   7.326   7.658   3.179  0.0003 -0.7036  0.1358
37094SOL    HW113289   7.339   7.752   3.168 -0.9169 -0.5407  0.3336
37094SOL    HW213290   7.383   7.617   3.114  1.4177 -0.0620  0.9424
37095SOL     OW13291  10.171   4.523   5.232  0.5659  0.7733 -0.4902
37095SOL    HW113292  10.196   4.608   5.196 -0.0455  1.0188 -0.3413
37095SOL    HW213293  10.146   4.542   5.323  1.9689  0.1861  0.0630
37096SOL     OW13294  10.883   3.500   4.228 -0.4276 -0.3083  0.1006
37096SOL    HW113295  10.820   3.556   4.181 -1.4252 -0.2601  1.4516
37096SOL    HW213296  10.959   3.496   4.169 -1.7592 -0.5651 -1.7111
37097SOL     OW13297   8.661  10.650   1.608 -0.2648  0.2088  0.1891
37097SOL    HW113298   8.659  10.559   1.581  1.1947  0.0278  0.6413
37097SOL    HW213299   8.639  10.648   1.701  0.6394  0.2199  0.4081
37098SOL     OW13300   5.209   9.076   5.304 -0.3020 -0.6713 -0.0991
37098SOL    HW113301   5.217   9.006   5.239  0.3510 -0.0823 -0.6710
37098SOL    HW213302   5.236   9.155   5.258 -0.3886 -0.1438  0.7289
37099SOL     OW13303  10.425   6.348  11.010  0.0714 -1.1023 -0.4263
37099SOL    HW113304  10.336   6.343  11.045  0.0101 -2.6731 -0.7187
37099SOL    HW213305  10.426   6.428  10.958 -0.9119 -0.6219  0.2612
37100SOL     OW13306   2.757   2.850   9.367 -0.0940  0.1376 -0.4507
37100SOL    HW113307   2.678   2.834   9.420 -0.4109  0.6418 -0.7542
37100SOL    HW213308   2.748   2.792   9.292 -0.4938  0.6307 -0.7955
37101SOL     OW13309   9.362   6.514   5.181 -0.5606  0.4298  0.1992
37101SOL    HW113310   9.448   6.549   5.156 -0.4885 -0.3603 -0.7618
37101SOL    HW213311   9.318   6.586   5.226 -0.2293  1.5882 -1.2396
37102SOL     OW13312  10.491   0.124   6.779  0.1005  0.4832  0.2859
37102SOL    HW113313  10.576   0.107   6.738  0.3126  0.5905  0.6687
37102SOL    HW213314  10.444   0.179   6.716  0.0970 -0.0500 -0.1744
37103SOL     OW13315  10.765   8.693   6.638 -0.0779  0.3515 -0.0089
37103SOL    HW113316  10.824   8.663   6.707  0.3581  3.9079  1.3418
37103SOL    HW213317  10.767   8.622   6.573  2.3976 -1.4930  1.8847
37104SOL     OW13318  10.351   0.429   0.577 -0.3440 -0.4787  0.3356
37104SOL    HW113319  10.329   0.405   0.667  0.1767 -0.1098  0.5668
37104SOL    HW213320  10.430   0.483   0.585  0.1929 -1.1280 -0.4023
37105SOL     OW13321   7.378   8.193   2.895  0.2430  0.0045  0.0661
37105SOL    HW113322   7.425   8.110   2.894 -0.3840 -0.3460 -0.2680
37105SOL    HW213323   7.320   8.190   2.820  1.4581  1.4824 -1.0199
37106SOL     OW13324  10.311   5.510  10.016 -0.2124  0.0384  0.1788
37106SOL    HW113325  10.278   5.498  10.105  0.0137  1.9055  0.5627
37106SOL    HW213326  10.258   5.452   9.963 -0.8973 -0.5211  1.4241
37107SOL     OW13327   9.306   0.415  10.746  0.1678  0.1234  0.4018
37107SOL    HW113328   9.391   0.390  10.709  0.5399 -1.4796  2.2250
37107SOL    HW213329   9.244   0.354  10.706 -0.2406  1.4574 -1.1275
37108SOL     OW13330   7.022   0.766   9.837 -0.3452 -0.2423 -0.0074
37108SOL    HW113331   6.929   0.786   9.827 -0.5843 -1.9505 -1.7449
37108SOL    HW213332   7.028   0.719   9.921 -0.6687  1.6161  1.1175
37109SOL     OW13333   5.028   5.987   9.883  0.1979 -0.6612  0.4911
37109SOL    HW113334   5.060   5.909   9.836  0.0981 -1.0924  1.1242
37109SOL    HW213335   4.934   5.987   9.867  0.5286  1.0629 -2.0510
37110SOL     OW13336   6.389   3.458  10.708 -0.3801  0.1485  0.3488
37110SOL    HW113337   6.366   3.385  10.765  0.1811 -0.5144 -0.2568
37110SOL    HW213338   6.308   3.478  10.661 -0.3173 -0.7108 -0.1569
37111SOL     OW13339   4.704   3.893   2.871 -0.5595 -0.0902  0.4772
37111SOL    HW113340   4.719   3.825   2.936 -0.2748 -2.3495 -1.7971
37111SOL    HW213341   4.634   3.858   2.815 -0.1571  1.3120 -0.9788
37112SOL     OW13342   7.439   8.482   7.468 -0.3223 -0.3406 -0.1219
37112SOL    HW113343   7.488   8.480   7.387 -1.1292 -1.5533 -0.6069
37112SOL    HW213344   7.485   8.422   7.526  0.2443  0.5119  0.3384
37113SOL     OW13345   0.234   8.115   1.465 -0.2146 -0.2637 -0.4443
37113SOL    HW113346   0.232   8.057   1.389  2.4754  0.2244 -1.0061
37113SOL    HW213347   0.298   8.075   1.523 -0.9551  0.3013  0.7903
37114SOL     OW13348   3.312   8.466   3.437 -0.0544 -0.2371 -0.3375
37114SOL    HW113349   3.285   8.489   3.526 -1.6047  0.6750 -1.0002
37114SOL    HW213350   3.243   8.407   3.405  1.1299 -1.5762 -0.5300
37115SOL     OW13351   4.035   2.464   9.597  0.0090 -0.0468  0.2652
37115SOL    HW113352   3.980   2.488   9.672 -0.5295  0.8482 -0.4049
37115SOL    HW213353   4.051   2.546   9.551 -2.5135 -0.9251 -2.5371
37116SOL     OW13354  10.365   5.726  11.023  0.0755  0.2428 -0.3856
37116SOL    HW113355  10.337   5.766  11.105  0.7395 -1.5420  0.7795
37116SOL    HW213356  10.447   5.770  11.001  1.2259 -0.9260  1.3097
37117SOL     OW13357   2.293   9.759  10.172 -1.2441  0.4757  0.5324
37117SOL    HW113358   2.331   9.820  10.109 -0.8021 -0.0997  0.2368
37117SOL    HW213359   2.199   9.757  10.151 -1.6110  2.4681  1.7451
37118SOL     OW13360   7.694   5.153   3.423 -0.0527  0.7628 -0.6616
37118SOL    HW113361   7.724   5.076   3.374  2.4349  1.2925 -0.1411
37118SOL    HW213362   7.658   5.116   3.504 -3.4561 -0.0626 -2.3833
37119SOL     OW13363   2.454   8.890   7.041 -0.2103  0.7757 -0.2675
37119SOL    HW113364   2.502   8.916   6.963 -1.1353 -1.8971 -1.8515
37119SOL    HW213365   2.362   8.898   7.016 -0.5734 -2.9528 -0.6612
37120SOL     OW13366   6.915   8.949   1.134 -0.2178 -0.1831  0.5796
37120SOL    HW113367   6.924   9.003   1.212  1.8896 -0.7751  0.8065
37120SOL    HW213368   6.999   8.905   1.126 -0.8761 -1.1976 -1.2549
37121SOL     OW13369   5.444   8.223   6.074 -0.4301  0.5342 -0.2385
37121SOL    HW113370   5.478   8.296   6.022 -0.8486  0.3148 -0.8304
37121SOL    HW213371   5.370   8.190   6.023 -1.1931  0.6524  0.7569
37122SOL     OW13372  10.538   0.899   1.931 -0.3441  0.0493  0.4317
37122SOL    HW113373  10.511   0.828   1.872 -2.4863  0.0147  1.3307
37122SOL    HW213374  10.621   0.869   1.968  0.6533 -0.2850 -1.9133
37123SOL     OW13375   6.057   2.804   4.631 -0.1806 -0.6883  0.3661
37123SOL    HW113376   6.071   2.777   4.540 -0.6661 -0.6080  0.2649
37123SOL    HW213377   5.965   2.828   4.635 -0.1238 -0.5361  0.8433
37124SOL     OW13378   0.913   8.736   0.347  0.1668  0.2810  0.5227
37124SOL    HW113379   0.902   8.760   0.255  1.6151  0.0171  0.2538
37124SOL    HW213380   0.950   8.814   0.388 -0.9256  0.5636  1.0068
37125SOL     OW13381   2.108   8.342   6.743  0.0390  0.5242  0.3489
37125SOL    HW113382   2.074   8.252   6.746  0.4071  0.4213  1.7083
37125SOL    HW213383   2.151   8.348   6.658  0.9722 -0.9508  0.6898
37126SOL     OW13384   7.368   0.842   3.011  0.0391  0.3057 -0.1767
37126SOL    HW113385   7.450   0.819   3.056 -0.2316  0.5234  0.4432
37126SOL    HW213386   7.377   0.804   2.924  0.5033 -0.2846  0.1205
37127SOL     OW13387   7.362   8.895   3.265  0.7264  0.0230 -0.0367
37127SOL    HW113388   7.352   8.905   3.359  0.6185  4.7454 -0.3513
37127SOL    HW213389   7.276   8.869   3.234  0.5073 -0.5935  1.0372
37128SOL     OW13390   8.017   6.001   0.478 -1.5167  0.0560 -0.1587
37128SOL    HW113391   8.113   6.008   0.478 -0.9924 -4.2980 -1.6713
37128SOL    HW213392   7.994   5.982   0.569 -0.6124 -1.1413 -0.1563
37129SOL     OW13393   0.137   1.317   0.461  0.3535 -0.0663 -0.4335
37129SOL    HW113394   0.118   1.246   0.400  0.8869  0.2676 -1.0043
37129SOL    HW213395   0.051   1.339   0.499  0.4928 -2.6292  1.6394
37130SOL     OW13396   7.453  10.645   7.297 -0.1000  0.6116 -0.2002
37130SOL    HW113397   7.541  10.641   7.334 -0.4653 -0.6630  0.6058
37130SOL    HW213398   7.466  10.654   7.203  0.8821  0.8485 -0.0504
37131SOL     OW13399  10.628   0.083   7.199 -0.0959  0.3177  0.1807
37131SOL    HW113400  10.546   0.040   7.223 -0.7367  1.5046  0.1901
37131SOL    HW213401  10.605   0.138   7.125  0.9241 -0.0753 -0.4410
37132SOL     OW13402   4.057   0.052   0.516 -0.2858  0.5087  0.2538
37132SOL    HW113403   4.101  -0.019   0.470  1.9981  1.5535  0.6638
37132SOL    HW213404   4.125   0.089   0.573 -1.5990  2.5297  0.5992
37133SOL     OW13405   6.299   8.440  10.817 -0.5288 -0.2491  0.2948
37133SOL    HW113406   6.293   8.363  10.761  2.5949 -1.1992  1.0647
37133SOL    HW213407   6.219   8.438  10.869 -0.4825 -3.1078  0.4098
37134SOL     OW13408   8.613  10.963   6.022  0.0874  0.0975 -1.1419
37134SOL    HW113409   8.536  11.020   6.024  0.7018  1.1144 -3.2422
37134SOL    HW213410   8.681  11.014   6.065 -0.0608 -0.2326 -0.5103
37135SOL     OW13411   9.428   0.134   2.438  0.2983 -0.7060 -0.1067
37135SOL    HW113412   9.513   0.097   2.464  2.2462  2.6274 -1.1108
37135SOL    HW213413   9.427   0.127   2.343  1.1689  2.3247 -0.4358
37136SOL     OW13414   1.215   0.007   7.409 -0.1757 -0.6561 -0.3169
37136SOL    HW113415   1.310  -0.003   7.418 -0.2518  0.2908  2.6399
37136SOL    HW213416   1.184  -0.079   7.381  1.5930 -0.7340 -2.2193
37137SOL     OW13417   7.204   7.547   1.328 -0.0074  0.5065 -0.0398
37137SOL    HW113418   7.167   7.486   1.265 -0.0701  0.2088  0.2783
37137SOL    HW213419   7.283   7.502   1.361 -0.8777 -0.1003  1.3183
37138SOL     OW13420   9.893   4.506   5.217  0.1583 -0.9695  0.1865
37138SOL    HW113421   9.905   4.465   5.131 -0.5895  0.1156 -0.4498
37138SOL    HW213422   9.969   4.477   5.267  0.7958 -1.3446 -0.9483
37139SOL     OW13423   7.071   2.794  10.753 -0.1709 -0.4763 -0.3479
37139SOL    HW113424   7.116   2.843  10.684 -0.1004  0.0173  0.0425
37139SOL    HW213425   7.139   2.773  10.817 -0.6786  1.4683  0.9356
37140SOL     OW13426   0.199   5.057   3.048  0.0514  0.4944  0.3288
37140SOL    HW113427   0.141   5.048   3.124 -0.4166 -1.1841 -0.1804
37140SOL    HW213428   0.284   5.025   3.078 -0.0574  0.1148  0.2360
37141SOL     OW13429   3.964   4.488   7.202  0.9609  0.5379  0.6309
37141SOL    HW113430   3.970   4.453   7.113 -0.1309  0.4182  0.5992
37141SOL    HW213431   3.910   4.567   7.194  2.5551  1.7134  0.8707
37142SOL     OW13432   6.651   7.864   7.175  0.2968  0.0081  0.0082
37142SOL    HW113433   6.580   7.908   7.222 -1.7016 -1.7402 -1.1721
37142SOL    HW213434   6.611   7.835   7.093  2.4225 -0.9831 -0.7530
37143SOL     OW13435   4.408  10.785  10.527  0.2766 -0.0987 -0.3232
37143SOL    HW113436   4.480  10.740  10.482  1.2727  0.2404  0.8742
37143SOL    HW213437   4.451  10.833  10.598 -1.2765 -1.1288  1.3964
37144SOL     OW13438  10.855   5.259   6.978  0.1151 -0.6604 -0.0816
37144SOL    HW113439  10.897   5.177   6.951 -0.6971 -0.7411 -1.1760
37144SOL    HW213440  10.925   5.324   6.971  0.7973 -1.2580  0.9060
37145SOL     OW13441   2.036   1.487  10.903  0.1071  0.4078 -0.1730
37145SOL    HW113442   1.978   1.490  10.979  1.5346  2.3210  0.9449
37145SOL    HW213443   2.061   1.395  10.895 -1.6214 -0.1513  0.4116
37146SOL     OW13444   0.348   1.355   6.199 -0.2110  0.2572 -0.1602
37146SOL    HW113445   0.316   1.361   6.290 -1.8786 -3.0250 -0.4001
37146SOL    HW213446   0.329   1.441   6.162 -0.2519  1.4225  2.3356
37147SOL     OW13447  10.406   8.991   7.571  0.0887 -0.3173 -0.0931
37147SOL    HW113448  10.438   8.946   7.493 -1.6741 -0.8793 -0.5372
37147SOL    HW213449  10.475   8.978   7.636  1.2473 -0.5012 -1.3111
37148SOL     OW13450   2.334  10.759   6.160  0.3794 -0.4242  0.1216
37148SOL    HW113451   2.386  10.700   6.106 -0.4350  0.0667 -1.2283
37148SOL    HW213452   2.287  10.814   6.098 -0.5739  0.1742  1.3324
37149SOL     OW13453   2.990   5.814   8.853 -0.5703  0.4183  0.0061
37149SOL    HW113454   3.039   5.884   8.897 -0.4734  2.4700 -3.0142
37149SOL    HW213455   3.054   5.773   8.796 -1.4571  0.4482 -1.0381
37150SOL     OW13456   3.964   6.368   6.951 -0.0935  0.2143 -0.1064
37150SOL    HW113457   3.919   6.283   6.951  2.4192 -1.2785 -1.9874
37150SOL    HW213458   4.021   6.364   7.028  2.0182 -1.1350 -1.6037
37151SOL     OW13459   3.459   2.956   1.488  0.2238  0.3670  0.9289
37151SOL    HW113460   3.366   2.934   1.496  0.7000 -2.0907  0.4801
37151SOL    HW213461   3.460   3.041   1.444 -1.7922 -0.0157  0.0195
37152SOL     OW13462   7.163   8.668   6.981  0.2900 -0.0334 -0.4297
37152SOL    HW113463   7.203   8.732   7.039 -1.0435 -1.0245  1.6960
37152SOL    HW213464   7.191   8.583   7.014  0.8020 -0.6299 -2.2619
37153SOL     OW13465  10.433   8.705   9.591  0.0983  0.3551  0.2483
37153SOL    HW113466  10.456   8.683   9.681 -0.0480  0.0107  0.2021
37153SOL    HW213467  10.428   8.621   9.546  2.4793  0.6145 -0.6579
37154SOL     OW13468   0.619   8.311   9.583 -0.2945  0.4274  0.5432
37154SOL    HW113469   0.673   8.282   9.510 -2.3422 -0.7998 -0.5739
37154SOL    HW213470   0.613   8.405   9.573 -2.2288  0.1263 -2.2245
37155SOL     OW13471   3.810   4.902   5.689  0.4555 -0.1586  0.1572
37155SOL    HW113472   3.873   4.873   5.754  0.1464  0.6693  0.8452
37155SOL    HW213473   3.746   4.831   5.684 -0.1453  0.2479  1.6185
37156SOL     OW13474   8.330   8.723   6.437  0.1673  0.0985  0.1963
37156SOL    HW113475   8.396   8.737   6.505  0.3847 -1.6891  0.4045
37156SOL    HW213476   8.380   8.721   6.355 -0.0615  1.9698 -0.0320
37157SOL     OW13477   8.816   1.059   0.771 -0.1854  0.5729 -0.2036
37157SOL    HW113478   8.759   1.028   0.842  0.6840  0.8037  0.6239
37157SOL    HW213479   8.872   1.125   0.813  2.5173 -1.5094 -0.2680
37158SOL     OW13480   1.038   2.812   2.871 -0.8628  0.7767  0.1444
37158SOL    HW113481   0.994   2.769   2.797  0.4684 -0.0273 -0.2210
37158SOL    HW213482   0.971   2.817   2.939 -1.1580 -1.7069  0.1166
37159SOL     OW13483  10.578   3.644   8.624 -0.3522 -0.0876 -0.1311
37159SOL    HW113484  10.556   3.670   8.713  0.3384  1.5345 -0.3925
37159SOL    HW213485  10.504   3.591   8.595 -1.5548  1.0678  0.7074
37160SOL     OW13486   2.563   8.414   9.311  0.1451  0.3263 -0.1242
37160SOL    HW113487   2.557   8.487   9.372 -0.4173  0.7944 -0.7217
37160SOL    HW213488   2.472   8.397   9.285  0.4414  0.8740 -1.6547
37161SOL     OW13489   8.807   7.876   9.223  0.5172  0.3148 -0.2046
37161SOL    HW113490   8.841   7.805   9.168 -1.4412 -1.5179  0.8375
37161SOL    HW213491   8.741   7.919   9.169  0.2248 -0.0001 -0.0968
37162SOL     OW13492   1.178   6.737   9.584  0.3055 -0.2481  0.6132
37162SOL    HW113493   1.210   6.827   9.592  3.0656 -1.2781  3.5481
37162SOL    HW213494   1.101   6.734   9.641 -1.1420  0.6787 -1.2022
37163SOL     OW13495   7.309   9.094   0.955 -0.6577  0.1387  0.0469
37163SOL    HW113496   7.241   9.155   0.926  0.1280  0.2736 -1.6878
37163SOL    HW213497   7.329   9.121   1.044 -0.9705  1.8558 -0.3615
37164SOL     OW13498   9.111  10.028   9.216 -0.3187  0.5675 -0.3123
37164SOL    HW113499   9.127  10.108   9.265  1.5297 -0.2993  0.6352
37164SOL    HW213500   9.198  10.002   9.184 -0.9813 -0.6600 -1.2252
37165SOL     OW13501   8.961   3.947   5.618 -0.0465 -0.2149  0.1083
37165SOL    HW113502   8.943   3.858   5.587  1.0706 -0.7315  0.8805
37165SOL    HW213503   8.944   3.944   5.712 -1.2667  0.7610 -0.0505
37166SOL     OW13504   3.196   6.528   1.800 -0.4565 -0.0719 -0.0802
37166SOL    HW113505   3.136   6.568   1.863 -0.9266 -0.5344 -0.2316
37166SOL    HW213506   3.154   6.446   1.775  1.2921 -1.5262  1.4938
37167SOL     OW13507   9.206   1.516   8.623 -0.5151  0.2565 -0.5224
37167SOL    HW113508   9.247   1.588   8.575  1.2348 -0.8038 -0.6887
37167SOL    HW213509   9.115   1.518   8.596 -0.6389  2.6897 -0.1742
37168SOL     OW13510   0.985   8.367   4.677 -0.4563 -0.0576 -0.2540
37168SOL    HW113511   0.944   8.443   4.717  0.1605  1.0153 -1.5924
37168SOL    HW213512   0.946   8.361   4.590 -1.5036 -2.1240  0.2922
37169SOL     OW13513  10.185   7.211   5.907 -0.2073 -0.6280 -0.2205
37169SOL    HW113514  10.197   7.127   5.863  0.4136 -0.9491  0.5506
37169SOL    HW213515  10.091   7.216   5.923 -0.1782 -1.4148  0.1996
37170SOL     OW13516   5.893   6.439   8.976  0.6140  0.0404 -0.0072
37170SOL    HW113517   5.896   6.375   8.905  0.7214 -0.1879  0.2041
37170SOL    HW213518   5.822   6.410   9.033 -1.6714  1.9469 -1.6476
37171SOL     OW13519  10.186   8.964   5.774 -0.7651  0.0521  0.5410
37171SOL    HW113520  10.269   8.943   5.815 -0.8679 -0.2634  0.5855
37171SOL    HW213521  10.182   9.060   5.777  0.7068  0.2738 -1.6210
37172SOL     OW13522   0.558   7.248   2.996 -0.1317 -0.0771  0.1303
37172SOL    HW113523   0.598   7.203   3.070 -1.1290 -1.7259 -0.2724
37172SOL    HW213524   0.496   7.309   3.036  0.6299  0.3561  0.6741
37173SOL     OW13525   1.832   6.840   0.335  0.6174 -0.4180 -0.1351
37173SOL    HW113526   1.795   6.907   0.393  1.4012  0.4917 -0.6597
37173SOL    HW213527   1.781   6.848   0.254 -1.2028 -2.4096  0.7181
37174SOL     OW13528   5.993   5.359   9.440 -0.1828  0.1607 -0.4977
37174SOL    HW113529   5.993   5.363   9.344  0.1147 -0.6231 -0.5374
37174SOL    HW213530   6.047   5.283   9.461  1.9117  1.8129  0.3753
37175SOL     OW13531  10.927   3.576   4.767 -0.6017  0.4306  0.5683
37175SOL    HW113532  10.983   3.499   4.762  0.0054  0.9344 -0.9887
37175SOL    HW213533  10.865   3.565   4.694 -2.4879 -0.0597  2.1795
37176SOL     OW13534   7.915   8.411   2.769  0.0324  0.1532  0.2326
37176SOL    HW113535   7.872   8.487   2.731  0.3657  0.2026 -0.0554
37176SOL    HW213536   7.846   8.365   2.816 -0.2848  0.3465 -0.0431
37177SOL     OW13537   7.213   4.801   5.094 -0.1306  0.1611  0.2332
37177SOL    HW113538   7.150   4.788   5.023 -0.1084 -1.0791  0.4262
37177SOL    HW213539   7.249   4.714   5.111  2.3958  0.9659 -0.5670
37178SOL     OW13540   0.485   6.005   9.867  0.1149 -0.1743 -0.3998
37178SOL    HW113541   0.447   5.921   9.841  0.6144  0.0356 -1.8861
37178SOL    HW213542   0.436   6.030   9.945 -0.2331 -1.7059 -0.0978
37179SOL     OW13543  10.276   2.128   3.089 -0.1750  0.3049  0.5291
37179SOL    HW113544  10.240   2.054   3.040  0.6526  0.0332  0.3128
37179SOL    HW213545  10.251   2.110   3.180 -1.7926  0.8570  0.2409
37180SOL     OW13546   0.975   7.868   4.488 -0.1773  0.1692  0.4313
37180SOL    HW113547   1.016   7.793   4.530 -1.4940 -1.4020 -0.9173
37180SOL    HW213548   0.934   7.917   4.559  0.8724 -0.2575  1.3538
37181SOL     OW13549   4.947   8.861   8.919  0.1302  0.2563 -0.1386
37181SOL    HW113550   4.913   8.776   8.890 -0.0942 -0.0990  1.1476
37181SOL    HW213551   4.976   8.847   9.008  2.6451  0.8498 -0.7942
37182SOL     OW13552   0.184   2.333   2.879  0.2679  0.6386 -0.4796
37182SOL    HW113553   0.144   2.329   2.792 -0.4979  3.9946 -0.4394
37182SOL    HW213554   0.110   2.344   2.939  0.8362 -0.8573  0.5363
37183SOL     OW13555   8.030   8.224   9.418  0.1127  0.6127 -0.6193
37183SOL    HW113556   8.083   8.244   9.341 -1.4344 -1.3505 -2.3292
37183SOL    HW213557   8.027   8.128   9.421 -2.9954  0.5952 -0.5013
37184SOL     OW13558   4.069   5.171   5.877 -0.1456  0.1927 -0.3212
37184SOL    HW113559   4.005   5.100   5.873 -1.9617  1.7863 -1.3477
37184SOL    HW213560   4.153   5.127   5.884 -1.1865 -2.0605 -0.9727
37185SOL     OW13561   8.424   6.188   8.064 -0.5003  0.0651 -0.5363
37185SOL    HW113562   8.433   6.158   8.154 -1.5250 -1.3183 -0.8686
37185SOL    HW213563   8.360   6.259   8.069 -0.9364 -0.3455 -0.2365
37186SOL     OW13564   0.628   6.106   9.198 -0.2768  0.0960 -0.6332
37186SOL    HW113565   0.691   6.120   9.268  0.5893 -0.4874 -1.2645
37186SOL    HW213566   0.542   6.113   9.240  0.2221 -0.0767  0.4453
37187SOL     OW13567  10.157   8.192   7.294  0.6780 -0.2263 -0.4898
37187SOL    HW113568  10.119   8.152   7.372  0.7872 -1.2599 -0.9561
37187SOL    HW213569  10.169   8.119   7.233 -0.3122  0.7049 -1.8500
37188SOL     OW13570  10.121   3.246   0.230 -0.3950  0.2782  0.0690
37188SOL    HW113571  10.217   3.248   0.233 -0.3730  0.6632 -0.7927
37188SOL    HW213572  10.096   3.227   0.321  0.5235 -1.3046  0.0490
37189SOL     OW13573  10.218   6.604   7.214 -0.4273  0.2082  0.0875
37189SOL    HW113574  10.300   6.596   7.165 -0.8740 -3.5454 -0.3219
37189SOL    HW213575  10.166   6.668   7.164  1.2803  0.8012 -1.0148
37190SOL     OW13576  10.565   4.083   4.786 -0.2461 -0.7434 -0.7992
37190SOL    HW113577  10.476   4.078   4.752  0.6083 -0.1794 -3.3392
37190SOL    HW213578  10.583   4.177   4.792  0.0232 -0.8464  0.2193
37191SOL     OW13579   2.963   0.025   3.030  0.1511  0.9141 -0.7036
37191SOL    HW113580   3.003   0.062   2.952 -2.6022  2.0237 -1.7056
37191SOL    HW213581   2.909   0.096   3.066 -0.1714 -0.1751  1.1039
37192SOL     OW13582  10.347   2.786   1.051  0.3290  0.3352  0.0708
37192SOL    HW113583  10.385   2.765   1.137  2.5147  0.0293 -0.8924
37192SOL    HW213584  10.301   2.706   1.025  0.9758 -0.1293  0.3116
37193SOL     OW13585   2.335   6.927   6.010  0.2938 -0.8785 -0.1096
37193SOL    HW113586   2.345   7.014   5.971  0.0018 -0.1273  1.4127
37193SOL    HW213587   2.282   6.941   6.088  1.0868 -2.2600  0.7361
37194SOL     OW13588   0.333   8.937   0.994 -0.2555  0.5957  0.2368
37194SOL    HW113589   0.258   8.900   1.041 -0.2919  0.8182  0.3577
37194SOL    HW213590   0.297   8.967   0.910 -0.1881  0.1846  0.0612
37195SOL     OW13591   7.539  10.136   0.050  0.0510 -0.6659 -0.7305
37195SOL    HW113592   7.518  10.077   0.122  0.1777  1.7180  1.3840
37195SOL    HW213593   7.615  10.185   0.080  0.2493  0.2829 -2.6006
37196SOL     OW13594   7.462  10.713   4.444 -0.1848 -0.2124  0.2213
37196SOL    HW113595   7.551  10.717   4.408  0.2514  1.5661  1.3652
37196SOL    HW213596   7.458  10.786   4.506 -1.8634 -1.3358  1.5358
37197SOL     OW13597   0.423   0.084   0.001 -0.1259  0.1581 -0.1395
37197SOL    HW113598   0.487   0.052  -0.062  2.3863  1.2623  1.6990
37197SOL    HW213599   0.417   0.014   0.066  1.0965  0.9980  0.9284
37198SOL     OW13600   7.287   8.193   0.533 -0.2294 -0.3075 -0.2087
37198SOL    HW113601   7.282   8.231   0.445  0.6510  3.3971  1.1389
37198SOL    HW213602   7.260   8.265   0.591  1.0122 -2.0048  2.6643
37199SOL     OW13603   9.465   6.844   1.919  0.1720  0.2045  0.4715
37199SOL    HW113604   9.488   6.794   1.841  1.4061  0.7182  0.4846
37199SOL    HW213605   9.547   6.854   1.967 -0.4512  0.4307  1.5320
37200SOL     OW13606   0.371  11.037   8.315  0.1416  0.1400  0.0463
37200SOL    HW113607   0.396  11.114   8.366  0.1642  0.4324 -0.4004
37200SOL    HW213608   0.346  10.972   8.380  0.1583  0.5135  0.4284
37201SOL     OW13609   2.359   4.069   1.618  0.0315  0.3900 -1.1897
37201SOL    HW113610   2.383   4.017   1.695  1.6797  1.8514 -0.6638
37201SOL    HW213611   2.324   4.005   1.556 -0.9893 -0.8800  0.6111
37202SOL     OW13612   6.556   0.430   0.481  0.0624  0.0832 -0.1940
37202SOL    HW113613   6.525   0.456   0.394 -0.3274 -1.9943 -0.7266
37202SOL    HW213614   6.553   0.335   0.480 -2.1991 -0.0245  2.8746
37203SOL     OW13615   6.883   7.141   0.293  0.3400 -0.2872 -0.0230
37203SOL    HW113616   6.924   7.209   0.240 -1.4832  0.5841 -0.3783
37203SOL    HW213617   6.830   7.189   0.357 -2.1112 -1.2994 -1.1691
37204SOL     OW13618   1.390   5.121   9.741  0.4936  0.0442  0.5647
37204SOL    HW113619   1.460   5.138   9.678  1.2704  0.1947  1.4545
37204SOL    HW213620   1.419   5.043   9.788 -0.6748 -0.8211 -0.0874
37205SOL     OW13621   2.873   7.813   2.102  0.0725  0.0641 -0.1277
37205SOL    HW113622   2.818   7.762   2.044 -1.3385  0.5812  0.7057
37205SOL    HW213623   2.848   7.784   2.190  1.8003 -0.3453  0.2791
37206SOL     OW13624  10.752   4.639   8.267 -0.4027  0.3053 -0.1458
37206SOL    HW113625  10.788   4.556   8.234 -0.4443  0.6374 -1.0412
37206SOL    HW213626  10.721   4.617   8.355 -0.7235 -0.7223 -0.4897
37207SOL     OW13627   3.526   7.370   8.346 -1.2051  0.8997 -0.2396
37207SOL    HW113628   3.443   7.340   8.309 -0.6448 -1.2961  0.1432
37207SOL    HW213629   3.576   7.400   8.271 -1.8768  1.0298 -0.6433
37208SOL     OW13630   0.491   4.671   1.508 -0.1980  0.5385 -0.5703
37208SOL    HW113631   0.551   4.603   1.481  2.4659  1.4487  2.4146
37208SOL    HW213632   0.406   4.627   1.515  0.5212 -1.3539 -2.7496
37209SOL     OW13633   3.169   3.387   5.922 -0.3066  0.3768 -0.2144
37209SOL    HW113634   3.150   3.352   6.009 -1.8475  1.6311  0.0046
37209SOL    HW213635   3.092   3.365   5.870  0.9826 -1.1694 -1.5794
37210SOL     OW13636   4.910   7.282   5.614  0.1141 -0.1011  0.0849
37210SOL    HW113637   4.932   7.374   5.627  0.4387 -0.2637  0.7405
37210SOL    HW213638   4.942   7.238   5.693  0.9359 -0.9526 -0.7007
37211SOL     OW13639   6.576   7.482   1.252 -0.5349  0.8507 -0.3112
37211SOL    HW113640   6.489   7.454   1.224 -0.5519 -0.0208  0.5514
37211SOL    HW213641   6.628   7.401   1.250 -0.6756  0.5801  2.6022
37212SOL     OW13642   7.757   8.585   0.579 -0.0590 -0.1000  0.3106
37212SOL    HW113643   7.847   8.605   0.553 -0.0221 -0.7248 -0.0701
37212SOL    HW213644   7.711   8.669   0.574  0.4524  0.1803  0.2941
37213SOL     OW13645   6.403   7.676   8.703  0.2477  0.2515 -0.2992
37213SOL    HW113646   6.452   7.609   8.655  0.4831 -1.2073  1.8551
37213SOL    HW213647   6.464   7.704   8.772 -1.4905 -0.7938  1.7538
37214SOL     OW13648   0.271   5.818   7.614  0.2973  0.7603 -0.6787
37214SOL    HW113649   0.359   5.843   7.586  0.3640  0.3752 -0.8246
37214SOL    HW213650   0.281   5.728   7.645  0.0408  0.8664 -0.2797
37215SOL     OW13651   8.214   2.050   5.879  0.6120 -0.8413 -0.2567
37215SOL    HW113652   8.181   2.138   5.861  0.3082 -0.9908 -0.4484
37215SOL    HW213653   8.159   1.993   5.825  0.5528 -1.1815  0.1604
37216SOL     OW13654   4.786   6.876   1.343  0.2461 -0.0796  0.3523
37216SOL    HW113655   4.763   6.936   1.272 -2.6092 -0.5006  0.7866
37216SOL    HW213656   4.798   6.932   1.419  0.1473  0.1440  0.2033
37217SOL     OW13657   6.723  10.661   0.846 -0.0145  0.4965 -1.2775
37217SOL    HW113658   6.777  10.740   0.843  0.2975  0.2681 -3.5094
37217SOL    HW213659   6.716  10.633   0.754  1.2126 -2.9595 -0.4842
37218SOL     OW13660   9.422   6.076  10.085  0.6871  0.1936 -0.4351
37218SOL    HW113661   9.501   6.083  10.138  0.6320 -1.8079 -0.0235
37218SOL    HW213662   9.404   5.982  10.081 -1.0611  0.5336 -1.4272
37219SOL     OW13663   9.217  10.539  11.023  0.3484 -0.5349  0.3445
37219SOL    HW113664   9.160  10.494  11.085 -0.3130  0.5215  0.5241
37219SOL    HW213665   9.204  10.632  11.041  0.1635 -0.2018 -1.3384
37220SOL     OW13666   0.892   0.831   2.970 -0.5702 -0.2675  0.4180
37220SOL    HW113667   0.860   0.773   2.902  0.0437  0.4153 -0.4730
37220SOL    HW213668   0.940   0.774   3.030  1.6166 -0.5083 -1.4112
37221SOL     OW13669   3.733   5.548   8.742  0.0893 -0.5151 -1.4445
37221SOL    HW113670   3.816   5.593   8.759 -0.9322  1.5301 -1.5134
37221SOL    HW213671   3.744   5.461   8.780  0.4036  1.4218  3.7042
37222SOL     OW13672  10.146   3.886   3.861 -0.5953 -0.0390 -0.2764
37222SOL    HW113673  10.202   3.846   3.928  1.0135  0.0538 -1.5067
37222SOL    HW213674  10.200   3.955   3.822  0.2638 -2.6849 -4.4611
37223SOL     OW13675   8.545   0.082   4.512 -0.3396 -0.4580 -0.4300
37223SOL    HW113676   8.525   0.037   4.429  2.3609  0.8295 -1.9164
37223SOL    HW213677   8.634   0.055   4.534 -0.9252 -0.6176  2.0306
37224SOL     OW13678  10.849  10.122  10.841  0.3031 -0.5196  0.0717
37224SOL    HW113679  10.776  10.093  10.895 -0.5223  1.3502  0.0358
37224SOL    HW213680  10.855  10.217  10.856  0.7654 -0.1175 -2.2153
37225SOL     OW13681   8.251   2.707  10.590  0.8121  0.1849 -0.0816
37225SOL    HW113682   8.157   2.725  10.582  0.4557 -1.5783 -0.2601
37225SOL    HW213683   8.289   2.741  10.509  0.3430  0.9445  0.0102
37226SOL     OW13684   9.751   2.820   6.010 -0.2940 -0.1350  0.0309
37226SOL    HW113685   9.776   2.793   5.922 -2.9227 -0.6649 -0.6352
37226SOL    HW213686   9.825   2.872   6.041  2.0889 -2.5254 -1.2168
37227SOL     OW13687   1.656   0.474   1.810  0.2582 -0.1779 -0.1246
37227SOL    HW113688   1.650   0.530   1.732 -0.6216 -0.7683 -0.5034
37227SOL    HW213689   1.579   0.497   1.862  0.8632  0.2451  0.6091
37228SOL     OW13690   3.750   4.916   8.613  0.6855 -0.2477  0.6230
37228SOL    HW113691   3.840   4.931   8.582  0.9671 -0.0825  1.4792
37228SOL    HW213692   3.718   5.003   8.635  0.5347 -0.3746  0.9013
37229SOL     OW13693   1.984  11.063   8.036 -0.2682 -0.3839 -0.1007
37229SOL    HW113694   2.076  11.044   8.055 -0.3872  0.7884  1.9329
37229SOL    HW213695   1.943  10.977   8.027  1.0524 -0.9334 -1.4144
37230SOL     OW13696   7.990  10.294   9.841  0.5883 -0.3269 -0.1932
37230SOL    HW113697   7.919  10.231   9.830  0.7806 -0.8670  1.4071
37230SOL    HW213698   8.050  10.274   9.769  0.9211 -2.3883  0.5732
37231SOL     OW13699   1.389  10.631   4.671  0.0665  1.4377  0.3888
37231SOL    HW113700   1.458  10.588   4.621 -0.1569  0.4626  0.8995
37231SOL    HW213701   1.368  10.710   4.620 -1.7739 -0.6259 -2.3334
37232SOL     OW13702  11.077   6.961   6.679 -0.5500 -0.4747 -0.1417
37232SOL    HW113703  10.992   6.982   6.720  0.4715  1.1501  1.3091
37232SOL    HW213704  11.054   6.932   6.591 -2.6215 -0.0098  0.1733
37233SOL     OW13705   1.205   3.801   5.634  0.2195  0.5348  0.3783
37233SOL    HW113706   1.181   3.871   5.696  0.9363  0.9665  0.1815
37233SOL    HW213707   1.151   3.818   5.557  0.7574  1.1872  0.1346
37234SOL     OW13708   9.152   7.425   7.538  0.0807 -0.1455  0.4691
37234SOL    HW113709   9.119   7.342   7.571  0.6567  0.1244  1.7544
37234SOL    HW213710   9.227   7.400   7.483 -0.4998 -0.5467 -0.1619
37235SOL     OW13711   9.171   5.419   1.539  0.4901 -0.4881  0.4424
37235SOL    HW113712   9.128   5.433   1.624  1.1502 -0.2880  0.7525
37235SOL    HW213713   9.232   5.347   1.554  0.9973 -0.1000  0.2885
37236SOL     OW13714   6.869   2.615   6.836 -0.5297 -0.5517  0.4155
37236SOL    HW113715   6.853   2.628   6.930  1.2100  2.8441  0.3969
37236SOL    HW213716   6.963   2.602   6.829 -0.1861  1.9707 -0.9485
37237SOL     OW13717   6.878   0.745   5.896  0.0181  0.5480 -0.2419
37237SOL    HW113718   6.966   0.717   5.920  0.6430  0.7939 -2.0504
37237SOL    HW213719   6.839   0.669   5.854 -0.0594  0.8920 -0.8074
37238SOL     OW13720   2.382   2.824   0.690 -0.5459  0.3156 -0.1977
37238SOL    HW113721   2.362   2.765   0.763  0.6574  0.6025  0.3980
37238SOL    HW213722   2.391   2.767   0.614 -2.6976  0.0972 -0.3399
37239SOL     OW13723   2.005   3.980   6.347  0.1749  0.9044  0.0291
37239SOL    HW113724   1.909   3.979   6.353 -0.4209  0.3316 -5.1363
37239SOL    HW213725   2.030   3.888   6.335  1.3195  1.1273  0.5457
37240SOL     OW13726   3.723   0.261   9.599 -0.2664  0.7538  0.1798
37240SOL    HW113727   3.755   0.247   9.510  1.8041  0.0733  0.9896
37240SOL    HW213728   3.729   0.175   9.641 -3.5391  0.4595  0.3602
37241SOL     OW13729   1.300   3.853   7.175  0.0612 -1.0066 -0.3106
37241SOL    HW113730   1.253   3.935   7.159 -1.0804 -0.8030  3.3635
37241SOL    HW213731   1.285   3.801   7.096  0.8760  2.2355 -2.8136
37242SOL     OW13732   5.193   0.549   1.429  0.3391  0.5387  0.5957
37242SOL    HW113733   5.115   0.605   1.434  0.9721  1.5062 -0.0588
37242SOL    HW213734   5.254   0.587   1.492  0.7159  0.4918  0.2613
37243SOL     OW13735   1.224   2.815   9.848  0.7757  0.0239  0.3892
37243SOL    HW113736   1.151   2.823   9.910  1.0939  0.5008  0.7032
37243SOL    HW213737   1.261   2.903   9.843  1.7995 -0.3745  0.8068
37244SOL     OW13738   5.805   8.663   5.124 -0.4741  0.4519  0.2210
37244SOL    HW113739   5.825   8.713   5.045  2.3373  2.3875  1.9703
37244SOL    HW213740   5.774   8.729   5.186 -0.1651 -0.5839  1.5169
37245SOL     OW13741   3.158   6.118  10.035 -0.5176 -0.1086 -0.0143
37245SOL    HW113742   3.233   6.178  10.029 -0.8111  0.3064  0.4179
37245SOL    HW213743   3.186   6.050  10.096 -0.2348 -0.3420 -0.3976
37246SOL     OW13744   9.316   3.358   5.317  0.1080  0.0375 -0.5843
37246SOL    HW113745   9.223   3.348   5.338  0.8695 -1.2824  2.7433
37246SOL    HW213746   9.333   3.451   5.332 -0.5458  0.1791 -0.6663
37247SOL     OW13747   1.316   8.894   2.189 -0.3938  0.0430  0.1566
37247SOL    HW113748   1.345   8.808   2.220  2.0654  0.4422 -0.8047
37247SOL    HW213749   1.304   8.946   2.268 -0.5687 -0.7872  0.6848
37248SOL     OW13750   6.254   8.582   3.095 -0.2212  0.7235  0.5719
37248SOL    HW113751   6.344   8.564   3.069  0.0756 -0.0247  2.0643
37248SOL    HW213752   6.231   8.661   3.046  0.6566  0.0015 -1.1049
37249SOL     OW13753   8.700   2.097   8.817  0.2312  0.2656  0.8050
37249SOL    HW113754   8.732   2.048   8.892  1.5174  1.5100  1.1125
37249SOL    HW213755   8.667   2.179   8.854 -1.1060  0.0176  0.2239
37250SOL     OW13756   1.627   2.051   8.243 -0.3394 -0.3608  0.0430
37250SOL    HW113757   1.648   2.099   8.163  0.0323  0.0143  0.3597
37250SOL    HW213758   1.580   2.114   8.297  1.7991  0.3057  1.2518
37251SOL     OW13759   5.008  10.716   5.551  0.5306  0.0322  0.4691
37251SOL    HW113760   5.091  10.707   5.598  1.5121 -0.1819 -1.1987
37251SOL    HW213761   4.982  10.807   5.565 -0.2679 -0.5194  3.0019
37252SOL     OW13762   0.417   5.757   9.052 -0.4177 -0.4395  0.8925
37252SOL    HW113763   0.331   5.743   9.012 -0.4722 -0.9347  1.1827
37252SOL    HW213764   0.454   5.670   9.062  0.2072 -0.2128  0.5894
37253SOL     OW13765   3.678   6.041   5.773 -0.0000  0.2604 -0.0888
37253SOL    HW113766   3.583   6.039   5.775 -0.0430  1.6289  0.4702
37253SOL    HW213767   3.700   6.051   5.680 -0.3640 -0.6087 -0.2795
37254SOL     OW13768   4.364   1.158   6.336 -0.0930 -0.1721  0.7226
37254SOL    HW113769   4.306   1.212   6.391 -0.1888 -1.1566  1.6199
37254SOL    HW213770   4.304   1.115   6.274 -0.1535 -0.1481  0.7636
37255SOL     OW13771   8.600   6.453   6.738 -0.6191  0.5010 -0.1576
37255SOL    HW113772   8.513   6.416   6.724  0.0877 -1.3996  0.1833
37255SOL    HW213773   8.583   6.539   6.777 -2.3345  0.3638 -0.5013
37256SOL     OW13774   9.403   5.803  10.169  0.0987 -0.1812 -0.7085
37256SOL    HW113775   9.410   5.749  10.091 -1.0312 -1.5402  0.0895
37256SOL    HW213776   9.398   5.741  10.242  1.2071  1.0398  0.4775
37257SOL     OW13777   1.598   4.195   6.346 -0.6072 -0.4448 -0.0898
37257SOL    HW113778   1.541   4.257   6.301  0.1764 -0.3686 -1.0052
37257SOL    HW213779   1.608   4.122   6.285  0.8114 -0.1514 -0.2481
37258SOL     OW13780   4.107   1.761   3.916 -0.0581  0.1145 -0.0472
37258SOL    HW113781   4.097   1.850   3.949 -0.5460 -0.6951  2.1061
37258SOL    HW213782   4.032   1.750   3.856 -1.1012  0.5302  1.1449
37259SOL     OW13783  10.501   8.004   8.195  0.3684 -0.0344  0.0272
37259SOL    HW113784  10.422   8.031   8.242  1.7910  0.1241  2.4546
37259SOL    HW213785  10.558   8.081   8.197  0.8584 -0.3454 -1.1494
37260SOL     OW13786   2.067  10.204   9.611 -0.9349  0.0314 -0.4408
37260SOL    HW113787   2.011  10.164   9.545 -0.5339 -1.0181 -0.1598
37260SOL    HW213788   2.024  10.287   9.631 -0.9154  0.5174 -2.2206
37261SOL     OW13789  11.045   8.860   8.641 -0.0208  0.0535 -0.9459
37261SOL    HW113790  11.002   8.946   8.648  0.0008  0.0520 -0.7802
37261SOL    HW213791  11.084   8.847   8.728  1.8426  0.8710 -1.6187
37262SOL     OW13792   7.666   5.573   9.295 -1.0876 -0.2583 -0.5680
37262SOL    HW113793   7.746   5.547   9.342 -0.7866  1.1011 -0.2937
37262SOL    HW213794   7.682   5.547   9.205  0.4858  1.6168 -0.8984
37263SOL     OW13795   6.623   1.817   3.720  0.4531 -0.3739  0.2417
37263SOL    HW113796   6.665   1.805   3.805 -0.8025  0.0247  0.9477
37263SOL    HW213797   6.546   1.872   3.739  1.0701  1.1512 -1.4117
37264SOL     OW13798   5.426  10.843   7.244  0.4646 -0.6233  0.2642
37264SOL    HW113799   5.355  10.777   7.244  1.2102 -1.4456  0.3011
37264SOL    HW213800   5.496  10.802   7.194  0.1932  1.0072 -1.5449
37265SOL     OW13801   3.202   9.264   4.325 -0.0752 -0.1088  0.2226
37265SOL    HW113802   3.173   9.247   4.235 -2.9497 -0.0359  1.0405
37265SOL    HW213803   3.259   9.190   4.345 -0.5419 -0.9070 -1.1884
37266SOL     OW13804   9.745   6.023   5.035  0.2024 -0.0179 -0.3024
37266SOL    HW113805   9.666   5.986   5.074 -0.4434  2.0188  0.4482
37266SOL    HW213806   9.780   6.082   5.102  0.7427  1.2980 -1.6805
37267SOL     OW13807   1.991   9.476   3.315  0.2224 -0.0591 -0.1056
37267SOL    HW113808   2.010   9.487   3.222  0.0828 -1.4830 -0.3154
37267SOL    HW213809   2.074   9.452   3.354  0.1750  0.0484  0.0639
37268SOL     OW13810   5.237   3.937   1.270  0.2225 -0.4159 -0.1893
37268SOL    HW113811   5.158   3.987   1.250  0.2629  2.6363  5.1986
37268SOL    HW213812   5.206   3.865   1.325  1.0104 -0.2465  0.4951
37269SOL     OW13813   1.829   9.345   0.486  1.1190  0.7625 -0.2367
37269SOL    HW113814   1.788   9.432   0.492  2.8243  1.7251 -1.5431
37269SOL    HW213815   1.916   9.357   0.526  0.4011 -1.1348  2.1721
37270SOL     OW13816   1.944   0.352   7.623  0.2868  0.3778 -0.1164
37270SOL    HW113817   2.010   0.402   7.672  2.1226 -2.6064  0.7530
37270SOL    HW213818   1.993   0.315   7.549 -0.8830 -0.4569 -0.4913
37271SOL     OW13819   4.143   6.986   8.197  0.0618 -0.6246 -0.3628
37271SOL    HW113820   4.192   6.967   8.117 -1.2538 -0.7603 -1.1671
37271SOL    HW213821   4.135   7.081   8.199 -1.0416 -0.6992 -1.1013
37272SOL     OW13822   3.205  10.295   1.221 -0.0473  0.0349  0.6602
37272SOL    HW113823   3.155  10.353   1.164  1.2579 -0.3542 -0.9645
37272SOL    HW213824   3.248  10.234   1.161 -0.2076 -1.7070  2.2074
37273SOL     OW13825   7.461   9.686   3.575 -0.5501 -0.2497 -0.0947
37273SOL    HW113826   7.543   9.660   3.533 -0.7650 -2.1166  0.5304
37273SOL    HW213827   7.402   9.704   3.502 -0.0823 -0.6012 -0.5700
37274SOL     OW13828   1.747  10.356  10.281 -0.4626  0.3872 -0.2047
37274SOL    HW113829   1.764  10.299  10.206  1.0118 -1.9943  1.7887
37274SOL    HW213830   1.651  10.366  10.283 -0.5216  0.6818 -2.4509
37275SOL     OW13831  10.132  10.455  10.696 -0.4610 -0.1275  0.6311
37275SOL    HW113832  10.216  10.498  10.683  0.0452 -1.2646  0.0293
37275SOL    HW213833  10.105  10.427  10.608 -2.6285  2.2342  0.3994
37276SOL     OW13834  10.735   9.897   2.834  0.1339  0.5398  0.1076
37276SOL    HW113835  10.812   9.952   2.834 -0.1686  0.9770 -0.6388
37276SOL    HW213836  10.743   9.844   2.754 -0.3671  0.6417 -0.0139
37277SOL     OW13837   9.310   0.762   6.048  0.3735  0.6187  0.0965
37277SOL    HW113838   9.332   0.735   6.138  0.5252 -1.0651 -0.4049
37277SOL    HW213839   9.310   0.857   6.051  1.0072  0.6058  1.7421
37278SOL     OW13840   4.775   4.755   6.298  0.0798 -0.4126 -0.1668
37278SOL    HW113841   4.858   4.764   6.345 -0.6583  1.4142  0.9035
37278SOL    HW213842   4.716   4.717   6.363 -0.0465 -1.2745 -0.7806
37279SOL     OW13843  10.416   2.388   5.071  0.0479  0.7128  0.0649
37279SOL    HW113844  10.401   2.382   5.165  1.9545 -0.0987  0.3587
37279SOL    HW213845  10.389   2.303   5.037  0.8442  0.4255  0.1298
37280SOL     OW13846   7.064   6.809   2.218 -0.3523  0.4106 -0.0303
37280SOL    HW113847   7.038   6.798   2.309  1.2639 -0.8610  0.3282
37280SOL    HW213848   7.037   6.727   2.175 -0.3687  0.6530 -0.4875
37281SOL     OW13849   8.311   3.982   5.696  0.0782  0.5031 -0.0802
37281SOL    HW113850   8.370   3.906   5.694  2.0180  1.8190  2.2258
37281SOL    HW213851   8.275   3.982   5.785  0.1029  2.2643 -0.0407
37282SOL     OW13852   7.920   7.247   3.519  0.0044 -0.1192  0.3761
37282SOL    HW113853   8.007   7.217   3.544  0.3713 -0.7142 -1.4595
37282SOL    HW213854   7.901   7.319   3.579  1.6241 -0.1802  1.0094
37283SOL     OW13855   0.310  10.973   4.932  0.7239  0.5035  0.2251
37283SOL    HW113856   0.231  10.933   4.969 -0.2340 -0.6656 -2.7740
37283SOL    HW213857   0.376  10.903   4.936  0.9036  0.6917  0.5749
37284SOL     OW13858   7.770   7.379   0.666 -0.5473 -0.2189 -0.1763
37284SOL    HW113859   7.845   7.320   0.665  0.1538  0.6600 -0.3372
37284SOL    HW213860   7.743   7.381   0.758  0.7584  0.8571  0.2105
37285SOL     OW13861   5.395   4.570   9.750  0.2398 -0.1657  0.1817
37285SOL    HW113862   5.458   4.500   9.764  1.3563  0.7916  0.0964
37285SOL    HW213863   5.377   4.604   9.838 -0.7062 -0.8805  0.2786
37286SOL     OW13864   6.038   1.284   9.362 -0.2312 -0.2596 -0.4039
37286SOL    HW113865   6.079   1.361   9.401 -0.1799 -0.1565 -0.6577
37286SOL    HW213866   6.020   1.310   9.271  0.9724 -0.9780 -0.8727
37287SOL     OW13867   0.034   3.672   2.459  0.6309 -0.5590 -0.2215
37287SOL    HW113868  -0.024   3.743   2.432  0.4289 -1.3372 -1.9545
37287SOL    HW213869   0.040   3.681   2.554  0.9191  1.9879 -0.4003
37288SOL     OW13870  10.654   3.995  10.060 -0.1574 -0.2056  0.1808
37288SOL    HW113871  10.695   3.963  10.141  2.1048 -0.1157 -0.8401
37288SOL    HW213872  10.630   4.085  10.079  1.9062  0.3695  0.3140
37289SOL     OW13873   3.832   2.914   4.226  1.0603  0.4279  0.0751
37289SOL    HW113874   3.927   2.902   4.220  1.0134  0.5874 -1.3212
37289SOL    HW213875   3.811   2.977   4.158 -0.0646  0.3755  0.3489
37290SOL     OW13876  10.197   2.106   3.349 -0.3341 -0.0496 -0.3178
37290SOL    HW113877  10.249   2.086   3.427  0.4688  2.1014 -0.2045
37290SOL    HW213878  10.163   2.194   3.365  2.5128  1.9274 -3.6170
37291SOL     OW13879   3.491   7.645   2.966 -0.0005  0.5464  0.7378
37291SOL    HW113880   3.398   7.624   2.954  0.0829 -0.4990  1.8120
37291SOL    HW213881   3.495   7.740   2.951 -1.1708  0.5537  0.3204
37292SOL     OW13882   7.187   5.488   5.899 -0.2019 -0.0729 -0.7378
37292SOL    HW113883   7.158   5.539   5.823  0.2024  2.9076  0.9852
37292SOL    HW213884   7.274   5.456   5.874 -0.4406  0.1023 -1.8519
37293SOL     OW13885   1.155   9.405   3.000 -0.3244  0.1884  0.8270
37293SOL    HW113886   1.158   9.318   2.961 -0.6687 -0.6512  2.5555
37293SOL    HW213887   1.062   9.430   2.996 -0.4669 -0.1817  1.6539
37294SOL     OW13888   2.345   6.077   7.417  0.6992  0.4929  0.0205
37294SOL    HW113889   2.289   6.035   7.482 -0.8455  0.9577 -0.9734
37294SOL    HW213890   2.384   6.005   7.368 -1.4743  0.1484 -1.2962
37295SOL     OW13891   5.988   4.194   7.857  0.1242  0.3918 -0.4137
37295SOL    HW113892   6.080   4.210   7.875  0.3374  0.5162 -1.5505
37295SOL    HW213893   5.981   4.197   7.762 -0.8946 -0.5087 -0.3883
37296SOL     OW13894   9.054   8.822   8.416 -0.3598 -0.1337 -0.0311
37296SOL    HW113895   8.978   8.769   8.439 -0.5174  1.0436  2.4303
37296SOL    HW213896   9.052   8.895   8.477  2.4630  0.2255 -0.2407
37297SOL     OW13897   4.696   9.305   7.587  0.1994 -0.3031 -0.4498
37297SOL    HW113898   4.684   9.211   7.573  1.2889 -0.5120 -0.0512
37297SOL    HW213899   4.712   9.314   7.681  1.3717  0.1184 -0.6669
37298SOL     OW13900   1.509   0.916   0.343 -0.6725  0.2072  0.2778
37298SOL    HW113901   1.557   0.850   0.394  0.4815  0.2029 -0.7646
37298SOL    HW213902   1.437   0.942   0.400 -1.0328 -1.7950  0.8045
37299SOL     OW13903   6.884  10.685   3.461 -0.1412 -0.4113 -0.2611
37299SOL    HW113904   6.970  10.676   3.422 -0.5807 -1.5684 -1.0420
37299SOL    HW213905   6.837  10.606   3.433 -0.4412 -1.4237  2.7235
37300SOL     OW13906  11.032   5.843   9.753 -0.0765 -0.3549 -0.0239
37300SOL    HW113907  10.951   5.883   9.722  1.6075  3.0481 -0.4564
37300SOL    HW213908  11.069   5.800   9.676 -0.1251  0.5515 -0.5655
37301SOL     OW13909   9.635   2.866   4.407 -0.4203 -1.0616  0.4143
37301SOL    HW113910   9.706   2.891   4.348  0.1449 -0.1471  1.4430
37301SOL    HW213911   9.605   2.781   4.374  0.6014 -1.0817 -0.5206
37302SOL     OW13912   9.490   7.786   7.386  0.1174  0.0850 -0.3054
37302SOL    HW113913   9.520   7.844   7.457 -0.2631 -0.4231  0.2764
37302SOL    HW213914   9.567   7.735   7.363 -0.6717 -2.7873  2.6842
37303SOL     OW13915   5.208   2.234   5.890 -0.1224 -0.1517  0.2646
37303SOL    HW113916   5.236   2.156   5.938  0.4552 -0.4270 -0.5034
37303SOL    HW213917   5.134   2.204   5.837  0.7463 -0.4372 -0.8012
37304SOL     OW13918   3.586   3.792  10.562 -0.1760  1.5990 -0.4089
37304SOL    HW113919   3.493   3.802  10.583 -0.2339 -1.1760  1.2862
37304SOL    HW213920   3.588   3.757  10.473 -1.1589 -2.0594  0.8386
37305SOL     OW13921   9.521   8.817   9.504  0.0905  0.2791  0.7864
37305SOL    HW113922   9.436   8.860   9.496  0.2710  0.6237  0.7375
37305SOL    HW213923   9.520   8.781   9.593  0.0519  0.6153  0.9222
37306SOL     OW13924   0.255   1.667   7.459  0.2837  0.1979 -0.1598
37306SOL    HW113925   0.338   1.619   7.469  0.2153  0.0907 -0.1120
37306SOL    HW213926   0.211   1.658   7.543 -1.0998 -2.2140 -1.0341
37307SOL     OW13927  10.712   2.854   7.853  0.0060 -0.1345  0.2881
37307SOL    HW113928  10.687   2.771   7.812  4.0403 -1.1774 -0.4853
37307SOL    HW213929  10.719   2.833   7.946 -0.6056 -0.1675  0.3319
37308SOL     OW13930   7.980   0.042   3.730 -0.5231  0.1093 -0.4233
37308SOL    HW113931   7.905   0.094   3.702  0.2138  1.1730 -0.4632
37308SOL    HW213932   8.008   0.083   3.812  0.6703  0.4034 -0.9618
37309SOL     OW13933   3.983   8.076   5.919 -0.0606 -0.8821  0.1540
37309SOL    HW113934   3.889   8.071   5.906 -0.1932  1.4502 -0.1865
37309SOL    HW213935   4.020   8.027   5.845 -1.0317  2.0291 -2.5146
37310SOL     OW13936   1.714   3.425   3.826  0.1689  0.1327  0.2842
37310SOL    HW113937   1.740   3.357   3.764  0.7957 -0.9155  1.6449
37310SOL    HW213938   1.698   3.378   3.908  0.1398  1.5737  1.1370
37311SOL     OW13939   6.403   1.930   2.141  0.0076  0.3175 -0.7669
37311SOL    HW113940   6.449   1.893   2.065  2.3990  2.1806 -0.3350
37311SOL    HW213941   6.465   1.991   2.180 -2.1714  1.5176  1.0941
37312SOL     OW13942   2.172   4.604   7.721  0.1581 -0.0075  0.2149
37312SOL    HW113943   2.210   4.691   7.705  1.1288 -0.2021  1.3327
37312SOL    HW213944   2.165   4.599   7.816 -0.7338 -0.8204  0.1160
37313SOL     OW13945   6.674   2.090   5.463  0.2521 -0.5026  0.2358
37313SOL    HW113946   6.688   2.145   5.540 -0.6012 -0.2647  0.2339
37313SOL    HW213947   6.611   2.138   5.410  0.9755 -0.5760 -0.7196
37314SOL     OW13948   3.986   6.728  10.013 -0.7682 -0.5023  0.3198
37314SOL    HW113949   4.080   6.713  10.026 -0.5465 -0.3085 -0.8963
37314SOL    HW213950   3.952   6.748  10.101  0.7346  1.5972  0.5159
37315SOL     OW13951   6.423   6.302   8.081 -0.5742  1.0515  0.6413
37315SOL    HW113952   6.513   6.289   8.053 -0.8418 -2.6033  0.9608
37315SOL    HW213953   6.370   6.267   8.010 -1.6858  1.6555  1.1472
37316SOL     OW13954   0.219   4.913   5.180  0.0024  0.2840  0.0546
37316SOL    HW113955   0.276   4.908   5.257  0.4919  1.7312 -0.1840
37316SOL    HW213956   0.137   4.950   5.213  0.0241  0.4081 -0.0321
37317SOL     OW13957   5.852   2.961   1.323 -0.0848 -0.0042 -0.3999
37317SOL    HW113958   5.915   2.901   1.284 -0.1590  0.4551 -1.2376
37317SOL    HW213959   5.878   3.048   1.292 -2.0692  0.0549 -2.1034
37318SOL     OW13960   7.349   2.611   4.018  0.2540 -0.0831 -0.6762
37318SOL    HW113961   7.295   2.672   4.067  0.9305  0.4218 -0.5379
37318SOL    HW213962   7.349   2.531   4.070  2.1625  0.9038  0.9589
37319SOL     OW13963   6.537   2.858   9.529  0.1845  0.1458  0.1817
37319SOL    HW113964   6.562   2.820   9.613  1.3017 -0.8038 -0.5503
37319SOL    HW213965   6.618   2.894   9.493 -0.4872  1.5412 -0.0166
37320SOL     OW13966   9.853   2.040   6.252  0.1003  0.2298 -0.1308
37320SOL    HW113967   9.897   2.036   6.167  1.8475 -1.1025  0.7798
37320SOL    HW213968   9.914   1.999   6.313 -3.0187 -3.4301  0.9623
37321SOL     OW13969   1.623   5.677   8.777  0.6341  0.5792  0.3315
37321SOL    HW113970   1.632   5.745   8.710  0.1269  2.0637  1.6986
37321SOL    HW213971   1.532   5.686   8.807  0.3214 -1.2207  0.0571
37322SOL     OW13972   9.861  11.061  10.581 -0.2998 -0.4540  0.4328
37322SOL    HW113973   9.846  11.024  10.494 -0.8531 -1.1206  0.8046
37322SOL    HW213974   9.797  11.018  10.637  0.2437 -0.2517  1.2310
37323SOL     OW13975   2.110   3.466  10.659 -0.1461  0.6482 -0.4896
37323SOL    HW113976   2.200   3.491  10.636 -0.5998  1.4994 -1.3995
37323SOL    HW213977   2.055   3.519  10.602 -1.2098 -1.2622 -1.3182
37324SOL     OW13978   8.249   6.519   1.089  0.4649  0.4387  0.9426
37324SOL    HW113979   8.282   6.466   1.161 -0.8127  0.3138  1.4638
37324SOL    HW213980   8.239   6.457   1.017  1.9914  0.6131  0.5424
37325SOL     OW13981   3.089   4.458   8.172 -0.0493  0.4639  0.5559
37325SOL    HW113982   3.014   4.408   8.205 -0.5922  0.5696 -0.4894
37325SOL    HW213983   3.072   4.468   8.078  2.6407 -1.9401 -0.3195
37326SOL     OW13984   3.832  10.952   4.919 -0.5984 -0.3445 -0.6987
37326SOL    HW113985   3.819  10.876   4.976 -0.6130  0.0291 -0.2068
37326SOL    HW213986   3.744  10.987   4.905 -0.5615 -0.2545 -0.7059
37327SOL     OW13987   3.551   3.199   0.145  0.1107  0.0071 -0.1969
37327SOL    HW113988   3.622   3.172   0.203  1.4162  2.1205 -0.6984
37327SOL    HW213989   3.491   3.248   0.202 -0.3724 -0.7735 -0.0121
37328SOL     OW13990   2.037   7.478  10.388 -0.2814 -0.3158 -0.2407
37328SOL    HW113991   2.023   7.411  10.454 -2.2684  1.0247  0.8000
37328SOL    HW213992   1.978   7.455  10.317 -0.1743 -0.2681 -0.3449
37329SOL     OW13993   9.131   3.645   3.056  0.1937  0.0712 -0.3922
37329SOL    HW113994   9.070   3.576   3.028  1.1812 -0.3255 -1.6965
37329SOL    HW213995   9.080   3.725   3.054 -0.5831 -0.4140 -0.3482
37330SOL     OW13996   3.406   9.828   2.316 -0.6117 -0.0204 -0.0667
37330SOL    HW113997   3.409   9.909   2.264 -0.2051 -1.4423 -2.3843
37330SOL    HW213998   3.374   9.761   2.255  2.0919 -2.2753  0.8046
37331SOL     OW13999   4.680   8.026   3.305  0.2739 -0.0035 -0.7843
37331SOL    HW114000   4.640   8.113   3.298  1.7029  0.6834 -0.7302
37331SOL    HW214001   4.726   8.014   3.222 -0.1915 -0.8746 -0.9318
37332SOL     OW14002   5.758   3.066   4.577  0.4678  0.5290  0.3717
37332SOL    HW114003   5.844   3.067   4.535  1.1732  3.9039  1.5877
37332SOL    HW214004   5.696   3.057   4.504  1.7719  0.5708 -0.7949
37333SOL     OW14005   3.473   5.726   7.158 -0.4921 -0.5161  0.2959
37333SOL    HW114006   3.562   5.690   7.154 -1.7319 -3.9327  0.3280
37333SOL    HW214007   3.442   5.702   7.245 -2.2012 -1.4389 -0.5292
37334SOL     OW14008   9.744  10.968   4.370 -0.0479  0.2171  0.5521
37334SOL    HW114009   9.732  11.053   4.411  1.9803  1.8321 -1.8705
37334SOL    HW214010   9.726  10.983   4.278  1.0971 -1.7696 -0.0563
37335SOL     OW14011   8.860   1.701   9.224 -0.0499  0.5117  0.6950
37335SOL    HW114012   8.790   1.765   9.231 -0.0922  0.9838 -2.5568
37335SOL    HW214013   8.816   1.618   9.207  0.1144  0.8064 -1.3368
37336SOL     OW14014   1.613   0.771   1.426  0.3798 -0.1314  0.1221
37336SOL    HW114015   1.641   0.790   1.337  0.4496 -0.3577  0.0942
37336SOL    HW214016   1.547   0.838   1.446  1.9236  1.2797  0.7051
37337SOL     OW14017  10.296   5.961   6.819  0.3032  0.0325  0.4644
37337SOL    HW114018  10.330   5.968   6.730 -0.2512 -0.3271  0.2215
37337SOL    HW214019  10.319   5.873   6.847  0.5184  0.1601  0.7031
37338SOL     OW14020   6.379  10.738   2.486 -0.2148  0.1385 -0.0384
37338SOL    HW114021   6.300  10.773   2.528  1.1273  1.5769  1.3827
37338SOL    HW214022   6.408  10.808   2.428  1.1266  0.4646  0.9846
37339SOL     OW14023   0.681   9.178  11.055  0.1055 -0.8764 -0.0206
37339SOL    HW114024   0.688   9.102  11.112  0.6725 -2.1935 -1.7782
37339SOL    HW214025   0.750   9.237  11.085  0.2863 -1.4647  0.7472
37340SOL     OW14026   9.590   4.025   5.071  0.2986  0.6176 -0.0467
37340SOL    HW114027   9.535   4.100   5.047 -0.6275  0.6519  1.9691
37340SOL    HW214028   9.678   4.049   5.041  0.2316  2.9990  1.4451
37341SOL     OW14029   1.504   4.571   7.484 -0.4826  0.1628 -0.2207
37341SOL    HW114030   1.532   4.622   7.408  0.7338 -1.1746 -0.7080
37341SOL    HW214031   1.410   4.590   7.492 -0.0069  2.8517 -0.0314
37342SOL     OW14032   9.264   2.414   4.137  0.1974 -0.1959  0.3092
37342SOL    HW114033   9.323   2.471   4.089  1.4353 -1.3632  0.3801
37342SOL    HW214034   9.178   2.453   4.126  0.6005  0.1436 -1.9831
37343SOL     OW14035   9.749   3.654  10.074 -0.0237 -0.5896 -0.6797
37343SOL    HW114036   9.773   3.587  10.010 -3.0194 -2.2905 -0.2161
37343SOL    HW214037   9.688   3.711  10.028 -0.2105 -0.2632 -0.0462
37344SOL     OW14038   2.626   5.954   2.124 -0.0844 -0.4085  0.9143
37344SOL    HW114039   2.666   5.871   2.099  0.6384  0.4885 -1.1388
37344SOL    HW214040   2.545   5.930   2.168 -0.8529 -2.2137 -1.3067
37345SOL     OW14041   0.802   3.136   9.690 -0.1305 -0.4157  0.0607
37345SOL    HW114042   0.713   3.160   9.663 -0.8801 -0.6275  2.1709
37345SOL    HW214043   0.810   3.043   9.667 -0.0111 -0.1210 -1.1606
37346SOL     OW14044   4.114   6.791   5.500  0.9765  0.2055 -0.3497
37346SOL    HW114045   4.092   6.831   5.585  3.0903  1.0802 -0.1653
37346SOL    HW214046   4.047   6.825   5.440 -0.7672 -0.6976  0.9810
37347SOL     OW14047   9.486   7.573   9.409 -0.3306  0.1491 -0.1657
37347SOL    HW114048   9.561   7.569   9.469  1.5534  0.0688 -2.3656
37347SOL    HW214049   9.476   7.666   9.391 -0.4158  0.1158 -0.2847
37348SOL     OW14050   2.686   9.758   4.266  0.7416  0.3885  0.1524
37348SOL    HW114051   2.757   9.694   4.270  1.1164  0.7251 -0.9512
37348SOL    HW214052   2.625   9.729   4.334  0.3104 -1.8542 -1.0843
37349SOL     OW14053   8.230  10.030   0.316  0.4881 -0.7070  0.5515
37349SOL    HW114054   8.147  10.063   0.281  0.7514  0.4434  0.9530
37349SOL    HW214055   8.280  10.006   0.238  0.3685  0.1070  0.2070
37350SOL     OW14056   1.215   5.442   1.455 -0.3051  0.0621  0.1792
37350SOL    HW114057   1.177   5.390   1.385 -0.5080 -0.2323  0.5064
37350SOL    HW214058   1.160   5.424   1.532  0.3379 -0.1715  0.5926
37351SOL     OW14059   6.516   6.550   3.483  0.4034  0.3604  0.2436
37351SOL    HW114060   6.502   6.635   3.525  2.3551  0.9613 -0.2592
37351SOL    HW214061   6.610   6.543   3.472  0.1621 -1.0678 -1.4247
37352SOL     OW14062   0.990   6.383  10.153  0.1027 -0.0653  0.2033
37352SOL    HW114063   1.014   6.400  10.244  0.7181  1.1984 -0.1628
37352SOL    HW214064   0.895   6.390  10.152  0.1995  1.7719  0.4389
37353SOL     OW14065   2.905   0.137   1.731 -0.6209  0.2414  0.1221
37353SOL    HW114066   2.981   0.192   1.750 -0.2381 -0.7969  1.8151
37353SOL    HW214067   2.941   0.063   1.681 -0.3516 -0.6315  1.5675
37354SOL     OW14068   8.446   1.774   0.914 -0.3175 -0.0584  0.1946
37354SOL    HW114069   8.485   1.761   0.828  0.3981 -0.5824  0.5809
37354SOL    HW214070   8.407   1.689   0.936  0.5080 -0.2864  0.8591
37355SOL     OW14071   1.733   6.655   4.650  0.1691 -0.1834 -0.2503
37355SOL    HW114072   1.680   6.582   4.618  1.2962 -0.9781 -0.3650
37355SOL    HW214073   1.726   6.722   4.581  0.9318 -1.0762 -1.2208
37356SOL     OW14074   9.078   8.022   2.489 -0.6310  0.6239  0.1763
37356SOL    HW114075   9.026   8.044   2.567 -2.3882 -1.2860 -0.3520
37356SOL    HW214076   9.028   7.953   2.447  2.4327 -1.4458 -0.3719
37357SOL     OW14077   7.613   8.014   7.260  0.2480 -0.4888  0.1901
37357SOL    HW114078   7.681   8.004   7.327  0.2878 -1.1006  0.0696
37357SOL    HW214079   7.660   8.044   7.182  0.1947  0.2735  0.4423
37358SOL     OW14080   6.203   5.333   8.577 -0.6636 -0.4886 -0.4737
37358SOL    HW114081   6.254   5.299   8.503  1.7705 -0.0618  0.8976
37358SOL    HW214082   6.234   5.422   8.589 -2.3604  0.0822 -0.0383
37359SOL     OW14083   5.206   5.635   4.614  0.0001  0.4911  0.7946
37359SOL    HW114084   5.189   5.728   4.596 -0.2805  1.0114  3.4061
37359SOL    HW214085   5.300   5.625   4.599 -0.2063  0.8102 -0.9103
37360SOL     OW14086   8.221  10.132   8.108  0.1699  0.2879  0.3607
37360SOL    HW114087   8.216  10.043   8.145 -0.2546 -0.4613 -1.3959
37360SOL    HW214088   8.181  10.124   8.021  0.3022  2.1742  0.0893
37361SOL     OW14089   2.806   8.651   5.614  0.0640  0.5579 -0.6302
37361SOL    HW114090   2.839   8.587   5.677 -1.6572 -0.5853 -0.8313
37361SOL    HW214091   2.853   8.632   5.533  3.1346  2.7604  0.4414
37362SOL     OW14092   4.188   0.151   3.892 -0.1821 -0.2482  0.3358
37362SOL    HW114093   4.168   0.182   3.980 -0.0534 -0.6218  0.4979
37362SOL    HW214094   4.212   0.059   3.903 -1.9153 -0.8235 -0.3086
37363SOL     OW14095   2.542   6.134   9.545  0.6738 -0.3020 -0.5992
37363SOL    HW114096   2.594   6.059   9.571  0.1964  0.0270  1.4575
37363SOL    HW214097   2.605   6.205   9.534  0.9955 -0.7024 -1.4096
37364SOL     OW14098   7.241   4.060   3.439 -0.4615 -0.3677  0.3642
37364SOL    HW114099   7.322   4.100   3.409  0.0880 -2.4577 -1.0562
37364SOL    HW214100   7.176   4.083   3.372 -0.0490 -2.0821 -0.6817
37365SOL     OW14101   2.113   1.337   1.352  0.3770  0.0281 -0.1621
37365SOL    HW114102   2.135   1.393   1.427 -0.6916  0.3278 -0.0452
37365SOL    HW214103   2.188   1.280   1.342  1.3187  1.1925 -0.0013
37366SOL     OW14104   5.668   5.650   7.403 -0.0411 -0.3674 -0.0294
37366SOL    HW114105   5.593   5.698   7.439 -0.2947  1.7730 -3.0678
37366SOL    HW214106   5.744   5.704   7.425  0.4701 -1.6360  1.5105
37367SOL     OW14107   4.123   8.599   4.859  0.2536 -0.3188 -0.1328
37367SOL    HW114108   4.036   8.570   4.887  0.8567  0.0449  2.3456
37367SOL    HW214109   4.183   8.542   4.906  1.4014  2.0588  1.4441
37368SOL     OW14110   0.060  10.330   0.686  0.1294 -0.3764  0.9503
37368SOL    HW114111   0.083  10.237   0.699  0.8136 -0.6071 -1.4883
37368SOL    HW214112  -0.015  10.328   0.626 -0.1221  0.6676  1.2094
37369SOL     OW14113   7.787   7.672   1.122  0.3463  0.0561  0.0065
37369SOL    HW114114   7.760   7.757   1.085  0.9874  0.9753  1.5364
37369SOL    HW214115   7.869   7.652   1.078 -0.0894 -0.0461 -0.7656
37370SOL     OW14116   0.901   5.053   2.949 -0.1438  0.1506  0.3372
37370SOL    HW114117   0.836   5.059   2.879 -0.2874  2.0466  0.5884
37370SOL    HW214118   0.916   4.959   2.960  1.3994 -0.2502 -3.5971
37371SOL     OW14119   4.280   7.867   4.657  0.5405 -0.3845  0.6442
37371SOL    HW114120   4.308   7.802   4.593  2.2622  1.0763 -0.1837
37371SOL    HW214121   4.211   7.823   4.707 -1.4106 -1.3691 -2.6237
37372SOL     OW14122  11.024   8.588   6.763  0.0655  0.0815 -0.3816
37372SOL    HW114123  11.046   8.601   6.671  0.6663 -1.0082 -0.4060
37372SOL    HW214124  11.092   8.635   6.811 -1.7956  3.0877 -0.4433
37373SOL     OW14125   0.330   6.310   6.399 -0.1539 -0.1684 -0.4238
37373SOL    HW114126   0.391   6.241   6.373  0.2670  0.2488 -0.5660
37373SOL    HW214127   0.335   6.311   6.495  0.0502 -0.1495 -0.4343
37374SOL     OW14128   9.444   8.879   7.500 -0.6301 -0.9639  0.5294
37374SOL    HW114129   9.367   8.906   7.549 -0.4345  1.2389 -0.2818
37374SOL    HW214130   9.517   8.919   7.547 -0.2045 -1.0818 -0.0214
37375SOL     OW14131   1.838   1.785   2.539  0.4156 -0.0522 -0.1683
37375SOL    HW114132   1.827   1.768   2.445  2.9861  3.3914 -1.3257
37375SOL    HW214133   1.927   1.755   2.559 -0.1497 -0.8777  1.2474
37376SOL     OW14134   8.878   8.275   6.001  0.1983 -0.0844 -0.0703
37376SOL    HW114135   8.864   8.208   5.934  1.7467  0.7371 -1.2793
37376SOL    HW214136   8.856   8.232   6.083 -0.8859 -1.4030 -1.0116
37377SOL     OW14137   2.818   6.183   8.879 -0.6172 -0.2773  0.4288
37377SOL    HW114138   2.799   6.242   8.952  2.9400  1.3113  0.3325
37377SOL    HW214139   2.856   6.105   8.919  1.0168  0.4517  0.3763
37378SOL     OW14140   4.423   4.432   4.914  0.4409  0.0933  0.1744
37378SOL    HW114141   4.355   4.387   4.863  1.0581  0.0771 -0.6539
37378SOL    HW214142   4.430   4.381   4.995  1.3562 -1.5571 -0.8736
37379SOL     OW14143  10.543   6.554   5.098 -0.5834  0.0733  0.1415
37379SOL    HW114144  10.499   6.622   5.149  0.8333  0.2247  1.2007
37379SOL    HW214145  10.607   6.516   5.158  0.7402 -0.1394 -1.3475
37380SOL     OW14146   1.657   7.011   3.321 -0.5309 -0.3061 -0.5879
37380SOL    HW114147   1.743   7.048   3.302  0.1208 -2.2046 -1.6015
37380SOL    HW214148   1.669   6.963   3.403 -0.5053 -0.9269 -0.9540
37381SOL     OW14149  10.071   5.483   0.953  0.2316  0.0771 -0.5093
37381SOL    HW114150  10.013   5.408   0.942 -1.4578  1.5232 -2.2145
37381SOL    HW214151  10.012   5.557   0.967  1.8684  1.0133  2.1041
37382SOL     OW14152   0.155  10.435   7.442 -0.5258 -0.1163  0.2603
37382SOL    HW114153   0.199  10.359   7.404 -1.0295  0.2582 -1.1410
37382SOL    HW214154   0.115  10.402   7.522  2.6944 -0.3540  1.9638
37383SOL     OW14155   4.483  10.786   9.964 -0.1383  0.0652  0.7045
37383SOL    HW114156   4.540  10.710   9.975 -1.2528 -0.5396  2.7239
37383SOL    HW214157   4.508  10.822   9.879  0.8179 -2.2088 -0.0564
37384SOL     OW14158   0.988   6.737  10.643  0.2974 -0.3493  0.3411
37384SOL    HW114159   1.065   6.682  10.629 -0.1052 -0.4071 -1.9890
37384SOL    HW214160   0.920   6.676  10.672  0.8249 -0.4496  1.4284
37385SOL     OW14161   2.342   9.109   9.271  0.2067  0.0292  0.0399
37385SOL    HW114162   2.343   9.013   9.263 -0.4865 -0.0238  0.5428
37385SOL    HW214163   2.434   9.133   9.278  0.5108 -0.4545 -1.7787
37386SOL     OW14164   5.894   1.737   8.762  0.6249 -0.0995  0.2601
37386SOL    HW114165   5.938   1.656   8.736 -0.5654 -0.9437  0.8272
37386SOL    HW214166   5.814   1.738   8.710  0.0811  0.1302  1.0896
37387SOL     OW14167   2.915   1.935   3.806  0.3826  0.3599 -0.0057
37387SOL    HW114168   2.992   1.987   3.785  1.7936 -1.0912  1.2889
37387SOL    HW214169   2.858   1.944   3.730  0.6288  3.5583  0.0610
37388SOL     OW14170   5.258   4.319   3.345 -0.3601  0.1686  0.0956
37388SOL    HW114171   5.240   4.379   3.273  1.0335  2.6373  1.6416
37388SOL    HW214172   5.250   4.373   3.424 -2.1695 -2.4737  1.9049
37389SOL     OW14173   1.493   3.385   0.151  0.1074 -0.0438  0.2521
37389SOL    HW114174   1.520   3.447   0.084 -0.8136 -0.5588 -0.6165
37389SOL    HW214175   1.479   3.303   0.104 -1.6639 -0.1281  0.8575
37390SOL     OW14176   6.347   3.233  10.017 -0.5352 -0.2108 -0.4678
37390SOL    HW114177   6.348   3.179   9.938 -0.3772 -1.6604  0.4993
37390SOL    HW214178   6.364   3.172  10.089 -0.9628  1.0216  0.7279
37391SOL     OW14179   6.574   4.047   5.794  0.5575  0.3056  0.0761
37391SOL    HW114180   6.645   3.986   5.771  1.7966  1.9675 -0.6658
37391SOL    HW214181   6.608   4.133   5.770 -1.2191  1.2881  0.9534
37392SOL     OW14182   1.506   5.373   7.405  0.1688  0.2374  0.4583
37392SOL    HW114183   1.451   5.439   7.361 -0.4537  0.4451  1.5201
37392SOL    HW214184   1.475   5.372   7.495 -0.5514 -2.2938  0.2377
37393SOL     OW14185   0.791   1.753   2.113  0.0389 -0.0688 -0.5488
37393SOL    HW114186   0.710   1.797   2.088 -1.0545 -2.2412 -1.0724
37393SOL    HW214187   0.773   1.660   2.099  0.9932 -1.1131  3.7579
37394SOL     OW14188   1.835   1.551   7.392  0.7369 -0.2595 -0.3501
37394SOL    HW114189   1.876   1.583   7.472  1.1928 -1.5411 -0.0406
37394SOL    HW214190   1.787   1.626   7.358  1.1043  0.5051  0.7505
37395SOL     OW14191   2.223   8.606   1.831 -0.0705 -0.2150 -0.7714
37395SOL    HW114192   2.275   8.580   1.754  1.8689  1.6669 -0.1829
37395SOL    HW214193   2.205   8.523   1.876  0.6993 -1.1220 -2.0376
37396SOL     OW14194   2.349  10.329   5.406  0.1526  0.0896 -0.1484
37396SOL    HW114195   2.276  10.390   5.415  1.8522  2.0918  0.6398
37396SOL    HW214196   2.385  10.321   5.494  0.9180 -0.8895 -0.5296
37397SOL     OW14197   2.973   3.518   2.922 -0.3029 -0.6058  0.3104
37397SOL    HW114198   2.938   3.602   2.951  0.1136 -0.3230  0.0088
37397SOL    HW214199   3.045   3.500   2.982  1.3103  0.5396 -1.1832
37398SOL     OW14200  10.936   5.991   2.517  0.3454 -0.1969  0.1213
37398SOL    HW114201  10.908   6.058   2.580  0.9486 -1.3866  1.7243
37398SOL    HW214202  10.857   5.972   2.467  0.1902  1.7808 -0.4670
37399SOL     OW14203   8.114   8.727   4.879  0.2453  0.1493  0.1736
37399SOL    HW114204   8.124   8.644   4.925  1.4634 -0.3211 -0.8797
37399SOL    HW214205   8.197   8.773   4.893 -0.1769  0.9268  0.2104
37400SOL     OW14206   6.374  10.444   3.972  0.1039 -0.2400  0.0426
37400SOL    HW114207   6.292  10.493   3.977  0.7485  1.0059 -0.9219
37400SOL    HW214208   6.349  10.353   3.982 -1.4219  0.0946 -0.5253
37401SOL     OW14209  10.974   9.575   0.288 -0.0087  0.0565  0.3653
37401SOL    HW114210  11.042   9.583   0.354 -0.5411 -1.2889  1.1047
37401SOL    HW214211  11.017   9.530   0.214 -0.1323 -0.9904  0.9155
37402SOL     OW14212   8.255   3.275   1.105  0.0933 -0.4518 -0.3656
37402SOL    HW114213   8.203   3.355   1.102 -1.0091 -1.0980  0.4037
37402SOL    HW214214   8.313   3.280   1.030 -0.1705  0.9231 -0.4927
37403SOL     OW14215   9.304   0.509   5.999 -0.3188 -0.0484  0.2415
37403SOL    HW114216   9.241   0.503   5.927  1.4363  0.0335 -1.3844
37403SOL    HW214217   9.313   0.603   6.015  3.0246  0.4677 -3.1015
37404SOL     OW14218  10.441   3.275   8.149 -0.1683 -0.4555 -0.1509
37404SOL    HW114219  10.381   3.336   8.192 -0.7955 -0.1137 -1.4572
37404SOL    HW214220  10.507   3.255   8.215 -2.0167 -1.3065  1.5259
37405SOL     OW14221   6.556   2.392   7.891  0.4288 -0.4249  0.1458
37405SOL    HW114222   6.571   2.473   7.842 -0.7242 -1.1274 -1.4315
37405SOL    HW214223   6.640   2.346   7.888  0.5233 -0.2143 -0.7531
37406SOL     OW14224   8.906   5.421   2.596 -0.2739  0.9402  0.2493
37406SOL    HW114225   8.908   5.429   2.500  1.4357  1.5863  0.3034
37406SOL    HW214226   8.858   5.340   2.612 -0.7460  0.9195 -1.1513
37407SOL     OW14227   0.993   0.781  10.887 -0.5004  0.0269  0.2051
37407SOL    HW114228   1.020   0.719  10.820 -2.1312  0.6003 -1.0415
37407SOL    HW214229   0.898   0.786  10.879 -0.8652 -0.4164  3.0746
37408SOL     OW14230   1.954  10.238  10.134  0.0718 -0.0932  0.5380
37408SOL    HW114231   1.984  10.321  10.171  0.4430  0.0307 -0.0326
37408SOL    HW214232   2.011  10.172  10.172  0.0667 -0.0372  0.6428
37409SOL     OW14233   7.526   5.980   2.236 -0.4245  0.0859 -0.5397
37409SOL    HW114234   7.458   5.989   2.303  0.1688 -2.7354  0.5961
37409SOL    HW214235   7.494   6.032   2.162 -1.7728  2.2050  1.3813
37410SOL     OW14236   6.217   4.529   9.596 -0.7811  0.1107  0.1997
37410SOL    HW114237   6.265   4.522   9.514  0.2100 -1.3291  0.8626
37410SOL    HW214238   6.261   4.468   9.655 -3.9090 -1.9593  0.6308
37411SOL     OW14239   6.560   4.077   7.344  0.5499  0.1105  0.1745
37411SOL    HW114240   6.541   4.018   7.271  2.3752  0.0564 -0.2955
37411SOL    HW214241   6.563   4.164   7.304  1.2596  0.1154  0.2381
37412SOL     OW14242   6.891   9.237   7.383 -0.8313 -0.2334  0.5501
37412SOL    HW114243   6.924   9.157   7.423 -0.1012 -0.6517 -0.8255
37412SOL    HW214244   6.909   9.227   7.289  2.2313  2.8719  0.6115
37413SOL     OW14245   6.921   4.832  11.039  0.1592  0.3504  0.3338
37413SOL    HW114246   6.927   4.746  10.997 -0.9664 -0.4948  1.7963
37413SOL    HW214247   6.830   4.858  11.028  0.2531  0.8846  0.7947
37414SOL     OW14248   0.235  10.064   1.195 -0.1675 -0.0043  0.5875
37414SOL    HW114249   0.181   9.997   1.236  0.8996 -0.0015  2.0678
37414SOL    HW214250   0.201  10.147   1.230 -0.8107  0.1917 -0.4423
37415SOL     OW14251   4.207   2.608   8.326 -0.1695 -0.0372 -0.1367
37415SOL    HW114252   4.174   2.687   8.368 -0.3654 -1.0147  1.6231
37415SOL    HW214253   4.149   2.539   8.356  1.9941 -1.4149  1.1246
37416SOL     OW14254   9.410   0.792   0.135  0.3317  0.4113 -0.1507
37416SOL    HW114255   9.377   0.716   0.087 -0.4236 -0.5226  1.7621
37416SOL    HW214256   9.414   0.862   0.069  0.2834 -1.0467 -1.7756
37417SOL     OW14257   1.420  10.282   9.333  0.7570 -0.5167  0.0820
37417SOL    HW114258   1.359  10.355   9.326 -0.7938 -1.6294  1.2453
37417SOL    HW214259   1.387  10.217   9.270  1.9758 -0.3591 -0.7656
37418SOL     OW14260   6.805   2.399   8.149 -0.2286  0.4444 -0.3933
37418SOL    HW114261   6.786   2.457   8.223 -1.6070  0.9554 -1.1239
37418SOL    HW214262   6.773   2.314   8.177 -0.1347  0.4926 -0.1364
37419SOL     OW14263   9.663   1.877   5.635  0.0359 -0.0609  0.2630
37419SOL    HW114264   9.631   1.800   5.588  0.8809 -0.7989  0.8740
37419SOL    HW214265   9.698   1.934   5.566 -2.0333  0.5362 -0.3658
37420SOL     OW14266   6.633   8.119   0.502 -0.1811  0.2457  0.2016
37420SOL    HW114267   6.660   8.029   0.517 -2.6239 -0.4350  0.9755
37420SOL    HW214268   6.559   8.112   0.441 -1.8359  1.4859  1.9592
37421SOL     OW14269   3.808   7.206   4.298 -0.5440 -0.4306  0.3762
37421SOL    HW114270   3.903   7.195   4.302 -0.1848  2.3227  2.6110
37421SOL    HW214271   3.774   7.150   4.367 -0.7696 -2.3756 -1.2154
37422SOL     OW14272   6.567   9.025  10.061  0.2178  0.4702  0.1215
37422SOL    HW114273   6.588   9.071  10.142 -0.5297  0.4255  0.3462
37422SOL    HW214274   6.647   9.030  10.009  0.4836  1.0953  0.5847
37423SOL     OW14275   9.015   0.674   4.923  0.7827  0.8768 -0.1604
37423SOL    HW114276   9.108   0.655   4.920  0.8941  0.5393  2.5769
37423SOL    HW214277   8.972   0.588   4.926  0.5271  1.0234  0.5892
37424SOL     OW14278   2.219   3.169   0.495 -0.5607 -0.3759  0.4768
37424SOL    HW114279   2.298   3.129   0.458  0.3147  1.5523  0.1253
37424SOL    HW214280   2.253   3.241   0.550 -2.0507  0.2607  0.6029
37425SOL     OW14281   3.934   3.188   5.417  0.6437  0.1707  0.7262
37425SOL    HW114282   3.948   3.207   5.324 -0.2860  1.1352  0.7673
37425SOL    HW214283   3.851   3.141   5.420  1.2789 -0.9774  0.9679
37426SOL     OW14284  10.902   0.105   6.870  0.1659  0.1939  0.3052
37426SOL    HW114285  10.812   0.082   6.847 -0.0534 -0.7501  1.9107
37426SOL    HW214286  10.911   0.075   6.961  2.7291 -1.6655 -0.4574
37427SOL     OW14287   4.186   0.133   9.056  0.3979 -0.6541  0.3627
37427SOL    HW114288   4.148   0.221   9.054 -1.2389 -1.2769  1.5938
37427SOL    HW214289   4.111   0.076   9.070  1.7247 -2.0322  2.2439
37428SOL     OW14290   4.440   6.663   7.060 -0.3014  0.0308  0.3523
37428SOL    HW114291   4.522   6.675   7.013 -1.0994  0.6033 -0.9723
37428SOL    HW214292   4.463   6.610   7.136  1.1446 -0.4948 -0.4115
37429SOL     OW14293   2.714  10.299   0.346 -0.1680  0.1714  0.0216
37429SOL    HW114294   2.774  10.235   0.383 -0.8632 -0.8874 -0.6344
37429SOL    HW214295   2.761  10.336   0.271  2.5172  4.4955  3.3028
37430SOL     OW14296   1.573  10.338   9.797 -0.9245 -0.6384 -0.5124
37430SOL    HW114297   1.568  10.295   9.882 -0.4420  1.5805  0.6944
37430SOL    HW214298   1.482  10.359   9.775 -0.8877  0.9421  0.6680
37431SOL     OW14299   3.398   9.451  10.675  0.0226  0.6291 -0.3065
37431SOL    HW114300   3.460   9.436  10.746  2.3912  1.8519 -2.0075
37431SOL    HW214301   3.342   9.522  10.707  0.5234  0.6108  0.6378
37432SOL     OW14302   9.020   0.552   6.382 -0.1278  0.1087  0.3193
37432SOL    HW114303   9.097   0.497   6.396 -1.1191 -1.8099 -1.2326
37432SOL    HW214304   9.055   0.634   6.347  1.3024  0.0459  1.4930
37433SOL     OW14305   9.525   0.346   2.747 -0.1715  0.1643 -0.3993
37433SOL    HW114306   9.567   0.310   2.825  2.3600  0.3121 -1.6047
37433SOL    HW214307   9.528   0.441   2.759 -1.3993  0.1659  0.0715
37434SOL     OW14308   4.812   2.670   8.606  0.3263 -0.4685  0.1537
37434SOL    HW114309   4.889   2.667   8.664  0.4339  0.6262  0.0866
37434SOL    HW214310   4.748   2.722   8.655 -0.2509 -1.0654  0.0487
37435SOL     OW14311   8.686   6.771  10.362 -0.3520  0.2569 -0.1707
37435SOL    HW114312   8.709   6.678  10.357  1.5431  0.7159 -0.9868
37435SOL    HW214313   8.645   6.790  10.278 -0.1184  0.3053 -0.2745
37436SOL     OW14314   0.186   1.181   5.881 -0.0465 -0.1029  0.1288
37436SOL    HW114315   0.219   1.271   5.871 -0.4936  0.0019 -0.4104
37436SOL    HW214316   0.261   1.126   5.856  0.3112  0.1099  0.7041
37437SOL     OW14317   8.378   7.725   1.182 -0.6209  0.3463  0.7413
37437SOL    HW114318   8.462   7.704   1.142 -1.6969 -0.7712 -1.0928
37437SOL    HW214319   8.392   7.713   1.276  0.8504 -1.3604  0.3471
37438SOL     OW14320   2.607  10.085   7.198 -0.8354 -0.1551  0.1867
37438SOL    HW114321   2.615  10.135   7.116 -0.5905  0.9259  0.8588
37438SOL    HW214322   2.572  10.148   7.261 -1.1226 -1.0129  0.8987
37439SOL     OW14323   2.441   8.793   1.821  0.3484  0.1256  0.2551
37439SOL    HW114324   2.437   8.704   1.856 -2.1326 -0.2950 -0.8686
37439SOL    HW214325   2.367   8.838   1.862 -0.2315  0.7574 -1.4057
37440SOL     OW14326   1.846   4.792  10.432  0.2200 -1.0926  1.0806
37440SOL    HW114327   1.899   4.753  10.501 -0.0274 -0.3799  1.6839
37440SOL    HW214328   1.767   4.738  10.429  1.0513 -2.3119  0.0093
37441SOL     OW14329   5.893   9.057   4.762  0.6660 -0.1471  0.0713
37441SOL    HW114330   5.981   9.068   4.797  0.3632 -0.0126  0.8076
37441SOL    HW214331   5.840   9.120   4.810  0.0881 -0.5130 -0.0756
37442SOL     OW14332   0.803   4.671   2.425  0.3120 -0.0229  0.1563
37442SOL    HW114333   0.788   4.577   2.415 -0.6209  0.0311  0.9955
37442SOL    HW214334   0.809   4.685   2.520  2.0322  0.5337  0.0087
37443SOL     OW14335   1.267   9.017  10.021 -0.3641  0.2552 -0.0533
37443SOL    HW114336   1.211   8.963   9.966 -0.5837 -1.3931  1.6673
37443SOL    HW214337   1.333   8.956  10.055 -0.7202  0.9714  2.1134
37444SOL     OW14338   4.596   4.565   1.160  0.3023 -0.6447  0.6779
37444SOL    HW114339   4.554   4.535   1.079  3.0778 -5.0606  0.5297
37444SOL    HW214340   4.605   4.659   1.150 -0.9139 -0.8051 -3.4272
37445SOL     OW14341   5.767  10.895   5.275 -0.2737  0.1205 -1.1069
37445SOL    HW114342   5.793  10.962   5.339 -1.3415 -1.2476  0.8765
37445SOL    HW214343   5.684  10.926   5.240 -0.3031  0.2757 -0.9053
37446SOL     OW14344   6.977  11.015   6.221 -0.2307  0.1683  0.1991
37446SOL    HW114345   6.941  11.036   6.134  0.0840  1.5715  0.3977
37446SOL    HW214346   7.000  11.099   6.259 -0.9191 -0.3819  1.9157
37447SOL     OW14347  10.199   7.844   7.672 -0.2968  0.1750  0.0556
37447SOL    HW114348  10.191   7.934   7.705  1.7484  1.0563 -1.6055
37447SOL    HW214349  10.259   7.851   7.598  2.4007 -2.9591  1.6691
37448SOL     OW14350   1.059   1.998   7.921 -0.0149 -0.6545 -0.3923
37448SOL    HW114351   0.985   2.058   7.910 -1.1806 -2.2420 -1.7137
37448SOL    HW214352   1.129   2.037   7.868 -0.6519 -0.2722 -0.9742
37449SOL     OW14353   9.428   9.794  10.812  0.4133  0.0599  0.1688
37449SOL    HW114354   9.431   9.802  10.908  0.5445  0.5735  0.1258
37449SOL    HW214355   9.515   9.820  10.783  0.1218  0.7149 -0.1412
37450SOL     OW14356  10.668   2.456  10.176  0.0157  0.9079 -0.1897
37450SOL    HW114357  10.711   2.542  10.177  2.5078 -0.2282 -0.6310
37450SOL    HW214358  10.709   2.408  10.249 -1.3031  0.0844  0.0366
37451SOL     OW14359   7.531  10.110   4.171 -0.2293 -0.0279  0.1731
37451SOL    HW114360   7.622  10.120   4.199 -0.1282  0.4161 -0.2988
37451SOL    HW214361   7.488  10.191   4.198 -0.5153 -0.2795  0.4914
37452SOL     OW14362  10.389   8.882   9.830  0.6428 -0.2080  0.3224
37452SOL    HW114363  10.425   8.794   9.818  1.4261 -0.2462  2.5132
37452SOL    HW214364  10.435   8.936   9.766  1.6889 -1.0103  0.3783
37453SOL     OW14365   5.831  11.083   1.831 -0.3705 -0.3399 -0.6511
37453SOL    HW114366   5.897  11.131   1.883  0.0805 -0.9558 -0.6418
37453SOL    HW214367   5.761  11.064   1.894 -0.1442 -0.4724 -0.4351
37454SOL     OW14368   3.266   0.044   1.040 -0.1064  0.9260  0.0284
37454SOL    HW114369   3.225  -0.034   1.078  2.0848 -0.9720 -1.1928
37454SOL    HW214370   3.225   0.053   0.954 -0.1456  0.9267  0.0472
37455SOL     OW14371  10.882   9.023   3.767 -0.7220  0.6100  0.1227
37455SOL    HW114372  10.925   9.091   3.715 -1.1288 -0.1249 -1.2261
37455SOL    HW214373  10.843   8.964   3.702 -0.5079 -0.8323  1.2578
37456SOL     OW14374   5.537   4.136   1.667  0.0838  0.2881 -0.1773
37456SOL    HW114375   5.525   4.081   1.745 -0.4551  1.3655  0.5197
37456SOL    HW214376   5.540   4.226   1.701  0.2994  0.7450 -1.3591
37457SOL     OW14377   1.742   7.820   0.341  0.2803  0.5554  0.3473
37457SOL    HW114378   1.757   7.869   0.260  1.1211 -0.4066 -0.1056
37457SOL    HW214379   1.779   7.876   0.410 -0.3377  1.3284  0.0677
37458SOL     OW14380   6.390   8.748   3.565 -0.3494 -0.3910 -0.5192
37458SOL    HW114381   6.445   8.701   3.628 -0.5016 -1.4778 -1.1642
37458SOL    HW214382   6.317   8.781   3.616  1.7683  2.8188  0.7825
37459SOL     OW14383   6.946   3.543   0.420  0.1728 -0.3489 -0.5558
37459SOL    HW114384   6.917   3.456   0.449  0.7113  0.1157  1.5506
37459SOL    HW214385   7.029   3.527   0.375  0.5417 -0.8948  0.2911
37460SOL     OW14386   1.428   7.861   0.835 -0.0777  0.7661  0.5473
37460SOL    HW114387   1.522   7.876   0.842 -0.0178 -0.2523  2.6454
37460SOL    HW214388   1.419   7.774   0.798 -0.2326  1.1304 -0.3011
37461SOL     OW14389   8.945   4.450   3.061  0.3371 -0.1339 -0.3682
37461SOL    HW114390   8.892   4.370   3.054 -0.8034  0.4674  0.8756
37461SOL    HW214391   8.923   4.499   2.982 -0.9532  0.0674  0.0848
37462SOL     OW14392  10.978   7.630   5.383  0.1878  0.3750  0.2257
37462SOL    HW114393  10.991   7.690   5.456 -0.4658  1.0133 -0.1738
37462SOL    HW214394  10.922   7.561   5.419 -1.9655  1.8066 -0.2160
37463SOL     OW14395   7.293   5.377   7.180  0.0990 -0.0936 -1.2743
37463SOL    HW114396   7.332   5.365   7.094  1.2318 -0.1079 -0.7748
37463SOL    HW214397   7.337   5.313   7.236  0.7105  1.1611 -0.2829
37464SOL     OW14398   8.094   4.660   6.434  0.5400  0.3198  0.0761
37464SOL    HW114399   8.086   4.724   6.505  0.0904 -0.6413  0.9239
37464SOL    HW214400   8.073   4.576   6.476 -2.0488 -0.0279 -1.6773
37465SOL     OW14401  10.370   1.253  10.124  0.1425 -0.1009 -0.0610
37465SOL    HW114402  10.326   1.335  10.147  0.5095 -0.1249  0.7901
37465SOL    HW214403  10.452   1.281  10.084  0.0073 -0.0567 -0.3110
37466SOL     OW14404   8.444   7.558   6.360  1.1242 -0.4113  0.5086
37466SOL    HW114405   8.517   7.597   6.312  0.6741  1.6641  1.4183
37466SOL    HW214406   8.474   7.552   6.450  0.3270  0.1251  0.8257
37467SOL     OW14407   1.403   4.454   7.124 -0.3888 -0.9088 -0.3163
37467SOL    HW114408   1.443   4.451   7.211 -0.3831 -0.3839 -0.2986
37467SOL    HW214409   1.327   4.512   7.134 -1.3918 -2.1840 -0.2612
37468SOL     OW14410   5.448  10.457   4.610 -0.5057  0.0219 -0.0324
37468SOL    HW114411   5.409  10.449   4.698 -1.1293 -0.1436 -0.3153
37468SOL    HW214412   5.436  10.549   4.587 -0.4430  0.0421  0.0178
37469SOL     OW14413  10.450   2.825   7.612  0.1846  0.5097 -0.0463
37469SOL    HW114414  10.372   2.808   7.559  0.0565  1.6984 -0.2769
37469SOL    HW214415  10.512   2.757   7.586 -1.3543 -1.5855  1.4420
37470SOL     OW14416   7.332   3.205   1.647  0.2911  0.5279 -0.3551
37470SOL    HW114417   7.415   3.230   1.606  0.3086  0.1364 -0.5623
37470SOL    HW214418   7.270   3.200   1.574  0.2834 -0.0158 -0.3096
37471SOL     OW14419   5.068   0.194   9.641  1.2109 -0.3951 -0.2462
37471SOL    HW114420   5.151   0.217   9.599  2.7065  1.8253  3.4644
37471SOL    HW214421   5.092   0.147   9.720 -1.0425  0.3718  0.9965
37472SOL     OW14422   4.925   7.621   0.508 -0.0685 -0.4331 -0.1307
37472SOL    HW114423   4.938   7.537   0.464 -0.6042 -1.0548  0.8616
37472SOL    HW214424   5.013   7.655   0.520  0.5066 -2.4463  2.4234
37473SOL     OW14425   7.046   3.355   8.335  0.2821 -0.3565  0.3235
37473SOL    HW114426   6.981   3.362   8.265 -1.3473  0.4372  1.8421
37473SOL    HW214427   7.052   3.443   8.372  0.3780 -0.9631  1.8071
37474SOL     OW14428   4.925  10.514   9.047  0.3943  0.2482  0.5682
37474SOL    HW114429   4.921  10.609   9.034  1.7948  0.1525 -0.9090
37474SOL    HW214430   4.962  10.480   8.965  2.3121 -1.3183  1.9765
37475SOL     OW14431   0.669   3.213   9.194 -0.3752  0.3649  0.1572
37475SOL    HW114432   0.627   3.127   9.197 -1.3075  0.8177  0.7170
37475SOL    HW214433   0.681   3.231   9.101  0.6418 -0.7363  0.0528
37476SOL     OW14434   6.993   7.076   9.401  0.0112 -0.2471 -0.6640
37476SOL    HW114435   6.984   7.110   9.312 -1.1740  1.7751  0.1439
37476SOL    HW214436   6.961   7.147   9.457  1.1510 -1.2685  1.4170
37477SOL     OW14437   9.443   0.500   7.905 -0.5942 -0.7395 -0.0548
37477SOL    HW114438   9.374   0.566   7.901 -2.4398 -2.5066  0.7314
37477SOL    HW214439   9.465   0.484   7.813  0.2235  1.2195 -0.2529
37478SOL     OW14440   4.500   5.490   7.782 -0.4103 -0.5734 -0.0247
37478SOL    HW114441   4.504   5.457   7.692 -2.6149  1.4175 -0.9409
37478SOL    HW214442   4.407   5.485   7.806 -0.1557  0.7105  1.4221
37479SOL     OW14443  11.018   5.784   2.634 -0.2324  1.2221 -0.1351
37479SOL    HW114444  10.955   5.719   2.604  1.1697  0.1341 -0.8879
37479SOL    HW214445  11.001   5.861   2.580  0.6211  0.1231 -2.0774
37480SOL     OW14446   7.300   3.884   7.813 -0.1387 -0.5067 -0.4887
37480SOL    HW114447   7.317   3.942   7.739  1.1994  0.5069  0.5614
37480SOL    HW214448   7.303   3.796   7.776  0.5649 -0.0199 -1.6372
37481SOL     OW14449   9.866   0.836  10.857  0.8474 -0.2885  0.3375
37481SOL    HW114450   9.877   0.818  10.950  0.5545  0.6158  0.5646
37481SOL    HW214451   9.884   0.930  10.849 -0.7717  0.0065 -0.2173
37482SOL     OW14452   9.667  10.252  10.419  0.1299  0.0669  0.3511
37482SOL    HW114453   9.623  10.167  10.417  1.3281 -0.5690 -0.0933
37482SOL    HW214454   9.614  10.305  10.478 -1.8856 -0.2601 -1.0582
37483SOL     OW14455   3.532   3.744   7.202 -0.4493 -0.0740  0.1118
37483SOL    HW114456   3.512   3.814   7.265  0.8588  0.3501  0.0710
37483SOL    HW214457   3.468   3.676   7.223 -0.4122  0.2857  1.5440
37484SOL     OW14458   1.596   8.622   1.797 -0.3947 -0.6483  0.4979
37484SOL    HW114459   1.500   8.626   1.791 -0.5445  0.3672  2.5265
37484SOL    HW214460   1.617   8.679   1.871  1.6690 -1.9952  1.0324
37485SOL     OW14461   1.507   1.808   5.749  0.5222 -0.4102  0.3689
37485SOL    HW114462   1.432   1.756   5.719 -0.7337  0.2640  2.1631
37485SOL    HW214463   1.565   1.745   5.791 -0.3992 -0.5643  1.4369
37486SOL     OW14464   8.191  10.916  10.902 -0.5965 -0.4749  0.6468
37486SOL    HW114465   8.214  10.824  10.889  1.2308 -0.1941  1.6641
37486SOL    HW214466   8.166  10.921  10.994 -2.8409 -0.3231  0.1020
37487SOL     OW14467   0.877   7.909   5.536 -0.1624  0.2844 -0.3591
37487SOL    HW114468   0.885   7.858   5.617 -0.8948 -0.5562 -0.8047
37487SOL    HW214469   0.784   7.932   5.531 -0.0572  0.6278 -0.7818
37488SOL     OW14470   2.516   2.608   3.862 -1.0027 -0.0997  0.0408
37488SOL    HW114471   2.493   2.640   3.775  1.0928 -0.3405 -0.6535
37488SOL    HW214472   2.432   2.585   3.902 -2.1735  1.6950 -1.2134
37489SOL     OW14473  10.578   4.419   0.450  0.0655  0.7749  0.0694
37489SOL    HW114474  10.556   4.328   0.428 -0.4776  0.9152  0.0211
37489SOL    HW214475  10.500   4.452   0.495  0.7586  0.8028  1.3016
37490SOL     OW14476   3.856   4.224   5.309  0.3340  0.3731 -0.0306
37490SOL    HW114477   3.926   4.264   5.258 -0.8693  0.3300 -1.7829
37490SOL    HW214478   3.867   4.130   5.297 -0.3291  0.3823 -0.7513
37491SOL     OW14479   7.641   1.234   0.662 -0.0558  0.6972  0.5021
37491SOL    HW114480   7.564   1.284   0.689 -0.1125 -0.3317  2.3672
37491SOL    HW214481   7.606   1.156   0.618 -0.0111  1.1237 -0.3158
37492SOL     OW14482   1.877   0.845  10.733  0.6059  0.1465 -0.0595
37492SOL    HW114483   1.927   0.778  10.685  0.1124 -0.8036  0.7062
37492SOL    HW214484   1.890   0.823  10.825  2.7994  2.8557  0.4022
37493SOL     OW14485   9.331   4.378  10.718 -0.6109 -0.1033 -0.6723
37493SOL    HW114486   9.422   4.351  10.731  0.0426  1.1401 -2.3471
37493SOL    HW214487   9.301   4.401  10.806  0.2707 -1.6688  0.0965
37494SOL     OW14488   3.358   2.916   4.853  0.7053  0.0598 -0.0878
37494SOL    HW114489   3.270   2.948   4.874  0.6492 -1.6463  2.9210
37494SOL    HW214490   3.412   2.995   4.850 -0.8115  1.1129 -1.6942
37495SOL     OW14491   7.350   2.611   3.730  0.0174  0.0719  0.1204
37495SOL    HW114492   7.351   2.517   3.712  2.9061  0.0302 -0.0017
37495SOL    HW214493   7.325   2.617   3.823 -0.8920 -0.7356 -0.0573
37496SOL     OW14494   4.155   9.361   0.435 -0.2529  0.6890 -0.5197
37496SOL    HW114495   4.247   9.350   0.412 -1.0484 -1.3865 -3.1908
37496SOL    HW214496   4.155   9.434   0.498  3.2145  0.4054  0.0148
37497SOL     OW14497   4.421   5.979   0.721  0.3869 -0.5156  0.4229
37497SOL    HW114498   4.388   6.004   0.807  1.1460 -0.2042  0.6290
37497SOL    HW214499   4.422   5.884   0.723  0.5363 -0.5065  0.8053
37498SOL     OW14500   2.081   8.330   4.030  0.2790  0.6227 -0.4388
37498SOL    HW114501   2.175   8.314   4.034  0.3564  1.2008  0.8179
37498SOL    HW214502   2.062   8.342   3.937  0.8703 -2.5485 -1.0883
37499SOL     OW14503   0.779   7.497   2.527 -0.0951 -0.2778  0.3219
37499SOL    HW114504   0.798   7.421   2.583  2.8650 -0.1366 -0.3062
37499SOL    HW214505   0.769   7.459   2.440 -0.4494 -0.1167  0.2935
37500SOL     OW14506   8.097   2.652   3.934 -1.1901  0.0196 -0.0601
37500SOL    HW114507   8.158   2.645   3.861 -1.0873  1.8165 -0.1975
37500SOL    HW214508   8.038   2.577   3.924 -1.1624  0.2116 -1.9690
37501SOL     OW14509   2.862   9.597   1.055 -0.1331  0.0019 -0.2786
37501SOL    HW114510   2.782   9.636   1.021 -1.0950  0.2098  2.0794
37501SOL    HW214511   2.839   9.506   1.074  0.1165  0.1161  0.6101
37502SOL     OW14512   8.140   0.760   1.975 -0.0722  0.2294  0.2992
37502SOL    HW114513   8.135   0.672   1.939 -0.7971  0.5672 -0.4792
37502SOL    HW214514   8.220   0.760   2.028 -1.1810 -1.5153  2.0912
37503SOL     OW14515  11.072   9.951  10.262 -0.1152 -0.4570  0.5085
37503SOL    HW114516  11.084   9.991  10.176 -2.3489  0.3375  0.5126
37503SOL    HW214517  11.007   9.882  10.249 -1.3888  0.4442  1.7189
37504SOL     OW14518   9.775  10.118   7.671 -0.3702 -0.6793 -0.2312
37504SOL    HW114519   9.844  10.076   7.619 -1.1903 -1.0099 -1.0893
37504SOL    HW214520   9.797  10.211   7.671 -0.6035 -0.5981 -1.6151
37505SOL     OW14521   6.878   7.986   5.425  0.0865  0.3359 -0.1223
37505SOL    HW114522   6.910   7.951   5.508 -1.6341  1.8884  1.2871
37505SOL    HW214523   6.902   8.079   5.427  0.4238  0.3080 -1.6028
37506SOL     OW14524   9.890   4.861   5.912  0.4981 -0.0037 -0.6509
37506SOL    HW114525   9.800   4.856   5.880 -1.1409 -0.1716  3.4513
37506SOL    HW214526   9.933   4.786   5.871 -1.3461 -0.2872 -2.2563
37507SOL     OW14527   3.966   3.288   9.235  0.3308  0.2356  0.2546
37507SOL    HW114528   3.960   3.199   9.272  1.4606  0.9214  2.2439
37507SOL    HW214529   4.010   3.339   9.303 -0.2135  2.3240 -0.8870
37508SOL     OW14530   3.715   0.283   8.189 -0.0767  0.8959 -0.2741
37508SOL    HW114531   3.756   0.273   8.275  0.9962  1.6569 -0.6707
37508SOL    HW214532   3.781   0.252   8.127 -1.2739 -0.7768 -0.7903
37509SOL     OW14533   7.174   4.316   6.724  0.1784 -0.2189  0.5040
37509SOL    HW114534   7.267   4.334   6.708  0.3390 -1.2920  0.1649
37509SOL    HW214535   7.146   4.387   6.781  1.6260 -0.7578  1.9686
37510SOL     OW14536   5.092   0.658   3.987  0.2927 -0.9136  0.1063
37510SOL    HW114537   5.100   0.658   4.082 -1.9735 -0.1094  0.3523
37510SOL    HW214538   5.021   0.597   3.968 -0.7077  0.4972 -0.8755
37511SOL     OW14539   9.325   0.406   0.349 -0.4012 -0.6118  1.0358
37511SOL    HW114540   9.325   0.408   0.445  0.0498 -0.3004  1.0333
37511SOL    HW214541   9.417   0.388   0.326  0.4512  3.4620  0.6069
37512SOL     OW14542   9.800   8.490   1.397  0.3213 -0.1862 -0.0134
37512SOL    HW114543   9.829   8.404   1.365  1.0251 -1.7630  4.2121
37512SOL    HW214544   9.874   8.522   1.448 -1.3348  1.0724  1.7091
37513SOL     OW14545   0.315   6.854   6.866 -0.2840 -0.8038  0.2788
37513SOL    HW114546   0.267   6.785   6.821 -1.3600  0.9453 -1.3537
37513SOL    HW214547   0.305   6.931   6.811  3.5159 -0.0215  0.3834
37514SOL     OW14548   1.003   1.489   5.150 -0.1142 -0.7488  0.2793
37514SOL    HW114549   1.001   1.455   5.240  0.6147 -0.2391  0.4944
37514SOL    HW214550   0.951   1.426   5.100  0.9361 -2.0295  0.7242
37515SOL     OW14551   5.946   2.396   0.621  0.0186  0.9862  0.6238
37515SOL    HW114552   5.873   2.439   0.666 -0.7706 -0.1363  0.4649
37515SOL    HW214553   5.924   2.302   0.625  1.9801  0.5134  1.5087
37516SOL     OW14554   5.055   5.583   8.417  0.3013 -0.3034  0.3088
37516SOL    HW114555   4.996   5.563   8.490 -0.0490 -0.7184 -0.0797
37516SOL    HW214556   4.997   5.594   8.342  0.5932  0.9890  0.2576
37517SOL     OW14557   2.781   8.632   9.507 -0.2894  0.6699  0.1478
37517SOL    HW114558   2.701   8.586   9.533  1.1187 -1.2561  1.3947
37517SOL    HW214559   2.808   8.679   9.585 -1.5378  3.5575 -1.0337
37518SOL     OW14560   7.835   9.996   3.113  0.0639  0.6170 -0.4944
37518SOL    HW114561   7.750  10.015   3.155  0.3623 -1.1201  0.9819
37518SOL    HW214562   7.812   9.975   3.023 -1.4410 -2.2443  0.4497
37519SOL     OW14563   3.616   3.316   7.056  0.1641 -0.4750 -0.2601
37519SOL    HW114564   3.709   3.312   7.081  0.8668  0.1287 -2.5203
37519SOL    HW214565   3.599   3.409   7.042 -0.6105 -0.6443 -0.4892
37520SOL     OW14566   8.693   4.810  10.211  0.6922  0.2026 -0.2377
37520SOL    HW114567   8.786   4.827  10.201  1.1766 -0.8774  1.7583
37520SOL    HW214568   8.651   4.895  10.196  1.9299  0.6006 -1.6286
37521SOL     OW14569   0.105   9.786   0.150  0.3177  0.4146  0.0579
37521SOL    HW114570   0.085   9.692   0.144 -1.2857  0.7398 -0.2930
37521SOL    HW214571   0.101   9.818   0.060  0.1665  0.9392  0.2436
37522SOL     OW14572   3.294   2.443   1.823  0.4417  0.5630 -0.0242
37522SOL    HW114573   3.349   2.435   1.745  2.1920  0.4512  1.1671
37522SOL    HW214574   3.356   2.446   1.896 -1.1670 -1.7115  1.5917
37523SOL     OW14575   9.111   4.331   6.677  0.3039 -0.5258  0.5630
37523SOL    HW114576   9.071   4.409   6.639  1.0504 -1.1021 -1.5344
37523SOL    HW214577   9.048   4.302   6.743 -1.4149  0.1747 -0.6845
37524SOL     OW14578   8.658  10.940   8.247  0.3177 -0.8456  0.2681
37524SOL    HW114579   8.690  10.922   8.158  0.6481  3.0134 -0.5730
37524SOL    HW214580   8.723  11.001   8.283  0.4258 -2.6330  3.4238
37525SOL     OW14581   0.971   6.290   4.804  0.2875  0.0351  0.0670
37525SOL    HW114582   0.971   6.238   4.884 -0.4454  0.2950  0.2407
37525SOL    HW214583   0.921   6.369   4.827  0.4851  0.3288 -0.5044
37526SOL     OW14584   7.446   1.809   6.321 -0.1160 -0.1725 -0.5336
37526SOL    HW114585   7.440   1.769   6.234 -1.4803  0.0293 -0.5496
37526SOL    HW214586   7.539   1.801   6.344  0.3247  0.0224 -2.1219
37527SOL     OW14587   1.096   0.589   4.340 -0.5291  0.2483  0.9838
37527SOL    HW114588   1.166   0.528   4.364  0.7617  1.7722  1.2522
37527SOL    HW214589   1.044   0.541   4.276  0.8162 -0.9256  0.7121
37528SOL     OW14590   0.668   1.353   3.972  0.3597 -0.0158 -0.0478
37528SOL    HW114591   0.606   1.392   4.034  2.4733  0.3523  1.9487
37528SOL    HW214592   0.754   1.385   4.000  1.4335  0.5021 -3.4479
37529SOL     OW14593   4.655  10.079   1.168  0.0008 -0.1605  0.6272
37529SOL    HW114594   4.615  10.018   1.231 -0.7168  0.1607  0.4965
37529SOL    HW214595   4.590  10.148   1.158 -0.5951 -0.9604 -1.6177
37530SOL     OW14596  10.482   2.341   7.044 -0.0439  0.3647 -0.4618
37530SOL    HW114597  10.478   2.338   7.139  1.6629 -1.3370 -0.3891
37530SOL    HW214598  10.398   2.306   7.015 -0.3343  0.3239  0.4005
37531SOL     OW14599   4.964   8.430   5.069  0.0819 -0.8803  0.5717
37531SOL    HW114600   4.998   8.417   4.981  0.5572 -1.2802  0.8111
37531SOL    HW214601   4.869   8.433   5.058 -0.1319 -4.2188  0.3949
37532SOL     OW14602   0.110   6.096  10.197 -0.1454  0.0580  0.3230
37532SOL    HW114603   0.205   6.084  10.187 -0.5148 -0.7407 -3.6201
37532SOL    HW214604   0.071   6.033  10.137 -3.2131  0.8530  1.2907
37533SOL     OW14605   5.232   3.690   8.797 -0.7166 -0.0372  0.3354
37533SOL    HW114606   5.282   3.614   8.770 -0.6001  0.3691 -0.6184
37533SOL    HW214607   5.255   3.758   8.734  0.6770  1.3971  2.2548
37534SOL     OW14608   5.896   1.327   3.651  0.0125 -0.1294 -0.7117
37534SOL    HW114609   5.838   1.316   3.726 -0.5697  0.3245 -1.0821
37534SOL    HW214610   5.901   1.422   3.638 -0.6122 -0.2138 -1.7693
37535SOL     OW14611   7.119   0.776   3.126 -0.3359 -0.0187 -0.0091
37535SOL    HW114612   7.135   0.790   3.220  0.1956  0.3610 -0.1536
37535SOL    HW214613   7.199   0.807   3.083  0.4726 -2.4242 -0.4255
37536SOL     OW14614   7.919   9.642   8.602  0.3431 -0.7631 -0.6549
37536SOL    HW114615   7.952   9.553   8.616 -0.1353 -0.8452  0.0253
37536SOL    HW214616   7.909   9.649   8.507 -0.7006 -1.8493 -0.6587
37537SOL     OW14617   7.594   9.442   4.411 -0.0524  0.0878  0.4775
37537SOL    HW114618   7.610   9.502   4.483  0.5652  1.0717 -0.4533
37537SOL    HW214619   7.536   9.490   4.352  0.6367 -0.1184 -0.3920
37538SOL     OW14620   5.009   8.217   1.952  0.6420 -0.2803 -0.2715
37538SOL    HW114621   5.053   8.175   2.025  1.0320  1.5364  0.6002
37538SOL    HW214622   5.078   8.231   1.887  0.6616 -0.3394 -0.2632
37539SOL     OW14623   0.597  10.095  10.510 -0.5558  0.2641 -0.2575
37539SOL    HW114624   0.554  10.079  10.595  1.9570 -1.5315  0.7676
37539SOL    HW214625   0.547  10.042  10.448 -0.2316 -1.3172  0.7855
37540SOL     OW14626   8.776   6.390   2.851  0.2300  0.6066 -0.7524
37540SOL    HW114627   8.700   6.446   2.835 -0.6053 -0.6520 -1.4215
37540SOL    HW214628   8.844   6.422   2.792 -0.3294  0.7444 -1.3292
37541SOL     OW14629   5.573   2.398   3.340  0.4637 -0.0279  0.9702
37541SOL    HW114630   5.571   2.478   3.393  0.2887  1.2237 -0.8159
37541SOL    HW214631   5.553   2.428   3.252 -3.2973 -2.5376  0.7674
37542SOL     OW14632   8.529   7.068   9.110 -0.2791  0.1009 -0.1446
37542SOL    HW114633   8.486   7.093   9.192 -0.4605  0.8145 -0.4527
37542SOL    HW214634   8.572   7.147   9.080  0.2284 -0.2968 -0.4766
37543SOL     OW14635   9.270  11.084   2.622 -0.0699 -0.6428  0.2023
37543SOL    HW114636   9.183  11.060   2.588 -0.6557  1.6673 -0.1369
37543SOL    HW214637   9.315  11.122   2.546  0.4895 -0.0298  0.8277
37544SOL     OW14638   4.254   3.800   8.222 -0.5224 -0.3321  0.1867
37544SOL    HW114639   4.314   3.770   8.291 -1.1259  0.5635  1.1255
37544SOL    HW214640   4.234   3.720   8.172  0.4415 -0.8762  0.6351
37545SOL     OW14641  10.987   1.015   7.928  0.9967  0.2372 -0.4598
37545SOL    HW114642  10.964   1.101   7.891 -1.5621  0.2608  1.0004
37545SOL    HW214643  10.983   1.027   8.022  0.2181 -1.5881 -0.2236
37546SOL     OW14644  10.429  10.643  10.147 -0.1060 -0.1623  0.4055
37546SOL    HW114645  10.404  10.700  10.075 -0.2180  0.5786  1.0143
37546SOL    HW214646  10.524  10.632  10.138  0.0269  0.6796  0.6640
37547SOL     OW14647   1.916   6.654   3.657 -0.3308 -0.2233  0.4905
37547SOL    HW114648   1.934   6.602   3.578 -0.8775 -0.6136  0.6156
37547SOL    HW214649   1.983   6.626   3.719  0.9575  1.0588 -0.2497
37548SOL     OW14650  10.340   5.054   3.846 -0.2656  1.2880  0.4410
37548SOL    HW114651  10.275   5.063   3.916  0.7651  0.9579  1.4620
37548SOL    HW214652  10.424   5.056   3.890  0.3846 -1.0731 -0.5451
37549SOL     OW14653   3.236   9.108   7.501 -0.5699 -0.1971  0.0104
37549SOL    HW114654   3.320   9.121   7.546 -0.8836  0.6184  0.3807
37549SOL    HW214655   3.230   9.013   7.489  0.1789 -0.3054  0.4226
37550SOL     OW14656   1.899   0.865   0.530 -0.5075  0.2521  0.2814
37550SOL    HW114657   1.865   0.828   0.449 -0.1469  1.4862 -0.4575
37550SOL    HW214658   1.958   0.798   0.565  0.4716  0.2822 -1.2381
37551SOL     OW14659   3.539   1.639   1.959 -0.6320 -0.2645  0.2875
37551SOL    HW114660   3.479   1.698   1.913  1.3467 -0.3690 -2.6210
37551SOL    HW214661   3.540   1.560   1.907 -0.2154 -1.4392  1.9883
37552SOL     OW14662   8.073   0.158   5.627  0.4727  0.0911  0.5040
37552SOL    HW114663   8.034   0.120   5.548  1.6674 -1.2163  0.5140
37552SOL    HW214664   8.102   0.245   5.600  0.1741 -0.0498 -0.2875
37553SOL     OW14665   7.789   1.396   5.301  0.2467  0.4729 -0.2285
37553SOL    HW114666   7.729   1.340   5.350 -1.8505  1.0215 -2.0160
37553SOL    HW214667   7.844   1.334   5.252 -0.3780 -0.0468 -0.2921
37554SOL     OW14668   9.631   2.786   6.751  0.4596  0.1538 -0.1064
37554SOL    HW114669   9.640   2.871   6.709 -1.3178  0.4014 -0.0718
37554SOL    HW214670   9.673   2.797   6.836 -0.0853  1.1195  0.0481
37555SOL     OW14671   2.521   4.121   1.380 -0.0412 -0.1961  0.3767
37555SOL    HW114672   2.500   4.043   1.329  2.0443  0.2393 -1.2836
37555SOL    HW214673   2.482   4.105   1.466 -2.4741 -1.5842 -0.8972
37556SOL     OW14674   0.360   8.234   2.711 -0.0603  0.5557 -0.8603
37556SOL    HW114675   0.354   8.272   2.799 -2.3784  1.6157 -1.4144
37556SOL    HW214676   0.338   8.141   2.724  0.8275  0.4224 -0.1821
37557SOL     OW14677   5.312   7.661   4.570 -0.2816  0.4986 -0.3484
37557SOL    HW114678   5.369   7.592   4.604 -0.4897 -0.6161 -2.1569
37557SOL    HW214679   5.336   7.739   4.621 -0.4154 -0.9799  2.1248
37558SOL     OW14680   9.177   1.584   5.489 -0.2894  0.4112 -0.3522
37558SOL    HW114681   9.182   1.665   5.437  1.0510 -0.8501 -2.2988
37558SOL    HW214682   9.117   1.528   5.441  1.4232 -1.0026 -0.9518
37559SOL     OW14683  10.126  10.731   6.678  0.3649 -0.5388  0.3059
37559SOL    HW114684  10.205  10.727   6.731 -1.0649 -0.7276  2.5350
37559SOL    HW214685  10.085  10.645   6.689 -0.6610 -0.1008  0.0349
37560SOL     OW14686   0.059   5.096   2.819  0.5592  0.5352 -0.2232
37560SOL    HW114687   0.061   5.003   2.797 -0.1302  0.6560 -0.8623
37560SOL    HW214688   0.108   5.103   2.900 -1.5455 -0.8047  1.2682
37561SOL     OW14689  10.016   3.270   2.341 -0.0097  0.1588  0.0725
37561SOL    HW114690  10.041   3.284   2.432 -0.2954  0.3024  0.1266
37561SOL    HW214691  10.069   3.332   2.292 -0.5184  0.7109  0.2202
37562SOL     OW14692   8.752   3.436   3.748 -0.4615  0.2613  0.3214
37562SOL    HW114693   8.746   3.519   3.701  0.2906 -0.4067 -1.0221
37562SOL    HW214694   8.680   3.384   3.713  0.9057 -0.7199 -1.1550
37563SOL     OW14695   5.103   1.911  10.554 -0.1871  0.0137 -0.5140
37563SOL    HW114696   5.181   1.900  10.501  0.3694 -1.6200  0.5785
37563SOL    HW214697   5.057   1.827  10.547 -0.5445  0.0679  0.8388
37564SOL     OW14698   6.342   5.400   6.183 -0.1976 -0.1625  0.3232
37564SOL    HW114699   6.273   5.452   6.226 -0.4291  0.2852 -0.5637
37564SOL    HW214700   6.368   5.336   6.249 -0.3593  0.6718  1.2202
37565SOL     OW14701   7.139  10.095   5.415  0.2908 -0.5110 -0.7071
37565SOL    HW114702   7.222  10.095   5.463 -0.8357  1.1621  1.4783
37565SOL    HW214703   7.103  10.007   5.429  0.1474 -0.1711  1.4062
37566SOL     OW14704   6.126   2.758   3.545 -0.4202  0.2142  0.0643
37566SOL    HW114705   6.174   2.678   3.526  3.0965  2.3085 -0.6748
37566SOL    HW214706   6.077   2.776   3.465  0.5720 -0.0589 -0.6251
37567SOL     OW14707   4.793   2.224   4.803 -0.1313  0.4776  0.1846
37567SOL    HW114708   4.709   2.189   4.832 -0.8496  2.1424  0.1881
37567SOL    HW214709   4.858   2.172   4.851 -1.1863  0.1437  1.2983
37568SOL     OW14710   5.349   6.767   0.429  0.6841  0.3373  0.5337
37568SOL    HW114711   5.319   6.735   0.514  1.7704  0.1643  0.8671
37568SOL    HW214712   5.425   6.712   0.408  0.6807  0.6533 -0.3498
37569SOL     OW14713   1.760   4.713   2.647 -0.3649  0.2419  0.6363
37569SOL    HW114714   1.793   4.627   2.672 -1.8332 -0.6847 -0.4443
37569SOL    HW214715   1.821   4.775   2.687  1.2246 -1.3107  0.7384
37570SOL     OW14716  10.801   3.168   9.697  0.1069  0.2020  1.0030
37570SOL    HW114717  10.863   3.190   9.628  1.5366 -1.2837  1.7501
37570SOL    HW214718  10.810   3.238   9.761  1.9743 -0.5907  1.6783
37571SOL     OW14719   6.389   0.982   8.239 -0.2517  0.5356 -0.6940
37571SOL    HW114720   6.296   0.970   8.260  0.1312  0.9134  1.4939
37571SOL    HW214721   6.396   1.074   8.213 -0.5121  0.4484 -1.0841
37572SOL     OW14722   7.698   3.697   0.514  0.0513 -0.1144  0.1663
37572SOL    HW114723   7.761   3.625   0.514 -0.3979 -0.5209  1.0727
37572SOL    HW214724   7.681   3.714   0.607  1.5149  2.3819  0.0690
37573SOL     OW14725   1.438   0.979   4.515  0.1828  0.3012  0.1674
37573SOL    HW114726   1.461   0.948   4.427 -0.0945  0.1976  0.1307
37573SOL    HW214727   1.348   0.948   4.529  0.1525  0.4920  0.4057
37574SOL     OW14728   5.472   3.512   1.562 -0.7857  0.1164  0.1335
37574SOL    HW114729   5.437   3.437   1.513  0.0756 -0.4291  0.3501
37574SOL    HW214730   5.486   3.579   1.495  0.6211 -0.7126 -0.4331
37575SOL     OW14731   8.651   9.362   8.637 -0.0061  0.5816 -0.2618
37575SOL    HW114732   8.576   9.323   8.681 -0.3021 -1.4994 -2.3931
37575SOL    HW214733   8.727   9.317   8.675 -0.1742 -0.3400 -0.9778
37576SOL     OW14734  10.243  10.148   9.718  0.1789 -0.5752 -0.2526
37576SOL    HW114735  10.302  10.131   9.791  0.1988 -0.8518 -0.3325
37576SOL    HW214736  10.281  10.099   9.645 -0.2769 -0.9505 -0.2441
37577SOL     OW14737   7.504   8.269  10.021 -0.1230 -0.1117  0.2992
37577SOL    HW114738   7.586   8.221  10.035 -0.0558 -0.4592 -1.1298
37577SOL    HW214739   7.447   8.206   9.977 -0.5581  0.6431 -0.2348
37578SOL     OW14740   6.795   0.926   6.082 -1.4537 -0.2251 -0.2380
37578SOL    HW114741   6.866   0.864   6.096 -1.7865 -0.5857 -0.1018
37578SOL    HW214742   6.832   1.012   6.102 -0.5812 -0.2043 -1.8064
37579SOL     OW14743   1.958   3.392  10.881 -0.6157  0.1947 -0.0497
37579SOL    HW114744   1.966   3.297  10.890 -0.3931  0.2642  0.5021
37579SOL    HW214745   2.003   3.411  10.798 -0.4880 -0.1555 -0.0656
37580SOL     OW14746   8.471   2.116   1.447 -0.2092 -0.1701 -1.0768
37580SOL    HW114747   8.515   2.192   1.410  0.2155 -0.4150 -1.0774
37580SOL    HW214748   8.392   2.152   1.487 -0.0689  0.2564 -1.1765
37581SOL     OW14749   2.094   1.327   0.066 -0.1717 -0.4602  0.1529
37581SOL    HW114750   2.179   1.353   0.100  0.2250 -0.6249 -0.6810
37581SOL    HW214751   2.113   1.288  -0.020 -1.2217  0.9208 -0.7690
37582SOL     OW14752   5.201   8.393   9.940  0.5306 -0.4360 -0.5659
37582SOL    HW114753   5.222   8.401  10.033  0.5677  0.7879 -0.6570
37582SOL    HW214754   5.106   8.380   9.938  0.6612 -1.4947 -0.3293
37583SOL     OW14755   3.962  10.582   1.493 -0.4565 -0.2010  0.7224
37583SOL    HW114756   3.979  10.546   1.580 -0.8224 -0.0305  0.8656
37583SOL    HW214757   4.018  10.660   1.488 -0.4863 -0.1723  0.8299
37584SOL     OW14758   6.357   2.240   4.838  0.3226 -0.1818 -0.2781
37584SOL    HW114759   6.413   2.314   4.817 -0.9772  0.9167  0.0168
37584SOL    HW214760   6.345   2.195   4.755 -0.5853  1.1725 -0.9127
37585SOL     OW14761   5.244   3.325   0.172  0.3817  0.3884  0.2958
37585SOL    HW114762   5.232   3.231   0.159 -0.6501  0.3504  1.3299
37585SOL    HW214763   5.322   3.347   0.121  0.7975 -1.0748  0.2564
37586SOL     OW14764   8.018   3.575   0.297  0.4404 -0.4123 -0.2822
37586SOL    HW114765   8.010   3.652   0.242 -0.0404 -0.2719 -0.0221
37586SOL    HW214766   8.011   3.501   0.237 -2.4843 -0.3197 -0.1763
37587SOL     OW14767   2.481   7.201   4.614 -0.0267 -0.1017 -0.0335
37587SOL    HW114768   2.491   7.174   4.706 -0.5016  0.9183  0.3299
37587SOL    HW214769   2.419   7.138   4.577  1.2787 -1.4118 -0.0674
37588SOL     OW14770  10.548   8.436   0.577  0.2127  0.6676  0.1919
37588SOL    HW114771  10.576   8.374   0.644 -0.4070 -0.8708 -0.9177
37588SOL    HW214772  10.452   8.430   0.577  0.1549  1.4000 -0.1603
37589SOL     OW14773   5.400  10.535   2.222  0.3534  0.5311  0.1655
37589SOL    HW114774   5.350  10.503   2.297 -0.3410  0.2307 -0.4113
37589SOL    HW214775   5.334  10.558   2.156  0.9501 -1.8124 -1.4033
37590SOL     OW14776   3.264   2.135   1.736 -0.1738 -0.5613  0.5084
37590SOL    HW114777   3.204   2.124   1.809 -1.4571 -1.7655 -0.6465
37590SOL    HW214778   3.227   2.208   1.685 -0.3747 -0.9515  0.0828
37591SOL     OW14779   5.524   5.394   8.503  0.0278  0.1167 -0.3255
37591SOL    HW114780   5.606   5.427   8.466  0.2408  0.2426  0.2492
37591SOL    HW214781   5.456   5.428   8.444  0.3929 -0.0948 -0.8801
37592SOL     OW14782   4.325   9.023   7.087 -0.5256 -0.3599 -0.5636
37592SOL    HW114783   4.402   8.981   7.047  0.4326  0.2829  0.5353
37592SOL    HW214784   4.250   8.984   7.042  0.4883  0.5869 -3.2370
37593SOL     OW14785   5.977  10.749   5.160  0.6014  0.2906 -0.2895
37593SOL    HW114786   5.988  10.834   5.118  0.5522  0.9468  1.0069
37593SOL    HW214787   5.916  10.764   5.232  1.1083 -0.6909  0.3754
37594SOL     OW14788   8.072   9.310   2.598 -0.0811 -0.3974  0.1408
37594SOL    HW114789   8.045   9.387   2.548  0.3981 -0.8900 -0.9091
37594SOL    HW214790   8.165   9.299   2.578  0.0708 -0.7280  0.9933
37595SOL     OW14791   4.985   2.035   0.205  0.3618  0.0150  0.2179
37595SOL    HW114792   4.913   2.021   0.144  0.7892  0.8177 -0.4809
37595SOL    HW214793   5.013   1.946   0.230 -0.3931 -0.3044 -0.0472
37596SOL     OW14794   6.393   8.929   3.345  0.3933  0.3302 -0.1809
37596SOL    HW114795   6.393   8.839   3.378  0.1030  0.8060  1.1781
37596SOL    HW214796   6.317   8.932   3.286  2.9109 -1.5181 -3.8921
37597SOL     OW14797   1.626   0.116   1.397  0.0891  1.2207 -0.3415
37597SOL    HW114798   1.573   0.150   1.470  0.8399 -1.4652  1.6185
37597SOL    HW214799   1.706   0.084   1.439  1.2193  0.8917 -2.6021
37598SOL     OW14800   2.502   0.180   0.105 -0.2585  0.1341  0.6487
37598SOL    HW114801   2.458   0.246   0.052 -2.1420  0.1109  2.0964
37598SOL    HW214802   2.586   0.219   0.127 -0.5474  1.2337 -0.1055
37599SOL     OW14803  10.094   9.743   0.402  0.9261 -0.7531  0.8902
37599SOL    HW114804  10.089   9.689   0.323  0.8549  3.4397 -2.2822
37599SOL    HW214805  10.188   9.753   0.418  0.9402 -1.7081  1.5413
37600SOL     OW14806   3.584   8.162   0.527 -0.4553  0.0156 -0.4755
37600SOL    HW114807   3.633   8.096   0.478  0.0421 -0.0205  0.0491
37600SOL    HW214808   3.632   8.170   0.610  0.3164  2.0192 -1.0401
37601SOL     OW14809   5.852   6.703   2.594  0.2335 -0.6022 -0.2122
37601SOL    HW114810   5.786   6.742   2.651  1.5366 -1.1258  1.7377
37601SOL    HW214811   5.824   6.727   2.505 -2.4839 -0.7073  0.5349
37602SOL     OW14812   0.049   1.445  10.957 -0.1305  0.2950 -0.8238
37602SOL    HW114813   0.001   1.522  10.926  1.1267  1.1814 -0.6809
37602SOL    HW214814   0.111   1.481  11.021 -1.0273 -1.1572  0.9415
37603SOL     OW14815   0.245   1.903   3.135  0.4780 -0.0502  0.0881
37603SOL    HW114816   0.327   1.921   3.182  0.8023 -0.7023 -0.2188
37603SOL    HW214817   0.252   1.812   3.108  0.9221  0.6522 -2.4517
37604SOL     OW14818   2.093   4.158  10.035 -0.0976  0.7604  0.2103
37604SOL    HW114819   2.106   4.155   9.940 -0.5519 -2.2557  0.1480
37604SOL    HW214820   1.999   4.173  10.046 -0.0774  0.9007  0.2016
37605SOL     OW14821   8.608   1.022   0.955 -0.1256  0.7422  0.1790
37605SOL    HW114822   8.563   1.053   1.034 -1.5518 -0.1417 -0.2534
37605SOL    HW214823   8.558   0.945   0.927  3.0969 -1.8989  1.0453
37606SOL     OW14824   8.723   7.542   8.488  0.2570  1.0955 -0.2670
37606SOL    HW114825   8.746   7.459   8.447 -0.5951  0.8875 -0.3436
37606SOL    HW214826   8.747   7.608   8.424  0.9786  0.9162 -0.1883
37607SOL     OW14827   7.715   3.410   4.442 -0.4554  0.2079 -0.4333
37607SOL    HW114828   7.631   3.454   4.428 -0.5737  0.5079  0.9887
37607SOL    HW214829   7.728   3.357   4.364 -1.2738  1.2552 -1.3199
37608SOL     OW14830   5.439  10.933   5.478  0.4886  0.3715  0.0011
37608SOL    HW114831   5.483  10.854   5.509  0.8619 -0.4945 -2.5224
37608SOL    HW214832   5.470  11.002   5.537  1.4885 -1.0411  1.2106
37609SOL     OW14833   6.553   2.269   3.735 -0.4788 -0.2792  0.7285
37609SOL    HW114834   6.645   2.283   3.758 -0.4814  1.3090 -0.0503
37609SOL    HW214835   6.506   2.334   3.788 -0.8118  1.0423 -1.0915
37610SOL     OW14836   2.120   9.285   9.671 -0.4161 -0.2109 -0.4401
37610SOL    HW114837   2.180   9.359   9.659  1.5489 -0.8245  3.5698
37610SOL    HW214838   2.166   9.211   9.632  1.2894 -0.5237  1.9242
37611SOL     OW14839   6.841   2.741   4.222 -0.1443  0.4688  0.0812
37611SOL    HW114840   6.783   2.728   4.297  2.2105 -0.6332  1.8501
37611SOL    HW214841   6.863   2.835   4.224 -0.7768  0.6191  0.2030
37612SOL     OW14842   1.881   3.601   1.633 -0.1525 -0.1570  0.0401
37612SOL    HW114843   1.811   3.664   1.651 -0.5632 -0.1169 -1.6199
37612SOL    HW214844   1.837   3.517   1.623  0.4351 -0.9227  2.7578
37613SOL     OW14845   0.426   4.072  10.261  0.0315  0.6793 -0.4887
37613SOL    HW114846   0.436   4.154  10.310 -1.4808  0.3358  0.4445
37613SOL    HW214847   0.415   4.005  10.328 -0.0169 -0.1000 -1.2670
37614SOL     OW14848   1.892  10.890   9.139 -0.1329  0.0018  0.5811
37614SOL    HW114849   1.801  10.899   9.110  0.4012 -1.1520 -1.6705
37614SOL    HW214850   1.941  10.875   9.058  1.8018 -1.3500  1.9440
37615SOL     OW14851   4.287   7.010   2.393 -0.3416 -0.0756 -0.4688
37615SOL    HW114852   4.201   7.037   2.361  0.1715  2.8859  0.3839
37615SOL    HW214853   4.326   6.963   2.319 -2.8648 -2.1400 -0.6396
37616SOL     OW14854   0.547   7.951   1.195  0.2249 -0.1171  0.8245
37616SOL    HW114855   0.533   8.003   1.116  1.3259 -1.5916 -0.3921
37616SOL    HW214856   0.548   8.016   1.266 -0.6630  1.2475 -0.3677
37617SOL     OW14857  11.091   5.842   4.162 -0.4576 -0.4521  0.3872
37617SOL    HW114858  11.169   5.894   4.179 -0.1886 -0.5159 -0.6024
37617SOL    HW214859  11.108   5.800   4.078 -0.7535 -1.9756  1.0363
37618SOL     OW14860   4.409   4.025   9.034 -0.9439 -0.4188  0.3020
37618SOL    HW114861   4.317   4.017   9.060 -0.3956 -0.4480  2.4017
37618SOL    HW214862   4.444   3.937   9.043 -0.4843 -0.2228  0.4293
37619SOL     OW14863   2.287   9.340   2.411  1.0225  0.3789 -0.4746
37619SOL    HW114864   2.339   9.277   2.462  1.6975  1.0229 -0.3549
37619SOL    HW214865   2.349   9.410   2.389  0.3566  0.8459 -0.8815
37620SOL     OW14866  10.061   5.927   9.913 -0.8958 -0.2194  0.0012
37620SOL    HW114867  10.055   5.965   9.825  2.1628  1.1727  0.2753
37620SOL    HW214868  10.104   5.843   9.900 -2.2986 -0.9750  0.0236
37621SOL     OW14869   7.779  10.460   9.331  0.4503 -0.0195  0.0778
37621SOL    HW114870   7.734  10.389   9.377 -2.8063  0.9744 -1.2853
37621SOL    HW214871   7.843  10.416   9.276 -0.0800 -1.7195  0.7642
37622SOL     OW14872   2.796   6.239   7.038 -0.5864  0.1277  0.4501
37622SOL    HW114873   2.765   6.254   6.948  1.1252 -1.4412 -0.4690
37622SOL    HW214874   2.866   6.304   7.050 -0.3793 -0.0828  0.3946
37623SOL     OW14875  10.111   7.341   6.954 -0.3686  0.3300  0.2738
37623SOL    HW114876  10.033   7.378   6.913 -0.3900 -0.6480 -0.6051
37623SOL    HW214877  10.076   7.276   7.016 -0.4040  2.5882  2.8192
37624SOL     OW14878   0.832   6.695   6.501 -0.3988 -0.2958 -0.0134
37624SOL    HW114879   0.905   6.691   6.563 -0.2992 -1.9976 -0.1832
37624SOL    HW214880   0.770   6.630   6.534 -0.7298 -0.6125 -1.2049
37625SOL     OW14881   0.219   6.408   5.812 -0.6213  0.0260 -0.4513
37625SOL    HW114882   0.310   6.379   5.824 -0.6507 -0.1510 -0.6527
37625SOL    HW214883   0.183   6.411   5.900 -0.7130 -0.8640 -0.4475
37626SOL     OW14884   2.324   0.683   7.361 -0.2394 -0.2307  0.2469
37626SOL    HW114885   2.272   0.729   7.427 -0.2246 -1.2031  0.9661
37626SOL    HW214886   2.324   0.741   7.285  3.6201  3.1701  2.4942
37627SOL     OW14887   6.411   9.770   5.474 -0.1268  0.6597 -0.3526
37627SOL    HW114888   6.418   9.719   5.394 -0.9019 -0.6503  0.3789
37627SOL    HW214889   6.405   9.861   5.445  0.5746  0.2870 -1.7178
37628SOL     OW14890   1.155   2.883   4.472 -0.6559 -0.4546 -0.6208
37628SOL    HW114891   1.138   2.789   4.473 -1.3591 -0.4361 -3.3019
37628SOL    HW214892   1.219   2.896   4.402  0.5900  0.9434  0.6955
37629SOL     OW14893   2.986   2.632   6.208 -0.2788 -0.5014  0.6808
37629SOL    HW114894   3.011   2.724   6.194  0.8892 -1.0961 -1.7409
37629SOL    HW214895   2.989   2.593   6.120 -1.3628 -2.7329  1.5525
37630SOL     OW14896   8.779   2.397   0.440 -0.0785  0.5345 -0.2393
37630SOL    HW114897   8.766   2.454   0.365 -1.5676 -0.8601 -1.0910
37630SOL    HW214898   8.800   2.311   0.403  1.7097  0.3920  0.9988
37631SOL     OW14899  10.397   1.014  10.271 -0.1433  0.0213 -0.1019
37631SOL    HW114900  10.366   1.092  10.225  0.1510  0.0313 -0.2887
37631SOL    HW214901  10.478   0.990  10.225  2.7490  2.6390  3.0783
37632SOL     OW14902   5.593   1.842   2.236 -0.1344 -1.1144  0.4196
37632SOL    HW114903   5.649   1.842   2.314  0.3682 -0.7947  0.0614
37632SOL    HW214904   5.504   1.840   2.271  0.0933 -2.5092  0.9900
37633SOL     OW14905   9.058   7.174   5.486  0.9221 -0.3163 -0.0967
37633SOL    HW114906   8.992   7.106   5.475  1.0091 -0.6798  1.3472
37633SOL    HW214907   9.134   7.143   5.438  0.6928 -0.8430 -0.1289
37634SOL     OW14908   1.414   2.220   0.807  0.3635  0.4858 -0.1912
37634SOL    HW114909   1.492   2.271   0.782  0.8891 -0.0073  0.3918
37634SOL    HW214910   1.448   2.131   0.822 -0.2611  0.3294  0.3405
37635SOL     OW14911   1.623   0.852   3.682 -0.1181  0.1248  0.0424
37635SOL    HW114912   1.693   0.788   3.694 -0.2807 -0.0515  0.0669
37635SOL    HW214913   1.661   0.935   3.711  0.7803  0.4517 -1.9031
37636SOL     OW14914   5.365   3.798   9.553 -0.1447  0.1174 -0.1428
37636SOL    HW114915   5.364   3.890   9.582  0.7099 -0.3220  1.3677
37636SOL    HW214916   5.274   3.771   9.555 -0.2196  0.4195  1.1740
37637SOL     OW14917   5.904   0.410   1.422 -0.1117  0.4876  0.0633
37637SOL    HW114918   5.884   0.339   1.483  0.0134  2.1249  2.1232
37637SOL    HW214919   5.993   0.392   1.392 -1.4020 -2.3883 -2.7804
37638SOL     OW14920   4.133   3.596   5.640 -0.0126  0.2627  0.2984
37638SOL    HW114921   4.090   3.663   5.587  1.2296 -1.0439 -2.6182
37638SOL    HW214922   4.111   3.513   5.597  2.1498 -0.7682  1.0003
37639SOL     OW14923   3.238   9.771   0.558 -0.9764 -0.1783 -0.9854
37639SOL    HW114924   3.202   9.689   0.593 -0.5889 -0.8695 -2.1536
37639SOL    HW214925   3.163   9.829   0.551 -1.1240 -0.1256  0.6357
37640SOL     OW14926   0.128   6.912   9.201 -1.1297 -0.1249 -0.2651
37640SOL    HW114927   0.222   6.912   9.216 -1.0330  0.4133 -0.8164
37640SOL    HW214928   0.117   6.880   9.112 -1.5135 -0.7800  0.0111
37641SOL     OW14929   9.741   7.843   7.869 -0.3008 -0.3622 -0.6047
37641SOL    HW114930   9.758   7.843   7.775 -4.5742  0.4785 -1.6134
37641SOL    HW214931   9.799   7.911   7.904 -0.3388  1.1127 -3.1076
37642SOL     OW14932   8.057   6.406  10.822  0.0434 -0.5220  0.0147
37642SOL    HW114933   8.141   6.446  10.847  0.4914 -0.4208 -1.5593
37642SOL    HW214934   8.074   6.312  10.824 -0.5999 -0.6439  2.2971
37643SOL     OW14935   0.764   8.536  10.299 -0.1692 -0.2887  0.1165
37643SOL    HW114936   0.709   8.597  10.348 -0.1698  1.0486 -1.4570
37643SOL    HW214937   0.734   8.543  10.208  0.8881 -1.4639 -0.3617
37644SOL     OW14938   2.796   9.464   3.990 -0.6719 -0.7046  0.4685
37644SOL    HW114939   2.819   9.556   3.977 -3.4852 -0.0461 -0.5807
37644SOL    HW214940   2.724   9.448   3.929 -0.6711 -3.4593  1.0522
37645SOL     OW14941   7.684   7.566   4.592 -0.5156  0.5722  0.3488
37645SOL    HW114942   7.686   7.486   4.540 -2.0343  1.2227 -0.7899
37645SOL    HW214943   7.603   7.610   4.565  0.3534  2.5690  0.8332
37646SOL     OW14944   9.581   2.623   1.562  0.2097 -0.3882 -0.1332
37646SOL    HW114945   9.489   2.638   1.585  0.6419  1.6987  0.4543
37646SOL    HW214946   9.630   2.664   1.634  1.5969  2.1434 -2.3225
37647SOL     OW14947   0.555   5.164   4.954 -0.1530 -0.7759 -0.3062
37647SOL    HW114948   0.620   5.212   4.903  1.1475 -1.5896  0.5298
37647SOL    HW214949   0.529   5.091   4.898 -2.0468  0.7212 -1.5336
37648SOL     OW14950   3.018   2.560   5.929  0.2574  0.1633  0.2678
37648SOL    HW114951   2.972   2.529   5.851  1.1020  0.9765 -0.5927
37648SOL    HW214952   3.090   2.613   5.894  0.1483  1.2537  1.6286
37649SOL     OW14953   4.384   1.319   0.201  0.1363 -0.0556  0.0551
37649SOL    HW114954   4.373   1.239   0.148  1.6113 -0.8804  0.9243
37649SOL    HW214955   4.364   1.291   0.290  4.0015 -0.4833  0.9674
37650SOL     OW14956   3.933   4.775   8.091  0.3015  0.5037 -0.1296
37650SOL    HW114957   3.877   4.811   8.160 -0.0337 -1.2573  0.5836
37650SOL    HW214958   3.899   4.686   8.078  1.1113  0.4149 -1.7543
37651SOL     OW14959   8.952   1.719   3.342  0.8693  0.5640  0.9321
37651SOL    HW114960   8.858   1.721   3.321  0.6279  0.8602  2.0051
37651SOL    HW214961   8.959   1.655   3.413  1.6716 -0.3976  0.0246
37652SOL     OW14962   5.016   7.176   7.590 -0.8214  0.0928 -0.2738
37652SOL    HW114963   5.027   7.173   7.685 -0.5996  0.7168 -0.2746
37652SOL    HW214964   4.933   7.131   7.574  0.2444 -2.0865 -0.0062
37653SOL     OW14965   1.230   3.428   4.687 -0.6667  0.4621  0.0828
37653SOL    HW114966   1.253   3.343   4.651 -0.5070 -0.4384  2.1902
37653SOL    HW214967   1.161   3.461   4.628 -0.7629 -1.1141 -0.7466
37654SOL     OW14968   0.031   0.353   6.340 -0.2887 -0.2206 -0.1664
37654SOL    HW114969  -0.016   0.380   6.419  0.6616 -0.3941  0.4706
37654SOL    HW214970   0.118   0.330   6.371  0.0185 -0.5320 -1.2379
37655SOL     OW14971   5.137   5.646   1.247  0.5332 -0.6104  0.0896
37655SOL    HW114972   5.116   5.653   1.340  2.0269  0.6500  0.3761
37655SOL    HW214973   5.221   5.601   1.245  1.0423  0.3356 -0.5622
37656SOL     OW14974   8.562   6.623   5.624 -0.2844  0.6998  0.0923
37656SOL    HW114975   8.481   6.574   5.641  0.0928  0.2126  0.4738
37656SOL    HW214976   8.531   6.710   5.598 -0.9116  0.8616  1.3236
37657SOL     OW14977   8.590   8.344   9.350  0.1026 -0.5487 -0.8997
37657SOL    HW114978   8.607   8.404   9.423 -0.2445  1.2547 -2.2549
37657SOL    HW214979   8.533   8.277   9.388 -0.8027  0.8328  0.2955
37658SOL     OW14980   2.514   1.303   6.917 -0.3177 -0.1626 -0.2140
37658SOL    HW114981   2.465   1.337   6.991  1.2066  0.4282  0.5772
37658SOL    HW214982   2.525   1.210   6.935  0.1751  0.0076  0.4104
37659SOL     OW14983   5.552   6.173  10.031 -0.0169  0.6491  0.3741
37659SOL    HW114984   5.511   6.195  10.115 -0.0420  1.5062  0.1534
37659SOL    HW214985   5.515   6.237   9.970  1.4249  1.2610  0.1030
37660SOL     OW14986   4.111   3.695   3.185  0.1187 -0.1424  0.5083
37660SOL    HW114987   4.086   3.694   3.092  0.7675 -0.2431  0.3350
37660SOL    HW214988   4.030   3.720   3.231 -0.6168 -1.5714  0.0537
37661SOL     OW14989   0.676   3.334   5.692  0.2885 -0.2964  0.8232
37661SOL    HW114990   0.594   3.297   5.660  0.8272 -0.9161  0.1132
37661SOL    HW214991   0.694   3.285   5.773  0.9204 -1.5192 -0.0296
37662SOL     OW14992   8.018   2.867   7.362 -0.3852 -0.3100  0.2431
37662SOL    HW114993   8.083   2.798   7.346  0.3383  0.1961  0.9126
37662SOL    HW214994   7.938   2.819   7.384 -0.6072 -0.9682 -1.7874
37663SOL     OW14995   3.140   4.471  10.679 -0.0633 -0.3793  0.6125
37663SOL    HW114996   3.191   4.427  10.611  0.5861  3.6304 -1.7962
37663SOL    HW214997   3.205   4.508  10.738 -0.0695  2.6848 -1.1051
37664SOL     OW14998  10.128   4.252   3.873 -0.2761 -0.2350 -0.8883
37664SOL    HW114999  10.121   4.323   3.810 -0.1310  0.2924 -0.3223
37664SOL    HW215000  10.181   4.186   3.829 -0.4352 -0.0116 -1.4291
37665SOL     OW15001   8.630   6.369   5.455  0.6966 -0.4992 -0.0555
37665SOL    HW115002   8.582   6.409   5.383  1.5809  1.4825  0.3720
37665SOL    HW215003   8.610   6.276   5.449 -2.6440  0.1134 -0.2763
37666SOL     OW15004   1.764  10.442   3.245  0.6384 -0.1085  0.2259
37666SOL    HW115005   1.798  10.457   3.157 -0.1036 -1.7561 -0.3971
37666SOL    HW215006   1.811  10.503   3.301  0.4818  1.6150 -1.4416
37667SOL     OW15007   6.825   1.884   9.391 -0.2345  0.5524  0.0059
37667SOL    HW115008   6.762   1.830   9.342 -2.0236  2.6801 -0.2079
37667SOL    HW215009   6.776   1.963   9.414  0.8411  0.2512  4.2101
37668SOL     OW15010   2.284   8.940   5.425 -0.1388  0.2354  0.3915
37668SOL    HW115011   2.277   8.847   5.402 -2.4043  0.6587 -0.9117
37668SOL    HW215012   2.321   8.981   5.347  0.7311  0.4719  0.9152
37669SOL     OW15013  10.755   1.042   7.579  0.3732  0.9942  0.3293
37669SOL    HW115014  10.752   1.132   7.611 -0.1034  0.9292  0.4713
37669SOL    HW215015  10.773   0.989   7.657 -2.1098  0.7001  0.8148
37670SOL     OW15016   2.691   5.136   1.669 -0.3271 -0.0057  0.5351
37670SOL    HW115017   2.616   5.134   1.610 -1.0261 -0.2223  1.4131
37670SOL    HW215018   2.656   5.170   1.752  1.2873  3.4635 -0.0496
37671SOL     OW15019   9.704   5.640   2.332 -0.2719 -0.3097 -0.0943
37671SOL    HW115020   9.743   5.609   2.414 -0.3614 -0.5064 -0.1252
37671SOL    HW215021   9.645   5.711   2.359  1.0346  0.8506 -0.1711
37672SOL     OW15022   9.498   4.411  10.257 -0.5154  0.1156 -0.3217
37672SOL    HW115023   9.438   4.436  10.327 -1.3299  0.3131 -1.0752
37672SOL    HW215024   9.570   4.366  10.301 -1.5613 -0.7488  0.5239
37673SOL     OW15025   5.208   0.841   3.661  0.0976 -0.8486  0.3236
37673SOL    HW115026   5.206   0.937   3.669 -1.7248 -0.7245 -0.8591
37673SOL    HW215027   5.174   0.809   3.745 -1.4347 -0.3291 -0.0583
37674SOL     OW15028  10.585   4.830   7.325 -0.3253 -0.2775 -0.4657
37674SOL    HW115029  10.492   4.837   7.344 -0.0321  1.0573  0.6231
37674SOL    HW215030  10.589   4.779   7.244 -1.8548 -2.4228  0.7166
37675SOL     OW15031  10.004   1.679   8.746  0.0935  0.4381  0.0172
37675SOL    HW115032   9.953   1.666   8.665  0.4031 -0.9640  0.0354
37675SOL    HW215033  10.075   1.617   8.740 -0.6165 -0.6383  1.9827
37676SOL     OW15034   9.878   3.870   9.750  0.1125  1.1195 -1.1680
37676SOL    HW115035   9.787   3.845   9.764  1.0350 -2.9815 -1.2615
37676SOL    HW215036   9.909   3.896   9.837 -0.7797  1.2063 -0.8638
37677SOL     OW15037   0.036   1.937   8.299 -0.0109 -0.2877 -0.1515
37677SOL    HW115038  -0.050   1.899   8.279  0.1804 -1.1378  0.6137
37677SOL    HW215039   0.090   1.862   8.325  1.2835  0.0725 -1.6431
37678SOL     OW15040   3.690   9.098   3.771  0.4305 -0.0873 -0.5648
37678SOL    HW115041   3.732   9.183   3.762  1.2901 -0.0343  2.6140
37678SOL    HW215042   3.611   9.115   3.823  0.6849 -1.2137  0.2386
37679SOL     OW15043   9.926   7.873   8.560 -0.4987 -0.3719  0.4801
37679SOL    HW115044   9.973   7.857   8.642 -1.7831 -0.6858  1.1885
37679SOL    HW215045   9.882   7.957   8.573  0.0778  0.0472 -0.2708
37680SOL     OW15046  10.307   6.363   3.145 -0.0788  0.1849 -0.6811
37680SOL    HW115047  10.378   6.402   3.094  0.6130 -0.4416 -0.2172
37680SOL    HW215048  10.349   6.293   3.195 -1.0329 -0.2154 -0.4201
37681SOL     OW15049   1.153   7.993   1.601 -0.0242 -0.4025 -0.3678
37681SOL    HW115050   1.245   7.966   1.591  0.6606  1.3190  0.6802
37681SOL    HW215051   1.158   8.086   1.621 -1.9192 -0.5449  1.1087
37682SOL     OW15052   0.715   0.599   6.385 -0.1674  0.0725 -0.4159
37682SOL    HW115053   0.712   0.670   6.449  2.5822  0.6756 -0.8384
37682SOL    HW215054   0.669   0.635   6.309  0.5682  1.1630 -0.3744
37683SOL     OW15055   9.199   6.577   2.919 -0.7560 -0.0577  0.1824
37683SOL    HW115056   9.109   6.582   2.886  0.0489  0.4173 -2.0963
37683SOL    HW215057   9.200   6.497   2.973 -2.5858  0.0860  0.5152
37684SOL     OW15058   5.138   2.808   9.219  0.1655 -1.1254  0.2201
37684SOL    HW115059   5.065   2.843   9.269  0.5287 -1.0303  0.6938
37684SOL    HW215060   5.107   2.724   9.185 -1.3112  0.2881 -2.2846
37685SOL     OW15061   7.995   8.312   7.769 -0.2449 -0.2429 -0.0522
37685SOL    HW115062   7.908   8.270   7.765  0.0745 -1.1690  1.6480
37685SOL    HW215063   8.023   8.300   7.860  1.0818  1.2811 -0.2159
37686SOL     OW15064   5.125   1.454   1.703 -0.3441  0.7762  0.3413
37686SOL    HW115065   5.105   1.368   1.665  2.0801  0.7204 -1.0739
37686SOL    HW215066   5.120   1.440   1.797 -0.1382 -0.9125  0.1481
37687SOL     OW15067   9.578   8.893   5.687  0.1263  0.6512  0.5028
37687SOL    HW115068   9.604   8.873   5.777  0.7624  3.1749  0.9574
37687SOL    HW215069   9.522   8.971   5.695  0.7357  1.3300 -1.3248
37688SOL     OW15070   4.674   1.626   6.529  0.1242 -0.2971  0.4936
37688SOL    HW115071   4.660   1.539   6.569  1.2418  0.3829  2.5189
37688SOL    HW215072   4.698   1.682   6.603  0.9607  1.3965 -0.9976
37689SOL     OW15073   8.953   2.274   8.413 -0.3615  0.0011 -1.0108
37689SOL    HW115074   8.888   2.343   8.418  0.2924  0.5068  1.9197
37689SOL    HW215075   9.028   2.315   8.369 -0.1302  1.0735  0.3236
37690SOL     OW15076   0.198   6.329   0.421  0.0193 -0.0969  0.2118
37690SOL    HW115077   0.145   6.260   0.381  0.7693 -0.7597  0.3236
37690SOL    HW215078   0.223   6.293   0.506  0.1954  0.4300  0.3878
37691SOL     OW15079   1.476   4.345   6.137  0.0837 -0.4962  0.3624
37691SOL    HW115080   1.506   4.435   6.149 -0.2267 -0.2932 -0.3784
37691SOL    HW215081   1.406   4.351   6.073  1.4237 -1.5099 -1.2724
37692SOL     OW15082   0.744   7.658   5.102  0.1571 -0.9039 -0.2224
37692SOL    HW115083   0.667   7.681   5.051  0.0971  0.5427  0.4817
37692SOL    HW215084   0.810   7.724   5.079  0.0655 -0.0998  1.6474
37693SOL     OW15085   6.240   3.435   5.368  0.5604  0.6330 -0.2358
37693SOL    HW115086   6.323   3.477   5.345 -0.0363  1.2092 -1.5255
37693SOL    HW215087   6.210   3.396   5.286 -1.4224  2.2454 -0.3629
37694SOL     OW15088   5.910   5.487   8.776  0.3008 -0.0224  0.5126
37694SOL    HW115089   5.965   5.564   8.760  0.1085 -0.2723 -1.5455
37694SOL    HW215090   5.900   5.446   8.691 -0.6744 -1.6365  1.3508
37695SOL     OW15091   6.703   9.472   6.639 -0.4958  0.7457 -0.3147
37695SOL    HW115092   6.749   9.420   6.574  0.3472 -0.7246  1.3778
37695SOL    HW215093   6.622   9.500   6.595 -0.0761 -0.4029 -1.8777
37696SOL     OW15094   4.699   2.055   2.140 -0.2529 -0.1856  0.0869
37696SOL    HW115095   4.633   1.988   2.157  0.4879 -0.7532  0.8275
37696SOL    HW215096   4.650   2.137   2.135 -1.3883 -0.9045 -2.3298
37697SOL     OW15097   7.977   6.733   0.469  0.1101 -0.3344  0.4104
37697SOL    HW115098   7.951   6.778   0.550 -2.0991 -1.1150  0.2122
37697SOL    HW215099   8.060   6.692   0.490  0.6436  1.2379  1.5832
37698SOL     OW15100   5.531   2.509  10.316  0.1896  0.0692  0.0606
37698SOL    HW115101   5.554   2.559  10.394  1.2900 -0.4579  0.0882
37698SOL    HW215102   5.537   2.572  10.244  2.7256 -0.2331 -0.0675
37699SOL     OW15103   0.412   3.658  10.403  0.1868  0.0612  0.4344
37699SOL    HW115104   0.404   3.748  10.433 -0.2886  0.0583  0.3262
37699SOL    HW215105   0.410   3.664  10.307 -1.1929 -0.1726  0.4339
37700SOL     OW15106   2.560   1.541   6.779 -0.1423 -0.5052 -0.1103
37700SOL    HW115107   2.542   1.533   6.685 -2.3405 -0.1032  0.2231
37700SOL    HW215108   2.550   1.453   6.813 -1.6391 -0.2820  0.0742
37701SOL     OW15109   9.198   0.748   4.057  0.2403 -0.1708  0.0524
37701SOL    HW115110   9.230   0.669   4.100 -1.8602 -1.6396 -0.8837
37701SOL    HW215111   9.106   0.754   4.084 -0.5275  0.0979 -2.3940
37702SOL     OW15112   9.195   2.173   9.271 -0.5968 -0.2862  0.3398
37702SOL    HW115113   9.176   2.209   9.184 -1.9446  0.2778  0.8452
37702SOL    HW215114   9.175   2.080   9.263  2.8486 -1.0988 -0.9591
37703SOL     OW15115   9.884   5.930  10.935 -1.0529 -0.0435  0.1789
37703SOL    HW115116   9.897   5.862  10.870 -1.5246  1.7004 -1.8530
37703SOL    HW215117   9.963   5.926  10.990  0.5361 -0.0661 -1.9776
37704SOL     OW15118   5.715   6.589   6.949  0.3645 -0.1701 -0.1286
37704SOL    HW115119   5.712   6.684   6.959  2.5466 -0.2515  2.3591
37704SOL    HW215120   5.648   6.556   7.009 -0.9256 -0.2613 -1.5484
37705SOL     OW15121  10.116   2.483   2.619  0.2579  0.2546  0.3823
37705SOL    HW115122  10.160   2.557   2.661  1.4112  0.4044 -1.0148
37705SOL    HW215123  10.034   2.520   2.586  0.2117  0.5767  0.8454
37706SOL     OW15124   3.648  10.866   2.374  0.0302  0.6500 -0.0001
37706SOL    HW115125   3.686  10.952   2.355 -0.2829  1.0964  1.3052
37706SOL    HW215126   3.657  10.856   2.469 -0.5101 -0.4935 -0.0527
37707SOL     OW15127   5.223   0.948   4.400  0.4811  0.0739  0.3008
37707SOL    HW115128   5.272   0.866   4.387 -0.1625  0.0037 -2.2310
37707SOL    HW215129   5.287   1.017   4.384  0.9364  0.1006  2.0807
37708SOL     OW15130  10.498   9.555  10.466  0.6674 -1.3104  0.0043
37708SOL    HW115131  10.420   9.570  10.413  0.5012 -2.1716 -0.0126
37708SOL    HW215132  10.477   9.477  10.518  0.8706 -0.5615  1.2521
37709SOL     OW15133  10.965   2.592   3.620  0.4124  0.3507 -0.3477
37709SOL    HW115134  10.900   2.643   3.572  0.1353 -1.2596 -1.7785
37709SOL    HW215135  11.043   2.647   3.622  0.2725  0.6846 -2.2488
37710SOL     OW15136   9.543   1.303   4.421 -0.1407 -0.0103 -0.1340
37710SOL    HW115137   9.491   1.375   4.458 -2.4844 -1.5509 -0.2332
37710SOL    HW215138   9.600   1.346   4.357 -0.0340  1.9805  1.1902
37711SOL     OW15139   0.743   8.082   3.579 -0.1370 -0.5841  0.5089
37711SOL    HW115140   0.746   7.987   3.584 -0.6198 -0.5776  1.1062
37711SOL    HW215141   0.826   8.112   3.616  0.8711 -0.8044 -1.4641
37712SOL     OW15142   3.373  11.085   5.527 -0.3701  0.0815 -0.0020
37712SOL    HW115143   3.348  11.074   5.618 -1.8422  0.3004 -0.3559
37712SOL    HW215144   3.433  11.012   5.509 -3.0591 -2.3194  0.0968
37713SOL     OW15145   7.398   2.407   6.282  0.3528 -0.1676 -0.0701
37713SOL    HW115146   7.457   2.335   6.261  1.1801 -0.3484  2.4995
37713SOL    HW215147   7.454   2.470   6.328 -0.4889  1.8590 -1.6729
37714SOL     OW15148   2.081   1.551   5.163 -0.1400  0.0074 -0.1224
37714SOL    HW115149   2.167   1.536   5.202  0.4956  1.0057 -1.0958
37714SOL    HW215150   2.032   1.597   5.231 -0.0039 -0.7720  0.5282
37715SOL     OW15151   5.059   3.866   8.940  0.0270  0.1266 -0.4057
37715SOL    HW115152   5.020   3.827   9.018 -4.6778 -0.6226 -2.8076
37715SOL    HW215153   5.123   3.801   8.910 -1.6097 -1.8686  0.2412
37716SOL     OW15154   2.819  10.211   4.898 -0.0765  0.2321  0.2388
37716SOL    HW115155   2.909  10.185   4.881  0.2125  0.5510  1.2138
37716SOL    HW215156   2.822  10.253   4.984 -1.4728 -1.4028  1.1513
37717SOL     OW15157   9.177   0.079   6.564  0.2867 -0.3622 -0.2048
37717SOL    HW115158   9.256   0.108   6.610  0.9782 -2.1618 -0.1897
37717SOL    HW215159   9.194   0.100   6.472 -0.1292  1.1380  0.0276
37718SOL     OW15160  10.659  10.902   4.882 -0.2864 -0.2684 -0.0099
37718SOL    HW115161  10.644  10.948   4.799 -0.4494  0.1220  0.2363
37718SOL    HW215162  10.689  10.970   4.942 -3.8906  0.3119  1.3970
37719SOL     OW15163   2.291   3.704   0.709  0.1553 -0.0631  0.3887
37719SOL    HW115164   2.270   3.693   0.801  0.3588  0.4914  0.5051
37719SOL    HW215165   2.384   3.725   0.707 -0.1158  1.2093  0.1687
37720SOL     OW15166   8.289   3.083   4.946 -0.2125  0.3632  0.2283
37720SOL    HW115167   8.214   3.070   5.004 -0.2067 -1.7748 -0.1572
37720SOL    HW215168   8.267   3.161   4.895 -0.5255  1.8915  2.5644
37721SOL     OW15169   5.352   2.702   7.252  0.6912  0.4112 -0.5421
37721SOL    HW115170   5.314   2.685   7.338  0.6363 -0.1225 -0.6710
37721SOL    HW215171   5.417   2.771   7.268  0.3865  0.6117 -0.1478
37722SOL     OW15172   2.377   8.634   3.267  0.2523  0.9322 -0.4312
37722SOL    HW115173   2.395   8.629   3.173  0.4612  0.7078 -0.3786
37722SOL    HW215174   2.447   8.689   3.302  1.6523 -0.9981 -0.0199
37723SOL     OW15175   9.348   3.675   3.784  0.3048  0.4430 -0.3582
37723SOL    HW115176   9.419   3.682   3.847  0.8920  0.5675 -1.0160
37723SOL    HW215177   9.269   3.691   3.835  0.4829 -2.1343  0.9153
37724SOL     OW15178   4.080   4.285   2.916 -0.5768 -0.2939  0.4712
37724SOL    HW115179   4.129   4.342   2.856 -1.7368  0.3534  0.1061
37724SOL    HW215180   4.135   4.207   2.924 -0.0386 -0.0855 -0.8515
37725SOL     OW15181   4.012   6.820   7.014 -0.2278  0.0320 -0.2105
37725SOL    HW115182   4.032   6.914   7.014  0.0939  0.0427  2.5758
37725SOL    HW215183   3.916   6.816   7.012 -0.2397  0.3784 -0.6958
37726SOL     OW15184   1.805   0.059   2.528 -0.4074 -0.3933 -0.1126
37726SOL    HW115185   1.833   0.138   2.482  0.3909 -0.5132  0.1518
37726SOL    HW215186   1.739   0.020   2.471 -0.5281  0.2666 -0.4238
37727SOL     OW15187   1.334   6.119   9.701  0.7931 -0.1447  0.3384
37727SOL    HW115188   1.315   6.208   9.732  0.0590 -1.1291  2.9764
37727SOL    HW215189   1.364   6.131   9.611 -0.4990  2.6555  0.1695
37728SOL     OW15190   3.046   0.939   4.110 -0.4544  0.0503  0.1629
37728SOL    HW115191   3.103   0.862   4.114 -1.2622 -0.6255 -0.8063
37728SOL    HW215192   2.972   0.911   4.057 -1.1779  1.2459  0.5111
37729SOL     OW15193   1.097   9.780   1.391 -0.7275 -0.0430  0.0960
37729SOL    HW115194   1.175   9.789   1.447 -0.5272 -2.0265  0.2286
37729SOL    HW215195   1.129   9.798   1.303  0.4478 -2.7246 -0.1299
37730SOL     OW15196   9.302   3.298   8.709 -0.3128  0.0242  0.9656
37730SOL    HW115197   9.236   3.346   8.760  0.4032  1.1605  0.8474
37730SOL    HW215198   9.292   3.332   8.620 -1.0403 -1.4026  0.4704
37731SOL     OW15199   5.802   4.910   3.841 -0.5326 -1.2071 -0.9759
37731SOL    HW115200   5.732   4.975   3.833  0.5024 -0.2263 -2.7333
37731SOL    HW215201   5.861   4.946   3.907 -1.9260 -2.3432  0.9866
37732SOL     OW15202   6.952   7.291   9.560  0.4839 -0.1376  0.2832
37732SOL    HW115203   6.908   7.320   9.640  1.7424  0.0686  0.9233
37732SOL    HW215204   7.040   7.327   9.566  0.7461 -0.4951 -0.9935
37733SOL     OW15205   8.166   7.370   0.859 -0.0961  0.8985 -0.4230
37733SOL    HW115206   8.166   7.299   0.924  1.5952  0.1739 -1.1529
37733SOL    HW215207   8.105   7.340   0.792  1.1585 -0.2713 -1.0922
37734SOL     OW15208   1.161   7.346   1.576 -0.2257  0.0040 -0.7202
37734SOL    HW115209   1.171   7.406   1.502 -0.0129  0.1735 -0.5534
37734SOL    HW215210   1.214   7.270   1.552  0.5900  0.4431 -0.3322
37735SOL     OW15211   7.149   1.116   8.462  0.8884  0.5050  0.0856
37735SOL    HW115212   7.169   1.195   8.411  2.9920 -0.4727 -0.7025
37735SOL    HW215213   7.225   1.105   8.519  1.0245 -1.3843 -0.4130
37736SOL     OW15214   0.879   4.301   7.576 -1.0173  0.2109 -0.1114
37736SOL    HW115215   0.916   4.344   7.653  0.4047 -3.2108  1.3119
37736SOL    HW215216   0.785   4.295   7.595 -0.9923  1.1198  0.3899
37737SOL     OW15217   0.082   2.040  10.951 -0.1416 -0.4241  0.5653
37737SOL    HW115218   0.157   2.036  10.892  0.1429  3.2641  0.4602
37737SOL    HW215219   0.114   2.003  11.033  1.4215  0.0199  0.1828
37738SOL     OW15220  10.113  10.780   1.755  0.1118  0.5466  0.3285
37738SOL    HW115221  10.167  10.716   1.709  0.3551  1.4041 -0.6152
37738SOL    HW215222  10.039  10.730   1.789  0.9922 -0.4666  0.7929
37739SOL     OW15223   5.185  10.934   9.628 -0.1278  0.6157 -0.3109
37739SOL    HW115224   5.180  10.871   9.556  1.3222  1.9173 -1.6176
37739SOL    HW215225   5.233  11.008   9.592 -0.1396  1.7012  1.7507
37740SOL     OW15226   2.128   9.823   0.341  0.4868 -0.8223  0.2195
37740SOL    HW115227   2.221   9.801   0.341  1.1432  1.6013  0.9465
37740SOL    HW215228   2.097   9.800   0.429  1.5176  2.1800  1.4816
37741SOL     OW15229   9.573   6.275   0.848 -0.2774 -0.3874  0.0898
37741SOL    HW115230   9.666   6.296   0.839 -0.6502  0.9990 -0.7891
37741SOL    HW215231   9.569   6.180   0.836  1.1680 -0.6756  1.4849
37742SOL     OW15232   1.900   5.534  10.075  0.2701 -0.2351 -0.3013
37742SOL    HW115233   1.908   5.513  10.167  1.4226  2.9898  0.4697
37742SOL    HW215234   1.843   5.612  10.072  0.7100  0.0857 -2.2244
37743SOL     OW15235   8.929   4.425   5.995 -0.4267 -0.0770  0.8443
37743SOL    HW115236   8.944   4.437   5.901  2.1631  0.0445  1.1983
37743SOL    HW215237   9.011   4.389   6.028 -0.5099  1.7542  3.3886
37744SOL     OW15238   4.755   6.803   6.623 -0.3627 -0.1191 -0.1524
37744SOL    HW115239   4.773   6.765   6.537 -1.9870  1.0259 -1.0649
37744SOL    HW215240   4.684   6.866   6.607 -0.4759  0.3806  1.9733
37745SOL     OW15241   9.753   8.668   3.142  0.1291  0.4001  0.3893
37745SOL    HW115242   9.793   8.754   3.129 -0.4621  0.5306 -0.6859
37745SOL    HW215243   9.813   8.607   3.100 -0.0705  0.4300  0.0600
37746SOL     OW15244   6.813   4.046   6.217 -0.6706  0.1847  0.9539
37746SOL    HW115245   6.743   3.994   6.177 -0.4062  0.7990 -0.3689
37746SOL    HW215246   6.811   4.022   6.310 -0.3423 -2.4248  0.3635
37747SOL     OW15247   2.092   2.784   0.984 -0.0596 -0.3627 -0.5078
37747SOL    HW115248   2.090   2.769   1.078  1.4607 -0.1195 -0.4134
37747SOL    HW215249   2.115   2.876   0.974 -0.5192 -0.3052 -1.1249
37748SOL     OW15250   0.317  10.198   1.466 -0.1595 -0.0473 -0.2532
37748SOL    HW115251   0.379  10.190   1.539 -0.2984 -2.5761 -0.3231
37748SOL    HW215252   0.373  10.202   1.388 -0.0332  1.7196 -0.0993
37749SOL     OW15253   4.114   5.689   0.579  0.6501 -0.7061  0.3831
37749SOL    HW115254   4.056   5.672   0.653  2.2309 -0.9673  1.6218
37749SOL    HW215255   4.155   5.773   0.599 -2.0332  1.4363 -2.3533
37750SOL     OW15256   0.486   5.262   0.250  0.8014  0.2709  0.1871
37750SOL    HW115257   0.566   5.259   0.198 -0.8956 -0.5972 -2.5908
37750SOL    HW215258   0.510   5.222   0.333  3.2461  0.1567 -0.4938
37751SOL     OW15259   1.762   3.866   9.029  0.0882 -0.3547 -0.1460
37751SOL    HW115260   1.772   3.957   9.059  0.0656 -0.5678  0.5138
37751SOL    HW215261   1.829   3.856   8.961 -2.4616  1.4170 -3.2380
37752SOL     OW15262   5.566   0.306  10.642 -0.3257  0.1942  0.0689
37752SOL    HW115263   5.622   0.340  10.712  0.4641  0.0761 -0.4932
37752SOL    HW215264   5.585   0.212  10.639  0.7956  0.4371 -1.2977
37753SOL     OW15265   6.272   5.557   0.407  0.2280 -0.0486  0.3171
37753SOL    HW115266   6.191   5.608   0.401  0.9206  1.2611  1.2937
37753SOL    HW215267   6.332   5.600   0.347 -0.1145 -1.7500 -1.3218
37754SOL     OW15268   8.287   1.202   7.002  0.5208 -0.5451  0.3967
37754SOL    HW115269   8.212   1.199   7.061 -1.1516 -3.5828 -1.6530
37754SOL    HW215270   8.249   1.212   6.915  2.6088 -0.6790 -0.5959
37755SOL     OW15271   4.781   9.415   1.345 -0.3984 -0.4657 -0.0212
37755SOL    HW115272   4.861   9.426   1.294  0.1125  1.0771  1.0427
37755SOL    HW215273   4.714   9.461   1.295 -0.3292 -0.6134 -0.2491
37756SOL     OW15274   3.627   1.177   9.752  0.4978 -0.2306  0.5062
37756SOL    HW115275   3.675   1.097   9.730  2.5732  0.6946  1.3873
37756SOL    HW215276   3.656   1.241   9.688 -1.3084 -0.1884 -0.3210
37757SOL     OW15277   5.913   0.981   3.594  0.1352 -0.3238  0.0646
37757SOL    HW115278   5.950   1.041   3.530  0.6036 -0.9092 -0.2146
37757SOL    HW215279   5.841   1.030   3.634 -0.4075 -0.0864 -1.1721
37758SOL     OW15280   7.351   2.562   5.380  0.3993 -0.1051  0.0359
37758SOL    HW115281   7.368   2.565   5.286 -0.5925 -0.7824 -0.1809
37758SOL    HW215282   7.412   2.496   5.413 -0.0194 -0.6825 -0.3216
37759SOL     OW15283  10.847   7.151   9.413  0.1680 -0.5826 -0.6306
37759SOL    HW115284  10.939   7.151   9.387  1.2675  3.1646  2.4745
37759SOL    HW215285  10.839   7.077   9.473  1.9652  0.5522  1.1320
37760SOL     OW15286   2.982   5.559   1.878  0.1098 -0.3265  0.0576
37760SOL    HW115287   3.057   5.536   1.933  0.7648 -2.2364 -1.5129
37760SOL    HW215288   2.924   5.483   1.882 -0.5487  0.1150 -0.6959
37761SOL     OW15289   3.827   7.303   0.726 -0.0200  0.2673  0.2360
37761SOL    HW115290   3.852   7.298   0.634 -1.3198  1.5668 -0.2293
37761SOL    HW215291   3.887   7.367   0.764  1.2365 -1.0650  0.5984
37762SOL     OW15292   2.711   4.066   0.856 -0.2105 -0.3778  0.1380
37762SOL    HW115293   2.695   4.160   0.849 -0.3246 -0.3739  0.4224
37762SOL    HW215294   2.758   4.056   0.938 -0.9159 -0.6559  0.5166
37763SOL     OW15295   4.175   6.768   1.057  0.1816 -0.1482 -0.2673
37763SOL    HW115296   4.190   6.780   0.963 -0.1308 -0.2395 -0.3274
37763SOL    HW215297   4.084   6.741   1.064  0.9524 -2.9892 -0.1800
37764SOL     OW15298   2.084   1.591   1.171 -0.1411 -0.5995  0.3631
37764SOL    HW115299   2.144   1.656   1.208  1.1669 -1.4139 -0.2378
37764SOL    HW215300   2.126   1.507   1.190 -0.3613 -1.1211 -1.3230
37765SOL     OW15301   2.123   9.469   3.659 -0.0492  0.0494  0.0379
37765SOL    HW115302   2.185   9.413   3.613 -1.2218 -0.6212 -0.7644
37765SOL    HW215303   2.063   9.409   3.703 -1.3822  0.6417 -0.9021
37766SOL     OW15304   3.532   4.606   4.594 -0.5539  0.4568 -0.6059
37766SOL    HW115305   3.468   4.582   4.661  0.7207  0.0187  0.5043
37766SOL    HW215306   3.494   4.575   4.512 -0.6700 -2.0907  0.3094
37767SOL     OW15307   9.659   5.375   2.704  0.0741  0.5569 -0.3299
37767SOL    HW115308   9.620   5.400   2.620 -1.3705  1.4780  0.5503
37767SOL    HW215309   9.597   5.311   2.740  1.5754 -1.1588 -0.6959
37768SOL     OW15310   9.635   6.826   4.034 -0.1066  0.9844  0.2705
37768SOL    HW115311   9.647   6.754   4.096 -1.1671  2.6704  2.6234
37768SOL    HW215312   9.703   6.890   4.058  1.1391  0.6550 -2.0947
37769SOL     OW15313  10.439   6.852   0.587  0.7320 -0.0155  0.4467
37769SOL    HW115314  10.456   6.809   0.503  0.2432 -0.5187  0.5960
37769SOL    HW215315  10.363   6.805   0.623  0.8857  0.2458  1.1322
37770SOL     OW15316   8.630   9.526   4.881 -0.2801 -0.1728  0.6293
37770SOL    HW115317   8.717   9.488   4.877  0.6516  1.6797  1.8016
37770SOL    HW215318   8.621   9.575   4.799 -1.1033 -1.9710 -0.4352
37771SOL     OW15319   1.280  10.156  10.747 -0.2682  0.4856  1.0144
37771SOL    HW115320   1.187  10.140  10.763  0.0441 -0.5658  1.8723
37771SOL    HW215321   1.282  10.238  10.697 -1.5423  1.7096  2.8561
37772SOL     OW15322   7.316   4.033   3.701 -0.1832 -0.6353  0.0902
37772SOL    HW115323   7.285   4.120   3.724  0.2742 -0.5172  0.2669
37772SOL    HW215324   7.288   4.021   3.610 -0.7868 -0.5550  0.2651
37773SOL     OW15325   0.174   2.878   5.675  0.1536  0.0458  0.0549
37773SOL    HW115326   0.176   2.797   5.625 -1.1814 -0.1368  0.2461
37773SOL    HW215327   0.111   2.861   5.746  1.1420  0.6767  1.1292
37774SOL     OW15328  10.114   1.224   4.105  0.4876 -0.5016 -0.8761
37774SOL    HW115329  10.204   1.251   4.085  1.7437 -0.8490  3.3924
37774SOL    HW215330  10.073   1.303   4.141 -0.2469 -0.8965 -0.8403
37775SOL     OW15331   0.971   1.281   6.220  0.2033 -0.5950 -0.1173
37775SOL    HW115332   1.055   1.304   6.261 -0.3292 -0.1306  0.7283
37775SOL    HW215333   0.980   1.187   6.199  1.1629 -0.4082 -0.6172
37776SOL     OW15334   5.223   3.609   7.368  0.5253  0.1391 -0.4492
37776SOL    HW115335   5.308   3.650   7.350  0.8632 -0.1174  0.4703
37776SOL    HW215336   5.230   3.521   7.331  0.2102  0.5191 -1.4349
37777SOL     OW15337   9.598   7.155   4.597  0.5259 -0.2236 -0.3633
37777SOL    HW115338   9.570   7.222   4.659 -1.8420 -1.2725 -0.2042
37777SOL    HW215339   9.571   7.189   4.511 -0.8335 -1.0018 -0.2654
37778SOL     OW15340   8.814   0.587   3.952  0.6722  0.5715 -0.0705
37778SOL    HW115341   8.793   0.589   3.859  1.5938  2.8181 -0.3002
37778SOL    HW215342   8.730   0.575   3.996  0.4097 -2.5827 -1.1427
37779SOL     OW15343  10.647   7.207   8.985  0.1264  0.1179 -0.2780
37779SOL    HW115344  10.730   7.254   8.975  0.0599  0.5551  1.0372
37779SOL    HW215345  10.606   7.214   8.899  2.2565 -1.7560 -1.5572
37780SOL     OW15346   5.284  10.480   7.929  0.2847 -0.8869  0.1282
37780SOL    HW115347   5.247  10.533   7.999 -1.3078 -2.5679  0.6334
37780SOL    HW215348   5.356  10.432   7.971  2.6813  1.7223 -0.6492
37781SOL     OW15349   1.771   9.061   2.224 -0.4980  0.1025 -0.1422
37781SOL    HW115350   1.770   9.021   2.137  5.0276 -0.9361 -0.0913
37781SOL    HW215351   1.811   9.147   2.209 -2.7364  1.4366  1.0706
37782SOL     OW15352   0.446   3.271   8.292  0.1851 -0.5745  0.0440
37782SOL    HW115353   0.362   3.297   8.329 -1.2127 -2.5753 -1.5224
37782SOL    HW215354   0.472   3.344   8.236  0.1666  0.6009  1.4990
37783SOL     OW15355   1.504   0.248   4.827 -0.0171 -0.6487 -0.5351
37783SOL    HW115356   1.524   0.322   4.769  0.6093 -0.5435 -0.2003
37783SOL    HW215357   1.577   0.187   4.814 -0.5773 -1.2580 -0.8796
37784SOL     OW15358   9.574   6.506   1.796  0.0237 -0.1545  0.1253
37784SOL    HW115359   9.662   6.503   1.758 -0.3017 -0.6285 -0.6118
37784SOL    HW215360   9.589   6.518   1.890  0.8719 -0.3850  0.0288
37785SOL     OW15361   6.118   1.471   6.882  0.3778 -0.3510 -0.1191
37785SOL    HW115362   6.182   1.402   6.863  0.2287 -0.9121  1.2956
37785SOL    HW215363   6.109   1.519   6.799  1.8193 -0.9174 -0.6335
37786SOL     OW15364   1.794   4.727   3.149 -0.1233  0.1451  0.9027
37786SOL    HW115365   1.727   4.692   3.208 -1.2281 -0.6024 -0.7151
37786SOL    HW215366   1.760   4.812   3.123 -1.6698 -1.1278 -1.6431
37787SOL     OW15367   9.758  10.934   4.694  0.5757 -0.1015 -0.4067
37787SOL    HW115368   9.673  10.969   4.668  1.2960  2.2149  0.1471
37787SOL    HW215369   9.822  10.992   4.653  1.8824 -1.0298  0.2371
37788SOL     OW15370   3.183   6.593   4.059  0.1141 -0.1295 -0.4756
37788SOL    HW115371   3.236   6.620   3.984  1.3280  0.6705  0.6283
37788SOL    HW215372   3.219   6.508   4.084  2.1000  1.1184  1.2771
37789SOL     OW15373   3.609   9.972   5.574 -0.1455  0.0882  0.6929
37789SOL    HW115374   3.616  10.058   5.532 -1.0209 -0.1557  0.0128
37789SOL    HW215375   3.616   9.991   5.668  1.2454  0.7105  0.4881
37790SOL     OW15376   4.581   6.378   2.299 -0.5343 -0.2501  0.4935
37790SOL    HW115377   4.571   6.308   2.363  0.0726 -0.6032  0.2174
37790SOL    HW215378   4.538   6.453   2.338 -0.7155 -0.6333  1.0388
37791SOL     OW15379   4.757   7.204   0.394  0.0760  0.7288  0.7441
37791SOL    HW115380   4.753   7.180   0.487  1.9811  0.5273  0.8197
37791SOL    HW215381   4.832   7.263   0.388 -1.3956  2.6027 -0.3122
37792SOL     OW15382   6.310   8.847   8.794 -0.3293 -0.3782  0.3843
37792SOL    HW115383   6.397   8.872   8.825 -0.3159 -1.5233  1.3284
37792SOL    HW215384   6.250   8.904   8.842 -0.1740 -0.4466  0.6578
37793SOL     OW15385   0.570   2.004   4.711 -0.1024  0.8331 -0.2785
37793SOL    HW115386   0.645   1.948   4.729 -1.0939 -0.3073  0.5383
37793SOL    HW215387   0.594   2.089   4.748  0.2133  0.0767  1.3409
37794SOL     OW15388   8.437   0.665   3.781  0.4193 -0.3842  0.2020
37794SOL    HW115389   8.477   0.726   3.842  1.8188 -0.0456 -1.0040
37794SOL    HW215390   8.405   0.719   3.709 -0.5111 -0.8474  0.2499
37795SOL     OW15391   3.881  10.857   6.444  0.1181  0.0308 -0.7943
37795SOL    HW115392   3.879  10.951   6.459 -0.3853 -0.4694  3.2670
37795SOL    HW215393   3.805  10.840   6.387 -0.1338  1.9894 -1.1001
37796SOL     OW15394   7.548   7.426   9.344 -0.5585  0.4229  0.9382
37796SOL    HW115395   7.539   7.386   9.258  1.6562 -1.3619  1.4338
37796SOL    HW215396   7.631   7.474   9.340 -2.0867  3.2976  1.0680
37797SOL     OW15397   2.214   1.337   4.576 -0.7003 -0.5236  0.4110
37797SOL    HW115398   2.218   1.299   4.488 -1.8209  3.6081 -1.6976
37797SOL    HW215399   2.141   1.292   4.618  1.6376 -4.6514  0.5357
37798SOL     OW15400   7.610   2.228   4.640 -0.4721  0.3748  0.0279
37798SOL    HW115401   7.681   2.173   4.607 -0.4064  0.4847 -0.0177
37798SOL    HW215402   7.636   2.251   4.729 -1.1708 -0.8108  0.5518
37799SOL     OW15403   2.265  10.691  10.800 -0.2118  0.1615  0.4698
37799SOL    HW115404   2.173  10.665  10.804 -0.9357  2.4192  0.0628
37799SOL    HW215405   2.310  10.614  10.765 -2.2489 -0.3913 -1.1498
37800SOL     OW15406   4.899  10.320  10.475  0.6277  0.4019 -0.0580
37800SOL    HW115407   4.820  10.368  10.497  1.3885  1.7419 -0.1125
37800SOL    HW215408   4.898  10.243  10.532 -0.6843  0.3999 -0.0527
37801SOL     OW15409   4.993   2.988   4.054  0.9809  0.4473  0.7310
37801SOL    HW115410   4.980   2.953   4.142 -0.3226 -0.1637  0.3182
37801SOL    HW215411   5.022   3.078   4.069  0.9629  0.2933  1.7872
37802SOL     OW15412   6.089   5.734   0.075  0.0063  0.1014  0.0089
37802SOL    HW115413   6.070   5.798   0.007 -2.9751 -0.1987  0.4045
37802SOL    HW215414   6.129   5.785   0.146 -0.6504  1.2122 -0.3889
37803SOL     OW15415   5.648   8.376   0.703 -0.5304  0.2535 -0.1374
37803SOL    HW115416   5.600   8.294   0.691 -2.7854  1.2666  1.1523
37803SOL    HW215417   5.586   8.444   0.676 -1.4409  1.8542  4.9233
37804SOL     OW15418   3.064  10.727  10.369 -0.4490  0.3212 -0.1871
37804SOL    HW115419   3.019  10.699  10.289 -1.9356  2.4819 -0.1901
37804SOL    HW215420   3.151  10.753  10.340  0.9091 -3.6067 -0.2364
37805SOL     OW15421   2.146   3.470   6.719 -0.3942 -0.0305 -0.5895
37805SOL    HW115422   2.144   3.453   6.813 -2.0797 -2.1055 -0.9336
37805SOL    HW215423   2.060   3.509   6.700  1.0737  3.4228 -0.8498
37806SOL     OW15424   5.828   0.497   7.254 -0.3698  0.3492  0.3108
37806SOL    HW115425   5.749   0.446   7.269 -0.9667  1.6622  1.9558
37806SOL    HW215426   5.800   0.569   7.198 -0.2099  0.5137  0.4395
37807SOL     OW15427   8.248   9.170   8.245  0.0082 -0.8527  0.0106
37807SOL    HW115428   8.315   9.149   8.180 -1.0868 -0.4504 -1.3142
37807SOL    HW215429   8.168   9.181   8.193 -0.7295  0.3566  1.3394
37808SOL     OW15430   9.631   1.330   3.750 -0.1426 -0.1036  0.7899
37808SOL    HW115431   9.580   1.253   3.723 -1.1526  1.3314 -1.8330
37808SOL    HW215432   9.661   1.310   3.838 -2.2544 -2.5561  1.0653
37809SOL     OW15433   9.405   9.373   5.533 -0.9048  0.5646  0.1578
37809SOL    HW115434   9.409   9.292   5.482  1.5028  0.3815  0.5121
37809SOL    HW215435   9.442   9.440   5.476  1.4358  0.4400  1.3971
37810SOL     OW15436   9.072   4.440   2.202 -0.2679 -0.2329  0.2178
37810SOL    HW115437   9.018   4.468   2.129  0.1892 -1.0382 -0.4487
37810SOL    HW215438   9.017   4.453   2.280 -1.6536 -1.6272 -0.4947
37811SOL     OW15439  10.367   2.506   6.546  0.0023 -0.3918  0.3086
37811SOL    HW115440  10.410   2.551   6.618  1.4800  0.4724 -1.0295
37811SOL    HW215441  10.428   2.515   6.473 -1.3903 -1.2962 -1.0318
37812SOL     OW15442  10.018   5.754   3.088 -0.1886 -0.6372 -0.8706
37812SOL    HW115443   9.980   5.774   3.002  0.1037 -0.9748 -1.0816
37812SOL    HW215444  10.102   5.713   3.068 -0.0512 -0.5813 -0.4186
37813SOL     OW15445   5.517   2.459   6.290 -0.5555  0.1169  0.0565
37813SOL    HW115446   5.497   2.529   6.227  0.2371 -0.2390 -0.6038
37813SOL    HW215447   5.575   2.400   6.242  0.7792  0.2818  1.4005
37814SOL     OW15448   1.258   8.495   3.400 -0.2615 -0.0157  0.6729
37814SOL    HW115449   1.333   8.490   3.459  1.0085 -0.5944 -0.9021
37814SOL    HW215450   1.252   8.407   3.362 -2.2804 -0.2216  1.3864
37815SOL     OW15451   0.845   2.576   7.810  0.3559  0.2784 -0.4748
37815SOL    HW115452   0.899   2.576   7.731  0.1666 -0.0591 -0.6057
37815SOL    HW215453   0.886   2.642   7.867  1.0674 -0.1656 -0.4632
37816SOL     OW15454   4.537   4.532   9.915 -0.0287  0.1291  0.6792
37816SOL    HW115455   4.614   4.532   9.857 -0.7372  1.2470 -0.3017
37816SOL    HW215456   4.552   4.605   9.975 -0.6123  0.7582  0.0709
37817SOL     OW15457   4.099  11.011   2.728  0.1740  0.1527 -0.7111
37817SOL    HW115458   4.016  11.050   2.758 -1.0591 -1.0051 -2.3922
37817SOL    HW215459   4.096  11.020   2.633  1.1439 -1.5288 -0.9267
37818SOL     OW15460   6.124  10.654   2.823  0.0759  0.5080 -0.4730
37818SOL    HW115461   6.180  10.723   2.859  1.9700 -0.2993 -1.7012
37818SOL    HW215462   6.104  10.684   2.734 -1.8740  0.9717  0.0608
37819SOL     OW15463   7.903   2.837   1.846  0.0506 -0.1530 -1.1280
37819SOL    HW115464   7.944   2.881   1.771 -0.7043  1.7300 -0.5145
37819SOL    HW215465   7.812   2.823   1.818 -0.2353  0.5679 -0.5832
37820SOL     OW15466   3.843   4.477   7.592  0.1282 -0.6051  0.2959
37820SOL    HW115467   3.804   4.391   7.574 -3.4059  0.9889 -0.4235
37820SOL    HW215468   3.858   4.515   7.505  1.6596 -0.4272  0.6110
37821SOL     OW15469   5.579   0.100   2.122  0.2300  0.0943  0.5373
37821SOL    HW115470   5.559   0.021   2.072  0.1856 -0.6322  1.6793
37821SOL    HW215471   5.667   0.085   2.156  0.2303  0.5512  0.7440
37822SOL     OW15472   4.586  10.848   9.005  0.2331 -0.5016  0.4929
37822SOL    HW115473   4.587  10.817   9.096  0.3303 -0.4418  0.5125
37822SOL    HW215474   4.493  10.858   8.985  0.0801  4.0493  2.1759
37823SOL     OW15475   6.004   1.277   4.451  0.2318 -0.0945 -0.1463
37823SOL    HW115476   6.082   1.278   4.395 -0.3309 -0.9916 -0.9878
37823SOL    HW215477   5.993   1.185   4.475 -0.3784  0.0770  0.2391
37824SOL     OW15478   4.818   8.858   6.777  0.0376  0.4836  0.3692
37824SOL    HW115479   4.809   8.951   6.798  1.1750  0.5796  0.4567
37824SOL    HW215480   4.876   8.855   6.702 -0.4185 -0.1372  0.0294
37825SOL     OW15481   6.410   8.348   0.464 -0.2262 -0.0537  0.1598
37825SOL    HW115482   6.496   8.313   0.439  0.1636 -0.9130  2.4285
37825SOL    HW215483   6.430   8.413   0.532 -1.3290  0.3607  0.1087
37826SOL     OW15484   5.407   1.016   8.568 -0.1624  0.2587 -0.0078
37826SOL    HW115485   5.442   0.984   8.485 -0.3112  0.3900 -0.1210
37826SOL    HW215486   5.470   1.083   8.596  1.0135 -1.1939  1.0133
37827SOL     OW15487   1.656   8.683   2.095  0.6979 -0.2647  0.3362
37827SOL    HW115488   1.655   8.703   2.189  0.8076  0.2429  0.2365
37827SOL    HW215489   1.688   8.593   2.090  2.1351  0.1922  0.7225
37828SOL     OW15490   4.928   4.709   1.052 -0.3267  0.2837 -0.9492
37828SOL    HW115491   4.833   4.705   1.036 -0.3744  1.6213 -1.1356
37828SOL    HW215492   4.955   4.618   1.061 -2.0733 -0.0871  1.8150
37829SOL     OW15493   2.741   3.048   7.603  0.0483  0.6284 -0.2268
37829SOL    HW115494   2.827   3.015   7.631  0.3874  1.1177 -0.6626
37829SOL    HW215495   2.685   3.036   7.679  0.5100  0.3137  0.0716
37830SOL     OW15496   1.163   9.590   7.457  0.7507 -0.2064  0.2330
37830SOL    HW115497   1.201   9.677   7.462  1.1390 -0.3631 -0.0050
37830SOL    HW215498   1.237   9.532   7.442  0.4131 -0.5026 -0.3137
37831SOL     OW15499   1.973   4.264   3.836 -0.3076 -0.0802  0.1109
37831SOL    HW115500   1.939   4.328   3.773 -2.1463 -0.8969  0.1880
37831SOL    HW215501   1.985   4.184   3.785  1.7396  0.2153  0.0669
37832SOL     OW15502   5.582   6.961   5.823 -0.3613  0.2823  0.1382
37832SOL    HW115503   5.616   6.956   5.913  2.2443  0.7591 -0.7447
37832SOL    HW215504   5.656   6.935   5.768 -1.5887  0.9621 -1.9391
37833SOL     OW15505   9.758   3.277   5.067  0.3057 -0.0650 -0.1504
37833SOL    HW115506   9.835   3.221   5.059  0.9669  0.8068 -0.0575
37833SOL    HW215507   9.744   3.286   5.161 -1.0950 -1.7737 -0.1465
37834SOL     OW15508   9.359   2.420   6.327 -0.5775 -0.2279  0.0877
37834SOL    HW115509   9.366   2.515   6.320 -0.9568  0.0172  2.3507
37834SOL    HW215510   9.450   2.389   6.324 -0.4977  0.0851 -1.5754
37835SOL     OW15511   2.379   3.053   8.574 -0.6670  0.1298  0.3593
37835SOL    HW115512   2.459   3.029   8.527 -0.6768  1.4174 -0.3635
37835SOL    HW215513   2.385   3.147   8.586 -1.2018 -0.0170  2.0077
37836SOL     OW15514   0.929  11.059   1.539  0.0488 -0.6314 -0.2672
37836SOL    HW115515   0.885  11.063   1.624 -0.7304  2.0789 -0.6865
37836SOL    HW215516   0.956  11.150   1.522  2.9275 -1.6147 -1.5575
37837SOL     OW15517   5.992   2.554   6.268 -0.6723  0.0202  0.1375
37837SOL    HW115518   5.959   2.520   6.351 -1.3007 -0.9499 -0.4950
37837SOL    HW215519   6.012   2.646   6.286 -1.7199  0.0751  1.1112
37838SOL     OW15520   4.441   9.984  10.130  0.4706  0.1924  0.0677
37838SOL    HW115521   4.403   9.980  10.042  0.9606  0.4298 -0.1588
37838SOL    HW215522   4.367  10.008  10.186  0.4722  1.6877 -0.5149
37839SOL     OW15523   3.473  10.169   8.727 -0.2659 -0.2306  0.0723
37839SOL    HW115524   3.468  10.223   8.649 -1.1850 -0.5677 -0.1231
37839SOL    HW215525   3.387  10.178   8.768  0.5006  0.7079  1.5839
37840SOL     OW15526   8.218   4.788   8.591  0.2629 -0.0730 -0.2828
37840SOL    HW115527   8.226   4.883   8.602  0.0189 -0.0194 -0.5781
37840SOL    HW215528   8.130   4.775   8.557  0.3509 -0.3964 -0.3876
37841SOL     OW15529   8.106   6.376   0.869 -0.4853 -0.2767  0.1671
37841SOL    HW115530   8.095   6.356   0.962  1.1041  2.7556  1.1446
37841SOL    HW215531   8.182   6.324   0.842  0.8076  0.9050  1.3928
37842SOL     OW15532   8.822   6.027   4.041  0.1358 -0.2121  0.4828
37842SOL    HW115533   8.879   5.966   3.993  0.3711 -0.5135  1.1357
37842SOL    HW215534   8.746   5.974   4.066 -0.2148  0.0693  0.0278
37843SOL     OW15535   8.929   4.655  10.751  0.2894 -0.5173 -0.9630
37843SOL    HW115536   9.005   4.687  10.702 -0.1377  1.5160 -0.4057
37843SOL    HW215537   8.966   4.619  10.832  0.7394 -0.7773 -1.2759
37844SOL     OW15538   2.961   2.996   2.576 -0.1330  0.1525  0.3264
37844SOL    HW115539   2.871   3.027   2.580 -0.3368 -0.4303  0.4456
37844SOL    HW215540   2.958   2.909   2.618  0.3008 -0.2792 -0.5185
37845SOL     OW15541   6.797   2.489   6.114 -0.2890 -0.3472 -0.2632
37845SOL    HW115542   6.799   2.542   6.033 -0.3282  0.6470  0.3633
37845SOL    HW215543   6.712   2.446   6.112 -1.6258  2.0142  0.6431
37846SOL     OW15544   6.827   0.311   7.983 -0.4886  0.1203  0.6555
37846SOL    HW115545   6.909   0.350   8.012  0.1180  1.0281 -1.9666
37846SOL    HW215546   6.801   0.251   8.053  2.2897 -0.0113  1.6537
37847SOL     OW15547   0.675   4.117  11.032  0.6543  0.3047 -0.4729
37847SOL    HW115548   0.732   4.193  11.037 -0.9221  1.5425 -0.6500
37847SOL    HW215549   0.686   4.072  11.116  0.7994  1.3314  0.0647
37848SOL     OW15550   5.643   3.365   2.674 -0.7295  0.1375  0.0320
37848SOL    HW115551   5.626   3.453   2.641 -1.3594  0.0806  0.2015
37848SOL    HW215552   5.578   3.310   2.630  1.0256 -0.6380 -1.7844
37849SOL     OW15553   6.902   0.943   0.308  0.0434 -0.5196  0.2108
37849SOL    HW115554   6.907   0.925   0.402  1.2880 -0.2677  0.2167
37849SOL    HW215555   6.837   0.881   0.275  0.1649 -1.1493  1.1156
37850SOL     OW15556   2.160   5.928   0.548  0.4861  0.0046 -0.0723
37850SOL    HW115557   2.171   6.018   0.578 -0.2238 -0.1869  0.8070
37850SOL    HW215558   2.221   5.877   0.601  0.1758 -0.1543  0.1412
37851SOL     OW15559   0.425   0.704  10.993  0.4959 -0.3385  0.4808
37851SOL    HW115560   0.365   0.730  10.923 -0.6243 -0.9011  1.2085
37851SOL    HW215561   0.439   0.785  11.044  1.1359  0.0174 -0.2392
37852SOL     OW15562   2.902   7.347   2.853  0.3240 -0.0832  0.2068
37852SOL    HW115563   2.943   7.348   2.940  1.9337  0.5346 -0.5059
37852SOL    HW215564   2.846   7.424   2.852 -0.2083 -0.4539  0.9172
37853SOL     OW15565  10.149   6.936   5.716 -0.0564  0.8540 -0.1881
37853SOL    HW115566  10.175   6.905   5.629 -0.3604  0.2994 -0.0886
37853SOL    HW215567  10.055   6.953   5.707 -0.3301 -0.2880  0.3268
37854SOL     OW15568   3.588   2.337   4.764  0.4725  0.9239  0.3155
37854SOL    HW115569   3.643   2.396   4.712  1.0059  0.7335  0.6586
37854SOL    HW215570   3.499   2.359   4.738  0.6676  1.8515  0.4015
37855SOL     OW15571   9.552   9.600   6.571  0.6367  0.2605  0.0596
37855SOL    HW115572   9.525   9.510   6.587  0.4704  0.4969  1.1846
37855SOL    HW215573   9.505   9.651   6.637 -0.0020  1.2973 -1.1540
37856SOL     OW15574   0.231   2.540   5.814  1.0887 -0.4728 -0.3208
37856SOL    HW115575   0.288   2.593   5.870  1.2946 -0.5013 -0.5023
37856SOL    HW215576   0.290   2.503   5.748  0.7186  0.1970 -1.0394
37857SOL     OW15577   2.898   1.564   7.242  0.2999  0.1009 -1.1773
37857SOL    HW115578   2.806   1.566   7.214  0.2553 -0.5629 -1.0784
37857SOL    HW215579   2.916   1.472   7.260  1.2051  0.1182 -1.9088
37858SOL     OW15580   0.719   4.705   8.975  0.2969 -0.1641  0.9624
37858SOL    HW115581   0.781   4.751   9.032  1.2134  0.1055 -0.2070
37858SOL    HW215582   0.764   4.701   8.891 -0.3533 -1.9885  0.6742
37859SOL     OW15583   6.799   3.031   1.315 -0.2255 -0.0716  0.3114
37859SOL    HW115584   6.712   3.058   1.343 -0.4066 -0.2931 -0.0243
37859SOL    HW215585   6.858   3.064   1.383 -0.7307 -1.3867  1.4483
37860SOL     OW15586   6.150   4.319   1.463  0.0182 -0.1790  0.4692
37860SOL    HW115587   6.098   4.399   1.461 -0.8666 -0.7131  1.2129
37860SOL    HW215588   6.099   4.259   1.518  1.8772 -0.4164  2.0509
37861SOL     OW15589   2.881   9.707   3.850  0.4405 -0.3946 -0.0318
37861SOL    HW115590   2.962   9.743   3.887  1.4404 -1.6460 -0.9355
37861SOL    HW215591   2.900   9.693   3.758 -1.8054  2.0598 -0.9981
37862SOL     OW15592   0.259   5.163   7.529 -0.1633 -0.7119  0.1135
37862SOL    HW115593   0.257   5.239   7.588  0.0153 -2.2530  2.1973
37862SOL    HW215594   0.222   5.196   7.447  0.5014  1.7838  0.7260
37863SOL     OW15595   9.612   8.429   1.958  0.1627  0.3387  0.3510
37863SOL    HW115596   9.638   8.417   1.867 -0.0757  1.2934  0.1440
37863SOL    HW215597   9.589   8.341   1.988 -0.6327  0.1347 -0.7785
37864SOL     OW15598   1.507   5.402   9.138 -0.1832  0.2991  0.1109
37864SOL    HW115599   1.443   5.420   9.069 -0.1365 -1.2482 -0.3918
37864SOL    HW215600   1.590   5.435   9.103 -0.0482 -0.9917 -0.8745
37865SOL     OW15601   9.394   6.450   2.645 -0.0603 -0.2009  0.0826
37865SOL    HW115602   9.346   6.389   2.701  0.2456 -1.7667 -1.2897
37865SOL    HW215603   9.334   6.470   2.574  0.8600 -1.3408 -1.0827
37866SOL     OW15604   7.387   3.524  10.116  0.2867  0.2196 -0.0062
37866SOL    HW115605   7.418   3.434  10.110  2.5368  1.0198 -2.3487
37866SOL    HW215606   7.292   3.517  10.115  0.4084 -2.1242 -0.4837
37867SOL     OW15607   6.700   3.741   0.671 -0.1692  0.1857 -0.4125
37867SOL    HW115608   6.673   3.778   0.587  0.2216 -0.2121 -0.7171
37867SOL    HW215609   6.623   3.694   0.702 -0.3010  0.2976 -0.5679
37868SOL     OW15610   6.448   5.117   1.961 -0.4853  0.1224  0.1345
37868SOL    HW115611   6.407   5.198   1.930  0.4181  0.8129  0.7043
37868SOL    HW215612   6.514   5.096   1.895  1.5081  1.6478  1.5156
37869SOL     OW15613   8.488   5.526  10.106 -0.0559  0.3776  0.2563
37869SOL    HW115614   8.468   5.511  10.014 -0.4359  1.7343  0.0997
37869SOL    HW215615   8.407   5.506  10.152  0.8756 -3.1056  0.6896
37870SOL     OW15616   0.819   6.618   1.993  0.4343  0.1038 -0.2334
37870SOL    HW115617   0.850   6.707   1.978  3.5111 -0.9007 -0.4927
37870SOL    HW215618   0.777   6.592   1.911  0.0438  1.0941 -0.3521
37871SOL     OW15619   0.252   0.839   3.826  0.1835  0.2955 -0.7334
37871SOL    HW115620   0.165   0.846   3.865 -0.4696  2.6309 -2.3308
37871SOL    HW215621   0.301   0.912   3.865  2.1942 -2.1446  1.6522
37872SOL     OW15622   3.857   9.974  10.214  0.3283 -0.3008  0.3980
37872SOL    HW115623   3.773   9.947  10.251  0.4069 -0.0624  0.7497
37872SOL    HW215624   3.894   9.894  10.178  0.4136 -0.6042  1.1432
37873SOL     OW15625   9.152   2.548   9.357 -0.2766  0.3658  0.0655
37873SOL    HW115626   9.126   2.530   9.447 -2.5374  2.9835  0.0346
37873SOL    HW215627   9.152   2.462   9.315  2.6906 -1.2281  2.8701
37874SOL     OW15628   3.189   5.652   0.808  0.7659 -0.2479 -0.3286
37874SOL    HW115629   3.177   5.739   0.846  1.1927 -0.2145 -0.2726
37874SOL    HW215630   3.103   5.611   0.817  0.5212  0.2196 -0.4901
37875SOL     OW15631   5.785   9.294   2.136  0.2530  0.2613  0.1960
37875SOL    HW115632   5.720   9.274   2.069  0.1401  0.8248  0.1333
37875SOL    HW215633   5.863   9.322   2.087 -0.6900  3.4023  0.2693
37876SOL     OW15634   6.859   9.594   3.475 -0.4578 -0.5964 -0.3284
37876SOL    HW115635   6.801   9.657   3.433  0.0631 -1.0068 -1.7092
37876SOL    HW215636   6.801   9.529   3.514 -0.9337 -1.1095 -1.8619
37877SOL     OW15637   2.548   1.877   3.839  0.8009 -0.3774  0.0627
37877SOL    HW115638   2.549   1.815   3.766  1.0248 -0.3340  0.0287
37877SOL    HW215639   2.592   1.955   3.805 -1.7295  0.8038 -0.7760
37878SOL     OW15640   1.131   6.662   5.977 -0.1139 -0.0050 -0.0714
37878SOL    HW115641   1.165   6.734   5.923 -1.3107  1.1549  0.6515
37878SOL    HW215642   1.106   6.703   6.060 -2.5325 -0.8544 -0.2716
37879SOL     OW15643   8.930  10.167   2.108 -0.2463 -0.3573 -0.4362
37879SOL    HW115644   8.841  10.170   2.143 -0.7395  3.5818 -1.5405
37879SOL    HW215645   8.928  10.224   2.031  2.7884 -1.7932 -1.7498
37880SOL     OW15646   8.772   8.881   5.738  0.4019  0.2565 -0.5329
37880SOL    HW115647   8.722   8.830   5.801  0.4457  0.2092 -0.5360
37880SOL    HW215648   8.804   8.816   5.675 -0.1215  0.3685 -0.9312
37881SOL     OW15649   3.201   3.022   0.843  0.5190 -0.2067  0.5053
37881SOL    HW115650   3.156   3.092   0.890  3.4688  0.1014  3.1811
37881SOL    HW215651   3.160   2.941   0.875 -0.5547  0.1372  0.0500
37882SOL     OW15652   4.592   8.880   9.540 -0.2377 -0.1080  0.2601
37882SOL    HW115653   4.525   8.875   9.472 -1.2308  0.6286  1.1467
37882SOL    HW215654   4.543   8.892   9.621  0.6732 -4.4396  1.7011
37883SOL     OW15655   5.553   4.937   8.633  0.2310 -0.5337  0.0461
37883SOL    HW115656   5.505   5.019   8.646 -1.0680 -1.2367 -0.0607
37883SOL    HW215657   5.606   4.951   8.555  1.0378  0.6370  0.7879
37884SOL     OW15658   0.655   7.501   8.618  0.3340 -0.2939 -0.2195
37884SOL    HW115659   0.561   7.507   8.633  0.8424  0.3890  3.6581
37884SOL    HW215660   0.673   7.571   8.555 -1.6927 -0.3614 -0.9643
37885SOL     OW15661   1.100   0.126   7.852  0.7003  0.2171  0.3224
37885SOL    HW115662   1.121   0.217   7.871 -2.3067  1.1465 -0.3689
37885SOL    HW215663   1.181   0.079   7.870  1.9028  2.7886  2.2203
37886SOL     OW15664   9.724   5.374   5.058 -0.2222 -0.1207  0.2266
37886SOL    HW115665   9.787   5.444   5.046  1.0007 -1.2010  0.1774
37886SOL    HW215666   9.776   5.299   5.088 -1.4112 -1.1526 -0.1894
37887SOL     OW15667   9.062   9.606   5.370  0.1988 -0.5542 -0.0258
37887SOL    HW115668   9.077   9.699   5.356  0.6490 -0.6651 -0.2757
37887SOL    HW215669   8.984   9.603   5.427 -0.2911 -0.0506 -0.6570
37888SOL     OW15670   8.544   9.664   8.962  0.0192 -0.2015 -0.2765
37888SOL    HW115671   8.581   9.671   8.874 -0.1470  0.1394 -0.3235
37888SOL    HW215672   8.455   9.634   8.949 -0.6204  1.5957 -0.3735
37889SOL     OW15673   6.838   5.416   0.898 -0.5256  0.0309  0.2945
37889SOL    HW115674   6.914   5.395   0.952 -0.8055 -1.9794 -0.0163
37889SOL    HW215675   6.857   5.378   0.813 -1.7209 -0.2037  0.1074
37890SOL     OW15676   8.020   7.529   0.341 -0.4594 -0.4082  0.9755
37890SOL    HW115677   8.083   7.499   0.406 -0.7241 -2.3623  0.3800
37890SOL    HW215678   8.061   7.607   0.303  0.9611 -0.8556  1.5318
37891SOL     OW15679   6.033   4.043   0.235 -0.3075  0.0963 -0.2069
37891SOL    HW115680   5.963   4.093   0.277 -0.2481  0.6063 -0.7071
37891SOL    HW215681   5.988   3.988   0.171 -0.3755 -0.5222  0.3609
37892SOL     OW15682   2.594   8.327   3.065 -0.4159  0.4782 -0.3545
37892SOL    HW115683   2.633   8.410   3.038  0.9113 -0.3184 -1.0044
37892SOL    HW215684   2.561   8.288   2.984  0.8481 -0.5409 -0.4227
37893SOL     OW15685   9.940   3.899   6.604 -0.2843  0.4726 -0.1235
37893SOL    HW115686   9.889   3.818   6.596  0.9787 -0.3667  0.0102
37893SOL    HW215687   9.908   3.939   6.685 -1.6713  0.6667 -0.7518
37894SOL     OW15688   3.828   5.416   1.162 -0.2660  0.4180 -0.1398
37894SOL    HW115689   3.885   5.374   1.227  1.0025  1.0851 -0.7770
37894SOL    HW215690   3.751   5.443   1.211  0.6233  0.8182  1.0781
37895SOL     OW15691  10.444   5.414   2.155 -0.2573  0.8295  0.0655
37895SOL    HW115692  10.470   5.371   2.073 -0.7204  1.0570 -0.2065
37895SOL    HW215693  10.451   5.345   2.221  1.0373  0.8889  0.0159
37896SOL     OW15694   8.660   1.748   6.484  0.3867  0.1024 -0.1348
37896SOL    HW115695   8.747   1.715   6.508  0.6285  1.7840  1.5754
37896SOL    HW215696   8.619   1.769   6.568 -1.1513  0.5693 -0.9795
37897SOL     OW15697   8.009   5.340   7.606  0.5651 -0.0558 -0.2930
37897SOL    HW115698   7.949   5.413   7.590  1.3579  0.3316 -1.6828
37897SOL    HW215699   7.964   5.286   7.671 -1.1013  0.4445 -0.9626
37898SOL     OW15700   1.862   7.494   3.525 -0.0155  0.1583  0.2763
37898SOL    HW115701   1.904   7.519   3.607 -1.6424  2.4122  0.5283
37898SOL    HW215702   1.923   7.432   3.485  1.1549 -0.4731  2.8310
37899SOL     OW15703  10.381   8.863   4.471  0.2247  0.3143 -0.5056
37899SOL    HW115704  10.288   8.889   4.469  0.9391  3.4141  0.4952
37899SOL    HW215705  10.390   8.803   4.397 -2.7756 -1.0310  0.0315
37900SOL     OW15706   7.345   2.894   1.655 -0.7059  0.4916 -0.4660
37900SOL    HW115707   7.293   2.883   1.575  3.4529  1.0156 -3.5700
37900SOL    HW215708   7.373   2.985   1.652  2.1973 -0.3077 -0.3162
37901SOL     OW15709   8.298   8.850   0.251  0.5982  0.4057  0.1038
37901SOL    HW115710   8.212   8.855   0.293  1.0693  1.3089  1.0145
37901SOL    HW215711   8.283   8.800   0.171 -0.6990  0.2378  0.4265
37902SOL     OW15712  10.132   0.988   2.232 -0.1505  0.1877 -0.6797
37902SOL    HW115713  10.089   1.055   2.179 -1.5525 -0.9465 -1.0246
37902SOL    HW215714  10.131   0.909   2.177 -0.7943 -0.7693  0.6527
37903SOL     OW15715   7.554   5.856   9.316 -0.4717 -0.3771  0.1755
37903SOL    HW115716   7.631   5.798   9.321 -0.4582 -0.3028  0.9461
37903SOL    HW215717   7.487   5.803   9.272 -0.4741 -1.0061  0.9154
37904SOL     OW15718   8.017   3.174   1.538 -0.0654 -0.3707  0.3132
37904SOL    HW115719   8.078   3.101   1.551 -1.5098 -1.8540 -0.8960
37904SOL    HW215720   7.997   3.173   1.445 -1.2447  0.6357  0.5268
37905SOL     OW15721   8.163   0.867   7.406  0.2051 -0.1059  0.5030
37905SOL    HW115722   8.084   0.814   7.397  0.6453 -0.7526  0.3816
37905SOL    HW215723   8.214   0.848   7.327  0.7742 -0.2007  0.8883
37906SOL     OW15724   1.878   1.482   6.853  0.2905  0.4233  0.1164
37906SOL    HW115725   1.842   1.483   6.941 -0.7489  1.5548 -0.2956
37906SOL    HW215726   1.958   1.534   6.858  1.8802 -1.9290  0.9901
37907SOL     OW15727   1.300   6.132   4.734 -0.3299 -0.4582  0.7679
37907SOL    HW115728   1.266   6.184   4.807 -0.8506  0.6322 -0.2104
37907SOL    HW215729   1.222   6.096   4.692  0.0042 -1.6782  1.1418
37908SOL     OW15730   8.435  10.961   2.470  0.0761  0.3758  0.2702
37908SOL    HW115731   8.423  10.867   2.461  3.9970 -0.4312  1.6350
37908SOL    HW215732   8.412  10.980   2.561  3.1550 -0.1892  1.2771
37909SOL     OW15733   6.645   2.139   5.861 -0.3221  0.1420 -0.1769
37909SOL    HW115734   6.677   2.226   5.837  1.1185 -0.2691  0.1081
37909SOL    HW215735   6.706   2.079   5.818  0.2727 -0.6624  1.6486
37910SOL     OW15736   2.902   1.477   6.780 -0.3848 -0.0557 -0.3092
37910SOL    HW115737   2.967   1.452   6.846 -0.9403  0.0715  0.3019
37910SOL    HW215738   2.824   1.425   6.802 -1.0956  1.1435  0.1220
37911SOL     OW15739   8.009   7.205   0.691 -0.1349 -0.1447  0.1299
37911SOL    HW115740   8.054   7.165   0.617 -2.5637 -0.9273 -1.0202
37911SOL    HW215741   7.992   7.133   0.751 -1.7835 -0.3210 -0.5045
37912SOL     OW15742  10.303  10.724  10.984  0.2762  0.3266 -0.2304
37912SOL    HW115743  10.276  10.639  10.950 -1.7277 -0.4486  2.8522
37912SOL    HW215744  10.398  10.715  10.998  0.3609 -0.8137 -1.3271
37913SOL     OW15745   0.199  11.093   1.828  0.1863  0.1846 -1.1923
37913SOL    HW115746   0.265  11.053   1.884 -0.1877  0.0536 -0.8415
37913SOL    HW215747   0.243  11.103   1.743  0.4085 -0.6217 -1.1809
37914SOL     OW15748   2.454   4.354   6.822 -0.2751 -0.2974  0.1052
37914SOL    HW115749   2.492   4.267   6.810 -1.9096 -1.1589  0.8092
37914SOL    HW215750   2.428   4.382   6.734 -0.5615 -0.9185 -0.0082
37915SOL     OW15751   2.879   0.004  10.165  0.7545 -0.7683  1.1500
37915SOL    HW115752   2.866  -0.082  10.125 -0.9111 -0.4339  0.9142
37915SOL    HW215753   2.793   0.029  10.199  0.7339  1.5874 -0.3945
37916SOL     OW15754   0.734   8.029   5.855 -0.4243  0.1614 -0.2256
37916SOL    HW115755   0.753   7.941   5.889  0.6276  1.5062  3.0348
37916SOL    HW215756   0.820   8.063   5.830 -0.7677  0.4326 -1.0400
37917SOL     OW15757   4.098   7.681  10.330  0.4374  0.3205  0.3083
37917SOL    HW115758   4.097   7.693  10.425 -3.2311 -2.4038  0.8299
37917SOL    HW215759   4.012   7.713  10.301 -0.1150 -2.4422 -1.4290
37918SOL     OW15760   7.374   2.822   5.137  0.3077 -0.3839 -0.0324
37918SOL    HW115761   7.326   2.883   5.081  1.3612  0.5935  0.0779
37918SOL    HW215762   7.353   2.736   5.102 -0.8233  0.0639 -0.5198
37919SOL     OW15763   8.708   5.645  10.444  0.2885 -0.5524  0.4311
37919SOL    HW115764   8.767   5.656  10.370 -2.2966 -2.7373 -2.2193
37919SOL    HW215765   8.755   5.588  10.504  1.3785 -1.2773 -1.0417
37920SOL     OW15766   3.901   2.128   9.361  0.6515 -1.0016  0.2700
37920SOL    HW115767   3.944   2.126   9.447 -0.2477  1.6842  0.8491
37920SOL    HW215768   3.950   2.064   9.309  1.2851 -2.6332  2.7104
37921SOL     OW15769   2.037   4.052   3.680  0.5493  0.5294  0.3757
37921SOL    HW115770   2.094   4.089   3.613 -0.6644  1.5472 -0.1283
37921SOL    HW215771   2.020   3.963   3.649 -3.0265  2.0324 -2.8740
37922SOL     OW15772   7.474   8.629   6.521 -0.4370 -0.1028 -0.2591
37922SOL    HW115773   7.453   8.595   6.608  0.5445 -0.4917 -0.1605
37922SOL    HW215774   7.473   8.552   6.465  0.3508 -0.0854 -0.3116
37923SOL     OW15775   2.731   6.980   4.883  0.4268 -0.0196 -0.5817
37923SOL    HW115776   2.684   6.949   4.806 -0.1772  0.4728 -0.4075
37923SOL    HW215777   2.770   6.900   4.920  0.6528 -0.2708 -1.3369
37924SOL     OW15778   4.433   0.706   8.322  0.3887 -0.9020 -0.3254
37924SOL    HW115779   4.525   0.680   8.331  0.1806 -1.4121  0.3639
37924SOL    HW215780   4.385   0.624   8.327 -0.1032 -0.6483 -0.8057
37925SOL     OW15781   3.118   2.271   9.165  0.5279 -0.4342 -0.1951
37925SOL    HW115782   3.199   2.235   9.128 -0.2266 -2.2133 -0.2159
37925SOL    HW215783   3.118   2.242   9.256  2.1866  3.6147  1.3100
37926SOL     OW15784   2.882   1.192   3.276  0.1730 -0.2571  0.6189
37926SOL    HW115785   2.814   1.125   3.272 -1.1215  1.0429 -0.1122
37926SOL    HW215786   2.963   1.143   3.292 -0.8302 -1.9010  0.9168
37927SOL     OW15787   4.682   3.005   9.383  0.1505  0.5128 -0.0514
37927SOL    HW115788   4.620   2.989   9.454 -0.5349  2.6420 -0.1038
37927SOL    HW215789   4.768   3.005   9.426 -0.0963  0.1051  0.4635
37928SOL     OW15790   0.497  10.724   9.719 -0.1202 -0.0749  0.2680
37928SOL    HW115791   0.477  10.667   9.794 -0.2267 -0.3410  0.0397
37928SOL    HW215792   0.457  10.679   9.644  2.3234 -1.2709 -0.4277
37929SOL     OW15793  10.407   6.050   7.156 -0.2909  0.4551 -0.3946
37929SOL    HW115794  10.345   5.987   7.118  1.3572 -1.7369  0.3776
37929SOL    HW215795  10.430   6.107   7.083 -2.2143  0.5498 -1.0022
37930SOL     OW15796   1.507   8.156   1.253  0.0164 -0.1830  0.4373
37930SOL    HW115797   1.590   8.161   1.205 -0.1056 -0.1524  0.2290
37930SOL    HW215798   1.473   8.246   1.251  0.4008 -0.0065  1.2765
37931SOL     OW15799   1.184   2.598   9.475  0.1805  0.0230  0.1743
37931SOL    HW115800   1.159   2.506   9.468 -2.0862  0.6937 -1.6692
37931SOL    HW215801   1.222   2.606   9.563 -2.8339 -1.9832  1.8272
37932SOL     OW15802   7.758   7.771   5.042 -0.0141 -0.1810 -0.1187
37932SOL    HW115803   7.832   7.732   5.089  1.0449  0.2563 -1.3801
37932SOL    HW215804   7.726   7.701   4.985 -1.1468 -0.6361  1.0235
37933SOL     OW15805   5.691  10.007   2.004  0.1338 -0.0114 -0.3182
37933SOL    HW115806   5.620  10.070   1.990 -0.4828  0.8262  4.7036
37933SOL    HW215807   5.646   9.927   2.032  1.1253 -0.5205 -0.1609
37934SOL     OW15808   0.996   4.438   3.098 -0.5355 -0.6262 -0.2165
37934SOL    HW115809   1.079   4.486   3.092 -1.2608  0.6653 -0.1728
37934SOL    HW215810   1.022   4.351   3.130  0.8215 -0.3234 -0.4078
37935SOL     OW15811   1.035   2.191   4.041  0.2082  0.1281  0.0971
37935SOL    HW115812   1.088   2.223   3.968  0.5861  0.8091  0.6513
37935SOL    HW215813   1.098   2.149   4.100 -0.0467 -0.1345  0.1860
37936SOL     OW15814   2.821   1.924   2.043  0.4647 -0.8988  0.2782
37936SOL    HW115815   2.784   1.986   2.106  0.8892  2.1780 -2.2603
37936SOL    HW215816   2.914   1.920   2.066  0.7309  0.6670 -0.4381
37937SOL     OW15817   1.994   6.984   6.418  0.2278 -0.6576 -0.6196
37937SOL    HW115818   1.997   7.071   6.459  0.1881  0.6942 -3.2942
37937SOL    HW215819   2.010   6.924   6.490 -0.8969  1.4797  1.5603
37938SOL     OW15820   8.664   4.191   5.570 -0.7513 -1.0095  0.6591
37938SOL    HW115821   8.672   4.182   5.665  0.6585 -0.8600  0.5759
37938SOL    HW215822   8.690   4.281   5.552 -1.5706 -0.8603  0.1732
37939SOL     OW15823   9.054   2.806   2.682  0.4115  0.0267  0.0355
37939SOL    HW115824   9.016   2.732   2.730  1.6684 -0.7865 -0.1811
37939SOL    HW215825   9.086   2.865   2.750  1.1770 -0.5852  0.2158
37940SOL     OW15826   0.258   3.300   0.488  0.1443 -0.2013 -0.0844
37940SOL    HW115827   0.245   3.209   0.515  2.9692 -1.2003 -1.6658
37940SOL    HW215828   0.311   3.339   0.557  1.3532 -0.6707 -0.7047
37941SOL     OW15829  10.655   2.269   5.967  0.1981  0.0165  0.5327
37941SOL    HW115830  10.600   2.339   6.002 -2.6158 -1.7461 -0.0185
37941SOL    HW215831  10.617   2.251   5.880  1.8999 -1.0746 -0.0217
37942SOL     OW15832   2.427   7.463   8.594  0.5500 -0.9480  0.2495
37942SOL    HW115833   2.441   7.444   8.501  0.8468 -0.3159  0.1590
37942SOL    HW215834   2.499   7.521   8.618  0.7624 -1.5138  1.0080
37943SOL     OW15835   4.334   4.971   6.802 -0.1227  0.1145 -0.6524
37943SOL    HW115836   4.309   5.004   6.716  1.8055 -1.8687 -2.0804
37943SOL    HW215837   4.414   5.019   6.824 -0.7707  0.8304  0.2044
37944SOL     OW15838   4.569   6.341   4.071 -1.3012  0.1400 -0.0968
37944SOL    HW115839   4.594   6.267   4.016 -0.0068  2.0599 -2.2606
37944SOL    HW215840   4.646   6.357   4.126 -1.3840  0.1708  0.0087
37945SOL     OW15841   4.703   3.552   9.800 -0.3820 -0.5839  0.5921
37945SOL    HW115842   4.617   3.555   9.843 -0.6083 -0.8505  0.1653
37945SOL    HW215843   4.756   3.614   9.849  0.2949 -3.0245  3.2615
37946SOL     OW15844   2.728   8.679   2.363  0.7062 -0.1098 -0.3337
37946SOL    HW115845   2.695   8.677   2.453  1.4834 -2.0305 -0.0530
37946SOL    HW215846   2.714   8.591   2.329 -0.9735  0.9418 -2.6801
37947SOL     OW15847   4.975   0.443   7.019  0.0556 -0.4218  0.0099
37947SOL    HW115848   4.985   0.498   6.942 -1.4748 -0.7073 -0.4125
37947SOL    HW215849   4.895   0.472   7.061  1.2270  0.2269  1.9538
37948SOL     OW15850   4.750   2.894   0.612  0.0367 -0.2544  0.3538
37948SOL    HW115851   4.740   2.837   0.689  1.3181 -0.1431  0.6296
37948SOL    HW215852   4.684   2.863   0.551 -0.4234 -0.9255  1.1612
37949SOL     OW15853   0.894   9.693   9.551  0.0721  0.0988 -0.2665
37949SOL    HW115854   0.867   9.611   9.593  2.7229 -0.8193 -0.1387
37949SOL    HW215855   0.874   9.680   9.459 -1.2822  0.1096  0.0127
37950SOL     OW15856  10.834   2.462   7.367  0.3628 -0.3887 -0.5069
37950SOL    HW115857  10.749   2.427   7.341  0.5465 -0.4140 -1.0970
37950SOL    HW215858  10.896   2.393   7.343  0.5288 -0.4489  0.0953
37951SOL     OW15859   8.150   1.346   2.056 -0.6704  0.2763 -1.0544
37951SOL    HW115860   8.212   1.359   1.985  1.2900 -0.6026  0.3762
37951SOL    HW215861   8.151   1.251   2.071 -0.5162  0.4878  0.5134
37952SOL     OW15862   9.391   9.615  10.201  0.4508 -0.0227 -0.8786
37952SOL    HW115863   9.452   9.601  10.274  0.2917  0.3742 -0.6708
37952SOL    HW215864   9.435   9.679  10.146 -0.2244  1.0478 -0.2028
37953SOL     OW15865   4.162   6.856   7.790  0.3712  0.4685  0.1076
37953SOL    HW115866   4.140   6.791   7.857  2.4542 -0.7420 -0.2949
37953SOL    HW215867   4.078   6.887   7.758 -0.7423 -2.2379  0.1311
37954SOL     OW15868   8.335   8.049   9.078  0.1080 -0.1235 -0.5676
37954SOL    HW115869   8.391   8.059   9.001  1.5185  0.7161  0.5256
37954SOL    HW215870   8.350   8.129   9.130  0.1416 -1.2081  1.1772
37955SOL     OW15871   3.480  10.367   6.667  0.2707  0.5703  0.3743
37955SOL    HW115872   3.488  10.283   6.713  1.9503 -0.3449 -1.3929
37955SOL    HW215873   3.387  10.375   6.647 -0.0777 -0.3085  1.5542
37956SOL     OW15874   3.365   8.364   7.784 -0.3426 -0.3196  0.1290
37956SOL    HW115875   3.356   8.276   7.748 -1.5704 -0.3772  0.5427
37956SOL    HW215876   3.365   8.351   7.879  4.0105 -0.2893  0.3221
37957SOL     OW15877   2.028   7.066   7.168 -0.2486  0.3430  0.4299
37957SOL    HW115878   1.957   7.006   7.189 -1.2524  1.4920  0.4593
37957SOL    HW215879   2.026   7.073   7.073  1.5622 -1.6256  0.1905
37958SOL     OW15880   6.525   4.594   7.657 -1.0318  0.7926  0.0598
37958SOL    HW115881   6.502   4.510   7.696  0.5730  0.2702 -0.0310
37958SOL    HW215882   6.616   4.583   7.630 -1.0739  2.2721 -0.7668
37959SOL     OW15883   6.749   5.717   8.133 -0.1181 -0.2609  0.2433
37959SOL    HW115884   6.682   5.769   8.087  1.7674  0.8940 -1.3608
37959SOL    HW215885   6.787   5.778   8.196 -0.1713 -0.7281  0.7271
37960SOL     OW15886   5.449   3.101   6.830 -0.2997 -0.0760 -0.1841
37960SOL    HW115887   5.419   3.082   6.742 -2.0293 -1.7853  0.7007
37960SOL    HW215888   5.522   3.040   6.845 -0.6352 -0.4607 -0.1075
37961SOL     OW15889   4.719   3.641   2.051 -0.2601  0.1421 -0.3996
37961SOL    HW115890   4.663   3.577   2.006 -0.7309  0.3451 -0.1032
37961SOL    HW215891   4.671   3.724   2.045 -1.6969 -0.3050  2.8117
37962SOL     OW15892   1.973  10.381   7.531 -0.3876  1.1285  0.1950
37962SOL    HW115893   1.939  10.359   7.444  0.2117  0.4466  0.1259
37962SOL    HW215894   1.917  10.333   7.591 -0.1956  0.8195  0.1310
37963SOL     OW15895   3.399   3.512   7.228 -0.0876  1.1120 -0.0551
37963SOL    HW115896   3.447   3.453   7.287  1.8809  1.5407 -1.1506
37963SOL    HW215897   3.312   3.519   7.268 -0.1410 -1.8197  0.5816
37964SOL     OW15898   7.654  10.026   1.556  0.8749  0.0309 -0.5090
37964SOL    HW115899   7.594  10.082   1.606  0.0544 -0.1890 -1.2291
37964SOL    HW215900   7.682   9.959   1.618  0.4209  0.1665 -0.1536
37965SOL     OW15901   2.296   2.061   0.215  0.3915  0.3378  0.7618
37965SOL    HW115902   2.340   1.977   0.207 -0.6869 -0.3153  1.3221
37965SOL    HW215903   2.276   2.069   0.309 -0.4947  0.6881  0.5593
37966SOL     OW15904   3.439   8.554   4.879 -0.1628  0.3468  0.6856
37966SOL    HW115905   3.491   8.628   4.909  0.9395 -0.7654  1.6858
37966SOL    HW215906   3.382   8.533   4.953 -0.5095  0.2381  0.3881
37967SOL     OW15907  10.730   4.957  10.326 -0.1386 -1.0663 -0.0831
37967SOL    HW115908  10.748   5.000  10.410 -1.0893 -0.2625 -0.2654
37967SOL    HW215909  10.768   4.870  10.335 -1.2206 -1.4097  1.6498
37968SOL     OW15910   7.813   8.650   2.468  0.6129  0.2081  0.1499
37968SOL    HW115911   7.837   8.674   2.557  0.9550 -1.4603  0.5540
37968SOL    HW215912   7.896   8.647   2.421  0.6984 -0.8737  0.3243
37969SOL     OW15913   7.090  10.961   2.496 -0.6192  0.3761  0.0586
37969SOL    HW115914   7.145  10.928   2.425 -1.2617  1.7226 -1.1445
37969SOL    HW215915   7.112  11.054   2.502 -1.7099  0.6225  0.5295
37970SOL     OW15916   6.568   5.693   4.335  0.2698  0.1582 -0.0427
37970SOL    HW115917   6.534   5.621   4.283  2.2805 -0.5607 -0.4579
37970SOL    HW215918   6.603   5.755   4.270  0.7848  0.3169  0.3744
37971SOL     OW15919   0.326   6.084   4.644 -0.2453  0.1348 -0.4369
37971SOL    HW115920   0.265   6.035   4.700  0.4331 -2.4620 -1.8015
37971SOL    HW215921   0.411   6.073   4.686 -0.2332  1.1705 -0.1595
37972SOL     OW15922   1.513   5.637   7.615  0.8828 -0.1747 -0.7604
37972SOL    HW115923   1.426   5.664   7.644  0.4358 -0.2187 -2.0038
37972SOL    HW215924   1.514   5.542   7.626  0.0527 -0.4292 -2.4888
37973SOL     OW15925   2.176   2.307   9.002  0.9766 -0.3860  0.0006
37973SOL    HW115926   2.167   2.399   9.024  1.2373 -0.2014 -0.6465
37973SOL    HW215927   2.247   2.304   8.938  1.6091 -1.1481  0.7136
37974SOL     OW15928   6.486  10.447   6.200 -0.5052 -0.0579 -0.7986
37974SOL    HW115929   6.394  10.469   6.213  0.2890  2.5086  1.3849
37974SOL    HW215930   6.497  10.363   6.246 -1.5778  0.0402 -0.3322
37975SOL     OW15931   2.732   7.219   4.568  0.1391  0.0165 -0.6615
37975SOL    HW115932   2.638   7.231   4.580 -0.0692 -0.6254 -1.5506
37975SOL    HW215933   2.740   7.133   4.526  1.0939  0.2273 -0.9305
37976SOL     OW15934   2.304   4.232   5.787 -0.1465 -0.7018  0.3461
37976SOL    HW115935   2.269   4.170   5.850  0.5404 -1.5085 -0.0313
37976SOL    HW215936   2.360   4.179   5.730  0.5389  0.2768  0.0634
37977SOL     OW15937   3.674  10.173   9.752  0.4731  0.0593  0.3160
37977SOL    HW115938   3.595  10.119   9.759  0.9645 -0.9254 -1.2686
37977SOL    HW215939   3.673  10.226   9.832 -0.3116 -1.9308  1.7157
37978SOL     OW15940   8.051   5.590   7.934 -0.1945  0.0623 -0.2387
37978SOL    HW115941   8.067   5.666   7.878 -1.1280  0.0667 -0.5181
37978SOL    HW215942   7.968   5.554   7.902 -0.4771 -0.2380  0.8059
37979SOL     OW15943   4.256   1.003   2.237  0.2170 -0.0459 -0.5803
37979SOL    HW115944   4.186   0.953   2.280  0.5432  0.4900  0.5948
37979SOL    HW215945   4.311   0.937   2.195 -0.7481 -0.5006 -1.1666
37980SOL     OW15946  10.779   4.339   3.957  0.0218 -0.0811  0.6926
37980SOL    HW115947  10.767   4.330   4.052  0.5487 -2.7744  0.5979
37980SOL    HW215948  10.868   4.373   3.947  0.5660 -1.2994  1.1892
37981SOL     OW15949   4.602   6.904   4.814 -0.5047 -0.2285 -0.6720
37981SOL    HW115950   4.634   6.872   4.899 -0.7746 -0.5901 -0.6999
37981SOL    HW215951   4.679   6.941   4.771 -0.4286  0.2344 -0.1455
37982SOL     OW15952   1.564   6.785   4.219  0.9320 -0.3371  0.0185
37982SOL    HW115953   1.616   6.863   4.200  1.6829 -0.5704  0.9972
37982SOL    HW215954   1.496   6.784   4.152  0.3700  1.6429  0.4882
37983SOL     OW15955   9.811   1.115   6.533 -0.1759 -0.1205  0.0356
37983SOL    HW115956   9.899   1.080   6.516 -0.6406 -0.9773 -0.6504
37983SOL    HW215957   9.827   1.195   6.584  0.9661 -0.6558  0.5556
37984SOL     OW15958   2.559   8.352   3.551 -0.3920  0.5666 -0.2384
37984SOL    HW115959   2.579   8.267   3.591 -2.2655  0.4266  0.4794
37984SOL    HW215960   2.543   8.333   3.459 -0.2790  0.2231 -0.1874
37985SOL     OW15961   1.015   9.785   8.787  0.0578  0.3102  0.0679
37985SOL    HW115962   1.058   9.842   8.724  0.4823 -0.4615 -0.3619
37985SOL    HW215963   1.059   9.803   8.870  1.5097 -0.7094 -0.4272
37986SOL     OW15964   6.856   5.193   2.632  0.0192  0.3953  0.1070
37986SOL    HW115965   6.795   5.120   2.637  0.8317 -0.4343 -1.3441
37986SOL    HW215966   6.877   5.201   2.539  2.1891  0.5375  0.5371
37987SOL     OW15967   9.916   0.966   0.255  0.4982  0.2235  0.2869
37987SOL    HW115968   9.828   1.003   0.254  0.4837  0.1883  0.0612
37987SOL    HW215969   9.973   1.039   0.234  0.3176 -0.2308 -2.1102
37988SOL     OW15970   6.777   5.225   9.598 -0.3729 -0.9801 -0.4636
37988SOL    HW115971   6.716   5.295   9.621 -0.0587 -0.2478 -1.7862
37988SOL    HW215972   6.728   5.168   9.538  0.4050 -0.0060 -2.0957
37989SOL     OW15973   7.946  10.158   3.471 -0.0313 -0.1857  0.4524
37989SOL    HW115974   7.975  10.239   3.513  1.3759  0.3654 -1.4329
37989SOL    HW215975   7.892  10.187   3.397  0.7789 -0.9175 -0.4531
37990SOL     OW15976  11.095   3.341   4.785  0.4479 -0.4906 -0.6488
37990SOL    HW115977  11.094   3.267   4.845  0.6811  0.4037  0.4897
37990SOL    HW215978  11.186   3.370   4.784  0.1179  0.6092 -0.0214
37991SOL     OW15979   6.440   6.451   3.979 -0.3627 -0.0435  0.2627
37991SOL    HW115980   6.399   6.377   4.025 -0.9332  0.3101  0.3191
37991SOL    HW215981   6.438   6.523   4.043 -1.1077  0.4324 -0.2845
37992SOL     OW15982   9.967  10.367   1.273 -0.0408  0.4958 -0.0709
37992SOL    HW115983   9.879  10.397   1.247  0.2955  1.2885 -0.3474
37992SOL    HW215984  10.026  10.418   1.217  0.5461 -2.2418 -2.1601
37993SOL     OW15985   9.753   3.387   4.336  0.3248 -0.1133 -0.6515
37993SOL    HW115986   9.694   3.428   4.400 -0.0168 -1.2283 -0.2224
37993SOL    HW215987   9.837   3.381   4.381  0.7109  1.1924 -1.1517
37994SOL     OW15988   3.230   2.524   8.703  0.6651 -0.6629  0.3684
37994SOL    HW115989   3.319   2.539   8.737  1.2546  0.3721 -1.5011
37994SOL    HW215990   3.211   2.601   8.650 -0.8868 -1.4220 -0.2470
37995SOL     OW15991   1.403   4.174   1.828  0.2137 -0.4363 -0.0461
37995SOL    HW115992   1.407   4.243   1.762 -1.8304 -0.6815 -0.4655
37995SOL    HW215993   1.386   4.220   1.910  0.0556 -0.3575 -0.1235
37996SOL     OW15994   5.631  10.011   9.628 -0.4899  0.1002  0.5723
37996SOL    HW115995   5.630  10.096   9.584  1.3228  1.0052  2.1784
37996SOL    HW215996   5.541   9.999   9.659 -1.7050 -0.3094 -2.7107
37997SOL     OW15997   9.789   7.353   9.983 -0.1990 -0.8669 -0.0426
37997SOL    HW115998   9.837   7.422   9.938 -1.4600 -1.2315 -2.0984
37997SOL    HW215999   9.857   7.296  10.019  0.8517  1.0718  1.1913
37998SOL     OW16000   7.394   5.651  10.549  0.4695  0.0925 -0.5611
37998SOL    HW116001   7.317   5.698  10.519  1.2279 -0.1513 -3.0812
37998SOL    HW216002   7.372   5.558  10.542  0.1168 -0.0052  1.2815
37999SOL     OW16003   2.578   5.140   4.583  0.1326 -0.0358 -0.1886
37999SOL    HW116004   2.518   5.121   4.655 -0.0668 -0.7359 -0.5279
37999SOL    HW216005   2.539   5.215   4.538 -1.4152 -1.4870 -1.3984
38000SOL     OW16006   7.896   7.793   8.137  0.3024  0.0562  0.2809
38000SOL    HW116007   7.819   7.834   8.098  1.0666  0.5723 -0.7344
38000SOL    HW216008   7.897   7.705   8.100  0.4404  0.1938 -0.0432
38001SOL     OW16009   1.516   6.700   2.067  0.0555 -0.1007  0.2834
38001SOL    HW116010   1.521   6.642   1.990  0.7542 -0.5218  0.6360
38001SOL    HW216011   1.536   6.643   2.141  1.9819  0.8247  0.5238
38002SOL     OW16012   4.899  10.598   3.348 -0.2749 -1.0323  0.4577
38002SOL    HW116013   4.979  10.561   3.385  0.1291  0.0299  0.6944
38002SOL    HW216014   4.924  10.687   3.322 -1.1048 -1.0512 -0.4461
38003SOL     OW16015   3.006   8.201  10.810  0.6146  0.3513 -0.7453
38003SOL    HW116016   2.952   8.127  10.784  0.7510 -1.1744  2.7664
38003SOL    HW216017   3.060   8.219  10.733 -0.9789 -1.6957 -2.4811
38004SOL     OW16018   7.062   8.053   3.077 -0.4233  0.3902  0.1929
38004SOL    HW116019   7.091   8.137   3.042  0.2492 -0.0293 -0.2883
38004SOL    HW216020   7.023   8.008   3.002  0.1683 -0.1359  0.1927
38005SOL     OW16021   8.443   2.238   4.824 -0.8045 -0.1329  0.6790
38005SOL    HW116022   8.480   2.173   4.764 -1.3989  0.3692 -0.2462
38005SOL    HW216023   8.365   2.270   4.779 -0.1710  1.6937  0.8320
38006SOL     OW16024   7.584   2.937   9.060  0.0822 -0.2861  0.0842
38006SOL    HW116025   7.669   2.969   9.031 -0.0303 -1.5709 -1.8131
38006SOL    HW216026   7.559   2.872   8.995 -1.2314 -1.7626  1.9539
38007SOL     OW16027   4.031   1.097  10.181  0.7221  0.9977  0.3917
38007SOL    HW116028   3.974   1.022  10.164 -0.6884  2.0950  0.0728
38007SOL    HW216029   4.042   1.098  10.276  1.0638  0.1854  0.3700
38008SOL     OW16030   5.156   2.493   0.281 -0.2546  0.8616  0.3997
38008SOL    HW116031   5.233   2.534   0.320 -0.5213  4.4477 -2.3155
38008SOL    HW216032   5.083   2.528   0.332 -0.2721 -1.2747  1.9523
38009SOL     OW16033   0.285   2.995   6.688 -0.2439 -0.0393  0.5266
38009SOL    HW116034   0.274   2.907   6.652  1.8257 -1.2042  2.4864
38009SOL    HW216035   0.256   2.987   6.779  1.3626  0.9001  1.1525
38010SOL     OW16036   2.624   4.387   7.172 -0.2163 -0.1602  0.4335
38010SOL    HW116037   2.692   4.455   7.164  0.9521 -0.9448  2.7477
38010SOL    HW216038   2.549   4.423   7.125  0.9642  1.9057 -0.0163
38011SOL     OW16039   3.144   8.941   8.756 -0.6892  0.5280 -0.1617
38011SOL    HW116040   3.164   8.925   8.664 -0.6226 -0.0212 -0.0525
38011SOL    HW216041   3.221   8.985   8.790 -0.9281  1.2238 -0.4946
38012SOL     OW16042   7.618   7.594   3.889 -0.0727 -0.1852  0.2291
38012SOL    HW116043   7.688   7.608   3.953 -0.3519  0.3474  0.4248
38012SOL    HW216044   7.577   7.680   3.880 -0.1532 -0.2977 -0.5294
38013SOL     OW16045   8.856   7.337   5.884 -0.2813  0.6495  0.1628
38013SOL    HW116046   8.861   7.381   5.799 -1.2906  2.4012  0.9593
38013SOL    HW216047   8.947   7.328   5.912  0.2934 -2.0485 -2.0412
38014SOL     OW16048   6.534   2.659   7.780 -0.2823  0.0193 -0.2732
38014SOL    HW116049   6.537   2.723   7.851  2.9127 -1.5263  1.1730
38014SOL    HW216050   6.624   2.655   7.747 -0.4683 -3.3044 -0.6641
38015SOL     OW16051  10.135   0.829   9.964 -0.5534 -0.3120 -0.0890
38015SOL    HW116052  10.073   0.787   9.905  2.2537  0.6780 -4.2085
38015SOL    HW216053  10.083   0.895  10.011 -2.8581 -0.4017 -2.2963
38016SOL     OW16054   2.440   5.525  10.085  0.2595  0.0684 -0.5079
38016SOL    HW116055   2.442   5.452  10.022 -3.1047 -2.5707  2.0600
38016SOL    HW216056   2.350   5.558  10.080 -0.4491 -0.8645  3.3506
38017SOL     OW16057   8.782   9.893   0.032 -0.6127  0.0151  0.3577
38017SOL    HW116058   8.797   9.873  -0.060 -0.5199 -0.6698  0.5096
38017SOL    HW216059   8.862   9.936   0.061 -0.7286  0.4224  0.0660
38018SOL     OW16060   7.872   5.958   5.890 -0.3789  0.9371  0.3889
38018SOL    HW116061   7.893   5.875   5.848 -0.3270  0.7347  0.8037
38018SOL    HW216062   7.781   5.948   5.918 -0.3043  0.9340  0.6334
38019SOL     OW16063   2.040   5.288   3.049 -0.4194  0.1153 -0.3238
38019SOL    HW116064   1.975   5.333   2.996 -1.1484  0.2237  0.6436
38019SOL    HW216065   1.992   5.218   3.093 -0.2848  1.1975  1.6688
38020SOL     OW16066   9.117   2.642   6.753 -0.2959  0.8071  0.3796
38020SOL    HW116067   9.116   2.737   6.739  0.5896  1.0730  1.8364
38020SOL    HW216068   9.123   2.604   6.666 -1.5176  2.0531 -0.2842
38021SOL     OW16069   3.900   2.366   5.791 -0.0118 -0.2707  0.0561
38021SOL    HW116070   3.988   2.363   5.755 -0.1109 -0.6100 -0.1635
38021SOL    HW216071   3.903   2.312   5.870  0.4972  1.4006  1.2355
38022SOL     OW16072   0.024   6.980   4.876 -0.6047 -0.2026 -0.4110
38022SOL    HW116073   0.044   7.034   4.953  2.0915 -2.2340  0.4656
38022SOL    HW216074  -0.036   6.913   4.908 -0.3365 -0.4132 -0.3488
38023SOL     OW16075   3.591   6.432   0.208 -0.1675  0.0793 -0.3125
38023SOL    HW116076   3.530   6.467   0.143 -0.1852 -0.3124 -0.5131
38023SOL    HW216077   3.546   6.357   0.246  0.1745 -0.1987 -0.4457
38024SOL     OW16078   5.259   4.506   3.167  0.1760 -0.4009  0.3468
38024SOL    HW116079   5.211   4.510   3.085  0.6684 -1.2944  0.0017
38024SOL    HW216080   5.278   4.597   3.188  0.3896 -0.1860 -0.7433
38025SOL     OW16081   4.561   0.841   7.080 -0.9286 -0.0053  0.0065
38025SOL    HW116082   4.491   0.865   7.020 -1.0955 -2.0873 -0.7109
38025SOL    HW216083   4.641   0.875   7.039 -1.1781 -0.3451 -0.7713
38026SOL     OW16084   6.881   3.246   2.750 -0.0235  0.1390 -0.0441
38026SOL    HW116085   6.831   3.283   2.677 -0.6698  0.2647  0.4540
38026SOL    HW216086   6.914   3.322   2.797 -2.7643  0.2540  1.9731
38027SOL     OW16087  10.222   2.157   5.297  0.9283  0.3332 -0.5567
38027SOL    HW116088  10.249   2.120   5.381 -0.1793  2.5817  0.8847
38027SOL    HW216089  10.166   2.231   5.320 -0.0652  0.5582 -3.3100
38028SOL     OW16090   1.441   7.194   1.437  0.1762 -0.8088  0.0684
38028SOL    HW116091   1.460   7.113   1.485  1.9362 -2.0675 -2.5136
38028SOL    HW216092   1.352   7.182   1.405  0.0784 -1.2845  0.5035
38029SOL     OW16093   0.489   6.300   7.646 -0.6076  0.4419  0.4768
38029SOL    HW116094   0.427   6.227   7.636  0.4682 -0.5260  0.6830
38029SOL    HW216095   0.450   6.356   7.713 -0.0526 -1.4814  2.4988
38030SOL     OW16096   8.477   0.640   7.135  0.1214  0.2106  0.4469
38030SOL    HW116097   8.396   0.665   7.092  0.7749  1.4894 -0.1078
38030SOL    HW216098   8.450   0.610   7.222 -0.9397  0.5946  0.2661
38031SOL     OW16099  10.204   0.746   6.284  0.0733 -0.5927 -0.2704
38031SOL    HW116100  10.158   0.705   6.211 -3.1262 -1.2515  1.8836
38031SOL    HW216101  10.138   0.751   6.353  2.2374  2.1800  1.8113
38032SOL     OW16102   1.985   5.272   6.233  0.4702  0.2128  0.5478
38032SOL    HW116103   2.045   5.312   6.296  0.5698  1.2926 -0.2183
38032SOL    HW216104   1.898   5.290   6.267  0.5348  0.2933  0.6701
38033SOL     OW16105   9.682  10.346   1.090 -0.6329 -0.2578  0.7562
38033SOL    HW116106   9.652  10.411   1.155  0.2205  0.2277  0.6870
38033SOL    HW216107   9.743  10.395   1.034  0.3216 -1.2107  0.9298
38034SOL     OW16108   4.581   4.941   6.248 -0.3697  0.1084 -0.2557
38034SOL    HW116109   4.649   4.873   6.239  0.1918  0.8040 -1.5187
38034SOL    HW216110   4.518   4.903   6.310  0.6223 -0.9958  0.1250
38035SOL     OW16111   0.719   2.931   4.478  0.4452  0.0975 -0.3785
38035SOL    HW116112   0.677   2.922   4.392  1.2654 -1.4467 -0.6433
38035SOL    HW216113   0.664   2.881   4.538  0.2121  0.6701 -0.1036
38036SOL     OW16114   5.687   1.571   8.179 -0.1189 -0.2302 -0.1695
38036SOL    HW116115   5.748   1.509   8.139 -0.1632 -1.4328  1.4772
38036SOL    HW216116   5.628   1.515   8.230 -2.1477  0.9572 -1.1326
38037SOL     OW16117  10.773  10.280   6.527  0.0324 -0.9072 -0.0139
38037SOL    HW116118  10.805  10.348   6.467  0.3626 -0.9417  0.1203
38037SOL    HW216119  10.680  10.299   6.537  0.5017  0.8082  1.6559
38038SOL     OW16120   9.322   1.178   7.458  0.0969 -0.6271  1.0695
38038SOL    HW116121   9.325   1.269   7.489  0.1971 -0.6119  1.0172
38038SOL    HW216122   9.408   1.143   7.480  1.5824  0.4197 -2.3066
38039SOL     OW16123   8.497   1.162   3.096 -0.0112 -0.1078 -0.2419
38039SOL    HW116124   8.523   1.214   3.172  0.0165 -0.8643  0.2757
38039SOL    HW216125   8.442   1.093   3.133  0.6798 -0.9668 -0.8007
38040SOL     OW16126   1.727   7.148   7.142 -0.5185 -0.1642  0.1088
38040SOL    HW116127   1.747   7.215   7.076 -0.5025  1.5279  1.7756
38040SOL    HW216128   1.669   7.191   7.204  0.3089 -1.3530  1.7975
38041SOL     OW16129   3.013   2.996   6.902 -0.2349  0.5751  0.3780
38041SOL    HW116130   3.037   2.939   6.975  0.7539  0.0444 -0.3257
38041SOL    HW216131   3.086   2.987   6.840 -0.7941  1.4226 -0.4365
38042SOL     OW16132   9.812   7.786  10.238  0.8258 -0.2279  0.0611
38042SOL    HW116133   9.845   7.769  10.326  0.2726  3.8933  1.3021
38042SOL    HW216134   9.717   7.783  10.247  0.7504 -1.4250 -0.8758
38043SOL     OW16135   9.904   4.643   1.356 -0.2872 -0.2950  0.5863
38043SOL    HW116136   9.969   4.705   1.322 -0.4374  1.2728  2.9017
38043SOL    HW216137   9.934   4.558   1.325  0.9618  0.7273 -1.2198
38044SOL     OW16138   1.427   8.533   4.778  0.6499  0.8075 -0.0013
38044SOL    HW116139   1.448   8.439   4.781 -0.5267  0.5078 -0.4580
38044SOL    HW216140   1.396   8.553   4.866  0.5438  0.6673 -0.0050
38045SOL     OW16141   3.563   5.978   3.619 -0.0312 -0.6002  0.1210
38045SOL    HW116142   3.561   5.989   3.524 -0.3474 -0.5955  0.1269
38045SOL    HW216143   3.520   5.894   3.634 -1.5783  0.1910  0.3715
38046SOL     OW16144   7.221   5.885   9.019 -0.1022 -0.0727  0.3645
38046SOL    HW116145   7.309   5.852   9.003  0.2931  0.0351  2.1257
38046SOL    HW216146   7.212   5.886   9.115 -2.7779 -2.1000  0.2709
38047SOL     OW16147   4.421   6.693   9.985 -0.4105 -0.1036  0.0616
38047SOL    HW116148   4.354   6.761   9.974 -0.9111 -0.9773 -4.1402
38047SOL    HW216149   4.390   6.621   9.930  1.2392 -2.9294  2.5351
38048SOL     OW16150  10.959   0.482   3.137 -0.1101 -0.1146  0.2928
38048SOL    HW116151  10.983   0.561   3.089  1.8851 -1.8206 -1.7903
38048SOL    HW216152  10.873   0.501   3.175 -0.2879  2.5365 -1.2274
38049SOL     OW16153   7.498   2.074   6.233 -0.4829 -0.8125 -0.0485
38049SOL    HW116154   7.409   2.082   6.267 -1.1431 -1.5186 -1.5373
38049SOL    HW216155   7.517   1.980   6.236  0.2453 -0.6611  0.3135
38050SOL     OW16156   3.586   9.690   9.198  0.2348 -0.1965 -0.4089
38050SOL    HW116157   3.675   9.695   9.164 -0.3006  2.6783 -1.7186
38050SOL    HW216158   3.594   9.713   9.290  1.2863 -4.6780  0.8540
38051SOL     OW16159   7.106   1.941   4.962  0.1058 -0.3413 -0.0516
38051SOL    HW116160   7.088   1.936   4.868  0.2528 -1.3024 -0.0402
38051SOL    HW216161   7.070   2.025   4.989 -0.2521 -0.2104 -0.9050
38052SOL     OW16162   4.242   5.406   2.760  0.0177  0.6319 -0.1823
38052SOL    HW116163   4.316   5.402   2.700  0.4203  0.3332  0.3389
38052SOL    HW216164   4.168   5.375   2.707  0.6303 -1.0197 -0.1160
38053SOL     OW16165   1.199   1.492   2.453  0.0824  0.3451  0.3270
38053SOL    HW116166   1.208   1.440   2.373 -0.9349 -0.8744  0.9852
38053SOL    HW216167   1.249   1.572   2.434  0.0595 -0.0034 -1.4340
38054SOL     OW16168   5.960   8.402   3.715 -0.4300  0.0916  0.1503
38054SOL    HW116169   6.019   8.334   3.749 -0.6449 -0.4316 -0.4940
38054SOL    HW216170   5.956   8.467   3.785 -0.0326 -0.4479  0.6910
38055SOL     OW16171   4.080   7.748   7.581  0.1680  0.3574  0.5904
38055SOL    HW116172   4.113   7.837   7.569 -2.3549  1.4019  0.7550
38055SOL    HW216173   4.053   7.720   7.493  0.1089  0.1102  0.6849
38056SOL     OW16174   0.680   0.647   8.457  0.2636 -0.3834  0.7250
38056SOL    HW116175   0.660   0.738   8.480 -0.8809 -0.4064 -0.0837
38056SOL    HW216176   0.745   0.653   8.387 -0.1945 -0.1742  0.3172
38057SOL     OW16177   5.791   0.620   1.945 -0.0757  0.3276 -0.4798
38057SOL    HW116178   5.848   0.697   1.941 -2.7117  2.5168  0.7610
38057SOL    HW216179   5.718   0.641   1.887 -1.0953 -1.0327  0.2501
38058SOL     OW16180   3.979   1.421   0.107 -0.2306  0.1821  0.0087
38058SOL    HW116181   3.925   1.484   0.059  0.6703 -1.8573 -4.1903
38058SOL    HW216182   4.055   1.471   0.136  0.4937  1.1768 -3.2317
38059SOL     OW16183   6.517   2.188   7.154  0.3084 -0.1300  0.2567
38059SOL    HW116184   6.562   2.104   7.168  0.7086 -0.0695 -0.6011
38059SOL    HW216185   6.444   2.187   7.216  1.5089 -0.2142  1.7296
38060SOL     OW16186  10.592   3.053   1.088  0.2457 -0.0512 -0.1958
38060SOL    HW116187  10.680   3.088   1.104 -0.0542  0.7672 -0.2877
38060SOL    HW216188  10.564   3.018   1.173 -0.4042  2.1338  0.5594
38061SOL     OW16189   8.389   9.087   2.072 -0.2656  0.1149  0.8157
38061SOL    HW116190   8.329   9.154   2.038 -3.4553 -1.2128  3.2943
38061SOL    HW216191   8.459   9.136   2.114  0.8883  1.7542 -2.6125
38062SOL     OW16192   0.738   3.669   4.958 -0.1868 -0.1814  0.2970
38062SOL    HW116193   0.806   3.708   5.013  0.1472 -1.0431  0.5259
38062SOL    HW216194   0.783   3.599   4.910 -0.9475 -0.9177  0.6217
38063SOL     OW16195  10.059  10.904   8.695 -0.3347  0.2761  0.2054
38063SOL    HW116196   9.993  10.869   8.635 -0.7319  0.5788  0.4521
38063SOL    HW216197  10.142  10.894   8.649 -0.5902  0.1641 -0.2389
38064SOL     OW16198   6.785   7.955   3.740 -0.0145 -0.5462  0.0012
38064SOL    HW116199   6.827   7.889   3.684 -0.3704  0.3987 -1.4234
38064SOL    HW216200   6.857   8.013   3.766  0.1015 -0.8194  0.3016
38065SOL     OW16201   3.594   5.392   3.344  0.3341  0.6371  0.3473
38065SOL    HW116202   3.654   5.377   3.270  2.5329  0.2548  2.1049
38065SOL    HW216203   3.559   5.305   3.363 -1.6220  1.0096 -1.2868
38066SOL     OW16204   2.265   4.362   0.195  0.1082  0.1665  0.9070
38066SOL    HW116205   2.252   4.415   0.274  3.0406  1.5421  0.5766
38066SOL    HW216206   2.359   4.348   0.191 -0.2664 -2.5735 -0.7145
38067SOL     OW16207   0.284   1.878  10.409 -0.1304  0.6510  0.0830
38067SOL    HW116208   0.271   1.783  10.406 -2.2770  0.8630  1.1595
38067SOL    HW216209   0.376   1.890  10.384  1.2413 -1.9749  3.1093
38068SOL     OW16210   1.792   1.819   2.279  0.0106 -0.4968  0.3188
38068SOL    HW116211   1.735   1.875   2.226  1.2937  0.9218  0.3397
38068SOL    HW216212   1.880   1.840   2.248  0.5664 -2.2540  0.6268
38069SOL     OW16213   9.777   0.308   3.144  0.4077 -0.1576 -0.3784
38069SOL    HW116214   9.871   0.298   3.161  0.5916 -0.9115 -1.7320
38069SOL    HW216215   9.737   0.232   3.188  0.3161  0.5646  0.8470
38070SOL     OW16216   4.141   9.130   4.741  0.2713 -0.0708  0.3238
38070SOL    HW116217   4.053   9.094   4.737  0.2994 -0.0106 -1.0558
38070SOL    HW216218   4.174   9.102   4.827 -0.4807 -1.5176  0.1686
38071SOL     OW16219   9.494   4.102   2.878  0.3841  0.0882  0.1375
38071SOL    HW116220   9.559   4.033   2.864  0.2708  0.2616 -1.3826
38071SOL    HW216221   9.420   4.076   2.823  0.3351  1.4189 -0.4607
38072SOL     OW16222  10.651   3.671   6.088  0.1728  0.0955  0.4499
38072SOL    HW116223  10.557   3.668   6.106 -0.2853 -0.0196 -1.6642
38072SOL    HW216224  10.668   3.590   6.039  1.6716 -0.5484  1.9349
38073SOL     OW16225   1.341   1.720   2.393 -0.1855 -0.6944  0.0274
38073SOL    HW116226   1.338   1.812   2.417 -1.6400 -0.2328 -1.7071
38073SOL    HW216227   1.381   1.720   2.305  0.2436 -1.7697  0.2089
38074SOL     OW16228  10.400   4.020   4.082 -0.4910  0.4161 -0.0799
38074SOL    HW116229  10.316   4.035   4.123  0.4746  2.0040  1.4392
38074SOL    HW216230  10.448   3.965   4.144  0.0689  0.6288 -0.3127
38075SOL     OW16231   5.163   5.232  10.361 -0.5201 -0.3553 -0.3023
38075SOL    HW116232   5.229   5.243  10.292 -1.8497 -0.2859 -1.6034
38075SOL    HW216233   5.214   5.207  10.439  1.8023  5.0946  0.4045
38076SOL     OW16234   5.290   4.624   0.261  0.4425  0.6239 -0.3323
38076SOL    HW116235   5.274   4.713   0.228  1.2269  1.5221  1.5671
38076SOL    HW216236   5.292   4.633   0.356  2.3808 -1.0844 -0.1170
38077SOL     OW16237   6.534   0.572   4.329 -0.0300  0.2322  0.0399
38077SOL    HW116238   6.487   0.542   4.406  2.3032  1.2356  2.0084
38077SOL    HW216239   6.616   0.522   4.329  1.2694  2.2186 -0.0741
38078SOL     OW16240   4.327   2.847  11.001  0.3165 -0.0789 -0.1278
38078SOL    HW116241   4.248   2.877  10.956 -0.0778 -1.9981 -0.8230
38078SOL    HW216242   4.294   2.811  11.084  0.9484  2.6808  1.4464
38079SOL     OW16243   0.092   8.493   4.289 -0.5155 -0.2563 -0.5628
38079SOL    HW116244   0.043   8.531   4.362 -0.0261 -1.3370  0.3612
38079SOL    HW216245   0.025   8.475   4.223 -1.1556 -0.3409  0.0865
38080SOL     OW16246   3.012   2.496   2.573 -0.4403  0.1074 -0.1239
38080SOL    HW116247   2.970   2.426   2.623  0.6549 -0.5550 -0.1128
38080SOL    HW216248   2.976   2.488   2.485 -0.6661 -0.1683 -0.0066
38081SOL     OW16249   7.324   5.014   7.990 -0.2782  0.6879 -0.0942
38081SOL    HW116250   7.349   5.076   8.058 -1.1279 -0.3298  1.1873
38081SOL    HW216251   7.332   4.928   8.032  0.4302 -0.0610 -1.6800
38082SOL     OW16252   9.476   5.300   4.924 -0.0785  0.4763 -0.0973
38082SOL    HW116253   9.432   5.299   5.009  0.1329 -1.3760  0.0080
38082SOL    HW216254   9.569   5.308   4.945  0.1219 -1.5725 -0.0450
38083SOL     OW16255   1.993  10.384   2.193 -0.2365  0.2808 -0.5050
38083SOL    HW116256   1.973  10.416   2.105 -0.1718  0.7018 -0.3688
38083SOL    HW216257   1.973  10.291   2.190 -0.4703  0.3426 -0.8945
38084SOL     OW16258   2.582  10.926  10.051  0.0051 -0.4280 -0.0711
38084SOL    HW116259   2.561  10.883  10.135  2.2031 -2.9876 -0.6582
38084SOL    HW216260   2.498  10.951  10.015 -1.2691 -2.0990  1.5319
38085SOL     OW16261   7.900   8.163   9.746  0.1505  0.0940  0.3795
38085SOL    HW116262   7.952   8.104   9.801 -1.6648 -1.5050  0.4864
38085SOL    HW216263   7.925   8.141   9.657  1.1369  0.8007  0.4657
38086SOL     OW16264   9.448   5.792  11.092  0.0061  0.1355  0.1859
38086SOL    HW116265   9.483   5.819  11.007 -0.6440 -1.3601 -0.6112
38086SOL    HW216266   9.418   5.702  11.077 -1.0614  0.2027  1.7293
38087SOL     OW16267  10.515   1.778   5.652 -0.3093 -0.3621  0.1578
38087SOL    HW116268  10.549   1.725   5.580 -0.9748 -0.7885  0.1560
38087SOL    HW216269  10.456   1.841   5.609 -0.5593 -0.4933  0.3096
38088SOL     OW16270   7.672   8.107   3.567 -0.1971  0.0221 -1.0139
38088SOL    HW116271   7.662   8.083   3.475  0.5683 -0.3177 -1.0131
38088SOL    HW216272   7.607   8.177   3.581  0.4409  0.8510 -2.0955
38089SOL     OW16273   9.351  10.690   3.585 -0.1351  0.1253 -0.4366
38089SOL    HW116274   9.332  10.658   3.497  0.4162  1.6665 -1.1674
38089SOL    HW216275   9.280  10.751   3.605 -0.9926 -1.2176  0.7781
38090SOL     OW16276  10.067   1.081   6.768  0.4891 -0.1138  0.2098
38090SOL    HW116277  10.115   1.029   6.703  0.8488 -0.2719  0.5969
38090SOL    HW216278  10.005   1.133   6.717  1.8561  0.9643 -0.4220
38091SOL     OW16279  10.804   4.404  10.506  0.1461 -0.0093 -0.1398
38091SOL    HW116280  10.890   4.443  10.488 -0.8235  1.7420 -1.2445
38091SOL    HW216281  10.815   4.311  10.486  1.9238  0.0715  0.3071
38092SOL     OW16282   2.753   8.266   0.810 -0.4458  0.0147 -0.5152
38092SOL    HW116283   2.768   8.177   0.781  0.5719 -0.0924  0.2798
38092SOL    HW216284   2.745   8.317   0.729  0.1937 -0.5989 -0.9729
38093SOL     OW16285   0.172   8.010  10.424  0.6787 -0.0758  0.2693
38093SOL    HW116286   0.226   8.071  10.474  1.0551  0.4291 -0.7359
38093SOL    HW216287   0.097   7.993  10.481  1.1229  0.4351  1.0321
38094SOL     OW16288   7.547   8.796   1.842 -0.3788  0.0200 -0.3499
38094SOL    HW116289   7.537   8.888   1.817 -2.1690  0.3096  1.1975
38094SOL    HW216290   7.610   8.797   1.914  1.7191 -0.3550 -2.0726
38095SOL     OW16291   4.378   3.103   0.543 -0.4012 -0.1865  0.0745
38095SOL    HW116292   4.448   3.085   0.480 -1.3082 -1.2547 -0.6728
38095SOL    HW216293   4.377   3.199   0.551 -1.0856  0.1287 -2.5706
38096SOL     OW16294   7.852   4.476   0.852  0.2788  0.8707  0.4840
38096SOL    HW116295   7.914   4.496   0.782  0.4701  1.3447  0.7878
38096SOL    HW216296   7.772   4.450   0.806  0.2367  1.6951  0.0827
38097SOL     OW16297   8.267   0.391   1.191 -0.2754 -0.4118 -0.1535
38097SOL    HW116298   8.283   0.321   1.128  0.7451 -1.1323  0.8750
38097SOL    HW216299   8.336   0.455   1.175 -0.7967  0.0426 -0.6279
38098SOL     OW16300  10.738  11.049   3.023 -0.0557  0.4772 -0.2050
38098SOL    HW116301  10.749  11.138   2.990 -1.5172  1.1741  1.0284
38098SOL    HW216302  10.658  11.054   3.077 -0.3156 -1.6451 -0.3370
38099SOL     OW16303   9.871   6.018   0.496  0.3645  0.2870 -0.0362
38099SOL    HW116304   9.874   6.038   0.403  0.5983 -0.1364 -0.1219
38099SOL    HW216305   9.868   5.923   0.501  1.1106  0.2732  0.3961
38100SOL     OW16306   4.199   0.218   2.330  0.4330 -0.1846 -0.3784
38100SOL    HW116307   4.226   0.308   2.350  1.0578 -0.5593  0.5203
38100SOL    HW216308   4.155   0.189   2.409 -1.4702 -0.0530 -1.3367
38101SOL     OW16309   6.928   6.556   8.122 -0.4581  0.8737 -0.3561
38101SOL    HW116310   6.907   6.537   8.214 -1.2734  1.6909 -0.3643
38101SOL    HW216311   6.970   6.641   8.125  3.2491 -0.7570 -0.3151
38102SOL     OW16312  10.946   3.677   7.300  0.5774  0.5228 -0.4665
38102SOL    HW116313  10.861   3.678   7.255 -0.2939  0.5470  1.1329
38102SOL    HW216314  11.006   3.641   7.234 -1.2441 -2.5173 -0.6959
38103SOL     OW16315   1.283   0.422   1.885  0.3756 -0.0326  0.5556
38103SOL    HW116316   1.360   0.457   1.929  0.4910 -0.0783  0.3920
38103SOL    HW216317   1.271   0.336   1.925  0.0420  0.2271  1.0152
38104SOL     OW16318   2.145   3.973  10.849  0.4910  0.6480  0.2112
38104SOL    HW116319   2.145   3.966  10.945 -1.0748 -2.3653  0.1332
38104SOL    HW216320   2.089   4.048  10.830  0.9474  1.3883  1.6266
38105SOL     OW16321   5.726   7.019   9.416  0.0585 -0.1074 -0.3162
38105SOL    HW116322   5.692   7.092   9.467 -0.6295  0.8984 -2.1279
38105SOL    HW216323   5.818   7.013   9.442 -0.4783 -0.3029  1.7372
38106SOL     OW16324   3.772   4.041   3.918 -0.4310  0.2836 -0.4160
38106SOL    HW116325   3.863   4.011   3.917 -1.1978 -2.2537 -0.6192
38106SOL    HW216326   3.767   4.099   3.994  0.9292 -1.1141  0.8213
38107SOL     OW16327   4.265  10.189   2.665 -0.2338 -0.3187  0.1061
38107SOL    HW116328   4.247  10.272   2.709 -1.3491 -0.5342  0.1037
38107SOL    HW216329   4.245  10.206   2.573 -0.5342 -0.6031  0.1168
38108SOL     OW16330   6.497   7.989   8.251  0.4862  0.1949 -0.2350
38108SOL    HW116331   6.581   7.945   8.270 -0.7045 -2.4247 -0.5338
38108SOL    HW216332   6.465   8.015   8.337  1.1893  0.3762 -0.0209
38109SOL     OW16333   4.521   0.578   9.798  0.5562  0.0248  0.4806
38109SOL    HW116334   4.503   0.654   9.854 -1.0953 -1.8443  2.7131
38109SOL    HW216335   4.573   0.520   9.854  0.4371 -1.1556 -0.6048
38110SOL     OW16336   2.968   4.605   5.546 -0.5314 -0.0420  0.1349
38110SOL    HW116337   3.000   4.618   5.635 -1.6866 -0.9798  0.7120
38110SOL    HW216338   2.957   4.694   5.511 -1.0198  0.3728  1.2844
38111SOL     OW16339   7.454   6.422   2.708 -0.3197 -0.2182  0.6568
38111SOL    HW116340   7.535   6.459   2.743  0.5919 -2.0922  0.6449
38111SOL    HW216341   7.386   6.449   2.769  0.3970  0.8553  1.0097
38112SOL     OW16342   3.704   2.055   8.383 -0.8920 -0.1262 -0.2340
38112SOL    HW116343   3.641   2.051   8.455 -0.1638  0.0668  0.4304
38112SOL    HW216344   3.744   1.968   8.381 -0.6665 -0.0254 -0.1710
38113SOL     OW16345   8.814   5.924   1.734  0.3757  0.8951  0.1248
38113SOL    HW116346   8.812   5.921   1.829 -0.9819  0.3946  0.1086
38113SOL    HW216347   8.838   6.014   1.712  2.0022  0.6849  0.9131
38114SOL     OW16348   6.129   1.950   3.349  0.3169  0.0570  0.5707
38114SOL    HW116349   6.207   1.995   3.381  0.2101  0.4161  0.3348
38114SOL    HW216350   6.157   1.911   3.266  0.2360  0.2184  0.4671
38115SOL     OW16351   9.769   2.554   4.357 -0.5194  0.8185  0.6229
38115SOL    HW116352   9.786   2.473   4.308 -1.6818 -0.7729  2.6686
38115SOL    HW216353   9.696   2.595   4.312 -0.0150  0.6682 -0.3484
38116SOL     OW16354   2.673   0.531   5.775 -0.0289 -0.3434  0.0630
38116SOL    HW116355   2.628   0.452   5.747 -0.4688 -0.1693  0.2683
38116SOL    HW216356   2.710   0.509   5.861 -0.5817 -0.1693  0.3499
38117SOL     OW16357   4.580   6.324   5.149 -0.6525 -0.2669 -0.5678
38117SOL    HW116358   4.639   6.267   5.100 -0.8766 -0.5261 -0.5411
38117SOL    HW216359   4.557   6.394   5.088  0.2801  0.2637 -0.3388
38118SOL     OW16360   6.238   7.449  10.146 -1.3913  0.3875 -0.0467
38118SOL    HW116361   6.278   7.511  10.085 -1.9433  0.8271  0.0302
38118SOL    HW216362   6.313   7.408  10.190 -0.9688 -0.2671 -1.3342
38119SOL     OW16363   9.906   7.975   3.781  0.0976 -0.4684 -0.1395
38119SOL    HW116364   9.867   7.934   3.704 -0.6107 -0.6623  0.3113
38119SOL    HW216365   9.838   8.035   3.812 -0.1235 -1.2969  1.0516
38120SOL     OW16366   6.030   7.882   9.761 -0.7105  0.3866 -0.2757
38120SOL    HW116367   6.098   7.817   9.742  1.1141  1.7655  1.1356
38120SOL    HW216368   6.048   7.910   9.851 -1.7841  2.4056 -0.6331
38121SOL     OW16369   7.499   3.702   8.058 -0.4621 -0.2038 -0.5303
38121SOL    HW116370   7.557   3.767   8.098 -0.4147 -1.2339  1.1737
38121SOL    HW216371   7.503   3.721   7.964  1.4212  0.7307 -0.3083
38122SOL     OW16372   5.906   3.373   8.524 -1.0003  0.1029 -0.7597
38122SOL    HW116373   5.961   3.436   8.478  0.9677 -0.7834  0.2394
38122SOL    HW216374   5.881   3.417   8.605 -0.1072 -0.1468 -0.3295
38123SOL     OW16375   4.748   9.716   8.462 -0.6498  0.7689 -0.2931
38123SOL    HW116376   4.735   9.778   8.389 -0.5528 -1.0944 -1.9844
38123SOL    HW216377   4.782   9.637   8.420 -1.2745 -0.6349  1.7040
38124SOL     OW16378   9.094  10.369   6.526  0.1370 -0.2061  0.8748
38124SOL    HW116379   9.128  10.289   6.568  1.1793 -0.2926 -0.0725
38124SOL    HW216380   9.029  10.403   6.587 -1.8715 -2.8895  0.4033
38125SOL     OW16381  11.086   8.095   3.827 -0.2048  0.0827 -0.0232
38125SOL    HW116382  11.048   8.010   3.803 -0.6605  0.6717 -1.5350
38125SOL    HW216383  11.174   8.094   3.788 -0.5058  0.5933 -0.7415
38126SOL     OW16384   8.752   5.073   1.714  0.5214 -0.1709 -0.0344
38126SOL    HW116385   8.728   5.072   1.622 -0.8556  1.4574  0.2547
38126SOL    HW216386   8.670   5.090   1.760  1.4403  0.7340  1.3565
38127SOL     OW16387   8.125   0.592   6.076  1.0147  0.1731  0.1003
38127SOL    HW116388   8.187   0.559   6.010 -0.4807 -0.0523 -1.2547
38127SOL    HW216389   8.130   0.687   6.068  0.5289  0.1427 -0.6628
38128SOL     OW16390   9.211   5.885   6.934  0.5544 -0.5745  0.6725
38128SOL    HW116391   9.230   5.836   7.014  2.2777 -0.1878  0.5528
38128SOL    HW216392   9.291   5.878   6.882  0.0237  0.4620 -0.3415
38129SOL     OW16393   6.665   0.960   5.084 -0.3486 -0.2887 -0.6206
38129SOL    HW116394   6.708   0.987   5.003 -1.6489  0.1386 -1.2038
38129SOL    HW216395   6.620   0.879   5.061 -0.9162 -0.0379 -0.4044
38130SOL     OW16396  10.641   0.920   5.767  0.1293 -0.8187  0.3325
38130SOL    HW116397  10.655   0.928   5.672  1.0238 -1.6073  0.3781
38130SOL    HW216398  10.592   0.999   5.791  2.1626  0.7341 -0.3544
38131SOL     OW16399   4.619   0.503   5.890 -0.2213 -0.1481  0.8322
38131SOL    HW116400   4.696   0.454   5.919  0.0803 -1.1559 -1.4308
38131SOL    HW216401   4.591   0.458   5.810 -0.7754  2.5406 -0.6154
38132SOL     OW16402   3.265   6.186   0.705 -0.4185 -0.1712  0.1574
38132SOL    HW116403   3.319   6.113   0.673  1.0960 -0.4017  2.9001
38132SOL    HW216404   3.321   6.263   0.696  0.2034 -0.2987  2.3739
38133SOL     OW16405   6.991  10.799   7.985 -0.1035 -0.3114 -0.1403
38133SOL    HW116406   7.017  10.710   8.009  0.5436 -0.3415 -0.8971
38133SOL    HW216407   6.918  10.786   7.924  0.1145 -0.3364 -0.3991
38134SOL     OW16408   6.585  10.667   9.275  0.1107  0.5712  0.7293
38134SOL    HW116409   6.670  10.635   9.246  0.1136 -0.1809  1.5090
38134SOL    HW216410   6.537  10.587   9.300 -0.1289  1.1012  2.0705
38135SOL     OW16411   3.380   6.428   5.299  0.4218 -0.4732 -0.5539
38135SOL    HW116412   3.435   6.506   5.306 -0.2340 -0.1444  1.9355
38135SOL    HW216413   3.424   6.363   5.354 -0.5149 -0.9266 -0.3224
38136SOL     OW16414   9.766   2.634   4.987 -0.1837  0.0364 -0.1275
38136SOL    HW116415   9.778   2.545   5.018 -0.6447  0.6762  2.0417
38136SOL    HW216416   9.853   2.661   4.958 -0.1554 -1.2792 -1.3575
38137SOL     OW16417   9.076   4.128   8.245 -0.5139  0.2812 -0.2915
38137SOL    HW116418   9.063   4.182   8.323  0.1007  1.4000 -0.9387
38137SOL    HW216419   9.165   4.095   8.254 -0.6426 -0.0609 -0.2466
38138SOL     OW16420   2.071   1.059   5.238  0.2530 -0.4805 -0.1633
38138SOL    HW116421   2.142   0.996   5.251 -0.3059 -0.8950  0.9584
38138SOL    HW216422   2.059   1.100   5.324  1.1885  1.8125 -1.0306
38139SOL     OW16423   4.714  10.025   0.183  0.3816 -0.0142  0.2625
38139SOL    HW116424   4.680  10.108   0.149 -2.3257 -0.9776  0.3725
38139SOL    HW216425   4.690   9.960   0.116  1.6791 -0.8745  0.5823
38140SOL     OW16426   1.896   3.183   9.385 -0.0343 -0.8831  0.1838
38140SOL    HW116427   1.952   3.179   9.462  1.8278  0.0934 -1.0625
38140SOL    HW216428   1.917   3.104   9.336  0.0706 -0.6472 -0.1562
38141SOL     OW16429   4.275   7.941   7.664 -0.5878 -0.2780  0.8438
38141SOL    HW116430   4.353   7.996   7.677  1.2032 -2.0582 -1.6040
38141SOL    HW216431   4.272   7.886   7.742 -0.0448  0.5196  1.4504
38142SOL     OW16432   9.364   2.677   6.274  0.1838 -0.1553 -0.3612
38142SOL    HW116433   9.283   2.699   6.227 -2.1706  2.9675  4.4331
38142SOL    HW216434   9.414   2.759   6.275  1.2981 -0.8236  0.4911
38143SOL     OW16435   7.775   0.068   2.968  0.0498 -0.1211 -1.4953
38143SOL    HW116436   7.683   0.046   2.956  0.4497 -1.2790 -2.7150
38143SOL    HW216437   7.818  -0.016   2.985  0.6930  0.5689  0.7152
38144SOL     OW16438   9.340  10.593  10.527 -0.0985 -0.5863 -0.2935
38144SOL    HW116439   9.435  10.594  10.536 -0.0083 -2.1816 -0.7539
38144SOL    HW216440   9.319  10.678  10.488  1.1234 -0.1906 -0.1388
38145SOL     OW16441   0.655   5.430   5.164  0.1313 -0.9185 -0.0272
38145SOL    HW116442   0.694   5.415   5.250  2.5331  0.9944 -0.6646
38145SOL    HW216443   0.612   5.347   5.141  2.1924 -2.5288  1.6301
38146SOL     OW16444   3.953   8.099   6.176 -0.4408 -0.0229 -0.3388
38146SOL    HW116445   3.971   8.103   6.082 -0.5759 -0.2281 -0.3733
38146SOL    HW216446   3.951   8.006   6.196 -0.9592  0.0056 -0.2411
38147SOL     OW16447   1.634   5.459   7.796 -0.0524 -0.3943 -0.5998
38147SOL    HW116448   1.698   5.491   7.860  0.0022 -0.0962 -0.8026
38147SOL    HW216449   1.670   5.375   7.766  0.5084  0.0198 -1.0971
38148SOL     OW16450  10.847   8.838   3.014 -0.8419 -0.4142 -0.3715
38148SOL    HW116451  10.825   8.912   3.070  1.1121 -1.4202  1.8819
38148SOL    HW216452  10.807   8.762   3.057 -0.2030 -1.0686 -0.9022
38149SOL     OW16453   3.067   0.454   4.554 -0.6723 -0.0935  0.1921
38149SOL    HW116454   3.110   0.535   4.527 -0.7867 -0.2922 -0.6157
38149SOL    HW216455   2.974   0.475   4.557 -0.5245  0.4756  2.4377
38150SOL     OW16456   0.994   4.297  10.865 -0.4466 -0.3847 -0.0890
38150SOL    HW116457   1.030   4.385  10.878 -1.5639 -0.0333  0.7560
38150SOL    HW216458   0.958   4.273  10.950 -1.7878 -0.9201 -0.7838
38151SOL     OW16459   5.269   6.340   3.464 -0.0041 -0.5413 -0.3790
38151SOL    HW116460   5.272   6.433   3.487 -0.9702 -0.6426  0.2148
38151SOL    HW216461   5.321   6.297   3.532 -0.2885 -0.5149 -0.1394
38152SOL     OW16462   9.950   4.144   7.276  0.3531  0.0931  0.1280
38152SOL    HW116463   9.942   4.161   7.370  0.6216  0.3212  0.1102
38152SOL    HW216464  10.042   4.161   7.256  0.3658 -0.2457 -0.1193
38153SOL     OW16465   2.375  10.454   6.179  0.4136 -0.3617 -0.1945
38153SOL    HW116466   2.333  10.390   6.122 -1.1881  0.3551  0.1161
38153SOL    HW216467   2.442  10.495   6.125 -1.2062  0.4630 -1.6906
38154SOL     OW16468  10.896   0.021   7.894 -0.3689 -0.0230  0.3805
38154SOL    HW116469  10.927   0.090   7.953 -1.5466  1.3253 -0.4958
38154SOL    HW216470  10.955  -0.052   7.910  1.6927  1.5586  0.5256
38155SOL     OW16471   0.034   2.664  10.355  0.4829  0.2169  0.3031
38155SOL    HW116472   0.019   2.593  10.417 -1.8436  1.2614  1.0473
38155SOL    HW216473  -0.037   2.655  10.291  0.2641  1.7122  0.2962
38156SOL     OW16474   5.096   8.821   5.777  0.5910 -0.0273 -0.3721
38156SOL    HW116475   5.022   8.848   5.723 -0.6838 -0.3240  1.1472
38156SOL    HW216476   5.162   8.889   5.763 -0.3757  0.8282 -0.9288
38157SOL     OW16477   0.148   6.627   1.823  0.3668 -0.5327  0.2847
38157SOL    HW116478   0.113   6.572   1.753  0.0014 -0.9593  0.7884
38157SOL    HW216479   0.099   6.708   1.817 -0.3249 -0.9136  0.6186
38158SOL     OW16480  10.273   3.836   7.391  0.2834 -0.0440  0.1833
38158SOL    HW116481  10.358   3.825   7.348  0.3837  1.6240 -0.1517
38158SOL    HW216482  10.209   3.820   7.321  0.4516  3.1606 -0.9036
38159SOL     OW16483   1.440   2.627   4.468 -0.0882 -0.3159 -0.5430
38159SOL    HW116484   1.385   2.594   4.397 -1.4204 -0.6747  0.5910
38159SOL    HW216485   1.527   2.594   4.448 -0.6916 -1.5155 -1.3326
38160SOL     OW16486   0.629   6.596   5.323  0.1983  0.6242  0.0660
38160SOL    HW116487   0.545   6.557   5.350  1.7944 -2.2514  1.2832
38160SOL    HW216488   0.640   6.672   5.380 -0.6020 -0.2280  1.4197
38161SOL     OW16489   8.321   3.571   3.655  0.0770 -0.2004  0.1946
38161SOL    HW116490   8.360   3.604   3.735  0.8250  1.9797 -0.9930
38161SOL    HW216491   8.252   3.511   3.685 -1.2140  2.2582  2.5130
38162SOL     OW16492   4.921   5.697   4.993 -0.0346  0.4991  0.0467
38162SOL    HW116493   4.867   5.632   4.947 -1.1850  1.0037  0.6512
38162SOL    HW216494   4.959   5.750   4.922  2.5106 -1.9179 -0.6126
38163SOL     OW16495   5.305   5.387   9.963  0.0764 -0.4210 -0.4742
38163SOL    HW116496   5.369   5.350   9.902  3.1939 -1.3958  3.0058
38163SOL    HW216497   5.337   5.475   9.982 -0.3636 -0.4175  0.3213
38164SOL     OW16498   4.428   5.484   9.595  0.4856 -0.2112 -0.0713
38164SOL    HW116499   4.420   5.554   9.530 -1.7024 -0.2460  0.1112
38164SOL    HW216500   4.338   5.462   9.618  1.1289  0.5466  3.8072
38165SOL     OW16501   8.855   6.281   6.065 -0.0784  0.1850  0.4201
38165SOL    HW116502   8.764   6.256   6.053  0.0950 -0.6724  0.7507
38165SOL    HW216503   8.889   6.294   5.976 -0.9012  2.0527  0.3372
38166SOL     OW16504   6.981   4.021   8.269 -0.2879  0.3557  0.5096
38166SOL    HW116505   7.015   4.095   8.220 -0.8913  1.6447  1.9637
38166SOL    HW216506   6.958   3.956   8.202  1.0641  1.1099 -0.7344
38167SOL     OW16507   1.504   0.892   1.789 -0.2239 -0.0138 -0.1592
38167SOL    HW116508   1.478   0.804   1.760  1.6893 -1.0851  1.1593
38167SOL    HW216509   1.477   0.895   1.881  3.0579 -0.7648  0.9461
38168SOL     OW16510   1.551   9.714   3.598 -0.4200 -0.0100 -0.1193
38168SOL    HW116511   1.539   9.670   3.514 -1.9036 -0.1973  0.1722
38168SOL    HW216512   1.538   9.807   3.578 -1.7433 -0.1447  0.0638
38169SOL     OW16513   7.733   1.141   6.755 -0.7039  0.4062 -0.4621
38169SOL    HW116514   7.728   1.046   6.742  0.1146 -0.0069  1.7571
38169SOL    HW216515   7.688   1.178   6.679 -0.3715 -1.7194 -1.7828
38170SOL     OW16516   6.384   7.983   3.763  0.1816 -0.5425  0.1881
38170SOL    HW116517   6.456   8.033   3.802  0.8528 -0.9899 -0.4686
38170SOL    HW216518   6.370   8.024   3.677 -1.5321  0.6779  0.9674
38171SOL     OW16519   4.696   1.497   4.469 -0.0249 -0.0279 -0.7081
38171SOL    HW116520   4.765   1.548   4.426 -0.5427 -0.5419 -2.2490
38171SOL    HW216521   4.625   1.496   4.405 -0.9763 -0.5799  0.3287
38172SOL     OW16522   5.134   5.720   8.869  0.0463 -0.0746 -0.0245
38172SOL    HW116523   5.120   5.652   8.935 -2.1033  1.1642  0.9031
38172SOL    HW216524   5.185   5.787   8.915  0.7302 -0.3058 -0.4289
38173SOL     OW16525   3.323   0.709   9.758 -0.1864 -0.4091  0.1978
38173SOL    HW116526   3.287   0.774   9.697 -1.1771  0.2727  1.4607
38173SOL    HW216527   3.392   0.665   9.708 -1.7985 -0.7748 -1.8631
38174SOL     OW16528   0.563   5.000   7.022 -0.0436 -0.4247  0.2707
38174SOL    HW116529   0.645   5.044   7.044 -1.5289  1.5462  2.3844
38174SOL    HW216530   0.533   5.043   6.942 -0.8153  1.6489  1.5916
38175SOL     OW16531   1.216   2.220   5.969  0.0820  0.3385 -0.2285
38175SOL    HW116532   1.292   2.262   6.008  0.3698  1.2732 -1.7212
38175SOL    HW216533   1.141   2.260   6.012  0.4003  0.1923  0.4790
38176SOL     OW16534  10.723  10.708  10.616 -0.0598  0.3969  0.3072
38176SOL    HW116535  10.682  10.762  10.683 -1.4241  1.0854 -1.0358
38176SOL    HW216536  10.732  10.766  10.540  1.0326 -0.4826 -0.2656
38177SOL     OW16537   6.716   2.988   0.047  0.2204  0.1895  0.4806
38177SOL    HW116538   6.628   3.025   0.048 -0.9551 -2.3492  1.4900
38177SOL    HW216539   6.768   3.051  -0.003 -2.4686  1.0981 -1.4338
38178SOL     OW16540   5.703   0.030   3.643  0.3006  0.0787 -0.2842
38178SOL    HW116541   5.758  -0.048   3.650  0.4144  0.2407  0.7758
38178SOL    HW216542   5.764   0.103   3.649  0.1566  0.2573 -0.9281
38179SOL     OW16543   3.316   7.130   3.582  0.0584 -0.3419  0.3272
38179SOL    HW116544   3.225   7.115   3.556  0.5230 -0.2361 -1.4734
38179SOL    HW216545   3.310   7.158   3.673 -1.7911  0.4763  0.0118
38180SOL     OW16546   0.172   3.682   1.857  0.3097 -0.2870 -0.4672
38180SOL    HW116547   0.253   3.638   1.880  1.6582  1.3138 -1.8603
38180SOL    HW216548   0.183   3.772   1.889 -0.2096  0.3660 -2.0165
38181SOL     OW16549   5.057   0.659   7.254 -0.1610 -0.1147 -0.6018
38181SOL    HW116550   4.962   0.659   7.268 -0.1451 -0.6687 -0.5009
38181SOL    HW216551   5.076   0.573   7.217  0.3424 -0.1051 -0.3699
38182SOL     OW16552   7.789   3.036   1.095  0.4472 -0.4698  0.0210
38182SOL    HW116553   7.831   2.952   1.079 -0.6045 -0.8087 -1.1508
38182SOL    HW216554   7.757   3.064   1.009  0.4095  0.9351  0.4597
38183SOL     OW16555   0.107   8.044   5.288 -0.1770 -0.8990 -0.2506
38183SOL    HW116556   0.172   8.114   5.290  1.4261 -2.3330  0.1775
38183SOL    HW216557   0.133   7.985   5.359 -1.6753 -1.7781 -0.3907
38184SOL     OW16558   8.127   5.092   6.878  0.1415 -0.0349  0.1950
38184SOL    HW116559   8.208   5.138   6.855 -0.7268  2.8922  2.3983
38184SOL    HW216560   8.105   5.043   6.799  3.3978 -0.0360 -0.8921
38185SOL     OW16561   3.536   6.383   3.868 -0.5951  0.0240 -0.1038
38185SOL    HW116562   3.610   6.443   3.864 -1.2352  0.8024 -0.6104
38185SOL    HW216563   3.523   6.367   3.961  0.9363 -1.0665 -0.0464
38186SOL     OW16564   4.882   4.481   5.996 -0.3873 -0.2754 -0.0629
38186SOL    HW116565   4.844   4.412   6.049 -0.2617  1.5849  2.6645
38186SOL    HW216566   4.808   4.525   5.955 -0.6632 -0.4108  0.2943
38187SOL     OW16567   8.783   6.398   5.682 -0.0763 -0.4349  0.2342
38187SOL    HW116568   8.716   6.367   5.620 -0.6105 -0.0621  0.6189
38187SOL    HW216569   8.733   6.431   5.756  0.4652  1.5110 -0.2278
38188SOL     OW16570   1.118   2.155   0.770  0.0140  0.0096  0.6812
38188SOL    HW116571   1.202   2.202   0.772 -0.5034  1.0202 -0.0021
38188SOL    HW216572   1.139   2.070   0.733  0.5804  0.6705 -0.5917
38189SOL     OW16573   5.026   4.505   0.665 -0.0116 -0.3882 -0.0837
38189SOL    HW116574   5.068   4.446   0.727 -0.2506 -2.0656 -1.4379
38189SOL    HW216575   4.983   4.447   0.602 -4.4261  1.1078  1.1504
38190SOL     OW16576  10.395   8.582   4.732  0.7135 -0.2909  0.4605
38190SOL    HW116577  10.332   8.649   4.706 -1.0496 -2.0530 -0.0461
38190SOL    HW216578  10.446   8.623   4.802  0.7157  2.0607 -0.7994
38191SOL     OW16579   6.314   5.492   5.882 -0.1609 -0.1878 -0.6037
38191SOL    HW116580   6.242   5.495   5.945  0.9706  0.3695  0.7141
38191SOL    HW216581   6.272   5.476   5.798 -1.8392  0.3281  0.1006
38192SOL     OW16582   1.990   3.502   3.798  0.5547  0.6872  0.2422
38192SOL    HW116583   1.926   3.494   3.727  0.4980  2.4484  0.0398
38192SOL    HW216584   1.937   3.507   3.877  0.5845 -0.5902  0.3493
38193SOL     OW16585   4.314   0.254   3.168  0.2540  0.2613 -0.0343
38193SOL    HW116586   4.361   0.295   3.241 -1.9683  0.2505  1.4974
38193SOL    HW216587   4.330   0.160   3.179 -0.6195  0.2035  0.8963
38194SOL     OW16588  10.898   1.457   6.309  0.3997 -0.5478  0.3652
38194SOL    HW116589  10.859   1.483   6.392  1.8099  3.0060  0.1084
38194SOL    HW216590  10.828   1.467   6.245  0.6309  2.1090  0.4327
38195SOL     OW16591  10.077  10.967   8.108  0.4605  0.3693  0.0437
38195SOL    HW116592  10.133  10.911   8.162  1.4418 -0.3039 -1.6215
38195SOL    HW216593  10.001  10.986   8.164  0.5341 -1.8630  0.9999
38196SOL     OW16594   0.627   4.142   5.358  0.0313  0.8250  0.1094
38196SOL    HW116595   0.673   4.192   5.290 -0.3766 -0.7377 -1.3682
38196SOL    HW216596   0.567   4.205   5.398 -0.6031  1.5013 -1.8210
38197SOL     OW16597   3.345   3.227   5.500  0.5073  0.2425 -0.0041
38197SOL    HW116598   3.380   3.225   5.588  0.7816 -1.7102 -0.0982
38197SOL    HW216599   3.250   3.224   5.511  0.5416 -2.0958  0.3082
38198SOL     OW16600   1.088   1.093  11.029 -0.7402 -0.1721 -0.2753
38198SOL    HW116601   1.017   1.037  11.061  0.1703 -1.2382 -0.0567
38198SOL    HW216602   1.141   1.111  11.107 -1.0953  1.1413 -0.3157
38199SOL     OW16603   7.348   1.847   4.619  0.7679  0.0053  0.3157
38199SOL    HW116604   7.312   1.758   4.623  1.7806 -0.4238  0.2055
38199SOL    HW216605   7.336   1.881   4.708  1.0157 -0.5054  0.5498
38200SOL     OW16606  10.965   7.264   0.767 -0.3658 -0.3160 -0.3062
38200SOL    HW116607  10.919   7.251   0.850  2.1187  1.4890  1.5067
38200SOL    HW216608  11.019   7.185   0.757  0.0857 -0.0970  0.3581
38201SOL     OW16609   7.950   6.053  11.029  0.1149  0.3721 -0.4260
38201SOL    HW116610   8.000   6.117  11.081 -0.2146 -1.3952  2.2915
38201SOL    HW216611   7.859   6.074  11.047 -0.0252  0.1317 -0.8589
38202SOL     OW16612  11.053  10.365   2.541  0.0683 -0.1322  0.3179
38202SOL    HW116613  11.019  10.446   2.579 -0.1733  0.1266 -0.4298
38202SOL    HW216614  11.001  10.296   2.582 -1.6529  0.2794 -1.0558
38203SOL     OW16615   8.902  10.614   4.497  0.3622  0.4665  0.1235
38203SOL    HW116616   8.908  10.532   4.545 -0.1301 -0.0477 -0.6644
38203SOL    HW216617   8.869  10.589   4.410 -1.3912  1.6581  0.3928
38204SOL     OW16618   6.984   6.701   2.720 -0.2912 -0.0730 -0.1421
38204SOL    HW116619   7.043   6.765   2.681 -1.0268 -0.2912 -1.6603
38204SOL    HW216620   6.932   6.667   2.647  0.5688 -2.9790  0.4342
38205SOL     OW16621   4.239  10.966   6.962 -0.0907 -0.1573 -0.1317
38205SOL    HW116622   4.180  10.906   7.008 -0.1133  0.1122  0.1926
38205SOL    HW216623   4.310  10.910   6.930  0.1373 -0.2855  0.5887
38206SOL     OW16624   6.427  10.167   8.151 -0.2853 -0.7475  0.5399
38206SOL    HW116625   6.414  10.247   8.203  2.1940 -0.2298  0.4915
38206SOL    HW216626   6.372  10.101   8.195 -3.0454  1.0797  0.1012
38207SOL     OW16627   2.097   2.078   3.996  0.7145 -0.2423 -0.1928
38207SOL    HW116628   2.043   2.006   4.027  0.2230  0.4504  0.5893
38207SOL    HW216629   2.169   2.036   3.949  0.3097 -1.2240  0.0572
38208SOL     OW16630   1.028   1.212   9.711 -0.3454  0.0991  0.7275
38208SOL    HW116631   1.107   1.210   9.656 -0.4133 -4.5501  0.4091
38208SOL    HW216632   1.057   1.179   9.796 -1.1867  2.6650  2.1064
38209SOL     OW16633  10.178   8.157   2.701  0.2871  0.1466 -0.3888
38209SOL    HW116634  10.162   8.070   2.738 -2.4973  0.4984 -0.5172
38209SOL    HW216635  10.203   8.141   2.610  0.0583 -0.5446 -0.3318
38210SOL     OW16636   0.273   7.933   1.263 -0.2326 -0.1040 -0.2556
38210SOL    HW116637   0.361   7.906   1.235 -0.3105  1.0364 -1.6574
38210SOL    HW216638   0.236   7.977   1.188 -1.1394  1.5253  1.0878
38211SOL     OW16639   7.424   4.371  10.487 -0.5732 -0.0134  0.1332
38211SOL    HW116640   7.404   4.420  10.407  0.6807 -0.8462 -0.7505
38211SOL    HW216641   7.427   4.436  10.556 -2.1264  0.6718 -0.4032
38212SOL     OW16642   8.993   9.105   1.466 -0.3292 -0.5293 -0.9557
38212SOL    HW116643   8.970   9.070   1.381  1.8143  0.4950 -2.0501
38212SOL    HW216644   8.964   9.196   1.464 -1.2378 -0.7753 -0.1304
38213SOL     OW16645   9.202   7.856   7.912  0.0407 -0.5698  0.0706
38213SOL    HW116646   9.288   7.824   7.939  0.2684 -1.4225 -1.5704
38213SOL    HW216647   9.145   7.779   7.914 -0.2193 -0.4046 -0.6720
38214SOL     OW16648   2.577   9.292   6.817  0.1315 -0.3872  0.3422
38214SOL    HW116649   2.510   9.224   6.809  0.0168 -0.2575  0.1867
38214SOL    HW216650   2.581   9.331   6.730  0.1448 -0.1463  0.4513
38215SOL     OW16651   1.288   7.814   4.869 -0.7877 -0.5081 -0.1320
38215SOL    HW116652   1.300   7.799   4.963 -1.2310  0.1590  0.0333
38215SOL    HW216653   1.194   7.805   4.854 -0.9690  1.1238 -0.1834
38216SOL     OW16654  10.795   7.753   1.697  0.7568  0.2909  0.2120
38216SOL    HW116655  10.723   7.816   1.699 -0.3660 -0.9405  1.8383
38216SOL    HW216656  10.818   7.745   1.605 -0.6545  1.3236 -0.2622
38217SOL     OW16657  10.046   1.548   0.220 -0.2878  0.2033  0.3660
38217SOL    HW116658  10.110   1.607   0.180 -0.3211  0.0144  0.0208
38217SOL    HW216659  10.097   1.497   0.283 -0.1646  0.2855  0.3328
38218SOL     OW16660   3.200   4.150   9.087  0.6221 -0.0859  0.2948
38218SOL    HW116661   3.199   4.090   9.012  2.7359 -0.2550  0.3278
38218SOL    HW216662   3.275   4.121   9.139  0.8063  1.6720  1.0774
38219SOL     OW16663  11.000   6.844   3.115  0.0629  0.2676  0.2219
38219SOL    HW116664  11.079   6.835   3.061 -0.1929  0.2192 -0.1549
38219SOL    HW216665  10.985   6.756   3.150  0.8062  0.5252  1.2034
38220SOL     OW16666   5.823   4.635   0.947 -0.1243  0.1682  0.7861
38220SOL    HW116667   5.845   4.716   0.901 -1.1025 -0.8006 -1.6095
38220SOL    HW216668   5.904   4.584   0.947  0.3813  0.9612  1.9096
38221SOL     OW16669   9.791   6.366   6.840 -0.5673  0.0262  0.4174
38221SOL    HW116670   9.831   6.442   6.881 -0.6919  0.6000 -0.4840
38221SOL    HW216671   9.857   6.336   6.777 -0.8725 -0.0611  0.1370
38222SOL     OW16672   0.710   5.817   8.556 -0.2418 -0.2398 -0.1928
38222SOL    HW116673   0.729   5.911   8.557 -0.6985 -0.1481 -0.3079
38222SOL    HW216674   0.618   5.810   8.582 -1.0282 -0.4538 -2.8090
38223SOL     OW16675   7.202  10.371   9.952 -0.1971  0.1671 -0.2718
38223SOL    HW116676   7.245  10.339   9.874  0.4388  1.6138 -0.5554
38223SOL    HW216677   7.180  10.462   9.932  0.7256  0.8396  1.4933
38224SOL     OW16678   0.632   0.780   4.541 -0.3488 -0.4798  0.1651
38224SOL    HW116679   0.604   0.689   4.541 -0.0595 -0.6919 -3.5284
38224SOL    HW216680   0.727   0.776   4.552 -0.2526 -0.6887 -0.7072
38225SOL     OW16681   3.697   6.173   2.138 -0.1116  0.2816  0.0989
38225SOL    HW116682   3.619   6.229   2.135  0.1274  0.5826 -0.8238
38225SOL    HW216683   3.770   6.232   2.122  0.0915 -0.3682 -1.5508
38226SOL     OW16684   9.330   6.334   0.497  0.3711 -0.6693  1.0910
38226SOL    HW116685   9.309   6.320   0.590 -1.3911 -0.5156  0.7471
38226SOL    HW216686   9.268   6.279   0.450  0.7859 -0.2068 -0.0255
38227SOL     OW16687  10.156  10.666   4.572  0.2963  0.2170  0.2366
38227SOL    HW116688  10.150  10.705   4.659 -0.8071 -0.1996  0.3620
38227SOL    HW216689  10.119  10.733   4.513  0.3446  0.1974  0.1837
38228SOL     OW16690   6.773  10.866   0.577 -0.5536 -0.1480  0.0301
38228SOL    HW116691   6.809  10.929   0.514 -0.1339  1.1011  1.4703
38228SOL    HW216692   6.801  10.781   0.544  1.4343  0.6165 -0.3600
38229SOL     OW16693   4.191   0.727   7.958  0.3694 -0.4162  0.4021
38229SOL    HW116694   4.100   0.739   7.984 -0.4027 -0.4522 -2.0825
38229SOL    HW216695   4.215   0.641   7.994 -0.8182 -0.7459  0.4529
38230SOL     OW16696   3.785   6.395   6.736  0.2125  0.1252 -0.5937
38230SOL    HW116697   3.763   6.487   6.748 -0.9071 -0.3759  1.7680
38230SOL    HW216698   3.856   6.379   6.798 -0.2938 -0.8105 -0.2330
38231SOL     OW16699   8.018   3.391   8.545  0.4596 -0.2243  1.2541
38231SOL    HW116700   7.935   3.405   8.499 -0.1699 -0.4450  2.2883
38231SOL    HW216701   8.085   3.412   8.481 -0.3876  2.4234  1.1104
38232SOL     OW16702   1.079   9.010   6.036  0.4220  0.2095  1.0478
38232SOL    HW116703   1.151   9.051   5.989 -0.1909  2.4633  1.9772
38232SOL    HW216704   1.121   8.960   6.106  1.2809 -2.3468 -1.1138
38233SOL     OW16705   5.785   1.518   6.642  0.2205  0.2198 -0.0912
38233SOL    HW116706   5.837   1.563   6.709 -1.9963  1.2333  1.0629
38233SOL    HW216707   5.789   1.576   6.566  1.1447  0.0482 -0.1832
38234SOL     OW16708   4.082   2.817   1.862  0.7281  0.2309  0.1518
38234SOL    HW116709   4.157   2.758   1.856  0.8711  0.4530 -0.3365
38234SOL    HW216710   4.079   2.844   1.954  0.9596 -0.1498  0.2702
38235SOL     OW16711   3.435   7.752   4.930 -0.0746  0.6185  0.5345
38235SOL    HW116712   3.440   7.661   4.959  0.2046  0.4249 -0.0908
38235SOL    HW216713   3.407   7.800   5.007 -0.4212 -0.0245  0.8254
38236SOL     OW16714   8.332   6.716   6.689  0.0119 -0.4908  0.1724
38236SOL    HW116715   8.280   6.638   6.704 -2.1689  0.6390 -1.0731
38236SOL    HW216716   8.345   6.719   6.594 -2.0778  1.8619 -0.1384
38237SOL     OW16717   0.558   3.963   8.567 -0.5721 -0.3294  0.1454
38237SOL    HW116718   0.615   4.029   8.604 -1.1467 -0.8227  1.9911
38237SOL    HW216719   0.612   3.884   8.562 -0.4392 -0.2141 -0.2604
38238SOL     OW16720   0.671   7.725   1.840 -0.1418  0.3939  0.0946
38238SOL    HW116721   0.637   7.756   1.924 -0.4473  0.8711 -0.2017
38238SOL    HW216722   0.689   7.805   1.790  0.6030  0.1294 -0.0774
38239SOL     OW16723   0.694   5.916   5.234 -0.3632  0.2565 -0.3057
38239SOL    HW116724   0.621   5.947   5.287  0.1934  2.0848 -0.5184
38239SOL    HW216725   0.711   5.988   5.173  0.0758 -1.1062 -1.8763
38240SOL     OW16726   1.414   8.334   6.384 -0.2043  0.0075  0.0202
38240SOL    HW116727   1.435   8.244   6.358  1.5264  0.1272  0.8469
38240SOL    HW216728   1.328   8.350   6.347  0.2524 -1.3450 -1.7850
38241SOL     OW16729   3.680   8.560   8.285  0.2179  0.3281 -0.3619
38241SOL    HW116730   3.603   8.562   8.342  0.9932  0.1859  0.7130
38241SOL    HW216731   3.736   8.630   8.318  0.6569  0.2744 -0.9888
38242SOL     OW16732   3.100   8.142   3.334 -0.2576  0.0446  0.1710
38242SOL    HW116733   3.014   8.101   3.334  0.8116 -2.3725 -0.8404
38242SOL    HW216734   3.108   8.181   3.246 -0.8337  1.5603  0.7548
38243SOL     OW16735   8.348  10.413  10.452  0.1642 -0.2758 -0.5783
38243SOL    HW116736   8.410  10.413  10.379  1.3102  0.4117  0.3621
38243SOL    HW216737   8.262  10.421  10.411  0.6643 -1.4285 -1.9232
38244SOL     OW16738   7.236   7.011   8.541 -0.6121  0.1956 -0.0014
38244SOL    HW116739   7.241   6.978   8.631 -1.3526 -0.3419 -0.1511
38244SOL    HW216740   7.312   6.972   8.497 -0.4304  0.2026  0.3057
38245SOL     OW16741  10.939   1.436   2.444 -0.1867  0.1870 -0.5106
38245SOL    HW116742  10.979   1.461   2.528 -0.0726  0.2834 -0.5926
38245SOL    HW216743  11.013   1.413   2.388 -0.1895  1.0691 -0.8936
38246SOL     OW16744   7.894   4.093   3.494 -0.7883  0.1878 -0.5669
38246SOL    HW116745   7.834   4.028   3.457 -0.4385  0.4146 -1.5547
38246SOL    HW216746   7.836   4.158   3.535 -1.2750  0.7896 -2.1472
38247SOL     OW16747   9.064   1.342   9.137  0.2918  0.0472  0.5098
38247SOL    HW116748   9.142   1.285   9.135  1.6566  1.8335 -0.4377
38247SOL    HW216749   9.088   1.414   9.195 -0.3207  1.0316 -0.4125
38248SOL     OW16750   2.094   7.193   4.837  0.2494 -0.2116 -0.5900
38248SOL    HW116751   2.090   7.102   4.805 -3.7349 -1.1819  1.9412
38248SOL    HW216752   2.016   7.234   4.801 -0.2225  0.9195  1.6231
38249SOL     OW16753   0.996   3.405   6.190  0.2947 -0.0141 -0.1238
38249SOL    HW116754   1.015   3.437   6.278 -1.3141  1.6050 -0.3037
38249SOL    HW216755   0.990   3.310   6.200 -0.6644  0.2008  1.7059
38250SOL     OW16756   7.196   0.064   9.813 -0.4875 -0.0641  0.1870
38250SOL    HW116757   7.233   0.115   9.741  1.0566 -0.7340  0.4624
38250SOL    HW216758   7.242   0.096   9.890 -0.5602 -0.8457  0.5639
38251SOL     OW16759   7.422   2.941   1.138 -0.1764  0.0759  0.4175
38251SOL    HW116760   7.469   3.017   1.106 -1.1675  0.2191 -0.7788
38251SOL    HW216761   7.391   2.897   1.059 -0.5210 -0.9875  1.1220
38252SOL     OW16762   1.668   2.628   9.048  0.1911 -0.4065 -0.0497
38252SOL    HW116763   1.600   2.577   9.005  1.9127 -1.9701 -1.0811
38252SOL    HW216764   1.653   2.615   9.142 -0.8849 -0.7439 -0.2620
38253SOL     OW16765   6.440   7.083   8.325 -0.5449 -0.4385 -0.4449
38253SOL    HW116766   6.497   7.010   8.299  1.5222  0.5882  0.9468
38253SOL    HW216767   6.354   7.043   8.337  0.7042 -2.8994  1.2032
38254SOL     OW16768   5.056   0.870   8.281 -0.0935  0.6928 -0.0213
38254SOL    HW116769   5.022   0.835   8.199 -2.8427  0.6881  1.0329
38254SOL    HW216770   5.132   0.815   8.301 -0.3744 -0.3651 -1.6835
38255SOL     OW16771   3.753   8.880   1.958 -0.0385 -0.3561  0.3804
38255SOL    HW116772   3.794   8.919   1.881  1.0213 -0.0470  1.0723
38255SOL    HW216773   3.808   8.805   1.979 -0.7259 -0.8524  0.4287
38256SOL     OW16774   5.794  10.550  11.074  0.1611 -0.1379 -0.0221
38256SOL    HW116775   5.865  10.608  11.047 -0.6188  1.6507  1.4929
38256SOL    HW216776   5.835  10.464  11.084  1.7452  0.4950 -0.7061
38257SOL     OW16777   9.109   4.922   3.892  0.2401 -0.0230  0.4535
38257SOL    HW116778   9.140   4.907   3.982  1.8872  2.2587  0.3624
38257SOL    HW216779   9.036   4.984   3.903 -0.8261 -1.2120  0.2964
38258SOL     OW16780   9.670   0.560   4.175 -0.7317  0.4723 -0.4655
38258SOL    HW116781   9.761   0.553   4.146 -0.6893 -1.3429 -0.0103
38258SOL    HW216782   9.619   0.518   4.106 -1.1300  0.5187 -0.2054
38259SOL     OW16783   7.745   3.572   7.072  0.0093  0.6728 -0.0844
38259SOL    HW116784   7.782   3.535   7.152 -1.7388  3.0338  1.9581
38259SOL    HW216785   7.812   3.557   7.005  1.8175 -0.8211  1.9363
38260SOL     OW16786  10.224   9.692   5.319 -0.1798  0.4297  0.1793
38260SOL    HW116787  10.197   9.736   5.238 -1.6593 -0.8508 -0.0637
38260SOL    HW216788  10.184   9.743   5.389  0.7261  1.2779  0.0932
38261SOL     OW16789   6.601   4.521   0.029  0.5943  0.1506 -0.5806
38261SOL    HW116790   6.610   4.524   0.124  0.9135  0.4960 -0.6222
38261SOL    HW216791   6.563   4.605   0.005 -1.2099 -0.6117 -0.5868
38262SOL     OW16792   4.440   3.891   6.245  0.1946 -0.2327 -0.1325
38262SOL    HW116793   4.424   3.799   6.226  0.2936 -0.2334 -0.2123
38262SOL    HW216794   4.481   3.891   6.331 -1.2096 -0.1616  0.5551
38263SOL     OW16795   2.683   3.685   3.756 -0.2176  0.0896 -0.3447
38263SOL    HW116796   2.777   3.699   3.747  0.1322 -0.7814  1.5809
38263SOL    HW216797   2.656   3.647   3.672  1.1537  0.1934 -0.8535
38264SOL     OW16798   2.957   8.903   8.247 -0.4398 -0.4450  0.3447
38264SOL    HW116799   3.020   8.972   8.269  1.5696 -1.8713 -0.5389
38264SOL    HW216800   2.874   8.949   8.236  0.2620  1.4672  2.1613
38265SOL     OW16801   5.657   6.451   2.034 -0.0521 -0.2661 -0.8378
38265SOL    HW116802   5.583   6.511   2.029  1.9577  2.7684  1.8145
38265SOL    HW216803   5.725   6.491   1.980  1.3107 -0.0521  0.9274
38266SOL     OW16804  10.593   9.320   5.272 -1.0775 -0.4085 -0.2028
38266SOL    HW116805  10.599   9.245   5.213 -1.5302  0.3200 -1.2120
38266SOL    HW216806  10.618   9.395   5.219 -1.4228  0.2666  0.5539
38267SOL     OW16807   6.867   0.056   0.920  0.1210 -0.0945  0.4641
38267SOL    HW116808   6.894   0.127   0.863  0.5247  1.4842  2.4927
38267SOL    HW216809   6.796   0.093   0.973 -1.6513 -2.1193 -0.3267
38268SOL     OW16810   2.689   1.122  10.109 -0.0980 -0.3008 -0.0113
38268SOL    HW116811   2.782   1.119  10.089  0.0882 -0.3803  0.8449
38268SOL    HW216812   2.646   1.104  10.025  0.6788 -2.5939  0.0251
38269SOL     OW16813   9.742   8.345   8.993 -0.1843  0.6475  0.0900
38269SOL    HW116814   9.667   8.404   8.995 -1.7124 -0.9087 -3.2648
38269SOL    HW216815   9.714   8.268   9.041  0.3527  1.1131  1.1757
38270SOL     OW16816   6.809   2.251   7.909 -0.0550  0.6845 -0.2826
38270SOL    HW116817   6.814   2.312   7.983  1.5726 -0.5832  0.6999
38270SOL    HW216818   6.897   2.217   7.899 -0.6950 -0.7310 -1.5036
38271SOL     OW16819   1.955   7.232  10.558  0.1877 -0.2051  0.2313
38271SOL    HW116820   1.920   7.290  10.626 -0.7954 -0.4836 -0.0303
38271SOL    HW216821   1.999   7.162  10.606  0.7697  0.3744  0.5568
38272SOL     OW16822   1.193   5.120   6.229 -0.2935  1.0254 -0.1131
38272SOL    HW116823   1.149   5.114   6.144 -0.9589 -2.3461  0.3204
38272SOL    HW216824   1.269   5.062   6.221 -1.0548 -0.3676  1.8953
38273SOL     OW16825   1.738   2.498   7.770  0.1263 -0.1623  0.8464
38273SOL    HW116826   1.786   2.421   7.740  4.3589  2.8172 -0.9673
38273SOL    HW216827   1.700   2.536   7.691 -1.9580 -0.2668  1.7147
38274SOL     OW16828   0.788   4.080   6.728 -0.2917 -0.7600 -1.0388
38274SOL    HW116829   0.842   4.009   6.763  0.6970  0.6779  0.5286
38274SOL    HW216830   0.710   4.081   6.784  1.4712  1.8005  1.6780
38275SOL     OW16831   8.759   7.407   5.381 -1.0010  0.4135 -0.0220
38275SOL    HW116832   8.749   7.378   5.472 -1.2857  1.8565  0.4324
38275SOL    HW216833   8.784   7.499   5.388  3.7460 -0.5211 -1.2636
38276SOL     OW16834   1.010   4.078   9.154 -0.3374  0.1927 -0.3563
38276SOL    HW116835   1.074   4.084   9.225  0.8389  2.8446 -1.4904
38276SOL    HW216836   1.052   4.021   9.089 -0.3974 -0.3677  0.0942
38277SOL     OW16837   3.940  10.572   3.930  0.3868  0.2029  0.2050
38277SOL    HW116838   3.900  10.543   3.848  0.8699 -4.1891  1.2536
38277SOL    HW216839   3.876  10.550   3.998  1.6852 -0.3910  1.3119
38278SOL     OW16840   7.371   9.205   5.112 -0.0039  0.1621  0.6165
38278SOL    HW116841   7.314   9.201   5.034 -1.3903  0.4142  1.5774
38278SOL    HW216842   7.437   9.138   5.096 -0.9256 -0.5732 -0.2975
38279SOL     OW16843   3.920   1.813  10.552  0.6535 -0.2390 -0.3853
38279SOL    HW116844   3.826   1.799  10.566  0.1367  2.0885 -1.1246
38279SOL    HW216845   3.959   1.727  10.566 -1.3290 -0.8675  1.9422
38280SOL     OW16846   1.786   4.404   1.608  0.4617 -0.5717 -0.1452
38280SOL    HW116847   1.712   4.444   1.563  0.9336  1.3900  0.7026
38280SOL    HW216848   1.748   4.333   1.659 -1.9661  3.2502  4.2304
38281SOL     OW16849  10.625   9.913  10.016 -0.1019  0.1475 -0.5121
38281SOL    HW116850  10.683   9.987   9.998  1.8034 -1.3317 -0.6892
38281SOL    HW216851  10.665   9.839   9.970 -2.5584 -0.7962 -1.3045
38282SOL     OW16852   2.175   4.810  11.050 -0.4106  0.6267 -0.6915
38282SOL    HW116853   2.262   4.829  11.087  0.0777  1.1484 -2.0651
38282SOL    HW216854   2.119   4.880  11.084 -0.1703  0.6280 -0.2807
38283SOL     OW16855   6.696   3.130   8.155  0.3554 -0.7704 -0.0425
38283SOL    HW116856   6.643   3.081   8.218  0.9512 -2.9749 -1.1410
38283SOL    HW216857   6.694   3.220   8.186 -3.0361 -0.9422  0.6465
38284SOL     OW16858   0.205   5.107   1.400 -0.3439  0.1471 -0.0230
38284SOL    HW116859   0.236   5.192   1.430  0.7924 -0.0312 -0.6433
38284SOL    HW216860   0.124   5.126   1.353  0.3940  1.0220 -0.9759
38285SOL     OW16861   9.906   6.064   6.618 -0.2458 -0.3124 -0.3162
38285SOL    HW116862   9.924   6.007   6.694  1.9288  0.4423 -0.1942
38285SOL    HW216863   9.811   6.065   6.612 -0.4890 -0.7425  2.1598
38286SOL     OW16864   5.413   1.073   4.633 -0.1384 -0.0206  0.0536
38286SOL    HW116865   5.465   1.149   4.659 -1.1377 -0.0992  2.6635
38286SOL    HW216866   5.323   1.100   4.648 -0.5414 -1.4949  0.4346
38287SOL     OW16867   3.198   0.791   6.548 -0.4566  0.5500  0.3339
38287SOL    HW116868   3.251   0.758   6.620 -0.2536  0.6468  0.2295
38287SOL    HW216869   3.217   0.885   6.545 -0.6906  0.6005  0.3431
38288SOL     OW16870   1.378   0.284   5.169  0.3273  0.0138  0.0947
38288SOL    HW116871   1.361   0.356   5.108  0.7099 -0.6266 -0.7803
38288SOL    HW216872   1.470   0.295   5.192  0.3448 -0.1029  0.0792
38289SOL     OW16873   5.368   5.971   3.438 -0.0003 -0.6644  0.5586
38289SOL    HW116874   5.391   6.028   3.511  0.6377 -1.9672  1.4244
38289SOL    HW216875   5.344   6.030   3.367 -1.1005  0.6445  1.9591
38290SOL     OW16876   6.079   2.768   2.475 -0.0843  0.2575  0.7561
38290SOL    HW116877   6.126   2.743   2.396  0.0736 -2.6964  1.6538
38290SOL    HW216878   5.988   2.743   2.459 -0.5830  2.0368  0.6041
38291SOL     OW16879  10.073  11.013   3.674 -0.5224  0.2635 -0.1861
38291SOL    HW116880  10.099  11.098   3.637 -1.1669  1.2138  1.4263
38291SOL    HW216881  10.004  10.981   3.616 -0.3444  0.9015 -0.7569
38292SOL     OW16882   6.615   9.554   2.993  0.2336 -0.5645 -0.0990
38292SOL    HW116883   6.539   9.602   3.025  0.3052 -0.3368 -0.2711
38292SOL    HW216884   6.678   9.556   3.066  1.2281  1.7390 -0.9510
38293SOL     OW16885   2.680  10.864   9.633 -0.7110 -0.4861  0.3003
38293SOL    HW116886   2.717  10.879   9.546  2.1444 -0.7578  1.3615
38293SOL    HW216887   2.673  10.952   9.671 -1.0814 -0.4452  0.1428
38294SOL     OW16888   6.593   7.315   9.139  0.0366  0.3606 -0.4156
38294SOL    HW116889   6.510   7.344   9.176  0.4896  0.5129  0.5288
38294SOL    HW216890   6.638   7.272   9.212  0.4560 -0.4277 -1.1221
38295SOL     OW16891   2.692   4.894   9.342  0.2992  0.2598  0.3222
38295SOL    HW116892   2.731   4.889   9.255 -1.4746 -2.6189 -0.4458
38295SOL    HW216893   2.673   4.987   9.355  0.5752  0.7687 -2.3956
38296SOL     OW16894   1.034   9.175   1.805 -0.0523 -0.2907 -0.2027
38296SOL    HW116895   1.044   9.107   1.738 -1.2774  1.3353 -2.1256
38296SOL    HW216896   1.101   9.240   1.784 -1.6397  1.1422 -1.0950
38297SOL     OW16897  10.927   5.627   7.163 -0.1845 -0.3218  0.4683
38297SOL    HW116898  10.898   5.653   7.075 -0.5124 -1.2570  0.2887
38297SOL    HW216899  10.908   5.703   7.218  2.9930  1.5958 -0.8034
38298SOL     OW16900   3.081   8.119   7.192 -0.0986 -0.8124  0.2118
38298SOL    HW116901   3.025   8.107   7.269  1.3670 -0.1522  1.4308
38298SOL    HW216902   3.124   8.035   7.181 -0.0110 -0.7863  0.3568
38299SOL     OW16903   9.260   6.888   5.706 -0.1724  0.2984 -0.0343
38299SOL    HW116904   9.203   6.812   5.699  1.2329 -0.6337 -2.9867
38299SOL    HW216905   9.203   6.963   5.687 -1.0949 -0.1941  0.6773
38300SOL     OW16906   1.531   4.957   8.189 -0.6790  0.2501 -0.2266
38300SOL    HW116907   1.572   4.878   8.225 -0.0752  0.7230  0.1403
38300SOL    HW216908   1.579   4.975   8.109 -2.7415 -1.4387 -1.9465
38301SOL     OW16909   1.838   8.684   8.842  1.3336  0.1082 -0.1902
38301SOL    HW116910   1.838   8.721   8.754 -0.2305  1.9824  0.5143
38301SOL    HW216911   1.926   8.701   8.875  0.9206  2.6415 -0.2031
38302SOL     OW16912   4.241   1.951  10.184  0.7928 -0.4017  0.0720
38302SOL    HW116913   4.247   2.018  10.115  0.1754 -0.3187  0.0949
38302SOL    HW216914   4.154   1.912  10.172  0.0987  0.5616  1.6807
38303SOL     OW16915   3.786   6.688   9.856 -0.7384 -0.9001  0.2297
38303SOL    HW116916   3.851   6.709   9.922  1.8895 -0.3123 -2.3409
38303SOL    HW216917   3.717   6.754   9.867  0.5242  0.3048  1.2123
38304SOL     OW16918   9.851   7.786   2.042 -1.1568  0.1839  0.0724
38304SOL    HW116919   9.909   7.829   1.980 -0.2641 -2.9935 -1.5127
38304SOL    HW216920   9.769   7.775   1.995 -0.6822 -1.6731 -0.3823
38305SOL     OW16921   8.021   2.829   5.936 -0.6300 -0.8052 -0.3894
38305SOL    HW116922   7.934   2.847   5.973 -0.9491 -1.4609 -0.8106
38305SOL    HW216923   8.066   2.913   5.942 -0.9336 -0.6966  0.7758
38306SOL     OW16924   9.555   9.322   1.606 -0.8237 -0.3579 -0.1033
38306SOL    HW116925   9.551   9.311   1.510 -0.1167 -0.1775 -0.1596
38306SOL    HW216926   9.571   9.234   1.639  0.2142 -0.2395 -0.2472
38307SOL     OW16927  10.717   7.448   7.709  0.4880 -0.6733 -1.0234
38307SOL    HW116928  10.630   7.489   7.707  0.3401 -0.9549 -0.5574
38307SOL    HW216929  10.711   7.376   7.646 -0.5171 -2.4315  0.9779
38308SOL     OW16930   7.445   9.908   9.160 -0.4214  0.8279  0.0996
38308SOL    HW116931   7.488   9.923   9.244 -1.3887  1.9751  0.4144
38308SOL    HW216932   7.434   9.995   9.122 -1.6834  0.4986 -0.3467
38309SOL     OW16933   7.669   7.603   4.850  0.1385  0.4157  0.2647
38309SOL    HW116934   7.679   7.598   4.755  1.0661  1.9177  0.2330
38309SOL    HW216935   7.614   7.529   4.873 -1.9483  1.2378 -1.7023
38310SOL     OW16936   9.942   2.058   2.934  0.3863  0.2486  0.5253
38310SOL    HW116937   9.931   2.153   2.931  1.6614  0.4299 -2.8205
38310SOL    HW216938   9.869   2.027   2.987 -2.1037  2.9021 -1.0482
38311SOL     OW16939   7.591   9.431   9.065 -0.7627 -0.4009  0.2136
38311SOL    HW116940   7.586   9.527   9.061 -0.0997 -0.2928  1.6457
38311SOL    HW216941   7.500   9.402   9.062 -1.3037  0.4980  3.9719
38312SOL     OW16942   6.068   3.832   0.743 -0.0379  0.5283 -0.0941
38312SOL    HW116943   6.120   3.786   0.677  2.8440  1.7915  1.1507
38312SOL    HW216944   6.088   3.788   0.825  1.0867  2.5673  0.7892
38313SOL     OW16945  10.901   5.438   0.781 -0.5108  0.3958 -0.0603
38313SOL    HW116946  10.910   5.481   0.866 -3.2030 -1.6633  1.4433
38313SOL    HW216947  10.972   5.374   0.778 -0.8790 -0.0879  1.0705
38314SOL     OW16948   9.687   3.786   0.347  0.3486  0.9438 -0.6996
38314SOL    HW116949   9.637   3.854   0.392 -1.1150  0.1277 -1.0243
38314SOL    HW216950   9.662   3.795   0.255 -0.2275 -0.2928 -0.6912
38315SOL     OW16951   0.746   0.564   7.531 -0.0949 -0.0391  0.2011
38315SOL    HW116952   0.819   0.625   7.541  0.7615 -0.9588 -0.3167
38315SOL    HW216953   0.724   0.538   7.621 -0.9952  1.5768  0.5085
38316SOL     OW16954   6.758   7.709   1.230 -0.5027  0.4707  0.2478
38316SOL    HW116955   6.703   7.639   1.265  0.0425  1.4490  3.4073
38316SOL    HW216956   6.842   7.667   1.212 -1.2018 -0.3341 -1.3251
38317SOL     OW16957   7.993   8.458   8.069 -0.1333 -0.0665 -0.1675
38317SOL    HW116958   8.083   8.458   8.036 -0.6844 -3.2611 -2.0793
38317SOL    HW216959   7.966   8.366   8.067 -4.1311  0.9006 -1.7374
38318SOL     OW16960   7.496   8.707   8.855 -0.7590  0.7447  0.3337
38318SOL    HW116961   7.415   8.684   8.810 -1.4570  0.7916  1.5047
38318SOL    HW216962   7.516   8.796   8.825 -0.2340  0.1494 -1.1754
38319SOL     OW16963   1.129   2.916   0.846  0.1994 -0.3610  0.5290
38319SOL    HW116964   1.183   2.841   0.823  1.0871  1.1602 -2.9332
38319SOL    HW216965   1.042   2.894   0.813 -0.0395 -0.5993  1.2798
38320SOL     OW16966   5.946   7.916   2.713 -0.7071 -0.0971  0.2495
38320SOL    HW116967   5.907   7.846   2.765  0.2613 -0.1512  0.9366
38320SOL    HW216968   5.978   7.872   2.634  1.2383 -0.7808  1.3289
38321SOL     OW16969   0.423   8.637  11.010  0.4986  0.7543 -0.4030
38321SOL    HW116970   0.471   8.577  11.067 -4.3050 -1.2409  2.1000
38321SOL    HW216971   0.383   8.580  10.944  0.4523  2.1225 -1.6056
38322SOL     OW16972  10.250   7.889   7.047 -0.6308 -0.1560  1.1961
38322SOL    HW116973  10.315   7.952   7.079  1.4939 -0.6332 -1.7604
38322SOL    HW216974  10.188   7.941   6.997  0.6808 -0.1990 -0.5810
38323SOL     OW16975   2.011   7.404   8.932  0.5165  0.0267 -0.6012
38323SOL    HW116976   2.090   7.421   8.882  0.0835  1.0407 -0.9638
38323SOL    HW216977   2.038   7.341   8.998  0.9110 -2.0076 -2.5865
38324SOL     OW16978   6.037  10.059   7.090  0.1620 -0.0112  0.1857
38324SOL    HW116979   5.964  10.012   7.051  0.8879  0.2541 -1.5810
38324SOL    HW216980   6.010  10.076   7.180 -1.6976 -0.4280 -0.2674
38325SOL     OW16981   7.457   0.703   1.844 -0.1530  0.5940 -0.1137
38325SOL    HW116982   7.486   0.794   1.845 -1.6806  1.1486 -1.2586
38325SOL    HW216983   7.516   0.657   1.904  0.5347  2.3654  0.6103
38326SOL     OW16984  11.037   2.933  10.038  0.0590  0.2616  0.2318
38326SOL    HW116985  11.057   3.025  10.018 -0.4195  0.1260 -0.9588
38326SOL    HW216986  10.950   2.920  10.002  0.5490 -0.9513 -0.5652
38327SOL     OW16987   4.432   4.602   7.106  0.7451 -0.1781 -0.1392
38327SOL    HW116988   4.387   4.663   7.047  1.6141  0.5592 -0.0513
38327SOL    HW216989   4.367   4.581   7.173  1.0603  2.3483  1.0558
38328SOL     OW16990   3.053   9.556   5.633 -0.2012  0.2307  0.5201
38328SOL    HW116991   3.131   9.508   5.606  0.8512  0.7954  2.3306
38328SOL    HW216992   2.996   9.489   5.671 -1.0433 -0.3222 -1.5724
38329SOL     OW16993   6.274   6.807   7.226 -0.1722  0.7948  0.1182
38329SOL    HW116994   6.291   6.715   7.204 -1.2923  0.8691 -1.1952
38329SOL    HW216995   6.224   6.841   7.151 -1.3280  1.9899  1.3644
38330SOL     OW16996   2.294  10.260   1.404  0.3255 -0.0579 -0.2361
38330SOL    HW116997   2.303  10.168   1.378 -0.4887 -0.3289  0.3816
38330SOL    HW216998   2.207  10.285   1.375  0.1764  0.2296  0.4499
38331SOL     OW16999   0.384   9.674   0.451 -0.0783  0.2719 -0.0690
38331SOL    HW117000   0.373   9.737   0.380  2.7914 -0.6390 -1.5065
38331SOL    HW217001   0.466   9.628   0.429 -0.6187 -2.0792  2.3201
38332SOL     OW17002   9.530   3.278   7.376  0.3112  0.5731  0.4118
38332SOL    HW117003   9.435   3.278   7.364  0.0052  0.3457  2.4843
38332SOL    HW217004   9.551   3.369   7.399  0.8213  0.9319 -1.3612
38333SOL     OW17005   1.943   9.848   6.348  0.1327 -0.5434 -0.1886
38333SOL    HW117006   2.024   9.808   6.379  1.3199  3.5420  2.8896
38333SOL    HW217007   1.971   9.924   6.297 -1.7362  0.6244  0.4137
38334SOL     OW17008   3.933   0.823   8.002 -0.0157  0.6175  0.2840
38334SOL    HW117009   3.867   0.834   7.934  0.4064  2.2026  0.1001
38334SOL    HW217010   3.883   0.803   8.081 -0.5636 -0.2818 -0.2610
38335SOL     OW17011  10.449   8.065   5.983 -0.6014 -0.3909 -0.0007
38335SOL    HW117012  10.513   8.136   5.991 -0.5994 -0.3354 -0.4994
38335SOL    HW217013  10.380   8.101   5.927 -1.2017 -0.3610  0.7351
38336SOL     OW17014   9.849   4.363   5.566 -0.2177 -0.0229  0.5001
38336SOL    HW117015   9.781   4.431   5.567 -0.8627 -0.5275 -1.8302
38336SOL    HW217016   9.831   4.313   5.486  2.7911 -0.2999 -0.1181
38337SOL     OW17017   6.496  10.273   5.470  0.2178  0.2616  0.0651
38337SOL    HW117018   6.536  10.235   5.548 -2.1958 -1.7930  0.4059
38337SOL    HW217019   6.518  10.212   5.400  1.2545  1.4148 -0.6657
38338SOL     OW17020   4.049  10.179   3.342  0.1586  0.0677  0.1498
38338SOL    HW117021   3.976  10.236   3.367  0.5198  0.3748  0.5301
38338SOL    HW217022   4.026  10.093   3.378 -0.0002  0.1726  0.3017
38339SOL     OW17023   8.097   6.716  10.016  0.2210  0.1023  0.0211
38339SOL    HW117024   8.081   6.627   9.987  1.6199 -0.5110  0.9910
38339SOL    HW217025   8.189   6.733   9.994  0.8185  0.2352  2.3494
38340SOL     OW17026   2.639  10.150  10.920 -0.1914  0.7750  0.2867
38340SOL    HW117027   2.566  10.195  10.878 -0.0667  0.6229 -0.0959
38340SOL    HW217028   2.668  10.210  10.988 -3.0792 -0.6404  3.0384
38341SOL     OW17029   7.341   2.612   2.331 -0.1922 -0.0525  0.2333
38341SOL    HW117030   7.390   2.668   2.392 -1.3192  0.6817  0.4843
38341SOL    HW217031   7.394   2.533   2.324  0.7875  0.5270  0.8744
38342SOL     OW17032   5.205   5.750  10.972 -0.4227 -0.7248  0.3856
38342SOL    HW117033   5.176   5.830  11.016  0.5740 -1.0489  1.6889
38342SOL    HW217034   5.255   5.780  10.897 -0.9955 -0.1423  0.2296
38343SOL     OW17035   7.867   4.414  10.944 -0.2201  0.3804 -0.0540
38343SOL    HW117036   7.938   4.416  11.008  0.6224  0.0908 -0.9530
38343SOL    HW217037   7.875   4.328  10.902  0.3733  1.2220 -1.7598
38344SOL     OW17038  10.058   5.118   3.730 -0.6231 -0.1372 -0.4981
38344SOL    HW117039  10.080   5.208   3.753 -2.2139 -0.3309  2.2573
38344SOL    HW217040  10.134   5.086   3.681  0.0635  2.5828 -1.3887
38345SOL     OW17041   6.265   0.315   1.462 -0.0576 -0.7198  0.3914
38345SOL    HW117042   6.238   0.326   1.553 -0.8375 -0.7324  0.1661
38345SOL    HW217043   6.361   0.310   1.466  0.3372  3.4856  0.8039
38346SOL     OW17044   1.789   6.926   1.239 -0.8724  0.4187 -0.3703
38346SOL    HW117045   1.842   6.896   1.165  1.8724 -0.8272  1.9231
38346SOL    HW217046   1.784   7.021   1.226  1.1570  0.4801 -1.2373
38347SOL     OW17047   4.144   1.415   0.334 -0.9288  0.0716  0.7503
38347SOL    HW117048   4.129   1.437   0.426  0.6017 -1.3560  1.3893
38347SOL    HW217049   4.216   1.472   0.307 -0.1685 -0.7535  0.9932
38348SOL     OW17050  10.943   8.232   7.781 -0.5937  0.7110  0.3985
38348SOL    HW117051  10.973   8.314   7.821  0.5094  1.3879 -1.6414
38348SOL    HW217052  10.990   8.164   7.829  1.1165  1.5195 -0.0394
38349SOL     OW17053   3.644   4.647   0.170 -0.4669  0.5618  0.3560
38349SOL    HW117054   3.625   4.578   0.234 -2.8738  0.6237 -0.2228
38349SOL    HW217055   3.574   4.710   0.181  0.3079  1.6862 -0.8558
38350SOL     OW17056   7.962   5.508   7.311  0.1582 -0.5775  0.2452
38350SOL    HW117057   7.884   5.532   7.363  0.5325 -0.8912  0.9640
38350SOL    HW217058   7.931   5.508   7.221 -0.3453  0.6759  0.3908
38351SOL     OW17059   7.783   3.943   5.146 -0.3902 -0.2454  0.0888
38351SOL    HW117060   7.688   3.955   5.154 -0.3964  0.7080 -1.2116
38351SOL    HW217061   7.816   3.955   5.235 -1.4629 -0.4390  0.5304
38352SOL     OW17062   5.955   3.605   2.162  0.5660  0.4031  0.4358
38352SOL    HW117063   6.001   3.681   2.198 -0.8074  0.7300  1.5648
38352SOL    HW217064   5.886   3.643   2.107  0.3887 -0.0379  0.3516
38353SOL     OW17065   8.355   2.584   6.284 -0.0687 -0.4406  0.3680
38353SOL    HW117066   8.286   2.562   6.220 -1.3544  1.2793  1.0953
38353SOL    HW217067   8.380   2.673   6.263  0.2783 -0.2348  1.5753
38354SOL     OW17068   8.803   8.946   0.659 -0.2788 -0.1890 -0.0767
38354SOL    HW117069   8.898   8.953   0.657 -0.2138  0.0017  2.0982
38354SOL    HW217070   8.783   8.896   0.738 -2.0317  1.0828  0.3589
38355SOL     OW17071   2.863   4.765   7.689  0.0494 -0.0870  0.6498
38355SOL    HW117072   2.940   4.710   7.672  0.4824  0.7599 -0.2169
38355SOL    HW217073   2.789   4.707   7.675  0.4496 -0.0795 -1.9213
38356SOL     OW17074   8.185   0.801   6.630 -0.4613  0.1319  0.0864
38356SOL    HW117075   8.205   0.892   6.610  0.3028  0.3384  1.6091
38356SOL    HW217076   8.109   0.805   6.688  0.6297 -0.0327  1.5975
38357SOL     OW17077  10.687   2.044   9.593 -0.1656 -0.0530  0.1575
38357SOL    HW117078  10.646   2.081   9.515  0.0785  1.2921  0.6466
38357SOL    HW217079  10.780   2.060   9.582 -0.0854 -0.2364  0.5338
38358SOL     OW17080   5.919   2.894   4.978 -0.9378 -0.0584 -0.3358
38358SOL    HW117081   5.906   2.803   5.006 -1.4582  0.4628  1.2025
38358SOL    HW217082   6.013   2.910   4.991 -1.0143 -0.0983  0.3279
38359SOL     OW17083   1.482   2.518   4.198 -0.3205 -0.5273  0.2241
38359SOL    HW117084   1.567   2.560   4.210  0.1666 -1.0231 -1.2992
38359SOL    HW217085   1.460   2.533   4.106 -1.2004 -1.6398  0.2267
38360SOL     OW17086   8.333  10.059   5.455 -0.2079  0.3759  0.0117
38360SOL    HW117087   8.365   9.976   5.490  0.9931 -0.0950 -2.0402
38360SOL    HW217088   8.263  10.086   5.516 -0.1286 -1.7435  1.1236
38361SOL     OW17089   6.578   8.411   5.053  0.0040  0.3084 -0.0659
38361SOL    HW117090   6.566   8.378   5.142  1.5977 -1.3845 -0.4303
38361SOL    HW217091   6.536   8.345   4.997  0.2877  0.6039 -0.6360
38362SOL     OW17092   6.127   5.088   5.254 -0.3224  0.0415  0.5850
38362SOL    HW117093   6.148   5.101   5.161  0.3553 -0.6771  0.6319
38362SOL    HW217094   6.210   5.065   5.294 -0.8036 -0.6808  1.1864
38363SOL     OW17095   7.253   8.580   0.226  0.9447 -0.5216 -0.2852
38363SOL    HW117096   7.174   8.619   0.262  0.3420 -1.6084 -0.3989
38363SOL    HW217097   7.324   8.636   0.259  0.3403 -0.8351  1.7065
38364SOL     OW17098  10.871   9.084   3.197  0.0163 -0.2812 -0.5262
38364SOL    HW117099  10.880   9.179   3.189  0.1174 -0.3241 -0.9525
38364SOL    HW217100  10.778   9.071   3.214  0.5762  0.1919  4.3090
38365SOL     OW17101   2.564  10.799  10.289  0.1076 -0.3778 -1.1712
38365SOL    HW117102   2.573  10.789  10.384  0.8470 -0.6109 -1.2585
38365SOL    HW217103   2.482  10.756  10.268 -1.0719  1.3816 -0.3841
38366SOL     OW17104   8.977   9.820   2.896  0.4939  0.0193 -0.4093
38366SOL    HW117105   9.024   9.889   2.944 -0.5984 -0.2911  1.1910
38366SOL    HW217106   8.971   9.853   2.806  2.1301  0.8862 -0.2312
38367SOL     OW17107   2.480   6.836   7.974  0.2144  0.9396  0.0713
38367SOL    HW117108   2.390   6.804   7.974 -0.1216  1.8356 -0.7160
38367SOL    HW217109   2.516   6.808   7.890  1.0946 -0.4808  0.8715
38368SOL     OW17110   6.509   6.333   7.399  0.1211 -0.4090 -0.3876
38368SOL    HW117111   6.559   6.277   7.458  1.9653  0.8277 -0.7003
38368SOL    HW217112   6.559   6.334   7.317 -2.1238 -1.6932 -1.9022
38369SOL     OW17113   5.818   6.983   4.530  0.2655  0.0229  0.3363
38369SOL    HW117114   5.833   7.069   4.570 -1.0377  0.8986 -0.9613
38369SOL    HW217115   5.884   6.977   4.461 -1.2951  1.2401 -1.3767
38370SOL     OW17116   7.444   1.158   4.203 -0.1995  0.2898  0.7211
38370SOL    HW117117   7.419   1.065   4.201 -0.2635  0.2619  2.2801
38370SOL    HW217118   7.365   1.204   4.230 -0.0785  0.7909  0.2520
38371SOL     OW17119   7.055   4.444   8.189  0.1187  0.3779  0.2918
38371SOL    HW117120   6.963   4.418   8.198 -0.5338  2.5901  0.6346
38371SOL    HW217121   7.094   4.375   8.136 -2.2627  0.4384 -1.7173
38372SOL     OW17122   4.809   2.895   3.604  0.1113  0.1860  0.5406
38372SOL    HW117123   4.804   2.800   3.588 -0.6852  0.1249  1.1145
38372SOL    HW217124   4.823   2.932   3.517  1.2080 -0.5004  0.4026
38373SOL     OW17125   3.842   0.854   2.088  0.5098 -0.0432  0.4340
38373SOL    HW117126   3.890   0.776   2.063  0.7193 -0.8464  2.9899
38373SOL    HW217127   3.907   0.924   2.091  1.5920 -1.0210  3.4191
38374SOL     OW17128   0.923   4.233   0.040 -0.0021  0.4801  0.5996
38374SOL    HW117129   0.854   4.230   0.108 -1.7037 -1.9255 -1.0708
38374SOL    HW217130   0.993   4.178   0.075 -0.6914 -0.4069  0.6261
38375SOL     OW17131   7.804   8.652   2.751  1.1746 -0.1141  0.1564
38375SOL    HW117132   7.889   8.673   2.791  0.9912  2.9138 -0.8039
38375SOL    HW217133   7.759   8.736   2.744 -0.4345 -1.0805 -2.7323
38376SOL     OW17134   7.275   3.095   9.482  0.2184  0.8117 -0.5487
38376SOL    HW117135   7.242   3.058   9.563  0.8821 -0.0519 -0.6542
38376SOL    HW217136   7.369   3.076   9.483  0.3147  1.1837 -1.3059
38377SOL     OW17137   8.121   2.572   7.415 -0.5669 -0.6164 -0.2476
38377SOL    HW117138   8.156   2.517   7.345 -0.5333  0.7348 -1.3195
38377SOL    HW217139   8.197   2.603   7.462 -0.5215 -0.4728 -0.4178
38378SOL     OW17140   1.756   4.126   1.527 -0.2057 -0.0539 -0.0078
38378SOL    HW117141   1.840   4.158   1.493  0.0522 -1.2064 -0.5192
38378SOL    HW217142   1.690   4.166   1.471 -0.2004  2.5343  1.6653
38379SOL     OW17143   9.338   4.754   8.008 -0.2179  0.5118 -0.3058
38379SOL    HW117144   9.351   4.770   7.915 -0.7464  0.2699 -0.4242
38379SOL    HW217145   9.356   4.839   8.050  0.9016  0.4005 -0.5300
38380SOL     OW17146   8.407   6.539   7.055  0.1227  0.0989 -0.1541
38380SOL    HW117147   8.431   6.632   7.059  0.3322  0.0951  4.5951
38380SOL    HW217148   8.372   6.527   6.967  2.7706  3.9109 -2.0213
38381SOL     OW17149   8.667   2.506   1.950  0.5270 -0.3156  0.6672
38381SOL    HW117150   8.731   2.518   2.020  2.6284 -1.5150 -0.9533
38381SOL    HW217151   8.599   2.452   1.989  0.7537  0.5123  2.2803
38382SOL     OW17152   9.264   7.557   5.522  0.5373  0.5192  0.0434
38382SOL    HW117153   9.226   7.601   5.446 -1.3755  0.1846  0.7599
38382SOL    HW217154   9.245   7.615   5.596 -1.1874 -1.0087  0.8613
38383SOL     OW17155  11.097   7.739   7.177  0.1783  0.6625  0.4648
38383SOL    HW117156  11.147   7.799   7.233 -2.0004  2.3922  0.6754
38383SOL    HW217157  11.081   7.788   7.097 -1.4448  0.3091  0.5456
38384SOL     OW17158   2.677   0.827   5.067  0.4171  0.4444 -0.1653
38384SOL    HW117159   2.664   0.743   5.111 -0.5154  0.3575 -0.5780
38384SOL    HW217160   2.658   0.892   5.135  1.1720  0.3292  0.1630
38385SOL     OW17161   9.638   3.567   9.578 -0.1165 -0.0813  0.3449
38385SOL    HW117162   9.598   3.654   9.588 -0.8991 -0.5945  2.1828
38385SOL    HW217163   9.622   3.524   9.662  1.0222 -1.7050 -0.2229
38386SOL     OW17164   9.639   7.380   5.446 -0.8105  0.6835  0.2059
38386SOL    HW117165   9.710   7.343   5.499 -1.4242 -1.0168 -0.0800
38386SOL    HW217166   9.573   7.407   5.510 -1.7226 -1.7251  0.3925
38387SOL     OW17167   8.579   4.014   9.943  0.0679 -0.4301  0.1376
38387SOL    HW117168   8.488   4.015   9.973 -0.6136  0.5638 -1.7939
38387SOL    HW217169   8.611   4.102   9.963  1.8982 -1.8076  4.1977
38388SOL     OW17170   4.987   1.177   8.602 -0.3340  0.1774 -0.6186
38388SOL    HW117171   5.034   1.239   8.546  0.6385  0.7401  0.7551
38388SOL    HW217172   4.936   1.123   8.541  0.6141  0.8020 -2.0220
38389SOL     OW17173   2.878   6.182   9.555 -0.1582  0.0334 -0.5179
38389SOL    HW117174   2.835   6.265   9.533 -1.2922 -0.1900  0.7515
38389SOL    HW217175   2.837   6.154   9.637  3.4588  0.5454  1.6699
38390SOL     OW17176   2.976   6.449   7.081 -0.7038 -0.2143 -0.9189
38390SOL    HW117177   2.986   6.413   7.169  0.4210 -0.2036 -1.0172
38390SOL    HW217178   2.952   6.541   7.095 -1.0966 -0.3608 -0.6308
38391SOL     OW17179   4.617   0.056  10.316  0.2285 -0.3815 -0.6779
38391SOL    HW117180   4.597   0.149  10.305  2.7182  0.1699 -1.2922
38391SOL    HW217181   4.623   0.022  10.227  0.6095 -0.8135 -0.4920
38392SOL     OW17182   8.141   4.974   3.208 -0.1614  0.6986 -0.3662
38392SOL    HW117183   8.050   4.952   3.227 -0.9134  1.9184 -2.2446
38392SOL    HW217184   8.185   4.973   3.293 -2.1375  1.0734  0.7154
38393SOL     OW17185   4.240   5.035   6.557  0.6123 -0.4073 -0.4653
38393SOL    HW117186   4.278   5.085   6.485 -0.2554 -0.4260 -0.9455
38393SOL    HW217187   4.204   4.956   6.516 -1.2050  0.2682 -0.2680
38394SOL     OW17188   2.127   5.062   6.704  0.6023 -0.1365  0.5309
38394SOL    HW117189   2.042   5.087   6.669 -0.1121  0.1823  2.3701
38394SOL    HW217190   2.120   4.967   6.720  1.2468 -0.4604 -0.9746
38395SOL     OW17191   4.097   9.030   9.329  0.0053  0.6104 -0.2092
38395SOL    HW117192   4.134   9.107   9.286  0.1902  0.3884 -0.4482
38395SOL    HW217193   4.160   8.960   9.312 -0.3443  0.3149 -0.3091
38396SOL     OW17194   0.090   5.062   8.101 -0.6464 -0.1367 -0.6235
38396SOL    HW117195   0.043   4.996   8.049 -0.5166 -1.2791  0.6523
38396SOL    HW217196   0.028   5.134   8.109 -1.7233 -1.0844 -0.0589
38397SOL     OW17197   1.804   7.987   2.072 -0.4284 -0.3484 -0.5698
38397SOL    HW117198   1.876   7.924   2.082 -0.4977 -0.1407  1.7665
38397SOL    HW217199   1.796   7.999   1.978 -0.0605 -3.4445 -1.1068
38398SOL     OW17200   9.542   2.519   3.957 -0.0416 -0.3528 -0.3153
38398SOL    HW117201   9.465   2.500   3.904  0.5380 -0.4205 -1.1470
38398SOL    HW217202   9.591   2.437   3.958  0.3076 -0.1452 -0.2786
38399SOL     OW17203  10.194   3.330   6.558 -0.2407 -0.1022 -0.1363
38399SOL    HW117204  10.220   3.417   6.530 -0.9766 -0.0376 -0.6745
38399SOL    HW217205  10.158   3.290   6.478 -0.7980 -0.5435  0.3298
38400SOL     OW17206   2.939   0.073   6.026 -0.4536  0.0032 -0.2477
38400SOL    HW117207   2.892   0.097   6.106  0.2355  0.6688 -0.0291
38400SOL    HW217208   2.906   0.133   5.959 -1.0505 -0.5718 -0.4801
38401SOL     OW17209   0.640  10.209   1.860 -0.5755  0.5358  0.0720
38401SOL    HW117210   0.703  10.242   1.796 -2.0302  1.4987 -0.9098
38401SOL    HW217211   0.675  10.238   1.945  2.5369 -2.5669  0.0959
38402SOL     OW17212   3.427   9.407   3.225 -0.4806  0.6189  0.3609
38402SOL    HW117213   3.389   9.429   3.310 -0.6428  1.5371  0.0579
38402SOL    HW217214   3.461   9.318   3.236 -2.2974 -0.0515  0.7745
38403SOL     OW17215   8.790   0.508   1.629 -0.0999  0.2020 -0.3239
38403SOL    HW117216   8.804   0.579   1.568 -1.5347  0.2339 -0.6558
38403SOL    HW217217   8.865   0.450   1.617  0.8984  1.4561 -0.3061
38404SOL     OW17218   7.170  10.498   9.700  0.7829 -0.1876  0.0324
38404SOL    HW117219   7.087  10.452   9.688  0.1846  0.5408  1.2110
38404SOL    HW217220   7.231  10.453   9.642  0.0260 -1.9707  0.5619
38405SOL     OW17221   5.047   4.200   1.551  0.3154  0.5448 -0.0942
38405SOL    HW117222   5.086   4.187   1.637 -1.8422 -0.3852  0.8218
38405SOL    HW217223   4.996   4.121   1.535 -0.7857  1.4501 -1.3969
38406SOL     OW17224   7.456   8.943   3.671  0.0999  0.3642  0.2014
38406SOL    HW117225   7.548   8.915   3.666  0.8102  2.2529  1.3337
38406SOL    HW217226   7.416   8.882   3.732  1.0622  0.5228  1.0251
38407SOL     OW17227   9.570   6.879  10.361  0.6255  0.0687 -0.0188
38407SOL    HW117228   9.540   6.909  10.275  1.7838  0.9674 -0.1285
38407SOL    HW217229   9.501   6.907  10.422 -1.0316 -2.0248 -0.8109
38408SOL     OW17230   2.770  10.441   5.967  0.0162 -0.2750 -0.3613
38408SOL    HW117231   2.831  10.510   5.993 -0.9680  0.1573  0.9272
38408SOL    HW217232   2.716  10.480   5.898  1.4091 -0.7964 -1.8064
38409SOL     OW17233   1.686  10.580   2.152  0.4899 -0.6131  0.2502
38409SOL    HW117234   1.693  10.661   2.203  0.1062 -0.5238  0.1636
38409SOL    HW217235   1.757  10.524   2.185  1.5909  0.2444 -0.5780
38410SOL     OW17236   4.568   8.259   8.479  0.2265  0.4728  0.4106
38410SOL    HW117237   4.504   8.189   8.470  1.5822 -0.8978  1.0778
38410SOL    HW217238   4.601   8.250   8.568  0.7749  1.6781  0.3537
38411SOL     OW17239   0.468   3.128  10.192  0.3823  1.2726 -0.6980
38411SOL    HW117240   0.406   3.097  10.126  1.2322  2.1222 -1.9446
38411SOL    HW217241   0.512   3.202  10.151 -0.5733  3.2899  1.6243
38412SOL     OW17242   5.464   4.334   0.285 -0.0714  0.6331  0.1243
38412SOL    HW117243   5.469   4.408   0.346  0.8992  0.2256  0.5525
38412SOL    HW217244   5.432   4.261   0.339  1.6589  0.0336  0.4091
38413SOL     OW17245   9.024   7.992   7.226  0.2543  0.3709  0.3184
38413SOL    HW117246   9.082   7.950   7.291 -1.9715  0.0820  2.2548
38413SOL    HW217247   9.082   8.047   7.174  2.5679 -1.4726  0.7779
38414SOL     OW17248   2.133   1.496   9.190  0.0216 -0.1269  0.0754
38414SOL    HW117249   2.121   1.589   9.170  2.1110  0.5223  1.4789
38414SOL    HW217250   2.143   1.454   9.105 -2.0094  0.7328 -0.6368
38415SOL     OW17251   9.303   1.583   2.354  0.3078  0.1021  0.2570
38415SOL    HW117252   9.315   1.572   2.448 -0.3723  0.8879  0.4526
38415SOL    HW217253   9.379   1.633   2.326  0.3931  0.0745  0.4373
38416SOL     OW17254  10.389   4.955   1.828 -0.6582 -0.0213 -0.1181
38416SOL    HW117255  10.467   4.999   1.794  1.0208 -2.2494  0.5953
38416SOL    HW217256  10.346   5.021   1.882  1.1057  1.0972  0.0029
38417SOL     OW17257   8.975   4.237   4.023 -0.2773 -0.2039  0.6412
38417SOL    HW117258   8.947   4.300   4.089  0.5186  0.9746 -0.1160
38417SOL    HW217259   8.919   4.254   3.947  0.5348  0.2233  0.1203
38418SOL     OW17260   9.812   1.458   3.262 -0.5600  0.2913 -0.2344
38418SOL    HW117261   9.855   1.404   3.329  1.5925  0.4628 -1.3867
38418SOL    HW217262   9.772   1.395   3.203 -2.9818  0.1430  1.4242
38419SOL     OW17263   8.199   5.731   1.759  0.1380 -0.1839  0.4467
38419SOL    HW117264   8.154   5.793   1.702 -0.4064 -0.3842  0.6581
38419SOL    HW217265   8.217   5.655   1.703  0.8616  0.1875  0.1713
38420SOL     OW17266   5.960   2.545   4.801  0.4209 -0.2450  0.8282
38420SOL    HW117267   5.938   2.589   4.883 -2.0091  3.4318 -1.5009
38420SOL    HW217268   6.056   2.551   4.796  0.3897  4.3679  1.1413
38421SOL     OW17269   6.964   4.431   6.562 -0.1497 -0.1815 -0.0191
38421SOL    HW117270   7.037   4.374   6.585  0.6173 -0.4058 -2.7233
38421SOL    HW217271   7.004   4.504   6.514 -1.3337  1.7035  1.6971
38422SOL     OW17272   0.049   4.034   2.999 -0.1983  0.2382  0.0718
38422SOL    HW117273   0.105   4.083   3.059  0.1634 -1.8948  1.6389
38422SOL    HW217274   0.015   4.099   2.938  0.7164  2.2749  1.6098
38423SOL     OW17275   7.224   0.964   5.884 -0.4777 -0.3159 -0.1983
38423SOL    HW117276   7.201   0.980   5.793  0.1884  0.1474 -0.2960
38423SOL    HW217277   7.155   1.007   5.935 -2.3492 -2.7918 -0.4321
38424SOL     OW17278   5.102   1.020   3.337  0.4015 -0.1976  0.7116
38424SOL    HW117279   5.117   1.103   3.291 -0.2773 -0.7115 -0.4907
38424SOL    HW217280   5.013   1.028   3.371  1.6552  1.1439  4.1466
38425SOL     OW17281   8.636   9.752   5.089 -0.0492  0.3852 -0.2528
38425SOL    HW117282   8.640   9.817   5.019 -1.0571 -0.2670 -0.9648
38425SOL    HW217283   8.677   9.674   5.051  2.8043  1.0659  1.2162
38426SOL     OW17284   3.067   7.043   3.547  0.0567 -0.5999 -0.3703
38426SOL    HW117285   3.033   7.062   3.634  0.3692 -0.0445 -0.3690
38426SOL    HW217286   3.053   6.949   3.536  0.4884 -0.7657  0.4817
38427SOL     OW17287   1.299   1.863   3.995  0.2380 -0.3466  0.7663
38427SOL    HW117288   1.357   1.791   4.018 -0.9476 -1.4951  0.2698
38427SOL    HW217289   1.294   1.916   4.075  2.3025  0.0553  0.6685
38428SOL     OW17290   9.811   1.074   9.900 -1.1342 -0.5887 -0.8915
38428SOL    HW117291   9.810   1.162   9.862  0.0048  0.5517  1.4517
38428SOL    HW217292   9.841   1.017   9.829  0.6352  1.3481 -1.8115
38429SOL     OW17293   2.638   2.599   1.238 -0.0153 -0.1080 -0.7059
38429SOL    HW117294   2.708   2.623   1.299  0.4415 -0.4315 -1.0917
38429SOL    HW217295   2.577   2.547   1.290 -0.2103  0.5597 -0.2544
38430SOL     OW17296   8.935   0.148   2.330  0.1511 -0.5733  0.0552
38430SOL    HW117297   8.997   0.194   2.274 -1.0602 -0.9809 -1.7151
38430SOL    HW217298   8.931   0.200   2.410  3.1233 -0.8248  0.5008
38431SOL     OW17299   1.263   7.729  10.836  0.6877  0.2775  0.3247
38431SOL    HW117300   1.312   7.717  10.755  0.8442 -2.8293  0.7811
38431SOL    HW217301   1.181   7.682  10.821  0.7105 -0.3164  1.9566
38432SOL     OW17302  10.892   3.195   3.856  0.3163  0.1196 -0.2407
38432SOL    HW117303  10.949   3.263   3.818  0.4179  0.3345  0.2830
38432SOL    HW217304  10.888   3.127   3.789 -0.2880  0.9190 -1.0246
38433SOL     OW17305   9.751   5.308   6.112  0.7916 -0.4854  0.1776
38433SOL    HW117306   9.728   5.360   6.035 -0.8670 -0.9826  0.2785
38433SOL    HW217307   9.830   5.261   6.086  0.8786  0.1822 -0.8285
38434SOL     OW17308   2.349   1.679   6.167  0.0621 -0.1805  0.6780
38434SOL    HW117309   2.379   1.748   6.107 -1.7585  0.3002  0.2650
38434SOL    HW217310   2.326   1.725   6.247  0.7530 -0.5964  1.1301
38435SOL     OW17311   5.813   4.351   9.880  0.0886 -0.2698 -0.7294
38435SOL    HW117312   5.829   4.412   9.951  2.8990  0.4668 -1.8365
38435SOL    HW217313   5.782   4.271   9.923  0.0754  0.6768  1.1142
38436SOL     OW17314   4.738   1.441  10.559  0.3628 -0.6941 -0.0550
38436SOL    HW117315   4.715   1.529  10.529  1.3784 -0.3063  0.2728
38436SOL    HW217316   4.706   1.437  10.649  0.2744 -0.6815 -0.0857
38437SOL     OW17317   7.366   3.867   6.246  0.6485 -0.2064  1.1718
38437SOL    HW117318   7.326   3.941   6.292  1.2022  1.2645 -0.6165
38437SOL    HW217319   7.449   3.900   6.214 -1.1841  0.2469 -4.1303
38438SOL     OW17320   9.286   3.518  10.185  0.0886  0.3204 -0.9171
38438SOL    HW117321   9.263   3.551  10.272 -1.5609  0.7882 -1.4804
38438SOL    HW217322   9.263   3.425  10.188 -0.5899  0.4769 -1.0336
38439SOL     OW17323   5.668   2.004   2.804 -0.0760 -0.4766 -0.2241
38439SOL    HW117324   5.743   2.054   2.835 -0.2297 -0.3771 -0.0147
38439SOL    HW217325   5.689   1.913   2.827 -1.4319 -0.1484  2.7755
38440SOL     OW17326   5.342   0.195   6.789  0.2071 -0.3142 -0.9974
38440SOL    HW117327   5.315   0.140   6.863 -0.9600 -0.0987 -1.2399
38440SOL    HW217328   5.294   0.160   6.715  1.7637 -0.8565 -1.7968
38441SOL     OW17329   9.449   8.312   7.310 -0.2384 -0.3304 -0.4343
38441SOL    HW117330   9.526   8.363   7.334  0.5248 -0.2002 -2.8419
38441SOL    HW217331   9.477   8.221   7.319 -1.0957 -0.4106  2.3334
38442SOL     OW17332   6.123   6.059   4.086  0.3437 -0.0298 -0.1536
38442SOL    HW117333   6.185   6.064   4.014 -1.0925  0.4330 -1.4144
38442SOL    HW217334   6.119   6.148   4.120  0.2300 -0.0158 -0.2030
38443SOL     OW17335   8.513   6.582   7.751  0.8242 -0.0099  0.1886
38443SOL    HW117336   8.447   6.527   7.710  0.7046 -0.0823  0.4738
38443SOL    HW217337   8.510   6.664   7.702 -0.4722  0.5057  1.0756
38444SOL     OW17338   6.566   2.535   8.832  0.1502 -0.5279 -0.2461
38444SOL    HW117339   6.512   2.548   8.754 -0.8389 -0.9571  0.3617
38444SOL    HW217340   6.632   2.605   8.826 -0.9468  0.5269 -0.5754
38445SOL     OW17341   3.388   4.967   4.834  0.2911  0.3698 -0.2829
38445SOL    HW117342   3.359   5.033   4.897 -0.1942  1.0396 -1.1893
38445SOL    HW217343   3.471   5.002   4.799  1.4581 -0.8130  1.1943
38446SOL     OW17344   3.372   9.993   7.774 -0.6218  0.2565 -0.0215
38446SOL    HW117345   3.457  10.032   7.794 -0.7878  1.1917 -1.0367
38446SOL    HW217346   3.310  10.066   7.779 -1.3485 -0.3822  0.5576
38447SOL     OW17347   6.504   9.781  10.486  0.6140 -0.5812  0.6321
38447SOL    HW117348   6.489   9.731  10.405  0.0909  0.1957  0.2420
38447SOL    HW217349   6.416   9.803  10.517  0.8383  0.5679  0.4910
38448SOL     OW17350   1.028   5.375   7.559 -0.7421 -0.1396  0.1445
38448SOL    HW117351   1.067   5.308   7.504 -0.1490 -0.2341  0.6749
38448SOL    HW217352   1.041   5.456   7.509  0.6788 -0.0768  0.5653
38449SOL     OW17353   7.432   7.759  10.960  0.5176 -0.0714  0.1187
38449SOL    HW117354   7.476   7.677  10.937  2.4583  1.1027 -0.6129
38449SOL    HW217355   7.436   7.811  10.879  0.4126  1.1862  0.9036
38450SOL     OW17356   1.924   8.307   7.347  0.4917  0.4106  0.0287
38450SOL    HW117357   1.982   8.339   7.278  0.5718  1.7917  0.7132
38450SOL    HW217358   1.970   8.232   7.384 -1.0532 -2.7278 -3.6383
38451SOL     OW17359  10.753   2.053   6.083 -0.0182 -0.1321 -0.0722
38451SOL    HW117360  10.729   2.062   6.175  4.0191  1.0526  1.0970
38451SOL    HW217361  10.726   2.135   6.042 -1.7237 -0.6157  0.0460
38452SOL     OW17362   5.732   8.159   2.338  0.2876 -0.5485  0.3727
38452SOL    HW117363   5.800   8.207   2.386 -2.0304  1.1615  2.1699
38452SOL    HW217364   5.701   8.093   2.400 -0.3204 -0.6988 -0.0799
38453SOL     OW17365   8.816   2.824   9.690  0.5398 -0.1393 -0.2047
38453SOL    HW117366   8.770   2.780   9.618 -0.1556 -0.5173  0.4615
38453SOL    HW217367   8.904   2.786   9.688  0.8233  0.5047 -1.4132
38454SOL     OW17368   4.304   9.744   9.747  0.4502 -0.1310 -0.0107
38454SOL    HW117369   4.262   9.662   9.774  0.8396  0.0379  1.1714
38454SOL    HW217370   4.384   9.717   9.702 -0.6877 -0.4471 -1.9331
38455SOL     OW17371   5.995   2.568   0.415 -1.2648  0.6815 -0.3679
38455SOL    HW117372   5.972   2.497   0.475 -0.0626  1.5172  1.1435
38455SOL    HW217373   6.090   2.562   0.407 -0.9001  3.0864  1.1535
38456SOL     OW17374   5.488   7.335   0.750  0.9100  0.2046  0.1193
38456SOL    HW117375   5.504   7.308   0.659  3.0016  2.3102 -0.2260
38456SOL    HW217376   5.552   7.286   0.802 -0.3457 -1.0676  0.5219
38457SOL     OW17377   2.969   7.490   3.580  0.0783 -0.0481  0.0705
38457SOL    HW117378   2.880   7.462   3.605 -0.0626  0.3500  0.0239
38457SOL    HW217379   3.007   7.413   3.538  0.0687 -0.5045  0.8862
38458SOL     OW17380   0.361   5.581  10.272  0.0746 -0.4498  0.0205
38458SOL    HW117381   0.308   5.529  10.212 -0.2382  0.0191 -0.1148
38458SOL    HW217382   0.297   5.627  10.327  0.3370  0.1273 -0.1488
38459SOL     OW17383   9.552   1.923   9.761  0.0859 -0.3533  0.2902
38459SOL    HW117384   9.637   1.881   9.753  1.2610  1.4668  2.2323
38459SOL    HW217385   9.531   1.918   9.855 -0.9849  0.9608  0.1617
38460SOL     OW17386   0.854   4.087   4.107  0.0422  0.1706 -0.2590
38460SOL    HW117387   0.762   4.110   4.094  0.0972  0.6077  0.1139
38460SOL    HW217388   0.852   3.998   4.144 -0.1731 -0.4206 -1.6225
38461SOL     OW17389   1.298   3.955   1.171 -0.7294 -0.0311 -0.2705
38461SOL    HW117390   1.294   3.893   1.099 -1.5984  0.4850 -0.6803
38461SOL    HW217391   1.293   4.041   1.129 -1.5405  0.2670  0.4103
38462SOL     OW17392   4.464   7.833   2.473  0.4105 -0.3816  0.1683
38462SOL    HW117393   4.524   7.856   2.544  1.3965 -1.5714 -0.2466
38462SOL    HW217394   4.517   7.834   2.394 -0.5702  0.4449 -0.5056
38463SOL     OW17395  10.663   8.767  10.920 -0.0757  0.5914 -0.1498
38463SOL    HW117396  10.618   8.748  11.002 -1.6054 -0.5559 -1.1879
38463SOL    HW217397  10.620   8.847  10.888 -1.8110 -0.7631 -1.3698
38464SOL     OW17398   1.784  10.590   8.579 -0.3873 -0.2493 -0.7464
38464SOL    HW117399   1.706  10.642   8.557  0.0356  0.9997  0.6216
38464SOL    HW217400   1.749  10.514   8.626 -0.6777  1.6300  2.2790
38465SOL     OW17401   0.828  10.356   8.471  0.0452  0.0751 -0.1187
38465SOL    HW117402   0.809  10.447   8.449  2.3425  1.2171  2.0475
38465SOL    HW217403   0.923  10.355   8.482  0.0691 -2.6323 -0.1085
38466SOL     OW17404   5.474   9.448   5.323 -0.8815  0.1755 -0.2694
38466SOL    HW117405   5.464   9.364   5.368  0.6565  0.1796  0.1180
38466SOL    HW217406   5.424   9.510   5.376  2.1347  0.5171  2.4788
38467SOL     OW17407   5.314   2.954   4.158 -0.3328 -0.1589 -0.8009
38467SOL    HW117408   5.265   3.036   4.149  1.8400  1.2391 -0.6642
38467SOL    HW217409   5.312   2.916   4.070 -0.7796  0.3822 -1.0355
38468SOL     OW17410   6.020   9.068   1.867  0.4580 -0.2408 -0.2771
38468SOL    HW117411   6.015   9.115   1.784 -1.9089 -2.2620 -1.4128
38468SOL    HW217412   6.018   8.975   1.842  2.1487 -0.9908  1.9819
38469SOL     OW17413   8.010   5.275   1.105 -0.2761 -0.6620 -0.5561
38469SOL    HW117414   8.004   5.254   1.198 -0.8386 -1.3308 -0.7390
38469SOL    HW217415   7.937   5.228   1.064  0.3369 -0.8790 -1.4261
38470SOL     OW17416   0.732   0.842  10.927  0.2579 -0.6295  0.3133
38470SOL    HW117417   0.673   0.792  10.871  1.1998 -1.9644  0.4645
38470SOL    HW217418   0.682   0.856  11.008 -0.8349  0.6783 -0.5403
38471SOL     OW17419   5.323   1.816   6.614 -0.1321  0.9140  0.0890
38471SOL    HW117420   5.242   1.791   6.569 -0.4276  1.7526  0.1368
38471SOL    HW217421   5.392   1.803   6.549 -0.0751 -1.2643  0.5101
38472SOL     OW17422  10.906   9.127   1.155 -0.4261  0.6847  0.4983
38472SOL    HW117423  10.958   9.205   1.171 -1.8913  1.7135  0.4027
38472SOL    HW217424  10.905   9.080   1.238 -0.1628  1.1506  0.7635
38473SOL     OW17425   8.788   3.189  10.535 -0.6501  0.2940 -0.2923
38473SOL    HW117426   8.777   3.196  10.630 -2.5754  1.4453 -0.5485
38473SOL    HW217427   8.845   3.113  10.523 -2.5872 -1.6231  1.6867
38474SOL     OW17428   5.493  10.024   8.066 -0.1706  0.0605 -0.2026
38474SOL    HW117429   5.509   9.962   7.994 -0.6996 -0.1184 -0.1665
38474SOL    HW217430   5.536   9.985   8.142  1.8691  1.0561 -0.7673
38475SOL     OW17431   3.994   6.889   2.489  0.4024 -0.3235  0.4481
38475SOL    HW117432   4.021   6.959   2.548  0.8887 -0.9397  0.9617
38475SOL    HW217433   4.000   6.809   2.541  1.3838 -0.9553 -0.5865
38476SOL     OW17434  10.672  10.261   5.660 -0.8589 -0.2517 -0.3440
38476SOL    HW117435  10.710  10.233   5.577  1.9082 -2.1750  1.3637
38476SOL    HW217436  10.633  10.181   5.696  3.1009 -1.2362  2.5873
38477SOL     OW17437   1.757   9.389   6.036 -0.4374 -0.5074 -0.3068
38477SOL    HW117438   1.719   9.467   6.076 -1.4179  1.2328 -4.1801
38477SOL    HW217439   1.849   9.412   6.021 -0.3104 -0.7795  0.0388
38478SOL     OW17440   5.726  10.060   5.530  0.2293 -0.0996 -0.0842
38478SOL    HW117441   5.714  10.128   5.596 -1.7697 -0.7854  0.3144
38478SOL    HW217442   5.727   9.978   5.579  1.4265 -0.4587 -0.6733
38479SOL     OW17443   8.543  10.981   2.206 -0.3412 -0.1460  0.3447
38479SOL    HW117444   8.560  11.067   2.167 -1.9830  0.9100  1.7931
38479SOL    HW217445   8.535  10.998   2.300  1.5119 -2.2816  0.9763
38480SOL     OW17446   3.669   6.841   3.482 -0.8997  0.1925 -0.1327
38480SOL    HW117447   3.616   6.802   3.412 -2.7889  1.3413  0.5515
38480SOL    HW217448   3.605   6.866   3.549  0.5001  1.8380  0.6839
38481SOL     OW17449   4.313   8.893  10.985  0.0233 -0.0448  1.1068
38481SOL    HW117450   4.386   8.832  10.974 -1.5652 -1.7748 -0.8016
38481SOL    HW217451   4.354   8.978  11.001  2.5103 -0.5999 -1.5082
38482SOL     OW17452   1.931   7.421   8.214  0.1188  0.1757  0.1660
38482SOL    HW117453   1.921   7.413   8.309 -0.5425  1.3842  0.2046
38482SOL    HW217454   2.013   7.374   8.196  0.9484  1.0242  1.4966
38483SOL     OW17455  10.497   6.328   1.643  0.5209  0.1138  0.2658
38483SOL    HW117456  10.499   6.266   1.570  1.0700 -0.9073  1.1173
38483SOL    HW217457  10.404   6.347   1.655  0.3692 -0.2830 -0.2364
38484SOL     OW17458   9.022   9.058   4.687  0.1349 -0.4947  0.4364
38484SOL    HW117459   8.942   9.028   4.729 -0.2070 -1.7734 -1.0469
38484SOL    HW217460   8.992   9.113   4.614  0.6311 -0.5523  0.1863
38485SOL     OW17461  10.199   7.882   2.625 -0.7183  0.1401  0.1734
38485SOL    HW117462  10.233   7.794   2.605  0.6075  0.5619  0.4941
38485SOL    HW217463  10.131   7.897   2.559  0.6999 -0.1704 -1.4191
38486SOL     OW17464   7.811   1.071   2.481 -0.0414  0.5198  0.4062
38486SOL    HW117465   7.721   1.090   2.506 -0.5204 -1.8844  0.7233
38486SOL    HW217466   7.863   1.096   2.558 -0.6899 -0.0607  1.0458
38487SOL     OW17467   5.777   4.348   1.520  0.0296 -0.5451 -0.3196
38487SOL    HW117468   5.834   4.417   1.487 -0.4056  1.2532  2.3957
38487SOL    HW217469   5.836   4.287   1.564  0.1422 -0.2706 -0.0873
38488SOL     OW17470  10.646   7.471   6.872  0.1062 -0.1062 -0.0828
38488SOL    HW117471  10.555   7.480   6.899  0.5208  0.8057  1.0925
38488SOL    HW217472  10.697   7.484   6.952  1.2251 -4.1930  0.0878
38489SOL     OW17473   4.325   0.607   5.017 -0.0827  0.2077 -0.1561
38489SOL    HW117474   4.321   0.584   5.110 -0.0385  0.5393 -0.0682
38489SOL    HW217475   4.328   0.703   5.017 -1.4171  0.2617 -0.5404
38490SOL     OW17476   7.483   6.512   5.819 -0.3792  0.3581  0.3314
38490SOL    HW117477   7.563   6.545   5.858  0.7446 -1.3606 -0.3779
38490SOL    HW217478   7.480   6.420   5.845  0.2123 -0.7764 -3.0851
38491SOL     OW17479   8.808   7.994   5.368  0.1805 -0.2104  0.5387
38491SOL    HW117480   8.766   7.979   5.284 -0.3420  0.0058  0.7527
38491SOL    HW217481   8.753   8.061   5.410  0.8902  0.2727  0.7189
38492SOL     OW17482   2.842   3.843   2.256  0.2973 -0.7198  0.9279
38492SOL    HW117483   2.795   3.895   2.320  2.0893  0.6725  1.2104
38492SOL    HW217484   2.817   3.880   2.171 -1.6450 -2.2047  0.7797
38493SOL     OW17485   9.108   2.404   7.598 -0.4923 -0.5834  0.0715
38493SOL    HW117486   9.077   2.368   7.681 -1.2949 -0.4848 -0.1772
38493SOL    HW217487   9.135   2.493   7.619 -0.4782 -0.6352  0.2738
38494SOL     OW17488   1.404   6.778  10.954 -0.5945  0.1379  0.2874
38494SOL    HW117489   1.386   6.685  10.939 -2.0792  0.4658 -0.1182
38494SOL    HW217490   1.323   6.822  10.928 -0.4787  1.4176  1.9338
38495SOL     OW17491   4.862   5.003   5.823 -0.0349 -0.3240 -0.2125
38495SOL    HW117492   4.927   4.938   5.796  0.2741 -0.1982  0.2175
38495SOL    HW217493   4.914   5.074   5.862 -0.3369  0.3698 -1.0434
38496SOL     OW17494   6.293   7.139   1.007 -0.1049 -0.0194  0.3074
38496SOL    HW117495   6.287   7.087   0.927 -1.3006 -0.7736  0.8648
38496SOL    HW217496   6.261   7.081   1.076 -0.8567  1.2378  1.0517
38497SOL     OW17497   7.168   9.420   6.463 -0.2905  0.4984 -0.8495
38497SOL    HW117498   7.248   9.417   6.515  1.7235  1.6783 -3.6458
38497SOL    HW217499   7.099   9.444   6.526  1.9591  1.8699  1.2588
38498SOL     OW17500   3.776   2.066   2.765  0.0913 -0.2216 -0.7201
38498SOL    HW117501   3.748   2.145   2.719  3.0039  0.3629 -1.6760
38498SOL    HW217502   3.783   1.999   2.696  2.2160  0.0298 -0.8139
38499SOL     OW17503   3.623   8.618   4.196 -0.6907 -0.2221  0.4400
38499SOL    HW117504   3.686   8.655   4.134 -1.5426  2.0552  0.8623
38499SOL    HW217505   3.546   8.597   4.143 -0.4968 -0.6794  0.3326
38500SOL     OW17506  10.422   2.367   1.719 -0.2342 -0.0579  0.0296
38500SOL    HW117507  10.428   2.371   1.624 -2.3187  2.0842 -0.0989
38500SOL    HW217508  10.436   2.275   1.740 -2.7425 -1.1909 -2.6366
38501SOL     OW17509   4.883   1.094   5.602  0.2532  0.6184 -0.2670
38501SOL    HW117510   4.817   1.063   5.664  0.2403  0.2649 -0.4523
38501SOL    HW217511   4.943   1.020   5.593  1.7519  1.5592  1.3484
38502SOL     OW17512   5.547   9.921   3.778 -0.1656 -0.2872 -0.0409
38502SOL    HW117513   5.471   9.902   3.723  0.1843 -2.5991  0.1801
38502SOL    HW217514   5.616   9.863   3.744  1.2924  1.1979  0.2457
38503SOL     OW17515   1.356   4.906   6.050 -0.0704  0.1451 -0.2605
38503SOL    HW117516   1.410   4.985   6.039  0.6313 -0.2221  0.4401
38503SOL    HW217517   1.313   4.894   5.965 -0.0852  1.2025 -0.4210
38504SOL     OW17518   2.344   1.367   0.142 -0.6446 -0.1846  0.1381
38504SOL    HW117519   2.370   1.421   0.217  0.7280 -1.2050  0.4460
38504SOL    HW217520   2.334   1.279   0.179 -4.5181  0.0272 -0.0048
38505SOL     OW17521   4.675   0.844   1.181 -0.5183 -0.4596  0.1882
38505SOL    HW117522   4.637   0.828   1.095 -0.6486  2.2298 -0.3535
38505SOL    HW217523   4.602   0.874   1.235 -0.0021  0.3666  0.4563
38506SOL     OW17524   4.593   5.206  11.014  0.0238 -0.0245 -1.4618
38506SOL    HW117525   4.554   5.121  10.992 -0.7286 -0.0405 -0.1637
38506SOL    HW217526   4.683   5.186  11.039  0.2127 -0.2765 -2.3215
38507SOL     OW17527   3.531   8.979   7.009  0.0511 -0.4641 -0.2747
38507SOL    HW117528   3.468   8.938   7.069  1.0162 -1.9072 -0.2065
38507SOL    HW217529   3.605   9.003   7.065 -1.1914  3.1851  0.0507
38508SOL     OW17530   1.296   1.165  10.207  0.1737 -0.5688  0.2357
38508SOL    HW117531   1.346   1.237  10.169 -0.5746 -1.5819 -3.0029
38508SOL    HW217532   1.361   1.096  10.222  0.5902  0.0838  1.5855
38509SOL     OW17533   0.776   4.191   0.949  0.1268  0.4881  0.0498
38509SOL    HW117534   0.767   4.209   1.042  1.2712 -1.4829  0.5978
38509SOL    HW217535   0.871   4.187   0.935 -0.0216 -1.3161 -0.7207
38510SOL     OW17536  11.033   8.185   3.132  0.6925 -0.0149  0.2173
38510SOL    HW117537  11.088   8.150   3.062  0.1311  1.1631 -0.8558
38510SOL    HW217538  10.944   8.158   3.108  0.5739 -0.2321  0.8784
38511SOL     OW17539   4.990   1.485   3.351 -0.0184  0.4915  0.0098
38511SOL    HW117540   4.987   1.490   3.446  0.4962 -0.3457  0.0837
38511SOL    HW217541   5.082   1.464   3.331  0.3018  2.4199 -0.7760
38512SOL     OW17542   1.454   8.054   0.212  0.6386 -0.2319  0.6785
38512SOL    HW117543   1.484   8.005   0.136  2.6012  1.6386  0.1570
38512SOL    HW217544   1.378   8.104   0.180  1.1325  0.1442  0.0798
38513SOL     OW17545   0.189   7.730   6.891  0.3313  1.0287  0.3698
38513SOL    HW117546   0.130   7.800   6.861  0.8368  1.0984 -0.5041
38513SOL    HW217547   0.145   7.649   6.865  1.1181  1.1007 -1.3249
38514SOL     OW17548   0.547   7.773   3.587 -0.0055  0.2551 -0.3150
38514SOL    HW117549   0.470   7.719   3.601 -1.4143  2.3648  0.5127
38514SOL    HW217550   0.604   7.755   3.661  1.5919 -3.1765 -2.1393
38515SOL     OW17551   2.950  10.529   7.521 -0.0207  0.3414 -0.0236
38515SOL    HW117552   2.981  10.438   7.528  0.2934  0.4564  0.0855
38515SOL    HW217553   3.026  10.582   7.542 -0.9419  0.6252  3.1617
38516SOL     OW17554   3.842   1.783   0.756  0.2600  0.1595 -0.4126
38516SOL    HW117555   3.881   1.715   0.811 -0.2976 -0.4899 -0.7991
38516SOL    HW217556   3.917   1.829   0.718  0.6442  0.0274  0.1759
38517SOL     OW17557   4.574   9.599   1.809 -0.3833 -0.3011 -0.1397
38517SOL    HW117558   4.494   9.638   1.845  0.5465  0.9509  0.6691
38517SOL    HW217559   4.551   9.508   1.792 -2.0995  0.1230 -0.3235
38518SOL     OW17560   0.552   4.501   5.355  0.1469  0.2854 -0.1015
38518SOL    HW117561   0.516   4.587   5.335 -2.0723 -0.1022  1.7906
38518SOL    HW217562   0.530   4.487   5.447  2.5694 -1.3282  0.3185
38519SOL     OW17563   0.842   2.729   5.965 -0.2729  0.8668  0.3770
38519SOL    HW117564   0.876   2.680   6.040  0.2451  1.0620  0.2721
38519SOL    HW217565   0.749   2.706   5.962  0.6554 -4.0694 -2.5690
38520SOL     OW17566   8.276   7.977   7.109 -0.5753  0.1999  0.0262
38520SOL    HW117567   8.249   8.017   7.192 -4.0453 -2.4300  0.4328
38520SOL    HW217568   8.319   7.896   7.134  0.2616  0.3861 -0.7636
38521SOL     OW17569   3.790   3.808   0.395 -0.1960  0.4397  0.1625
38521SOL    HW117570   3.786   3.859   0.476  1.8899  2.6537 -1.0022
38521SOL    HW217571   3.706   3.821   0.353 -0.7852  0.4161  1.3060
38522SOL     OW17572  11.040   1.213   0.054 -0.6465  0.0067  0.0433
38522SOL    HW117573  10.970   1.153   0.028  0.8363 -2.1087  0.6287
38522SOL    HW217574  11.111   1.195  -0.007 -0.7050  2.4538 -0.8429
38523SOL     OW17575   3.836   8.561   1.913  0.2235 -0.2091 -0.2383
38523SOL    HW117576   3.745   8.591   1.923  0.3159  0.4465 -1.2605
38523SOL    HW217577   3.871   8.562   2.002 -1.1868 -1.8833  0.3987
38524SOL     OW17578   2.318   9.540   0.556  0.3647 -0.1057 -0.3816
38524SOL    HW117579   2.354   9.580   0.635 -2.2252  0.3632  0.6637
38524SOL    HW217580   2.355   9.591   0.484  0.7094  1.1921  0.6784
38525SOL     OW17581   5.498   3.528   3.849 -0.0975  1.1068 -0.4269
38525SOL    HW117582   5.538   3.456   3.897  0.5225  1.3684 -0.5349
38525SOL    HW217583   5.564   3.553   3.785 -0.4589  1.5197 -0.6422
38526SOL     OW17584   6.194   3.057   9.092  0.1133  0.4155 -0.4820
38526SOL    HW117585   6.249   2.997   9.043 -1.5202 -1.5401 -0.0570
38526SOL    HW217586   6.227   3.053   9.182  1.2160  1.7135 -0.7875
38527SOL     OW17587   2.456  10.849   8.129 -1.1848  0.4991  0.2955
38527SOL    HW117588   2.545  10.877   8.153 -0.8013 -0.5025  0.0974
38527SOL    HW217589   2.399  10.897   8.190 -0.5351  1.3116  0.2936
38528SOL     OW17590   7.829   6.444   9.382  0.3524  0.8317  0.0559
38528SOL    HW117591   7.878   6.439   9.464 -1.8031  1.4236  1.4681
38528SOL    HW217592   7.850   6.531   9.347  1.4644  0.4879 -0.1549
38529SOL     OW17593   6.440   1.889   8.919 -1.0889  0.4749 -0.0456
38529SOL    HW117594   6.524   1.929   8.942  0.1327 -2.0644  0.2300
38529SOL    HW217595   6.413   1.935   8.840  0.2768  1.7403  0.1703
38530SOL     OW17596   2.537   1.217   9.088  0.1998  0.2780 -0.0428
38530SOL    HW117597   2.631   1.218   9.074  0.1613 -2.8584 -1.2956
38530SOL    HW217598   2.499   1.230   9.001 -0.4360 -0.9616  0.0215
38531SOL     OW17599   7.050  10.122   6.683 -0.1629 -0.5606 -0.2901
38531SOL    HW117600   7.023  10.030   6.683  2.3186 -1.3846 -0.9836
38531SOL    HW217601   7.006  10.160   6.608  0.0952 -1.6579 -1.0213
38532SOL     OW17602   1.844   5.426   8.118  0.1315  0.6456  0.3274
38532SOL    HW117603   1.762   5.463   8.152 -1.9091 -2.9964 -0.1464
38532SOL    HW217604   1.866   5.482   8.044 -1.9094  1.7775  0.4991
38533SOL     OW17605   2.838   3.005   0.943  0.2775 -0.0386  0.3065
38533SOL    HW117606   2.895   2.928   0.950  1.3517  0.5534 -1.3968
38533SOL    HW217607   2.758   2.973   0.902 -0.1560 -0.6321  1.5605
38534SOL     OW17608   1.842   4.575   8.414  0.3280  0.5918 -0.6084
38534SOL    HW117609   1.890   4.494   8.431  2.4530  2.1928  1.6138
38534SOL    HW217610   1.904   4.631   8.369 -1.6181  0.5617 -3.5815
38535SOL     OW17611   8.756   2.889   6.454 -0.1347 -0.4602 -0.5613
38535SOL    HW117612   8.697   2.870   6.527 -1.0478  0.1894 -1.1122
38535SOL    HW217613   8.843   2.871   6.488 -0.5852 -0.5840  0.5499
38536SOL     OW17614   3.313   0.163   5.345  0.0641 -0.0112  0.6077
38536SOL    HW117615   3.230   0.206   5.368 -1.7657 -2.1871 -1.3695
38536SOL    HW217616   3.327   0.099   5.414  0.0462  0.3139  0.9124
38537SOL     OW17617   5.283   7.953   0.006  0.1347 -0.2170  0.6898
38537SOL    HW117618   5.234   7.926  -0.072  1.5862 -0.1372 -0.2931
38537SOL    HW217619   5.272   7.880   0.067  1.1549 -1.5389 -0.6286
38538SOL     OW17620   4.672   6.198  10.662  0.4732  0.0127 -0.3594
38538SOL    HW117621   4.749   6.242  10.698  1.2511 -1.5436 -0.0185
38538SOL    HW217622   4.602   6.217  10.725  0.5394  1.4945 -0.7048
38539SOL     OW17623   2.562   5.331   2.455 -0.2705 -0.1011 -0.1051
38539SOL    HW117624   2.598   5.278   2.384  1.0825  0.9798 -0.2727
38539SOL    HW217625   2.637   5.378   2.490 -1.0330 -0.1048  1.6196
38540SOL     OW17626   8.838   2.387   0.730  1.1611  0.3605  0.0891
38540SOL    HW117627   8.915   2.331   0.739  0.5146 -0.3121  1.8440
38540SOL    HW217628   8.846   2.424   0.642  2.0148 -1.8764 -0.8455
38541SOL     OW17629   1.600   5.848   5.921  0.6329  0.7937 -0.0879
38541SOL    HW117630   1.548   5.773   5.895 -0.0541  1.2268  0.0087
38541SOL    HW217631   1.680   5.841   5.869 -0.0845  0.8395 -1.2361
38542SOL     OW17632   2.713   9.711   2.164  0.0341 -0.3885 -0.8676
38542SOL    HW117633   2.643   9.755   2.213 -0.5035  0.5218 -2.3874
38542SOL    HW217634   2.675   9.628   2.136 -1.7388  1.3806 -4.4168
38543SOL     OW17635   1.285   5.760   7.987 -0.1468 -0.5667  0.0268
38543SOL    HW117636   1.218   5.828   7.976 -0.1236 -0.6940 -1.0359
38543SOL    HW217637   1.255   5.709   8.062 -1.3102 -0.6694 -0.4733
38544SOL     OW17638   2.208   1.584   3.402  0.4522  0.6576  0.4134
38544SOL    HW117639   2.157   1.546   3.474  0.9199 -0.0475  0.3794
38544SOL    HW217640   2.295   1.599   3.440  0.8437 -0.1819 -0.1372
38545SOL     OW17641   6.406   1.238   8.702 -0.4463  0.2350 -0.2596
38545SOL    HW117642   6.431   1.145   8.705 -1.4843 -0.2283 -2.9474
38545SOL    HW217643   6.487   1.285   8.719  1.4235 -1.2267 -3.9354
38546SOL     OW17644   9.123   0.270   2.190 -0.2392  0.4802 -0.2405
38546SOL    HW117645   9.210   0.304   2.209 -0.9156  1.4767  1.3740
38546SOL    HW217646   9.135   0.212   2.116  2.3194 -1.7435  1.7231
38547SOL     OW17647   3.142   9.704   5.444 -0.7614  0.0226  0.1609
38547SOL    HW117648   3.191   9.769   5.494  0.1067 -0.4355 -0.0548
38547SOL    HW217649   3.092   9.655   5.509 -1.5515  0.9933  0.3070
38548SOL     OW17650  10.353   9.586   7.315  0.0016 -0.1872 -0.0265
38548SOL    HW117651  10.422   9.647   7.341 -0.6112  0.5523 -0.1102
38548SOL    HW217652  10.396   9.526   7.254  0.1967  1.2260 -1.3357
38549SOL     OW17653   7.439   6.907   7.259 -0.1043 -0.4467  0.6023
38549SOL    HW117654   7.404   6.901   7.170  0.7220 -0.1183  0.2467
38549SOL    HW217655   7.517   6.963   7.251  0.7579 -1.5024  1.2981
38550SOL     OW17656   4.535   6.010   9.331 -0.2325 -0.5005 -0.5452
38550SOL    HW117657   4.489   5.980   9.253 -2.9061  0.1825  0.6499
38550SOL    HW217658   4.540   6.105   9.322 -0.5158 -0.4190  0.0482
38551SOL     OW17659   2.301   8.002   0.145  0.5987  0.2461  0.1891
38551SOL    HW117660   2.261   8.079   0.103 -0.8195 -0.2165  0.6561
38551SOL    HW217661   2.262   8.000   0.232  1.3999 -0.4264  0.5358
38552SOL     OW17662   8.786   8.721  11.032 -0.7235  0.4282 -0.3591
38552SOL    HW117663   8.842   8.665  11.085  1.2027  1.8681 -0.7524
38552SOL    HW217664   8.753   8.663  10.963  0.7425 -0.3743 -0.4317
38553SOL     OW17665   4.604   9.036   5.471 -0.3664  0.6216 -0.5958
38553SOL    HW117666   4.666   8.984   5.521  0.6296  1.7318 -0.6356
38553SOL    HW217667   4.658   9.100   5.424 -1.5213  1.5362 -0.7328
38554SOL     OW17668   6.641   3.303   4.412  0.0892 -0.1454 -0.7440
38554SOL    HW117669   6.663   3.233   4.474 -0.7488  0.0526 -0.2058
38554SOL    HW217670   6.718   3.359   4.411  0.4159 -0.5791 -0.4782
38555SOL     OW17671   7.923   6.504   7.136 -0.4078 -0.0869  0.2802
38555SOL    HW117672   7.834   6.530   7.159 -1.6977 -1.3332 -2.8209
38555SOL    HW217673   7.963   6.583   7.102 -1.6002 -0.2537 -1.6312
38556SOL     OW17674  10.485   4.048   0.882  0.3035 -0.8251  0.4344
38556SOL    HW117675  10.524   3.963   0.901 -0.6401 -1.7925 -1.7290
38556SOL    HW217676  10.418   4.059   0.950  0.6899 -1.6211  0.9614
38557SOL     OW17677   9.082   4.667   7.936 -0.3308 -0.1098  0.1302
38557SOL    HW117678   9.174   4.676   7.957 -0.1031 -0.9529 -0.4146
38557SOL    HW217679   9.041   4.748   7.966  0.9627  1.3102 -1.6996
38558SOL     OW17680   6.161   1.561   9.024 -0.2613  0.6564 -0.3949
38558SOL    HW117681   6.184   1.524   9.110 -0.7532  1.6349  0.1690
38558SOL    HW217682   6.156   1.655   9.039 -0.9910  0.7813 -1.3503
38559SOL     OW17683   0.228   1.522   6.689 -0.0419 -0.3873 -0.6393
38559SOL    HW117684   0.163   1.538   6.758  0.0588  0.2938 -0.6910
38559SOL    HW217685   0.179   1.480   6.619 -0.0731 -1.4319 -0.0155
38560SOL     OW17686   5.979   7.364   2.213  0.5366 -0.6031  0.3129
38560SOL    HW117687   6.070   7.376   2.241  0.3394  0.9222  0.3873
38560SOL    HW217688   5.934   7.330   2.290  0.4786  1.3639  1.2038
38561SOL     OW17689  10.910   4.715   2.915 -0.4566  0.3833  0.3682
38561SOL    HW117690  10.829   4.749   2.954 -0.0582  1.9605 -0.0899
38561SOL    HW217691  10.946   4.790   2.867  1.4056 -0.2058  0.7664
38562SOL     OW17692   6.977   3.430   5.847  0.4358 -0.2699  0.3075
38562SOL    HW117693   7.065   3.454   5.818 -0.3874  1.1430 -1.1842
38562SOL    HW217694   6.985   3.421   5.942  1.6984  2.2132  0.5177
38563SOL     OW17695   8.774   1.657   1.754 -1.1624  0.1576  0.0631
38563SOL    HW117696   8.860   1.668   1.793 -0.9049  1.1150 -0.7247
38563SOL    HW217697   8.721   1.616   1.822 -0.0652 -0.5320  0.5237
38564SOL     OW17698   5.416   7.246   1.080 -0.3913 -0.1777 -0.4996
38564SOL    HW117699   5.438   7.250   1.173 -1.2287 -1.9378 -0.1756
38564SOL    HW217700   5.500   7.248   1.035  0.0723 -0.1788  0.3462
38565SOL     OW17701   6.053   4.548  10.540  0.5249  0.3720  0.2194
38565SOL    HW117702   5.977   4.558  10.483  0.5919 -1.1184 -0.1838
38565SOL    HW217703   6.124   4.591  10.493  0.8999 -1.9977 -1.5877
38566SOL     OW17704   8.401   1.638   2.717 -0.4738  0.1218  0.4963
38566SOL    HW117705   8.360   1.623   2.631 -1.0713 -0.4307  0.8676
38566SOL    HW217706   8.332   1.678   2.770 -0.5206 -0.7166  1.0948
38567SOL     OW17707   7.528   9.836   4.835 -0.3753  0.2520  0.3379
38567SOL    HW117708   7.543   9.769   4.768  3.7990  0.2968  0.9204
38567SOL    HW217709   7.527   9.918   4.787  2.3713  0.2632  0.1152
38568SOL     OW17710   6.619   5.816   9.337 -0.7104  0.0355  0.0729
38568SOL    HW117711   6.536   5.773   9.317 -2.0772  2.4418  0.2271
38568SOL    HW217712   6.594   5.902   9.370  1.8532  0.6689  0.5603
38569SOL     OW17713   5.316   1.450   8.309  0.0109  0.4290  0.1139
38569SOL    HW117714   5.297   1.417   8.397  1.5522  1.8235  1.0271
38569SOL    HW217715   5.259   1.526   8.299 -1.2293 -0.5709 -0.7219
38570SOL     OW17716   0.691   0.886   9.320  0.6167 -0.8394  0.2182
38570SOL    HW117717   0.608   0.839   9.314  0.7415 -1.1648  1.0009
38570SOL    HW217718   0.688   0.930   9.405  0.2265  1.1168 -0.7342
38571SOL     OW17719  10.726   6.571   0.348 -0.0509  0.8142 -0.6180
38571SOL    HW117720  10.645   6.571   0.399 -0.2488 -0.5337 -0.8805
38571SOL    HW217721  10.769   6.653   0.370 -0.5657  0.6727  1.0251
38572SOL     OW17722   5.470   7.641   4.240 -0.3636 -0.0284 -0.3678
38572SOL    HW117723   5.403   7.588   4.285 -0.4660 -1.8185 -2.4663
38572SOL    HW217724   5.426   7.724   4.223 -1.2507 -0.3228  0.3621
38573SOL     OW17725   7.293   4.022   4.430 -0.1747  0.4869  0.6073
38573SOL    HW117726   7.227   3.979   4.377 -0.5559  0.0376  1.4273
38573SOL    HW217727   7.279   3.989   4.519  1.2015  0.3084  0.7945
38574SOL     OW17728   2.003   9.544   6.139  0.0901  0.1777  0.8003
38574SOL    HW117729   2.081   9.543   6.194 -0.0154 -0.6201  0.9508
38574SOL    HW217730   2.036   9.554   6.050  0.2958  0.8883  0.9522
38575SOL     OW17731   7.829  10.756   6.128 -0.5212  0.7782 -0.3731
38575SOL    HW117732   7.907  10.758   6.183 -0.5779  2.4874 -0.3245
38575SOL    HW217733   7.862  10.732   6.041 -0.1558  0.1211 -0.0644
38576SOL     OW17734   8.909   9.211  11.072  0.0038  0.0801 -0.3662
38576SOL    HW117735   8.906   9.301  11.038 -0.5307  0.3401  0.3497
38576SOL    HW217736   8.859   9.214  11.153  1.2587 -0.5271  0.4682
38577SOL     OW17737   7.731   0.314  10.653  0.5425 -0.0878  0.2469
38577SOL    HW117738   7.818   0.328  10.617  1.2922 -1.5520  1.3741
38577SOL    HW217739   7.713   0.392  10.706  0.6444  0.7448 -0.9013
38578SOL     OW17740   5.545   8.382   8.799 -0.1541 -0.1735 -0.3244
38578SOL    HW117741   5.450   8.379   8.811 -0.3209 -1.0567 -1.6401
38578SOL    HW217742   5.557   8.393   8.705  1.0629  3.0347  0.0695
38579SOL     OW17743   3.696  10.196   5.458  0.2007  0.3826 -0.2851
38579SOL    HW117744   3.682  10.264   5.524  0.2506  0.0141  0.1075
38579SOL    HW217745   3.756  10.236   5.395  1.5212  0.1604  0.7898
38580SOL     OW17746   7.929   5.419  10.443  0.8792 -0.0050 -0.1727
38580SOL    HW117747   7.895   5.429  10.354 -0.6677  2.5555  0.5928
38580SOL    HW217748   7.873   5.353  10.484  1.5131 -1.0927 -1.0074
38581SOL     OW17749   2.567   8.662   6.363 -0.0537 -0.0627  0.5374
38581SOL    HW117750   2.603   8.573   6.358  0.3701  0.0199  1.6188
38581SOL    HW217751   2.544   8.684   6.273 -0.9706 -1.5858  0.3528
38582SOL     OW17752   4.868   6.208   5.708  1.4050 -0.3790 -0.9085
38582SOL    HW117753   4.788   6.166   5.677  1.8440 -1.5841 -0.4680
38582SOL    HW217754   4.890   6.272   5.640  0.2478 -0.2473 -1.1815
38583SOL     OW17755   8.580   6.682   3.809 -0.5842 -0.1669 -0.2921
38583SOL    HW117756   8.574   6.695   3.715  1.2529 -0.1924 -0.4420
38583SOL    HW217757   8.648   6.616   3.820  0.0443  0.6721  1.1050
38584SOL     OW17758   8.041   6.589   2.580  0.5626 -0.3669  0.0296
38584SOL    HW117759   7.989   6.619   2.505  0.0123  0.8582  0.8743
38584SOL    HW217760   8.054   6.495   2.564 -0.7623 -0.4272 -0.8800
38585SOL     OW17761   5.296   6.678   6.967 -0.1943 -0.1828  0.3425
38585SOL    HW117762   5.367   6.628   7.006  1.7063  0.8682 -1.5440
38585SOL    HW217763   5.282   6.638   6.881 -0.4014  0.9215 -0.1613
38586SOL     OW17764   8.147  10.585   5.087 -0.2781 -0.0738  0.6298
38586SOL    HW117765   8.118  10.494   5.100  0.2607 -0.2103  0.9021
38586SOL    HW217766   8.234  10.577   5.047 -0.9929  0.3327 -1.0646
38587SOL     OW17767  10.002   6.764   1.664  0.3081 -0.2317 -0.1426
38587SOL    HW117768  10.023   6.683   1.617  1.3263  0.4016 -0.8174
38587SOL    HW217769  10.069   6.826   1.636  0.1240  0.5726  1.1225
38588SOL     OW17770   5.514   0.975   6.937 -0.4096 -0.0746 -0.0408
38588SOL    HW117771   5.607   0.983   6.917 -0.5482 -0.0870 -0.6825
38588SOL    HW217772   5.470   0.980   6.853 -0.9639 -0.5352  0.2130
38589SOL     OW17773   0.021   1.077   1.228  0.0655  0.5501  0.0998
38589SOL    HW117774   0.068   1.005   1.185 -1.3878 -0.9642  0.9571
38589SOL    HW217775  -0.034   1.114   1.159  0.4929  0.5836 -0.2348
38590SOL     OW17776   9.043   8.501   4.676  0.0986 -0.3488 -0.3408
38590SOL    HW117777   8.979   8.436   4.648  0.7928 -0.5413 -1.5676
38590SOL    HW217778   8.994   8.583   4.680 -0.8207 -0.9430  1.3616
38591SOL     OW17779   6.931   9.274   6.758  0.2777  0.3626 -0.2471
38591SOL    HW117780   6.997   9.224   6.807 -1.3124 -0.2710  1.3512
38591SOL    HW217781   6.882   9.208   6.709 -0.9655  0.4568  0.8150
38592SOL     OW17782   0.000   3.731   2.962  0.0711 -0.3282  0.5092
38592SOL    HW117783   0.018   3.666   3.030  0.0446 -0.6022  0.2554
38592SOL    HW217784  -0.087   3.765   2.984 -0.4432 -1.2448 -0.0351
38593SOL     OW17785   3.252   8.538   0.225  0.4753  0.3734  0.1037
38593SOL    HW117786   3.240   8.594   0.301  0.2565  1.3713 -0.6428
38593SOL    HW217787   3.214   8.587   0.152 -1.1121 -1.4080 -0.3386
38594SOL     OW17788   4.012   9.726   5.682 -0.1160 -0.0396 -0.2910
38594SOL    HW117789   4.066   9.647   5.673  0.0211  0.2209 -2.2529
38594SOL    HW217790   4.042   9.784   5.612 -0.5450  1.5816  0.8117
38595SOL     OW17791   9.691   1.516   5.118  0.4182 -0.4005  0.8065
38595SOL    HW117792   9.779   1.550   5.137  1.3524 -2.0454 -0.3270
38595SOL    HW217793   9.696   1.486   5.027 -1.3015 -0.6226  0.7509
38596SOL     OW17794  10.403   0.532   7.441 -0.2760 -0.1278  0.2048
38596SOL    HW117795  10.338   0.566   7.378  1.3425 -1.5910 -2.4630
38596SOL    HW217796  10.468   0.602   7.448  0.1375 -0.3900 -0.7633
38597SOL     OW17797   1.523   6.221   7.755  0.1986  0.4713 -0.2704
38597SOL    HW117798   1.440   6.179   7.732  1.7376 -1.9911 -1.7646
38597SOL    HW217799   1.498   6.307   7.790 -3.0035 -0.6264  0.4064
38598SOL     OW17800  10.414   3.664   6.939  0.0808  0.0165  0.4638
38598SOL    HW117801  10.365   3.685   6.860 -1.7374 -1.4043  1.1263
38598SOL    HW217802  10.497   3.710   6.929 -0.9671  1.6871 -1.2128
38599SOL     OW17803   8.629   4.277   0.747  0.5647 -0.6051 -0.3479
38599SOL    HW117804   8.641   4.346   0.681  1.8230 -0.5905 -0.1259
38599SOL    HW217805   8.657   4.197   0.703  0.3761 -0.7613 -0.1828
38600SOL     OW17806   4.054   2.700  10.038 -0.2046 -0.3527 -0.5071
38600SOL    HW117807   4.017   2.734   9.956 -1.5244 -0.5738 -0.0212
38600SOL    HW217808   3.981   2.703  10.100  0.5027 -1.1678  0.3804
38601SOL     OW17809   5.067   0.025   1.105  0.7080 -0.2544 -0.3433
38601SOL    HW117810   4.988   0.023   1.160  0.7571  0.8560 -0.1977
38601SOL    HW217811   5.051  -0.039   1.036 -0.0107 -0.5650  0.1048
38602SOL     OW17812   0.133  10.726   4.282 -0.8927 -0.1675  0.0950
38602SOL    HW117813   0.198  10.745   4.213  0.4563  1.9835  1.8270
38602SOL    HW217814   0.120  10.631   4.276  3.5130 -1.0270  0.4661
38603SOL     OW17815   6.141   2.043   9.269  0.3868  0.2513  0.1473
38603SOL    HW117816   6.193   2.086   9.201 -1.5192  0.0789 -1.5280
38603SOL    HW217817   6.110   1.962   9.228 -0.5656 -0.0055  1.3264
38604SOL     OW17818   2.166   9.501   9.983  0.9793 -0.1170 -0.0728
38604SOL    HW117819   2.082   9.507   9.936  1.3441  1.6960 -0.5646
38604SOL    HW217820   2.189   9.408   9.978  0.0528 -0.3032 -1.8347
38605SOL     OW17821   5.305  10.441   6.882 -0.3235  0.1407  0.3130
38605SOL    HW117822   5.265  10.405   6.803  0.5361 -2.0487  0.8144
38605SOL    HW217823   5.316  10.366   6.940  0.7833  1.3697  1.7762
38606SOL     OW17824  10.350   5.104   3.589 -0.3957 -0.4517  0.2786
38606SOL    HW117825  10.364   5.078   3.680 -1.6281 -1.5729  0.1747
38606SOL    HW217826  10.355   5.023   3.539 -1.4190 -0.0908 -0.4471
38607SOL     OW17827   9.814   1.688   0.043 -0.6821 -0.4314 -0.6902
38607SOL    HW117828   9.843   1.764   0.094 -0.0778  0.7779 -2.7252
38607SOL    HW217829   9.843   1.706  -0.047  2.2480 -4.4628 -0.8371
38608SOL     OW17830   0.399   7.997   9.848 -0.4286  0.4469 -0.4909
38608SOL    HW117831   0.327   8.031   9.794 -0.7961  1.4084  0.5546
38608SOL    HW217832   0.357   7.970   9.930  0.2796  0.1684 -0.2071
38609SOL     OW17833  10.024   5.925   6.841 -0.0170  0.5193 -0.4147
38609SOL    HW117834  10.118   5.942   6.835  0.2285 -0.3746  0.5505
38609SOL    HW217835  10.015   5.870   6.919 -1.3234  0.4448 -0.6001
38610SOL     OW17836   2.130   9.340   7.871 -0.2504  0.2162  0.3766
38610SOL    HW117837   2.202   9.398   7.849 -0.1430  0.3266  0.9907
38610SOL    HW217838   2.061   9.361   7.808 -0.8895  2.2739  1.6739
38611SOL     OW17839   2.523   6.586   4.780 -0.0014 -0.3703 -0.3109
38611SOL    HW117840   2.556   6.496   4.779  0.5533 -0.1915  0.5305
38611SOL    HW217841   2.442   6.582   4.831  0.2239 -0.3364  0.0555
38612SOL     OW17842   2.117   8.351   2.599  0.2452  0.1061 -0.7642
38612SOL    HW117843   2.119   8.296   2.520 -0.1056 -0.3657 -0.4486
38612SOL    HW217844   2.202   8.335   2.640 -0.4222 -1.4151  0.1278
38613SOL     OW17845   9.206   9.706  10.692  0.3778  0.0878  0.3298
38613SOL    HW117846   9.169   9.663  10.769 -2.6038  2.6047  0.4542
38613SOL    HW217847   9.286   9.748  10.724 -0.1591  0.0699  1.7352
38614SOL     OW17848   0.472   5.427   7.441  0.6888 -0.9153  0.0995
38614SOL    HW117849   0.517   5.495   7.389 -2.6388  0.4863 -1.2061
38614SOL    HW217850   0.424   5.376   7.376 -0.7589 -1.4093  1.5219
38615SOL     OW17851   2.903   8.976  10.390  0.6314 -0.4280  0.6938
38615SOL    HW117852   2.986   8.987  10.344  0.6621 -2.0880  0.2671
38615SOL    HW217853   2.921   9.003  10.480  0.6846  2.4762 -0.0861
38616SOL     OW17854   6.548   1.703   2.238 -0.0627 -0.1752 -0.0868
38616SOL    HW117855   6.483   1.728   2.172 -1.0422 -1.4654  0.3648
38616SOL    HW217856   6.524   1.753   2.316  0.7619  0.9264 -0.5140
38617SOL     OW17857   7.907   1.488   8.681  0.1597 -0.0819  0.2925
38617SOL    HW117858   7.980   1.428   8.664 -0.3599 -1.2206  1.8384
38617SOL    HW217859   7.831   1.431   8.688 -0.2993  0.6825  2.0921
38618SOL     OW17860  10.893  10.471   4.545  0.4207  0.1858  0.8416
38618SOL    HW117861  10.811  10.432   4.516  0.6102  0.7758 -0.5531
38618SOL    HW217862  10.891  10.463   4.641 -0.6763 -0.9244  0.7447
38619SOL     OW17863   2.008   9.613   2.188  0.3999  0.5483 -0.2113
38619SOL    HW117864   2.037   9.685   2.244 -1.4116 -0.9997  3.0029
38619SOL    HW217865   1.958   9.656   2.118 -0.4088  2.4610  1.4293
38620SOL     OW17866   4.711   1.260   2.616  0.9369  0.2157 -0.1743
38620SOL    HW117867   4.624   1.283   2.585 -0.0370 -2.6469  0.1927
38620SOL    HW217868   4.718   1.304   2.701 -0.3529  0.0452  0.0388
38621SOL     OW17869   3.383   4.323   3.875  0.1131  0.5955  0.0818
38621SOL    HW117870   3.383   4.364   3.789 -1.7346 -1.1392 -0.8389
38621SOL    HW217871   3.301   4.350   3.915 -0.2513 -0.6406  0.2221
38622SOL     OW17872   7.543  10.036   9.447  0.0777 -0.0196  0.1579
38622SOL    HW117873   7.613   9.972   9.446  2.0460  1.9796  1.1638
38622SOL    HW217874   7.475   9.997   9.503  1.7511 -0.6937  1.7968
38623SOL     OW17875   7.309   2.126   6.734 -0.3766 -0.1640  0.5120
38623SOL    HW117876   7.373   2.084   6.791  0.5038 -0.0767 -0.3976
38623SOL    HW217877   7.294   2.063   6.664  0.4527  0.7430 -0.5031
38624SOL     OW17878   9.727   4.405  10.939 -0.2226  0.0918  0.5945
38624SOL    HW117879   9.809   4.365  10.968  0.6619  2.0027  0.8815
38624SOL    HW217880   9.670   4.401  11.015 -0.9033 -2.3722  0.0313
38625SOL     OW17881   7.519   9.362  10.246 -0.2965  0.0296  0.7886
38625SOL    HW117882   7.465   9.310  10.187 -0.2568  1.2679 -0.3848
38625SOL    HW217883   7.461   9.432  10.276  0.2531  0.5487  0.6487
38626SOL     OW17884   5.563   5.476   0.530 -0.0467  0.1692  0.1919
38626SOL    HW117885   5.563   5.572   0.523  0.8166  0.4005  2.4760
38626SOL    HW217886   5.578   5.459   0.623  1.8270 -2.2061 -0.4407
38627SOL     OW17887   4.577   2.642   3.553 -0.1283  0.7097  0.4686
38627SOL    HW117888   4.641   2.570   3.550  0.9576  1.5872  1.4836
38627SOL    HW217889   4.524   2.631   3.474  0.9197 -0.3800 -0.1117
38628SOL     OW17890   4.384   9.632   2.205 -0.4879  0.3560  0.2731
38628SOL    HW117891   4.476   9.653   2.187 -0.4375  2.7248  2.6532
38628SOL    HW217892   4.347   9.611   2.119  1.6671  1.8473 -1.1330
38629SOL     OW17893   5.988   6.733   2.028 -0.2107 -0.3778  0.2311
38629SOL    HW117894   5.996   6.829   2.031  1.0236 -0.4820  1.6342
38629SOL    HW217895   6.078   6.702   2.020 -0.3442 -1.4524  2.1929
38630SOL     OW17896   0.028   4.156  10.008  0.5460  0.5826 -0.6375
38630SOL    HW117897  -0.049   4.117   9.965 -1.4622 -0.3517  3.3247
38630SOL    HW217898   0.030   4.246   9.974 -2.7304  0.8387 -0.5597
38631SOL     OW17899   7.687   5.630   6.049 -0.5356 -0.1429 -0.0882
38631SOL    HW117900   7.691   5.670   6.136  0.1894 -0.2072 -0.0833
38631SOL    HW217901   7.613   5.672   6.006 -1.2838 -0.5354  0.7714
38632SOL     OW17902   3.693   8.409   3.113 -0.2022 -0.0248 -0.1863
38632SOL    HW117903   3.628   8.355   3.157  0.6532  0.9748  2.5246
38632SOL    HW217904   3.648   8.492   3.095 -0.7237 -0.6308 -1.8589
38633SOL     OW17905   7.115   5.993   8.114  0.1006  0.5168  0.8481
38633SOL    HW117906   7.163   5.935   8.054 -0.5923  0.0850  0.7010
38633SOL    HW217907   7.066   5.933   8.171 -0.7564  0.9529  0.5804
38634SOL     OW17908   9.775   6.518   1.423  0.2542  0.2926  0.7626
38634SOL    HW117909   9.773   6.423   1.416  1.1903  0.2100  1.4233
38634SOL    HW217910   9.866   6.542   1.403  0.0783  1.0285  0.8093
38635SOL     OW17911   8.494   8.944   2.959 -1.0570  0.5709 -0.6276
38635SOL    HW117912   8.560   8.938   3.029 -1.0094  0.8944 -0.6436
38635SOL    HW217913   8.421   8.891   2.991 -1.8197  2.2466  0.5495
38636SOL     OW17914   7.561   8.007   8.971  0.2339 -0.2136  0.8408
38636SOL    HW117915   7.628   8.065   9.007  0.0259  0.4269  0.2328
38636SOL    HW217916   7.481   8.031   9.017  0.2853 -0.5114  1.0887
38637SOL     OW17917   0.625  10.820   4.191  0.1291  0.7014  0.0963
38637SOL    HW117918   0.562  10.759   4.230 -1.5270  2.9042  1.0845
38637SOL    HW217919   0.677  10.851   4.266  1.4894 -0.0285 -0.5100
38638SOL     OW17920   3.827   3.386   5.612  0.0208  0.1752 -0.0586
38638SOL    HW117921   3.806   3.479   5.613 -0.9182  0.0919 -2.6503
38638SOL    HW217922   3.823   3.362   5.519  4.4408 -1.5287 -0.0455
38639SOL     OW17923   9.100   4.697   9.620  0.4436  0.0673 -0.3513
38639SOL    HW117924   9.080   4.782   9.661 -1.3548  1.0338 -3.0111
38639SOL    HW217925   9.195   4.688   9.632  0.5045  1.8365  1.0897
38640SOL     OW17926   4.554   2.723  10.908 -0.0865  0.3780 -0.0416
38640SOL    HW117927   4.556   2.778  10.830  2.7254  1.1800  0.4797
38640SOL    HW217928   4.487   2.763  10.964 -1.8833 -0.0017 -1.8084
38641SOL     OW17929   2.011   1.711   2.053  0.2990 -0.4218  0.2462
38641SOL    HW117930   1.921   1.689   2.028  0.8713 -0.0463 -2.4593
38641SOL    HW217931   2.065   1.648   2.006  1.6574  2.5121 -2.4763
38642SOL     OW17932   2.830   3.774   0.755  0.7096 -0.0430  0.3306
38642SOL    HW117933   2.836   3.684   0.721  1.9993 -0.4825  1.6320
38642SOL    HW217934   2.896   3.822   0.705 -0.7743  0.4977 -1.1880
38643SOL     OW17935   0.168   2.085   1.233 -0.6516  0.0536  0.1719
38643SOL    HW117936   0.188   1.992   1.224 -2.0002 -0.1765 -0.7904
38643SOL    HW217937   0.243   2.130   1.195 -0.4350 -0.6695 -0.2738
38644SOL     OW17938   5.779   2.999   4.311 -0.3715 -0.2897  0.0336
38644SOL    HW117939   5.873   3.001   4.326 -0.3493  1.7832 -0.1527
38644SOL    HW217940   5.754   3.091   4.297 -2.4123 -0.7867  0.0360
38645SOL     OW17941   1.817  10.258   1.728 -0.3256  0.0384 -0.1574
38645SOL    HW117942   1.882  10.327   1.715 -0.3205  0.3698  1.3594
38645SOL    HW217943   1.741  10.287   1.677  0.0311  0.6513 -0.3552
38646SOL     OW17944   7.772   0.185   3.626  0.4295 -0.4664 -0.5209
38646SOL    HW117945   7.772   0.135   3.545  1.3883  0.3600 -1.0572
38646SOL    HW217946   7.682   0.181   3.658 -0.1627 -0.0989 -2.0690
38647SOL     OW17947   8.181  10.912   7.018  0.5506  0.0918 -0.0642
38647SOL    HW117948   8.269  10.934   7.050  0.6442  1.2995 -1.0384
38647SOL    HW217949   8.196  10.873   6.932  0.1225  1.3771 -0.7622
38648SOL     OW17950   3.423   5.390   6.039  0.5127  0.3430 -0.4486
38648SOL    HW117951   3.361   5.318   6.050  0.9855 -0.0550 -0.3839
38648SOL    HW217952   3.386   5.461   6.092 -0.3308  0.3954 -1.0811
38649SOL     OW17953  10.238   7.633   9.387 -0.0396  0.4106  0.4950
38649SOL    HW117954  10.319   7.583   9.378  0.5482  1.2503  0.9468
38649SOL    HW217955  10.200   7.635   9.299 -1.4901 -3.0693  0.8814
38650SOL     OW17956   0.057   7.317   5.396 -0.6913  0.0876  0.2059
38650SOL    HW117957   0.112   7.305   5.474 -1.2762  0.3280  0.6644
38650SOL    HW217958  -0.026   7.350   5.430 -1.4731 -1.2021 -0.3837
38651SOL     OW17959   6.657   7.154   8.501 -0.2790 -0.2045  0.1892
38651SOL    HW117960   6.604   7.206   8.561  0.4920 -0.3350  1.0067
38651SOL    HW217961   6.593   7.107   8.447 -0.9836  1.2844 -0.3176
38652SOL     OW17962   3.892   1.094   6.616  0.2923 -1.6358 -0.4950
38652SOL    HW117963   3.865   1.002   6.622  2.7451 -2.5244 -1.4916
38652SOL    HW217964   3.975   1.098   6.664  1.6593 -0.6508 -2.7504
38653SOL     OW17965   2.122   3.961   8.951 -0.6349  0.1848  0.1149
38653SOL    HW117966   2.106   3.974   9.044 -1.3118  0.8620 -0.0789
38653SOL    HW217967   2.189   4.026   8.929 -0.1773 -0.2513  0.2070
38654SOL     OW17968   9.418   9.970   6.542 -0.2277 -0.3679 -0.2638
38654SOL    HW117969   9.506   9.933   6.534 -1.3058 -3.2182 -0.1676
38654SOL    HW217970   9.380   9.960   6.455 -0.9882 -0.6718  0.1010
38655SOL     OW17971   2.402   7.199   5.949 -0.1426 -0.1936  0.0142
38655SOL    HW117972   2.357   7.283   5.952 -1.3486 -0.8411  1.5259
38655SOL    HW217973   2.456   7.199   6.029 -0.1599 -0.8571  0.0294
38656SOL     OW17974   3.633   6.392   1.083 -0.1785  0.1777  0.1308
38656SOL    HW117975   3.715   6.401   1.034 -0.4562  0.6336 -0.2568
38656SOL    HW217976   3.588   6.319   1.040 -1.2478  1.7074 -1.5291
38657SOL     OW17977   5.826   2.314   7.013  0.5474 -0.6196 -0.7972
38657SOL    HW117978   5.788   2.389   7.059  0.6913 -1.3386  0.5239
38657SOL    HW217979   5.867   2.353   6.935 -0.6211  0.4841 -0.9048
38658SOL     OW17980   5.222   0.624  11.003 -0.5168  0.1036 -0.3773
38658SOL    HW117981   5.241   0.643  11.095 -0.4364  0.6825 -0.5059
38658SOL    HW217982   5.127   0.618  10.998 -0.5309  0.2491 -0.2860
38659SOL     OW17983   4.118   5.873   2.351 -0.0731  0.5885 -0.4720
38659SOL    HW117984   4.062   5.889   2.427  0.3199  0.8441 -0.2355
38659SOL    HW217985   4.187   5.938   2.357  0.3729  0.1383 -0.6439
38660SOL     OW17986   3.502  10.175   0.232 -0.1189 -0.2764  0.3155
38660SOL    HW117987   3.554  10.239   0.280  0.2046  1.2157 -1.8951
38660SOL    HW217988   3.561  10.101   0.219 -1.1322 -2.1737  4.7568
38661SOL     OW17989   3.486   0.500   7.161  0.1314  0.6059 -0.2866
38661SOL    HW117990   3.543   0.451   7.102 -1.5581 -1.0559 -0.6354
38661SOL    HW217991   3.475   0.585   7.119  1.2631  0.4896 -0.8669
38662SOL     OW17992   2.629   3.056   2.169 -0.2371 -0.4598 -0.0272
38662SOL    HW117993   2.562   3.077   2.105 -1.8415 -2.2309  0.9672
38662SOL    HW217994   2.691   3.129   2.164  0.2829 -0.9588 -4.2133
38663SOL     OW17995   7.365   4.542   0.763  0.2732 -0.3141  0.1819
38663SOL    HW117996   7.315   4.622   0.781 -1.3084 -0.4158 -3.0174
38663SOL    HW217997   7.315   4.497   0.695  4.0243 -1.0933 -2.3829
38664SOL     OW17998   0.109   0.269   4.698  0.0850  0.8328  0.3815
38664SOL    HW117999   0.109   0.180   4.736 -2.9052  0.4946 -0.2165
38664SOL    HW218000   0.200   0.299   4.709  0.4024 -0.8981  3.8432
38665SOL     OW18001   5.056  10.097   7.898 -0.0306 -0.0677 -0.5162
38665SOL    HW118002   5.125  10.147   7.854  1.4023 -2.5242 -1.1880
38665SOL    HW218003   5.028  10.032   7.834 -3.0357  0.7973 -0.2648
38666SOL     OW18004   1.817  10.652   7.781  0.6352  0.3702 -0.6391
38666SOL    HW118005   1.831  10.719   7.714  3.0146  0.0844 -0.5119
38666SOL    HW218006   1.823  10.569   7.734  2.1312  0.1733 -0.1578
38667SOL     OW18007   5.087  10.861   9.334  0.2458 -0.0188 -0.1307
38667SOL    HW118008   5.163  10.849   9.276  1.1207  0.1171  0.9586
38667SOL    HW218009   5.013  10.869   9.274  1.1366  0.2196 -1.2471
38668SOL     OW18010   4.375   5.300   3.259  0.4808 -0.3483 -0.2418
38668SOL    HW118011   4.468   5.281   3.251  0.6228 -1.3872  2.7278
38668SOL    HW218012   4.372   5.391   3.288  0.5525 -0.3442 -0.2457
38669SOL     OW18013   1.501   7.953   2.697 -0.5776 -0.0670 -0.8807
38669SOL    HW118014   1.543   7.883   2.748 -0.4083 -0.0297 -0.9685
38669SOL    HW218015   1.413   7.960   2.734 -0.8647 -0.8736 -1.3976
38670SOL     OW18016   6.619   9.273   8.723  0.0092  0.2046  0.0426
38670SOL    HW118017   6.689   9.255   8.786 -0.2762  0.3487  0.3989
38670SOL    HW218018   6.587   9.360   8.746  2.6174  2.1352 -2.7986
38671SOL     OW18019   8.400   8.985  10.303 -0.9114  0.1511 -0.1790
38671SOL    HW118020   8.478   8.981  10.358  0.4013 -0.5731 -1.9849
38671SOL    HW218021   8.379   9.078  10.298 -1.5048  0.1770  2.0595
38672SOL     OW18022  10.094  10.963   1.204  0.1054 -0.6610 -0.6874
38672SOL    HW118023  10.065  10.896   1.141  0.5753 -0.0395 -1.5820
38672SOL    HW218024  10.062  11.046   1.167 -2.0854 -0.5076  1.3258
38673SOL     OW18025  10.635   0.640   8.411 -0.3347 -0.2169  0.5012
38673SOL    HW118026  10.722   0.675   8.393  0.3447 -1.7544  0.6972
38673SOL    HW218027  10.583   0.667   8.335  0.3306  0.5994  0.3181
38674SOL     OW18028   1.835   9.361   7.283  0.0749  0.3387  0.3667
38674SOL    HW118029   1.777   9.287   7.265 -1.3485  1.1291  1.5223
38674SOL    HW218030   1.818   9.383   7.375  0.2503  2.2880 -0.0317
38675SOL     OW18031   2.092   7.238   1.266 -0.4642 -0.5376  0.0636
38675SOL    HW118032   2.179   7.201   1.249 -0.9130 -1.2219 -0.7907
38675SOL    HW218033   2.031   7.173   1.231 -1.2764  0.9564 -1.4399
38676SOL     OW18034   1.996   3.499   2.816  0.2410  0.3872 -0.3824
38676SOL    HW118035   1.929   3.517   2.882  1.2834 -0.9501  1.1305
38676SOL    HW218036   1.966   3.420   2.772  0.5763  0.0380 -0.0008
38677SOL     OW18037   2.177  10.076   2.331  0.2888 -0.2444 -0.2563
38677SOL    HW118038   2.257  10.059   2.381  0.4094  0.9651 -0.0246
38677SOL    HW218039   2.117  10.116   2.394 -0.7868 -1.8060 -0.2425
38678SOL     OW18040   3.529   2.161   2.064 -0.1628  0.5779  0.0076
38678SOL    HW118041   3.522   2.256   2.057 -0.8038  0.7489  2.2514
38678SOL    HW218042   3.522   2.129   1.974 -3.4459  2.4274 -0.5369
38679SOL     OW18043   1.542   3.933   1.839 -0.1126 -0.2359 -0.0309
38679SOL    HW118044   1.553   3.909   1.747  0.9206 -2.8648  0.6732
38679SOL    HW218045   1.484   4.009   1.837  0.9730  0.6693 -2.8948
38680SOL     OW18046   5.098   2.646   5.111  0.5816 -0.5999  0.1960
38680SOL    HW118047   5.040   2.614   5.180  0.8061 -0.9591  0.2186
38680SOL    HW218048   5.108   2.572   5.051 -2.0704  0.5914 -1.9006
38681SOL     OW18049   6.496   3.970  10.392  0.6035 -0.2579 -0.2535
38681SOL    HW118050   6.566   3.996  10.333  2.3432  0.3238  1.9588
38681SOL    HW218051   6.490   3.875  10.382  1.0748 -0.2025 -1.1141
38682SOL     OW18052   4.500  10.768   4.772 -0.4279 -0.4682 -1.1972
38682SOL    HW118053   4.514  10.760   4.678 -0.8322  2.9581 -1.6756
38682SOL    HW218054   4.563  10.834   4.800 -1.4690 -0.1810  0.6087
38683SOL     OW18055   2.790   7.729   9.371 -0.5293 -0.2949  0.0526
38683SOL    HW118056   2.731   7.804   9.373  2.5755  2.4173 -0.5524
38683SOL    HW218057   2.796   7.706   9.278 -0.4383 -0.3777  0.0798
38684SOL     OW18058   8.288   3.791   1.233  0.3287  0.5480 -0.2833
38684SOL    HW118059   8.332   3.863   1.188  3.8046 -1.6024 -0.6537
38684SOL    HW218060   8.354   3.755   1.292 -1.9778 -0.9926  1.5626
38685SOL     OW18061   2.735  10.450   1.797  0.1664  0.7791 -0.0914
38685SOL    HW118062   2.785  10.406   1.729 -0.2071  1.6807 -0.9795
38685SOL    HW218063   2.780  10.428   1.879  0.9701  0.1607 -0.6911
38686SOL     OW18064   7.600   1.969   2.643  0.3038  0.5230 -0.5071
38686SOL    HW118065   7.532   2.018   2.689  0.3350  0.9901 -0.9524
38686SOL    HW218066   7.615   2.018   2.562  2.8009  1.7641  0.5772
38687SOL     OW18067   1.593  10.830   1.189 -0.2029  0.0928  0.1671
38687SOL    HW118068   1.512  10.881   1.177 -0.8044 -1.3076 -2.4454
38687SOL    HW218069   1.639  10.839   1.106  0.1790 -2.7165  0.0003
38688SOL     OW18070   9.673   4.056   4.224 -0.0868  0.2696 -0.4138
38688SOL    HW118071   9.655   3.991   4.292 -1.0940  2.2311  1.3104
38688SOL    HW218072   9.733   4.012   4.164  1.2825 -1.4289  2.0169
38689SOL     OW18073   0.030   6.304  10.642 -0.3597 -0.1734 -0.0979
38689SOL    HW118074  -0.062   6.325  10.658 -0.4330 -0.7663  0.2577
38689SOL    HW218075   0.056   6.249  10.715  0.4941  0.5975  0.2005
38690SOL     OW18076  10.118   5.355   3.344  0.3187  0.3848 -0.4315
38690SOL    HW118077  10.096   5.421   3.409  1.2055  0.6876 -0.4326
38690SOL    HW218078  10.210   5.336   3.358  0.2145 -0.4615 -0.7897
38691SOL     OW18079  11.033   5.492   9.330  0.7694  0.0344  0.4620
38691SOL    HW118080  10.990   5.424   9.278  0.7240  2.1408 -2.5357
38691SOL    HW218081  11.122   5.498   9.294  0.6073  1.8469  0.2532
38692SOL     OW18082   6.804   9.671   3.162 -0.7097 -0.4128 -0.0011
38692SOL    HW118083   6.862   9.695   3.090  1.3271  1.0041  1.9929
38692SOL    HW218084   6.858   9.618   3.220 -1.8964 -0.3652  1.1826
38693SOL     OW18085   4.051   7.236   9.243  0.0520  0.2844  0.2531
38693SOL    HW118086   3.970   7.284   9.224  0.7982  1.0877 -1.0333
38693SOL    HW218087   4.037   7.149   9.206 -0.5022  0.1719  0.7152
38694SOL     OW18088   8.109  10.514   3.546 -0.2598  0.5644 -0.6171
38694SOL    HW118089   8.131  10.429   3.585 -1.2618  0.4452 -0.2944
38694SOL    HW218090   8.126  10.577   3.616 -2.7127  0.2870  0.3282
38695SOL     OW18091   4.637   0.924   8.066 -0.0714 -0.2861 -0.0700
38695SOL    HW118092   4.638   0.831   8.091 -0.1137  0.3790  2.7834
38695SOL    HW218093   4.724   0.941   8.032  0.0568 -1.3016 -0.2791
38696SOL     OW18094   1.197   8.485   6.348  0.7078  0.0974  0.4176
38696SOL    HW118095   1.261   8.548   6.381 -0.0346  1.0180  0.1827
38696SOL    HW218096   1.146   8.460   6.425  0.3666  0.5782  0.3605
38697SOL     OW18097   8.925   2.382  10.494  0.0415  0.3990 -0.0120
38697SOL    HW118098   8.933   2.346  10.405 -2.9102  1.3196 -0.7675
38697SOL    HW218099   8.965   2.468  10.488  1.0419 -0.0529 -0.0551
38698SOL     OW18100  10.000   5.337   8.181  0.1937 -0.4487 -0.2018
38698SOL    HW118101   9.914   5.343   8.139 -0.0583 -1.0784  0.2022
38698SOL    HW218102  10.010   5.419   8.229 -0.4035 -0.5768  0.1513
38699SOL     OW18103   7.478   8.837   9.654 -0.2742  0.6094 -0.3933
38699SOL    HW118104   7.547   8.818   9.591  0.7842  2.2334  0.2167
38699SOL    HW218105   7.516   8.903   9.713 -1.4500 -0.3312  1.5324
38700SOL     OW18106   1.983  11.028   4.465 -0.3720 -0.0394  0.3404
38700SOL    HW118107   1.970  11.016   4.371  2.1597 -0.5217 -0.0099
38700SOL    HW218108   2.003  10.941   4.499 -0.6589  0.2242  1.2285
38701SOL     OW18109   8.020   2.803   1.457 -0.0893 -0.7003  0.4615
38701SOL    HW118110   7.948   2.855   1.422  0.7628 -0.0986 -0.4124
38701SOL    HW218111   8.033   2.837   1.546 -0.3742 -0.2971  0.3493
38702SOL     OW18112   1.190   5.053  10.354 -0.7797 -0.1190 -0.4239
38702SOL    HW118113   1.138   4.984  10.313 -0.3741 -0.6785 -0.0325
38702SOL    HW218114   1.268   5.007  10.387  0.8071  0.9286 -2.4462
38703SOL     OW18115   6.186   3.187   7.187  0.8558  0.0637 -0.0275
38703SOL    HW118116   6.116   3.239   7.149  0.0237  0.0934  1.4643
38703SOL    HW218117   6.240   3.251   7.234 -1.0980 -0.4401  3.2340
38704SOL     OW18118   8.467   8.210   9.679  0.5015  0.8947  0.3574
38704SOL    HW118119   8.419   8.282   9.638  2.0337  0.6716 -2.0218
38704SOL    HW218120   8.465   8.230   9.773 -3.5169  1.2474  0.3660
38705SOL     OW18121   7.803   5.737   2.771 -0.1304  0.1242 -0.4501
38705SOL    HW118122   7.807   5.731   2.675  0.2344  1.0020 -0.4992
38705SOL    HW218123   7.853   5.816   2.792 -3.2188  2.0302  0.2051
38706SOL     OW18124   2.268   6.880   2.125  0.0347 -0.0771 -0.0226
38706SOL    HW118125   2.240   6.904   2.037 -0.1601  0.8370  0.2847
38706SOL    HW218126   2.329   6.948   2.151  0.4813 -0.6137  0.3643
38707SOL     OW18127   1.167   5.319   1.228 -0.5738 -0.0282 -0.1511
38707SOL    HW118128   1.177   5.254   1.159 -0.1729  1.4856 -1.5785
38707SOL    HW218129   1.093   5.373   1.201 -1.7810 -0.6495  1.6915
38708SOL     OW18130   7.128   9.893   5.799  0.4041  0.1893 -0.0993
38708SOL    HW118131   7.215   9.890   5.839  0.7997  0.2460 -0.9370
38708SOL    HW218132   7.118   9.985   5.772 -0.7778  0.6782  1.8359
38709SOL     OW18133   7.325   9.580   8.521 -0.5371  0.4452 -0.7716
38709SOL    HW118134   7.343   9.495   8.482  0.0274  0.8997 -1.5440
38709SOL    HW218135   7.234   9.576   8.548  0.5583 -2.0743  3.5191
38710SOL     OW18136   7.470   1.573  10.580 -0.1611  0.0800 -0.2794
38710SOL    HW118137   7.480   1.551  10.487 -0.0093 -1.9399  0.1724
38710SOL    HW218138   7.403   1.512  10.612 -0.8124  1.3026  0.7765
38711SOL     OW18139  10.010  10.685   2.579  0.1170 -1.1791  0.4494
38711SOL    HW118140  10.051  10.601   2.557  0.3067 -0.8206 -0.6332
38711SOL    HW218141   9.994  10.726   2.494 -0.0797 -0.1699  0.9664
38712SOL     OW18142   4.826   2.543   6.554  0.2747 -1.0273  0.1864
38712SOL    HW118143   4.885   2.605   6.595  0.2249  0.4222 -1.7942
38712SOL    HW218144   4.755   2.532   6.617  0.7452  0.2017  0.9690
38713SOL     OW18145   2.814   6.706   0.734  0.4678 -0.3898 -0.1312
38713SOL    HW118146   2.875   6.715   0.662  0.4047 -1.7204 -0.3813
38713SOL    HW218147   2.808   6.793   0.773  1.0311  0.1779 -1.2967
38714SOL     OW18148   8.797   4.459   0.983 -0.3333 -0.1361  0.1987
38714SOL    HW118149   8.863   4.452   1.051 -2.7914  2.1992  3.1029
38714SOL    HW218150   8.744   4.379   0.992  0.0326 -0.3845  0.1783
38715SOL     OW18151   5.614   2.546   0.454  0.1781 -0.5963  0.2455
38715SOL    HW118152   5.680   2.491   0.413 -0.2562 -0.1537 -1.1227
38715SOL    HW218153   5.662   2.623   0.485  0.2221  0.2030 -1.6545
38716SOL     OW18154   2.956   5.947   5.961 -0.3950  0.0375 -0.0655
38716SOL    HW118155   2.949   6.030   6.009  3.6459  0.4132  0.1589
38716SOL    HW218156   2.877   5.898   5.987 -2.6788  3.5115  0.1921
38717SOL     OW18157   9.835   9.719   2.425  0.1309 -0.3084 -0.5077
38717SOL    HW118158   9.846   9.813   2.442 -0.0848 -0.3792  0.0554
38717SOL    HW218159   9.796   9.715   2.338 -1.2928  0.2161  0.0610
38718SOL     OW18160   9.324   4.403  10.460 -0.1416  0.2267  0.5546
38718SOL    HW118161   9.301   4.425  10.550 -0.2358  1.6226  0.2131
38718SOL    HW218162   9.296   4.312  10.449 -1.0096  0.3494  1.6363
38719SOL     OW18163   1.397   7.873   1.552 -0.7499 -0.3096 -0.7196
38719SOL    HW118164   1.444   7.863   1.469 -0.3819 -1.1878 -0.4203
38719SOL    HW218165   1.466   7.892   1.616 -1.1077  1.0609 -0.7252
38720SOL     OW18166   6.129   5.321   1.398 -0.0553  0.1127  0.0528
38720SOL    HW118167   6.042   5.291   1.421  0.3156  0.5107  2.1041
38720SOL    HW218168   6.188   5.259   1.442  0.7332 -0.2546 -1.4352
38721SOL     OW18169   1.807   8.404   9.155 -0.3524 -0.2662  0.0200
38721SOL    HW118170   1.902   8.406   9.169 -0.0843 -1.4085 -1.4434
38721SOL    HW218171   1.775   8.344   9.223 -0.1373  0.6758  0.9766
38722SOL     OW18172   1.985   4.655   1.023  0.0496 -0.3782  0.0153
38722SOL    HW118173   1.992   4.624   1.113  0.6028  0.8931  0.4414
38722SOL    HW218174   1.904   4.706   1.022  1.1168  1.4273  0.4205
38723SOL     OW18175   2.407   3.627   8.111  0.3888 -0.1991 -0.2338
38723SOL    HW118176   2.446   3.667   8.189 -1.6159  1.4167  0.0208
38723SOL    HW218177   2.404   3.533   8.132  1.2797  0.0083  0.9731
38724SOL     OW18178  10.771   7.245   3.712 -0.7334 -0.1502 -0.1506
38724SOL    HW118179  10.699   7.282   3.661 -2.4105  0.7509  2.6348
38724SOL    HW218180  10.822   7.321   3.739 -2.7173  0.1308  3.4440
38725SOL     OW18181   5.956   2.574   3.776 -0.4048  0.1924 -0.3200
38725SOL    HW118182   6.003   2.657   3.783  0.2619 -0.2058  0.0155
38725SOL    HW218183   5.943   2.545   3.867 -2.1459  0.7475 -0.3449
38726SOL     OW18184   2.104   3.693   4.674 -0.2966  0.5917  0.7215
38726SOL    HW118185   2.130   3.601   4.681  0.1503  0.6586  0.0646
38726SOL    HW218186   2.123   3.716   4.583 -0.7223  1.2400  0.7923
38727SOL     OW18187  10.881   2.891   2.877  0.1595 -0.4577 -0.0494
38727SOL    HW118188  10.931   2.862   2.954  2.1682 -0.8845 -1.4455
38727SOL    HW218189  10.925   2.970   2.848  0.2939 -1.0589 -1.5521
38728SOL     OW18190   5.903   1.598   4.254  0.3586  0.3895  0.4754
38728SOL    HW118191   5.916   1.503   4.250 -0.1734  0.2205  2.1000
38728SOL    HW218192   5.878   1.622   4.165  1.7182 -0.7911 -0.2718
38729SOL     OW18193   0.489   3.629   9.074 -0.2187 -0.4791 -0.5028
38729SOL    HW118194   0.501   3.705   9.017  0.4918 -0.3127 -0.1414
38729SOL    HW218195   0.394   3.624   9.088 -0.2025  1.1312  0.5187
38730SOL     OW18196   1.729   1.967   5.793 -0.1020  0.5871  0.3581
38730SOL    HW118197   1.693   1.973   5.881  0.9012  1.2296  0.7436
38730SOL    HW218198   1.653   1.947   5.737 -0.6652 -0.3236  1.4144
38731SOL     OW18199   3.650   6.876   2.307  0.5576  0.2150  0.2739
38731SOL    HW118200   3.573   6.857   2.360  0.0969  0.4667 -0.3039
38731SOL    HW218201   3.714   6.810   2.333  0.1470  0.0002  0.7480
38732SOL     OW18202   2.107   3.689   8.122  0.4344  0.8379 -0.8774
38732SOL    HW118203   2.146   3.774   8.100  0.7115  0.4469 -1.9244
38732SOL    HW218204   2.181   3.628   8.121  0.0239  0.3419 -1.4876
38733SOL     OW18205   0.153   8.224  11.012  0.3845  0.1384 -0.4763
38733SOL    HW118206   0.167   8.137  11.048 -2.1479 -0.5248 -0.8559
38733SOL    HW218207   0.128   8.277  11.088  0.0730  0.0405 -0.5087
38734SOL     OW18208   0.544   2.894   6.195  0.4620  0.2109 -0.1093
38734SOL    HW118209   0.522   2.950   6.121 -1.1105  0.6991  0.6804
38734SOL    HW218210   0.518   2.806   6.168  2.0227 -0.0236 -0.9736
38735SOL     OW18211  10.848   8.020  10.253 -0.1610  0.2875  0.0532
38735SOL    HW118212  10.833   7.930  10.223 -0.5497  0.2010  0.4911
38735SOL    HW218213  10.879   8.010  10.343  1.1385  0.5349 -0.3552
38736SOL     OW18214   3.319   8.083   6.966 -0.5088 -0.0520 -0.0169
38736SOL    HW118215   3.284   8.034   7.040 -1.3902 -0.3852 -0.6288
38736SOL    HW218216   3.295   8.174   6.984 -1.9474 -0.2966 -0.5256
38737SOL     OW18217   0.539   0.087   2.318  0.4489  1.1648 -0.5263
38737SOL    HW118218   0.472   0.133   2.270 -2.0718 -1.4878  0.1576
38737SOL    HW218219   0.533   0.121   2.407 -2.7260 -1.4289  0.4579
38738SOL     OW18220  10.269   0.494   1.037  0.3048 -0.7911  0.6250
38738SOL    HW118221  10.344   0.526   1.087  1.6225 -2.4236 -0.2116
38738SOL    HW218222  10.225   0.432   1.096  1.0734 -1.6940  0.2697
38739SOL     OW18223   1.925   5.587  10.629  0.2955  0.2271 -1.0886
38739SOL    HW118224   1.970   5.590  10.713  0.5082  0.8147 -1.2212
38739SOL    HW218225   1.892   5.497  10.623 -2.9399  1.0624  1.3225
38740SOL     OW18226  10.248   8.869   5.384 -0.0907  0.4152  0.1732
38740SOL    HW118227  10.224   8.859   5.292  0.2869 -3.2580  0.3063
38740SOL    HW218228  10.169   8.845   5.433  0.0619  1.1404  0.7922
38741SOL     OW18229   1.828  10.183  10.533  0.5424  0.8770 -0.5987
38741SOL    HW118230   1.801  10.232  10.455 -0.9651  1.6013  0.3414
38741SOL    HW218231   1.810  10.092  10.512  1.2381  0.9316 -1.5075
38742SOL     OW18232   1.741  10.346   4.313  0.1133  0.5121  0.8102
38742SOL    HW118233   1.701  10.322   4.397 -0.9179 -1.0418 -0.0675
38742SOL    HW218234   1.666  10.370   4.258  0.4606 -1.0916 -0.4449
38743SOL     OW18235   6.595  10.181   1.487  0.2002  0.3104 -0.0087
38743SOL    HW118236   6.634  10.094   1.479 -2.2299 -0.9683  0.9933
38743SOL    HW218237   6.661  10.240   1.451  2.9779 -1.6453  1.4850
38744SOL     OW18238  10.549   9.129   8.574  0.1478 -0.5491  0.2320
38744SOL    HW118239  10.482   9.196   8.590  0.2144 -0.0426 -1.4675
38744SOL    HW218240  10.618   9.175   8.527  0.5196 -1.6615 -0.3360
38745SOL     OW18241   4.243   1.435   4.733  0.2422  0.3166  0.4032
38745SOL    HW118242   4.234   1.463   4.642  1.2833 -1.0085 -0.1354
38745SOL    HW218243   4.229   1.340   4.731  1.7090  0.0394  1.3734
38746SOL     OW18244  10.649   4.764   5.779  0.4413 -0.0749  0.3608
38746SOL    HW118245  10.562   4.803   5.782  1.0683  1.3069  1.3128
38746SOL    HW218246  10.639   4.687   5.722 -1.5584 -0.3790  1.0595
38747SOL     OW18247   6.098   3.693   3.318 -0.2936 -0.9627  0.0623
38747SOL    HW118248   6.027   3.745   3.358  0.1945  0.6107 -1.0180
38747SOL    HW218249   6.177   3.722   3.364 -0.2702 -2.5512  1.1082
38748SOL     OW18250   2.013   1.309   5.945 -0.0439  0.5976 -0.2835
38748SOL    HW118251   2.098   1.352   5.944  0.9218 -1.1972 -1.5533
38748SOL    HW218252   1.995   1.287   5.854 -0.3048 -1.8432  0.2649
38749SOL     OW18253   8.514  10.069   2.530 -0.1538 -0.0998 -0.9225
38749SOL    HW118254   8.492  10.050   2.621 -0.7636  1.2657 -0.7571
38749SOL    HW218255   8.579  10.003   2.506  1.2072  0.4449  1.0045
38750SOL     OW18256   0.427   0.411   7.730 -0.2016 -0.5794 -0.0757
38750SOL    HW118257   0.447   0.454   7.646  0.6734  0.7589  0.7883
38750SOL    HW218258   0.503   0.355   7.747 -1.6092 -3.1412 -1.5145
38751SOL     OW18259   3.772   2.842   4.603  0.6494 -0.1934 -0.3184
38751SOL    HW118260   3.752   2.935   4.592  2.3085  0.6664  2.6122
38751SOL    HW218261   3.862   2.833   4.571  0.6776 -0.6626 -0.1156
38752SOL     OW18262   3.092   9.264   7.322  0.2886  0.1034 -0.1478
38752SOL    HW118263   3.149   9.234   7.393 -1.3618 -1.7306  0.5116
38752SOL    HW218264   3.097   9.194   7.257  1.7314  1.7356 -1.8936
38753SOL     OW18265   9.421   3.456   1.322  0.1162 -0.6261 -0.2352
38753SOL    HW118266   9.468   3.474   1.403 -0.2544  0.5947 -0.2825
38753SOL    HW218267   9.396   3.542   1.288 -1.9168 -1.2147 -0.3675
38754SOL     OW18268   9.499   9.277   8.402 -0.2631 -0.0118 -0.5127
38754SOL    HW118269   9.484   9.216   8.474  0.9366 -0.4548 -0.6120
38754SOL    HW218270   9.418   9.327   8.395 -0.5118 -0.1896  0.9259
38755SOL     OW18271   2.373   4.063   2.862 -0.1012  0.2112  0.3434
38755SOL    HW118272   2.358   3.970   2.846 -0.8037  0.1666  1.1684
38755SOL    HW218273   2.463   4.069   2.893 -0.0538 -0.1961  0.2841
38756SOL     OW18274   3.565   1.192   8.792  0.5493 -0.1992  0.1869
38756SOL    HW118275   3.517   1.197   8.710  0.2186  0.7787  0.4321
38756SOL    HW218276   3.544   1.105   8.826  0.2990 -0.4223 -0.5187
38757SOL     OW18277   2.894   4.575  10.735  0.1345  0.2241 -1.2052
38757SOL    HW118278   2.979   4.567  10.692  1.5700 -1.7489  1.6691
38757SOL    HW218279   2.863   4.485  10.746 -2.2292  0.8755 -1.8914
38758SOL     OW18280   6.792   5.389  10.123 -0.5731  0.0823  0.3004
38758SOL    HW118281   6.719   5.332  10.150 -2.1958  2.0208  0.2656
38758SOL    HW218282   6.758   5.435  10.046  1.1776  0.1621 -0.4566
38759SOL     OW18283   5.045   2.530   1.139 -0.2149  0.4388  0.0673
38759SOL    HW118284   5.030   2.440   1.166  1.2263  0.0151 -0.4484
38759SOL    HW218285   5.087   2.572   1.214  1.4866 -0.0555 -0.5624
38760SOL     OW18286   6.145  10.161   9.944 -0.0661 -0.2273  0.0567
38760SOL    HW118287   6.144  10.128  10.034 -0.0451  1.0859  0.5587
38760SOL    HW218288   6.053  10.173   9.922 -0.0417  0.2153  0.1952
38761SOL     OW18289   0.734   3.921   9.230 -0.0699 -0.2122  0.5893
38761SOL    HW118290   0.726   4.007   9.189 -3.2340 -0.2914  0.7801
38761SOL    HW218291   0.798   3.875   9.177 -1.2775  0.9377 -2.0201
38762SOL     OW18292   7.181   3.917  10.168  0.3407 -0.4889 -0.0312
38762SOL    HW118293   7.204   3.987  10.230  0.4000 -2.1712  1.9347
38762SOL    HW218294   7.264   3.873  10.150 -0.2347 -2.6482  2.1289
38763SOL     OW18295   3.544   2.691   1.727 -0.3714  0.3559  0.1818
38763SOL    HW118296   3.476   2.758   1.729 -1.8478 -1.0740 -0.1295
38763SOL    HW218297   3.506   2.617   1.774  1.0712 -0.4106  0.1903
38764SOL     OW18298   8.884  10.750   0.040 -0.7178 -0.0288  0.0306
38764SOL    HW118299   8.869  10.813   0.110  0.6079  1.4557 -0.9557
38764SOL    HW218300   8.976  10.762   0.016 -0.5125 -2.0895 -0.4657
38765SOL     OW18301   8.017   0.192   8.490 -0.3086  0.2732  0.4194
38765SOL    HW118302   7.996   0.264   8.431 -2.5984  0.1286  0.9656
38765SOL    HW218303   8.074   0.135   8.438  0.6693  1.8940 -0.3858
38766SOL     OW18304   0.808   1.887   7.352  0.5088 -0.3162  0.0071
38766SOL    HW118305   0.775   1.819   7.412  0.9306 -1.6952 -1.2461
38766SOL    HW218306   0.806   1.845   7.266  2.3175  0.7298 -0.5964
38767SOL     OW18307   8.067   1.978   1.422 -0.6650  0.1655 -0.3807
38767SOL    HW118308   8.118   1.917   1.475  0.5980  0.8744 -0.7358
38767SOL    HW218309   8.066   2.059   1.473 -0.2695  0.5619 -1.0008
38768SOL     OW18310   8.637   9.677   1.419 -0.3512  0.6684 -0.2802
38768SOL    HW118311   8.547   9.650   1.438 -0.3016  1.0223  0.4609
38768SOL    HW218312   8.634   9.772   1.416  0.0309  0.6853 -0.1228
38769SOL     OW18313   5.787   4.751   3.606 -0.2513  0.0201  0.0752
38769SOL    HW118314   5.871   4.711   3.628 -0.4904 -0.7900 -0.4138
38769SOL    HW218315   5.759   4.796   3.685  1.4971  1.8747 -0.2831
38770SOL     OW18316   2.593   2.429   5.387  0.3013 -0.0624  0.4153
38770SOL    HW118317   2.604   2.515   5.427 -1.0198 -0.2809  1.3304
38770SOL    HW218318   2.559   2.447   5.299 -3.0060  0.3649  1.6638
38771SOL     OW18319  10.132   9.874   1.338  0.5612 -0.0829 -0.1695
38771SOL    HW118320  10.170   9.958   1.311  1.6361 -0.4536  0.1631
38771SOL    HW218321  10.119   9.883   1.432 -0.7028  0.2303 -0.3531
38772SOL     OW18322   4.843   1.258   1.381  0.2557  0.4521 -0.6041
38772SOL    HW118323   4.902   1.263   1.457  0.0613 -2.5419 -0.1427
38772SOL    HW218324   4.760   1.229   1.418 -0.2058  0.2003 -1.8113
38773SOL     OW18325   8.919   5.978   7.963 -0.5345 -0.2471 -0.5753
38773SOL    HW118326   8.988   6.045   7.962 -0.6446 -0.1361 -1.4104
38773SOL    HW218327   8.901   5.964   8.056 -0.5538  0.9349 -0.3842
38774SOL     OW18328   4.065   2.745   4.618  0.2297  0.2811  0.3545
38774SOL    HW118329   4.079   2.828   4.572 -1.0785  0.1019 -0.3988
38774SOL    HW218330   4.088   2.677   4.555 -0.6130  0.0496  0.2863
38775SOL     OW18331   8.091   9.440   0.613 -0.2891 -0.4836  0.2957
38775SOL    HW118332   8.127   9.522   0.580  1.2024 -0.8504  0.9376
38775SOL    HW218333   8.144   9.420   0.690 -1.3558 -1.4870  0.7980
38776SOL     OW18334   7.941   0.645   5.751  0.6646  0.0083 -0.2051
38776SOL    HW118335   7.877   0.701   5.796 -0.0247  1.1049 -2.4431
38776SOL    HW218336   7.944   0.678   5.662  2.0925 -2.0154 -0.9769
38777SOL     OW18337   0.773   0.514  10.792 -0.0989  0.0054  0.2035
38777SOL    HW118338   0.806   0.532  10.703  0.2078  0.4976  0.4088
38777SOL    HW218339   0.852   0.497  10.843 -0.2377  0.2071  0.4864
38778SOL     OW18340   7.234   1.803   0.240 -0.2043  0.1281  0.2773
38778SOL    HW118341   7.261   1.887   0.202  1.5924 -1.6327 -2.6927
38778SOL    HW218342   7.168   1.770   0.180  0.2527 -1.2575  0.5024
38779SOL     OW18343   1.243   7.382   4.881 -0.5799 -0.2846 -0.0761
38779SOL    HW118344   1.159   7.427   4.876 -1.3067 -1.2644  1.9269
38779SOL    HW218345   1.221   7.289   4.878  0.4578 -0.5534  0.2030
38780SOL     OW18346   5.566  10.883   9.388  0.0538 -0.0355 -0.0114
38780SOL    HW118347   5.629  10.870   9.318  0.1058  1.1862 -0.2102
38780SOL    HW218348   5.619  10.903   9.466 -0.0494  2.1775 -0.4307
38781SOL     OW18349  10.910   6.601  10.512  0.3704  0.0544  0.4672
38781SOL    HW118350  10.836   6.623  10.569  0.2005 -0.0210  0.2747
38781SOL    HW218351  10.904   6.506  10.501 -0.1345  0.1786 -0.4210
38782SOL     OW18352   8.471   5.430   9.830  0.2711  0.3110 -0.1107
38782SOL    HW118353   8.376   5.438   9.818  0.2894  2.1190  0.6447
38782SOL    HW218354   8.508   5.504   9.781  1.1632  0.6074  0.9746
38783SOL     OW18355   8.802   1.633   1.146 -0.3724 -0.1946  0.4444
38783SOL    HW118356   8.721   1.684   1.147 -0.0012  0.7431 -2.8567
38783SOL    HW218357   8.870   1.696   1.171 -0.3493 -0.1693  0.3173
38784SOL     OW18358   6.499   2.768   9.273 -0.0779 -0.1214  0.1457
38784SOL    HW118359   6.501   2.796   9.365  0.8239  0.5066 -0.0590
38784SOL    HW218360   6.526   2.676   9.275  1.5603  0.3434  0.3565
38785SOL     OW18361   3.695   6.212   0.828  0.6718  0.3735 -0.1966
38785SOL    HW118362   3.713   6.268   0.752  1.7446  1.4442  0.8108
38785SOL    HW218363   3.757   6.140   0.820  0.0340 -0.1109 -0.9102
38786SOL     OW18364   1.003   3.647   2.023 -0.3754  0.0391 -0.4599
38786SOL    HW118365   1.008   3.695   1.940  0.2311 -0.7791 -0.9165
38786SOL    HW218366   1.093   3.647   2.056 -0.6069  0.3071  0.1672
38787SOL     OW18367   0.005   0.962  10.463 -0.6710  0.4038  0.1920
38787SOL    HW118368  -0.041   1.024  10.407  0.7956  1.5247  0.1655
38787SOL    HW218369   0.085   0.940  10.414  0.3180  0.8953  1.5362
38788SOL     OW18370   2.329   0.439   8.086  0.5521  1.0276  0.5639
38788SOL    HW118371   2.390   0.368   8.067  1.4775  2.0323 -0.4055
38788SOL    HW218372   2.247   0.396   8.107  0.4528 -0.3430 -2.1709
38789SOL     OW18373   3.301   5.035   2.410 -0.5627  0.6035 -0.3774
38789SOL    HW118374   3.211   5.002   2.406 -1.2634  2.4268 -1.2028
38789SOL    HW218375   3.344   4.999   2.332 -0.3655 -0.8080  0.3730
38790SOL     OW18376   6.475   7.453   4.245  0.0273 -0.0992  0.2583
38790SOL    HW118377   6.472   7.453   4.341 -0.7586  1.2001  0.2497
38790SOL    HW218378   6.399   7.400   4.219 -1.0300  1.3217  0.3585
38791SOL     OW18379   6.796   1.591   1.218  0.0777 -1.0887  0.2706
38791SOL    HW118380   6.831   1.532   1.151  0.9430 -0.3902  0.0812
38791SOL    HW218381   6.852   1.669   1.212 -2.1635  0.5598 -0.7948
38792SOL     OW18382  10.085   5.475   6.290  0.3922  0.6298 -0.5576
38792SOL    HW118383  10.124   5.417   6.225 -0.4049 -2.0847  1.2056
38792SOL    HW218384  10.159   5.507   6.342  0.6578 -1.5960  0.5364
38793SOL     OW18385   5.260   8.166   5.886 -0.1371 -0.2413 -0.4083
38793SOL    HW118386   5.200   8.239   5.867 -0.8677 -0.7069  0.0280
38793SOL    HW218387   5.212   8.088   5.858  0.5499 -0.5750 -0.6702
38794SOL     OW18388  10.100   7.012   2.331  0.1708  0.2544 -0.2895
38794SOL    HW118389  10.030   6.946   2.334 -0.2629  0.3746 -3.8164
38794SOL    HW218390  10.171   6.970   2.282  0.2662  2.0078 -1.7624
38795SOL     OW18391   2.309   4.141   6.224  0.2653  0.1391  0.0433
38795SOL    HW118392   2.221   4.170   6.246  0.2289 -0.2466  0.4070
38795SOL    HW218393   2.356   4.138   6.307  0.5357  0.0526 -0.1090
38796SOL     OW18394   8.809   9.250   7.858  0.0053  0.1705  0.0537
38796SOL    HW118395   8.893   9.248   7.904  0.9925 -2.3749 -1.6014
38796SOL    HW218396   8.744   9.259   7.928  1.5174 -1.1496  1.7580
38797SOL     OW18397   9.716   8.535   9.787  0.1722  0.1015 -0.4782
38797SOL    HW118398   9.734   8.623   9.821 -1.5818 -0.7830  3.2138
38797SOL    HW218399   9.793   8.484   9.811 -0.0153  0.0061 -0.0859
38798SOL     OW18400   0.862  10.969   0.526  0.0612  0.2173  0.0194
38798SOL    HW118401   0.856  11.043   0.587 -0.2122  1.2078 -1.1647
38798SOL    HW218402   0.778  10.970   0.479 -1.0511 -2.4605  1.7222
38799SOL     OW18403   9.908   5.223   5.721 -0.1086 -0.1317  0.0256
38799SOL    HW118404   9.993   5.188   5.692  0.4900  0.7771  0.6554
38799SOL    HW218405   9.926   5.314   5.743 -1.0503 -0.1770  1.0537
38800SOL     OW18406   5.652   6.103   4.976 -0.4877  0.5176 -0.1075
38800SOL    HW118407   5.655   6.101   4.881  2.2735  1.9150 -0.1593
38800SOL    HW218408   5.628   6.014   5.001 -0.6988 -0.0314 -2.1006
38801SOL     OW18409   8.287   7.100   2.542  0.0502 -0.2940 -0.0200
38801SOL    HW118410   8.280   7.190   2.511 -2.6016  0.2659  1.9251
38801SOL    HW218411   8.233   7.049   2.482 -0.3755 -0.1875  0.2726
38802SOL     OW18412   0.606   6.873   4.738 -0.2021 -0.1886  0.3444
38802SOL    HW118413   0.590   6.859   4.831 -1.1097  2.0801  0.5756
38802SOL    HW218414   0.701   6.869   4.729 -0.0564  0.2842  1.5089
38803SOL     OW18415   2.495   5.110   8.361  0.1123  0.0628  1.0574
38803SOL    HW118416   2.511   5.041   8.297 -1.3507  0.4433  0.2239
38803SOL    HW218417   2.512   5.191   8.312  0.8632  0.3324  1.7388
38804SOL     OW18418   2.740   1.680   8.544 -0.0386  0.1302  0.5698
38804SOL    HW118419   2.834   1.674   8.523 -0.4319  0.9190 -1.5843
38804SOL    HW218420   2.728   1.614   8.613  2.3050  0.8103  1.7639
38805SOL     OW18421   4.500   9.514   8.455  0.0744  0.1320 -0.5778
38805SOL    HW118422   4.576   9.526   8.512  0.1566  0.4499 -0.7544
38805SOL    HW218423   4.526   9.553   8.372  0.7514 -2.1636 -1.5320
38806SOL     OW18424  11.015   4.479   0.814 -0.3112  0.0111 -0.0751
38806SOL    HW118425  11.071   4.530   0.873 -0.7890  1.1211 -0.5629
38806SOL    HW218426  10.956   4.543   0.776 -1.5839 -1.0617  0.0365
38807SOL     OW18427   0.207   5.331   3.149  0.6810  0.3698 -0.1541
38807SOL    HW118428   0.235   5.287   3.229 -0.2460 -0.5552 -0.3149
38807SOL    HW218429   0.217   5.265   3.081 -1.5737  0.0885 -0.2605
38808SOL     OW18430  10.431   2.870   9.984  0.1516 -0.1882  0.1523
38808SOL    HW118431  10.394   2.953  10.017  1.7714  0.1160  1.3013
38808SOL    HW218432  10.384   2.802  10.033  0.1140  0.1231  0.5549
38809SOL     OW18433   8.218   3.125   4.396 -0.3735  0.0334 -0.1214
38809SOL    HW118434   8.272   3.080   4.330 -1.9446 -0.7044 -0.9501
38809SOL    HW218435   8.167   3.188   4.345 -3.2515 -2.0483 -0.0609
38810SOL     OW18436   8.061   9.378   5.981  0.2700  0.1186 -0.1996
38810SOL    HW118437   8.132   9.433   6.014  0.9591 -0.7955 -0.1164
38810SOL    HW218438   8.009   9.356   6.059  0.6102 -0.2063 -0.0586
38811SOL     OW18439   8.864   8.355   9.548 -0.5300  0.1678 -0.5856
38811SOL    HW118440   8.935   8.320   9.495 -0.4221 -2.5020  1.1285
38811SOL    HW218441   8.800   8.283   9.554 -1.0039  0.6812  1.9775
38812SOL     OW18442   6.944   8.617   8.924 -0.4907 -0.2747  0.4978
38812SOL    HW118443   6.928   8.637   9.016  0.1133 -2.2823  1.0841
38812SOL    HW218444   6.891   8.539   8.907  1.7953 -1.8659  0.0996
38813SOL     OW18445   5.157   4.420   9.959 -0.1546 -0.4188  0.3520
38813SOL    HW118446   5.088   4.477   9.924 -1.4147 -2.3415 -0.4983
38813SOL    HW218447   5.165   4.350   9.894 -0.5572 -2.6168  2.5077
38814SOL     OW18448   4.468   2.777   2.169 -0.4090  0.4100 -0.8263
38814SOL    HW118449   4.424   2.783   2.254  0.7699  0.9605 -0.2266
38814SOL    HW218450   4.484   2.683   2.158  0.6516  0.4321  0.2439
38815SOL     OW18451  10.855   3.430   8.823  0.2619  0.5065 -0.4470
38815SOL    HW118452  10.883   3.344   8.854 -0.9320  0.4775  0.6485
38815SOL    HW218453  10.760   3.429   8.834  0.4152  2.8047  1.8605
38816SOL     OW18454   6.677   0.007   5.454  0.0321 -0.5053  0.0167
38816SOL    HW118455   6.613   0.066   5.492  0.2067 -0.2078 -0.1494
38816SOL    HW218456   6.630  -0.039   5.385 -0.1307 -0.6327  0.2131
38817SOL     OW18457   6.721   6.019  10.139  0.1498  0.8192  0.7272
38817SOL    HW118458   6.773   6.005  10.218 -0.1304  0.6508  0.8824
38817SOL    HW218459   6.752   5.951  10.078  0.8154  1.3448  0.4578
38818SOL     OW18460   7.240  10.993   0.540  0.0823 -0.3447 -0.3286
38818SOL    HW118461   7.266  10.982   0.631  0.0998  1.4343 -0.0914
38818SOL    HW218462   7.254  10.907   0.501  1.3276 -0.8010  1.0287
38819SOL     OW18463   6.121   7.270   1.958 -0.2635 -0.1875 -0.4743
38819SOL    HW118464   6.175   7.334   1.914  0.0357 -0.1238 -0.0259
38819SOL    HW218465   6.055   7.321   2.004  0.5468 -0.1205  0.6620
38820SOL     OW18466   3.186   4.914   4.031  0.2712  0.2526  0.0810
38820SOL    HW118467   3.238   4.958   4.098  1.9532 -3.0305  1.1576
38820SOL    HW218468   3.105   4.888   4.076  1.0842 -1.2981  0.7417
38821SOL     OW18469   4.645   2.181   1.400  0.1514  0.1370  0.1363
38821SOL    HW118470   4.711   2.145   1.342 -0.5677  0.0516 -0.6430
38821SOL    HW218471   4.621   2.109   1.458  0.5028  0.0803  0.2113
38822SOL     OW18472   7.211   7.546   6.945  0.3122 -0.0865 -0.4570
38822SOL    HW118473   7.203   7.621   6.886  0.3338 -1.3579 -2.1179
38822SOL    HW218474   7.122   7.529   6.974  0.3620  0.8448  0.3117
38823SOL     OW18475   2.998   2.494   4.021  0.3285  0.5418 -0.3196
38823SOL    HW118476   2.914   2.496   3.975 -0.6663 -1.1035  1.2928
38823SOL    HW218477   3.001   2.577   4.069  0.4510  1.3572 -1.6642
38824SOL     OW18478   4.630  10.378  10.468  0.9389 -0.1732  0.4304
38824SOL    HW118479   4.600  10.318  10.400  0.7916 -0.5153  0.7932
38824SOL    HW218480   4.585  10.349  10.547 -1.5030  2.2303  0.0626
38825SOL     OW18481   7.353   6.892   6.957 -0.1024 -0.8491 -0.5798
38825SOL    HW118482   7.391   6.884   6.870  0.1719 -0.0621 -0.5424
38825SOL    HW218483   7.308   6.809   6.972  0.3469 -1.2159 -1.2293
38826SOL     OW18484   4.137   6.547   1.572  0.6073 -0.5130  0.2026
38826SOL    HW118485   4.068   6.605   1.540  0.5700 -0.1247  0.9791
38826SOL    HW218486   4.092   6.487   1.632  0.6344 -1.3994 -0.6241
38827SOL     OW18487   4.050   5.555   7.367  0.5744 -0.6754  0.9098
38827SOL    HW118488   4.109   5.575   7.440  0.8032  0.6765  0.3787
38827SOL    HW218489   4.096   5.488   7.316  1.0447 -0.6037  1.2348
38828SOL     OW18490   8.769   1.120   1.858 -0.0324  0.5160 -0.7077
38828SOL    HW118491   8.747   1.036   1.816 -0.1785  0.7686 -1.1513
38828SOL    HW218492   8.810   1.096   1.941 -2.1124 -0.0031  0.2424
38829SOL     OW18493   0.759   7.868   8.867 -0.1457 -0.1604  0.0490
38829SOL    HW118494   0.667   7.889   8.851 -0.2486 -1.7722 -1.7871
38829SOL    HW218495   0.806   7.945   8.836 -0.8023  0.2751  0.0959
38830SOL     OW18496   0.262   6.792   5.609 -0.6989 -0.4817 -0.2035
38830SOL    HW118497   0.261   6.841   5.526 -0.4093 -0.2718 -0.0876
38830SOL    HW218498   0.191   6.830   5.660 -0.1821  0.1515  0.0665
38831SOL     OW18499   2.734   8.549   3.724 -0.0643 -0.2642  0.4693
38831SOL    HW118500   2.777   8.513   3.646  0.3476  2.2193 -0.5611
38831SOL    HW218501   2.646   8.513   3.722  0.6193 -1.9883  0.1346
38832SOL     OW18502   8.924   1.721  10.805 -0.1403 -0.7335  0.0792
38832SOL    HW118503   8.965   1.636  10.822  1.4419  0.0137  0.1889
38832SOL    HW218504   8.857   1.702  10.740  2.7133 -1.5487 -2.9489
38833SOL     OW18505  10.381   3.596   4.276  0.1673 -0.1752  0.2573
38833SOL    HW118506  10.347   3.509   4.254 -0.4957  0.5500 -1.8448
38833SOL    HW218507  10.454   3.580   4.335 -0.2978 -2.1269  0.3510
38834SOL     OW18508   3.845   2.561   5.338  0.0801  0.2386 -0.7143
38834SOL    HW118509   3.851   2.466   5.325 -0.7982  0.3209 -1.8417
38834SOL    HW218510   3.928   2.584   5.380  0.4654 -0.9731 -0.7578
38835SOL     OW18511   8.033   3.365   7.905  0.0754  0.5138  0.3695
38835SOL    HW118512   8.019   3.412   7.824 -0.4951  0.1647  0.2569
38835SOL    HW218513   7.945   3.343   7.936  0.2951 -2.4426 -0.7559
38836SOL     OW18514   2.153   5.178   4.801 -0.4651 -0.0020 -0.3227
38836SOL    HW118515   2.089   5.232   4.847  1.3641  2.5369 -0.5002
38836SOL    HW218516   2.149   5.208   4.710 -1.6278 -2.5229 -1.1785
38837SOL     OW18517  10.222   7.866  10.607 -0.0915  0.6652 -0.1003
38837SOL    HW118518  10.317   7.857  10.604  0.2204  0.7284  4.0610
38837SOL    HW218519  10.189   7.776  10.599  0.9433 -0.5543  5.3780
38838SOL     OW18520   0.496   5.940  11.020  0.1023 -0.4378  0.5009
38838SOL    HW118521   0.459   5.852  11.018 -0.1184 -0.3497  0.6155
38838SOL    HW218522   0.474   5.973  11.107 -1.0978  0.2694 -0.0386
38839SOL     OW18523   2.393   8.452   7.213 -0.9302 -0.3012 -0.1984
38839SOL    HW118524   2.302   8.449   7.183 -0.9038  0.1518 -0.3386
38839SOL    HW218525   2.389   8.504   7.294 -1.0867 -1.9712  0.9327
38840SOL     OW18526   3.421   1.726  10.670  0.0778  0.1848 -0.1321
38840SOL    HW118527   3.328   1.704  10.662  0.5550 -2.6043  0.9120
38840SOL    HW218528   3.421   1.816  10.702 -2.3035 -0.1315  0.9913
38841SOL     OW18529   3.035  10.519   8.140 -0.7918 -0.1310 -0.1310
38841SOL    HW118530   2.978  10.451   8.104 -1.9353  1.4264 -1.4060
38841SOL    HW218531   3.092  10.544   8.067  1.6109 -1.6067  1.0897
38842SOL     OW18532   1.901  10.386   8.214  0.0196  0.8277  0.1821
38842SOL    HW118533   1.864  10.322   8.275  2.0117 -0.1799  0.4051
38842SOL    HW218534   1.871  10.470   8.247 -1.2095  0.1420  0.9118
38843SOL     OW18535   8.506   4.925   7.448 -0.2593  0.4561  0.4138
38843SOL    HW118536   8.500   4.877   7.531 -0.1941 -1.2853 -0.5321
38843SOL    HW218537   8.454   4.873   7.387 -1.8878  2.7259 -0.2284
38844SOL     OW18538   0.809  10.430   2.418  1.3044  0.0767 -0.0642
38844SOL    HW118539   0.856  10.496   2.470 -0.7574  0.9426  0.8306
38844SOL    HW218540   0.736  10.479   2.379  3.1605 -0.2919 -4.6585
38845SOL     OW18541   8.931   6.455  10.908 -0.2827 -0.4405  0.5747
38845SOL    HW118542   8.868   6.526  10.895  0.7541  0.3840 -0.1107
38845SOL    HW218543   8.960   6.465  10.998  1.5279  1.4662 -0.1438
38846SOL     OW18544   2.642   0.356   5.006 -0.5345  0.5097  0.1652
38846SOL    HW118545   2.729   0.395   4.998  0.0559 -0.7435  0.2192
38846SOL    HW218546   2.592   0.418   5.058  0.4085  1.1294  0.3435
38847SOL     OW18547   4.537   9.967   7.998  0.0325 -0.1748 -0.2689
38847SOL    HW118548   4.521  10.040   8.058 -2.5808 -0.0601 -0.9671
38847SOL    HW218549   4.630   9.973   7.977  0.1748  2.1548  0.7205
38848SOL     OW18550   4.057   2.513   3.412 -0.1291 -0.1807 -0.2528
38848SOL    HW118551   4.120   2.478   3.348 -0.1648 -1.6910  0.4699
38848SOL    HW218552   4.103   2.506   3.495 -0.7010  0.1489  0.0941
38849SOL     OW18553   6.507   4.809   7.137 -0.0294 -0.2551 -0.5357
38849SOL    HW118554   6.464   4.879   7.089 -0.7510 -1.6589 -2.0297
38849SOL    HW218555   6.458   4.730   7.113  2.9050 -1.8389 -1.8058
38850SOL     OW18556   7.578   2.744   9.263  0.4852 -0.4826  0.0836
38850SOL    HW118557   7.520   2.740   9.338  2.5450 -0.0600  1.7841
38850SOL    HW218558   7.553   2.824   9.217 -0.3726 -0.4117  0.6631
38851SOL     OW18559   0.891  10.869   6.469  0.0439  0.1080  0.0071
38851SOL    HW118560   0.843  10.951   6.482 -1.7191 -0.8707 -0.0813
38851SOL    HW218561   0.923  10.874   6.379  0.2073  0.8122  0.0959
38852SOL     OW18562   9.833   3.901   4.068 -0.5930  0.2366  0.1993
38852SOL    HW118563   9.804   3.841   4.137 -3.0856  1.7377  0.5971
38852SOL    HW218564   9.863   3.844   3.998  2.7182 -1.3633  2.6389
38853SOL     OW18565   5.526   5.893   9.391  0.1939 -0.7291  0.4639
38853SOL    HW118566   5.551   5.911   9.300 -1.8489  2.7373  0.3813
38853SOL    HW218567   5.473   5.813   9.386 -1.0924  0.1524 -1.7437
38854SOL     OW18568   8.600   5.629   0.751 -0.0561 -0.3732 -0.4792
38854SOL    HW118569   8.599   5.708   0.806 -0.3112 -0.9948  0.4359
38854SOL    HW218570   8.691   5.601   0.751  0.0300 -0.0974 -0.7802
38855SOL     OW18571   6.693   2.911   5.267  0.3928 -0.2305 -0.3497
38855SOL    HW118572   6.768   2.857   5.243 -0.1108 -1.8473  1.4903
38855SOL    HW218573   6.710   2.938   5.357 -0.1203  1.4251 -0.7121
38856SOL     OW18574   7.244  10.918   4.860 -0.7244 -0.0382  0.2282
38856SOL    HW118575   7.198  10.986   4.910  1.1490  0.0284  2.0135
38856SOL    HW218576   7.229  10.838   4.910  1.5292  0.0999  1.2444
38857SOL     OW18577  10.772   7.273   4.424 -0.4564 -0.1318 -0.1915
38857SOL    HW118578  10.680   7.256   4.406  0.2301 -2.4749 -1.8898
38857SOL    HW218579  10.793   7.217   4.499 -0.6002  1.1267  0.8216
38858SOL     OW18580   8.397   8.435   9.563 -0.9940 -0.1627  0.7176
38858SOL    HW118581   8.380   8.489   9.486 -0.5897  0.2764  0.9249
38858SOL    HW218582   8.384   8.495   9.637 -1.7099 -0.6690  1.0103
38859SOL     OW18583   1.639   2.654   7.304 -0.1470 -0.4089  0.3622
38859SOL    HW118584   1.563   2.624   7.254 -0.1698  1.4387 -0.8130
38859SOL    HW218585   1.701   2.683   7.238 -0.0304  1.7787  1.3323
38860SOL     OW18586   8.609   6.653   2.058 -0.2251 -0.6838  0.2333
38860SOL    HW118587   8.640   6.644   1.968  1.6093  0.3762  0.7220
38860SOL    HW218588   8.584   6.564   2.084  1.1416 -1.3499 -0.6646
38861SOL     OW18589   3.328   6.485   9.313 -0.2283 -0.0265  0.0426
38861SOL    HW118590   3.316   6.551   9.245 -0.2479 -0.2846 -0.2064
38861SOL    HW218591   3.278   6.409   9.282 -0.4387 -0.0631  0.4635
38862SOL     OW18592   7.829   1.946   1.262 -0.0223 -0.3717  0.0132
38862SOL    HW118593   7.924   1.953   1.258 -0.0425  0.8225  1.1858
38862SOL    HW218594   7.809   1.924   1.353 -0.8189 -2.0275 -0.5189
38863SOL     OW18595   9.041   2.221   2.687  0.5299 -0.3602  0.9816
38863SOL    HW118596   9.003   2.134   2.683 -2.3226  0.8281 -0.7720
38863SOL    HW218597   9.092   2.230   2.607 -1.7742  0.5786 -0.4564
38864SOL     OW18598   0.037   7.561   3.150  0.1414  0.7572 -0.2210
38864SOL    HW118599   0.058   7.499   3.080  1.7404 -0.9803  1.6565
38864SOL    HW218600  -0.050   7.535   3.179 -0.0388  0.7290 -0.7652
38865SOL     OW18601   9.155   9.895   1.163 -0.0080  0.6869  0.6826
38865SOL    HW118602   9.152   9.852   1.077 -1.5101  0.7757  0.6606
38865SOL    HW218603   9.088   9.850   1.214  1.3854  0.1283  2.0846
38866SOL     OW18604  10.535  10.578   8.436  0.1469  0.5014 -0.3868
38866SOL    HW118605  10.629  10.568   8.429  0.2760  0.7935  0.7586
38866SOL    HW218606  10.522  10.628   8.517 -0.9269  1.4641 -1.1227
38867SOL     OW18607   2.791   5.532   8.363  1.2475 -0.2623  0.1785
38867SOL    HW118608   2.838   5.536   8.280 -0.4890  0.0968 -0.8300
38867SOL    HW218609   2.830   5.459   8.410  1.4962 -1.1948 -1.4334
38868SOL     OW18610   7.068   0.231   1.844  0.4482  0.3811 -0.3502
38868SOL    HW118611   7.084   0.311   1.795  1.2935  1.3961  1.4642
38868SOL    HW218612   7.004   0.256   1.911  0.4064 -0.5761 -0.0081
38869SOL     OW18613   0.443   2.044   4.031  0.4638 -0.1702 -0.4813
38869SOL    HW118614   0.509   2.075   3.968 -0.3024 -1.3154 -1.9245
38869SOL    HW218615   0.360   2.064   3.989 -0.0923 -0.1267  0.6185
38870SOL     OW18616   5.608  10.191   0.107  0.4501 -0.0937  0.3094
38870SOL    HW118617   5.593  10.205   0.013  2.3950 -0.3013 -0.0746
38870SOL    HW218618   5.550  10.254   0.150  3.2664  3.8932 -1.1638
38871SOL     OW18619   8.689   4.570   1.282  0.0378 -0.6989 -0.0322
38871SOL    HW118620   8.607   4.600   1.322 -0.4174 -0.0468 -1.4237
38871SOL    HW218621   8.672   4.478   1.261  0.1230 -0.9214  0.8002
38872SOL     OW18622   2.488   3.780   7.909  0.1413 -0.4255 -0.1276
38872SOL    HW118623   2.446   3.705   7.953  2.2330 -2.7071 -1.7326
38872SOL    HW218624   2.570   3.792   7.957  0.5605 -0.2586 -0.8709
38873SOL     OW18625   8.522   5.604   6.187 -0.2795  0.3031  0.1883
38873SOL    HW118626   8.482   5.605   6.274 -0.3809 -1.3471  0.2025
38873SOL    HW218627   8.462   5.551   6.134  0.7595 -0.3568 -0.3598
38874SOL     OW18628   0.954   8.800   8.253 -0.1638  0.4476 -1.5485
38874SOL    HW118629   0.869   8.820   8.291 -0.4655  0.9595 -2.4623
38874SOL    HW218630   0.940   8.806   8.158  0.7584  0.0069 -1.7266
38875SOL     OW18631   2.090   7.996   8.729  0.1895 -0.0499  0.0816
38875SOL    HW118632   2.040   8.060   8.779  2.4997  0.4914  1.8599
38875SOL    HW218633   2.140   8.048   8.666 -0.6086 -0.4927 -0.9576
38876SOL     OW18634   4.199   7.103   0.003  0.3634  0.0670 -0.3977
38876SOL    HW118635   4.286   7.070  -0.016 -0.2012 -1.3946 -0.6063
38876SOL    HW218636   4.205   7.197  -0.012  2.1383  0.1383  0.5326
38877SOL     OW18637  10.887   0.300   7.427 -0.0506  0.2717  0.0169
38877SOL    HW118638  10.870   0.247   7.506  1.2575  0.8603  0.7310
38877SOL    HW218639  10.800   0.317   7.391 -0.5329 -2.3415 -0.2523
38878SOL     OW18640   0.433   5.310   9.371 -0.7461 -0.0944  0.1794
38878SOL    HW118641   0.515   5.262   9.363 -0.0823  0.6491  1.8837
38878SOL    HW218642   0.460   5.401   9.388 -1.9391  1.0119 -3.0814
38879SOL     OW18643   7.032   2.827   0.481  0.2744 -0.1890  0.5765
38879SOL    HW118644   7.068   2.899   0.429 -1.7454  0.0869 -0.5367
38879SOL    HW218645   7.090   2.753   0.463  2.8098  1.2179  2.2695
38880SOL     OW18646   8.428   2.879   0.772  0.1065  0.1631 -0.7422
38880SOL    HW118647   8.437   2.937   0.847 -1.1174 -0.2351 -0.2749
38880SOL    HW218648   8.421   2.791   0.810  1.1300 -0.2335 -1.4027
38881SOL     OW18649   4.471   9.666   5.567 -0.2598  0.7571 -0.2070
38881SOL    HW118650   4.433   9.622   5.643 -2.4108  1.8218 -0.5860
38881SOL    HW218651   4.426   9.627   5.492 -0.9094  2.2813 -0.6564
38882SOL     OW18652   9.299   3.215   1.939  0.5032 -0.1198  0.6676
38882SOL    HW118653   9.332   3.231   2.027  1.3734 -0.6458  0.4572
38882SOL    HW218654   9.354   3.144   1.906  0.1811  0.0653 -0.2955
38883SOL     OW18655   8.701   1.621   2.662  0.5491  0.6156 -0.2969
38883SOL    HW118656   8.609   1.640   2.677  0.4524  0.8688 -1.1814
38883SOL    HW218657   8.704   1.527   2.649  0.4907  0.5386  0.2023
38884SOL     OW18658  10.067   8.378   3.283 -0.0812  0.1315 -0.5673
38884SOL    HW118659  10.009   8.314   3.241  1.0517 -1.0814 -0.3505
38884SOL    HW218660  10.137   8.325   3.322  0.9851  1.5208 -0.5150
38885SOL     OW18661   4.792   6.134   1.105 -0.1224  0.4943 -0.0288
38885SOL    HW118662   4.755   6.108   1.020  2.5283 -0.5614 -0.9591
38885SOL    HW218663   4.803   6.229   1.098  0.0006  0.4301 -0.8521
38886SOL     OW18664  10.788   3.356  10.457  0.1452  0.2523 -0.0984
38886SOL    HW118665  10.842   3.426  10.420  1.1896  0.0358  0.9395
38886SOL    HW218666  10.730   3.330  10.386  0.9642  0.9556 -1.0541
38887SOL     OW18667   7.780   2.173   3.618 -0.2943 -1.0112 -0.0213
38887SOL    HW118668   7.861   2.134   3.649 -1.3087 -2.7608  0.6052
38887SOL    HW218669   7.777   2.154   3.525  0.5948  0.2122 -0.3232
38888SOL     OW18670   1.250   6.647   4.472 -0.9825 -0.0617  0.3787
38888SOL    HW118671   1.227   6.582   4.405 -0.2607  0.2328 -0.1766
38888SOL    HW218672   1.170   6.698   4.485 -0.4749  1.5849 -2.2191
38889SOL     OW18673   8.013   6.147   6.191  0.2175  0.4440  0.2557
38889SOL    HW118674   8.067   6.106   6.258  0.6129 -0.9109 -0.8327
38889SOL    HW218675   7.943   6.190   6.240  2.0934  2.0426  1.6890
38890SOL     OW18676   1.279   1.807   9.491  0.0455 -0.4517  0.5772
38890SOL    HW118677   1.329   1.762   9.423  0.4134 -0.5987  0.9443
38890SOL    HW218678   1.189   1.809   9.457  0.4815  0.8531 -0.6190
38891SOL     OW18679   1.850   3.104  10.665  0.2520 -0.5623  0.5413
38891SOL    HW118680   1.885   3.029  10.615 -0.6597 -1.7098  1.5667
38891SOL    HW218681   1.915   3.120  10.733 -0.1823 -1.3166  1.1462
38892SOL     OW18682  11.026   6.059   0.235  0.2515  0.1544  0.0798
38892SOL    HW118683  11.119   6.068   0.254  0.3053  0.8110 -0.4549
38892SOL    HW218684  11.019   5.981   0.181  0.5757  0.4734 -0.4253
38893SOL     OW18685   0.116   5.904   2.782  0.2833 -0.6058 -0.4760
38893SOL    HW118686   0.029   5.873   2.758  0.9826 -2.6145 -0.6050
38893SOL    HW218687   0.126   5.877   2.873  0.1733  1.0930  0.0699
38894SOL     OW18688   3.552   3.079   1.978  0.7422 -0.4355 -0.3586
38894SOL    HW118689   3.634   3.045   1.943  0.4813  0.1617 -1.6325
38894SOL    HW218690   3.503   3.001   2.004  0.9327 -0.9381 -1.4264
38895SOL     OW18691   1.610   1.976   8.757 -0.0149 -0.0473 -0.5579
38895SOL    HW118692   1.543   2.036   8.725  1.3021  1.1911 -1.1499
38895SOL    HW218693   1.669   2.032   8.809  0.0242 -1.2832  0.7742
38896SOL     OW18694   6.615   8.856  10.298  0.0955 -0.1832 -0.1482
38896SOL    HW118695   6.706   8.853  10.268 -0.7011  2.0113 -3.2785
38896SOL    HW218696   6.611   8.932  10.357  0.1930  0.0934 -0.4939
38897SOL     OW18697   1.828   3.046   7.351  0.8553  0.8963  0.5348
38897SOL    HW118698   1.873   2.972   7.392  0.3679  1.1855  1.6225
38897SOL    HW218699   1.791   3.095   7.424 -2.6867 -0.2412 -0.3346
38898SOL     OW18700  10.741  10.197   2.268  0.2958 -0.1366 -0.2960
38898SOL    HW118701  10.765  10.289   2.252  2.2980 -0.3936  0.8920
38898SOL    HW218702  10.705  10.197   2.356 -2.9007 -0.0377 -1.4713
38899SOL     OW18703   7.361  10.319   1.190 -0.3493  0.0688 -0.1293
38899SOL    HW118704   7.392  10.347   1.104  1.7807  3.2167  1.4773
38899SOL    HW218705   7.381  10.226   1.194 -1.0508 -0.3059 -3.1803
38900SOL     OW18706   4.507   4.463   5.622 -0.0066 -0.6510 -0.7098
38900SOL    HW118707   4.424   4.416   5.617 -0.1607 -0.3641 -0.8510
38900SOL    HW218708   4.562   4.409   5.678 -0.2527 -0.8962 -0.7050
38901SOL     OW18709   1.401   3.653   4.654 -0.2401  0.9849 -0.2873
38901SOL    HW118710   1.386   3.561   4.675  0.7508  0.9303  0.2575
38901SOL    HW218711   1.317   3.695   4.666 -0.5198  0.2901  0.2354
38902SOL     OW18712   7.480   0.973   0.650 -1.0567  0.2077  0.0077
38902SOL    HW118713   7.420   1.001   0.720 -1.2217 -0.4933  0.1477
38902SOL    HW218714   7.423   0.946   0.579 -0.9349 -1.3196  0.4695
38903SOL     OW18715  10.114   2.905   5.328 -0.1390  0.2086 -0.3976
38903SOL    HW118716  10.098   2.811   5.335  0.7383  0.0813  0.0113
38903SOL    HW218717  10.209   2.914   5.340 -0.2455  1.1587 -0.2269
38904SOL     OW18718   5.796   3.501   4.143  0.1899 -0.5426 -1.4359
38904SOL    HW118719   5.832   3.498   4.054  0.8393 -2.1848 -1.1507
38904SOL    HW218720   5.866   3.536   4.197 -0.0464  0.0154 -1.4795
38905SOL     OW18721   2.847   0.301   2.042 -0.5493  0.6201 -0.2948
38905SOL    HW118722   2.775   0.362   2.029 -2.0327 -0.9009  0.4763
38905SOL    HW218723   2.923   0.344   2.003 -1.9616  2.0658 -1.5248
38906SOL     OW18724   2.427   8.952   5.941  0.6169 -0.1936  0.1400
38906SOL    HW118725   2.510   8.978   5.901  0.0860  0.1746 -0.7343
38906SOL    HW218726   2.441   8.966   6.035  1.3351  0.4849 -0.0559
38907SOL     OW18727   4.059  10.116   9.769 -0.1403 -0.6834  0.1459
38907SOL    HW118728   4.139  10.117   9.717  0.7552 -1.0108  1.4451
38907SOL    HW218729   4.041  10.023   9.783  0.3883 -0.6227  1.4526
38908SOL     OW18730   8.889   4.077   2.101  0.0805  0.0953  0.3098
38908SOL    HW118731   8.924   4.099   2.187 -0.6499 -1.0492  0.9322
38908SOL    HW218732   8.794   4.091   2.109 -0.1287 -1.0609  0.0499
38909SOL     OW18733   5.327   1.812   4.731 -0.1102  1.1798 -0.1793
38909SOL    HW118734   5.252   1.808   4.791 -1.3604  0.5660 -1.7114
38909SOL    HW218735   5.325   1.729   4.684  1.0872  1.4814 -0.8071
38910SOL     OW18736   6.281   8.429   4.955  0.6050  0.2658 -0.2787
38910SOL    HW118737   6.307   8.366   5.022 -0.0495 -0.3727 -0.6140
38910SOL    HW218738   6.198   8.465   4.987 -0.1288 -0.6328 -1.1108
38911SOL     OW18739   4.499   5.614   4.038  0.4209  0.2405  0.1781
38911SOL    HW118740   4.436   5.543   4.026  1.1508 -0.3946  0.0097
38911SOL    HW218741   4.566   5.577   4.095  0.0231  1.3113  1.3942
38912SOL     OW18742  10.819   9.710   4.572  0.2638 -0.0869 -0.3027
38912SOL    HW118743  10.809   9.674   4.660  3.7229 -1.6107 -0.3990
38912SOL    HW218744  10.730   9.710   4.537 -1.0907 -0.4117  2.7747
38913SOL     OW18745   0.898   2.498   0.851 -0.4228  0.5203 -0.1640
38913SOL    HW118746   0.919   2.548   0.929 -0.1824 -1.3077  0.9881
38913SOL    HW218747   0.830   2.436   0.879  0.2213 -0.6934 -1.1829
38914SOL     OW18748   5.286   6.082   7.909 -0.1092 -0.1850  0.2716
38914SOL    HW118749   5.199   6.093   7.948  0.6367  1.1100  1.6193
38914SOL    HW218750   5.313   6.171   7.886  0.5618 -0.6625 -0.8545
38915SOL     OW18751   7.488  10.074   5.764 -0.8344 -0.4797  0.7086
38915SOL    HW118752   7.465  10.102   5.675 -0.3774 -0.0564  0.7190
38915SOL    HW218753   7.443   9.991   5.775  0.3916 -1.3618 -0.5151
38916SOL     OW18754   8.651   9.956   4.475 -0.5322 -0.4011  0.0766
38916SOL    HW118755   8.746   9.954   4.470 -0.5819 -0.9436 -1.0956
38916SOL    HW218756   8.622   9.891   4.410 -1.7138  0.8718 -0.7315
38917SOL     OW18757   8.419   6.737   2.929 -0.0816  0.0738  0.0763
38917SOL    HW118758   8.357   6.739   2.856 -0.9337  2.1097  0.7597
38917SOL    HW218759   8.416   6.647   2.962 -1.9739 -0.1154 -0.5122
38918SOL     OW18760   6.178   6.154   2.588 -0.5381 -0.0528  0.0291
38918SOL    HW118761   6.100   6.116   2.547 -1.3266 -0.3698  1.7128
38918SOL    HW218762   6.156   6.247   2.600 -0.3260  0.0325 -0.2498
38919SOL     OW18763   0.561   6.943   5.027 -0.2141 -0.4186 -0.3535
38919SOL    HW118764   0.476   6.913   5.058 -0.5378  0.2492 -0.5836
38919SOL    HW218765   0.606   6.973   5.106  0.3004 -1.9171 -0.0461
38920SOL     OW18766   2.680   8.418   6.279 -0.0938 -0.5158  0.2421
38920SOL    HW118767   2.741   8.450   6.213  0.8113  0.2286  1.4038
38920SOL    HW218768   2.734   8.367   6.340 -0.4271  0.8109  1.7287
38921SOL     OW18769   2.127   0.560   5.889  0.1909  0.3200 -0.0104
38921SOL    HW118770   2.157   0.540   5.978  1.2889  0.4710 -0.3340
38921SOL    HW218771   2.135   0.477   5.842  1.6426  0.7088 -0.5029
38922SOL     OW18772   9.688   9.919   6.576  0.0510  0.6563  0.7518
38922SOL    HW118773   9.742   9.953   6.648 -0.5192  1.2430  0.9120
38922SOL    HW218774   9.732   9.949   6.497  0.1439  0.8520  0.8760
38923SOL     OW18775   4.463   9.084   1.954 -0.6471  0.4533  0.3219
38923SOL    HW118776   4.370   9.105   1.960 -0.4610  1.0542  1.4904
38923SOL    HW218777   4.476   9.013   2.016 -0.4009  0.0620 -0.1702
38924SOL     OW18778   3.302   8.158   5.915  0.5879  0.1615 -0.0283
38924SOL    HW118779   3.222   8.121   5.953  1.0315  0.7355  1.5264
38924SOL    HW218780   3.353   8.081   5.888  0.4460 -0.2937  0.9528
38925SOL     OW18781   5.785   3.517   6.998 -0.3493 -0.0353 -0.0418
38925SOL    HW118782   5.864   3.529   6.944  0.1785 -0.5925  0.5811
38925SOL    HW218783   5.715   3.558   6.947  0.6401  2.1134  0.1946
38926SOL     OW18784   6.888  10.237   6.484  0.3197  0.3136  0.3906
38926SOL    HW118785   6.794  10.249   6.499  0.7054  0.4480  3.2966
38926SOL    HW218786   6.916  10.317   6.439 -0.9813  0.1234 -0.7980
38927SOL     OW18787   7.620   6.067  10.203 -0.0438  0.1923  0.2657
38927SOL    HW118788   7.713   6.060  10.184 -0.3104 -0.6196 -0.8662
38927SOL    HW218789   7.599   5.986  10.250 -0.4461 -0.3430 -0.7902
38928SOL     OW18790   2.821   4.408  10.155 -0.1795  0.7181  0.4442
38928SOL    HW118791   2.829   4.389  10.249  0.1219 -3.2628 -0.2160
38928SOL    HW218792   2.732   4.381  10.132  0.4615 -0.5112 -0.7470
38929SOL     OW18793   8.451   4.336   2.293 -0.8497 -0.1394  0.6700
38929SOL    HW118794   8.452   4.428   2.264  0.2638 -0.3286  0.0359
38929SOL    HW218795   8.490   4.339   2.380  0.8766 -0.1717 -0.0396
38930SOL     OW18796   7.994   9.399   6.901 -0.0145 -0.6107 -0.0005
38930SOL    HW118797   7.921   9.434   6.849 -0.5007  0.3181  1.2434
38930SOL    HW218798   7.956   9.326   6.949  0.4061 -1.3978 -0.8385
38931SOL     OW18799   8.247   9.665   7.493 -0.2722 -0.2198 -1.0935
38931SOL    HW118800   8.296   9.583   7.498 -1.0389 -0.6854 -1.1176
38931SOL    HW218801   8.254   9.691   7.401 -3.3677 -2.3969 -2.1366
38932SOL     OW18802   0.624   3.993   6.196  0.2430  0.3546 -0.4662
38932SOL    HW118803   0.533   4.009   6.170  0.0089 -0.7146 -0.3542
38932SOL    HW218804   0.642   4.061   6.260 -0.5289  0.5145 -0.4003
38933SOL     OW18805   4.466   2.155   5.187 -0.5570  0.1942  0.0601
38933SOL    HW118806   4.430   2.239   5.159 -1.5523 -0.6707 -1.3908
38933SOL    HW218807   4.478   2.165   5.282 -1.2147  1.7609  0.0167
38934SOL     OW18808   1.518   6.499   4.886  0.1737  0.4877 -0.7227
38934SOL    HW118809   1.531   6.511   4.980  0.9660  1.4713 -0.9426
38934SOL    HW218810   1.593   6.446   4.859  1.3255  2.2746 -1.1976
38935SOL     OW18811   0.491   7.935   0.488  0.1458  0.4162  0.1397
38935SOL    HW118812   0.551   7.992   0.537  0.1919  0.0421  0.5202
38935SOL    HW218813   0.404   7.962   0.516  0.1493  0.6349 -0.0547
38936SOL     OW18814   5.201   5.756   3.293 -0.4731 -0.2185  0.8344
38936SOL    HW118815   5.122   5.722   3.335 -0.8295  0.9418  1.1592
38936SOL    HW218816   5.250   5.797   3.364 -1.3657  2.2872  0.1149
38937SOL     OW18817   4.810   1.832   4.729 -0.1340  0.0132 -0.0593
38937SOL    HW118818   4.838   1.810   4.818  2.0756 -1.8051 -1.1025
38937SOL    HW218819   4.756   1.758   4.702 -0.0974  0.1645 -0.5516
38938SOL     OW18820  10.251   3.702   8.596  0.1832  0.1512 -0.3512
38938SOL    HW118821  10.294   3.641   8.656 -1.4675 -1.5705 -0.8245
38938SOL    HW218822  10.162   3.668   8.588  0.1314  0.7676 -3.2002
38939SOL     OW18823  10.355   0.069  11.041 -0.1725  0.4396  0.7999
38939SOL    HW118824  10.342  -0.020  11.072  2.4630 -0.1813  0.3465
38939SOL    HW218825  10.281   0.118  11.078 -0.8455 -1.5892  2.3497
38940SOL     OW18826   0.882   8.946   2.164 -0.1560 -0.2224 -0.2232
38940SOL    HW118827   0.883   8.987   2.251  1.3162  0.5821 -0.5914
38940SOL    HW218828   0.798   8.972   2.126 -0.7676 -0.4869  0.8989
38941SOL     OW18829   9.142   5.349  11.009  0.2512 -0.6547 -0.9138
38941SOL    HW118830   9.159   5.324  11.100 -1.8416  0.0032 -0.2683
38941SOL    HW218831   9.099   5.273  10.970  0.6248 -0.7312 -1.1756
38942SOL     OW18832   9.152   8.581  10.761  0.2986 -0.2981  0.3934
38942SOL    HW118833   9.120   8.669  10.779 -2.1838 -1.3788  1.9123
38942SOL    HW218834   9.092   8.524  10.810  1.0522 -2.8933 -1.5001
38943SOL     OW18835   6.383   2.303   5.098  0.3205  0.4600  0.4274
38943SOL    HW118836   6.369   2.260   5.014  0.2447 -0.1737  0.7585
38943SOL    HW218837   6.465   2.351   5.088  1.0076 -0.6939  0.4171
38944SOL     OW18838   5.374   2.524   2.787 -0.1787  0.3201 -0.4102
38944SOL    HW118839   5.414   2.437   2.795 -0.6641  0.1830  0.6970
38944SOL    HW218840   5.448   2.584   2.779  0.1801 -0.1125 -0.3878
38945SOL     OW18841   4.253   2.303   8.603 -0.1225 -0.7370  0.0703
38945SOL    HW118842   4.170   2.346   8.582 -0.5494 -1.3655  0.4449
38945SOL    HW218843   4.229   2.232   8.663  0.8416 -0.1085  1.2566
38946SOL     OW18844   8.344   1.039  10.423  0.1535 -0.1103 -0.6432
38946SOL    HW118845   8.385   1.126  10.427 -0.1601  0.1393 -2.0673
38946SOL    HW218846   8.304   1.027  10.508  1.3632  0.5536  0.0547
38947SOL     OW18847   5.583   4.169   3.874 -0.2212 -0.3587  0.5030
38947SOL    HW118848   5.566   4.198   3.785  2.1948 -1.0927 -0.2667
38947SOL    HW218849   5.597   4.075   3.867  0.3089 -0.3760  1.5946
38948SOL     OW18850   8.105   3.036   3.501 -0.2151  0.2829  0.0217
38948SOL    HW118851   8.082   3.055   3.592  1.0845 -0.0124  0.4328
38948SOL    HW218852   8.082   2.944   3.490  1.5508 -0.3004  0.7406
38949SOL     OW18853  10.812   4.034   2.705  0.3468 -0.8944  0.7776
38949SOL    HW118854  10.902   4.033   2.674 -0.0675 -1.3306 -0.4929
38949SOL    HW218855  10.792   3.943   2.727 -0.4872 -1.2410 -1.2086
38950SOL     OW18856   5.556   4.129   0.651  0.0630 -0.0629 -0.2161
38950SOL    HW118857   5.556   4.034   0.637 -1.7300  0.0518 -1.2088
38950SOL    HW218858   5.519   4.140   0.739  0.8400 -0.2822  0.1526
38951SOL     OW18859  10.437   5.576   7.872 -0.4998 -0.0616  0.6373
38951SOL    HW118860  10.387   5.512   7.821 -1.6415  2.3507 -1.5139
38951SOL    HW218861  10.383   5.593   7.949 -0.5539 -1.0992  0.8394
38952SOL     OW18862   0.388   1.443  10.099 -0.2191  1.2591  0.1481
38952SOL    HW118863   0.371   1.401  10.183  0.7485  2.4717  0.9803
38952SOL    HW218864   0.302   1.447  10.056 -0.3995 -1.4191  0.0432
38953SOL     OW18865   3.014   0.807   3.269 -0.7921 -0.2560 -0.0036
38953SOL    HW118866   2.945   0.801   3.203  0.1539  2.2017 -1.3411
38953SOL    HW218867   3.095   0.803   3.218 -0.0345  2.1876  0.8894
38954SOL     OW18868   3.559   1.482  10.902 -0.1968  0.3357 -0.0608
38954SOL    HW118869   3.526   1.443  10.821 -0.8045  0.2563  0.2250
38954SOL    HW218870   3.604   1.410  10.947  0.6121  0.5048 -0.5682
38955SOL     OW18871   1.305   2.932   5.322  0.7186  0.2389  0.0999
38955SOL    HW118872   1.376   2.962   5.379  0.0457  1.4642  0.3399
38955SOL    HW218873   1.234   2.995   5.338  0.8343  1.2637 -2.8362
38956SOL     OW18874   6.273   0.985   0.691 -0.2785  0.5078  0.2353
38956SOL    HW118875   6.182   1.005   0.713 -0.5898  0.1830 -0.7185
38956SOL    HW218876   6.319   0.984   0.776 -1.1199  0.8502  0.7044
38957SOL     OW18877   0.920   1.784   3.678 -0.0222 -0.2922 -0.6951
38957SOL    HW118878   0.946   1.873   3.702  3.2959 -1.2290 -0.1949
38957SOL    HW218879   0.947   1.775   3.587 -1.5005 -0.4301 -1.1344
38958SOL     OW18880   1.988   5.461   5.612 -0.0261  0.2635  0.5423
38958SOL    HW118881   1.980   5.533   5.674  0.6947  1.1216 -0.3510
38958SOL    HW218882   1.905   5.462   5.564  0.2879  0.9880  0.0097
38959SOL     OW18883   6.316   4.991   3.489  0.3410 -0.0251  0.1159
38959SOL    HW118884   6.390   4.929   3.484  1.1230  0.9290 -0.6426
38959SOL    HW218885   6.353   5.069   3.531 -0.1003  0.6259 -0.6772
38960SOL     OW18886   6.280   4.454   6.364  0.1754  0.4427  0.0506
38960SOL    HW118887   6.321   4.388   6.420  0.9609 -0.8122 -1.8728
38960SOL    HW218888   6.329   4.534   6.381  0.1209  0.2102  1.4219
38961SOL     OW18889   4.047   0.823   1.418  0.3419  0.0720 -0.0166
38961SOL    HW118890   3.959   0.809   1.385 -0.6889 -0.9405  2.8111
38961SOL    HW218891   4.103   0.770   1.361 -0.8050  0.9131 -2.0001
38962SOL     OW18892   6.537   5.356   5.496 -0.1652  0.6006 -0.2323
38962SOL    HW118893   6.609   5.380   5.438  1.7991 -0.4862  1.5937
38962SOL    HW218894   6.516   5.266   5.473 -0.8775  0.8761 -0.6790
38963SOL     OW18895   8.962   8.994  10.016 -0.2738  0.9968  0.2265
38963SOL    HW118896   8.977   8.956  10.103  2.0359 -0.4983 -0.7174
38963SOL    HW218897   8.949   8.918   9.959 -1.5223  1.9405 -0.7960
38964SOL     OW18898   5.608   1.677   1.250 -1.2190  0.2183  0.3871
38964SOL    HW118899   5.653   1.754   1.217 -1.4384 -0.2274 -0.9921
38964SOL    HW218900   5.670   1.636   1.311  0.6116 -0.7912 -2.0041
38965SOL     OW18901   4.474   2.943   3.635  0.2110  0.0170 -0.2217
38965SOL    HW118902   4.447   2.956   3.726  0.9265 -0.6060  0.0843
38965SOL    HW218903   4.548   2.883   3.640 -0.8165 -1.4103 -1.3398
38966SOL     OW18904   2.925   7.927   8.144  0.2660  0.0118  0.3796
38966SOL    HW118905   2.885   7.883   8.069 -1.9383  0.0566  1.4623
38966SOL    HW218906   2.853   7.971   8.188  2.1612  4.0079 -0.0560
38967SOL     OW18907   2.264   2.891   6.227  0.0940  0.4180  0.7213
38967SOL    HW118908   2.297   2.890   6.317  0.2356 -0.1200  0.6656
38967SOL    HW218909   2.333   2.848   6.176 -0.2042  0.2844  0.4295
38968SOL     OW18910   3.178  10.669   2.563 -0.0086 -0.4550  0.8487
38968SOL    HW118911   3.130  10.752   2.560  3.4808  1.7202  0.1033
38968SOL    HW218912   3.226  10.671   2.645  0.9433 -1.2020  0.3391
38969SOL     OW18913  10.382   8.808   3.078  0.3039 -0.9676 -0.2852
38969SOL    HW118914  10.302   8.809   3.025  0.4435 -0.7729 -0.4950
38969SOL    HW218915  10.355   8.771   3.162 -0.3336  0.3972  0.1456
38970SOL     OW18916   7.610   7.050   2.633 -0.4531  0.0254 -0.0460
38970SOL    HW118917   7.698   7.083   2.651  0.8070 -2.1394 -1.8124
38970SOL    HW218918   7.552   7.124   2.655  1.9113  2.2345 -0.7587
38971SOL     OW18919   0.982   3.828   7.133  0.2811 -0.3442  0.5909
38971SOL    HW118920   1.039   3.883   7.187  0.0937 -0.8290  1.3069
38971SOL    HW218921   0.963   3.752   7.188 -2.1013  0.3982  0.9179
38972SOL     OW18922   7.870   8.469   5.198 -0.6926 -0.0131 -0.0569
38972SOL    HW118923   7.862   8.517   5.280 -1.2780  2.5182 -1.5081
38972SOL    HW218924   7.795   8.496   5.146 -0.6116 -1.9364 -1.2792
38973SOL     OW18925   8.331   7.483   2.222 -0.2421  0.1422 -0.1969
38973SOL    HW118926   8.411   7.517   2.182  0.7008 -0.3472  1.2047
38973SOL    HW218927   8.265   7.550   2.203  1.2481  2.1945  1.3490
38974SOL     OW18928   9.966   7.768   4.577 -0.2815  0.4741  0.4642
38974SOL    HW118929   9.880   7.800   4.551  0.3498  0.7064 -1.5122
38974SOL    HW218930   9.995   7.714   4.504  0.6705 -0.7784  1.7105
38975SOL     OW18931   6.226   9.063   7.746  0.4932  0.0710 -0.0776
38975SOL    HW118932   6.201   9.154   7.758 -0.0203  0.0491 -0.9172
38975SOL    HW218933   6.153   9.013   7.781  0.8362 -0.0221  0.5112
38976SOL     OW18934   2.255  10.807   1.935  1.1199 -0.0834 -0.0042
38976SOL    HW118935   2.324  10.841   1.878  1.7364  0.8630  1.2466
38976SOL    HW218936   2.300  10.790   2.018  0.8776 -4.0401 -0.4891
38977SOL     OW18937   4.262   8.247   4.092 -0.0383  0.2699  0.0841
38977SOL    HW118938   4.215   8.168   4.063  0.2709  0.0449  0.1913
38977SOL    HW218939   4.233   8.260   4.182  0.9914 -0.5633  0.5665
38978SOL     OW18940   4.306   8.682   4.112  1.0096 -0.4952 -0.0003
38978SOL    HW118941   4.355   8.696   4.193  0.8038 -2.4133  0.4912
38978SOL    HW218942   4.299   8.587   4.103 -2.5157 -0.3641 -0.0875
38979SOL     OW18943  10.521   0.836  11.025  0.4839  0.1404 -0.2186
38979SOL    HW118944  10.472   0.916  11.043  1.6572  0.7501  0.3594
38979SOL    HW218945  10.549   0.844  10.934 -1.2022 -0.6249 -0.8409
38980SOL     OW18946   8.850   6.500   9.819  0.2219  0.5499 -0.3781
38980SOL    HW118947   8.899   6.418   9.820 -3.3471 -1.8996  2.3736
38980SOL    HW218948   8.860   6.535   9.907  0.1836  2.1599 -0.9743
38981SOL     OW18949   4.241   8.396   5.027  0.0187 -0.3416 -0.1430
38981SOL    HW118950   4.244   8.442   5.110  0.6432  0.5069 -0.6148
38981SOL    HW218951   4.299   8.322   5.038  0.5843  0.1135 -0.0141
38982SOL     OW18952   8.416   7.624   5.663 -0.7052  0.2315  0.3896
38982SOL    HW118953   8.328   7.649   5.634 -0.6933 -2.3253 -2.4332
38982SOL    HW218954   8.417   7.528   5.654  1.7736 -0.0091  2.2742
38983SOL     OW18955   4.665   8.454   4.320 -0.3797 -0.1472  0.2801
38983SOL    HW118956   4.691   8.546   4.327 -0.3130  0.0239 -1.6976
38983SOL    HW218957   4.623   8.447   4.234  1.7479 -2.4282 -0.6992
38984SOL     OW18958   2.450   1.955   3.123  0.1768  0.6441 -0.7323
38984SOL    HW118959   2.362   1.970   3.088 -0.1305  2.2647  0.6094
38984SOL    HW218960   2.445   1.869   3.164 -1.4754  1.5855  1.2003
38985SOL     OW18961   4.240   9.062   2.595  0.1469  0.0941 -0.9809
38985SOL    HW118962   4.158   9.054   2.645  0.4216  1.1004 -0.3353
38985SOL    HW218963   4.223   9.133   2.533  0.9965  1.3853  0.1923
38986SOL     OW18964   9.712   4.117   9.975 -0.0920 -0.2868 -0.8204
38986SOL    HW118965   9.685   4.194   9.925  1.9892  2.1559  1.5046
38986SOL    HW218966   9.635   4.097  10.029  0.2269  2.2389  0.7704
38987SOL     OW18967  10.823   0.559   2.074 -0.7254  0.1248  0.1296
38987SOL    HW118968  10.758   0.527   2.137 -0.9267  0.2181 -0.0286
38987SOL    HW218969  10.906   0.551   2.120 -0.6660 -1.3465 -0.1746
38988SOL     OW18970   6.592   1.173  10.920 -0.4865 -0.6094 -0.1258
38988SOL    HW118971   6.595   1.170  10.824 -1.4176  1.2587 -0.2628
38988SOL    HW218972   6.605   1.082  10.947 -2.9646 -1.6880 -2.1180
38989SOL     OW18973   2.534   3.993  11.077 -0.1043  0.1441 -0.0855
38989SOL    HW118974   2.555   4.073  11.029  1.0546  0.8401  1.5156
38989SOL    HW218975   2.520   3.927  11.008  0.5638  1.3249 -1.4014
38990SOL     OW18976   3.940   6.358   9.899 -0.5045 -0.5552 -0.0173
38990SOL    HW118977   3.941   6.451   9.875 -0.4886 -0.5362  0.0578
38990SOL    HW218978   3.847   6.336   9.903 -0.5630 -1.2465 -2.8036
38991SOL     OW18979   8.328   8.800   0.583 -0.3716 -0.3146  0.3642
38991SOL    HW118980   8.384   8.728   0.610 -0.3876  0.1697  1.7655
38991SOL    HW218981   8.240   8.774   0.610 -0.6751 -0.5910 -0.8372
38992SOL     OW18982   6.043   9.848   2.253 -0.3217  0.0078 -0.2609
38992SOL    HW118983   5.998   9.922   2.212  2.3432  0.4342 -2.7198
38992SOL    HW218984   5.996   9.771   2.220 -0.1005  0.4714 -1.7376
38993SOL     OW18985   1.883   6.141   4.864 -0.1765  0.0134 -0.4273
38993SOL    HW118986   1.920   6.174   4.946 -0.0284 -0.7851 -0.1627
38993SOL    HW218987   1.899   6.047   4.867  1.1919  0.1544 -2.0890
38994SOL     OW18988   8.871   6.959   9.151 -0.0192  0.0376  0.4356
38994SOL    HW118989   8.798   6.909   9.188 -0.3985  0.1863 -0.1057
38994SOL    HW218990   8.831   7.015   9.085  0.5683  0.2327  0.2393
38995SOL     OW18991   0.937   8.417   1.570 -0.0876 -0.2653 -0.2051
38995SOL    HW118992   0.992   8.397   1.645 -0.2881 -0.1958 -0.0390
38995SOL    HW218993   0.999   8.443   1.501  0.1666 -1.2335 -0.3656
38996SOL     OW18994   0.072   1.339   8.560 -0.1948  0.3874  0.3217
38996SOL    HW118995   0.074   1.290   8.478  1.2765 -0.0501  0.5942
38996SOL    HW218996   0.020   1.284   8.620 -4.6604  2.4292 -1.2747
38997SOL     OW18997   7.071   9.568  10.757  0.3085 -0.4750 -0.3110
38997SOL    HW118998   7.010   9.609  10.818 -1.5678 -0.7623 -1.8941
38997SOL    HW218999   7.123   9.641  10.723 -0.8017  0.1696 -0.6907
38998SOL     OW19000   8.852   0.742   8.762 -0.1204 -0.1855  0.1802
38998SOL    HW119001   8.921   0.690   8.804 -0.7395  0.6783  2.4102
38998SOL    HW219002   8.899   0.815   8.721  0.4003 -0.3131  0.5343
38999SOL     OW19003   2.838   2.114   0.717 -0.1415 -0.4072 -0.5922
38999SOL    HW119004   2.758   2.096   0.765 -1.3537  1.1773 -1.8848
38999SOL    HW219005   2.836   2.054   0.642 -0.3596 -0.0711 -0.8596
39000SOL     OW19006   9.056   5.023  10.677  0.5892 -0.3997  0.5115
39000SOL    HW119007   9.031   4.931  10.688  0.8843 -0.5982 -0.3932
39000SOL    HW219008   9.144   5.028  10.715  0.1860 -0.2561  1.4589
39001SOL     OW19009   5.064   7.010   0.908  0.1520 -0.5934 -0.2577
39001SOL    HW119010   4.976   7.015   0.871  0.6620 -1.9866 -1.8107
39001SOL    HW219011   5.051   6.972   0.996 -0.7159 -2.3287 -1.0722
39002SOL     OW19012  10.078   7.951   9.834  0.3739  0.0345 -0.1737
39002SOL    HW119013  10.055   8.038   9.865 -3.0171 -0.6684 -0.4143
39002SOL    HW219014  10.056   7.892   9.906  2.5651 -0.7148 -0.0331
39003SOL     OW19015   3.937   6.472   1.739  0.6565 -0.4561  0.5927
39003SOL    HW119016   3.905   6.560   1.756  0.7592 -0.1756 -0.5862
39003SOL    HW219017   3.874   6.414   1.783  0.2772  0.1779  0.8930
39004SOL     OW19018   7.136   2.937  11.029 -0.6900 -0.2809  0.0975
39004SOL    HW119019   7.147   3.008  11.092  0.0051 -0.1128 -0.2124
39004SOL    HW219020   7.047   2.948  10.996 -1.4294 -0.9387  1.7404
39005SOL     OW19021   6.120   4.883   6.938  0.0880  0.0695 -0.6834
39005SOL    HW119022   6.112   4.910   6.846  0.0707  1.0620 -0.4090
39005SOL    HW219023   6.178   4.949   6.976  0.5121 -0.6389 -0.1003
39006SOL     OW19024   5.462   6.996   0.663 -0.4781  0.3644  0.6172
39006SOL    HW119025   5.513   6.961   0.736 -1.1427 -1.3251  0.3224
39006SOL    HW219026   5.397   7.053   0.704 -0.6494 -0.3319  1.3402
39007SOL     OW19027   4.135   1.365   1.435  0.1630  0.3783 -0.0662
39007SOL    HW119028   4.067   1.385   1.370  0.7806  0.3357 -0.7448
39007SOL    HW219029   4.212   1.415   1.405  0.3217  0.7522  0.9123
39008SOL     OW19030   1.201   5.651   6.885  0.7217  0.6008 -0.0828
39008SOL    HW119031   1.197   5.741   6.852 -1.7785  0.1522 -1.3172
39008SOL    HW219032   1.174   5.657   6.976  1.5509  1.1987  0.1278
39009SOL     OW19033   0.299   6.089   3.445  0.4400  0.5225 -0.5654
39009SOL    HW119034   0.303   6.053   3.357  3.7776  1.2617 -0.8265
39009SOL    HW219035   0.254   6.173   3.435 -1.4458 -0.4762 -1.0407
39010SOL     OW19036   8.496   7.605   0.637  0.5648 -0.4031 -0.2905
39010SOL    HW119037   8.559   7.534   0.653  0.7888 -0.4266 -1.2505
39010SOL    HW219038   8.447   7.612   0.719  0.1320 -2.0899 -0.3610
39011SOL     OW19039   3.368   4.832   8.694  0.2009  0.8499  0.6910
39011SOL    HW119040   3.321   4.912   8.671  0.4887  0.9224  0.3424
39011SOL    HW219041   3.319   4.762   8.652  0.8568  1.0043 -0.3617
39012SOL     OW19042   1.567   8.476   2.825  0.3151  0.2164  0.0166
39012SOL    HW119043   1.573   8.443   2.915 -1.0987  1.2501  0.5323
39012SOL    HW219044   1.653   8.515   2.808  0.9045 -0.8254  0.5714
39013SOL     OW19045   4.469   2.910   8.269  0.0190  0.3130 -0.5902
39013SOL    HW119046   4.511   2.825   8.276  0.1853  0.3607 -0.9425
39013SOL    HW219047   4.542   2.973   8.269 -0.1142  0.4694 -0.1036
39014SOL     OW19048   6.230   0.428   5.965  0.0898 -0.2790  0.0949
39014SOL    HW119049   6.229   0.509   5.914  1.1862 -0.8083 -0.7974
39014SOL    HW219050   6.146   0.428   6.010 -0.7102  0.4701 -1.3097
39015SOL     OW19051   9.843  10.494   3.101  0.0809 -0.5751  0.2611
39015SOL    HW119052   9.881  10.485   3.014  3.0080 -1.1713  1.4848
39015SOL    HW219053   9.855  10.407   3.141  0.1418  0.0813  1.7326
39016SOL     OW19054   3.685   3.755   3.219  0.2930  0.2303  0.2615
39016SOL    HW119055   3.653   3.791   3.301 -1.2303 -0.3563 -0.0419
39016SOL    HW219056   3.649   3.666   3.216 -0.7645  0.6680 -1.6080
39017SOL     OW19057   1.172   8.138   2.011  0.9004 -0.1791  0.4956
39017SOL    HW119058   1.184   8.191   2.090  1.3464 -0.0535  0.3431
39017SOL    HW219059   1.238   8.069   2.017  0.2214 -0.8184  0.7689
39018SOL     OW19060  10.608  10.385   0.664  0.4144 -0.0200 -0.3355
39018SOL    HW119061  10.659  10.450   0.712  2.7444 -1.8239 -0.1739
39018SOL    HW219062  10.540  10.357   0.724 -0.1066  1.6184 -0.1169
39019SOL     OW19063   7.412   1.908   8.056 -0.9242 -0.6251  0.7157
39019SOL    HW119064   7.497   1.912   8.012 -2.2385 -0.0361 -1.9421
39019SOL    HW219065   7.354   1.868   7.992 -3.1307  0.9011  1.6562
39020SOL     OW19066   4.595   4.688   8.928 -0.2769 -0.2047  0.3498
39020SOL    HW119067   4.505   4.670   8.901 -0.6848  0.7618  1.0258
39020SOL    HW219068   4.644   4.609   8.903 -1.5363 -1.2484  1.0779
39021SOL     OW19069   4.857   4.831   4.031 -0.1831 -0.7778  0.1687
39021SOL    HW119070   4.810   4.774   3.970 -0.3849 -0.8063  0.3503
39021SOL    HW219071   4.871   4.912   3.982 -2.0755 -0.0685  0.7105
39022SOL     OW19072   6.926   4.559   4.485 -0.4852 -0.6881  0.1024
39022SOL    HW119073   6.936   4.631   4.547  0.6809  0.0716 -0.9101
39022SOL    HW219074   6.856   4.587   4.426  0.4856  0.0157 -0.7609
39023SOL     OW19075   3.021   9.534   7.236  0.4223  0.3019 -0.3253
39023SOL    HW119076   3.086   9.601   7.256  1.2093 -0.3411 -0.6545
39023SOL    HW219077   3.068   9.451   7.242 -0.0744 -0.1182 -1.6502
39024SOL     OW19078   7.324   3.593   6.567  0.1318 -0.3892  0.7253
39024SOL    HW119079   7.328   3.510   6.614 -1.1231 -0.0749  1.4272
39024SOL    HW219080   7.283   3.572   6.484  2.2548 -0.9278 -0.2426
39025SOL     OW19081   1.052   1.981   6.781  0.2103 -0.8908  0.0618
39025SOL    HW119082   1.014   2.067   6.759 -0.3915 -1.7046 -2.4006
39025SOL    HW219083   1.077   1.944   6.696  2.4768 -2.2880  1.2398
39026SOL     OW19084   8.169   2.163   7.695  0.4183  0.2559  0.3281
39026SOL    HW119085   8.254   2.164   7.651  0.3455 -1.3654  0.0631
39026SOL    HW219086   8.188   2.194   7.784  1.5758 -1.3260  0.6830
39027SOL     OW19087   0.406   0.501   1.766  0.7384  0.4839  0.3867
39027SOL    HW119088   0.375   0.567   1.829  0.5061  1.6891 -0.9274
39027SOL    HW219089   0.402   0.546   1.681  0.7981 -1.1706 -0.5315
39028SOL     OW19090   0.754   3.765   3.034  1.2353  0.0587 -0.1791
39028SOL    HW119091   0.768   3.859   3.027  0.1092  0.1729 -1.1737
39028SOL    HW219092   0.726   3.752   3.124 -3.8019  1.5109 -1.1959
39029SOL     OW19093   1.648   8.938   1.714 -0.8507  0.1493 -0.4980
39029SOL    HW119094   1.621   8.848   1.694 -0.0287  0.0876 -1.3558
39029SOL    HW219095   1.643   8.943   1.810 -0.6475 -0.8939 -0.4159
39030SOL     OW19096   8.990   3.234   0.121  0.4291  0.6741 -0.0887
39030SOL    HW119097   8.896   3.227   0.101 -0.0202  2.1040  1.2559
39030SOL    HW219098   9.034   3.195   0.046 -1.2575 -1.3363 -0.1233
39031SOL     OW19099   3.902   6.889   3.837 -0.0618  0.4609 -0.3902
39031SOL    HW119100   3.963   6.947   3.791  2.0577 -0.7993  0.6943
39031SOL    HW219101   3.928   6.894   3.929  0.1725 -2.1209 -0.2367
39032SOL     OW19102   3.839   3.298   2.848  0.5821  0.1641  0.5293
39032SOL    HW119103   3.831   3.388   2.815  0.0226  0.2987  1.0324
39032SOL    HW219104   3.831   3.243   2.769  0.1027  0.5227  0.3238
39033SOL     OW19105   2.512  10.553   7.762  0.6388 -0.0321 -0.2408
39033SOL    HW119106   2.566  10.521   7.834  1.2246 -0.7012 -0.9630
39033SOL    HW219107   2.423  10.524   7.783  0.9423 -0.9717 -0.2118
39034SOL     OW19108   7.160   6.205   1.141 -0.2404 -0.0915 -0.6235
39034SOL    HW119109   7.216   6.149   1.087 -2.1103 -0.8682 -1.8567
39034SOL    HW219110   7.115   6.144   1.200 -0.7908  0.3486 -0.5841
39035SOL     OW19111   8.756   0.682   5.785 -0.5541 -0.2465 -0.1656
39035SOL    HW119112   8.699   0.690   5.861  1.1706  2.2950  1.0056
39035SOL    HW219113   8.830   0.630   5.816 -0.1937  0.1699 -0.3220
39036SOL     OW19114   7.648   9.291  10.546  0.2963  0.1560  0.0501
39036SOL    HW119115   7.627   9.357  10.481  1.5452 -0.9548 -1.5685
39036SOL    HW219116   7.564   9.249  10.565 -0.1583  0.7812 -0.5142
39037SOL     OW19117   6.825   6.378   2.517  0.1260 -0.3486 -0.0781
39037SOL    HW119118   6.911   6.342   2.542  0.2667 -1.2922 -1.8042
39037SOL    HW219119   6.844   6.467   2.488  0.4345 -0.3488  0.1160
39038SOL     OW19120   5.299   0.296   7.257  0.2174  0.1832 -0.2753
39038SOL    HW119121   5.263   0.237   7.190  1.8886 -1.5178  0.2416
39038SOL    HW219122   5.352   0.358   7.207 -0.8848  0.7768 -0.7512
39039SOL     OW19123   7.799   9.395   7.782 -0.1659  0.7584  0.2021
39039SOL    HW119124   7.776   9.426   7.695 -3.6897  0.2982  0.8305
39039SOL    HW219125   7.808   9.300   7.773 -0.1053  0.7583  0.2613
39040SOL     OW19126   8.816   8.300   0.022 -0.3152  0.3837  0.5343
39040SOL    HW119127   8.763   8.312   0.102  0.3155  0.3355  0.9667
39040SOL    HW219128   8.859   8.384   0.010  0.7387 -0.0496  1.0999
39041SOL     OW19129   9.535   2.530   4.838 -0.2891  0.5656  0.6528
39041SOL    HW119130   9.612   2.577   4.870 -0.0897  0.4641  0.3323
39041SOL    HW219131   9.542   2.534   4.743  0.0175 -0.5473  0.6067
39042SOL     OW19132   9.757   0.001   8.056  0.3091  0.6358  0.1224
39042SOL    HW119133   9.781   0.065   8.123 -0.9795 -1.7694  3.1227
39042SOL    HW219134   9.799  -0.080   8.084 -1.0523 -0.7080 -1.4813
39043SOL     OW19135   6.590   0.145   0.540  0.1211  0.2376 -0.3289
39043SOL    HW119136   6.542   0.122   0.460 -0.0689  0.5690 -0.3140
39043SOL    HW219137   6.574   0.072   0.599 -0.6133  0.4751 -0.2221
39044SOL     OW19138   2.165   7.840   1.076  1.0022  0.0781 -0.0606
39044SOL    HW119139   2.186   7.923   1.119 -1.0552  0.5757  0.0734
39044SOL    HW219140   2.165   7.775   1.146  0.7388  0.3166  0.1604
39045SOL     OW19141   7.209   0.308   5.741  0.4501  0.3496  0.2192
39045SOL    HW119142   7.137   0.299   5.805 -0.0257  2.9130  0.1331
39045SOL    HW219143   7.166   0.339   5.661  1.3864 -0.4018 -0.6006
39046SOL     OW19144   2.716   8.499   5.209  0.0903 -0.1665  0.0232
39046SOL    HW119145   2.694   8.466   5.296  0.8504 -0.3476  0.1536
39046SOL    HW219146   2.810   8.482   5.200 -0.0836 -0.6422 -1.0397
39047SOL     OW19147   9.221  10.168   4.004 -0.0723 -0.0469  0.7346
39047SOL    HW119148   9.246  10.098   4.065 -0.9096  0.4998  1.7482
39047SOL    HW219149   9.188  10.123   3.927  0.2530 -0.7640  1.0087
39048SOL     OW19150   0.177   6.753   1.494  0.3009 -0.1932 -0.4389
39048SOL    HW119151   0.261   6.798   1.503 -0.2038  0.3496  2.9353
39048SOL    HW219152   0.195   6.662   1.518 -0.2977  0.3407  2.4481
39049SOL     OW19153   0.374   8.514   9.409 -0.4305 -0.0205  0.1224
39049SOL    HW119154   0.340   8.504   9.498 -1.3073  2.8965  0.2160
39049SOL    HW219155   0.296   8.511   9.354 -0.0625 -0.2302 -0.3900
39050SOL     OW19156   8.211   7.720   0.261 -0.0051 -0.9303 -0.3277
39050SOL    HW119157   8.219   7.785   0.331 -2.0372 -0.6087 -0.3365
39050SOL    HW219158   8.291   7.668   0.268  0.3000 -0.3021  1.6146
39051SOL     OW19159  10.152   5.778   2.210 -0.2375 -0.1366 -0.7620
39051SOL    HW119160  10.066   5.817   2.195 -0.2284  0.7431  1.1941
39051SOL    HW219161  10.133   5.690   2.242 -0.5415  0.6571  1.4108
39052SOL     OW19162   1.647   4.115  10.069  0.2910  0.3485  0.6971
39052SOL    HW119163   1.556   4.105  10.097  0.3362  0.9812  1.1131
39052SOL    HW219164   1.681   4.026  10.064 -0.3687  0.1023  0.4697
39053SOL     OW19165   0.233   3.711   9.768 -0.0130  0.0969  0.4262
39053SOL    HW119166   0.283   3.788   9.742  0.7595 -0.7044 -0.5381
39053SOL    HW219167   0.280   3.637   9.730  0.3047 -1.0508  2.8762
39054SOL     OW19168   1.093   7.393   2.237 -0.1836 -0.5192  0.0324
39054SOL    HW119169   1.171   7.440   2.207 -0.1753 -0.1764  0.5724
39054SOL    HW219170   1.035   7.461   2.269 -0.2991 -0.8506  0.5461
39055SOL     OW19171   1.233   4.349   0.589  0.7866  0.6592 -0.0892
39055SOL    HW119172   1.236   4.376   0.681  1.5723  0.1587  0.0498
39055SOL    HW219173   1.224   4.430   0.540  0.9548  0.9863  0.4101
39056SOL     OW19174   1.540  10.633   8.716 -0.8484  0.8299  0.2477
39056SOL    HW119175   1.621  10.677   8.739 -1.2190  2.6367 -1.5708
39056SOL    HW219176   1.481  10.650   8.790 -0.2079  1.2542  0.6641
39057SOL     OW19177   6.342   3.967   9.703 -0.0244 -0.9491 -0.3710
39057SOL    HW119178   6.256   3.955   9.662  0.3313 -2.9137 -0.6040
39057SOL    HW219179   6.375   4.049   9.666 -2.3079  0.5927  0.7020
39058SOL     OW19180   4.082   8.299   0.626 -0.4079  0.0701 -0.4176
39058SOL    HW119181   4.143   8.359   0.670 -1.1941  0.2482  0.4554
39058SOL    HW219182   4.029   8.263   0.696  0.6914 -2.4714 -0.7770
39059SOL     OW19183   0.230   9.237   2.456  0.1316 -0.0851  0.2390
39059SOL    HW119184   0.154   9.289   2.483 -0.1579 -0.9356  1.1249
39059SOL    HW219185   0.261   9.197   2.537  0.7764 -0.7229 -0.3166
39060SOL     OW19186   9.057   3.091  11.022  0.5494  0.0111  0.1782
39060SOL    HW119187   9.060   3.049  10.936  1.5367  0.0127  0.2086
39060SOL    HW219188   9.066   3.019  11.084 -0.2483 -0.0001  0.3002
39061SOL     OW19189   9.864   5.954   9.083  0.6885  0.0733  0.0599
39061SOL    HW119190   9.859   5.956   8.988 -0.0314  0.5643  0.1008
39061SOL    HW219191   9.808   5.881   9.109  0.0620  0.5676  0.1419
39062SOL     OW19192   3.717   3.512   7.834 -0.0757 -0.3416  0.0123
39062SOL    HW119193   3.780   3.481   7.899  1.3650  1.6684 -0.3135
39062SOL    HW219194   3.751   3.478   7.751  0.7373  0.8978 -0.1859
39063SOL     OW19195   0.707   0.482   7.194  0.6990  0.3655  0.2520
39063SOL    HW119196   0.674   0.556   7.245 -0.9057 -0.5088  0.5632
39063SOL    HW219197   0.792   0.511   7.161  0.2430  2.2230  0.6031
39064SOL     OW19198   5.456   2.316   8.050 -0.0741  0.2614 -0.2445
39064SOL    HW119199   5.525   2.268   8.095  0.3722  2.1586  1.2406
39064SOL    HW219200   5.465   2.290   7.958  2.1555 -0.1077  0.0084
39065SOL     OW19201   2.037   9.633   4.252  0.2344 -0.3398 -0.2601
39065SOL    HW119202   2.072   9.651   4.164  1.5935 -0.2156  0.2837
39065SOL    HW219203   1.943   9.622   4.238  0.6769 -2.8974 -2.1699
39066SOL     OW19204  10.261   1.019   5.287  0.5290  0.3517  0.7741
39066SOL    HW119205  10.298   0.940   5.248  0.8784  1.0090 -0.2660
39066SOL    HW219206  10.198   0.987   5.352  1.4128 -0.7724  1.0957
39067SOL     OW19207   1.735   0.946  10.061  0.0194  0.0552 -0.4689
39067SOL    HW119208   1.745   0.931   9.967 -0.0163 -3.2148 -0.0848
39067SOL    HW219209   1.824   0.961  10.092 -0.0411  1.8500 -1.0594
39068SOL     OW19210  10.716   4.351   5.591 -0.3240  0.0681 -0.0524
39068SOL    HW119211  10.644   4.328   5.532 -0.9448  0.4315  0.5439
39068SOL    HW219212  10.719   4.279   5.654  2.2463 -1.8516 -2.1372
39069SOL     OW19213   4.401   2.439   8.424  0.1321 -0.1535 -0.3062
39069SOL    HW119214   4.353   2.391   8.492 -1.2107 -1.5828 -2.1729
39069SOL    HW219215   4.334   2.486   8.375  0.3982 -2.5808 -3.2977
39070SOL     OW19216   8.810   4.551   8.765  0.4364 -0.4923  0.3510
39070SOL    HW119217   8.716   4.568   8.758  1.1293  3.8067 -3.2432
39070SOL    HW219218   8.832   4.508   8.682  1.7943 -0.7494  0.8174
39071SOL     OW19219  10.005   6.356   4.479  0.4574 -0.8247 -0.1019
39071SOL    HW119220  10.085   6.360   4.532 -0.0267  2.7940  0.6332
39071SOL    HW219221  10.035   6.338   4.390  2.2432  1.1660  0.0263
39072SOL     OW19222   2.272   9.402   3.375 -0.2094 -0.3700 -0.0561
39072SOL    HW119223   2.268   9.353   3.293  1.3326 -1.7785  0.6628
39072SOL    HW219224   2.292   9.336   3.441 -0.3858  0.9006  1.3065
39073SOL     OW19225   7.990   8.865   8.284 -0.1515  0.4171 -0.2205
39073SOL    HW119226   8.022   8.775   8.290  1.8227  1.0757 -0.1343
39073SOL    HW219227   7.956   8.872   8.195 -0.5177 -0.4570 -0.1659
39074SOL     OW19228   3.998   8.322   5.163  0.1561  0.5684  0.5973
39074SOL    HW119229   4.087   8.344   5.137  0.3197  0.6401  1.2135
39074SOL    HW219230   3.951   8.405   5.160  0.3569  0.7118  1.2419
39075SOL     OW19231   9.765   6.563   3.077 -0.6897  0.1337  0.1607
39075SOL    HW119232   9.798   6.473   3.082 -0.7354  0.0349 -1.0126
39075SOL    HW219233   9.683   6.561   3.127 -1.3115 -0.7880 -0.8569
39076SOL     OW19234   1.020   1.866   8.760  0.3454  0.1781 -0.1234
39076SOL    HW119235   1.016   1.805   8.687  1.0179 -2.0467  1.5916
39076SOL    HW219236   0.937   1.914   8.756 -1.2282 -2.3423 -0.3603
39077SOL     OW19237   1.124   0.212   7.237 -0.5456  0.0593 -0.2834
39077SOL    HW119238   1.110   0.124   7.273 -0.0360 -0.3835 -1.1507
39077SOL    HW219239   1.134   0.268   7.314  0.7642 -0.9157  0.2815
39078SOL     OW19240   7.824   2.710  10.951 -0.1828  0.1556  0.0597
39078SOL    HW119241   7.770   2.711  11.031  0.7836  2.5361  0.7801
39078SOL    HW219242   7.824   2.618  10.924 -0.8291 -0.7050  2.6060
39079SOL     OW19243   6.388   4.935  10.272 -0.3341  0.1653 -0.2879
39079SOL    HW119244   6.371   4.938  10.177  1.5559  3.3152 -0.6559
39079SOL    HW219245   6.476   4.898  10.279  0.2233  1.5201  0.0651
39080SOL     OW19246   7.413   2.091   0.939  0.0402  0.0450 -0.1233
39080SOL    HW119247   7.439   2.050   0.856 -2.1659 -0.8321 -0.4475
39080SOL    HW219248   7.496   2.120   0.978  1.2292 -0.3768 -2.1688
39081SOL     OW19249   0.950  10.182   1.764  0.0669 -0.0155  0.2510
39081SOL    HW119250   0.965  10.142   1.849  1.4693  2.6728  1.3899
39081SOL    HW219251   1.032  10.226   1.743 -1.5083  2.8640 -0.4660
39082SOL     OW19252   8.099   2.324   6.806 -0.6594 -0.2846  0.2267
39082SOL    HW119253   8.063   2.409   6.781 -0.9019 -0.1880  0.9073
39082SOL    HW219254   8.023   2.272   6.831 -0.6598 -1.1294 -1.3934
39083SOL     OW19255   2.914  10.302   8.029  0.4396 -0.6870 -0.0748
39083SOL    HW119256   2.906  10.303   7.934 -2.1050 -0.0763  0.0694
39083SOL    HW219257   2.831  10.265   8.060 -0.5234  2.6773  1.9294
39084SOL     OW19258   5.433   0.849   2.092  0.9866  0.1049 -0.0149
39084SOL    HW119259   5.400   0.759   2.096 -0.3140  0.5283 -0.8067
39084SOL    HW219260   5.389   0.887   2.016  0.9166  1.6680  0.7826
39085SOL     OW19261  10.772   3.738  10.470  0.1918  0.6905 -0.8738
39085SOL    HW119262  10.709   3.716  10.538  1.5645  2.4035  1.0785
39085SOL    HW219263  10.846   3.679  10.485  1.1894  2.1378  0.2929
39086SOL     OW19264   2.901   0.450   9.336 -0.5381 -0.1277 -0.5539
39086SOL    HW119265   2.872   0.441   9.245 -1.6488 -0.6721 -0.1641
39086SOL    HW219266   2.830   0.499   9.379  0.3053  0.7489 -0.1343
39087SOL     OW19267   8.649   8.254  10.836  0.2938 -0.6636 -0.2580
39087SOL    HW119268   8.610   8.332  10.798  0.0282 -0.1572  0.9850
39087SOL    HW219269   8.718   8.287  10.894 -2.3741 -0.9312  3.4300
39088SOL     OW19270   4.497   5.947   7.274  0.4084 -0.0382  0.0985
39088SOL    HW119271   4.490   5.856   7.301 -0.0345 -0.6126 -1.8097
39088SOL    HW219272   4.575   5.949   7.218 -0.3482  0.4606 -0.9548
39089SOL     OW19273   6.707   5.566   0.673  0.1272 -0.3054  0.0423
39089SOL    HW119274   6.711   5.633   0.741 -2.8052  1.5885 -1.4466
39089SOL    HW219275   6.641   5.504   0.705 -0.9590  0.3731 -0.7999
39090SOL     OW19276   1.264   5.779   0.141 -0.1026  0.0142  0.5382
39090SOL    HW119277   1.277   5.739   0.056  0.0848 -2.1725  1.5310
39090SOL    HW219278   1.287   5.871   0.128 -0.8433 -0.0864 -1.9130
39091SOL     OW19279  10.190   8.680  10.200  0.1842 -0.9724 -0.0900
39091SOL    HW119280  10.140   8.685  10.282  1.8409  2.1703  0.9262
39091SOL    HW219281  10.277   8.651  10.226  0.1373 -2.1336 -1.1366
39092SOL     OW19282   5.255   0.948   7.040  0.7187 -0.3342 -0.1773
39092SOL    HW119283   5.305   0.886   6.986  0.6198 -1.4394  0.9374
39092SOL    HW219284   5.168   0.908   7.048  0.6576 -0.0798  0.5650
39093SOL     OW19285  11.038   0.181   2.193 -0.3443  0.4921  0.5234
39093SOL    HW119286  10.950   0.196   2.159 -0.0507 -0.7646 -0.8769
39093SOL    HW219287  11.092   0.249   2.152 -0.4027  0.3624  0.2300
39094SOL     OW19288   2.695   1.366   9.881 -0.0225 -0.0521  0.1528
39094SOL    HW119289   2.625   1.306   9.853 -0.4419 -0.9410  2.7922
39094SOL    HW219290   2.751   1.312   9.938  0.4922  1.6448  1.3424
39095SOL     OW19291   6.569  10.906   1.095 -0.2588 -0.0620  0.5343
39095SOL    HW119292   6.640  10.900   1.031  0.6595 -2.8146  1.6674
39095SOL    HW219293   6.489  10.906   1.042  0.4837  1.7543 -0.7018
39096SOL     OW19294   8.049   2.639   0.860  0.6238  0.4399 -0.3309
39096SOL    HW119295   7.972   2.689   0.887 -0.9328 -1.3832 -1.1723
39096SOL    HW219296   8.081   2.685   0.782  1.4576  2.1712  0.9631
39097SOL     OW19297   4.891   8.196   2.494 -0.1587 -0.0518  0.1645
39097SOL    HW119298   4.886   8.258   2.567 -0.9356 -1.5488  1.4676
39097SOL    HW219299   4.823   8.131   2.513  1.2552 -1.8626 -0.5601
39098SOL     OW19300   2.552   7.493   4.538 -0.1603  0.8774  0.3221
39098SOL    HW119301   2.611   7.418   4.550 -0.3705  0.7995  0.9035
39098SOL    HW219302   2.519   7.483   4.448  0.0142  0.4187  0.3033
39099SOL     OW19303   8.418   5.551   3.940 -0.3632  0.1498 -0.3854
39099SOL    HW119304   8.348   5.523   3.999 -0.0238 -2.1890 -1.0085
39099SOL    HW219305   8.450   5.633   3.979  0.3758 -1.6324  3.1938
39100SOL     OW19306   4.106   7.847   7.993 -0.1940 -0.2274  0.5791
39100SOL    HW119307   4.132   7.938   7.977  0.3402 -0.4730 -0.0248
39100SOL    HW219308   4.027   7.853   8.046 -0.9451  0.6177 -0.5926
39101SOL     OW19309  10.838   6.999   6.775  0.5059  0.2549  0.1191
39101SOL    HW119310  10.771   7.058   6.739 -1.0451 -0.8164  1.1710
39101SOL    HW219311  10.792   6.917   6.792  1.6753 -0.0149  2.3997
39102SOL     OW19312   1.641   3.727   3.044 -0.9664  0.3395 -0.1139
39102SOL    HW119313   1.710   3.678   3.088 -0.9225 -0.2144 -0.7719
39102SOL    HW219314   1.689   3.788   2.987 -0.9663 -0.9947 -1.6228
39103SOL     OW19315   7.828   8.300   0.286  0.5696  0.3104  0.0804
39103SOL    HW119316   7.755   8.297   0.347  1.1735 -0.3692  0.7839
39103SOL    HW219317   7.847   8.394   0.277  0.7794  0.4093  1.3214
39104SOL     OW19318   8.091   9.300   4.526 -0.1921  0.5815  1.1249
39104SOL    HW119319   8.140   9.218   4.534  0.5780  0.5837 -2.0536
39104SOL    HW219320   8.133   9.360   4.588  2.7598  0.0429 -0.1848
39105SOL     OW19321   4.228   1.788   8.929  0.1628  0.3025  0.0746
39105SOL    HW119322   4.283   1.866   8.922 -1.6391  1.4891 -2.4735
39105SOL    HW219323   4.170   1.793   8.853 -0.1151 -3.5042 -0.1499
39106SOL     OW19324   8.561   7.382  10.677 -0.6188 -0.1247  0.0427
39106SOL    HW119325   8.616   7.451  10.640 -0.0756 -0.8876 -0.6243
39106SOL    HW219326   8.486   7.377  10.618 -0.3588 -0.5006 -0.2662
39107SOL     OW19327   8.165   6.121   1.886 -0.1152 -0.1849  0.1928
39107SOL    HW119328   8.145   6.086   1.799  1.8174  0.9754 -0.7839
39107SOL    HW219329   8.125   6.208   1.887  1.3147  0.5253 -0.2735
39108SOL     OW19330   8.424   8.650   1.131  0.2498  0.0397 -0.6177
39108SOL    HW119331   8.331   8.650   1.107 -0.0274  0.0594  0.4161
39108SOL    HW219332   8.444   8.742   1.147  0.5156  0.0623 -1.0724
39109SOL     OW19333   7.840   3.502   5.008 -0.1577 -0.4400 -0.4867
39109SOL    HW119334   7.865   3.541   4.924 -0.1498 -0.8106 -0.6590
39109SOL    HW219335   7.754   3.540   5.026  0.3972  0.6320 -0.0204
39110SOL     OW19336   1.712   9.317   5.707 -0.0540  0.0519 -0.1196
39110SOL    HW119337   1.632   9.368   5.704 -0.6443 -0.8899 -2.1488
39110SOL    HW219338   1.688   9.235   5.751  0.3341  0.5666  1.0971
39111SOL     OW19339   0.628   8.145  10.179  0.0055  0.0884  0.4232
39111SOL    HW119340   0.624   8.062  10.130 -1.2253 -0.6684  1.7500
39111SOL    HW219341   0.545   8.188  10.160  1.1290  1.6708 -1.2598
39112SOL     OW19342   4.941   5.538   7.725 -0.2895 -0.4583 -0.2398
39112SOL    HW119343   4.859   5.573   7.691  0.0515  0.9522  0.3212
39112SOL    HW219344   4.915   5.469   7.786 -1.0175 -0.6616 -0.7721
39113SOL     OW19345  10.902   4.850   9.969  0.1274  0.7921 -0.0618
39113SOL    HW119346  10.951   4.931   9.953 -0.7307  1.6554  1.4285
39113SOL    HW219347  10.928   4.824  10.058  0.2797 -0.5059 -0.4682
39114SOL     OW19348   2.676  10.813   3.082  0.1815 -0.3360  0.6875
39114SOL    HW119349   2.615  10.821   3.155 -1.8006 -0.3716 -0.8388
39114SOL    HW219350   2.690  10.903   3.053  0.4239 -0.3650  0.7192
39115SOL     OW19351   1.363   5.170   3.830 -0.3517  0.7897  0.0961
39115SOL    HW119352   1.425   5.183   3.758  0.7158 -1.0529  0.6354
39115SOL    HW219353   1.318   5.254   3.838  2.0755  2.1966 -0.2929
39116SOL     OW19354   6.021   8.630   3.484 -0.4259 -0.9216  0.1260
39116SOL    HW119355   6.112   8.605   3.465  0.8641  0.6154  3.4495
39116SOL    HW219356   5.973   8.547   3.487  1.2386 -1.9334 -0.0758
39117SOL     OW19357   4.280   9.208   7.285  0.2952  0.0109 -0.6225
39117SOL    HW119358   4.328   9.150   7.226  0.0026 -0.0340 -0.8187
39117SOL    HW219359   4.212   9.247   7.230  0.1481  0.1232 -0.3629
39118SOL     OW19360   8.412   3.516  10.279 -0.3462  0.0947 -0.3781
39118SOL    HW119361   8.500   3.492  10.251 -0.3249 -2.0375  1.2199
39118SOL    HW219362   8.366   3.540  10.199  0.8728 -1.5599 -1.6268
39119SOL     OW19363   8.570   7.629   2.583 -0.7201 -0.5665  0.4391
39119SOL    HW119364   8.589   7.590   2.668  1.8582  0.8665  0.6335
39119SOL    HW219365   8.640   7.597   2.526 -1.1584  0.2023 -0.5652
39120SOL     OW19366   1.115   2.160   6.473  0.3467  0.3929  0.2906
39120SOL    HW119367   1.122   2.139   6.380  3.0588 -0.4839  0.6203
39120SOL    HW219368   1.110   2.075   6.516 -3.3046  0.7498  0.9549
39121SOL     OW19369   2.351   3.465   3.437 -0.1384  0.1507 -0.2373
39121SOL    HW119370   2.273   3.420   3.470  0.1058 -0.1546 -0.0805
39121SOL    HW219371   2.330   3.484   3.345  0.6816 -2.4474 -1.0567
39122SOL     OW19372   6.817   7.830   9.555  0.8088  0.6628  0.4577
39122SOL    HW119373   6.818   7.751   9.500  1.2603  0.8677  0.1718
39122SOL    HW219374   6.907   7.860   9.556  0.4997  1.6434 -0.0932
39123SOL     OW19375   8.524   6.461   9.959 -0.1318 -0.6306 -0.6015
39123SOL    HW119376   8.445   6.457  10.013  2.3211 -1.9578  3.2908
39123SOL    HW219377   8.559   6.548   9.974  1.4432 -1.5431  1.6177
39124SOL     OW19378   9.912   4.573   5.866  0.3365  0.0536 -0.3966
39124SOL    HW119379   9.999   4.542   5.890 -0.1067  0.4740  2.0420
39124SOL    HW219380   9.860   4.494   5.856  0.0760 -0.1950  2.2388
39125SOL     OW19381   1.123   6.778   6.248  0.5930  0.0277  0.3480
39125SOL    HW119382   1.149   6.870   6.246  1.2675 -0.1631  0.1979
39125SOL    HW219383   1.119   6.755   6.341  1.4319 -0.0697  0.3632
39126SOL     OW19384   0.724   8.169   0.686 -0.2321  0.3436  0.2644
39126SOL    HW119385   0.814   8.197   0.704 -0.2880  2.4454 -2.1235
39126SOL    HW219386   0.699   8.219   0.608 -2.8419 -1.5662 -0.2488
39127SOL     OW19387   2.363   4.819   0.677 -0.0336 -0.3057 -0.3675
39127SOL    HW119388   2.352   4.732   0.716 -0.4577 -0.3772 -0.6313
39127SOL    HW219389   2.439   4.810   0.620 -1.4351 -1.2121 -2.2501
39128SOL     OW19390   5.378   5.077   3.505 -0.7143 -0.1494  0.3285
39128SOL    HW119391   5.328   5.149   3.545  1.0841  1.3724 -0.0117
39128SOL    HW219392   5.443   5.054   3.570  1.1117  1.1520 -0.9135
39129SOL     OW19393   1.698   1.745   7.247 -0.0190 -0.3820  0.3078
39129SOL    HW119394   1.728   1.835   7.242  0.3378 -0.3354  2.4496
39129SOL    HW219395   1.625   1.740   7.185  0.9329  0.9290 -0.9764
39130SOL     OW19396   9.383   9.643   5.169 -0.2519 -0.4125 -0.4735
39130SOL    HW119397   9.312   9.581   5.189 -1.1253  0.8368  0.4604
39130SOL    HW219398   9.367   9.669   5.079 -1.1449  0.0405 -0.1938
39131SOL     OW19399   0.859   7.940   1.421  0.4438  0.3324 -0.4556
39131SOL    HW119400   0.853   7.946   1.325  2.4609 -0.5245 -0.6678
39131SOL    HW219401   0.925   8.005   1.444  0.9488 -0.4253  0.2245
39132SOL     OW19402   8.863   0.249   7.879  0.4597  0.2835  0.1756
39132SOL    HW119403   8.951   0.278   7.857  0.0583  1.2260 -0.2360
39132SOL    HW219404   8.839   0.189   7.808  0.7128  0.1285  0.2191
39133SOL     OW19405   9.842   6.581   4.415  0.4234  0.3347  0.3552
39133SOL    HW119406   9.868   6.496   4.449 -1.6883 -0.1219  0.9746
39133SOL    HW219407   9.900   6.597   4.341  1.1194 -1.4365  0.4865
39134SOL     OW19408   4.857   2.312   5.225 -0.4384  0.2925  0.5260
39134SOL    HW119409   4.783   2.372   5.218 -0.0811  0.6158 -0.8723
39134SOL    HW219410   4.818   2.225   5.221 -0.7144  0.4482 -1.2743
39135SOL     OW19411   1.104  10.086   9.594 -0.5876  0.7239  0.4381
39135SOL    HW119412   1.018  10.074   9.635 -0.5238  0.3213  0.4612
39135SOL    HW219413   1.087  10.087   9.500 -0.6578  0.9937  0.4534
39136SOL     OW19414  10.378   5.916   1.140  0.1647  0.7954 -0.0934
39136SOL    HW119415  10.395   5.971   1.063 -0.8476  2.6065  0.9074
39136SOL    HW219416  10.462   5.911   1.185  0.8690 -0.6158 -1.4605
39137SOL     OW19417   2.534   3.716   4.494  0.1110 -0.1452 -0.2398
39137SOL    HW119418   2.533   3.790   4.433  0.2374 -0.2815 -0.4099
39137SOL    HW219419   2.597   3.654   4.455 -0.2476 -0.4922 -0.2767
39138SOL     OW19420   3.929   5.526   0.366  0.0804  0.6950 -0.4252
39138SOL    HW119421   3.977   5.567   0.437 -0.6413 -0.9492  1.0916
39138SOL    HW219422   3.980   5.447   0.346 -1.9469 -1.2028  1.3623
39139SOL     OW19423   1.863   7.636   4.849  0.1887 -0.2064 -0.1246
39139SOL    HW119424   1.944   7.685   4.832  0.7486 -1.6657 -2.1837
39139SOL    HW219425   1.869   7.561   4.790 -1.1919 -2.1005  1.9880
39140SOL     OW19426   1.315   3.468   2.926  0.7078  0.8554  0.0530
39140SOL    HW119427   1.243   3.437   2.872 -0.1397  0.8077  1.1894
39140SOL    HW219428   1.290   3.446   3.015  1.9630  1.1678  0.5022
39141SOL     OW19429   7.690   0.221   4.869  0.3139  0.7696 -0.2967
39141SOL    HW119430   7.636   0.300   4.867  0.9689  1.2268 -0.2656
39141SOL    HW219431   7.651   0.167   4.937 -0.9761  0.4531 -1.2622
39142SOL     OW19432   4.283   0.498   9.667  0.2446 -0.0614  0.1855
39142SOL    HW119433   4.254   0.580   9.626 -2.3195 -0.3171  1.3036
39142SOL    HW219434   4.374   0.515   9.691  0.3372  1.7982 -1.2351
39143SOL     OW19435   3.140   9.854   3.969  0.6429  0.8885 -0.0398
39143SOL    HW119436   3.110   9.931   3.920  0.5023  0.3117 -0.8892
39143SOL    HW219437   3.208   9.816   3.914 -1.0719 -1.0496 -0.9296
39144SOL     OW19438  10.331  10.048   8.689 -0.0297  0.4962 -0.2464
39144SOL    HW119439  10.418  10.028   8.653  0.1232 -1.2656  0.9924
39144SOL    HW219440  10.272   9.991   8.640 -1.0020  3.5573 -2.9901
39145SOL     OW19441   6.678   5.695   2.202 -0.1553 -0.3114  0.6088
39145SOL    HW119442   6.601   5.751   2.191 -1.3163 -1.7053  1.1737
39145SOL    HW219443   6.641   5.609   2.224  1.5920 -0.8880  1.4461
39146SOL     OW19444   9.337  10.539   8.733 -0.2780  0.6802  0.1709
39146SOL    HW119445   9.242  10.533   8.741 -0.2051 -1.1369  0.2058
39146SOL    HW219446   9.359  10.626   8.765 -1.8965  1.0108  0.4562
39147SOL     OW19447   0.183   6.705   6.227 -0.3990 -0.0221  0.5268
39147SOL    HW119448   0.168   6.794   6.260 -0.9195 -0.9197  2.9666
39147SOL    HW219449   0.118   6.694   6.158 -0.3955  1.4384  0.2497
39148SOL     OW19450   1.579   6.458   6.814  0.6168  0.8799  0.3744
39148SOL    HW119451   1.625   6.498   6.740  0.8603  0.3520  0.2415
39148SOL    HW219452   1.587   6.364   6.800 -1.7066  0.7333 -0.4344
39149SOL     OW19453   8.638   9.562   0.432 -0.1338  0.1570  0.0552
39149SOL    HW119454   8.634   9.494   0.365  0.6147 -0.1945  0.3532
39149SOL    HW219455   8.689   9.523   0.503 -0.1822  0.8280  0.4701
39150SOL     OW19456   6.514   4.326   7.166 -0.1269  0.1820 -0.6975
39150SOL    HW119457   6.583   4.384   7.132  1.3970  0.6164  2.7096
39150SOL    HW219458   6.435   4.354   7.120  1.6464  0.6981 -3.6734
39151SOL     OW19459   4.466   8.160  10.651  0.0227  0.0171 -0.1185
39151SOL    HW119460   4.460   8.179  10.745  1.6355 -0.5587  0.1253
39151SOL    HW219461   4.375   8.164  10.621 -1.0098 -2.9357  2.1066
39152SOL     OW19462   3.908   3.633   0.198  0.3884 -0.3064  0.3061
39152SOL    HW119463   3.916   3.718   0.240  0.0961 -0.4012  0.5535
39152SOL    HW219464   3.814   3.622   0.183  0.5467  0.1640 -1.2784
39153SOL     OW19465   8.026   9.490  10.977  0.1140  0.0894  0.1043
39153SOL    HW119466   7.992   9.557  10.918  0.0108  0.9371  1.1032
39153SOL    HW219467   7.951   9.432  10.993 -0.0146  0.1874 -0.1370
39154SOL     OW19468   5.778   4.533   0.625  0.4267  0.3470  0.9114
39154SOL    HW119469   5.793   4.558   0.716 -1.4943  0.9866  1.1024
39154SOL    HW219470   5.786   4.438   0.624  3.2774  0.4916  1.1223
39155SOL     OW19471   7.679  11.078  10.633  0.3770  0.4765  0.0474
39155SOL    HW119472   7.753  11.106  10.687  1.2001 -0.4884 -0.5446
39155SOL    HW219473   7.634  11.159  10.611  2.8961  1.4989 -1.9479
39156SOL     OW19474   9.869   2.780   8.062  0.8518  0.2159 -0.3601
39156SOL    HW119475   9.793   2.828   8.095  1.1281  0.2501  0.2441
39156SOL    HW219476   9.932   2.785   8.133  0.8178 -1.2075 -0.2021
39157SOL     OW19477   6.859   7.598   6.138 -0.0097 -0.4453 -0.3878
39157SOL    HW119478   6.795   7.633   6.075 -0.6176 -1.2991 -0.2768
39157SOL    HW219479   6.870   7.668   6.203 -0.1259  0.0678 -0.9120
39158SOL     OW19480   0.232   7.925   5.532 -0.2973  0.0284 -0.1641
39158SOL    HW119481   0.261   7.845   5.487 -1.8393 -1.0268  0.5927
39158SOL    HW219482   0.206   7.895   5.619 -0.2666  1.4927  0.3736
39159SOL     OW19483   8.005   6.379   6.871  0.0372  0.7751 -0.1488
39159SOL    HW119484   7.968   6.401   6.957  0.8136 -1.5165  0.8432
39159SOL    HW219485   7.959   6.299   6.845  2.7762 -1.0447  0.2086
39160SOL     OW19486   9.195  10.080   4.393  0.2323 -0.4930  0.2170
39160SOL    HW119487   9.103  10.105   4.394 -0.2644 -1.8251 -2.2172
39160SOL    HW219488   9.194   9.984   4.385  1.7312 -0.4432 -1.4163
39161SOL     OW19489   4.446   1.736  10.606  0.7739 -0.0261  0.0133
39161SOL    HW119490   4.376   1.688  10.562  0.8292  0.2357 -0.3600
39161SOL    HW219491   4.524   1.719  10.553  0.7884  0.4984 -0.1400
39162SOL     OW19492   9.779   4.236   5.350 -0.1345 -0.2179 -0.0209
39162SOL    HW119493   9.801   4.247   5.257 -1.2617 -1.2354 -0.4444
39162SOL    HW219494   9.690   4.271   5.357 -0.8757 -2.0409  0.1885
39163SOL     OW19495   3.939   3.943   2.267 -0.0404  0.4121  0.2031
39163SOL    HW119496   3.894   3.943   2.351 -1.7180 -0.4804 -0.6421
39163SOL    HW219497   3.938   4.034   2.238 -2.6839  0.2759 -0.4257
39164SOL     OW19498  10.640   5.482   9.012  0.2905  0.9000  0.3251
39164SOL    HW119499  10.562   5.525   9.047 -1.4846 -0.7731 -1.3295
39164SOL    HW219500  10.713   5.539   9.038 -1.5549  3.0051  1.1678
39165SOL     OW19501   5.408   9.409   8.846 -0.3975  0.7634 -0.9909
39165SOL    HW119502   5.318   9.376   8.856  0.5994 -1.5578  1.5468
39165SOL    HW219503   5.443   9.359   8.772 -0.9197  1.1098 -1.4847
39166SOL     OW19504   5.511   1.471   0.607 -0.2145 -0.6571  0.1615
39166SOL    HW119505   5.451   1.545   0.602  1.1422  0.4034 -1.7795
39166SOL    HW219506   5.455   1.394   0.591 -1.3761  0.0833  0.5192
39167SOL     OW19507   5.735   0.668   4.910  0.2443  0.5987  0.3423
39167SOL    HW119508   5.640   0.679   4.913  0.3291  1.3559  0.5982
39167SOL    HW219509   5.769   0.756   4.925  0.9727  1.2812 -4.1010
39168SOL     OW19510   4.233   6.729   6.438 -0.5363  0.1764  0.0529
39168SOL    HW119511   4.164   6.753   6.500  1.0879 -0.3603  2.1945
39168SOL    HW219512   4.263   6.643   6.467 -0.8408 -0.9096 -2.5937
39169SOL     OW19513   5.845   6.591   3.765  0.6348 -0.3323 -0.4251
39169SOL    HW119514   5.784   6.649   3.719 -2.2446 -2.1991  0.7387
39169SOL    HW219515   5.902   6.651   3.814 -0.1481  1.5400 -1.6695
39170SOL     OW19516   1.446   9.692   2.647 -0.0803 -0.0470  0.1117
39170SOL    HW119517   1.496   9.731   2.719  1.7988 -1.0031 -0.6160
39170SOL    HW219518   1.356   9.693   2.678  0.8059 -1.7573  3.1466
39171SOL     OW19519  10.142   7.577   8.672  0.6209 -0.3823 -0.1981
39171SOL    HW119520  10.181   7.595   8.586 -0.2840  0.0833 -0.5227
39171SOL    HW219521  10.157   7.658   8.721  1.1849 -0.6676  0.1125
39172SOL     OW19522   5.680   4.546   7.593  0.1387 -0.2355 -0.5932
39172SOL    HW119523   5.632   4.513   7.669  0.0520  0.4514 -0.3451
39172SOL    HW219524   5.759   4.584   7.629 -0.8656  2.0090 -0.5847
39173SOL     OW19525   2.692   2.607   8.444 -0.5038  0.2106  0.2457
39173SOL    HW119526   2.752   2.543   8.407  0.8017  1.9177 -0.7614
39173SOL    HW219527   2.746   2.657   8.505 -1.3677  0.6585  0.6611
39174SOL     OW19528   2.382   8.220   9.687 -0.4401 -0.3602 -0.0690
39174SOL    HW119529   2.348   8.297   9.731 -1.6564  0.0872 -1.7090
39174SOL    HW219530   2.407   8.161   9.758  2.4369  2.2406  1.3223
39175SOL     OW19531   2.676   6.199   7.963 -0.2899 -0.2361  0.5538
39175SOL    HW119532   2.685   6.173   7.871 -0.3319  0.3549  0.3832
39175SOL    HW219533   2.616   6.273   7.961 -1.8373 -1.3980  1.2363
39176SOL     OW19534   7.230   2.270   1.604  0.0848  0.2370  0.2332
39176SOL    HW119535   7.201   2.191   1.559 -1.4195  1.0909 -0.3981
39176SOL    HW219536   7.324   2.258   1.617 -0.0822 -1.5644  0.0105
39177SOL     OW19537   9.421   9.299   6.546  0.4120  0.1606  0.2537
39177SOL    HW119538   9.510   9.321   6.519  0.1960 -0.0822 -0.6700
39177SOL    HW219539   9.380   9.260   6.469  0.3213 -2.1840  1.3822
39178SOL     OW19540   7.543   7.016  10.103 -0.2938 -0.1178  0.3991
39178SOL    HW119541   7.498   6.939  10.069 -0.9707  0.3263  0.2678
39178SOL    HW219542   7.492   7.042  10.180  1.2949 -1.1992  1.9151
39179SOL     OW19543   5.676   8.545   0.402  0.4068 -0.2106  0.6097
39179SOL    HW119544   5.671   8.604   0.477  0.0412 -0.1534  0.5384
39179SOL    HW219545   5.770   8.540   0.382  0.6358 -1.1944  1.8387
39180SOL     OW19546   8.219   6.320  10.461  0.1958  0.2113 -0.5723
39180SOL    HW119547   8.125   6.330  10.473  0.2888 -0.1248  0.4708
39180SOL    HW219548   8.231   6.226  10.443  0.5686 -0.3060  1.9670
39181SOL     OW19549  11.028   6.427   1.276  0.4228  0.2221 -0.3547
39181SOL    HW119550  11.070   6.346   1.245 -0.4354 -0.1184 -0.6637
39181SOL    HW219551  10.955   6.441   1.216 -0.6384  0.1418  0.8582
39182SOL     OW19552   7.577   2.185   3.075 -0.0189  0.4423 -1.0001
39182SOL    HW119553   7.556   2.210   3.165  2.5023 -1.2967  0.1991
39182SOL    HW219554   7.580   2.267   3.027 -1.3457  1.4324  0.4989
39183SOL     OW19555   2.223   3.879   7.975 -0.5304 -0.2006  0.4358
39183SOL    HW119556   2.201   3.971   7.966  0.1640 -0.0646  0.0875
39183SOL    HW219557   2.316   3.873   7.951 -0.4964 -0.9455  0.7029
39184SOL     OW19558   0.644   5.748   4.499  0.5894  0.6459 -0.0742
39184SOL    HW119559   0.561   5.773   4.539  0.7012  0.5094  0.2415
39184SOL    HW219560   0.689   5.697   4.565 -0.6157 -2.4636 -1.4896
39185SOL     OW19561   6.451   6.663   7.512 -0.0208  0.1627 -0.0191
39185SOL    HW119562   6.447   6.582   7.460  0.6767 -0.0023  0.1747
39185SOL    HW219563   6.534   6.657   7.559  1.7062  2.4960 -2.4919
39186SOL     OW19564   5.383   1.517   1.658  0.3850  0.7674  0.0226
39186SOL    HW119565   5.431   1.450   1.706 -1.5566  0.0080  1.0147
39186SOL    HW219566   5.291   1.503   1.682 -0.3354  2.2987 -1.5831
39187SOL     OW19567   1.042  10.247   7.154 -0.8216  0.1580 -0.5359
39187SOL    HW119568   0.977  10.307   7.192  0.6150  0.6056  1.3673
39187SOL    HW219569   0.991  10.170   7.128 -2.4799  1.5447 -1.5926
39188SOL     OW19570   3.832   7.890   5.071 -0.0381 -0.2280 -0.2212
39188SOL    HW119571   3.898   7.872   5.139 -1.7941 -1.7098  1.2051
39188SOL    HW219572   3.756   7.921   5.119 -0.9305 -0.0961 -1.6591
39189SOL     OW19573   0.223   0.066   6.489  0.2764  0.1990  0.0674
39189SOL    HW119574   0.191  -0.022   6.509 -0.1854  0.4279  0.3443
39189SOL    HW219575   0.250   0.101   6.574  1.0068  0.1149 -0.1211
39190SOL     OW19576   5.989   9.778   3.506  1.1700  0.0902  0.4874
39190SOL    HW119577   5.946   9.702   3.466  0.8980  1.0985 -1.2436
39190SOL    HW219578   5.995   9.756   3.599  1.4602 -2.1999 -0.0108
39191SOL     OW19579   1.775   1.706   3.180  0.5182 -0.1368 -0.2879
39191SOL    HW119580   1.833   1.630   3.171 -0.0524 -0.9812  2.3480
39191SOL    HW219581   1.706   1.690   3.116  0.1358 -2.1830  0.5383
39192SOL     OW19582   8.090   6.054   7.792  0.2657  0.5069  0.2362
39192SOL    HW119583   8.146   6.029   7.718 -1.9110  1.7487 -1.9582
39192SOL    HW219584   8.008   6.007   7.776 -0.0693  0.3590  2.2158
39193SOL     OW19585  10.913   6.196   1.479 -0.5272 -0.0374  0.2065
39193SOL    HW119586  10.984   6.245   1.437 -1.5376  0.1705 -1.3297
39193SOL    HW219587  10.957   6.123   1.522  0.5686 -0.3116 -1.3021
39194SOL     OW19588   0.964   0.166   6.381 -0.4781  1.0163  0.2105
39194SOL    HW119589   0.877   0.127   6.391 -0.4271  0.9278  0.3133
39194SOL    HW219590   0.946   0.257   6.356 -0.5926  0.8600 -0.2871
39195SOL     OW19591   7.437   4.656   1.075 -0.4847  0.3435  0.4423
39195SOL    HW119592   7.522   4.700   1.082  0.2226 -0.8821 -0.1402
39195SOL    HW219593   7.398   4.690   0.995  0.1400 -0.2120 -0.1038
39196SOL     OW19594   8.524   8.263   6.156 -0.5539  0.0881  0.1594
39196SOL    HW119595   8.613   8.253   6.189 -0.8395 -0.2246  0.8552
39196SOL    HW219596   8.500   8.176   6.124 -0.9530 -0.0675  0.8695
39197SOL     OW19597   3.895   0.609   8.885  0.6892  0.4126 -0.0993
39197SOL    HW119598   3.824   0.655   8.840  2.1448  2.1846 -0.7045
39197SOL    HW219599   3.874   0.618   8.978 -1.5279 -1.9258 -0.2596
39198SOL     OW19600  10.405   9.365   1.865  0.3269  0.9693  0.2999
39198SOL    HW119601  10.422   9.417   1.786 -1.6792  1.1142 -0.0724
39198SOL    HW219602  10.390   9.431   1.933  2.0149  0.8433  0.8518
39199SOL     OW19603   0.366   6.934   6.449 -0.9205 -0.7810 -0.2272
39199SOL    HW119604   0.399   7.022   6.428  0.6253 -1.8128 -2.5421
39199SOL    HW219605   0.272   6.946   6.462 -0.8179  1.1735 -0.9190
39200SOL     OW19606   5.999   4.533   1.460  0.4733 -0.1604 -0.6485
39200SOL    HW119607   5.948   4.589   1.402 -0.7122  1.9022  2.1746
39200SOL    HW219608   6.083   4.579   1.469 -0.3677  1.0615  1.3850
39201SOL     OW19609   8.680   3.416   1.501 -0.5635 -0.6945  0.1391
39201SOL    HW119610   8.599   3.436   1.548 -0.5817  0.0175 -0.1838
39201SOL    HW219611   8.747   3.470   1.544 -0.6920  0.4434 -1.0075
39202SOL     OW19612  10.511   7.526   3.733  0.0832 -0.2369  0.2542
39202SOL    HW119613  10.523   7.558   3.822  3.6637 -0.4762  0.0054
39202SOL    HW219614  10.513   7.605   3.678 -0.1013 -0.2410  0.2404
39203SOL     OW19615   0.306   4.801   9.466 -0.1987 -0.2537  0.7563
39203SOL    HW119616   0.225   4.794   9.516 -1.5444 -0.4914 -1.3675
39203SOL    HW219617   0.284   4.858   9.392  1.3146 -1.0187 -0.3297
39204SOL     OW19618   7.195   5.426  10.475 -0.3319  0.9994  0.0410
39204SOL    HW119619   7.218   5.375  10.553 -1.0629  2.8018  1.5021
39204SOL    HW219620   7.177   5.360  10.408  1.1723 -0.5914  1.1196
39205SOL     OW19621   7.807   4.985   1.306 -0.5194  0.0014 -0.3367
39205SOL    HW119622   7.811   5.081   1.311 -0.4950  0.0297 -0.8409
39205SOL    HW219623   7.893   4.956   1.336 -0.6596  0.1185  0.1916
39206SOL     OW19624   6.827   2.654   7.330 -0.3323 -0.5810  0.2943
39206SOL    HW119625   6.913   2.659   7.288 -0.3582  1.0638  0.3944
39206SOL    HW219626   6.767   2.633   7.258 -0.0142 -0.4869 -0.0024
39207SOL     OW19627   9.008   4.839   7.303 -0.2700 -0.1554 -0.0686
39207SOL    HW119628   9.002   4.744   7.291 -0.5097 -0.2575  0.7412
39207SOL    HW219629   8.924   4.862   7.344 -1.0388  0.7175 -2.0305
39208SOL     OW19630   3.649   8.496  10.222  0.3240 -0.5960 -0.3289
39208SOL    HW119631   3.654   8.589  10.245  1.0388 -0.9033  0.7990
39208SOL    HW219632   3.582   8.493  10.153 -0.5637  0.6037  0.4302
39209SOL     OW19633   1.570   3.514   2.881 -0.2182 -0.1483  0.0295
39209SOL    HW119634   1.605   3.572   2.949  0.8119  1.6523 -1.8914
39209SOL    HW219635   1.478   3.504   2.902 -0.3126  1.8109  0.7546
39210SOL     OW19636   0.393   0.230   9.453  0.0571  0.6171  0.4625
39210SOL    HW119637   0.310   0.221   9.499 -0.6573  2.0523 -0.4762
39210SOL    HW219638   0.458   0.238   9.523 -0.7678  0.8619  1.2163
39211SOL     OW19639   1.577   4.091   6.897 -0.0809 -0.3576  0.0360
39211SOL    HW119640   1.629   4.036   6.838 -1.3670 -1.4834 -0.0744
39211SOL    HW219641   1.641   4.151   6.936  1.1049 -0.9188 -0.9918
39212SOL     OW19642   1.501   9.814   8.094 -0.1044 -0.0701  0.3867
39212SOL    HW119643   1.502   9.908   8.114  2.4985  0.1171 -0.2822
39212SOL    HW219644   1.572   9.802   8.031 -0.3904 -2.5120  0.4242
39213SOL     OW19645   2.779   6.921   6.963 -0.0846 -0.3419 -0.4056
39213SOL    HW119646   2.730   6.983   7.017  0.3930 -0.8634  0.6549
39213SOL    HW219647   2.826   6.976   6.899 -0.4343  0.3045 -0.1132
39214SOL     OW19648   4.071   2.012   5.315 -0.4169  0.7826  0.5515
39214SOL    HW119649   4.144   1.992   5.374 -0.7349  1.2722  1.1220
39214SOL    HW219650   4.108   2.076   5.254  0.5766 -1.3438 -1.2222
39215SOL     OW19651   9.751   7.708   4.983 -0.0661  0.7641  0.6321
39215SOL    HW119652   9.777   7.629   5.030  0.1560  0.1032 -0.5428
39215SOL    HW219653   9.833   7.748   4.957 -0.1796  0.6188  0.0279
39216SOL     OW19654   0.586   9.814   9.615 -0.2161 -0.6323  0.3677
39216SOL    HW119655   0.556   9.752   9.682  2.1820  0.4575  2.6524
39216SOL    HW219656   0.682   9.804   9.615  0.2171  2.5160  0.3866
39217SOL     OW19657   2.517   7.072   1.031  0.4274 -0.0526  0.4170
39217SOL    HW119658   2.490   6.985   1.003  1.6476 -0.2685 -0.1208
39217SOL    HW219659   2.511   7.126   0.952 -3.1988  1.1583  1.2851
39218SOL     OW19660   9.583   6.000   5.488 -0.2805  0.2730  0.1941
39218SOL    HW119661   9.629   6.076   5.453 -0.2152 -0.8989 -2.4901
39218SOL    HW219662   9.490   6.020   5.474 -0.2458 -0.2935 -1.0010
39219SOL     OW19663   9.060   2.227   7.827  0.2161  0.5892  0.2807
39219SOL    HW119664   9.015   2.225   7.912  1.4212  0.4196  0.9316
39219SOL    HW219665   9.064   2.135   7.800 -0.5263  0.6799 -0.1711
39220SOL     OW19666   2.473   4.801   3.121 -0.6266  0.1990 -1.3264
39220SOL    HW119667   2.448   4.894   3.120 -2.0062  0.0545  2.4386
39220SOL    HW219668   2.395   4.754   3.094 -0.9793  0.0838 -0.1592
39221SOL     OW19669   5.714   4.127   5.282  0.3020 -0.3410 -0.6560
39221SOL    HW119670   5.679   4.050   5.325 -1.9637  0.4801 -0.8802
39221SOL    HW219671   5.784   4.158   5.340 -2.8549  0.9773  2.8810
39222SOL     OW19672   3.577   3.882   4.023 -0.3445 -0.3884 -0.9355
39222SOL    HW119673   3.602   3.795   3.992 -1.1510 -0.4636 -1.3933
39222SOL    HW219674   3.625   3.943   3.966  0.5722 -0.5196 -0.3258
39223SOL     OW19675   7.594   1.637   8.116 -0.0051 -0.2208 -0.0210
39223SOL    HW119676   7.591   1.706   8.182  0.2515 -0.2875  0.0642
39223SOL    HW219677   7.667   1.662   8.059 -1.0956  0.5756 -1.1062
39224SOL     OW19678   1.466  10.134   0.315  0.1750  0.3106  0.7526
39224SOL    HW119679   1.545  10.125   0.263 -0.6820 -0.1229 -0.5298
39224SOL    HW219680   1.395  10.139   0.251 -0.9323 -0.3291  1.8681
39225SOL     OW19681   4.463   0.186   2.102 -0.5073  0.1110 -0.0562
39225SOL    HW119682   4.476   0.269   2.146  0.3188 -0.2581  0.4196
39225SOL    HW219683   4.488   0.120   2.166  1.4207 -0.4212 -1.2842
39226SOL     OW19684   1.441   8.058   6.315  0.5470  0.5691  0.2844
39226SOL    HW119685   1.432   7.988   6.380 -1.9360 -0.2944 -0.8919
39226SOL    HW219686   1.533   8.053   6.288  0.2961 -2.8638 -0.3748
39227SOL     OW19687   8.015   3.045   5.078  0.6704 -0.4688  0.0405
39227SOL    HW119688   7.947   3.104   5.046  1.5407  1.8691  2.2147
39227SOL    HW219689   7.969   2.987   5.140  0.4281  0.3801  0.6730
39228SOL     OW19690   2.269   9.510   7.345  0.0746 -0.2488 -0.2510
39228SOL    HW119691   2.280   9.416   7.362 -0.4126 -0.2216  0.2515
39228SOL    HW219692   2.358   9.542   7.332  0.4471 -0.4445  1.4792
39229SOL     OW19693   5.740  10.457   1.882  0.3626 -0.2324  0.6768
39229SOL    HW119694   5.779  10.410   1.808 -0.0854 -0.5027  0.6100
39229SOL    HW219695   5.724  10.390   1.948 -3.0774 -0.8043 -0.5509
39230SOL     OW19696   5.610   1.314   9.276 -0.1266  0.2698  0.8221
39230SOL    HW119697   5.668   1.372   9.226  1.6633 -1.8603  0.2554
39230SOL    HW219698   5.661   1.289   9.353 -1.2556  0.2149  1.5779
39231SOL     OW19699   5.481   3.710   5.677 -0.5766  0.5043 -0.0635
39231SOL    HW119700   5.548   3.642   5.675  2.3818  3.2234 -2.1012
39231SOL    HW219701   5.410   3.675   5.624  0.1249 -1.5775  0.2620
39232SOL     OW19702   6.273   7.164   7.701 -0.2315  0.0969  0.0512
39232SOL    HW119703   6.270   7.100   7.631 -1.7097 -0.5834  0.6876
39232SOL    HW219704   6.181   7.180   7.723  0.1805 -0.2829  2.3067
39233SOL     OW19705   8.146   8.325   4.777  0.0085 -0.0872  0.1708
39233SOL    HW119706   8.188   8.239   4.778 -1.6750 -1.0083  2.6516
39233SOL    HW219707   8.055   8.307   4.752  0.3256  1.5054 -2.5587
39234SOL     OW19708   7.083   5.271   1.878  0.1377  0.3942 -0.5920
39234SOL    HW119709   7.076   5.359   1.841  0.6316  1.4365  1.6031
39234SOL    HW219710   7.171   5.267   1.915 -0.0677 -0.8221 -0.1687
39235SOL     OW19711   1.830   1.386   0.115 -0.1226 -0.2864 -0.1403
39235SOL    HW119712   1.820   1.451   0.045 -0.7787 -1.7930 -1.5238
39235SOL    HW219713   1.921   1.357   0.107  0.2279  0.5878  0.6084
39236SOL     OW19714   2.235   8.460   9.747 -0.4456 -0.1688 -0.0779
39236SOL    HW119715   2.245   8.501   9.834  2.1030  0.5696 -0.6319
39236SOL    HW219716   2.154   8.409   9.754 -0.4761  0.0873  2.6364
39237SOL     OW19717   0.783   3.430  10.762 -0.0151 -0.5978  0.2503
39237SOL    HW119718   0.768   3.379  10.682 -0.3729  0.1303 -0.1557
39237SOL    HW219719   0.820   3.513  10.731  1.9908 -1.1465  1.0070
39238SOL     OW19720   9.804   7.552   9.172  0.1215  0.4682  0.4280
39238SOL    HW119721   9.878   7.493   9.161  0.2980  0.8126 -0.2701
39238SOL    HW219722   9.736   7.515   9.115  0.1723  0.8340  0.1296
39239SOL     OW19723   6.889   3.457   3.836 -0.6370 -0.8111  0.4080
39239SOL    HW119724   6.797   3.432   3.836 -0.8953 -0.0201 -1.0900
39239SOL    HW219725   6.888   3.550   3.862 -0.2686 -0.7838  0.3266
39240SOL     OW19726   9.938   2.302   6.924 -0.3615  0.3531  0.0120
39240SOL    HW119727   9.864   2.321   6.866 -0.1606  0.7052 -0.1274
39240SOL    HW219728   9.909   2.331   7.010 -1.2712 -1.5564  0.4260
39241SOL     OW19729   0.778   8.337   1.247 -0.3072 -0.0606 -0.2754
39241SOL    HW119730   0.809   8.391   1.175  0.5327  1.3559  1.0659
39241SOL    HW219731   0.710   8.389   1.290  1.7054  0.8390  2.0806
39242SOL     OW19732   1.657  10.065   7.530  0.6184 -0.1327 -0.5186
39242SOL    HW119733   1.749  10.059   7.555  0.7244 -1.8586 -1.2210
39242SOL    HW219734   1.653  10.143   7.475  1.3129  0.9155  0.8433
39243SOL     OW19735   0.457   2.284  10.746 -0.2830 -0.1543 -0.1588
39243SOL    HW119736   0.508   2.352  10.702 -1.8728  1.1296 -0.0911
39243SOL    HW219737   0.480   2.204  10.700  0.7010  0.6069 -1.0601
39244SOL     OW19738   6.557   7.771  10.760  0.3438  0.1565  0.0244
39244SOL    HW119739   6.569   7.725  10.678  2.4316 -0.1352  0.4330
39244SOL    HW219740   6.529   7.704  10.822 -2.0567  0.5277 -0.5745
39245SOL     OW19741   3.619   6.562   5.257  0.4682 -0.5708  0.5977
39245SOL    HW119742   3.694   6.502   5.261 -0.4542 -1.7255  1.3547
39245SOL    HW219743   3.634   6.624   5.329  1.9280  0.7868 -0.7971
39246SOL     OW19744   4.201  10.632   7.273  0.3361 -0.0593  0.2606
39246SOL    HW119745   4.145  10.627   7.195 -3.6178  1.1364  2.7031
39246SOL    HW219746   4.285  10.663   7.240 -0.7489 -0.6749 -3.6145
39247SOL     OW19747   1.718  11.085   5.902 -0.2571  0.4738 -0.2156
39247SOL    HW119748   1.735  11.105   5.810  1.6251 -1.9107 -0.4895
39247SOL    HW219749   1.664  11.006   5.900  0.8736 -0.3501  0.6909
39248SOL     OW19750  10.206   5.229   4.365  0.4724  0.0712  0.4489
39248SOL    HW119751  10.255   5.169   4.420 -1.5284 -0.7865  1.4189
39248SOL    HW219752  10.161   5.287   4.427  1.5357  1.9538 -0.4364
39249SOL     OW19753   5.909   5.900   1.957 -0.2956 -0.0151 -0.2392
39249SOL    HW119754   5.950   5.816   1.936 -0.7772 -0.7513  1.5429
39249SOL    HW219755   5.918   5.952   1.878  2.6264 -0.6952 -0.4703
39250SOL     OW19756   1.610   5.830   3.596 -0.6287  0.9917  0.1020
39250SOL    HW119757   1.652   5.862   3.516  1.3865  0.6751  0.9798
39250SOL    HW219758   1.519   5.815   3.571  0.0522  0.4632 -2.2504
39251SOL     OW19759   4.942  10.075   5.827 -0.9356  0.2488 -0.5355
39251SOL    HW119760   4.848  10.059   5.828 -0.9930  0.5668 -0.7737
39251SOL    HW219761   4.981   9.989   5.839 -1.2591  0.1705  0.0219
39252SOL     OW19762   2.996  10.569  10.136  0.2451  0.2439  0.4032
39252SOL    HW119763   2.956  10.628  10.072  0.7655  1.0944  0.8539
39252SOL    HW219764   2.922  10.534  10.186  0.0404  2.0223  1.4229
39253SOL     OW19765   8.730   4.115   6.765  0.5335  0.7805  0.0846
39253SOL    HW119766   8.752   4.030   6.727  2.7255  0.7257  1.3249
39253SOL    HW219767   8.695   4.166   6.692 -0.1824 -0.9395 -0.8259
39254SOL     OW19768   1.158   8.788   7.692  0.1691 -0.3111 -0.9236
39254SOL    HW119769   1.096   8.860   7.706 -0.3360 -0.4604 -2.2611
39254SOL    HW219770   1.225   8.800   7.760 -0.3811  0.8869 -0.5709
39255SOL     OW19771   9.034   9.029   4.291  0.1159 -0.2985  0.5974
39255SOL    HW119772   9.091   9.060   4.220 -0.2084  0.0870  0.5000
39255SOL    HW219773   9.094   9.001   4.360  0.4906 -2.2888 -0.4655
39256SOL     OW19774   5.763   4.499   8.306 -0.0039 -0.6233 -0.7691
39256SOL    HW119775   5.681   4.450   8.301 -1.0289  0.9156  0.3452
39256SOL    HW219776   5.755   4.552   8.385  1.5423  0.5105 -1.3292
39257SOL     OW19777   0.496   1.846   5.495  0.4945  0.6179  0.0312
39257SOL    HW119778   0.573   1.839   5.438  0.1267  0.6137 -0.4768
39257SOL    HW219779   0.422   1.840   5.435  0.0792 -0.3999  0.6107
39258SOL     OW19780   9.816   8.476   4.578 -0.3078 -0.0589  0.4364
39258SOL    HW119781   9.826   8.427   4.496 -1.0259  1.9126 -0.8867
39258SOL    HW219782   9.727   8.457   4.608 -0.3331 -0.1327  0.3125
39259SOL     OW19783   3.310   0.850   1.442 -0.5152 -0.1356  0.0843
39259SOL    HW119784   3.391   0.839   1.491 -1.3521  0.4802  1.6746
39259SOL    HW219785   3.252   0.897   1.502 -1.2958  1.4878 -1.8370
39260SOL     OW19786   1.624   1.393   1.851 -0.3154 -0.1131  0.5351
39260SOL    HW119787   1.571   1.456   1.802  0.4695 -0.5228 -0.8754
39260SOL    HW219788   1.684   1.357   1.787  0.0226 -1.4755  1.5758
39261SOL     OW19789   5.639   7.518   8.828  0.2485 -0.2718 -0.5691
39261SOL    HW119790   5.560   7.488   8.784  0.3522  1.3459 -1.9460
39261SOL    HW219791   5.668   7.443   8.880 -2.7146 -0.6129  0.7725
39262SOL     OW19792   3.136   9.113   6.178 -0.6021  0.3021 -0.2933
39262SOL    HW119793   3.067   9.179   6.172 -0.9567 -0.1697 -1.6538
39262SOL    HW219794   3.116   9.050   6.109  0.2939 -0.7091  0.3262
39263SOL     OW19795   1.270   7.774   9.308 -0.0386  0.1668 -0.3453
39263SOL    HW119796   1.282   7.866   9.332  1.3345 -0.1585  0.3077
39263SOL    HW219797   1.192   7.774   9.253 -0.0935  1.7169 -0.3175
39264SOL     OW19798   4.441   6.756   2.215 -0.1678  0.1560 -0.2547
39264SOL    HW119799   4.389   6.811   2.157 -0.4892 -0.4881 -0.5866
39264SOL    HW219800   4.505   6.714   2.157 -1.3835 -1.5664 -0.3932
39265SOL     OW19801   3.420   8.247   1.658 -0.0762  0.4926 -0.3899
39265SOL    HW119802   3.435   8.329   1.706 -1.2201 -0.0334  0.9482
39265SOL    HW219803   3.336   8.260   1.614 -0.9424 -0.3951  0.9170
39266SOL     OW19804   8.332   7.400   1.856 -0.0706  0.7427 -0.4177
39266SOL    HW119805   8.307   7.308   1.867 -1.4915  1.0689 -0.7360
39266SOL    HW219806   8.400   7.414   1.922 -0.5414 -0.2813  0.3131
39267SOL     OW19807   4.420  10.042   5.170 -0.2104 -0.0919 -0.2285
39267SOL    HW119808   4.450   9.952   5.153 -3.2643 -1.0926 -1.0126
39267SOL    HW219809   4.403  10.078   5.083 -1.4610  0.2935  0.1529
39268SOL     OW19810   0.724   4.066   9.665 -0.0945  0.4795 -0.4311
39268SOL    HW119811   0.675   4.126   9.721  0.2429  1.2874 -0.9860
39268SOL    HW219812   0.801   4.116   9.638  0.7035 -0.5362 -0.1246
39269SOL     OW19813   5.204   2.727  10.228  0.0435  0.2633  1.0742
39269SOL    HW119814   5.165   2.776  10.300  0.5856  0.5549  1.1766
39269SOL    HW219815   5.294   2.760  10.222 -0.0728  0.4435  0.0920
39270SOL     OW19816   3.629   4.989   8.918  0.1471  0.0861 -0.2250
39270SOL    HW119817   3.708   4.979   8.865 -0.1970 -0.4094 -0.6601
39270SOL    HW219818   3.568   4.925   8.881 -0.6984  0.9549 -0.3502
39271SOL     OW19819   6.505   3.928   7.129  0.4581 -0.1038 -0.2253
39271SOL    HW119820   6.429   3.874   7.152  0.2975  0.3296  0.3168
39271SOL    HW219821   6.538   3.892   7.047  0.8949 -1.5695  0.5723
39272SOL     OW19822   7.558  10.429   7.029 -0.2511 -0.0105  0.3117
39272SOL    HW119823   7.617  10.435   7.104  1.2517 -1.8969 -0.5987
39272SOL    HW219824   7.616  10.411   6.955 -1.9382 -2.1431 -0.6132
39273SOL     OW19825   8.766   4.104   8.505 -0.3741  0.5960  0.0673
39273SOL    HW119826   8.753   4.198   8.494 -1.2258  0.8545  2.7371
39273SOL    HW219827   8.812   4.095   8.588  0.3901 -1.3344 -0.5077
39274SOL     OW19828   4.354   3.004   6.806  0.1511 -0.1077 -0.0455
39274SOL    HW119829   4.259   3.007   6.792 -0.1089 -0.5470  1.4067
39274SOL    HW219830   4.384   3.092   6.784 -0.5955  0.0461 -0.5007
39275SOL     OW19831  11.024   7.744  10.382  0.5609 -0.5855  0.6043
39275SOL    HW119832  10.931   7.737  10.399  0.5135 -0.1005  0.5593
39275SOL    HW219833  11.045   7.836  10.401  1.0081 -0.6700  0.5289
39276SOL     OW19834   3.889   7.912   6.920  0.3338  0.4088 -0.4135
39276SOL    HW119835   3.954   7.844   6.938  0.5886  0.3840 -1.3439
39276SOL    HW219836   3.914   7.947   6.835 -0.5471  0.7893 -0.5329
39277SOL     OW19837   9.693   3.557   5.007  0.5659  0.7583 -0.3504
39277SOL    HW119838   9.715   3.489   5.071 -2.3746  0.2314  0.2372
39277SOL    HW219839   9.777   3.580   4.967  1.6975 -3.7302 -1.0871
39278SOL     OW19840   4.641   8.032   8.874  0.7536 -0.0852 -0.3951
39278SOL    HW119841   4.629   7.997   8.963 -0.1439 -0.1830 -0.5420
39278SOL    HW219842   4.735   8.025   8.858  0.9474  0.0325  0.5911
39279SOL     OW19843   2.978   8.497  10.313 -0.1104  0.8326  0.2625
39279SOL    HW119844   3.034   8.423  10.337 -0.2677  0.1174 -1.4428
39279SOL    HW219845   3.035   8.574  10.320 -0.0390  0.6322  2.3924
39280SOL     OW19846   5.042   6.667   8.363  0.1752  0.0676 -0.3272
39280SOL    HW119847   5.024   6.676   8.270 -0.3665 -0.3623 -0.2720
39280SOL    HW219848   4.977   6.604   8.394  2.1123 -1.9490 -0.1950
39281SOL     OW19849   1.118   9.751   6.141 -0.8862 -0.4058  0.5667
39281SOL    HW119850   1.096   9.658   6.132  0.3571 -0.7153  0.5277
39281SOL    HW219851   1.034   9.793   6.160 -1.6495 -1.3796 -0.4440
39282SOL     OW19852   4.781   6.537   8.920 -0.3818 -0.0112 -0.2700
39282SOL    HW119853   4.830   6.517   8.840 -1.5729 -1.9051 -0.5952
39282SOL    HW219854   4.689   6.539   8.891 -0.7393  0.3049  0.8627
39283SOL     OW19855   1.525  10.240  10.056  0.2560  0.4130  0.1592
39283SOL    HW119856   1.482  10.291  10.124 -0.8095  0.4260 -0.5132
39283SOL    HW219857   1.509  10.149  10.080 -0.2616  0.4194 -0.1640
39284SOL     OW19858   2.825   9.964   2.134 -0.2294  0.2178 -0.0069
39284SOL    HW119859   2.782   9.879   2.124 -0.9856  0.7695 -1.9874
39284SOL    HW219860   2.808   9.990   2.225 -1.6451 -0.8713  0.0732
39285SOL     OW19861   0.655  10.372   5.213  0.5385  0.4880 -0.6698
39285SOL    HW119862   0.750  10.369   5.204  0.6600  1.6142  0.0634
39285SOL    HW219863   0.637  10.460   5.246 -0.8630  0.7824 -2.0946
39286SOL     OW19864  10.939  10.390   3.195  0.1461 -0.2506 -0.6331
39286SOL    HW119865  10.917  10.406   3.103  0.3547  2.9926 -0.2385
39286SOL    HW219866  10.855  10.391   3.241 -0.0257 -2.5178 -0.7683
39287SOL     OW19867   5.681   2.209   8.212  0.5586  0.1296 -0.3594
39287SOL    HW119868   5.690   2.259   8.293 -2.6803  1.0327 -0.4200
39287SOL    HW219869   5.770   2.206   8.175  1.4823  2.8012  1.3968
39288SOL     OW19870   5.281   7.874   8.466  0.3641 -0.6766 -0.0638
39288SOL    HW119871   5.274   7.902   8.375  0.6553  0.7080  0.3179
39288SOL    HW219872   5.195   7.893   8.504  0.6531 -0.0219  0.2724
39289SOL     OW19873   9.084   1.286   4.734 -0.6259  0.3877  0.2310
39289SOL    HW119874   9.091   1.219   4.801  2.4118  2.1939  1.9732
39289SOL    HW219875   9.096   1.239   4.651  0.3683 -1.3402  1.2957
39290SOL     OW19876   2.054   6.873   4.036  0.1392 -0.0967  0.0204
39290SOL    HW119877   2.132   6.927   4.024 -0.8028  2.0289  2.5771
39290SOL    HW219878   2.080   6.807   4.099  0.7050 -1.4731 -1.5743
39291SOL     OW19879   8.763   4.874   0.688  0.1752  0.4578 -0.3724
39291SOL    HW119880   8.680   4.865   0.642 -0.1819  0.4813  0.2554
39291SOL    HW219881   8.758   4.811   0.760  0.3666  1.0234  0.1463
39292SOL     OW19882   4.723   9.045   8.927 -0.0200  0.0121  0.0458
39292SOL    HW119883   4.803   8.999   8.953  0.5399  0.8786 -0.1055
39292SOL    HW219884   4.738   9.136   8.954  0.5292  0.9681 -3.0899
39293SOL     OW19885   3.617   3.483  10.909 -0.4068 -0.0250  0.3351
39293SOL    HW119886   3.549   3.491  10.843  1.9831  1.0583 -2.2117
39293SOL    HW219887   3.667   3.406  10.883  0.9719  0.8018  0.3699
39294SOL     OW19888   6.128   7.157   0.739  0.4527 -0.1041  0.3661
39294SOL    HW119889   6.202   7.214   0.720 -0.8444  1.8989  1.0512
39294SOL    HW219890   6.103   7.178   0.829 -1.0510 -0.5965  0.0945
39295SOL     OW19891   7.727   3.298  10.450 -0.1840  0.3095 -0.2762
39295SOL    HW119892   7.791   3.362  10.419 -1.2877  1.4948 -0.2023
39295SOL    HW219893   7.647   3.320  10.402 -0.3937 -1.5157 -0.8031
39296SOL     OW19894   7.978   0.142   7.523  0.6304 -0.0877 -0.1972
39296SOL    HW119895   7.980   0.058   7.569  2.1857 -0.2539 -0.4991
39296SOL    HW219896   7.894   0.181   7.548  0.0457 -1.5496  0.2547
39297SOL     OW19897   6.289   6.853   4.580  0.2691  0.0230  1.3969
39297SOL    HW119898   6.363   6.822   4.632 -0.0120 -0.7688  1.3286
39297SOL    HW219899   6.300   6.948   4.578  2.7731 -0.2059 -0.8099
39298SOL     OW19900   6.742   4.672   7.045 -0.5494  0.8437 -0.8657
39298SOL    HW119901   6.670   4.713   7.093  0.4974  0.7646  0.8368
39298SOL    HW219902   6.783   4.614   7.109  0.6203  0.3649 -2.0123
39299SOL     OW19903  10.704   1.815   6.333  0.7231 -0.4074  0.2098
39299SOL    HW119904  10.753   1.739   6.365  0.6762 -1.2373 -1.5279
39299SOL    HW219905  10.620   1.778   6.304 -0.5402  0.8143  2.1123
39300SOL     OW19906   2.721   0.683   1.342  0.0750 -0.3563 -0.3813
39300SOL    HW119907   2.730   0.711   1.251  1.3357  0.3162 -0.0867
39300SOL    HW219908   2.673   0.755   1.384  1.6119  0.5391 -0.0408
39301SOL     OW19909   1.378   2.065   5.747 -0.4020  0.5866  0.1558
39301SOL    HW119910   1.405   1.973   5.740  0.3152  0.9149 -2.4027
39301SOL    HW219911   1.290   2.067   5.711 -0.2051  0.9892 -0.3009
39302SOL     OW19912   9.020   3.005   8.161  0.4901  0.0007  0.4270
39302SOL    HW119913   9.088   2.938   8.154  1.0912  0.5361  1.0380
39302SOL    HW219914   9.041   3.053   8.241  1.0809  2.0054 -0.8502
39303SOL     OW19915   5.441   2.277   2.342 -0.6984 -0.3889 -0.1599
39303SOL    HW119916   5.442   2.193   2.388  0.8830 -1.0107 -1.2646
39303SOL    HW219917   5.519   2.322   2.373  0.0074 -0.5248 -1.6792
39304SOL     OW19918   7.741   2.327   7.134  0.2978  0.7495  0.3959
39304SOL    HW119919   7.660   2.334   7.185  0.2228 -0.0614  0.4069
39304SOL    HW219920   7.723   2.375   7.054 -0.8220 -0.8074 -0.3377
39305SOL     OW19921   4.381   9.166   2.228  0.0739 -0.1346 -0.6859
39305SOL    HW119922   4.423   9.205   2.304  1.6126  2.2059 -2.5911
39305SOL    HW219923   4.439   9.095   2.201 -0.1744 -0.5841 -0.0593
39306SOL     OW19924  10.227   1.768   5.099 -0.1030  1.0173 -0.6037
39306SOL    HW119925  10.162   1.836   5.116  0.3576  1.0488  1.2915
39306SOL    HW219926  10.309   1.816   5.087  0.0935  0.8509  0.0266
39307SOL     OW19927   4.693   8.680   5.781 -0.6919  0.5939 -0.0116
39307SOL    HW119928   4.782   8.663   5.750  0.1719 -0.2531  2.6748
39307SOL    HW219929   4.637   8.654   5.707  1.2321  0.7205 -1.6044
39308SOL     OW19930   7.117   9.002   7.342 -0.7178  0.3839 -0.8815
39308SOL    HW119931   7.138   8.936   7.408  0.7913  0.8890 -0.8325
39308SOL    HW219932   7.079   8.952   7.269  2.5329 -0.9077 -1.8281
39309SOL     OW19933  10.715   4.333   4.228 -0.2025 -0.2326 -0.3800
39309SOL    HW119934  10.622   4.313   4.243 -0.1580  0.4509  0.9846
39309SOL    HW219935  10.759   4.248   4.232 -0.4309 -0.3100  1.8771
39310SOL     OW19936   4.307   5.615  10.054  0.5529  0.5151 -0.3759
39310SOL    HW119937   4.277   5.598  10.144 -0.6584 -0.3134 -0.9191
39310SOL    HW219938   4.402   5.600  10.057  0.8149  2.0461  1.1132
39311SOL     OW19939   4.242   3.796   2.789 -0.7062 -0.5404  0.1109
39311SOL    HW119940   4.236   3.823   2.697  0.3489 -0.6897 -0.0070
39311SOL    HW219941   4.152   3.803   2.821 -0.9419  0.4103 -0.6815
39312SOL     OW19942   4.512   5.445   8.829  0.0275 -0.6220 -0.2551
39312SOL    HW119943   4.539   5.427   8.919  0.5553 -0.2010 -0.3200
39312SOL    HW219944   4.466   5.529   8.834 -0.9771 -1.1640 -0.2032
39313SOL     OW19945   2.416   9.145   9.641 -0.0109  0.1374  0.3743
39313SOL    HW119946   2.370   9.101   9.569  1.6744 -2.9037  0.9963
39313SOL    HW219947   2.356   9.138   9.715 -0.6632  0.9802 -0.0407
39314SOL     OW19948   5.483  10.506   3.531 -0.1843 -0.1476  0.4787
39314SOL    HW119949   5.476  10.509   3.435 -0.8313  0.7105  0.5355
39314SOL    HW219950   5.432  10.429   3.556  2.4337 -2.1826 -0.0225
39315SOL     OW19951   3.861   1.789   9.605 -0.3101 -0.5911  0.5608
39315SOL    HW119952   3.767   1.807   9.615 -0.5899 -0.8443 -1.2637
39315SOL    HW219953   3.876   1.712   9.659 -1.6803 -1.9223 -0.8570
39316SOL     OW19954  10.661   5.238   4.612 -0.4051 -0.7201 -0.5837
39316SOL    HW119955  10.688   5.329   4.606  1.7319 -1.0062  2.5916
39316SOL    HW219956  10.624   5.218   4.526  0.1677  2.7394 -1.7690
39317SOL     OW19957   9.706   0.423   2.303  0.5145  0.3856 -0.1912
39317SOL    HW119958   9.725   0.483   2.375  0.9045 -1.1141  1.0228
39317SOL    HW219959   9.612   0.431   2.288  0.2853  0.1467  1.0558
39318SOL     OW19960  10.462   2.835  10.989  1.0888 -0.2421 -0.3060
39318SOL    HW119961  10.477   2.755  11.040  0.1244 -0.3202 -0.1202
39318SOL    HW219962  10.429   2.898  11.053  1.2190  0.0969 -0.5738
39319SOL     OW19963   2.415  10.641   4.146 -0.3072  0.5023 -0.2675
39319SOL    HW119964   2.443  10.724   4.106  0.0501  0.1579 -0.7441
39319SOL    HW219965   2.382  10.666   4.232 -1.5638  1.3268 -0.9643
39320SOL     OW19966   6.590   8.627   8.195  0.0288 -0.0482 -0.3175
39320SOL    HW119967   6.520   8.623   8.130 -0.1513 -1.4637 -0.0623
39320SOL    HW219968   6.671   8.627   8.144 -0.1364  0.9572 -0.5926
39321SOL     OW19969   9.377   4.147   4.206 -0.2759 -0.3870 -0.0030
39321SOL    HW119970   9.466   4.129   4.236 -0.5810  0.8187  1.7769
39321SOL    HW219971   9.345   4.062   4.174  1.7184 -0.6964 -1.3519
39322SOL     OW19972  10.812   4.840   6.829  0.1830  0.2718  0.2679
39322SOL    HW119973  10.720   4.859   6.845 -0.0388  0.0452 -0.6506
39322SOL    HW219974  10.812   4.783   6.752  1.0320 -0.6622  0.9349
39323SOL     OW19975   2.664   4.835   2.124  0.2778 -0.2949 -0.3282
39323SOL    HW119976   2.726   4.786   2.178  0.9027  0.6788 -0.1261
39323SOL    HW219977   2.656   4.920   2.168  0.4361  0.3532 -1.5076
39324SOL     OW19978   4.798   2.333   0.799  0.2375  0.8353 -0.0636
39324SOL    HW119979   4.835   2.416   0.829  0.4275  0.5457  0.5166
39324SOL    HW219980   4.730   2.358   0.737 -0.2992  1.4574  0.7561
39325SOL     OW19981   8.411   7.708  11.088 -0.1039  0.5858  0.3831
39325SOL    HW119982   8.362   7.680  11.011  1.2872  1.9972 -1.1065
39325SOL    HW219983   8.350   7.697  11.161 -0.7519 -2.9806 -0.4819
39326SOL     OW19984   2.443   9.089   6.220  0.2120 -0.2449 -0.0653
39326SOL    HW119985   2.534   9.058   6.220 -0.0174 -0.9632  0.8103
39326SOL    HW219986   2.446   9.170   6.170  1.3095 -0.3417 -0.1975
39327SOL     OW19987   9.346   4.338  10.015  0.0758 -0.6678 -0.1616
39327SOL    HW119988   9.395   4.322  10.096  1.5674  0.2285 -0.8613
39327SOL    HW219989   9.392   4.410   9.972 -0.9383 -0.8395 -1.6184
39328SOL     OW19990   3.624   5.598   1.880  0.4712  0.2563  1.0205
39328SOL    HW119991   3.628   5.693   1.872  0.6189  0.1766  0.0513
39328SOL    HW219992   3.545   5.573   1.832  1.2621 -0.2349 -0.0692
39329SOL     OW19993   0.498   6.107   8.085 -0.1944  0.2628  0.4290
39329SOL    HW119994   0.567   6.063   8.135  1.5611 -0.3638 -2.3745
39329SOL    HW219995   0.472   6.043   8.019 -1.7247  1.4200 -0.1382
39330SOL     OW19996   7.860   7.369   3.952 -0.1154  0.1172 -0.1656
39330SOL    HW119997   7.903   7.413   4.025 -0.4397 -1.2590  0.8987
39330SOL    HW219998   7.791   7.317   3.993  0.8767 -2.1419 -1.2351
39331SOL     OW19999   7.095   1.851   8.575 -0.4439  0.7654 -0.4744
39331SOL    HW120000   7.091   1.760   8.605 -1.2201  1.1895  0.8227
39331SOL    HW220001   7.036   1.855   8.500 -1.2394  0.4172  0.1227
39332SOL     OW20002   9.396   1.308   2.030 -0.6165  0.3533 -0.2365
39332SOL    HW120003   9.360   1.220   2.041 -1.2350  0.5360 -0.7953
39332SOL    HW220004   9.380   1.330   1.939  0.6250  0.5740 -0.4298
39333SOL     OW20005   9.046   8.085   0.705  0.0872  0.4019  0.4283
39333SOL    HW120006   9.077   8.113   0.619 -0.2978 -2.5233 -0.7981
39333SOL    HW220007   9.117   8.030   0.739  0.5150  2.0526  2.3355
39334SOL     OW20008   0.980  10.882   8.072 -0.5219 -0.1502 -0.1885
39334SOL    HW120009   1.070  10.890   8.040 -1.2358  0.9604 -2.0746
39334SOL    HW220010   0.957  10.791   8.054  0.7538 -0.9781  1.9636
39335SOL     OW20011   9.718   1.621   8.158  0.1008 -0.0042 -0.4215
39335SOL    HW120012   9.763   1.543   8.125  1.8686  0.6239  0.4230
39335SOL    HW220013   9.741   1.690   8.095 -0.0009  0.2484 -0.1817
39336SOL     OW20014   8.467   3.064   2.722 -0.5862  0.4587 -0.4183
39336SOL    HW120015   8.448   2.978   2.684 -0.5615  1.8785 -4.0135
39336SOL    HW220016   8.556   3.084   2.694 -0.6337  1.7308  0.2480
39337SOL     OW20017  10.565   8.740   2.254 -1.0205  0.3251  0.0032
39337SOL    HW120018  10.478   8.748   2.292 -0.8511  0.2335  0.4208
39337SOL    HW220019  10.623   8.782   2.318 -0.6807 -0.2062  0.0508
39338SOL     OW20020   2.119   0.739   6.255 -0.9201 -0.1676 -0.2374
39338SOL    HW120021   2.082   0.827   6.263  0.4009  0.5594 -1.4856
39338SOL    HW220022   2.187   0.736   6.322 -3.0005 -1.4609  1.9794
39339SOL     OW20023   3.250   2.030  10.010 -0.7068  0.9134  0.2425
39339SOL    HW120024   3.267   1.967  10.080 -0.5274 -0.5586 -1.0902
39339SOL    HW220025   3.168   2.073  10.035  0.9270  2.7644  2.9745
39340SOL     OW20026   0.910   9.326   4.036 -0.2642  0.6247  0.2204
39340SOL    HW120027   0.888   9.401   3.980 -1.6161 -0.4775 -0.7951
39340SOL    HW220028   1.006   9.325   4.038 -0.2116  1.8034 -0.5387
39341SOL     OW20029   0.605   7.631   0.543 -0.2574 -0.4099  0.2148
39341SOL    HW120030   0.566   7.575   0.611  0.4496  1.0005  1.8752
39341SOL    HW220031   0.536   7.694   0.521 -1.0112 -1.7933 -1.5614
39342SOL     OW20032   2.894   5.421   9.287 -0.1087 -0.1270 -0.2932
39342SOL    HW120033   2.897   5.423   9.192 -0.5824  0.4199 -0.3007
39342SOL    HW220034   2.954   5.489   9.315 -0.1332 -0.1421 -0.2028
39343SOL     OW20035   4.648   7.590   5.876  0.6723 -0.1838 -0.5325
39343SOL    HW120036   4.654   7.498   5.852 -0.2199 -0.2890 -0.3612
39343SOL    HW220037   4.569   7.622   5.833  0.4375  0.2500  0.1992
39344SOL     OW20038   8.986   0.312   2.593 -0.2836  0.7209 -0.3913
39344SOL    HW120039   8.932   0.371   2.645 -0.6595  0.0192  0.0290
39344SOL    HW220040   9.076   0.342   2.608 -0.2891 -0.0238  1.4169
39345SOL     OW20041   3.808   5.871  10.417 -0.4458  0.0492  0.1040
39345SOL    HW120042   3.824   5.961  10.443 -0.2129 -0.5096  2.0658
39345SOL    HW220043   3.831   5.819  10.494 -1.2120 -1.6369 -0.7391
39346SOL     OW20044   4.311   5.154   6.292 -0.3910 -0.3632  0.7453
39346SOL    HW120045   4.350   5.142   6.205 -0.4308  0.1764  0.6458
39346SOL    HW220046   4.270   5.241   6.288 -2.9763 -1.4983  0.3267
39347SOL     OW20047   9.121   6.176   2.524  0.2049 -0.1380 -0.0658
39347SOL    HW120048   9.152   6.266   2.510  1.7823 -0.4415  1.1914
39347SOL    HW220049   9.027   6.186   2.541  0.1927  1.1703 -0.7110
39348SOL     OW20050  11.077  10.017   2.266 -0.0874 -0.7478 -0.8538
39348SOL    HW120051  11.105  10.035   2.176  2.6314 -1.1480 -0.1805
39348SOL    HW220052  10.995   9.967   2.256 -0.5178  0.2667 -3.0315
39349SOL     OW20053   1.799   3.461  10.009 -0.1377  0.1895  0.6705
39349SOL    HW120054   1.828   3.523  10.075 -1.0369  0.7977  0.5148
39349SOL    HW220055   1.745   3.398  10.057  1.2542 -0.8494  0.9341
39350SOL     OW20056   6.317   1.175   4.005 -0.6305  0.0132 -0.6916
39350SOL    HW120057   6.380   1.103   4.010  0.9160  1.3723  0.9814
39350SOL    HW220058   6.324   1.207   3.916 -0.7148 -1.3367 -1.2079
39351SOL     OW20059   3.730   1.742   5.632  0.2969 -0.1598  0.5853
39351SOL    HW120060   3.761   1.701   5.551 -0.9419  0.8129 -0.4129
39351SOL    HW220061   3.808   1.784   5.669  0.5528  0.8874 -1.0350
39352SOL     OW20062  10.863   6.328   2.958  0.1012  0.1633  0.2152
39352SOL    HW120063  10.788   6.303   3.012  0.8332  0.5694  1.4554
39352SOL    HW220064  10.930   6.354   3.020  1.0849  0.3743 -0.8925
39353SOL     OW20065   3.300   6.025   1.946  0.6844 -0.2632  0.4920
39353SOL    HW120066   3.222   5.973   1.927 -0.0027  0.8957  0.0430
39353SOL    HW220067   3.329   6.055   1.860  0.8006  0.4585  0.7782
39354SOL     OW20068   2.138   5.134   9.722  0.6396  0.3777 -0.1126
39354SOL    HW120069   2.136   5.226   9.749  0.8729  0.4585 -0.3744
39354SOL    HW220070   2.087   5.130   9.642  0.6819  0.2902 -0.1363
39355SOL     OW20071   8.164  10.642   3.318 -0.4358  0.4106  0.5697
39355SOL    HW120072   8.171  10.606   3.406  3.2959  1.1278  0.7022
39355SOL    HW220073   8.130  10.730   3.330 -0.0595  0.4633  1.2781
39356SOL     OW20074   6.604   3.450   4.073  0.3803 -0.5179 -0.1437
39356SOL    HW120075   6.608   3.419   3.983 -0.9779 -1.3830  0.0684
39356SOL    HW220076   6.694   3.443   4.105  0.8642 -0.2657 -1.3897
39357SOL     OW20077   4.124   7.279   4.215 -0.5975 -0.4472  0.1840
39357SOL    HW120078   4.118   7.335   4.293  0.0955 -1.0236  0.6607
39357SOL    HW220079   4.113   7.190   4.248 -0.5121 -0.6802 -0.4078
39358SOL     OW20080   5.479   9.405   1.324 -0.0399 -0.1640  0.3090
39358SOL    HW120081   5.404   9.346   1.327  0.6973 -1.2194 -0.9010
39358SOL    HW220082   5.467   9.456   1.245  0.4499 -0.2794  0.1528
39359SOL     OW20083   2.278   7.559   7.825 -0.4213 -0.0575 -0.6767
39359SOL    HW120084   2.305   7.493   7.888 -0.5941  1.7421  1.3874
39359SOL    HW220085   2.360   7.603   7.801 -0.4177 -0.4418 -1.3999
39360SOL     OW20086   3.947   2.004   2.957 -0.3870 -0.6699 -0.4125
39360SOL    HW120087   3.892   2.032   2.884 -1.7553 -2.8082 -0.2740
39360SOL    HW220088   3.886   1.962   3.018  1.2393 -2.1034  0.2900
39361SOL     OW20089   4.935   2.709   4.310  0.0599  0.0101  0.2827
39361SOL    HW120090   4.921   2.784   4.368  1.1216 -1.0504  2.0117
39361SOL    HW220091   5.023   2.721   4.275  0.0702 -0.1996  0.2349
39362SOL     OW20092   7.299   0.700   9.826 -0.1346 -0.0051  0.5672
39362SOL    HW120093   7.324   0.708   9.734  0.7291  1.3844  0.9064
39362SOL    HW220094   7.220   0.753   9.834 -0.8376 -0.9900  0.4252
39363SOL     OW20095   8.655   0.643   6.054 -0.1878 -0.2832 -0.3707
39363SOL    HW120096   8.707   0.571   6.091 -2.0488 -1.7103 -0.3568
39363SOL    HW220097   8.660   0.712   6.120  0.4382 -0.9607  0.3130
39364SOL     OW20098   3.089   9.864  10.835 -0.0916 -0.1803  0.1212
39364SOL    HW120099   3.106   9.935  10.897 -1.3590 -1.3928  1.9592
39364SOL    HW220100   3.089   9.907  10.749  1.7685  1.5551  0.9034
39365SOL     OW20101  10.202   3.136   6.938 -0.4274  0.2611  0.4703
39365SOL    HW120102  10.254   3.150   6.859 -3.0027  0.6606 -1.2758
39365SOL    HW220103  10.175   3.044   6.933  1.7334 -0.5996  2.5134
39366SOL     OW20104  10.387  10.693   3.572  0.5219  0.3922  0.2572
39366SOL    HW120105  10.299  10.694   3.535  0.8030 -2.8448 -0.7582
39366SOL    HW220106  10.377  10.734   3.658 -1.8565  0.5980 -0.0456
39367SOL     OW20107   0.947   9.675   0.812 -0.1666 -0.3412  0.0792
39367SOL    HW120108   0.962   9.580   0.812  0.5180 -0.2355 -0.5708
39367SOL    HW220109   0.965   9.701   0.903  2.0428 -0.4806 -0.2665
39368SOL     OW20110   0.621   1.957   9.070 -0.6305 -0.2695  0.7993
39368SOL    HW120111   0.578   2.000   9.144  0.4219  1.1996  0.5906
39368SOL    HW220112   0.709   1.994   9.068  0.1515 -2.0578  0.2556
39369SOL     OW20113  10.609   7.210   2.325 -0.2334  0.3503 -0.0135
39369SOL    HW120114  10.523   7.177   2.300 -0.5733  0.1948  1.3069
39369SOL    HW220115  10.618   7.291   2.275  0.7476 -1.7163 -3.5425
39370SOL     OW20116   7.471   9.364   1.348 -0.2776 -0.0241  0.0403
39370SOL    HW120117   7.463   9.283   1.297  0.2536  0.1878 -0.3984
39370SOL    HW220118   7.440   9.433   1.289 -0.5145  0.1172  0.3305
39371SOL     OW20119  10.644   1.845   4.527  0.0795  0.3624  0.3448
39371SOL    HW120120  10.560   1.860   4.571 -1.4122  1.3665 -2.5777
39371SOL    HW220121  10.660   1.751   4.536 -0.8107  0.3197  1.7887
39372SOL     OW20122   9.253  10.230   9.419  0.0056  0.3590 -0.0273
39372SOL    HW120123   9.245  10.313   9.372 -0.9599  0.6653  0.6427
39372SOL    HW220124   9.303  10.251   9.497 -2.0600  0.8159  1.2312
39373SOL     OW20125   7.512   4.126   1.282  0.1191 -0.4092 -0.3334
39373SOL    HW120126   7.475   4.086   1.204 -2.3837 -0.1586  0.6475
39373SOL    HW220127   7.539   4.213   1.253  2.4132 -1.4585 -1.6504
39374SOL     OW20128   6.841   9.342   3.636  0.3165 -0.4462 -0.0959
39374SOL    HW120129   6.783   9.274   3.602  0.7530 -0.0880 -1.6525
39374SOL    HW220130   6.820   9.348   3.729 -2.9281  0.4185 -0.7663
39375SOL     OW20131  10.503   7.552   9.729  0.0468 -0.0661  0.2206
39375SOL    HW120132  10.458   7.476   9.692  0.6959 -0.6783  0.6641
39375SOL    HW220133  10.465   7.627   9.684  1.6308 -0.8214 -2.6301
39376SOL     OW20134  10.058   4.766  10.583 -0.3738 -0.1233 -0.1441
39376SOL    HW120135  10.149   4.795  10.579  0.2931 -2.0545  0.0952
39376SOL    HW220136  10.052   4.697  10.517 -2.2461  1.3449 -1.6563
39377SOL     OW20137   7.117   0.027   4.967  0.2482  0.4104  0.1718
39377SOL    HW120138   7.166   0.105   4.942 -1.2029  1.9376  1.7458
39377SOL    HW220139   7.141   0.012   5.059 -0.3486 -0.3161  0.2237
39378SOL     OW20140   5.977   1.535   2.715  0.4943  0.1864  0.6323
39378SOL    HW120141   5.977   1.536   2.811  0.3090  1.2683  0.6308
39378SOL    HW220142   5.992   1.443   2.692 -0.6912 -0.2960  1.6937
39379SOL     OW20143   5.245   9.698   5.700 -0.0344 -0.3443  0.0525
39379SOL    HW120144   5.293   9.640   5.759  0.0769 -1.2604 -0.9054
39379SOL    HW220145   5.164   9.719   5.747  1.2653  1.2854  1.7315
39380SOL     OW20146   5.126   3.267   9.088 -0.1445  0.0481 -0.8540
39380SOL    HW120147   5.213   3.271   9.049  0.2248 -1.2413 -0.1896
39380SOL    HW220148   5.138   3.302   9.177 -0.3675  0.1333 -0.8559
39381SOL     OW20149   5.540   6.672   0.148  0.1621 -0.1926 -0.1478
39381SOL    HW120150   5.545   6.577   0.146 -0.0866 -0.1973 -0.6529
39381SOL    HW220151   5.621   6.700   0.190  1.4589 -0.5134 -2.3064
39382SOL     OW20152   9.675   6.033   7.318  0.4534 -0.1549  0.3496
39382SOL    HW120153   9.683   6.128   7.312 -3.0216  0.2313 -0.7920
39382SOL    HW220154   9.703   6.001   7.232  0.9139 -0.0905  0.4749
39383SOL     OW20155   8.436   3.002   1.020 -0.2663 -0.1375  0.0607
39383SOL    HW120156   8.375   2.966   1.085  0.3416 -2.0438 -0.3736
39383SOL    HW220157   8.522   2.999   1.063  0.4407 -3.0425 -1.3133
39384SOL     OW20158  10.047   2.857   8.274  0.2818  0.3309 -0.3010
39384SOL    HW120159  10.130   2.810   8.281 -0.8133 -1.6070  0.4178
39384SOL    HW220160  10.037   2.903   8.358 -0.7817 -1.9978  0.9353
39385SOL     OW20161   7.414   1.074   7.003 -0.2656  0.4720  0.0620
39385SOL    HW120162   7.496   1.118   7.026  0.4779 -0.0054 -1.5736
39385SOL    HW220163   7.437   0.981   6.997 -0.7668  0.3974 -0.9670
39386SOL     OW20164   9.168   4.394   0.880 -0.4934 -0.0935  0.4810
39386SOL    HW120165   9.263   4.402   0.889 -0.7489  2.1912  1.8614
39386SOL    HW220166   9.147   4.445   0.802 -0.5802 -1.0443 -0.1410
39387SOL     OW20167   5.664   5.243   9.052  0.4289 -0.4733 -0.0914
39387SOL    HW120168   5.612   5.183   9.106 -0.8653  0.9673  0.3356
39387SOL    HW220169   5.647   5.215   8.962  0.3779 -1.1773  0.1349
39388SOL     OW20170   3.361   8.772   8.362 -0.0668 -0.2047  0.1461
39388SOL    HW120171   3.357   8.685   8.323  1.8196 -0.1429 -0.3081
39388SOL    HW220172   3.424   8.764   8.433  1.6298  1.1569 -1.0990
39389SOL     OW20173   7.423   8.640   1.648 -0.9312  0.6013 -0.1330
39389SOL    HW120174   7.346   8.691   1.625 -1.0520  0.5541  0.1610
39389SOL    HW220175   7.464   8.689   1.719 -1.5285 -0.1376  0.7626
39390SOL     OW20176   1.038   1.357   4.687 -0.2685  0.1623  0.2326
39390SOL    HW120177   0.987   1.365   4.607 -1.2727 -0.3227  0.8054
39390SOL    HW220178   1.119   1.405   4.669 -0.7063  0.5135 -0.8742
39391SOL     OW20179   8.032   1.273   3.449  0.1487 -0.0708 -0.6925
39391SOL    HW120180   7.962   1.209   3.437  0.3778 -0.2284 -1.1900
39391SOL    HW220181   8.081   1.241   3.526  0.3996 -0.6222 -1.0763
39392SOL     OW20182   4.872   0.249  10.605 -0.0633 -0.5211  0.1721
39392SOL    HW120183   4.848   0.159  10.628 -0.5721 -0.4683 -0.1419
39392SOL    HW220184   4.968   0.248  10.604 -0.0072 -0.6158  1.9163
39393SOL     OW20185  10.640  10.625   4.768  0.0127 -0.0188 -0.3215
39393SOL    HW120186  10.724  10.580   4.777  1.2039  1.8033 -1.5943
39393SOL    HW220187  10.663  10.716   4.747 -2.2826  0.5680 -0.6339
39394SOL     OW20188   3.190   4.239   4.802 -0.6318  0.1184 -0.0713
39394SOL    HW120189   3.139   4.275   4.874 -0.4675  0.5091 -0.1460
39394SOL    HW220190   3.124   4.207   4.740 -0.7919  0.7209 -0.2182
39395SOL     OW20191   7.906   5.082   8.478 -0.0033 -0.3121 -0.0537
39395SOL    HW120192   7.942   4.998   8.451 -0.2279  0.0207 -1.4670
39395SOL    HW220193   7.935   5.093   8.568  1.9184 -0.8861 -0.5564
39396SOL     OW20194   6.470   7.723   3.038 -0.4119  0.7786  0.1401
39396SOL    HW120195   6.459   7.703   3.131 -1.0424 -1.1653 -0.3066
39396SOL    HW220196   6.540   7.666   3.009 -2.1109 -0.7906 -1.1560
39397SOL     OW20197  10.628   6.206   1.425 -0.1345  0.1918 -0.2180
39397SOL    HW120198  10.698   6.247   1.476 -0.3047 -0.3895  0.4913
39397SOL    HW220199  10.673   6.144   1.368 -0.0995 -0.6435  0.6808
39398SOL     OW20200   4.470   9.529   9.615 -0.3178 -0.3919 -0.9052
39398SOL    HW120201   4.384   9.501   9.646 -0.3916  0.1629 -0.5871
39398SOL    HW220202   4.533   9.482   9.670 -0.4565  1.5132  0.9856
39399SOL     OW20203   8.958  10.152  10.056  0.0502  0.0193 -0.6106
39399SOL    HW120204   9.026  10.157  10.123  0.3317  0.5305 -0.9279
39399SOL    HW220205   8.918  10.239  10.055  0.7164  0.3369 -1.7805
39400SOL     OW20206   8.926   0.450   5.138  0.3292  0.3959  0.0196
39400SOL    HW120207   8.835   0.468   5.159 -0.0855 -0.8158 -0.6448
39400SOL    HW220208   8.966   0.427   5.222 -0.0517  0.6292  0.2652
39401SOL     OW20209   1.944   4.637   1.520  0.1576  0.3158  0.1832
39401SOL    HW120210   1.894   4.584   1.582 -3.5293  1.7044 -1.3271
39401SOL    HW220211   1.903   4.723   1.523  1.6577  1.2086 -2.1617
39402SOL     OW20212   8.310   6.609  10.378 -0.5776  1.0626 -0.1954
39402SOL    HW120213   8.375   6.626  10.446 -0.7411  0.1959  0.1830
39402SOL    HW220214   8.262   6.533  10.408 -1.8207  1.7111 -0.4534
39403SOL     OW20215   3.940   3.737   4.491  0.7219  0.1159  0.0461
39403SOL    HW120216   3.939   3.787   4.572  0.4786 -1.8862  1.3425
39403SOL    HW220217   3.968   3.800   4.424 -0.6728  2.2397  1.3602
39404SOL     OW20218   4.310   0.454   8.392 -0.6663  0.3485  0.6140
39404SOL    HW120219   4.314   0.375   8.447  0.6159  0.0432  0.1167
39404SOL    HW220220   4.219   0.484   8.400 -1.1764 -1.1530  0.8487
39405SOL     OW20221   8.933   5.511   9.080  0.0954 -0.3093  0.1721
39405SOL    HW120222   8.901   5.483   9.165 -1.2743 -0.0443 -0.2331
39405SOL    HW220223   8.927   5.433   9.025  1.5891 -0.6590  0.4422
39406SOL     OW20224   5.254   8.756   6.053  0.3153 -0.0581  0.2388
39406SOL    HW120225   5.291   8.827   6.000 -0.9921 -0.2383 -0.9936
39406SOL    HW220226   5.290   8.676   6.014 -2.2388 -0.3222 -1.8649
39407SOL     OW20227   0.417   0.448   3.862  0.5486  0.0938  0.0814
39407SOL    HW120228   0.358   0.473   3.790  0.1286 -2.6726 -0.6730
39407SOL    HW220229   0.359   0.412   3.929  1.1856 -0.8375  0.1615
39408SOL     OW20230   0.234   5.444   6.989  0.5786 -0.4128  0.4980
39408SOL    HW120231   0.151   5.481   7.019  0.1265 -1.7566  0.9443
39408SOL    HW220232   0.275   5.410   7.068  0.6229 -1.5473  0.0079
39409SOL     OW20233  10.810   3.848   9.573 -0.5882  0.6494 -0.8550
39409SOL    HW120234  10.756   3.768   9.571  1.7095 -0.9822 -3.2315
39409SOL    HW220235  10.848   3.848   9.661 -0.5959 -0.9061 -0.8267
39410SOL     OW20236   5.719   7.869   6.361 -0.0171  0.2137  0.2666
39410SOL    HW120237   5.637   7.917   6.375  0.6019  0.4719  4.3574
39410SOL    HW220238   5.773   7.928   6.308 -1.6432  1.0049 -0.5704
39411SOL     OW20239   5.191   1.468   1.062 -0.2344  0.5697  0.6072
39411SOL    HW120240   5.280   1.435   1.077  0.0977  0.6836 -0.9503
39411SOL    HW220241   5.182   1.470   0.966 -1.6293  1.3389  0.7309
39412SOL     OW20242   5.099   0.517   5.574 -0.2476 -0.1219  0.4715
39412SOL    HW120243   5.156   0.525   5.650  1.7600 -0.1588 -0.9633
39412SOL    HW220244   5.130   0.439   5.528 -2.1062 -0.7093  0.1317
39413SOL     OW20245   7.233   7.343   9.964  0.1378 -0.6060  0.1147
39413SOL    HW120246   7.180   7.281   9.915  1.6459 -1.0101 -1.1044
39413SOL    HW220247   7.243   7.303  10.050 -2.0009 -0.2060  0.6042
39414SOL     OW20248  10.489   3.465   9.754  0.3943 -0.1806  0.4465
39414SOL    HW120249  10.415   3.495   9.702  1.6874  1.4494 -0.5438
39414SOL    HW220250  10.468   3.373   9.775 -0.9202 -0.3884 -1.5539
39415SOL     OW20251   3.250   0.982   7.144 -0.6981  0.2097 -0.6142
39415SOL    HW120252   3.326   0.967   7.089 -0.5207 -2.0104  0.1214
39415SOL    HW220253   3.183   0.922   7.110 -2.1906  2.1406 -1.2824
39416SOL     OW20254   5.775  10.872   2.642 -0.1761 -0.0091 -0.2978
39416SOL    HW120255   5.708  10.875   2.573  0.0306 -0.3938 -0.5211
39416SOL    HW220256   5.808  10.782   2.639  0.1465  0.0988  0.0059
39417SOL     OW20257   1.633   9.165   9.718 -0.0785  0.1980 -0.0352
39417SOL    HW120258   1.712   9.121   9.748 -1.2252 -1.9435 -0.0106
39417SOL    HW220259   1.600   9.210   9.796  0.8160  0.6970  0.0733
39418SOL     OW20260   8.713   6.170   6.774  0.2887 -0.0722 -0.4772
39418SOL    HW120261   8.696   6.138   6.862  2.4084  1.1206  0.4672
39418SOL    HW220262   8.697   6.265   6.779  0.4496  0.0157 -1.3640
39419SOL     OW20263   0.583   7.243   5.432  0.2475 -0.0592  0.1158
39419SOL    HW120264   0.601   7.325   5.478  1.8524 -1.4737  2.1886
39419SOL    HW220265   0.670   7.211   5.406 -0.3344 -1.1227 -0.6016
39420SOL     OW20266   9.581   8.918   8.777  0.2583 -0.2628  0.2464
39420SOL    HW120267   9.588   8.977   8.852  0.3455 -2.9759  2.5523
39420SOL    HW220268   9.632   8.841   8.803 -0.1508 -1.5417 -2.4212
39421SOL     OW20269   7.224  10.955   5.244  0.5661 -0.2443  0.5598
39421SOL    HW120270   7.254  10.925   5.158 -2.2639  2.1588 -1.4453
39421SOL    HW220271   7.287  11.022   5.269  0.2561  0.5473 -0.7078
39422SOL     OW20272  10.625   0.267   4.820 -0.1233  0.0925 -0.1143
39422SOL    HW120273  10.609   0.289   4.728 -0.5952 -0.5897 -0.2042
39422SOL    HW220274  10.684   0.335   4.851 -0.3984  0.6454 -0.7724
39423SOL     OW20275   4.271   2.581   1.803 -0.0190 -0.0252  0.1144
39423SOL    HW120276   4.275   2.528   1.882  2.3524 -0.9219 -0.5097
39423SOL    HW220277   4.215   2.531   1.744  0.3255 -0.6964  0.3374
39424SOL     OW20278   0.896   9.097   4.542 -0.2097 -0.5575  0.5523
39424SOL    HW120279   0.895   9.031   4.472 -0.7402 -0.5656  0.5644
39424SOL    HW220280   0.890   9.180   4.496  1.1914 -0.4630  0.4920
39425SOL     OW20281   1.184   8.472   9.287 -0.4462  0.4124  0.0470
39425SOL    HW120282   1.242   8.542   9.316  1.3015 -0.8729 -0.1527
39425SOL    HW220283   1.200   8.465   9.193  0.8013 -1.4125  0.3474
39426SOL     OW20284   8.970   5.145   2.524 -0.1843  0.1971  0.2219
39426SOL    HW120285   8.876   5.161   2.537  0.0822  1.7009  0.4067
39426SOL    HW220286   8.991   5.191   2.443  0.3231 -0.4828 -0.0419
39427SOL     OW20287   1.188   7.557   8.101 -0.0391  0.8664  0.1756
39427SOL    HW120288   1.137   7.516   8.170  1.4588 -1.2223  0.1137
39427SOL    HW220289   1.254   7.492   8.076  1.8004  2.9104 -0.7005
39428SOL     OW20290   8.233   5.990   2.907 -0.1364  0.2246  0.2020
39428SOL    HW120291   8.185   6.065   2.942 -2.0090 -0.4059 -0.9306
39428SOL    HW220292   8.322   6.002   2.941 -1.0227  1.4882  2.2632
39429SOL     OW20293   2.947   6.456   6.276 -0.1464 -0.1576 -0.1727
39429SOL    HW120294   2.857   6.430   6.252  0.6809 -3.8178  0.0441
39429SOL    HW220295   2.985   6.487   6.194 -1.0588 -0.4762 -0.7386
39430SOL     OW20296   1.738   9.465   3.924 -0.3626 -0.1562  0.2249
39430SOL    HW120297   1.703   9.472   3.836 -0.2816  1.1760  0.2747
39430SOL    HW220298   1.754   9.372   3.937 -2.8225 -0.6798 -0.1939
39431SOL     OW20299   0.719   2.160   1.724  0.0504  0.5267 -0.0637
39431SOL    HW120300   0.750   2.167   1.634 -1.6278  0.9830 -0.6529
39431SOL    HW220301   0.785   2.205   1.776  1.5548 -0.5799 -0.9141
39432SOL     OW20302   3.687   4.307   4.735 -0.6461  0.2162 -0.6366
39432SOL    HW120303   3.657   4.373   4.673 -2.7595 -0.4963 -0.4387
39432SOL    HW220304   3.641   4.227   4.709 -1.5206 -0.1226  1.7626
39433SOL     OW20305   9.261   1.904   4.953  0.6517  0.6042 -0.8546
39433SOL    HW120306   9.258   1.902   4.858 -2.2778  3.3589 -1.0045
39433SOL    HW220307   9.258   1.997   4.975 -2.8247  0.1082  1.7965
39434SOL     OW20308   0.916   7.572   9.179  0.3512 -0.6081  0.0394
39434SOL    HW120309   0.877   7.657   9.158 -2.0175 -1.8819 -1.0805
39434SOL    HW220310   0.978   7.555   9.108 -2.5842 -1.7830 -2.4700
39435SOL     OW20311   4.409   1.300   2.695 -0.3240 -0.2802  0.5321
39435SOL    HW120312   4.393   1.271   2.605 -1.8939  0.3391  0.5787
39435SOL    HW220313   4.434   1.392   2.686  0.9506 -0.5930  0.6528
39436SOL     OW20314  10.196   1.534   1.194  0.4899 -0.3366  0.1970
39436SOL    HW120315  10.233   1.524   1.281  0.1740 -0.0933  0.3579
39436SOL    HW220316  10.251   1.601   1.152 -0.8565  1.3743  1.0583
39437SOL     OW20317   5.137   2.012   6.532  0.0179  0.0775 -0.3868
39437SOL    HW120318   5.115   1.977   6.619  1.0805  0.6543  0.1365
39437SOL    HW220319   5.078   1.966   6.473  0.2019 -1.3631  0.4776
39438SOL     OW20320   3.180   8.965   2.758  0.0619  0.2021 -0.6127
39438SOL    HW120321   3.209   8.880   2.724  0.2364  1.0182 -2.7037
39438SOL    HW220322   3.247   8.989   2.822 -0.7309 -1.8095  1.0892
39439SOL     OW20323   0.055   9.857   0.679 -0.1413 -0.6971 -0.3925
39439SOL    HW120324   0.087   9.831   0.592 -0.5346 -3.6537  0.2639
39439SOL    HW220325  -0.039   9.838   0.676 -0.7257  1.8166 -0.1654
39440SOL     OW20326   6.476   3.494   5.956 -0.6786 -0.8434 -0.0221
39440SOL    HW120327   6.473   3.536   6.041 -1.7742 -0.5992 -0.1718
39440SOL    HW220328   6.562   3.451   5.953 -0.6456 -0.8737  1.1990
39441SOL     OW20329   0.922   9.140   5.703 -0.0145  0.0470 -0.0509
39441SOL    HW120330   0.864   9.215   5.716  1.7648  1.6184 -0.6073
39441SOL    HW220331   0.911   9.086   5.781 -0.9188  1.2125  0.6512
39442SOL     OW20332   6.185   5.971   0.246 -0.1804 -0.0690  0.1797
39442SOL    HW120333   6.271   5.957   0.286 -0.4440 -0.9080  0.4695
39442SOL    HW220334   6.124   5.973   0.319 -0.2707  2.0308  0.1130
39443SOL     OW20335   7.445  10.093   0.803 -0.8736  0.0066 -0.2929
39443SOL    HW120336   7.372  10.040   0.835 -0.0749 -1.6704 -1.1699
39443SOL    HW220337   7.517  10.031   0.791  1.0853  1.7585  1.5639
39444SOL     OW20338   3.944   6.673   5.863  0.3146 -0.1905 -0.3315
39444SOL    HW120339   3.967   6.714   5.947  2.6659 -2.4270  0.2691
39444SOL    HW220340   4.011   6.605   5.852 -2.1350 -2.4569 -2.2034
39445SOL     OW20341   4.408   0.462   6.810  0.6779  0.6635 -0.2458
39445SOL    HW120342   4.377   0.395   6.748 -0.4983  1.6719 -0.7950
39445SOL    HW220343   4.395   0.423   6.896 -1.6238  0.7769 -0.4736
39446SOL     OW20344   0.430   1.852   9.495 -0.2634  0.8332 -0.5499
39446SOL    HW120345   0.443   1.787   9.564 -0.3688  0.9379 -0.4305
39446SOL    HW220346   0.427   1.801   9.414 -1.5389  0.5567 -0.3509
39447SOL     OW20347   5.729   2.659  10.021 -0.3074  0.2828  0.2136
39447SOL    HW120348   5.754   2.578  10.066 -1.3651 -0.0915  0.1508
39447SOL    HW220349   5.785   2.726  10.059  0.4933 -0.4577  0.3577
39448SOL     OW20350  10.345   4.930  10.854 -0.1513  0.0276  0.3276
39448SOL    HW120351  10.252   4.908  10.864  0.3070 -1.6262  1.2953
39448SOL    HW220352  10.353   4.959  10.763 -2.0328  2.5839  0.8357
39449SOL     OW20353   1.100   2.384   7.865 -0.2542 -0.6112  0.3088
39449SOL    HW120354   1.034   2.442   7.904 -0.3684 -2.7887  3.8039
39449SOL    HW220355   1.057   2.299   7.860  1.1886 -1.3126 -0.8090
39450SOL     OW20356   0.038   8.575   8.561  0.9838 -0.4778 -1.0749
39450SOL    HW120357   0.090   8.654   8.572  1.6260 -0.7889 -1.7348
39450SOL    HW220358   0.004   8.581   8.472  1.0769 -0.9629 -1.1473
39451SOL     OW20359   5.813   3.943  10.228 -0.2022  0.7663  0.3508
39451SOL    HW120360   5.884   3.899  10.276 -0.0551 -0.2706 -0.7503
39451SOL    HW220361   5.733   3.903  10.262 -0.0401 -1.0168 -1.1683
39452SOL     OW20362   2.527   1.122   9.603  0.1681 -0.0184  0.2362
39452SOL    HW120363   2.459   1.180   9.637 -1.3422 -0.9675 -1.0495
39452SOL    HW220364   2.508   1.115   9.510 -0.5090 -3.5335  0.5185
39453SOL     OW20365   7.232   9.048   8.392 -0.9112  0.1933  0.4502
39453SOL    HW120366   7.206   9.032   8.483  1.7542 -0.5799  1.1655
39453SOL    HW220367   7.259   8.962   8.359 -0.8040  0.6529 -0.7116
39454SOL     OW20368   7.931   6.225   7.107  0.0842 -0.0782 -0.0559
39454SOL    HW120369   7.847   6.222   7.060  0.1613  2.5409 -0.5446
39454SOL    HW220370   7.918   6.293   7.174  1.4582 -0.4507  0.6207
39455SOL     OW20371   5.389   5.567   8.039  0.1694  0.3038  0.0531
39455SOL    HW120372   5.379   5.563   7.944 -0.4339  0.1944  0.1165
39455SOL    HW220373   5.310   5.526   8.074  0.9710 -0.8117  0.5997
39456SOL     OW20374   5.429   7.301  10.172 -0.3939 -0.6457  0.1283
39456SOL    HW120375   5.466   7.300  10.261 -1.9387 -0.9515  0.7891
39456SOL    HW220376   5.357   7.239  10.175 -1.0763  0.0557 -1.0904
39457SOL     OW20377   7.554   1.390   8.310 -1.2292 -0.0730  0.5906
39457SOL    HW120378   7.621   1.458   8.311 -1.2600 -0.0290 -0.0949
39457SOL    HW220379   7.516   1.395   8.223  0.2833 -2.4285 -0.3038
39458SOL     OW20380   8.066   3.321   7.462 -0.8166 -0.2597 -0.1760
39458SOL    HW120381   7.984   3.282   7.434 -1.3123  1.1040 -0.6708
39458SOL    HW220382   8.102   3.361   7.384  1.7111 -3.0842 -0.6538
39459SOL     OW20383   3.666   6.773   9.030 -0.2549  0.0532  0.1168
39459SOL    HW120384   3.761   6.775   9.017 -0.1425  2.1790  0.8267
39459SOL    HW220385   3.655   6.748   9.122 -0.4549 -1.1811 -0.2254
39460SOL     OW20386   6.974   8.436   4.337  0.2831 -0.1831 -0.3555
39460SOL    HW120387   6.884   8.413   4.314  0.0434  0.3004  0.0843
39460SOL    HW220388   6.999   8.373   4.404  1.6101 -2.7754 -3.0684
39461SOL     OW20389  10.817  10.912  10.448 -0.4647  0.7356 -0.2561
39461SOL    HW120390  10.893  10.915  10.391 -0.1961  0.7273  0.1011
39461SOL    HW220391  10.851  10.933  10.535 -0.8301  0.5095 -0.0557
39462SOL     OW20392   8.090   0.199   3.967 -0.0458 -0.0961 -0.6244
39462SOL    HW120393   8.040   0.238   4.039 -1.7005 -1.5017 -0.9565
39462SOL    HW220394   8.062   0.249   3.890  0.4777  0.3247 -0.5463
39463SOL     OW20395   0.127   3.115   5.563  0.5368  0.6890  0.1548
39463SOL    HW120396   0.182   3.038   5.578  0.3915  0.3477 -0.9679
39463SOL    HW220397   0.109   3.149   5.650  1.2175 -0.1210  0.6251
39464SOL     OW20398   1.748   3.799   3.561  0.0651  0.0325  0.4355
39464SOL    HW120399   1.705   3.749   3.491  0.4563 -1.9111  1.4918
39464SOL    HW220400   1.676   3.841   3.608 -0.3704 -0.3354  0.1112
39465SOL     OW20401   9.852   6.517   0.030  0.5665  0.1060  0.9388
39465SOL    HW120402   9.808   6.546   0.109 -0.3483 -4.0454  2.1984
39465SOL    HW220403   9.795   6.449  -0.007  2.3289 -0.1263 -1.6724
39466SOL     OW20404   1.130   0.524   8.275 -0.4992  0.4560 -0.9849
39466SOL    HW120405   1.213   0.563   8.247  1.4668 -2.1467  0.6591
39466SOL    HW220406   1.094   0.485   8.196  0.2726  0.9554 -1.5966
39467SOL     OW20407   7.456   3.838   6.694 -0.8025  0.1983  0.2104
39467SOL    HW120408   7.542   3.844   6.653 -1.3664  1.3244 -0.8698
39467SOL    HW220409   7.413   3.764   6.651 -0.9277  0.5852 -0.3319
39468SOL     OW20410   3.241   9.561   4.363 -0.1541  0.4660 -0.3020
39468SOL    HW120411   3.278   9.492   4.307  0.1098  0.2509  0.1385
39468SOL    HW220412   3.282   9.548   4.448 -0.3339  0.9810 -0.1324
39469SOL     OW20413   2.407   9.629   9.914  0.0124  0.8099 -0.4667
39469SOL    HW120414   2.347   9.588   9.976 -0.2007  2.2923  0.3529
39469SOL    HW220415   2.452   9.696   9.966  0.3761  1.5803 -1.7546
39470SOL     OW20416  10.853   5.625   3.456 -0.1373 -0.1347  0.2032
39470SOL    HW120417  10.830   5.613   3.364 -1.1889  2.0081  0.1119
39470SOL    HW220418  10.949   5.625   3.457 -0.0947  0.7340 -1.0760
39471SOL     OW20419   4.676   6.945   7.186 -0.4250 -0.2329 -0.4044
39471SOL    HW120420   4.758   6.905   7.214 -0.1328  0.1219 -0.7348
39471SOL    HW220421   4.663   6.916   7.096  0.0763  0.8311 -0.8407
39472SOL     OW20422   4.588   3.440   8.236 -0.6386 -0.5670 -0.4736
39472SOL    HW120423   4.547   3.392   8.308 -0.0762 -1.0033 -0.4336
39472SOL    HW220424   4.681   3.445   8.261 -0.1790 -1.9182 -1.7890
39473SOL     OW20425   0.299   4.701   2.867  0.2147 -0.4240  0.2977
39473SOL    HW120426   0.253   4.724   2.948 -1.2308 -1.6706 -0.1138
39473SOL    HW220427   0.390   4.726   2.883 -0.3365  0.8918  1.6653
39474SOL     OW20428   8.910  10.870   9.104  0.0694  0.4032 -0.3145
39474SOL    HW120429   8.943  10.957   9.125  1.3354 -0.0944 -0.1024
39474SOL    HW220430   8.985  10.825   9.065 -0.9341 -0.1808 -1.6310
39475SOL     OW20431   4.905   5.499   3.789  0.5206  0.0055 -0.4108
39475SOL    HW120432   4.940   5.453   3.713  1.6099  1.4558 -0.8269
39475SOL    HW220433   4.875   5.583   3.755  0.0297  0.2489  0.5839
39476SOL     OW20434   6.143   7.085   3.174 -0.6365 -0.5902 -0.9973
39476SOL    HW120435   6.100   7.152   3.122 -1.9146 -2.5021 -2.5400
39476SOL    HW220436   6.212   7.132   3.222 -2.8653  2.1593 -0.2609
39477SOL     OW20437   4.681   7.544   8.924  0.0327  0.5302  0.0616
39477SOL    HW120438   4.680   7.540   8.828  1.1832  2.6369 -0.1047
39477SOL    HW220439   4.698   7.454   8.951 -0.9593 -0.2440 -1.6662
39478SOL     OW20440   4.260   5.127   3.532  0.3301  0.4487 -0.0271
39478SOL    HW120441   4.303   5.211   3.548 -0.0510  0.5374  0.5823
39478SOL    HW220442   4.229   5.132   3.441 -1.2971  1.7132  0.5436
39479SOL     OW20443   9.927   8.673   4.925  0.5606  0.0319 -0.2016
39479SOL    HW120444   9.843   8.719   4.930  0.1481 -0.8488  1.9065
39479SOL    HW220445   9.917   8.614   4.850 -0.2566  0.7844 -0.7050
39480SOL     OW20446   9.604  10.364   9.497 -1.0945 -0.4849  0.6307
39480SOL    HW120447   9.598  10.459   9.494 -0.4037 -0.4502 -1.1943
39480SOL    HW220448   9.693  10.346   9.528 -0.8168 -0.4962 -0.1468
39481SOL     OW20449  10.850   1.045  11.061 -0.1405  0.4937 -0.0850
39481SOL    HW120450  10.792   0.978  11.099  0.0088  0.6025  0.3432
39481SOL    HW220451  10.917   0.994  11.014  0.0054  0.3352  0.2877
39482SOL     OW20452   9.763  10.830   0.677 -0.1690  0.1782  0.4674
39482SOL    HW120453   9.846  10.849   0.721 -0.1444  2.3465 -0.3882
39482SOL    HW220454   9.770  10.739   0.649  2.7317  0.8326 -1.2412
39483SOL     OW20455  10.661   6.398   5.323  0.4918  0.1951  0.4678
39483SOL    HW120456  10.657   6.351   5.406  0.2611 -0.5616  0.0369
39483SOL    HW220457  10.744   6.445   5.326  1.5501 -1.5938  0.1950
39484SOL     OW20458   9.743   7.666   8.866  0.5466 -0.5266 -0.3961
39484SOL    HW120459   9.794   7.595   8.826  1.1127 -0.2575 -0.1682
39484SOL    HW220460   9.652   7.637   8.860  0.7618 -1.2091 -0.4302
39485SOL     OW20461   1.501   4.515   6.879 -0.3856 -0.1091  0.4550
39485SOL    HW120462   1.472   4.489   6.966  1.6904 -1.8025  0.7143
39485SOL    HW220463   1.542   4.601   6.892  3.8115 -2.1288  2.1481
39486SOL     OW20464   9.130  10.505  10.053 -0.8434 -0.0639 -0.0943
39486SOL    HW120465   9.103  10.439  10.117 -1.0651  0.8827  0.8202
39486SOL    HW220466   9.160  10.579  10.106  0.1753  0.2703 -1.0955
39487SOL     OW20467   5.450   2.977   9.956  0.2887 -0.1176  0.3296
39487SOL    HW120468   5.511   3.051   9.952  2.4029 -1.7624  0.8077
39487SOL    HW220469   5.421   2.965   9.866 -0.4142  1.5029  0.2987
39488SOL     OW20470   5.223   2.897   8.736 -0.8859 -0.3075  0.3564
39488SOL    HW120471   5.212   2.984   8.697  0.1058 -0.8845 -1.3446
39488SOL    HW220472   5.237   2.913   8.829 -2.3855  1.2205  0.3617
39489SOL     OW20473   8.335   8.240   3.156 -0.1647 -0.2795 -0.6667
39489SOL    HW120474   8.396   8.176   3.121 -0.8898 -1.0437 -0.5706
39489SOL    HW220475   8.362   8.323   3.118  0.7586 -0.6511 -0.8388
39490SOL     OW20476   7.693   1.504   2.036  0.1077  0.2417 -0.0518
39490SOL    HW120477   7.602   1.524   2.060  0.4667 -0.8809  2.5138
39490SOL    HW220478   7.731   1.465   2.114  2.2576 -1.1920 -1.6885
39491SOL     OW20479   1.158  10.749   9.148  0.1122 -0.4625 -0.3948
39491SOL    HW120480   1.109  10.794   9.080 -3.3597  2.4946  3.5687
39491SOL    HW220481   1.219  10.815   9.182  0.4089 -1.1999  0.5696
39492SOL     OW20482   8.149   5.031   9.243 -0.4191 -0.3737  0.1482
39492SOL    HW120483   8.228   5.001   9.198  1.4520 -2.1333  4.1147
39492SOL    HW220484   8.085   4.961   9.230  0.7510 -1.7732  1.6951
39493SOL     OW20485   4.860  10.985   0.898 -0.1415 -0.1710 -0.3877
39493SOL    HW120486   4.798  11.058   0.899 -0.4292 -0.4160 -0.0025
39493SOL    HW220487   4.896  10.985   0.809 -0.4414  0.1856 -0.5104
39494SOL     OW20488  10.914   0.908   0.259 -0.2060  0.2400 -0.9773
39494SOL    HW120489  10.866   0.871   0.333  0.1536  0.5812 -0.5668
39494SOL    HW220490  10.875   0.867   0.182  0.8001 -1.7285 -0.5105
39495SOL     OW20491   9.697   8.449   6.095 -0.1804 -0.4983  0.0205
39495SOL    HW120492   9.716   8.356   6.109  1.7446 -0.5334 -2.1511
39495SOL    HW220493   9.732   8.493   6.173  2.0461 -1.3409 -0.4244
39496SOL     OW20494   6.882   7.348   1.406  0.2270  0.4837 -0.1517
39496SOL    HW120495   6.959   7.295   1.426  0.8244  1.1486 -0.6516
39496SOL    HW220496   6.882   7.355   1.311  1.0933  2.7004 -0.0405
39497SOL     OW20497  10.869   4.287   7.697 -0.0437 -0.2454 -0.8903
39497SOL    HW120498  10.927   4.329   7.760 -1.8363  2.8841 -1.1005
39497SOL    HW220499  10.917   4.288   7.614  0.7909 -0.7115 -0.4214
39498SOL     OW20500   6.927   0.922   0.959  0.4715 -0.3893 -0.2357
39498SOL    HW120501   6.917   0.833   0.924  0.5963 -0.4700 -0.0685
39498SOL    HW220502   6.953   0.974   0.884  0.7366 -0.5617 -0.2646
39499SOL     OW20503   6.336   7.102   2.214  0.4627  0.2181 -0.4585
39499SOL    HW120504   6.360   7.038   2.282 -1.1394  0.8604  0.7636
39499SOL    HW220505   6.414   7.107   2.158  2.5726  0.9313  2.2918
39500SOL     OW20506   9.837   0.805   6.612  0.0088  0.1607  1.0318
39500SOL    HW120507   9.895   0.768   6.545 -0.9484 -0.5188  0.5548
39500SOL    HW220508   9.877   0.889   6.635  0.6746  0.1314  0.0273
39501SOL     OW20509   9.390   9.692   7.411 -0.3923  0.4081 -0.1667
39501SOL    HW120510   9.310   9.686   7.463 -0.7947 -1.9245 -0.9207
39501SOL    HW220511   9.461   9.674   7.472 -0.6720  0.0434  0.0559
39502SOL     OW20512   2.033   8.423   0.621  0.1456  0.2150 -0.0868
39502SOL    HW120513   2.014   8.337   0.657  0.9565 -0.1650 -0.5299
39502SOL    HW220514   1.948   8.464   0.608 -0.2927 -0.9155 -0.8318
39503SOL     OW20515   7.752  10.123  10.848 -1.0822  0.4209 -0.7777
39503SOL    HW120516   7.806  10.170  10.783 -2.0699  1.1114 -1.1236
39503SOL    HW220517   7.771  10.031  10.832  0.2403  0.6460 -0.6692
39504SOL     OW20518   2.056   4.226   6.189 -0.1734  0.4527  0.6720
39504SOL    HW120519   2.031   4.157   6.251 -1.5828 -0.3489 -0.7194
39504SOL    HW220520   1.983   4.287   6.190 -0.7485 -0.1495 -0.9571
39505SOL     OW20521   9.385   4.632   3.390 -0.1554 -0.1330 -0.0633
39505SOL    HW120522   9.300   4.597   3.363 -0.6340 -1.4666  2.8303
39505SOL    HW220523   9.368   4.724   3.408 -0.3778  0.1851 -1.6861
39506SOL     OW20524   0.846   2.537   2.487  0.0422 -0.3496  0.2837
39506SOL    HW120525   0.843   2.595   2.411 -0.2265 -0.8751 -0.1100
39506SOL    HW220526   0.896   2.461   2.458 -0.3155 -0.6876  0.5349
39507SOL     OW20527   2.533   3.827   6.330 -0.0500 -0.4561  0.2661
39507SOL    HW120528   2.510   3.745   6.287  0.1177  0.3256 -1.4401
39507SOL    HW220529   2.556   3.886   6.257 -0.9668  1.3445  1.3627
39508SOL     OW20530   2.514   9.454   1.036 -0.6303  0.0890 -0.7406
39508SOL    HW120531   2.512   9.535   1.088 -0.2270  0.7228 -1.6704
39508SOL    HW220532   2.434   9.408   1.059 -0.4931  0.3763  0.3860
39509SOL     OW20533   9.580   1.349   7.306  0.2193  0.2790  0.2318
39509SOL    HW120534   9.559   1.328   7.215  1.3321  1.3569 -0.2910
39509SOL    HW220535   9.669   1.316   7.318  0.3564  0.8146  0.7102
39510SOL     OW20536   9.793   6.793   3.441  0.4816 -0.4963 -0.3989
39510SOL    HW120537   9.853   6.835   3.502  0.7930  3.1026 -2.8593
39510SOL    HW220538   9.742   6.865   3.403 -2.9323 -2.9973 -1.0971
39511SOL     OW20539   5.181   3.414   3.474 -0.4143  0.1403  0.0136
39511SOL    HW120540   5.125   3.423   3.397  1.1551  0.8394 -1.1035
39511SOL    HW220541   5.268   3.441   3.444  0.2871  0.2776  1.9931
39512SOL     OW20542   3.435   4.416   5.230  0.0384  0.9676  0.4700
39512SOL    HW120543   3.506   4.367   5.190  0.2263  0.0815  1.8337
39512SOL    HW220544   3.370   4.349   5.253 -0.4821  1.5700  0.7760
39513SOL     OW20545   0.897   2.006   4.481  0.0284 -0.0697 -0.1813
39513SOL    HW120546   0.817   2.058   4.471  0.9044  0.9669 -2.2069
39513SOL    HW220547   0.877   1.923   4.437 -0.4288 -0.4249  0.6657
39514SOL     OW20548   2.267   6.365   3.613 -0.2228 -0.1511  0.4649
39514SOL    HW120549   2.263   6.294   3.678  1.7952 -0.3655  0.4448
39514SOL    HW220550   2.360   6.367   3.587 -0.7344  0.7905 -1.4578
39515SOL     OW20551   3.050   0.035   6.714  0.0308 -0.1609 -0.0974
39515SOL    HW120552   2.966   0.004   6.748 -0.0476  2.3976  2.3883
39515SOL    HW220553   3.116  -0.008   6.767  0.1326  0.1938  0.0688
39516SOL     OW20554   7.257   4.018  10.909 -0.0751 -0.3983 -0.5309
39516SOL    HW120555   7.233   4.080  10.840  1.1136 -1.2141 -1.7514
39516SOL    HW220556   7.344   3.987  10.884  0.2088 -1.0588  1.1271
39517SOL     OW20557   6.196   2.113   1.454 -0.1274 -0.2137  0.1026
39517SOL    HW120558   6.202   2.124   1.359 -0.0143 -1.9375 -0.1294
39517SOL    HW220559   6.276   2.153   1.488 -1.7381  3.6651 -0.0938
39518SOL     OW20560   5.090   6.611  11.038  0.2258  0.3064  0.1190
39518SOL    HW120561   5.081   6.524  11.077  0.5728  0.8736  1.5341
39518SOL    HW220562   5.000   6.645  11.035  0.2852  0.6891  1.5563
39519SOL     OW20563   2.305  10.202   5.885  0.3823  0.2983  0.6003
39519SOL    HW120564   2.280  10.188   5.793 -0.7156  1.9046  0.6243
39519SOL    HW220565   2.388  10.156   5.894  0.1283 -0.5460 -0.9926
39520SOL     OW20566  10.935   1.820   9.683 -0.7744  0.0083  0.4031
39520SOL    HW120567  10.936   1.826   9.588 -0.7971  1.8288  0.4827
39520SOL    HW220568  10.893   1.736   9.702 -0.6854 -0.4145 -1.1768
39521SOL     OW20569   3.256   9.212  10.663  0.2351  0.1887 -0.6146
39521SOL    HW120570   3.324   9.279  10.663  0.7094 -0.2856 -0.4299
39521SOL    HW220571   3.178   9.256  10.694  0.4479  0.7532 -0.8741
39522SOL     OW20572   2.197   6.035   9.545  0.1295  0.4857  0.2121
39522SOL    HW120573   2.230   5.975   9.478  3.0255  1.8577  0.2707
39522SOL    HW220574   2.238   6.004   9.626  0.7872  1.8448  0.4218
39523SOL     OW20575   5.894   3.464   6.213 -0.0853 -0.2748 -0.1968
39523SOL    HW120576   5.904   3.396   6.280  1.2876 -0.3039 -0.3953
39523SOL    HW220577   5.841   3.531   6.255  0.0966 -0.6464  0.6523
39524SOL     OW20578   9.111   4.337   1.279  0.0550  0.7476  0.3067
39524SOL    HW120579   9.138   4.415   1.232  0.8582  0.9446  1.0699
39524SOL    HW220580   9.168   4.334   1.356 -0.8389  0.1242  0.9693
39525SOL     OW20581   1.851   0.524   6.054 -0.1800  0.3591 -0.4248
39525SOL    HW120582   1.888   0.450   6.102 -0.6245  0.5734  0.2572
39525SOL    HW220583   1.821   0.585   6.122 -2.2662 -0.0376 -0.9267
39526SOL     OW20584   8.654   8.197   8.376  0.1686 -0.0023  0.0954
39526SOL    HW120585   8.709   8.121   8.394  0.7635  0.9524  2.9855
39526SOL    HW220586   8.712   8.272   8.388 -0.9958  0.9634 -0.0769
39527SOL     OW20587   8.318   3.469   5.189 -0.4121 -0.6245 -0.0812
39527SOL    HW120588   8.397   3.428   5.153  0.3541  0.3988  0.3925
39527SOL    HW220589   8.262   3.484   5.112  0.8868  0.8550 -0.7877
39528SOL     OW20590   0.007   8.253   1.561 -1.1085 -0.0757  0.1975
39528SOL    HW120591   0.071   8.182   1.571 -1.7826 -0.6709  0.3742
39528SOL    HW220592   0.030   8.295   1.478  1.6274  1.8982  1.7485
39529SOL     OW20593  10.008   3.368   0.755 -1.0002  0.0017  0.5418
39529SOL    HW120594   9.986   3.434   0.689 -3.8310 -0.0837  1.2633
39529SOL    HW220595  10.009   3.286   0.707 -2.6317 -0.0071  0.4665
39530SOL     OW20596   0.711   0.508  11.068 -0.0975 -0.4861  0.0269
39530SOL    HW120597   0.708   0.413  11.073 -2.8781 -0.5025 -0.1109
39530SOL    HW220598   0.692   0.528  10.976 -2.7576  0.1313  0.6115
39531SOL     OW20599   8.929  10.098   0.432  0.0062  0.0601  0.4271
39531SOL    HW120600   8.943  10.155   0.356  0.2511  0.9420  1.1089
39531SOL    HW220601   9.011  10.051   0.442 -0.1737 -0.3758 -0.1037
39532SOL     OW20602  10.159   6.712   6.418  0.1356  0.6853  0.1559
39532SOL    HW120603  10.200   6.756   6.492  0.9716 -0.5178  0.4499
39532SOL    HW220604  10.218   6.639   6.398 -1.0083 -0.0909 -0.5191
39533SOL     OW20605   0.922   9.976   8.443 -0.0895 -0.5930 -0.6383
39533SOL    HW120606   0.990   9.918   8.478  2.0645  1.8327 -0.4881
39533SOL    HW220607   0.862   9.990   8.516  2.3222  1.5087  1.0956
39534SOL     OW20608   8.905   7.288   3.587 -0.2208  0.2951 -0.0610
39534SOL    HW120609   8.946   7.346   3.651 -0.8618 -2.4682  3.1375
39534SOL    HW220610   8.904   7.202   3.629 -1.0103 -1.7130 -3.7355
39535SOL     OW20611   3.712   0.310   4.619  0.1508 -0.5457 -0.3760
39535SOL    HW120612   3.626   0.287   4.585 -0.7221  0.3665  1.1415
39535SOL    HW220613   3.719   0.262   4.702  0.1803  1.0483  0.5703
39536SOL     OW20614   0.864   5.396   6.399 -0.1193 -0.4996 -0.8852
39536SOL    HW120615   0.882   5.401   6.493 -0.1625  1.8198 -0.9487
39536SOL    HW220616   0.806   5.320   6.390 -1.4329  0.1548  1.2111
39537SOL     OW20617   0.285   2.014   0.431  0.0520 -0.0212  0.1350
39537SOL    HW120618   0.260   2.040   0.343 -0.6628 -0.5486  0.1735
39537SOL    HW220619   0.308   2.096   0.475  2.3893  0.0744 -1.1167
39538SOL     OW20620   3.349   3.459   1.873  0.0458  0.6900  0.2232
39538SOL    HW120621   3.362   3.551   1.894 -1.5206  0.7477  1.0536
39538SOL    HW220622   3.303   3.423   1.948  2.9058 -1.4344  1.1471
39539SOL     OW20623   1.267   2.592   3.079 -0.0584 -0.6139 -0.0087
39539SOL    HW120624   1.319   2.594   3.159  0.2432 -0.1107 -0.2149
39539SOL    HW220625   1.201   2.524   3.095 -2.1146  1.6622  1.9918
39540SOL     OW20626   9.078   5.859   9.189 -0.6170 -0.5879 -0.3414
39540SOL    HW120627   9.078   5.942   9.237 -1.0237 -0.2930 -0.8518
39540SOL    HW220628   8.994   5.857   9.144 -1.2815 -1.9907  0.8697
39541SOL     OW20629   2.950   1.184   2.088 -0.9054 -0.1762  0.1177
39541SOL    HW120630   2.881   1.248   2.069 -0.8211  0.0996  0.7164
39541SOL    HW220631   2.938   1.164   2.181 -0.3543 -0.3405  0.1529
39542SOL     OW20632   1.149  10.195   7.483  0.0602 -0.2404 -0.1986
39542SOL    HW120633   1.186  10.202   7.395 -0.5624  0.6665 -0.4042
39542SOL    HW220634   1.089  10.121   7.478  0.9803 -0.9947 -0.1784
39543SOL     OW20635   9.473   1.882   4.314  0.4103  0.0418 -0.0268
39543SOL    HW120636   9.408   1.817   4.289  0.1238  0.4810 -0.4446
39543SOL    HW220637   9.477   1.877   4.409  0.1419 -0.3491 -0.0357
39544SOL     OW20638   0.628   7.975   0.839  0.4764  0.6117  0.5341
39544SOL    HW120639   0.678   8.047   0.801  0.0090  0.5856 -0.1396
39544SOL    HW220640   0.693   7.908   0.859  0.7365  0.6528 -0.1537
39545SOL     OW20641   4.806   4.296   6.797 -0.2490 -0.5551  0.4612
39545SOL    HW120642   4.711   4.298   6.805 -0.2972 -3.2191  1.6346
39545SOL    HW220643   4.830   4.206   6.821  2.5560  0.0152  0.1096
39546SOL     OW20644   4.147   8.869   9.045  0.5767  0.3784  0.1200
39546SOL    HW120645   4.205   8.935   9.008  1.3233 -1.0271 -1.3384
39546SOL    HW220646   4.192   8.839   9.124  1.6671 -0.3498 -0.7345
39547SOL     OW20647   8.909   7.087   9.848 -0.1374 -0.7090 -0.0149
39547SOL    HW120648   8.907   6.993   9.829  2.5067 -0.5360 -1.5334
39547SOL    HW220649   8.979   7.097   9.913 -0.0493  0.2778 -0.2569
39548SOL     OW20650   0.200   8.346   4.610 -0.3212  0.6399  0.3176
39548SOL    HW120651   0.192   8.439   4.630 -2.7904 -0.0599  3.2969
39548SOL    HW220652   0.115   8.309   4.633  0.0969 -2.1832 -2.1267
39549SOL     OW20653   1.324   6.608   1.613 -0.6081 -0.3219 -0.1856
39549SOL    HW120654   1.340   6.525   1.658 -0.7448  0.7115  1.8782
39549SOL    HW220655   1.238   6.636   1.644  0.4168  1.7099  1.1041
39550SOL     OW20656   3.944   1.074   9.474 -0.1474 -0.4291 -0.0271
39550SOL    HW120657   3.856   1.038   9.466  0.4988 -2.2673  0.4623
39550SOL    HW220658   3.997   1.018   9.417  1.2638 -1.6695  2.3314
39551SOL     OW20659   4.864   5.112  11.012 -0.3615  0.6124 -0.1128
39551SOL    HW120660   4.875   5.106  10.917  1.7115 -0.9173  0.1607
39551SOL    HW220661   4.911   5.192  11.037 -0.3207  0.6456 -0.2980
39552SOL     OW20662   2.269   6.366   4.042  0.7399  0.1369 -0.1991
39552SOL    HW120663   2.262   6.297   3.976 -0.7091 -0.2235  0.2937
39552SOL    HW220664   2.363   6.387   4.045  1.2268 -1.8297 -0.3442
39553SOL     OW20665   6.996   3.471   9.327 -0.2189 -0.1456  0.0288
39553SOL    HW120666   7.070   3.532   9.334 -0.6943  0.3391  1.0723
39553SOL    HW220667   7.027   3.402   9.269 -0.1957  1.8855 -2.5935
39554SOL     OW20668   9.811   7.810   9.088  0.0285 -0.0671  0.2246
39554SOL    HW120669   9.779   7.729   9.129  2.6476 -1.0003  0.6188
39554SOL    HW220670   9.828   7.787   8.997  0.4123  0.1237  0.2420
39555SOL     OW20671   9.170   6.411   2.427 -0.2282  0.0547 -0.3183
39555SOL    HW120672   9.173   6.405   2.331  1.5913 -1.5719 -0.2268
39555SOL    HW220673   9.162   6.505   2.444 -2.3833  0.2701 -2.0333
39556SOL     OW20674   7.719   0.988   1.100  0.2805  0.1079 -0.2163
39556SOL    HW120675   7.764   1.058   1.053 -1.6698  2.6457  1.3959
39556SOL    HW220676   7.787   0.923   1.117  2.6129  2.3260 -0.4547
39557SOL     OW20677   6.030   8.041   9.152  0.2806  0.5084  0.3122
39557SOL    HW120678   5.986   8.014   9.233 -0.0447  1.2736  0.4019
39557SOL    HW220679   6.014   8.135   9.147  0.2434  0.4548 -0.6807
39558SOL     OW20680   1.489   1.525  10.258 -0.1618 -0.1944 -0.4512
39558SOL    HW120681   1.494   1.477  10.341 -0.8935  0.1394 -0.1982
39558SOL    HW220682   1.580   1.541  10.233  0.1060  1.3478  1.2783
39559SOL     OW20683   7.992   8.679   1.880 -0.0442  0.4089  0.3244
39559SOL    HW120684   7.941   8.733   1.941 -1.9694 -1.3766  0.3958
39559SOL    HW220685   7.939   8.601   1.867  0.9655  0.0797 -2.5646
39560SOL     OW20686  10.650   1.399   8.549  0.0862 -0.9182  0.4389
39560SOL    HW120687  10.636   1.493   8.544 -0.7958 -0.9825  1.3653
39560SOL    HW220688  10.712   1.380   8.478 -1.2885  0.0341 -1.0768
39561SOL     OW20689   3.810   3.927   6.133 -0.2016  0.5735 -0.0391
39561SOL    HW120690   3.877   3.863   6.110 -0.0711  0.6049  0.2505
39561SOL    HW220691   3.857   3.997   6.177 -0.3989  0.6767  0.0113
39562SOL     OW20692   7.089   6.432   9.495 -0.2144  0.5055  0.2739
39562SOL    HW120693   7.099   6.397   9.407  0.0456 -0.1865  0.5670
39562SOL    HW220694   7.175   6.419   9.536  0.1657  2.3180  0.1192
39563SOL     OW20695   5.063   3.412   8.773  0.5080 -0.3641  0.3375
39563SOL    HW120696   4.989   3.447   8.823 -0.1092 -3.3519  1.7596
39563SOL    HW220697   5.044   3.435   8.683 -0.8996  1.0144  0.9320
39564SOL     OW20698  11.007   6.199   0.897 -0.3237 -0.5764  0.0442
39564SOL    HW120699  10.951   6.269   0.865 -0.6170  0.0376  1.7979
39564SOL    HW220700  11.053   6.237   0.972  0.2234 -1.9556  0.4400
39565SOL     OW20701   0.286   6.712   2.013 -0.0988  0.1431  0.2996
39565SOL    HW120702   0.222   6.669   1.957  0.3664  0.0396 -0.1526
39565SOL    HW220703   0.325   6.641   2.064 -0.2931  0.1986  0.5290
39566SOL     OW20704   5.622   5.594  10.657  0.0178  0.4815  0.8354
39566SOL    HW120705   5.582   5.562  10.576  0.3526 -1.6785  1.4427
39566SOL    HW220706   5.557   5.654  10.694  0.3763  2.5042 -1.5847
39567SOL     OW20707   4.689   7.400   6.453 -0.1945  0.4021  0.1908
39567SOL    HW120708   4.694   7.402   6.357  1.7014  0.2094  0.2548
39567SOL    HW220709   4.722   7.485   6.481  0.2912  0.0512  0.6967
39568SOL     OW20710   1.859   8.166  10.143 -0.9490  0.0703 -0.3827
39568SOL    HW120711   1.928   8.127  10.197 -1.1997  0.7079  0.4253
39568SOL    HW220712   1.904   8.227  10.085 -0.5891 -1.1443 -1.4366
39569SOL     OW20713   3.563   8.987   0.445  0.6785  0.0898 -0.2516
39569SOL    HW120714   3.657   8.997   0.430  1.2661 -1.1998  2.0974
39569SOL    HW220715   3.553   8.993   0.540 -1.5742 -0.1945 -0.4147
39570SOL     OW20716   8.928   1.365   2.099 -0.0645 -0.1863  0.3583
39570SOL    HW120717   8.967   1.299   2.157  0.7909 -0.7933 -0.8665
39570SOL    HW220718   9.001   1.424   2.078 -0.7431  0.9860  1.1723
39571SOL     OW20719   4.178   5.751   8.081  0.8768  0.0448 -0.0736
39571SOL    HW120720   4.085   5.772   8.073  0.9943  0.1977 -1.1509
39571SOL    HW220721   4.212   5.816   8.143  0.0056 -0.8929  1.4653
39572SOL     OW20722   5.691   0.602  10.976 -0.2648  0.3739  0.1377
39572SOL    HW120723   5.763   0.612  11.039 -0.6922 -0.3576  0.7598
39572SOL    HW220724   5.615   0.638  11.021 -0.2863  1.2020 -0.5459
39573SOL     OW20725   7.573   5.491   1.046  0.2836  0.0942  0.1772
39573SOL    HW120726   7.505   5.538   1.094 -1.5550 -1.9081 -0.3143
39573SOL    HW220727   7.580   5.537   0.963 -1.0008 -0.0766 -0.0430
39574SOL     OW20728   2.244   9.005  10.266  0.1633  0.3599 -0.0464
39574SOL    HW120729   2.307   9.073  10.242  1.9053 -1.4118 -0.8257
39574SOL    HW220730   2.290   8.954  10.334 -1.2208  0.1352  0.7531
39575SOL     OW20731   3.960   9.631   0.561  0.4343  0.0053 -0.0058
39575SOL    HW120732   3.911   9.671   0.633  0.0576  0.7543 -0.6654
39575SOL    HW220733   3.975   9.702   0.499 -0.8304 -0.9818 -1.5242
39576SOL     OW20734   0.082   8.398   3.772 -0.4559  0.1234  0.1324
39576SOL    HW120735  -0.010   8.381   3.753 -0.5118 -0.1023  0.5935
39576SOL    HW220736   0.105   8.335   3.841  0.1618 -0.1260 -0.2907
39577SOL     OW20737  11.068   8.767   9.401  0.2059  0.0071  0.2835
39577SOL    HW120738  11.140   8.809   9.354  1.1479  0.2858  1.9297
39577SOL    HW220739  11.108   8.694   9.447 -1.2413 -2.2376 -1.7306
39578SOL     OW20740   6.974   4.678   1.654  0.1843  0.5205  0.2797
39578SOL    HW120741   7.048   4.631   1.616  1.3402  1.2172  1.5291
39578SOL    HW220742   6.922   4.611   1.698  1.5088  0.2826  1.5742
39579SOL     OW20743   4.001  10.701   2.717  0.6730  0.2989  0.0212
39579SOL    HW120744   4.094  10.725   2.723  0.8129 -0.2185  0.0090
39579SOL    HW220745   3.970  10.745   2.638  0.8096  0.7911  0.2404
39580SOL     OW20746   9.741   2.658   1.791 -0.2601 -0.0386 -0.0735
39580SOL    HW120747   9.723   2.750   1.811 -3.0084 -0.9674  2.5198
39580SOL    HW220748   9.798   2.629   1.861 -1.1865 -0.7809  0.3971
39581SOL     OW20749   3.331   5.389   3.960  0.5347  0.3277  0.1714
39581SOL    HW120750   3.271   5.433   4.021  1.8851  0.9920  1.0816
39581SOL    HW220751   3.291   5.401   3.874 -0.0686  1.7697  0.6142
39582SOL     OW20752   8.696  10.913   1.523 -1.2807  0.6028  0.1314
39582SOL    HW120753   8.721  10.820   1.518 -1.6502  0.5088 -0.0057
39582SOL    HW220754   8.739  10.953   1.448 -0.5583  0.6779  0.5772
39583SOL     OW20755   1.053   8.007   9.608  0.0567  0.2421  0.4827
39583SOL    HW120756   1.021   8.034   9.694 -0.0682 -0.1778  0.5670
39583SOL    HW220757   0.974   8.000   9.554  0.2243  1.6003  0.0170
39584SOL     OW20758   3.267   4.560   2.143 -0.5325  0.1150 -0.7496
39584SOL    HW120759   3.279   4.465   2.141 -1.4331 -0.0803  0.9474
39584SOL    HW220760   3.173   4.572   2.151 -0.3865  1.1209 -0.3648
39585SOL     OW20761  10.922   2.097   3.685  0.0015  0.1871  0.2168
39585SOL    HW120762  10.966   2.167   3.636  2.2755 -2.0922 -1.2407
39585SOL    HW220763  10.868   2.052   3.620  0.5974 -0.9506  0.4806
39586SOL     OW20764   4.076   8.055   2.334  0.0268  0.0178  0.0827
39586SOL    HW120765   4.016   8.040   2.261 -3.4749 -0.5199  2.8163
39586SOL    HW220766   4.109   7.968   2.356  0.4671  0.0793 -0.3031
39587SOL     OW20767   1.004   1.777   2.313 -0.0832 -0.3701  0.1283
39587SOL    HW120768   0.952   1.809   2.387 -0.9889  0.0230 -0.6485
39587SOL    HW220769   0.939   1.760   2.244  0.6992 -1.0912 -0.4497
39588SOL     OW20770  10.537   8.902   0.967  0.3181  0.1896 -0.2315
39588SOL    HW120771  10.569   8.876   0.880 -2.7750  0.5476 -1.6370
39588SOL    HW220772  10.571   8.990   0.979  0.1919  0.4370 -1.4740
39589SOL     OW20773   7.301   1.740  10.996  0.2799 -0.4732 -0.5521
39589SOL    HW120774   7.388   1.726  11.032  0.1162  1.9903  1.0794
39589SOL    HW220775   7.304   1.829  10.960 -1.2005 -0.8379 -1.6928
39590SOL     OW20776   7.712   4.062   2.203 -0.3433 -0.1064 -0.6921
39590SOL    HW120777   7.656   4.077   2.127  0.0671 -0.8568 -1.1568
39590SOL    HW220778   7.655   4.078   2.278 -0.6806  0.9257 -1.1415
39591SOL     OW20779   7.942   8.791   2.965  0.5438  0.2665 -0.7969
39591SOL    HW120780   7.959   8.718   3.025 -0.2414  2.1346  1.9110
39591SOL    HW220781   8.024   8.802   2.917  1.1365 -1.4712 -0.2838
39592SOL     OW20782   0.845   3.511   9.019 -0.1865 -0.2359  1.1506
39592SOL    HW120783   0.759   3.477   8.994 -0.7771  0.9857  1.4504
39592SOL    HW220784   0.841   3.519   9.114  0.5295 -0.8549  1.2383
39593SOL     OW20785   6.647   0.169   5.953 -0.1912  0.2281 -0.1472
39593SOL    HW120786   6.735   0.132   5.961 -0.4872 -1.4283 -3.2195
39593SOL    HW220787   6.594   0.115   6.012  0.4163 -0.3896 -0.1460
39594SOL     OW20788   4.509  10.076   3.784 -0.0757 -0.3940  0.5327
39594SOL    HW120789   4.523  10.112   3.871 -2.4838  0.9049  0.4604
39594SOL    HW220790   4.435  10.016   3.794 -1.9707  1.5331 -0.9351
39595SOL     OW20791  10.499   3.320   1.398 -0.5940  0.7394  0.4109
39595SOL    HW120792  10.471   3.246   1.343 -3.5859  1.5100  0.7058
39595SOL    HW220793  10.519   3.389   1.335  1.1920  0.0598  0.1753
39596SOL     OW20794   5.120   5.421   9.650 -0.0545  0.1510 -0.4194
39596SOL    HW120795   5.109   5.401   9.742  1.7028  3.2626  0.6097
39596SOL    HW220796   5.072   5.503   9.637  0.1791  0.0666 -2.1668
39597SOL     OW20797   0.816   6.657   5.112  0.1394  0.6712  0.0022
39597SOL    HW120798   0.739   6.648   5.167 -0.6649 -2.3793 -1.4062
39597SOL    HW220799   0.877   6.591   5.145  0.3761  0.0623 -1.5344
39598SOL     OW20800   3.992  10.574   6.884  0.3839  0.4024 -0.0262
39598SOL    HW120801   4.002  10.479   6.878  2.7699  0.5551  0.3786
39598SOL    HW220802   3.930  10.597   6.815 -0.5293 -1.4679  0.1233
39599SOL     OW20803   6.865  10.634   4.554  0.1075  0.7441 -0.8138
39599SOL    HW120804   6.857  10.681   4.471 -0.8339 -0.4247 -1.4091
39599SOL    HW220805   6.805  10.679   4.614  0.1308  1.0384 -1.0097
39600SOL     OW20806   3.083   0.152   2.849 -0.0863  0.3872  0.3417
39600SOL    HW120807   3.049   0.241   2.839 -2.2817 -0.4622 -0.4608
39600SOL    HW220808   3.178   0.163   2.859  0.0706  2.6625 -2.3984
39601SOL     OW20809   2.120  10.834   0.094  0.2014  0.0810  0.2408
39601SOL    HW120810   2.136  10.916   0.046  0.3394  0.0682  0.2647
39601SOL    HW220811   2.025  10.821   0.088  0.1546  0.3379  0.3908
39602SOL     OW20812   0.244  10.597   0.207  0.2268  0.4129  0.1294
39602SOL    HW120813   0.299  10.541   0.261 -0.0819  1.2810  1.3831
39602SOL    HW220814   0.273  10.580   0.117  2.8602  1.1784  0.7496
39603SOL     OW20815   9.606   8.426   8.394  0.3006  0.4497 -0.1977
39603SOL    HW120816   9.574   8.421   8.484 -0.8007  0.0069 -0.5881
39603SOL    HW220817   9.552   8.495   8.354  1.2537  1.1309 -0.3505
39604SOL     OW20818   2.176   4.477   9.876  0.0381  0.3507 -0.7164
39604SOL    HW120819   2.218   4.402   9.834 -1.0532 -1.3988  1.1492
39604SOL    HW220820   2.108   4.504   9.814 -0.6237 -1.2730 -0.7488
39605SOL     OW20821   1.151   7.716   0.935  0.4282  0.7666  0.1939
39605SOL    HW120822   1.170   7.627   0.966 -2.1639 -0.3483 -1.0794
39605SOL    HW220823   1.236   7.758   0.930  1.7055 -1.4691  1.3449
39606SOL     OW20824   2.525   4.573  11.074 -0.7717 -0.4516  0.2202
39606SOL    HW120825   2.525   4.668  11.086  1.6962 -0.5536  1.5492
39606SOL    HW220826   2.508   4.538  11.162 -2.1723 -1.3002 -0.3396
39607SOL     OW20827   7.714   6.496   0.965 -0.5279 -0.1800  0.7129
39607SOL    HW120828   7.784   6.531   1.019 -1.1610  0.6838  0.9886
39607SOL    HW220829   7.633   6.519   1.011 -1.0772  0.5058 -0.5350
39608SOL     OW20830  10.143   4.793   0.768 -0.5378 -0.2844 -0.2714
39608SOL    HW120831  10.221   4.839   0.735 -0.1163  0.6993  1.9509
39608SOL    HW220832  10.102   4.856   0.827  0.8150 -3.0372  4.0819
39609SOL     OW20833   4.043   5.244   7.158 -0.3881 -0.5146  0.1801
39609SOL    HW120834   4.112   5.261   7.095 -1.1012 -0.2275 -0.5459
39609SOL    HW220835   4.082   5.264   7.243  0.3622 -0.2116 -0.2277
39610SOL     OW20836   9.895   1.556  10.365  0.1051  0.1302 -0.1289
39610SOL    HW120837   9.950   1.634  10.351  0.0432  0.1108 -0.4694
39610SOL    HW220838   9.821   1.588  10.417  0.0862  0.2939 -0.2584
39611SOL     OW20839   0.542   1.435   1.701 -0.4211 -0.2195  0.3937
39611SOL    HW120840   0.557   1.443   1.607  2.2504  1.4661  0.8508
39611SOL    HW220841   0.525   1.524   1.730  0.2596 -0.4809  1.6794
39612SOL     OW20842   3.159   7.536   7.113 -0.2788 -0.9168 -0.5357
39612SOL    HW120843   3.087   7.599   7.116  1.1582  0.8254 -0.2481
39612SOL    HW220844   3.164   7.500   7.202 -0.9356 -1.2532 -0.6275
39613SOL     OW20845   1.863   6.802   6.679  0.0459 -0.0115  0.5650
39613SOL    HW120846   1.810   6.725   6.699 -0.8520  1.0805  2.7036
39613SOL    HW220847   1.800   6.868   6.650  0.5169  0.5760  0.8533
39614SOL     OW20848   9.230   0.037   3.050 -0.7257  0.2276  0.7628
39614SOL    HW120849   9.263   0.042   3.139  2.7629 -1.3378 -0.2818
39614SOL    HW220850   9.205  -0.055   3.039 -0.9196  0.3603  0.0376
39615SOL     OW20851   5.939   1.213   8.634  0.0715 -0.0575 -0.3928
39615SOL    HW120852   5.886   1.290   8.610  0.5561 -0.1536 -1.8801
39615SOL    HW220853   6.018   1.222   8.582  1.5165  0.0030  1.6929
39616SOL     OW20854   9.860   0.408   6.431  0.3555  0.1935  0.0701
39616SOL    HW120855   9.830   0.334   6.378 -0.2926  1.3503 -1.2340
39616SOL    HW220856   9.783   0.433   6.483  1.0275 -1.0273  1.7377
39617SOL     OW20857   2.521   3.345   2.820 -0.7201  0.6808 -0.5498
39617SOL    HW120858   2.480   3.259   2.833 -1.1833  1.0114  0.2717
39617SOL    HW220859   2.481   3.379   2.740 -0.1115 -0.1043 -1.1999
39618SOL     OW20860   2.324  10.403   9.343 -0.4124 -0.8201  0.7765
39618SOL    HW120861   2.313  10.430   9.251 -0.0172 -0.7629  0.7442
39618SOL    HW220862   2.317  10.308   9.341  3.9225 -1.3530 -0.0220
39619SOL     OW20863  10.008   4.181   4.130  0.0652 -0.0414  0.2835
39619SOL    HW120864  10.053   4.192   4.046 -0.5774 -1.1744 -0.2381
39619SOL    HW220865   9.934   4.242   4.127 -0.1887 -0.3706 -0.1454
39620SOL     OW20866   4.157   3.724   6.982  0.1063  0.1976 -0.1201
39620SOL    HW120867   4.170   3.730   7.077  0.0443  0.2987 -0.1181
39620SOL    HW220868   4.227   3.665   6.952 -0.2490 -0.3182  0.0648
39621SOL     OW20869   1.677  10.599   2.606  0.7527  0.2040  0.3511
39621SOL    HW120870   1.721  10.557   2.532 -0.1696 -1.9846  0.9623
39621SOL    HW220871   1.674  10.691   2.582  0.5900 -0.3944 -2.3098
39622SOL     OW20872   6.656   7.422   8.771 -1.0591  0.5356  0.2305
39622SOL    HW120873   6.645   7.486   8.842  1.1943 -1.0125  2.1203
39622SOL    HW220874   6.731   7.454   8.721 -0.6433 -0.0191  0.4942
39623SOL     OW20875   8.331   2.454   9.992  0.0344  0.1587 -0.2963
39623SOL    HW120876   8.419   2.436   9.957  0.5911  1.8559  0.1310
39623SOL    HW220877   8.285   2.371   9.984  1.8790 -0.9676  0.0455
39624SOL     OW20878   5.355   5.885   4.190 -0.1661 -0.4735 -0.0421
39624SOL    HW120879   5.275   5.919   4.230  2.0457  1.5837  3.1537
39624SOL    HW220880   5.389   5.822   4.253  0.6671 -1.4993 -1.4458
39625SOL     OW20881   0.453   9.171  10.872  0.1494 -0.0473 -0.2463
39625SOL    HW120882   0.407   9.089  10.889 -0.4784  0.5489  1.0699
39625SOL    HW220883   0.506   9.185  10.951 -0.2307  1.1222 -0.1898
39626SOL     OW20884   7.975   7.667   0.932 -0.9845 -0.2084 -0.3820
39626SOL    HW120885   7.993   7.760   0.926  1.4157 -0.2511  3.1904
39626SOL    HW220886   7.981   7.635   0.842 -0.1262  2.7800 -1.4953
39627SOL     OW20887  10.372   0.881   8.965  0.1458 -1.1092 -0.1435
39627SOL    HW120888  10.417   0.818   9.021  1.5123 -1.9194 -2.0349
39627SOL    HW220889  10.359   0.835   8.882 -0.7500  0.4045 -0.8877
39628SOL     OW20890   0.708   2.198   6.011  0.5450  0.9640  0.1505
39628SOL    HW120891   0.749   2.151   6.084  0.9331  0.4332 -0.3909
39628SOL    HW220892   0.662   2.130   5.962  2.2861  0.8431 -1.4542
39629SOL     OW20893   3.881   1.986  10.849  0.0702  0.1765  0.0086
39629SOL    HW120894   3.881   2.026  10.762  2.7738  1.4220  0.4670
39629SOL    HW220895   3.952   1.922  10.847 -1.4733 -1.6542  0.5986
39630SOL     OW20896   0.416   7.821   4.097 -0.5421 -0.5489 -0.0998
39630SOL    HW120897   0.505   7.813   4.130 -0.2631 -0.5320 -0.8244
39630SOL    HW220898   0.360   7.785   4.166  0.0756 -1.1918  0.0695
39631SOL     OW20899   8.006   4.702   0.124 -0.0671 -0.4956 -0.1988
39631SOL    HW120900   8.034   4.682   0.213 -1.4897 -0.6655  0.2336
39631SOL    HW220901   7.942   4.772   0.134 -0.7298 -0.9637 -1.0076
39632SOL     OW20902   9.044   4.530   7.700  0.2874 -0.2470  0.0245
39632SOL    HW120903   9.040   4.538   7.795  3.1877 -0.8460  0.3035
39632SOL    HW220904   9.097   4.605   7.672 -1.6674  0.7167 -1.3424
39633SOL     OW20905   8.529   5.538   7.793  0.3394 -0.0153 -0.2606
39633SOL    HW120906   8.575   5.454   7.796  0.9282  0.1469 -2.7999
39633SOL    HW220907   8.438   5.515   7.772  0.1736 -0.0777  0.4924
39634SOL     OW20908   3.421   5.596   2.186 -0.0299 -0.0073 -0.7401
39634SOL    HW120909   3.428   5.596   2.282  0.9098  1.7759 -0.7772
39634SOL    HW220910   3.509   5.574   2.156  0.7933  3.2517 -1.1395
39635SOL     OW20911   6.401   0.147   5.336  0.4178  0.0323  0.5522
39635SOL    HW120912   6.447   0.126   5.255 -0.3511 -0.2651  0.1909
39635SOL    HW220913   6.391   0.063   5.381  0.2634  0.1019  0.6497
39636SOL     OW20914   0.912   4.013   7.863 -0.1134 -0.0826  0.3508
39636SOL    HW120915   0.973   3.968   7.804 -0.9077  1.0994 -1.4479
39636SOL    HW220916   0.901   3.952   7.937  1.9449 -1.0272 -0.0515
39637SOL     OW20917   4.374   5.072   1.988  0.8090 -0.4572  0.1578
39637SOL    HW120918   4.429   5.149   2.000 -0.1312  0.2683 -0.0285
39637SOL    HW220919   4.285   5.108   1.981  0.4862 -1.4611 -1.1387
39638SOL     OW20920   8.220   0.718   5.766  0.1310  0.5689 -0.2727
39638SOL    HW120921   8.130   0.688   5.780  0.7304 -1.3586 -0.1709
39638SOL    HW220922   8.249   0.749   5.852 -0.3508  0.9941 -0.2584
39639SOL     OW20923   4.074   5.376   5.350  0.0051  0.2400  0.1927
39639SOL    HW120924   4.110   5.315   5.413 -0.1346  0.7491  0.7748
39639SOL    HW220925   3.982   5.384   5.374 -0.1091  0.2335 -0.2399
39640SOL     OW20926   1.624   7.826   6.279 -0.3902 -0.3248 -0.1241
39640SOL    HW120927   1.581   7.802   6.361  1.0085  0.2025  0.8057
39640SOL    HW220928   1.593   7.761   6.216 -3.8277  0.9947  0.0125
39641SOL     OW20929   8.295   3.831  10.220 -0.5315  0.1782  0.1766
39641SOL    HW120930   8.303   3.859  10.311  1.7944 -2.1762  0.8251
39641SOL    HW220931   8.208   3.790  10.215 -0.8153  0.6215  1.2327
39642SOL     OW20932   8.933   5.035   5.812  1.1130  0.2788 -0.0263
39642SOL    HW120933   8.876   5.051   5.887  1.5370 -0.2415  0.4185
39642SOL    HW220934   8.883   5.064   5.736  0.6601  0.7648  0.4548
39643SOL     OW20935   5.243   6.922   1.867  0.7238  0.0624  0.4479
39643SOL    HW120936   5.235   6.980   1.791  0.9899 -0.1129  0.2866
39643SOL    HW220937   5.153   6.902   1.891  0.6305 -0.8834 -0.5835
39644SOL     OW20938  10.049   1.193   0.132  0.0074 -0.2985  0.7636
39644SOL    HW120939  10.122   1.243   0.096 -1.2643  0.7230 -0.5366
39644SOL    HW220940   9.994   1.258   0.176 -0.7631 -0.8280  0.6113
39645SOL     OW20941   6.456   6.214   9.867  0.5073 -0.1807 -0.5641
39645SOL    HW120942   6.517   6.272   9.821 -0.1992  2.3425  1.4646
39645SOL    HW220943   6.383   6.202   9.806  0.5013  1.4094 -0.9171
39646SOL     OW20944   9.914   8.355   8.449 -0.1834 -0.0080 -0.3655
39646SOL    HW120945   9.988   8.407   8.481 -0.2374 -0.8590  1.2385
39646SOL    HW220946   9.870   8.412   8.387  3.7389 -0.5990 -4.2039
39647SOL     OW20947   7.358  10.924  10.491 -0.0410 -0.4576 -0.2187
39647SOL    HW120948   7.380  10.959  10.578 -0.9632 -0.8674  0.1945
39647SOL    HW220949   7.442  10.906  10.450  0.4002 -1.2020  0.9814
39648SOL     OW20950   3.901   3.660   1.172 -0.2128  0.8785 -0.7308
39648SOL    HW120951   3.842   3.657   1.097 -2.0958 -1.1380  0.6722
39648SOL    HW220952   3.855   3.713   1.237 -1.5680 -2.2016  1.0543
39649SOL     OW20953   6.458   2.877   0.741 -0.0742 -0.2508  0.0358
39649SOL    HW120954   6.391   2.889   0.674 -2.0973 -0.9567  1.8260
39649SOL    HW220955   6.415   2.827   0.810  2.9906 -2.9176  0.2837
39650SOL     OW20956   8.284   6.736   9.724  0.2985  0.1571  0.0122
39650SOL    HW120957   8.369   6.776   9.745  0.1224  2.2016 -2.6427
39650SOL    HW220958   8.223   6.810   9.719 -1.4793 -1.1675  0.9395
39651SOL     OW20959   8.614   7.930  10.175 -0.1907 -0.7295  0.0648
39651SOL    HW120960   8.619   8.021  10.145 -0.8479 -0.7108 -0.0101
39651SOL    HW220961   8.688   7.920  10.235 -0.5215  0.0518  0.6139
39652SOL     OW20962  10.087   8.557   6.248  0.1919 -0.2939 -0.0319
39652SOL    HW120963  10.082   8.594   6.160 -1.2485  0.4365  0.3237
39652SOL    HW220964  10.128   8.471   6.235  0.5077  0.0254 -1.3246
39653SOL     OW20965   4.475   6.794   1.892  0.1125 -0.3390 -0.3736
39653SOL    HW120966   4.539   6.724   1.878  1.5960  0.9867 -0.4813
39653SOL    HW220967   4.526   6.875   1.889 -1.4087  0.7177  0.6618
39654SOL     OW20968   4.683   4.422   8.574  0.8667  0.1183 -0.0710
39654SOL    HW120969   4.620   4.411   8.503  0.5035  1.0976  0.0906
39654SOL    HW220970   4.632   4.412   8.654  1.1585 -0.3342  0.0655
39655SOL     OW20971   4.561  10.626   7.302 -0.3592  0.2495  0.0827
39655SOL    HW120972   4.638  10.574   7.278 -0.1832  1.1405 -1.3886
39655SOL    HW220973   4.528  10.660   7.218 -1.5756  0.9560  0.8254
39656SOL     OW20974   8.674   9.345   6.418 -0.4492 -0.3028  0.8205
39656SOL    HW120975   8.733   9.352   6.493  0.1566  1.6966  0.2087
39656SOL    HW220976   8.720   9.289   6.356  0.6812  0.9233  0.5122
39657SOL     OW20977   3.314   9.175   1.009  0.1999 -0.0278 -0.1286
39657SOL    HW120978   3.375   9.245   0.986  0.1583  0.0021 -0.1477
39657SOL    HW220979   3.233   9.196   0.961  1.2859 -2.0170 -3.1174
39658SOL     OW20980   2.870   5.230   5.291  0.0130  0.2638  0.5683
39658SOL    HW120981   2.863   5.135   5.292  1.1500  0.1622  0.3525
39658SOL    HW220982   2.791   5.261   5.335 -0.5222 -0.7661  0.3517
39659SOL     OW20983   6.156   7.085   8.313  0.6124 -0.1719 -0.0580
39659SOL    HW120984   6.097   7.017   8.345  0.1037 -0.2054 -1.0259
39659SOL    HW220985   6.099   7.151   8.275  0.9735  1.8208  2.6137
39660SOL     OW20986   5.065   4.473   0.015 -0.2114  0.2607  0.2228
39660SOL    HW120987   4.982   4.424   0.015  0.0760 -0.2375  1.0349
39660SOL    HW220988   5.112   4.441   0.092 -0.4408  2.5335  1.3872
39661SOL     OW20989   6.060  10.989   9.374 -0.6917  0.1189  0.0911
39661SOL    HW120990   6.146  11.030   9.382 -0.5182 -0.2006 -0.1383
39661SOL    HW220991   6.070  10.923   9.306 -0.5076 -1.4546  1.5487
39662SOL     OW20992   1.599   3.966   3.714 -0.1564  0.3363  0.1504
39662SOL    HW120993   1.596   3.919   3.798  0.8019  1.5443  0.9061
39662SOL    HW220994   1.608   4.058   3.739 -0.1941  0.7469 -1.2890
39663SOL     OW20995   0.539   5.833   7.625  0.0586  0.0900  0.4261
39663SOL    HW120996   0.585   5.801   7.703  0.4549 -1.0148 -0.2390
39663SOL    HW220997   0.606   5.839   7.558 -0.1582  1.6614  0.3154
39664SOL     OW20998   0.617   1.125   5.487 -0.7663 -0.6408  0.0602
39664SOL    HW120999   0.673   1.196   5.455 -0.9462 -0.5884 -0.1471
39664SOL    HW221000   0.607   1.067   5.411  0.8796 -1.8707  0.7176
39665SOL     OW21001  10.420   5.768   0.217 -0.4898  0.2238  0.5227
39665SOL    HW121002  10.437   5.680   0.251 -2.5410 -0.9408 -1.1633
39665SOL    HW221003  10.339   5.796   0.261 -1.0847  0.2743 -0.5579
39666SOL     OW21004   3.762   7.069   0.582  0.4126 -0.0098 -0.0026
39666SOL    HW121005   3.850   7.097   0.559  1.6597 -2.6412  1.1377
39666SOL    HW221006   3.746   7.105   0.669 -0.7927  2.6253 -1.1933
39667SOL     OW21007  10.394   1.858   3.219  0.4665 -0.0497 -0.2778
39667SOL    HW121008  10.325   1.883   3.158  1.0615  2.0502 -0.1466
39667SOL    HW221009  10.475   1.870   3.170  0.9414  1.4797  0.8253
39668SOL     OW21010   1.612   3.396  10.224  1.2102  0.1241 -0.6379
39668SOL    HW121011   1.538   3.345  10.258  1.3397 -0.1213 -0.7169
39668SOL    HW221012   1.647   3.441  10.301  2.6689 -1.8902 -0.0265
39669SOL     OW21013   9.969   0.601   4.304  0.3662 -0.0881 -0.3057
39669SOL    HW121014   9.954   0.580   4.212  1.4305  0.2026 -0.5556
39669SOL    HW221015  10.050   0.555   4.327  1.1010  1.3070 -0.0309
39670SOL     OW21016   0.854   6.820   9.523 -0.1514  0.3935 -0.0670
39670SOL    HW121017   0.805   6.901   9.543  0.8115  0.8738  0.4207
39670SOL    HW221018   0.852   6.770   9.605  0.6093  0.6558  0.1178
39671SOL     OW21019   4.746   2.284   8.830  0.2703  0.0907 -0.1779
39671SOL    HW121020   4.662   2.328   8.843 -0.1136 -0.6041 -0.2431
39671SOL    HW221021   4.751   2.271   8.735  1.0089  1.1837 -0.3052
39672SOL     OW21022   7.222   3.368   7.592 -0.0855  0.3997  0.4890
39672SOL    HW121023   7.233   3.332   7.504  1.2287 -2.0273  1.5338
39672SOL    HW221024   7.184   3.295   7.642 -3.5034  2.5526  1.4035
39673SOL     OW21025   0.319   8.257   8.981  0.2606  0.4018  0.1930
39673SOL    HW121026   0.318   8.338   8.932  0.2163 -0.2923 -0.9908
39673SOL    HW221027   0.275   8.193   8.924 -1.2188 -0.0897  1.7578
39674SOL     OW21028   9.384   5.246   2.657  0.0528 -0.5576 -0.6455
39674SOL    HW121029   9.305   5.194   2.674 -0.9019  0.8519 -0.6090
39674SOL    HW221030   9.354   5.337   2.662  2.0448  0.0768  1.2043
39675SOL     OW21031   8.105   6.760   4.503 -0.0176  0.3069 -0.2372
39675SOL    HW121032   8.087   6.707   4.581 -2.6515 -1.0997 -1.6619
39675SOL    HW221033   8.023   6.805   4.484  0.1836 -0.2066 -2.7338
39676SOL     OW21034   9.801   0.301   2.044  0.2285 -0.3965 -0.0973
39676SOL    HW121035   9.732   0.306   2.111 -2.1800 -1.2510 -2.3360
39676SOL    HW221036   9.786   0.216   2.001  0.9499  0.5817 -2.4278
39677SOL     OW21037   4.435   4.395  11.028 -0.5358  0.3083 -0.2109
39677SOL    HW121038   4.364   4.391  11.091  0.4151  1.9744  1.0653
39677SOL    HW221039   4.473   4.483  11.040  0.7371  0.0627 -1.9414
39678SOL     OW21040   6.780   8.795   6.014 -0.3317 -0.3119  0.2179
39678SOL    HW121041   6.856   8.833   6.059 -0.9700 -0.3951  1.4036
39678SOL    HW221042   6.818   8.749   5.939  0.8062 -0.3361  0.7802
39679SOL     OW21043   0.850   5.944  10.348 -0.0552 -0.1097  0.2678
39679SOL    HW121044   0.940   5.966  10.373 -0.6375 -0.2063  2.7913
39679SOL    HW221045   0.795   5.995  10.409 -1.6730 -1.0308 -0.3438
39680SOL     OW21046   8.090  10.658   1.265 -0.6577 -0.4702  0.8728
39680SOL    HW121047   8.131  10.683   1.182 -0.1831 -0.4107  1.1197
39680SOL    HW221048   8.027  10.728   1.283 -1.5848 -1.0523  0.0041
39681SOL     OW21049  10.097   1.601   6.918 -0.0455 -0.1544 -0.1403
39681SOL    HW121050  10.121   1.640   7.002 -1.2193 -1.9872  1.1114
39681SOL    HW221051  10.002   1.604   6.916 -0.0666 -0.9012 -1.0175
39682SOL     OW21052   7.849   1.223   8.975 -0.5329  0.5853 -0.1529
39682SOL    HW121053   7.933   1.235   8.932 -0.0465  3.1136  1.2831
39682SOL    HW221054   7.852   1.133   9.009  1.6972  0.6972  0.0980
39683SOL     OW21055   9.149   1.760   3.706 -0.1660  0.1431 -0.0536
39683SOL    HW121056   9.085   1.821   3.670 -0.5892 -1.1654 -1.6161
39683SOL    HW221057   9.104   1.676   3.708  0.4512 -0.1936  1.9446
39684SOL     OW21058   7.323   7.116   1.083 -0.1519  0.1645 -0.1722
39684SOL    HW121059   7.286   7.113   0.995 -2.2412  2.3300  0.5264
39684SOL    HW221060   7.273   7.051   1.132 -0.7805  0.7787  0.0067
39685SOL     OW21061   3.477   2.580   7.894  0.0607 -0.4663 -0.4223
39685SOL    HW121062   3.497   2.665   7.934 -1.2408  0.3962 -1.5190
39685SOL    HW221063   3.505   2.589   7.803  1.7655 -1.9436 -0.0908
39686SOL     OW21064   3.717   0.683   9.431  0.7345  1.1055  0.0828
39686SOL    HW121065   3.655   0.755   9.416 -0.7279  0.0939  0.9848
39686SOL    HW221066   3.792   0.724   9.474  1.1430  2.5154 -1.8597
39687SOL     OW21067   9.966   5.745   8.510 -0.5030  0.0386  0.2718
39687SOL    HW121068  10.015   5.738   8.592 -1.4914 -1.0410  0.7960
39687SOL    HW221069   9.967   5.656   8.474  2.1905  0.9273 -2.2946
39688SOL     OW21070   4.261  10.958   2.353 -0.9385 -0.1905 -0.0819
39688SOL    HW121071   4.308  11.040   2.364  0.0930 -1.0264  2.6350
39688SOL    HW221072   4.175  10.974   2.391 -1.1474 -0.0816 -0.5839
39689SOL     OW21073   3.979   1.173   4.494 -0.1493  0.0768 -0.4711
39689SOL    HW121074   3.990   1.122   4.414  0.0620 -1.1180  0.3038
39689SOL    HW221075   3.897   1.142   4.531  0.0945  0.1358  0.1221
39690SOL     OW21076   0.945   4.796   9.101  0.3717 -0.2378 -0.1712
39690SOL    HW121077   0.916   4.865   9.161  3.5096  0.2963  0.9189
39690SOL    HW221078   0.999   4.842   9.037  1.1320 -1.4369 -0.4229
39691SOL     OW21079  10.169   3.987   4.233  0.9636 -0.6212 -0.0353
39691SOL    HW121080  10.121   3.910   4.202 -0.6012 -0.3815  1.6262
39691SOL    HW221081  10.111   4.061   4.215  1.4701 -0.0905  0.4477
39692SOL     OW21082   3.783   8.777   3.675  0.2546 -0.1211  0.0603
39692SOL    HW121083   3.753   8.864   3.699 -1.2637 -0.3623 -0.8512
39692SOL    HW221084   3.834   8.790   3.595  0.4256 -0.0347  0.1806
39693SOL     OW21085   6.108   9.073   9.827  0.4775 -0.1917 -0.2034
39693SOL    HW121086   6.090   9.029   9.744 -0.0122  1.0475 -0.7884
39693SOL    HW221087   6.080   9.164   9.812 -0.3648 -0.1235  1.5782
39694SOL     OW21088   7.909   7.448   6.810 -0.7173  0.3595  0.0621
39694SOL    HW121089   7.941   7.531   6.845 -1.1397 -0.3051  2.1938
39694SOL    HW221090   7.976   7.384   6.834 -0.3225  0.0479 -1.6855
39695SOL     OW21091   5.756   4.800   0.655  0.2495 -0.0658 -0.1422
39695SOL    HW121092   5.697   4.815   0.581 -1.4554 -0.8159  1.0241
39695SOL    HW221093   5.798   4.716   0.635 -0.5179 -0.4712 -0.0725
39696SOL     OW21094   2.420   9.539   1.389  0.8520  0.4931 -0.6056
39696SOL    HW121095   2.358   9.558   1.319 -0.5078  0.1394  0.4515
39696SOL    HW221096   2.404   9.607   1.454  0.1712 -0.7012  0.5304
39697SOL     OW21097   4.791   0.451   1.279  0.2499 -0.4602  0.2848
39697SOL    HW121098   4.845   0.443   1.200 -1.9114  2.1232 -1.6284
39697SOL    HW221099   4.850   0.490   1.343  0.8243  2.4086 -1.7705
39698SOL     OW21100   9.593   4.967   0.024  0.1902  0.2814  0.3538
39698SOL    HW121101   9.562   4.941   0.111  1.0252 -1.1913  0.2450
39698SOL    HW221102   9.687   4.979   0.034  0.5254 -1.2021 -0.5885
39699SOL     OW21103   4.511  10.009  10.694  0.5607  0.4092 -0.5898
39699SOL    HW121104   4.502  10.038  10.786  0.4100 -0.8078 -0.2075
39699SOL    HW221105   4.592  10.049  10.664  0.0757  1.6949 -0.2696
39700SOL     OW21106   7.250   7.134   2.881 -0.5956  0.5857  0.1703
39700SOL    HW121107   7.295   7.216   2.857 -2.2650  1.1021 -1.4373
39700SOL    HW221108   7.186   7.122   2.811 -1.0961 -1.5668  0.9551
39701SOL     OW21109   9.187   9.683  10.967 -0.2298  0.1173 -0.1682
39701SOL    HW121110   9.263   9.643  11.010 -0.7575 -1.1159 -0.3518
39701SOL    HW221111   9.210   9.776  10.960  0.6648  0.0094  1.0477
39702SOL     OW21112   6.352   6.698   4.380  0.2759 -0.2815 -0.5648
39702SOL    HW121113   6.402   6.630   4.425 -0.1424 -0.2955 -0.1221
39702SOL    HW221114   6.331   6.762   4.448 -1.8734 -1.1543 -0.3331
39703SOL     OW21115   4.972   3.779   5.763 -0.4567 -0.1729 -0.1141
39703SOL    HW121116   5.011   3.710   5.816 -1.7448 -0.3825  0.5941
39703SOL    HW221117   4.990   3.860   5.812 -1.0951 -0.2976  0.3410
39704SOL     OW21118   7.569   6.332   8.966 -0.2784 -0.1014 -0.0190
39704SOL    HW121119   7.603   6.315   9.054 -2.0822  0.4993  0.8599
39704SOL    HW221120   7.541   6.246   8.934 -0.9459 -0.1379  0.6214
39705SOL     OW21121   9.903   6.304   5.172  0.5561 -0.3729  0.6450
39705SOL    HW121122   9.906   6.297   5.076 -1.3078 -0.9375  0.5805
39705SOL    HW221123   9.957   6.380   5.192  2.4369 -1.2900 -0.6906
39706SOL     OW21124   9.775   9.410   1.249  0.7296  0.3610  0.1892
39706SOL    HW121125   9.716   9.338   1.226  0.1310  1.3875 -1.7403
39706SOL    HW221126   9.854   9.394   1.198 -0.3616  2.3175 -2.3660
39707SOL     OW21127   0.050   0.873   9.092 -0.3813 -0.1819 -0.3751
39707SOL    HW121128   0.006   0.789   9.080 -1.3817 -0.4407  3.6221
39707SOL    HW221129  -0.017   0.939   9.072 -0.8481 -0.4796  0.1548
39708SOL     OW21130   5.952   4.197   5.383 -0.1091 -1.1285  0.2622
39708SOL    HW121131   5.998   4.116   5.359  0.8455 -1.2227  2.1718
39708SOL    HW221132   5.998   4.265   5.335 -1.5093 -1.7346 -2.1098
39709SOL     OW21133  10.137   2.009  10.076 -0.4924 -0.4024 -0.2198
39709SOL    HW121134  10.190   1.979  10.150 -2.0115 -0.9273  0.7087
39709SOL    HW221135  10.146   2.104  10.076  0.8902 -0.5200 -0.4505
39710SOL     OW21136   9.719   9.320  10.258 -0.3355  1.5070 -0.0339
39710SOL    HW121137   9.728   9.314  10.353  0.4665 -0.5276 -0.1868
39710SOL    HW221138   9.753   9.237  10.226 -2.8000  1.1324 -1.9500
39711SOL     OW21139   5.354   3.491   1.818 -0.1619 -0.4351  0.2811
39711SOL    HW121140   5.342   3.586   1.810 -0.5981 -0.5388 -0.3515
39711SOL    HW221141   5.420   3.470   1.751  1.0066 -0.3799  1.3807
39712SOL     OW21142   7.615   1.682   8.973  1.1295  0.2828  0.2366
39712SOL    HW121143   7.614   1.748   8.904  2.0380  0.3273  0.2511
39712SOL    HW221144   7.566   1.608   8.938  1.3432  0.4180 -0.3490
39713SOL     OW21145   7.959   9.722   9.234 -0.6638  0.2001 -0.5587
39713SOL    HW121146   7.991   9.633   9.219  1.0731  0.8491 -0.9492
39713SOL    HW221147   8.034   9.768   9.274 -1.3234  1.6448 -0.9151
39714SOL     OW21148   5.277   7.228   4.761  0.3762  0.1153  0.0417
39714SOL    HW121149   5.356   7.227   4.709  0.5114 -0.1028  0.2502
39714SOL    HW221150   5.261   7.321   4.779 -2.0321  0.7268 -3.9318
39715SOL     OW21151   2.341   4.367   1.763 -0.3236  0.4422  0.0617
39715SOL    HW121152   2.297   4.438   1.717  0.7034  1.4173  0.5347
39715SOL    HW221153   2.342   4.295   1.700 -1.9403  0.6069 -0.1980
39716SOL     OW21154   1.187  10.280  10.015 -0.0375 -0.6864  0.2279
39716SOL    HW121155   1.238  10.351  10.056  0.9970 -1.3765  0.1915
39716SOL    HW221156   1.254  10.221   9.979 -0.9098 -0.9892 -0.9200
39717SOL     OW21157   7.027   4.048   3.701  0.1909 -0.5801  0.6493
39717SOL    HW121158   7.049   4.014   3.787 -2.9822 -1.9613  1.0767
39717SOL    HW221159   7.063   3.984   3.640  1.1256 -0.4169  1.0206
39718SOL     OW21160   7.746   5.196  10.508 -0.1543 -0.1987  0.2744
39718SOL    HW121161   7.736   5.100  10.511 -2.2376 -0.0625 -0.4700
39718SOL    HW221162   7.657   5.229  10.497  0.6462  1.7800 -0.8691
39719SOL     OW21163   1.704   5.849  10.629 -0.0064  0.3267 -0.1198
39719SOL    HW121164   1.767   5.866  10.699  0.1880 -0.0187 -0.2092
39719SOL    HW221165   1.730   5.765  10.593  0.2047  0.7350 -0.9482
39720SOL     OW21166   1.698   2.450   5.106  0.1997 -0.5300  0.0166
39720SOL    HW121167   1.647   2.491   5.037 -0.3878 -0.1809  0.6431
39720SOL    HW221168   1.641   2.381   5.140 -0.2434  0.4268  1.3076
39721SOL     OW21169   4.499   5.788   8.505 -0.6466  0.5032 -0.3222
39721SOL    HW121170   4.418   5.835   8.486  0.4818  1.6582 -2.7875
39721SOL    HW221171   4.559   5.815   8.435  1.9047 -0.2332  1.4416
39722SOL     OW21172  10.086  10.127   5.130  0.4524  0.4958  0.8099
39722SOL    HW121173  10.048  10.197   5.077 -0.3006 -0.0887  0.5646
39722SOL    HW221174  10.088  10.052   5.072  1.6213  0.4093  0.9548
39723SOL     OW21175   3.875   2.330   4.300  0.0215  0.7859 -0.3898
39723SOL    HW121176   3.849   2.318   4.209 -0.3670 -0.6833 -0.1301
39723SOL    HW221177   3.810   2.390   4.336 -0.9702 -0.0977 -0.6425
39724SOL     OW21178   9.940   0.672   8.402  0.3576 -0.1015  0.2976
39724SOL    HW121179   9.895   0.589   8.390 -0.0559 -0.3168  2.7767
39724SOL    HW221180   9.918   0.699   8.491 -0.5628  3.3350 -0.8144
39725SOL     OW21181   9.333   8.095   0.080  0.5470  0.0784 -0.1872
39725SOL    HW121182   9.382   8.099  -0.002 -1.8522 -0.8556 -1.7760
39725SOL    HW221183   9.351   8.008   0.115  1.4678  0.4306  0.2676
39726SOL     OW21184   1.558   5.034   6.681 -0.4011  0.3418  0.5746
39726SOL    HW121185   1.526   5.108   6.628 -1.5487 -0.4847  0.0653
39726SOL    HW221186   1.506   5.037   6.761 -1.8337 -0.9908 -0.2433
39727SOL     OW21187   2.925   6.606   2.351 -0.2865  0.0925 -0.2471
39727SOL    HW121188   2.982   6.613   2.274 -1.2001  2.1904 -0.8139
39727SOL    HW221189   2.839   6.584   2.315 -0.3700 -0.6331  0.3680
39728SOL     OW21190   5.988   6.125   7.991  0.0462  0.8008  0.8277
39728SOL    HW121191   5.976   6.207   7.943  2.0783  2.6446  3.1848
39728SOL    HW221192   6.079   6.101   7.973 -0.2887 -0.5438  0.8139
39729SOL     OW21193   7.751   6.922  10.854  0.2428 -0.4718 -0.2650
39729SOL    HW121194   7.766   7.014  10.878  1.9405 -0.7852 -0.0501
39729SOL    HW221195   7.741   6.877  10.938  1.4425 -0.8014 -0.2886
39730SOL     OW21196   7.180  10.279  10.612 -0.1533  0.2687 -0.2251
39730SOL    HW121197   7.259  10.318  10.650 -0.6164  0.5537  0.4595
39730SOL    HW221198   7.143  10.225  10.682 -0.3953 -0.1096 -0.6414
39731SOL     OW21199   8.176   3.497   0.522  0.3014  0.1673  0.0103
39731SOL    HW121200   8.211   3.426   0.469  0.4133  0.8572 -0.8625
39731SOL    HW221201   8.096   3.523   0.478  0.0811  0.3633  0.5133
39732SOL     OW21202  11.044   1.769   6.527 -0.0841  0.1359 -0.2504
39732SOL    HW121203  10.970   1.712   6.547 -0.2742 -0.0417 -1.3747
39732SOL    HW221204  11.116   1.710   6.508 -0.3206  0.2348 -1.5662
39733SOL     OW21205   4.954   7.920   2.883 -0.5713 -0.5452  0.0422
39733SOL    HW121206   4.951   7.826   2.865 -0.3563  0.0262 -3.9554
39733SOL    HW221207   4.930   7.961   2.800 -1.2565  2.9840  1.7846
39734SOL     OW21208   3.204   1.828   9.539  0.0511  0.0685 -0.2520
39734SOL    HW121209   3.126   1.867   9.499  1.1779  1.5947 -1.0965
39734SOL    HW221210   3.237   1.767   9.472 -1.2389 -1.8341  0.7370
39735SOL     OW21211   4.026   7.684   3.709 -0.3858  0.2001  0.2308
39735SOL    HW121212   4.014   7.610   3.768  1.3522  0.2602  0.7262
39735SOL    HW221213   3.949   7.739   3.723 -0.0983  0.1589  2.3896
39736SOL     OW21214   7.008   1.779   9.158 -0.0120  0.2088  0.2263
39736SOL    HW121215   7.019   1.813   9.069  0.1850  1.6405  0.7791
39736SOL    HW221216   6.971   1.851   9.207  1.3834 -0.0207  1.6920
39737SOL     OW21217   1.180   9.308   4.126  0.1147 -0.3394 -0.4314
39737SOL    HW121218   1.220   9.291   4.211  1.0567 -0.0647 -0.8072
39737SOL    HW221219   1.242   9.366   4.081  0.0462 -1.1719 -1.6370
39738SOL     OW21220   1.278   1.638   5.690 -0.0740 -0.5966 -0.3483
39738SOL    HW121221   1.315   1.553   5.716  0.6279 -0.5748 -1.2177
39738SOL    HW221222   1.183   1.627   5.700 -0.1240 -2.0604 -2.0346
39739SOL     OW21223   4.797   2.723   5.913  0.5287 -0.5831  0.7221
39739SOL    HW121224   4.832   2.643   5.952 -0.4231 -0.7126  1.3724
39739SOL    HW221225   4.856   2.792   5.943  0.0398 -0.7330  2.1409
39740SOL     OW21226  10.242   5.897   8.966 -0.6262 -0.3148  0.2616
39740SOL    HW121227  10.237   5.830   9.035 -0.1395 -0.2144  0.3973
39740SOL    HW221228  10.256   5.979   9.013 -2.6241  0.1161  0.1920
39741SOL     OW21229   9.866   9.659   3.430 -0.0390 -0.1789 -0.1721
39741SOL    HW121230   9.908   9.678   3.514  0.8193  0.0750 -0.6454
39741SOL    HW221231   9.846   9.566   3.433 -2.2578  0.2911  1.2902
39742SOL     OW21232   0.771   1.160   5.125 -0.2344  0.0123  0.2080
39742SOL    HW121233   0.835   1.221   5.089 -0.0635 -0.3924 -0.1784
39742SOL    HW221234   0.797   1.150   5.217 -1.5140  2.1511  0.8811
39743SOL     OW21235   0.413   6.911   1.199  0.4615 -0.0037  0.5396
39743SOL    HW121236   0.477   6.902   1.128  1.1102  0.2217  1.0901
39743SOL    HW221237   0.331   6.879   1.161  0.0290  3.0408 -1.3446
39744SOL     OW21238  11.054   8.978   0.470 -0.4431 -0.5901 -0.0775
39744SOL    HW121239  11.047   9.069   0.497 -3.1568 -1.0686  1.1678
39744SOL    HW221240  11.142   8.970   0.434  0.1836  2.2846  0.6003
39745SOL     OW21241   3.062   7.345   6.743  0.3091  0.2605 -0.3753
39745SOL    HW121242   2.982   7.391   6.768  1.4068  1.1732  1.6728
39745SOL    HW221243   3.126   7.415   6.728  1.2187 -0.5119 -0.1781
39746SOL     OW21244   7.820   7.350   7.993  0.5439 -0.1807 -0.2434
39746SOL    HW121245   7.738   7.348   7.944  0.2371  1.5450  0.1161
39746SOL    HW221246   7.822   7.268   8.041 -1.4551  0.1190  0.4438
39747SOL     OW21247   2.726   3.987   2.477 -0.5915 -0.0735  0.1101
39747SOL    HW121248   2.674   4.066   2.460 -0.8978 -0.1419  0.7187
39747SOL    HW221249   2.813   4.020   2.498 -0.6225  0.0884 -0.0175
39748SOL     OW21250  10.614  10.579   2.628  0.1015 -0.3634 -0.1424
39748SOL    HW121251  10.586  10.671   2.632  1.0613 -0.0448 -0.3386
39748SOL    HW221252  10.650  10.569   2.540  0.8990 -0.6452  0.2041
39749SOL     OW21253   2.931   3.834   9.080 -0.0728  0.1833  0.4502
39749SOL    HW121254   2.959   3.746   9.054 -1.9977 -0.3772  0.1081
39749SOL    HW221255   2.995   3.861   9.146 -0.0248 -1.9243  1.3463
39750SOL     OW21256   1.951   6.462   3.913 -0.2058 -0.3831 -0.6835
39750SOL    HW121257   1.939   6.384   3.967 -0.5235  0.2923  0.2451
39750SOL    HW221258   1.876   6.461   3.853 -1.4900  0.3873  0.8261
39751SOL     OW21259   1.945   4.494   3.640 -0.0081  0.0477  0.0112
39751SOL    HW121260   1.857   4.524   3.614  0.2446  0.3270 -0.5405
39751SOL    HW221261   1.964   4.422   3.581 -0.3581 -0.8262  0.9345
39752SOL     OW21262   9.007  10.542   8.766 -0.2370  0.0877  0.7366
39752SOL    HW121263   8.916  10.563   8.786 -0.2788  0.3128  0.3241
39752SOL    HW221264   9.038  10.491   8.841 -0.7283 -0.0614  0.8360
39753SOL     OW21265  10.153   5.391   3.819  0.4903  0.0831 -0.9755
39753SOL    HW121266  10.102   5.471   3.801 -1.1994 -1.0435 -1.4439
39753SOL    HW221267  10.244   5.417   3.803 -0.0040  1.9165 -1.0882
39754SOL     OW21268   0.788   1.273  10.037  0.3254 -0.0699 -0.1920
39754SOL    HW121269   0.836   1.208   9.986 -0.2711 -0.3882 -0.3574
39754SOL    HW221270   0.777   1.347   9.977  2.1290  0.7267  0.4042
39755SOL     OW21271   2.878   0.208   5.811  0.5279  0.2400 -0.5268
39755SOL    HW121272   2.818   0.283   5.804 -0.6851 -0.4052  1.8233
39755SOL    HW221273   2.903   0.189   5.721 -1.3918  1.6873 -1.4423
39756SOL     OW21274   7.406  10.740   8.622  0.7706 -0.0572  0.1142
39756SOL    HW121275   7.458  10.776   8.693 -1.4853  0.8590  1.3889
39756SOL    HW221276   7.373  10.816   8.574 -0.1368 -0.5507 -0.0866
39757SOL     OW21277   9.765   7.096   2.524  0.7338  0.6158 -0.0108
39757SOL    HW121278   9.783   7.054   2.608  2.5854  2.5834  0.6693
39757SOL    HW221279   9.686   7.148   2.540  1.3117  1.3051  0.6602
39758SOL     OW21280  10.085   9.147   4.232  0.0111 -0.0730 -0.1846
39758SOL    HW121281  10.126   9.156   4.145  1.0473  0.4239  0.3356
39758SOL    HW221282  10.154   9.108   4.286 -0.2067  0.7604  0.7143
39759SOL     OW21283   6.515   0.358  10.986  0.3060  0.6849  0.0714
39759SOL    HW121284   6.493   0.317  11.069 -0.1481  0.7544 -0.0138
39759SOL    HW221285   6.569   0.433  11.010  0.4304  0.5321  0.2799
39760SOL     OW21286   1.393   8.573   1.483 -0.6266 -0.2434 -0.1959
39760SOL    HW121287   1.461   8.558   1.417  1.8060  1.9249  1.5755
39760SOL    HW221288   1.440   8.615   1.555 -3.7035  0.2585  1.6723
39761SOL     OW21289   4.146   7.368   1.306 -0.3952 -0.5373  0.4607
39761SOL    HW121290   4.124   7.462   1.302  3.3980  0.4789 -0.4413
39761SOL    HW221291   4.120   7.335   1.219  0.7318  0.3845 -0.2580
39762SOL     OW21292  10.269   3.110   5.859  0.6641  0.0833  0.3052
39762SOL    HW121293  10.324   3.032   5.868 -0.0140 -0.4374  0.0569
39762SOL    HW221294  10.181   3.075   5.848  0.3576  0.8922  0.1618
39763SOL     OW21295   0.560   7.855   7.773 -1.0137  0.5662 -0.7774
39763SOL    HW121296   0.556   7.796   7.697 -2.0766  0.8108 -0.9256
39763SOL    HW221297   0.529   7.939   7.739  0.7020  1.2949 -0.6221
39764SOL     OW21298   8.836   4.399   5.486  0.1238 -0.0089  0.4320
39764SOL    HW121299   8.762   4.455   5.463  0.2435  0.0598  0.2089
39764SOL    HW221300   8.906   4.427   5.427 -0.3962 -1.7560 -1.0770
39765SOL     OW21301   9.436   9.019   4.977 -0.3602  0.2191  0.7447
39765SOL    HW121302   9.448   9.016   5.071  0.7462  0.3135  0.6145
39765SOL    HW221303   9.352   9.064   4.965 -0.0952  0.9741  1.6541
39766SOL     OW21304   0.685   1.557   8.241 -0.0011 -0.3547  0.7590
39766SOL    HW121305   0.779   1.564   8.254 -0.0255 -0.2027  0.8551
39766SOL    HW221306   0.658   1.644   8.210  0.0482 -0.6907 -0.2469
39767SOL     OW21307   8.421  10.597  10.653  0.3281 -0.0180 -0.5454
39767SOL    HW121308   8.394  10.519  10.604  0.0616  0.2593 -0.8434
39767SOL    HW221309   8.510  10.615  10.621 -0.0211  0.4363 -1.2798
39768SOL     OW21310   0.018   0.002   0.371 -0.3480 -0.4148  0.6419
39768SOL    HW121311   0.110  -0.020   0.365 -0.0659  0.8044  0.0394
39768SOL    HW221312  -0.010   0.014   0.280 -0.5257  1.3113  0.8805
39769SOL     OW21313   7.034   2.135   6.521  0.3209 -0.6479 -0.2610
39769SOL    HW121314   6.986   2.183   6.453  2.3226  1.4333 -0.3141
39769SOL    HW221315   7.108   2.095   6.475  1.6332  0.6907  0.6004
39770SOL     OW21316   6.188   5.795   6.165 -0.0027  0.2592 -0.0877
39770SOL    HW121317   6.118   5.831   6.219  0.2442  0.0269  0.3931
39770SOL    HW221318   6.151   5.793   6.076 -1.3515 -1.6634  0.4341
39771SOL     OW21319   7.121   3.103   1.769 -0.2261  0.2913  0.0583
39771SOL    HW121320   7.126   3.029   1.829  1.3211 -0.4869 -0.9716
39771SOL    HW221321   7.211   3.119   1.741 -0.4605  2.7932  0.4680
39772SOL     OW21322  10.404  10.753   2.010  0.3713  0.3575 -0.4729
39772SOL    HW121323  10.348  10.803   2.070 -0.2570  1.6396 -2.0531
39772SOL    HW221324  10.486  10.803   2.008  0.2493  0.5408 -0.9741
39773SOL     OW21325   6.746   4.155   9.582 -0.0072 -0.5370  0.3074
39773SOL    HW121326   6.798   4.232   9.605  0.8709 -0.6834 -1.0933
39773SOL    HW221327   6.675   4.190   9.529 -0.4642 -0.5320  0.9105
39774SOL     OW21328   7.044   4.707   4.896 -0.1539 -0.1508 -0.1550
39774SOL    HW121329   6.983   4.771   4.862 -0.3772  0.3342  1.0984
39774SOL    HW221330   7.031   4.629   4.841 -3.8900 -1.0468  1.6882
39775SOL     OW21331   7.679   1.678   0.496 -0.5359  0.4208 -0.2620
39775SOL    HW121332   7.695   1.665   0.590 -1.7447  0.1816 -0.0736
39775SOL    HW221333   7.632   1.761   0.492  1.0162  1.3200 -0.8380
39776SOL     OW21334   6.735   2.763   1.229  0.0962 -0.2774 -0.0185
39776SOL    HW121335   6.779   2.843   1.259  4.6287 -2.6885  0.6609
39776SOL    HW221336   6.718   2.779   1.136  0.9427  1.4470  0.0884
39777SOL     OW21337  11.076   7.858   6.653 -0.2194  0.0861  0.1508
39777SOL    HW121338  11.132   7.914   6.600 -1.9355  2.0885  0.2789
39777SOL    HW221339  11.033   7.800   6.590 -1.5553  1.8285 -0.6498
39778SOL     OW21340   9.009   3.644   4.885  0.0566 -0.0480 -0.5103
39778SOL    HW121341   8.939   3.695   4.927 -2.4136 -2.7652 -1.0259
39778SOL    HW221342   9.023   3.570   4.944  0.9298 -0.7046 -1.5170
39779SOL     OW21343   3.300   4.249  10.501  0.1014  0.1894  0.0631
39779SOL    HW121344   3.246   4.202  10.565 -0.1622  0.7960  0.2920
39779SOL    HW221345   3.236   4.294  10.445  0.3556  0.4502 -0.0189
39780SOL     OW21346   9.175   6.464   7.570 -0.5461 -0.3665 -0.2123
39780SOL    HW121347   9.114   6.537   7.567  0.8605  0.8317 -1.8211
39780SOL    HW221348   9.213   6.467   7.658 -1.4910 -0.0448  0.1938
39781SOL     OW21349   0.638   3.492   6.864 -0.0900 -0.3222  0.2373
39781SOL    HW121350   0.546   3.469   6.855  0.2441 -0.9203 -3.6541
39781SOL    HW221351   0.648   3.574   6.816  1.4077 -0.2998  0.5198
39782SOL     OW21352   5.157   5.841   5.874  0.1336  0.4663 -0.0359
39782SOL    HW121353   5.205   5.763   5.847  1.3409  0.0880  2.8138
39782SOL    HW221354   5.071   5.809   5.900  0.1512  0.3038 -0.1763
39783SOL     OW21355  10.257   8.758   3.509  0.1660 -0.4642 -0.3157
39783SOL    HW121356  10.284   8.735   3.598 -0.0645  0.2366 -0.0591
39783SOL    HW221357  10.285   8.849   3.499  0.5463 -0.6566 -1.1042
39784SOL     OW21358   1.091   0.738   7.670  0.1588  0.6455  0.0242
39784SOL    HW121359   1.138   0.656   7.686 -1.5307 -1.0591 -2.8636
39784SOL    HW221360   1.100   0.753   7.576 -1.8922  2.3056  0.0273
39785SOL     OW21361   4.687   2.974  10.025  0.0048 -0.2545  0.4020
39785SOL    HW121362   4.648   2.914  10.088 -1.1279 -2.2028 -1.9583
39785SOL    HW221363   4.613   3.008   9.974  0.9404  0.1987 -0.7255
39786SOL     OW21364   6.744   4.916   2.738  0.2753 -0.8175 -0.7082
39786SOL    HW121365   6.810   4.872   2.791  0.0374 -1.3207 -0.8230
39786SOL    HW221366   6.679   4.946   2.802  1.6340  1.5852 -0.3403
39787SOL     OW21367   0.760   2.054   2.483 -0.1664  0.1226  0.1496
39787SOL    HW121368   0.746   2.087   2.572 -1.3968  0.7611 -0.2600
39787SOL    HW221369   0.824   1.984   2.493  1.8161  1.9438  1.2150
39788SOL     OW21370   5.602   3.562   0.064 -0.1172  0.1531  0.7752
39788SOL    HW121371   5.616   3.471   0.088  0.2942 -0.1821 -0.6454
39788SOL    HW221372   5.553   3.600   0.137 -0.3968 -1.2308  1.3179
39789SOL     OW21373   4.455   4.909   0.177  0.4001  0.0078 -0.7290
39789SOL    HW121374   4.532   4.923   0.122  1.6576  0.9035  1.1348
39789SOL    HW221375   4.460   4.978   0.243 -1.2787 -0.7198  0.2199
39790SOL     OW21376   4.523   6.107   7.790  0.2263  0.2533 -0.3403
39790SOL    HW121377   4.518   6.021   7.831 -4.4253  0.9690  1.2048
39790SOL    HW221378   4.513   6.169   7.863  2.0417  2.1124 -1.5594
39791SOL     OW21379   7.950   2.056   5.752  0.3562  0.0313 -0.2030
39791SOL    HW121380   7.884   2.124   5.770 -0.0252 -0.1806 -0.7590
39791SOL    HW221381   8.008   2.095   5.686  1.7888  0.8310  1.4670
39792SOL     OW21382   1.969   3.145   7.133  0.9126  0.1953  0.5046
39792SOL    HW121383   1.993   3.087   7.061  0.1302  0.3906  0.0853
39792SOL    HW221384   1.924   3.088   7.195  1.6806  0.0042  0.9081
39793SOL     OW21385   2.042   0.709   0.671 -0.3436 -0.0550  0.2966
39793SOL    HW121386   2.096   0.644   0.627 -0.9307  0.8999 -1.9376
39793SOL    HW221387   2.082   0.717   0.758  1.2128 -1.5960 -0.2125
39794SOL     OW21388   5.522   8.225   1.519  0.2541 -0.2826 -0.2040
39794SOL    HW121389   5.611   8.218   1.553 -0.5748 -1.6894  1.8170
39794SOL    HW221390   5.473   8.156   1.563 -1.6570 -0.1535 -1.9656
39795SOL     OW21391   9.380   5.108   7.576  0.2677 -0.1975 -0.3291
39795SOL    HW121392   9.474   5.126   7.577  0.1198  0.5890 -0.1745
39795SOL    HW221393   9.374   5.012   7.578  1.0645 -0.2552 -0.4300
39796SOL     OW21394   5.258   8.701   8.054  0.1746 -0.3774  0.3014
39796SOL    HW121395   5.223   8.696   7.966 -1.0393 -2.3938  0.8296
39796SOL    HW221396   5.330   8.764   8.048 -1.0488  0.9390 -1.6850
39797SOL     OW21397   1.038   4.223   7.991  0.2451 -0.0431 -0.1301
39797SOL    HW121398   1.009   4.151   7.935  0.0842  1.6992 -2.4595
39797SOL    HW221399   0.956   4.264   8.019  0.3369 -0.7075  1.1700
39798SOL     OW21400   1.447   7.056   0.469  0.3384 -0.2519  0.0149
39798SOL    HW121401   1.444   7.085   0.377 -0.9251 -0.3636 -0.0054
39798SOL    HW221402   1.522   6.997   0.473  0.0986 -0.6749 -1.0946
39799SOL     OW21403   6.318   0.868   5.680  0.2772 -0.0774 -0.3871
39799SOL    HW121404   6.340   0.814   5.604  1.7549  0.5718 -0.4548
39799SOL    HW221405   6.354   0.954   5.659 -0.9896  0.6332  0.2395
39800SOL     OW21406   2.654   4.098   9.082  0.2302  0.3021  1.1563
39800SOL    HW121407   2.578   4.149   9.111  1.1167  1.9827  0.6813
39800SOL    HW221408   2.726   4.161   9.083  1.2460 -0.7835 -0.1616
39801SOL     OW21409   7.090   7.698  10.534 -0.2147 -0.2826  0.4402
39801SOL    HW121410   7.084   7.721  10.441  0.2279 -2.0835 -0.0951
39801SOL    HW221411   6.999   7.699  10.565 -0.2452  1.6937  0.3886
39802SOL     OW21412  10.371  10.229   6.307 -0.0398  0.2460  0.0188
39802SOL    HW121413  10.414  10.151   6.273 -0.6210  0.0340 -0.2333
39802SOL    HW221414  10.432  10.300   6.286 -0.4522  0.1517 -1.6161
39803SOL     OW21415  10.206   8.812  10.674 -0.2223  0.3435 -0.4064
39803SOL    HW121416  10.249   8.878  10.619  0.4345 -0.3518 -0.7426
39803SOL    HW221417  10.279   8.763  10.713 -0.7073 -0.1922 -0.1739
39804SOL     OW21418   9.765   3.126   3.821 -0.4304  0.5139  0.3574
39804SOL    HW121419   9.771   3.134   3.916  0.8964 -0.0909  0.3423
39804SOL    HW221420   9.741   3.214   3.791  1.6400  1.3779  1.0780
39805SOL     OW21421   9.056   6.607   6.029 -0.0273  0.1335  0.0307
39805SOL    HW121422   9.007   6.543   5.978 -1.9740  0.2463  1.6379
39805SOL    HW221423   9.094   6.556   6.101 -0.6703  0.5688  0.6981
39806SOL     OW21424   4.123   1.880   0.050  0.3006 -0.4814  0.2439
39806SOL    HW121425   4.144   1.972   0.068  0.1480 -0.3583 -0.2153
39806SOL    HW221426   4.105   1.876  -0.043  0.3246 -0.9863  0.2546
39807SOL     OW21427   4.825   2.687   1.012 -1.1755 -0.1730  0.2622
39807SOL    HW121428   4.866   2.650   1.090  2.0857 -0.2704 -1.3306
39807SOL    HW221429   4.774   2.616   0.975 -1.4618 -0.5970  1.4304
39808SOL     OW21430   4.809   3.458   2.328 -0.6610 -0.0812  0.2594
39808SOL    HW121431   4.768   3.372   2.335  1.6523 -1.1669  1.4000
39808SOL    HW221432   4.769   3.497   2.250 -1.9940 -2.0245 -0.1006
39809SOL     OW21433  10.878   3.983  10.782 -0.0391  0.4017 -0.1252
39809SOL    HW121434  10.831   3.902  10.801  0.2895 -0.0657 -1.1909
39809SOL    HW221435  10.893   4.024  10.867 -2.8577  0.8534  0.2594
39810SOL     OW21436  10.367   9.262   7.859 -0.3308  0.2311 -0.3070
39810SOL    HW121437  10.459   9.241   7.843 -0.5922 -0.8628 -0.4432
39810SOL    HW221438  10.329   9.272   7.772 -0.4188  0.3338 -0.2572
39811SOL     OW21439   1.359   4.895   6.946 -0.6282 -0.5868 -0.0459
39811SOL    HW121440   1.316   4.834   6.886 -2.5932 -0.0570  0.7448
39811SOL    HW221441   1.287   4.946   6.984  0.7339  0.4579  1.2462
39812SOL     OW21442   6.905   1.774   9.783 -0.4969  0.4698 -0.2247
39812SOL    HW121443   6.864   1.690   9.805 -2.7236  1.7668  0.9899
39812SOL    HW221444   6.942   1.761   9.696 -3.0148 -1.0733 -1.1612
39813SOL     OW21445   4.162   7.487   6.578  0.8784 -0.0292  0.1165
39813SOL    HW121446   4.238   7.543   6.594  1.4642 -1.1647  1.6278
39813SOL    HW221447   4.133   7.460   6.666  0.1102 -1.4005 -0.5180
39814SOL     OW21448   5.017   1.482   2.243 -0.3616  0.1323  1.1213
39814SOL    HW121449   5.017   1.577   2.230  0.3961 -0.0476 -0.3134
39814SOL    HW221450   4.925   1.457   2.242 -0.4836  0.4621 -1.8026
39815SOL     OW21451   7.540   8.385   5.381  0.0495 -0.1545 -0.6203
39815SOL    HW121452   7.571   8.398   5.291  0.4238 -1.8272 -0.7686
39815SOL    HW221453   7.614   8.342   5.425 -0.9031 -1.3151 -0.1134
39816SOL     OW21454   4.491   1.987   7.296  0.0121 -0.5727  0.2116
39816SOL    HW121455   4.419   1.934   7.332  0.0578 -0.5848  0.2861
39816SOL    HW221456   4.567   1.930   7.301 -0.0749 -0.7408 -0.3424
39817SOL     OW21457  10.520   9.694   0.515 -0.4228 -0.3462  0.1229
39817SOL    HW121458  10.538   9.744   0.436  0.9834  0.0634  0.6574
39817SOL    HW221459  10.434   9.654   0.500 -0.6011  0.4764 -1.2016
39818SOL     OW21460   8.643  10.228   3.470  0.9284  0.4934 -0.0552
39818SOL    HW121461   8.617  10.257   3.383 -1.1602 -2.5448 -0.5911
39818SOL    HW221462   8.670  10.137   3.458 -2.8101 -1.2667  2.8324
39819SOL     OW21463   3.203   1.280   0.016 -0.6099 -0.2669  0.3456
39819SOL    HW121464   3.269   1.341   0.049 -0.8777 -0.6586  1.6713
39819SOL    HW221465   3.124   1.333   0.003  0.0073  0.2776 -1.5879
39820SOL     OW21466   3.043   7.361   9.068 -0.3870  0.3024 -0.5075
39820SOL    HW121467   3.106   7.357   9.139 -1.0793 -1.0549  0.0787
39820SOL    HW221468   3.095   7.377   8.989  0.7200 -0.9148 -0.0546
39821SOL     OW21469   5.411   0.039   4.761  0.6606  0.4377  0.1988
39821SOL    HW121470   5.427   0.098   4.687 -3.0495  2.3299  0.6285
39821SOL    HW221471   5.315   0.036   4.768  0.8109 -1.8632  3.2464
39822SOL     OW21472   0.640   0.951   4.212 -0.7288  0.9191 -0.0035
39822SOL    HW121473   0.599   1.005   4.279 -1.9956 -0.6347  0.5260
39822SOL    HW221474   0.592   0.972   4.131 -1.1493  0.6672  0.1796
39823SOL     OW21475   1.666   4.411   7.624  0.7531  0.1451  0.2102
39823SOL    HW121476   1.593   4.461   7.587  0.2947  0.7550  1.8541
39823SOL    HW221477   1.743   4.464   7.605  0.6798 -0.0937 -0.8069
39824SOL     OW21478  10.073   0.425   2.089  0.2795  0.3092  0.3397
39824SOL    HW121479   9.989   0.380   2.080  0.2921  0.3300  0.1214
39824SOL    HW221480  10.063   0.478   2.168  0.3922 -0.3563  0.8095
39825SOL     OW21481   8.891   8.774   8.777  0.3612  0.2088  0.0698
39825SOL    HW121482   8.841   8.781   8.858 -0.8354 -3.0582 -0.2197
39825SOL    HW221483   8.981   8.764   8.806  0.4226  2.2686  0.7760
39826SOL     OW21484   2.659   8.136   2.371  0.1135  0.8616 -0.0082
39826SOL    HW121485   2.728   8.117   2.435 -0.9708 -2.8118  0.3049
39826SOL    HW221486   2.672   8.071   2.302 -1.4556  1.8240 -1.2896
39827SOL     OW21487   2.116   7.175   4.319  0.1268  0.4484 -0.9912
39827SOL    HW121488   2.028   7.138   4.334 -0.7312  2.0734 -1.7449
39827SOL    HW221489   2.112   7.261   4.361  1.7496  0.1250 -0.1022
39828SOL     OW21490   9.361   5.756   7.191 -0.4963  0.1119 -0.4209
39828SOL    HW121491   9.378   5.682   7.132 -1.9194 -0.3604 -0.2732
39828SOL    HW221492   9.438   5.761   7.247  0.1048 -0.5441 -1.1711
39829SOL     OW21493   2.642   6.634   1.677 -0.0086  0.2314 -0.0488
39829SOL    HW121494   2.703   6.661   1.608 -2.5528  1.4667 -1.9595
39829SOL    HW221495   2.658   6.696   1.748  1.3331  0.1670 -0.2643
39830SOL     OW21496   2.580   8.847   7.440 -0.6800 -0.4255 -0.0333
39830SOL    HW121497   2.604   8.924   7.491  1.8144 -0.1781 -1.3961
39830SOL    HW221498   2.544   8.883   7.359 -2.8764 -0.7973  0.7070
39831SOL     OW21499  10.925   2.827   0.186  0.0790 -0.4660 -0.0432
39831SOL    HW121500  10.924   2.921   0.203 -0.6157 -0.3072 -0.8771
39831SOL    HW221501  10.856   2.813   0.121  0.6277 -1.4541 -0.4485
39832SOL     OW21502   5.749   5.635   7.128  0.3102 -0.2422  0.3113
39832SOL    HW121503   5.697   5.643   7.207  0.7496 -0.3518  0.6118
39832SOL    HW221504   5.688   5.655   7.057 -0.9487 -3.3209  0.4078
39833SOL     OW21505   0.333   0.271  10.765  0.1576 -0.1133 -0.2499
39833SOL    HW121506   0.414   0.267  10.714  0.4750 -0.3154  0.2604
39833SOL    HW221507   0.350   0.215  10.841  0.3035  1.4777  0.9340
39834SOL     OW21508   5.606   0.057   9.853 -1.0350 -0.3070 -0.5299
39834SOL    HW121509   5.669   0.109   9.903  2.4471 -2.3689 -2.3594
39834SOL    HW221510   5.597   0.103   9.770 -0.4114 -0.9613 -0.9729
39835SOL     OW21511   9.467   2.708   8.363  0.2516  0.4547  0.7151
39835SOL    HW121512   9.536   2.672   8.308 -1.1656 -1.0321 -0.2027
39835SOL    HW221513   9.498   2.695   8.453  2.5746  2.8700  0.3710
39836SOL     OW21514   6.822   3.829   1.170  0.5799  0.5079 -0.1270
39836SOL    HW121515   6.765   3.900   1.200  0.9125  0.6351  0.2154
39836SOL    HW221516   6.795   3.813   1.080 -0.9125 -0.3408  0.4299
39837SOL     OW21517   4.326   8.705   4.690 -0.3862  0.1008 -0.2505
39837SOL    HW121518   4.246   8.668   4.726 -2.3125  1.3888 -2.8552
39837SOL    HW221519   4.349   8.776   4.750 -1.2054 -0.2688  0.5170
39838SOL     OW21520   2.873   6.027   8.587 -0.5275  0.1588  0.2609
39838SOL    HW121521   2.888   5.933   8.575  0.0846  0.1301  1.1052
39838SOL    HW221522   2.961   6.064   8.596 -0.7909  0.7094  0.6545
39839SOL     OW21523   3.216   3.299   4.149 -0.5847 -0.3931 -0.1659
39839SOL    HW121524   3.144   3.247   4.114  0.0646  0.2518 -2.6310
39839SOL    HW221525   3.274   3.234   4.190 -1.1901 -1.2407 -0.6285
39840SOL     OW21526   7.620  10.903   6.218  0.2700  1.0224 -0.0196
39840SOL    HW121527   7.633  10.972   6.152 -0.2353 -0.0465 -1.2664
39840SOL    HW221528   7.691  10.841   6.202  0.7028  1.2024  1.0831
39841SOL     OW21529   3.657  10.302   4.291 -0.4239 -0.4303 -0.2805
39841SOL    HW121530   3.645  10.262   4.206  0.7706  0.1829 -0.7682
39841SOL    HW221531   3.569  10.316   4.325 -0.8819 -2.3266 -0.6086
39842SOL     OW21532   9.172   8.546   4.945 -0.6019 -0.6731  0.0833
39842SOL    HW121533   9.199   8.637   4.958 -0.4325 -0.3687 -1.9890
39842SOL    HW221534   9.099   8.552   4.883 -1.2727 -1.9008  0.7286
39843SOL     OW21535   2.842   6.325   0.025 -0.3109 -0.2755  0.4961
39843SOL    HW121536   2.826   6.232   0.009 -0.1408 -0.6286  2.1277
39843SOL    HW221537   2.754   6.362   0.039 -0.5242  0.1802 -1.7006
39844SOL     OW21538  10.461   7.226   5.668 -0.1515 -0.0907 -0.4934
39844SOL    HW121539  10.369   7.248   5.649  0.0190  1.3305  0.2538
39844SOL    HW221540  10.494   7.299   5.719  0.7082 -1.7298  1.4278
39845SOL     OW21541  10.190   5.188   2.889 -0.0754  0.1285  0.4069
39845SOL    HW121542  10.123   5.119   2.886  0.8032 -0.8209  1.6785
39845SOL    HW221543  10.148   5.259   2.937 -1.4507  1.0780 -2.0274
39846SOL     OW21544   9.340   8.198   0.477  0.1785 -0.2132  0.1763
39846SOL    HW121545   9.284   8.266   0.440 -0.3115 -0.1112  1.0846
39846SOL    HW221546   9.413   8.192   0.415  0.1587  1.0291  0.0024
39847SOL     OW21547  10.302   4.190   3.191 -1.0023 -0.4752 -0.4020
39847SOL    HW121548  10.247   4.244   3.134  0.3959 -0.4841 -1.8303
39847SOL    HW221549  10.334   4.250   3.258 -1.5488 -0.1362 -0.4441
39848SOL     OW21550   3.242   3.709   9.088 -0.2744 -0.2008  0.2760
39848SOL    HW121551   3.249   3.788   9.034  0.7872 -0.2970  0.2524
39848SOL    HW221552   3.226   3.638   9.026  0.4023 -0.2335  0.1341
39849SOL     OW21553   4.604   7.978   7.305  0.4276 -0.4178  0.1517
39849SOL    HW121554   4.671   8.044   7.321  1.9202 -0.9743 -3.0414
39849SOL    HW221555   4.587   7.983   7.211 -3.0127 -1.3322  0.5593
39850SOL     OW21556   0.105   6.353   5.207  0.6541  0.3209  0.0672
39850SOL    HW121557   0.033   6.334   5.267  0.5461 -1.6417 -0.6247
39850SOL    HW221558   0.064   6.407   5.139 -0.6310 -1.9986 -1.1257
39851SOL     OW21559   2.649   2.413   6.197 -0.3264 -0.3631 -0.3513
39851SOL    HW121560   2.635   2.485   6.258 -2.8521 -0.9760 -0.1017
39851SOL    HW221561   2.723   2.364   6.235  1.0220  1.6866 -0.2092
39852SOL     OW21562   8.332   8.215   4.455  0.2805 -0.1269 -0.2822
39852SOL    HW121563   8.326   8.294   4.509  0.4238 -0.3050  0.0027
39852SOL    HW221564   8.303   8.145   4.514  2.0359 -0.5662  0.1237
39853SOL     OW21565   3.650   3.147   5.625  0.0833  0.2126  0.0824
39853SOL    HW121566   3.619   3.118   5.711  2.1272 -3.3200 -0.1747
39853SOL    HW221567   3.698   3.227   5.643 -1.3469  0.7451  1.8401
39854SOL     OW21568   5.540  10.007   1.610 -0.7611  0.1801 -0.0499
39854SOL    HW121569   5.494  10.028   1.529 -0.5507  1.0997  0.0514
39854SOL    HW221570   5.478   9.954   1.660 -1.1258  0.1207 -0.5549
39855SOL     OW21571  11.023   3.272   9.564 -0.1565  0.1018  0.0262
39855SOL    HW121572  11.049   3.180   9.567 -1.5011 -0.2902  0.0464
39855SOL    HW221573  11.100   3.319   9.598  1.5660 -0.7672 -2.3928
39856SOL     OW21574   5.672   6.980   2.317 -0.0798  0.5869 -0.1117
39856SOL    HW121575   5.685   7.031   2.397 -2.0844  0.3809  0.3914
39856SOL    HW221576   5.578   6.963   2.314  0.2235 -1.1856 -1.4339
39857SOL     OW21577   1.677   8.723   2.375 -0.1154  0.1644  0.3185
39857SOL    HW121578   1.697   8.631   2.393 -1.9258  0.0791  2.4136
39857SOL    HW221579   1.653   8.759   2.461 -0.2312  2.3852 -0.5904
39858SOL     OW21580   6.340   8.634   4.304  0.3128  0.1278 -0.1327
39858SOL    HW121581   6.432   8.626   4.279  0.0757  0.9568 -1.3774
39858SOL    HW221582   6.299   8.680   4.230 -1.3860 -1.4384 -0.2507
39859SOL     OW21583   3.762   0.047   9.762  0.5106 -0.2322 -0.1189
39859SOL    HW121584   3.853   0.025   9.782  0.2729 -1.0074  0.1361
39859SOL    HW221585   3.710  -0.020   9.807 -0.2603  0.9885  0.9075
39860SOL     OW21586   0.895   8.342   5.180 -0.2736 -0.5276 -0.0785
39860SOL    HW121587   0.990   8.349   5.187 -0.2617 -1.1285  0.3743
39860SOL    HW221588   0.873   8.259   5.223 -0.9988 -0.4056 -0.1985
39861SOL     OW21589   7.566   4.298   7.021 -0.0606  0.2986  0.2057
39861SOL    HW121590   7.629   4.226   7.020 -0.2275  0.1535 -0.9351
39861SOL    HW221591   7.617   4.374   6.990  0.3468  0.8978  2.2068
39862SOL     OW21592   3.047   1.216   3.950 -0.2828 -0.3143  0.2790
39862SOL    HW121593   2.953   1.216   3.930 -0.5020 -0.1311  1.2741
39862SOL    HW221594   3.055   1.162   4.028  0.7215 -2.0899 -0.9781
39863SOL     OW21595   4.410  10.197   1.520  0.0802 -0.3241 -0.3021
39863SOL    HW121596   4.375  10.226   1.604 -0.0956 -1.7596  0.1475
39863SOL    HW221597   4.419  10.278   1.469 -2.1018  0.3090  0.2145
39864SOL     OW21598   6.324  10.170   4.649 -0.1928  0.0622  0.3711
39864SOL    HW121599   6.258  10.104   4.669  0.9341 -1.8930 -1.8274
39864SOL    HW221600   6.302  10.200   4.561  1.1934  0.1851  0.0470
39865SOL     OW21601   8.321   9.539   8.834 -0.2024 -0.0284  0.0756
39865SOL    HW121602   8.229   9.517   8.847 -1.1448  3.8814  1.2635
39865SOL    HW221603   8.322   9.595   8.756  1.8712 -3.0352 -2.3043
39866SOL     OW21604  10.396   5.463   6.136 -0.4896 -0.0856 -0.6444
39866SOL    HW121605  10.485   5.431   6.117 -0.1545  0.0836  0.5616
39866SOL    HW221606  10.367   5.501   6.054  0.9905  0.8517 -0.7804
39867SOL     OW21607   9.835  11.013   3.528 -0.1957 -0.0268  0.2759
39867SOL    HW121608   9.808  11.095   3.569 -1.0846 -0.0480 -0.2517
39867SOL    HW221609   9.754  10.974   3.496  0.1599 -1.3062  0.8494
39868SOL     OW21610   7.134  10.409   3.512 -0.3067 -0.3486  0.0189
39868SOL    HW121611   7.125  10.359   3.593  2.1847 -1.7027 -0.4406
39868SOL    HW221612   7.067  10.373   3.453 -1.4047 -0.0969  1.0747
39869SOL     OW21613   6.649   4.652   3.348  0.5147  0.0554 -0.1099
39869SOL    HW121614   6.660   4.618   3.259  1.1174 -2.0040  0.7035
39869SOL    HW221615   6.675   4.580   3.405 -0.0408  1.2612  1.7606
39870SOL     OW21616   7.309   1.939   7.032 -0.5999  0.3318 -0.2394
39870SOL    HW121617   7.238   2.004   7.034 -0.9457 -0.0225 -0.7179
39870SOL    HW221618   7.350   1.953   6.946 -0.4158  0.1902 -0.1729
39871SOL     OW21619   7.254   7.851   7.414  0.7950  0.1320  0.2758
39871SOL    HW121620   7.347   7.829   7.403  0.5704 -0.0978 -1.4220
39871SOL    HW221621   7.256   7.943   7.443  1.5538  0.5128 -0.8775
39872SOL     OW21622   2.533   4.932   0.488 -0.4219  0.0626 -0.7373
39872SOL    HW121623   2.626   4.956   0.487 -0.3595 -0.1860 -1.9409
39872SOL    HW221624   2.507   4.931   0.396 -1.5639 -0.0994 -0.4273
39873SOL     OW21625   4.851   7.081   5.116 -0.6722 -0.0139  0.2818
39873SOL    HW121626   4.868   7.174   5.098 -1.1724  0.0418  0.0857
39873SOL    HW221627   4.910   7.035   5.056 -0.0598  0.1754  0.7347
39874SOL     OW21628   6.468   3.360   3.448  0.4081 -0.1687 -0.0156
39874SOL    HW121629   6.503   3.351   3.360 -1.3900 -2.1331 -0.5966
39874SOL    HW221630   6.525   3.305   3.502 -0.6948 -2.0422 -0.6716
39875SOL     OW21631   8.352   5.590   2.063  1.1514 -0.2068 -0.2663
39875SOL    HW121632   8.363   5.560   1.972 -0.7445 -1.2603 -0.1952
39875SOL    HW221633   8.304   5.673   2.055  1.0028 -0.2891 -0.2194
39876SOL     OW21634  10.613   0.339   8.250 -0.3113  0.4251  0.4636
39876SOL    HW121635  10.557   0.382   8.315 -0.5649 -0.4926  0.8735
39876SOL    HW221636  10.554   0.320   8.177 -0.9397 -1.8004  1.4528
39877SOL     OW21637   4.107   3.387   6.791 -0.1817  0.2643 -0.6160
39877SOL    HW121638   4.178   3.409   6.851  1.3208 -3.1492 -0.8942
39877SOL    HW221639   4.027   3.415   6.835  1.1693  2.6629  0.4830
39878SOL     OW21640   5.028   0.440   3.102  0.4945 -0.8343  0.1241
39878SOL    HW121641   5.078   0.509   3.057 -1.7711  0.4268 -0.6466
39878SOL    HW221642   4.969   0.406   3.035 -3.6534  1.7127  2.0527
39879SOL     OW21643   7.663   1.313   4.695 -0.1520  0.1120  0.3320
39879SOL    HW121644   7.627   1.399   4.671 -0.0920  0.6624  2.0587
39879SOL    HW221645   7.644   1.257   4.620 -1.6136  1.2348 -0.1818
39880SOL     OW21646   6.196   4.764   2.371  0.0402 -0.7102  0.2177
39880SOL    HW121647   6.206   4.668   2.370 -0.6722 -0.9565 -4.4205
39880SOL    HW221648   6.284   4.797   2.355  0.1022 -0.6098  0.7425
39881SOL     OW21649   8.364   8.144   2.797 -0.3611  0.4529 -0.2530
39881SOL    HW121650   8.357   8.049   2.795 -0.5932  0.3978  1.3886
39881SOL    HW221651   8.283   8.175   2.757  0.8150  0.0354 -3.1787
39882SOL     OW21652   3.096   8.839  10.900 -0.1422 -0.3053  0.1153
39882SOL    HW121653   3.043   8.847  10.979 -1.5440  2.5814 -0.9935
39882SOL    HW221654   3.102   8.744  10.885 -3.1620 -0.8441  1.4971
39883SOL     OW21655  10.980  10.911   7.301 -0.6956  0.5393 -0.0422
39883SOL    HW121656  11.075  10.902   7.291 -0.5014  1.5211  0.6950
39883SOL    HW221657  10.943  10.844   7.244  0.4714 -0.9550  0.8528
39884SOL     OW21658  10.312   3.015   4.374 -0.4541  0.3416  0.2808
39884SOL    HW121659  10.314   2.993   4.281  0.1681 -0.5490  0.4907
39884SOL    HW221660  10.365   2.947   4.416 -1.1930  0.4088  1.3570
39885SOL     OW21661   0.222   1.797  10.778  0.2956  0.7313 -0.1599
39885SOL    HW121662   0.196   1.726  10.719 -2.3108  1.5078 -0.0578
39885SOL    HW221663   0.293   1.760  10.830 -1.5570 -2.1457  0.5376
39886SOL     OW21664   5.811   6.661   5.872 -0.1808  0.2097  0.0488
39886SOL    HW121665   5.772   6.650   5.959 -1.1725  0.5945 -0.3332
39886SOL    HW221666   5.879   6.728   5.884 -0.8547  0.8469  0.3777
39887SOL     OW21667   4.267  10.421   0.034  0.5146 -0.2169  0.0095
39887SOL    HW121668   4.334  10.429  -0.035 -0.1622 -4.0462 -1.3065
39887SOL    HW221669   4.298  10.350   0.089 -0.0930  1.3106  2.4703
39888SOL     OW21670   4.309   4.231   5.941  0.3503  0.3082  0.0951
39888SOL    HW121671   4.243   4.178   5.984 -1.2746  2.0457 -0.1128
39888SOL    HW221672   4.376   4.169   5.912 -1.3540 -1.5626 -0.0002
39889SOL     OW21673   7.999   1.748   9.871  0.0346  0.0302  0.6896
39889SOL    HW121674   8.013   1.722   9.780 -0.3172  2.7720 -0.2472
39889SOL    HW221675   7.910   1.717   9.891 -0.5176  0.7797 -0.4824
39890SOL     OW21676   4.757  10.132   0.813  0.5453  0.3439 -0.8452
39890SOL    HW121677   4.829  10.075   0.787  0.4620  0.7816 -2.0507
39890SOL    HW221678   4.772  10.147   0.907  0.6816 -1.4811 -0.5254
39891SOL     OW21679   4.479   5.047   1.192  0.0821  0.2713 -0.3762
39891SOL    HW121680   4.523   5.046   1.107  3.3124 -2.1240  1.0824
39891SOL    HW221681   4.418   4.973   1.189  2.0634 -1.4680  0.1166
39892SOL     OW21682   2.788   2.545   9.993  0.0508  0.4571 -0.4632
39892SOL    HW121683   2.844   2.622  10.002 -0.3616  0.9038 -1.6659
39892SOL    HW221684   2.830   2.492   9.925  0.9841 -0.9874  1.1547
39893SOL     OW21685   8.362   3.464   3.308  0.0515  0.0590  0.7804
39893SOL    HW121686   8.434   3.525   3.292 -0.1540 -0.1424 -1.1170
39893SOL    HW221687   8.362   3.451   3.403  0.2877  2.7732  1.2312
39894SOL     OW21688   5.155   3.702   0.269 -0.4478  0.2993 -0.0365
39894SOL    HW121689   5.245   3.729   0.289 -0.7061  2.1129 -1.1732
39894SOL    HW221690   5.116   3.684   0.355  1.1362 -1.1607  0.4509
39895SOL     OW21691   3.044   1.919   8.971 -0.3077  0.4224 -0.0411
39895SOL    HW121692   3.074   1.898   9.059  0.0920  0.1304 -0.2449
39895SOL    HW221693   3.069   1.843   8.918 -0.7521  0.4936 -0.3599
39896SOL     OW21694   1.388   9.898   3.801  0.5188  0.6245  0.0782
39896SOL    HW121695   1.330   9.842   3.750  0.7556  0.0712  0.3994
39896SOL    HW221696   1.335   9.928   3.875 -0.0413  2.0040 -0.8410
39897SOL     OW21697   6.571   1.099   2.091  0.3112  1.0217 -0.5680
39897SOL    HW121698   6.548   1.007   2.078  0.6744  0.0793  3.8498
39897SOL    HW221699   6.490   1.140   2.121  0.8215  1.3748  0.3570
39898SOL     OW21700   2.268   0.209   7.120 -0.1837  0.2813  1.0904
39898SOL    HW121701   2.343   0.269   7.126  0.2007 -0.2021  1.1496
39898SOL    HW221702   2.195   0.265   7.093  0.3276  0.6561  0.4515
39899SOL     OW21703   1.877   2.811   5.187 -0.4713  0.5482  0.2016
39899SOL    HW121704   1.783   2.827   5.198 -0.8590 -1.7315  0.6991
39899SOL    HW221705   1.911   2.810   5.277  0.1595  1.8080  0.0045
39900SOL     OW21706   3.564  10.011   8.960 -0.9109 -0.2708 -0.6703
39900SOL    HW121707   3.588  10.089   8.910 -0.9441  0.8521  0.9851
39900SOL    HW221708   3.607   9.939   8.914  2.1961  1.1440 -0.2635
39901SOL     OW21709   1.820   5.583   1.431 -0.2195  0.1363 -0.5537
39901SOL    HW121710   1.768   5.510   1.466  0.9697 -0.7664 -0.6027
39901SOL    HW221711   1.761   5.658   1.434 -0.2803  0.1382  3.2779
39902SOL     OW21712  10.781   9.029   5.631 -0.2280  0.7242  0.3158
39902SOL    HW121713  10.752   9.058   5.544 -0.4910  0.8129  0.4321
39902SOL    HW221714  10.720   9.071   5.692 -2.5426 -2.3828  0.3751
39903SOL     OW21715   8.367   2.836   2.625  0.7519  0.1866  0.0069
39903SOL    HW121716   8.278   2.819   2.656  0.8914 -1.7899 -0.5493
39903SOL    HW221717   8.357   2.855   2.532  0.8630  0.5329  0.0640
39904SOL     OW21718   0.932   5.165   8.094  0.0533 -0.4305  0.1486
39904SOL    HW121719   0.897   5.090   8.142 -0.9318 -1.8882 -2.5840
39904SOL    HW221720   0.858   5.196   8.041  1.4799 -0.1197 -1.7813
39905SOL     OW21721   5.199   9.234  10.961 -0.7816  0.6896 -0.3193
39905SOL    HW121722   5.221   9.327  10.968  1.9680  0.3339 -2.3880
39905SOL    HW221723   5.207   9.215  10.867  3.1907 -2.4614  0.3793
39906SOL     OW21724   2.530  10.511   4.565 -0.2957 -0.2029 -0.2819
39906SOL    HW121725   2.618  10.545   4.577 -1.0379  1.4940  0.8206
39906SOL    HW221726   2.485  10.578   4.512 -1.0765 -0.7609 -0.3526
39907SOL     OW21727   7.862  11.029   9.941  0.2300  0.5895  0.6181
39907SOL    HW121728   7.768  11.047   9.948  0.2395  0.2011  2.2982
39907SOL    HW221729   7.867  10.949   9.889 -0.1103  2.3302 -2.3318
39908SOL     OW21730   0.986   6.982  10.484  0.7406 -0.0716 -0.2818
39908SOL    HW121731   0.969   6.898  10.528  0.2500  0.9618  1.5996
39908SOL    HW221732   0.969   6.964  10.391 -3.5620 -1.0305  0.4948
39909SOL     OW21733   3.010   2.255   0.527  0.0887 -0.4393 -1.4904
39909SOL    HW121734   2.997   2.211   0.611  1.0870 -1.1209 -1.6826
39909SOL    HW221735   2.923   2.288   0.504 -0.4661 -1.4031 -0.8327
39910SOL     OW21736   0.828   6.591   3.805  0.2488 -0.4549 -0.0450
39910SOL    HW121737   0.774   6.665   3.777 -0.4227 -0.8578  0.1795
39910SOL    HW221738   0.912   6.632   3.830  0.6639 -0.0075 -1.9680
39911SOL     OW21739   7.558   3.788   4.539 -0.4205  0.2068  0.0707
39911SOL    HW121740   7.509   3.838   4.604 -0.2445 -0.1782  0.5110
39911SOL    HW221741   7.592   3.713   4.588 -1.5445 -0.9086 -0.7914
39912SOL     OW21742   7.718   9.898   9.250  0.3715  0.0768 -0.3035
39912SOL    HW121743   7.742   9.983   9.213  1.1296 -0.3344 -0.7870
39912SOL    HW221744   7.798   9.846   9.244  0.2677 -0.2869  1.1315
39913SOL     OW21745   1.649   5.257   9.528  0.7338 -0.4035 -0.2962
39913SOL    HW121746   1.709   5.250   9.603  0.0294  0.0150  0.3223
39913SOL    HW221747   1.688   5.201   9.461 -0.4993 -3.8842  1.6373
39914SOL     OW21748   8.779   9.149   5.944 -0.2604  0.2159 -0.0645
39914SOL    HW121749   8.749   9.239   5.929 -2.3582 -0.7075 -2.0046
39914SOL    HW221750   8.830   9.128   5.866 -0.3879 -0.5099  0.0455
39915SOL     OW21751   6.468   8.172   6.285  0.4007  0.0720  0.4575
39915SOL    HW121752   6.498   8.177   6.376 -0.8303  0.8230  0.8370
39915SOL    HW221753   6.398   8.107   6.286 -0.1090  0.6061  0.1947
39916SOL     OW21754   6.110   6.832   8.754  0.5529 -0.3122  0.0192
39916SOL    HW121755   6.065   6.763   8.803  1.9947 -2.2563 -1.2423
39916SOL    HW221756   6.175   6.866   8.815  1.5365 -1.8904 -0.0882
39917SOL     OW21757   9.040   6.837   8.046 -0.0892 -0.5487 -0.4068
39917SOL    HW121758   9.096   6.763   8.073  0.7752  1.2427  3.3613
39917SOL    HW221759   9.096   6.914   8.056 -2.1347  0.9996 -0.2917
39918SOL     OW21760   1.600  10.530   3.826 -0.0619 -0.2924 -0.3622
39918SOL    HW121761   1.633  10.442   3.843  1.3165  0.4604  1.1892
39918SOL    HW221762   1.585  10.532   3.731  0.4560 -1.9927 -0.5133
39919SOL     OW21763   8.793   7.107   5.085 -0.7763 -0.2690 -0.3577
39919SOL    HW121764   8.877   7.139   5.117 -0.4577 -0.8291 -0.6264
39919SOL    HW221765   8.789   7.135   4.994 -1.1876  0.3468 -0.1586
39920SOL     OW21766  10.159   8.765   4.753 -0.1926 -0.0269  0.3250
39920SOL    HW121767  10.102   8.842   4.748  0.3696  0.3647 -0.2384
39920SOL    HW221768  10.111   8.697   4.707 -1.5848 -0.6124  2.5098
39921SOL     OW21769   0.199   2.763   9.240 -0.2892 -0.1796  0.1348
39921SOL    HW121770   0.265   2.796   9.300  0.3562 -0.9959 -0.0985
39921SOL    HW221771   0.200   2.823   9.166 -0.6005  0.4382  0.6287
39922SOL     OW21772   7.669  10.877   8.632 -0.2459 -0.0343  0.0373
39922SOL    HW121773   7.750  10.922   8.656 -0.4564  0.7727 -0.7314
39922SOL    HW221774   7.619  10.873   8.714  1.8261 -3.4042  1.3686
39923SOL     OW21775   4.881   9.822   1.362  0.3830 -0.4588 -0.3170
39923SOL    HW121776   4.796   9.846   1.324  0.3515 -1.1504 -0.7027
39923SOL    HW221777   4.930   9.785   1.289  0.6316 -1.0449  0.1376
39924SOL     OW21778   0.399  10.875   7.589 -0.5320 -0.1264  0.7114
39924SOL    HW121779   0.492  10.852   7.595 -0.5969 -0.3051  1.0239
39924SOL    HW221780   0.399  10.962   7.548 -0.2562 -0.3823  0.1653
39925SOL     OW21781   0.617   9.460   1.251  0.1185  0.4661  0.0233
39925SOL    HW121782   0.577   9.461   1.338  1.7282 -2.0117  0.9005
39925SOL    HW221783   0.711   9.448   1.268  0.3116 -1.6448 -1.9958
39926SOL     OW21784   2.226   2.132   7.532  0.2712 -0.0142  0.4711
39926SOL    HW121785   2.234   2.228   7.539  0.1256 -0.0031  0.4868
39926SOL    HW221786   2.137   2.118   7.501 -0.3959 -0.2163  2.3401
39927SOL     OW21787  10.226  10.504   5.294 -0.0795  0.3589 -0.2023
39927SOL    HW121788  10.219  10.599   5.296 -0.9390  0.3016  0.7538
39927SOL    HW221789  10.263  10.481   5.379 -1.0610 -0.2128  0.0953
39928SOL     OW21790   8.975   6.003   3.576  0.0850  0.2018 -0.0577
39928SOL    HW121791   9.000   5.917   3.610  0.4738 -0.3314 -1.6185
39928SOL    HW221792   9.028   6.014   3.497 -0.3074  1.6732 -0.1351
39929SOL     OW21793   1.578   7.233   2.119  0.0985 -0.1623  0.0723
39929SOL    HW121794   1.664   7.192   2.130 -0.3929 -0.8069  1.8454
39929SOL    HW221795   1.529   7.170   2.066  0.0307 -0.8785  0.9638
39930SOL     OW21796   2.185  10.696   9.751 -0.0287  0.5802 -0.3225
39930SOL    HW121797   2.193  10.718   9.658 -0.6088 -0.1885 -0.5616
39930SOL    HW221798   2.225  10.609   9.758 -0.7809  0.2570 -0.0133
39931SOL     OW21799   6.205   2.185   1.167  0.2719 -0.7303  0.5704
39931SOL    HW121800   6.244   2.272   1.176 -0.0703 -0.6684  1.4928
39931SOL    HW221801   6.120   2.201   1.127  0.1288 -0.6227  0.9183
39932SOL     OW21802   6.451   6.115   6.836  0.2176 -0.2376 -0.1136
39932SOL    HW121803   6.452   6.067   6.919 -1.3272  1.3025  0.8521
39932SOL    HW221804   6.358   6.129   6.817  0.5661  0.1303 -1.7155
39933SOL     OW21805  10.786   5.069   3.783  0.7362 -0.6421  0.8371
39933SOL    HW121806  10.756   5.079   3.873  0.5492 -0.0753  0.7134
39933SOL    HW221807  10.879   5.091   3.787 -0.1203  4.1192  0.1279
39934SOL     OW21808   9.473   9.929   2.503 -0.1385 -0.7063  0.3160
39934SOL    HW121809   9.521   9.849   2.528  1.8118  0.0831 -0.7058
39934SOL    HW221810   9.483   9.934   2.408 -4.3228 -1.6994 -0.3926
39935SOL     OW21811   6.441   0.804   3.798  0.2881 -0.6998 -0.4791
39935SOL    HW121812   6.517   0.859   3.782  0.5411 -0.5948  0.9868
39935SOL    HW221813   6.407   0.784   3.710 -0.4688  2.6262 -1.0574
39936SOL     OW21814   2.776  10.691   9.149 -0.1983  0.0959 -0.3524
39936SOL    HW121815   2.860  10.650   9.129  1.1058  1.0466  2.6295
39936SOL    HW221816   2.711  10.621   9.132  1.4464 -1.5610 -0.1224
39937SOL     OW21817   3.654   5.915   1.119  0.4482 -0.4318 -0.1125
39937SOL    HW121818   3.732   5.929   1.065  0.4669  0.7049  0.2032
39937SOL    HW221819   3.678   5.947   1.206 -1.2543  2.6144 -0.6436
39938SOL     OW21820   5.673   7.607   8.292  0.5932  0.0000  0.1874
39938SOL    HW121821   5.651   7.596   8.385  0.5313 -2.1760 -0.0264
39938SOL    HW221822   5.625   7.537   8.248  2.8459 -0.8332 -1.1112
39939SOL     OW21823   5.731  11.099   0.554  0.0842  0.4231  0.1749
39939SOL    HW121824   5.696  11.084   0.642 -0.7142  0.4760 -0.1209
39939SOL    HW221825   5.683  11.175   0.522  0.6863  0.6681 -0.1408
39940SOL     OW21826   6.921   3.866  10.942 -0.4283 -0.6809  0.0423
39940SOL    HW121827   6.989   3.815  10.987 -0.4446 -1.7755 -1.1088
39940SOL    HW221828   6.964   3.949  10.920 -0.2599 -0.3350  1.5503
39941SOL     OW21829   9.938   2.633   3.779 -0.6811 -0.0334  0.2342
39941SOL    HW121830   9.929   2.694   3.852  0.2564 -0.5115  0.7679
39941SOL    HW221831   9.944   2.689   3.702 -0.6086  0.5214  0.6351
39942SOL     OW21832   5.320   8.283   4.318  0.0636  0.3364 -0.5546
39942SOL    HW121833   5.378   8.313   4.247 -1.1807 -1.1190 -2.2802
39942SOL    HW221834   5.378   8.237   4.378  1.3249  2.5180 -0.0096
39943SOL     OW21835   6.877   5.972  10.359  0.3552 -0.4431  0.4634
39943SOL    HW121836   6.911   5.923  10.435 -0.1170 -2.8132 -0.7750
39943SOL    HW221837   6.944   5.962  10.292 -0.6468 -1.1743 -0.4707
39944SOL     OW21838   4.250   9.055   4.996  0.2831 -0.3962 -0.1720
39944SOL    HW121839   4.196   9.011   5.061  1.1938  1.2979  1.8910
39944SOL    HW221840   4.328   9.082   5.045  0.6480  1.6933 -1.7475
39945SOL     OW21841   8.902   1.985   8.352  0.0838 -0.0301 -0.6840
39945SOL    HW121842   8.929   2.071   8.386 -0.3960  0.7218 -2.0897
39945SOL    HW221843   8.981   1.950   8.311  0.2447 -0.1876 -0.2366
39946SOL     OW21844   1.924   2.267   3.518 -0.0154  0.7327  0.0001
39946SOL    HW121845   1.985   2.272   3.591 -0.9230  1.3257  0.7342
39946SOL    HW221846   1.972   2.303   3.444  1.1763 -0.5426  0.0999
39947SOL     OW21847  11.071   6.829   2.213  0.2725  1.0130  0.5165
39947SOL    HW121848  11.125   6.750   2.219 -0.6526  0.2711 -0.4998
39947SOL    HW221849  11.133   6.899   2.195  1.2959  0.8257  2.9264
39948SOL     OW21850   5.964  10.459   9.321  0.4539  0.1132 -0.3580
39948SOL    HW121851   5.875  10.452   9.287  0.1119  4.0550 -0.8137
39948SOL    HW221852   6.011  10.385   9.283 -2.1781 -1.0475 -1.5869
39949SOL     OW21853   2.536  10.380  10.695 -0.1083 -0.3663  0.1707
39949SOL    HW121854   2.543  10.469  10.661 -1.1045 -0.4941 -0.3931
39949SOL    HW221855   2.605  10.375  10.761  2.1590 -0.2397 -2.0526
39950SOL     OW21856   9.644   9.294   3.107 -0.1480 -0.5355  0.7205
39950SOL    HW121857   9.603   9.209   3.122 -1.3407 -0.4056 -1.4325
39950SOL    HW221858   9.725   9.274   3.059 -0.9011 -0.4389 -0.6316
39951SOL     OW21859   1.443   3.084   0.926  0.4919  0.3200 -0.4126
39951SOL    HW121860   1.482   3.159   0.970  0.7977  0.6068 -1.1473
39951SOL    HW221861   1.354   3.113   0.904  0.3721  0.2119 -0.0643
39952SOL     OW21862   0.758   5.053   1.640 -0.3126  1.1478 -0.1006
39952SOL    HW121863   0.728   4.975   1.686  1.9138  1.1822  1.6032
39952SOL    HW221864   0.734   5.039   1.549 -1.3456 -0.7873  0.4247
39953SOL     OW21865   4.418   9.534   3.532 -0.2646 -0.0515 -0.1163
39953SOL    HW121866   4.446   9.624   3.550  2.1659 -0.9446  1.1683
39953SOL    HW221867   4.473   9.506   3.459 -2.4954  0.0959 -1.9516
39954SOL     OW21868   0.470   7.209   9.136 -0.0719 -0.3533  0.3997
39954SOL    HW121869   0.397   7.246   9.085  0.8428  0.6560 -0.2419
39954SOL    HW221870   0.547   7.252   9.100  0.7248 -0.4645  1.9160
39955SOL     OW21871   4.565   3.384   3.770  0.5338  0.4411 -0.3749
39955SOL    HW121872   4.479   3.379   3.728  0.3235 -0.3765  0.1291
39955SOL    HW221873   4.611   3.454   3.723 -0.7949  1.6722  0.0790
39956SOL     OW21874   7.417   6.750  10.028  0.7395 -0.1308 -1.2465
39956SOL    HW121875   7.409   6.725  10.120  2.4242  1.6574 -0.5391
39956SOL    HW221876   7.332   6.788  10.006 -0.0515 -1.5441 -0.8073
39957SOL     OW21877  10.617   3.733   0.801 -0.2124  0.1450 -0.2472
39957SOL    HW121878  10.639   3.763   0.713  0.6828 -1.1900 -0.5113
39957SOL    HW221879  10.521   3.739   0.805 -0.2644  0.1978 -1.3185
39958SOL     OW21880   8.575   3.153   6.377 -0.3452  0.0670  0.1932
39958SOL    HW121881   8.564   3.058   6.382 -1.1506  0.2151  1.6162
39958SOL    HW221882   8.668   3.167   6.397 -0.2100 -0.4187 -0.0708
39959SOL     OW21883   7.147   0.391   7.479 -0.3538 -0.3140  0.0616
39959SOL    HW121884   7.074   0.333   7.459 -0.7130 -0.5947  1.9979
39959SOL    HW221885   7.116   0.478   7.456 -0.9547 -0.5299  0.0533
39960SOL     OW21886   1.962   7.379   9.303  0.1462  0.1191  1.1662
39960SOL    HW121887   2.014   7.449   9.264  0.5977  0.6792  2.7042
39960SOL    HW221888   1.881   7.379   9.252  0.7674  0.7029  0.1413
39961SOL     OW21889   1.044   8.706   1.739  0.6270  0.2771  0.6293
39961SOL    HW121890   1.050   8.775   1.806 -0.9938  0.7027  0.3722
39961SOL    HW221891   0.977   8.647   1.771  0.3470  0.0923 -0.2730
39962SOL     OW21892   7.055   1.726   0.010  0.0483 -0.5726 -0.6117
39962SOL    HW121893   7.026   1.807  -0.032 -2.4448 -0.6412  0.7947
39962SOL    HW221894   7.136   1.704  -0.036 -0.3628  1.4994 -2.5612
39963SOL     OW21895   4.368   5.647   6.026 -0.0854 -0.5432  0.2404
39963SOL    HW121896   4.425   5.641   5.949  1.1101  1.5486  0.9030
39963SOL    HW221897   4.320   5.729   6.014  1.2761  0.6457  2.4325
39964SOL     OW21898   3.327   4.019   3.860  0.2040 -0.1690 -1.1959
39964SOL    HW121899   3.366   4.103   3.885  0.5174 -0.2300 -1.4712
39964SOL    HW221900   3.264   4.001   3.930  0.8959 -0.2210 -0.5716
39965SOL     OW21901   4.490   0.066   0.163 -0.1699  0.1841 -1.2437
39965SOL    HW121902   4.578   0.027   0.159 -0.3780 -0.4565 -0.0667
39965SOL    HW221903   4.500   0.151   0.120  0.8000 -0.2599 -1.9630
39966SOL     OW21904   3.817   8.009   3.353 -0.9812  0.5389 -0.9341
39966SOL    HW121905   3.834   8.083   3.410 -0.1045 -1.1455  1.1338
39966SOL    HW221906   3.722   7.997   3.355 -0.8836 -0.2824  1.3471
39967SOL     OW21907   3.535   6.481   7.141  0.4269 -0.4346 -0.1780
39967SOL    HW121908   3.442   6.500   7.129  0.3296  0.3467  1.5532
39967SOL    HW221909   3.570   6.476   7.052 -1.0122  0.5890 -0.8443
39968SOL     OW21910   2.577   7.674   3.606  0.1079 -0.3004 -0.5318
39968SOL    HW121911   2.538   7.699   3.690 -0.4753 -3.4253  0.2607
39968SOL    HW221912   2.670   7.695   3.616 -0.3212  1.6292 -0.1158
39969SOL     OW21913   6.158   0.561   3.428 -0.0597 -0.3373  0.3136
39969SOL    HW121914   6.139   0.580   3.336 -0.5450  0.6552  0.6139
39969SOL    HW221915   6.072   0.549   3.469  0.1767 -1.8902  0.4253
39970SOL     OW21916   0.181   6.305   3.274  0.3308  0.1968  1.0917
39970SOL    HW121917   0.114   6.356   3.227  0.4209  0.4554  1.2408
39970SOL    HW221918   0.245   6.370   3.301  2.2701 -0.3786 -1.6720
39971SOL     OW21919  11.009   1.808   4.767  0.5605  0.5934  0.5460
39971SOL    HW121920  11.038   1.743   4.831 -0.6013  1.9066  2.5165
39971SOL    HW221921  11.054   1.889   4.793  0.3543  1.0832 -0.5611
39972SOL     OW21922   0.991   8.690   9.153  0.5202 -0.4460 -0.1769
39972SOL    HW121923   0.911   8.739   9.169  1.1338  0.4925  0.0611
39972SOL    HW221924   1.040   8.743   9.091  1.3463 -0.5751  0.3448
39973SOL     OW21925   1.907   0.944   6.335  0.1919 -0.3005  0.4066
39973SOL    HW121926   1.981   0.994   6.370  0.9962 -1.1990  0.0476
39973SOL    HW221927   1.881   0.993   6.257  0.5139 -0.0568  0.4447
39974SOL     OW21928   1.836   8.074   4.666 -0.2378  0.3745  0.5443
39974SOL    HW121929   1.810   8.056   4.575  0.2951  0.3010  0.3991
39974SOL    HW221930   1.761   8.048   4.718  0.1761 -1.5119  0.2840
39975SOL     OW21931   6.503   0.244   4.324  0.2123 -0.1980 -0.1424
39975SOL    HW121932   6.549   0.325   4.301 -2.0030  1.0932 -0.4106
39975SOL    HW221933   6.487   0.201   4.240  1.8140 -1.2369  0.0352
39976SOL     OW21934   2.235   8.026   1.269  0.3724  0.2576  0.2346
39976SOL    HW121935   2.272   8.106   1.232  1.8933 -0.1519  0.7962
39976SOL    HW221936   2.293   8.003   1.342  0.2350 -1.5824 -0.1683
39977SOL     OW21937   3.482   0.570   3.751 -0.4344 -0.3375  0.0911
39977SOL    HW121938   3.420   0.500   3.769  0.5200 -0.8964  1.4444
39977SOL    HW221939   3.521   0.590   3.837  0.6599  0.5479 -0.5760
39978SOL     OW21940   2.415   2.577   4.922 -0.0771  0.3162  0.1442
39978SOL    HW121941   2.404   2.492   4.879 -0.2397  0.7072 -0.6150
39978SOL    HW221942   2.453   2.633   4.854  2.4969  0.2030  1.3544
39979SOL     OW21943   8.084   9.681   7.951 -0.3508 -0.1666 -0.4475
39979SOL    HW121944   8.127   9.597   7.934 -1.1682 -0.9561  1.1614
39979SOL    HW221945   8.107   9.735   7.876  0.4338 -1.7330 -1.3896
39980SOL     OW21946   0.582   5.350   6.349  0.0170 -0.5134  0.3021
39980SOL    HW121947   0.513   5.403   6.310 -0.0067  0.0004  1.0252
39980SOL    HW221948   0.652   5.413   6.369  0.3887 -0.9115  0.2654
39981SOL     OW21949   6.833   9.787   2.564 -0.0818 -0.7745 -0.1985
39981SOL    HW121950   6.752   9.768   2.611 -0.3890  2.1687  0.6510
39981SOL    HW221951   6.810   9.779   2.472 -1.5210  0.5513  0.0151
39982SOL     OW21952  10.515   0.740   5.910  0.6305  0.0670 -0.8752
39982SOL    HW121953  10.525   0.772   5.821 -1.5499  1.3437 -0.7218
39982SOL    HW221954  10.525   0.817   5.965 -2.0943  0.1220 -0.3231
39983SOL     OW21955   9.102   8.294   5.493  0.4464  0.2068  0.2400
39983SOL    HW121956   9.162   8.358   5.531  0.6533 -0.1739  0.5636
39983SOL    HW221957   9.016   8.335   5.501  0.7809  1.3872 -1.5349
39984SOL     OW21958   8.857   6.019   9.719  0.3038  0.0639  0.0622
39984SOL    HW121959   8.917   5.954   9.681  1.7899  0.4539  1.6234
39984SOL    HW221960   8.786   5.966   9.756  0.5869 -0.5414 -0.2355
39985SOL     OW21961  10.424   9.740  10.176  0.1296 -0.0158 -0.2987
39985SOL    HW121962  10.469   9.809  10.127  2.2927 -1.1056  0.0002
39985SOL    HW221963  10.490   9.670  10.184 -2.7492 -3.4241 -3.0917
39986SOL     OW21964   0.343   9.393   9.274  0.3224 -0.0622 -0.0155
39986SOL    HW121965   0.403   9.334   9.229  0.1188 -0.7696  0.6189
39986SOL    HW221966   0.326   9.350   9.358  0.3586  1.0204  0.5554
39987SOL     OW21967   3.433   2.503  10.434  0.1073  0.8635  0.1060
39987SOL    HW121968   3.426   2.580  10.491 -0.7719 -0.8034  2.4054
39987SOL    HW221969   3.345   2.492  10.398  0.2175  0.8939 -0.1751
39988SOL     OW21970   9.238   7.314   8.453  1.0293  0.1225  0.2917
39988SOL    HW121971   9.161   7.292   8.504  0.0617  2.7392  0.1103
39988SOL    HW221972   9.212   7.391   8.402  3.3191  0.2246 -0.8652
39989SOL     OW21973   3.166   1.649  10.670  1.0347 -0.2594 -0.1502
39989SOL    HW121974   3.093   1.705  10.699  0.9497 -1.0899  1.3437
39989SOL    HW221975   3.128   1.561  10.666  1.7312 -0.5616 -0.2349
39990SOL     OW21976  10.350  10.152   4.816 -0.3639 -0.6044 -0.0670
39990SOL    HW121977  10.322  10.204   4.892  1.1620  0.0920  0.0714
39990SOL    HW221978  10.315  10.199   4.740  1.7320  1.2634 -0.0016
39991SOL     OW21979  10.997   4.448  10.289 -0.5974 -0.6838  0.2072
39991SOL    HW121980  11.082   4.483  10.263 -0.4625  0.3493  1.8947
39991SOL    HW221981  11.010   4.354  10.294 -0.2617 -0.7928 -1.9554
39992SOL     OW21982   2.802   3.914   5.616 -0.0789 -0.7004  0.3410
39992SOL    HW121983   2.896   3.933   5.622 -0.1857 -0.2943  0.7999
39992SOL    HW221984   2.785   3.908   5.522  0.1019  0.8572  0.1738
39993SOL     OW21985   0.186   6.188   7.928 -0.5207 -0.2282 -0.3428
39993SOL    HW121986   0.225   6.101   7.927  0.0940  0.0222 -1.9871
39993SOL    HW221987   0.183   6.214   7.835  0.0387  1.8032  0.1621
39994SOL     OW21988   1.354   8.338   4.455  0.5580  0.2735  0.2646
39994SOL    HW121989   1.322   8.426   4.477 -1.0586 -0.1449 -0.2928
39994SOL    HW221990   1.394   8.348   4.368  0.4981  0.4811  0.2606
39995SOL     OW21991   8.256   8.518   3.903  0.4599 -0.3280  0.3669
39995SOL    HW121992   8.216   8.463   3.835  1.6514 -2.6793  1.4629
39995SOL    HW221993   8.192   8.517   3.975 -1.4406  3.2711 -1.0078
39996SOL     OW21994   1.000   5.267   2.775  0.2908 -0.1146 -0.2385
39996SOL    HW121995   0.961   5.188   2.812 -0.5357  0.1947 -0.4203
39996SOL    HW221996   1.057   5.301   2.844 -1.7843  0.8693  1.1151
39997SOL     OW21997   2.411   8.799   6.518 -0.3393 -0.4232 -0.2380
39997SOL    HW121998   2.325   8.782   6.480  0.5888  1.3285 -3.5210
39997SOL    HW221999   2.466   8.728   6.486 -0.6171 -1.9345  2.4332
39998SOL     OW22000   9.855  10.530   0.049  0.5703 -0.2103 -0.3393
39998SOL    HW122001   9.945  10.562   0.056  1.0896 -1.3965 -1.1420
39998SOL    HW222002   9.823  10.529   0.139  1.1383  0.8155 -0.1134
39999SOL     OW22003  10.581   1.221  10.943 -0.2287  0.1237  0.1074
39999SOL    HW122004  10.659   1.184  10.902 -0.5427 -0.0803 -0.3161
39999SOL    HW222005  10.559   1.297  10.888 -0.3937  0.1112  0.1565
40000SOL     OW22006   6.168   8.773   8.055  0.7441 -0.7123 -0.8186
40000SOL    HW122007   6.220   8.693   8.052  0.8707 -0.6966  0.5302
40000SOL    HW222008   6.093   8.756   7.997  0.8845 -1.7210 -0.7089
40001SOL     OW22009   3.378   7.545   7.867 -0.2648 -0.5821  0.2597
40001SOL    HW122010   3.431   7.604   7.814 -0.0409 -0.6330  0.4306
40001SOL    HW222011   3.324   7.603   7.921 -1.7823 -0.4861 -1.2808
40002SOL     OW22012   4.139   7.338   4.504 -0.5479  0.4104 -0.3388
40002SOL    HW122013   4.205   7.281   4.465 -2.6315 -2.1961 -0.3741
40002SOL    HW222014   4.114   7.294   4.586 -0.0083  3.0108  1.3385
40003SOL     OW22015   1.240  10.167   2.951 -0.2376 -0.1245  0.8858
40003SOL    HW122016   1.260  10.254   2.986  1.2357  0.2525 -0.7254
40003SOL    HW222017   1.149  10.151   2.975 -0.2047  1.4037  2.1418
40004SOL     OW22018   2.150   3.652   5.924  0.3501  0.1475  0.4549
40004SOL    HW122019   2.092   3.722   5.893  2.1187  0.8305 -1.5466
40004SOL    HW222020   2.130   3.577   5.868  0.7167  0.1003  0.3814
40005SOL     OW22021   5.341   7.042   8.343 -0.2137 -0.7088  0.3848
40005SOL    HW122022   5.384   6.964   8.308 -0.7129 -0.8495  0.0730
40005SOL    HW222023   5.329   7.099   8.267  1.4299  0.3112  0.8255
40006SOL     OW22024  10.451   9.398   4.721 -0.0430 -0.1902 -0.1172
40006SOL    HW122025  10.441   9.307   4.694 -4.2930  0.2940 -0.9458
40006SOL    HW222026  10.473   9.445   4.640 -1.9934 -0.0678 -0.6275
40007SOL     OW22027   4.358   0.941   8.819  0.2703 -0.3585 -0.1976
40007SOL    HW122028   4.397   0.955   8.732 -3.2209  2.0808 -1.5886
40007SOL    HW222029   4.287   0.878   8.803  0.4697 -0.9730  1.2220
40008SOL     OW22030   5.312  10.462   4.893 -0.0176 -0.0960 -0.4895
40008SOL    HW122031   5.401  10.458   4.928 -0.1782 -1.5755 -0.1738
40008SOL    HW222032   5.268  10.386   4.933 -0.6337 -0.9832 -2.7296
40009SOL     OW22033   8.536   8.186   7.003 -0.0512 -0.3613  0.5792
40009SOL    HW122034   8.599   8.128   6.962  1.6236  0.7737  1.4383
40009SOL    HW222035   8.488   8.131   7.065  0.8995 -1.0060  0.7574
40010SOL     OW22036   6.850   5.073   3.770 -0.2859  0.6306 -0.0799
40010SOL    HW122037   6.933   5.108   3.737 -0.0692 -0.0968 -0.3423
40010SOL    HW222038   6.864   5.064   3.864  0.5882 -1.1260 -0.3398
40011SOL     OW22039   2.018   8.019   1.668 -0.2912 -0.7893 -0.4879
40011SOL    HW122040   2.006   8.111   1.693  0.6737 -0.1830 -2.0681
40011SOL    HW222041   2.077   8.023   1.593 -0.4292 -2.7017 -0.7322
40012SOL     OW22042   6.641   3.495   2.122  0.1389  0.4843 -0.3157
40012SOL    HW122043   6.616   3.540   2.042  1.9070 -0.1093 -1.2543
40012SOL    HW222044   6.653   3.564   2.187 -1.2028  0.9711 -0.5487
40013SOL     OW22045  11.006   8.232   8.313  0.1174 -1.1212  0.3741
40013SOL    HW122046  11.053   8.315   8.307 -0.1507 -1.0712 -2.3660
40013SOL    HW222047  11.070   8.166   8.289  0.2067 -1.7239  2.1127
40014SOL     OW22048   2.529   0.835   5.374  0.0446 -0.6619 -0.1939
40014SOL    HW122049   2.559   0.850   5.464  1.3885  0.3035 -0.7774
40014SOL    HW222050   2.578   0.897   5.321 -1.7095 -0.2500 -1.4546
40015SOL     OW22051   9.731  10.100   4.296 -0.3129  0.3595 -0.6513
40015SOL    HW122052   9.658  10.154   4.264 -1.8032 -0.8915  0.4362
40015SOL    HW222053   9.807  10.131   4.248 -1.1996  2.9883 -0.5292
40016SOL     OW22054   5.898  10.080   2.189 -0.4967  0.3840 -0.2724
40016SOL    HW122055   5.813  10.062   2.149  0.2568 -0.5351 -1.5622
40016SOL    HW222056   5.948  10.122   2.120  0.5386 -0.3631 -0.0032
40017SOL     OW22057   8.198   3.484   8.817 -0.3279 -0.1422 -0.1123
40017SOL    HW122058   8.292   3.474   8.799 -0.2913  1.3383 -0.9456
40017SOL    HW222059   8.155   3.440   8.743 -0.2448  0.7306 -0.7006
40018SOL     OW22060   1.082   2.627   4.955 -0.7120 -0.5016 -0.2755
40018SOL    HW122061   1.117   2.635   5.044 -1.5950  0.7266 -0.0100
40018SOL    HW222062   1.130   2.693   4.904  1.0971 -2.3892 -1.2105
40019SOL     OW22063   2.906  10.822   0.559  0.2039 -0.1142 -0.1835
40019SOL    HW122064   2.891  10.763   0.485 -3.8006  0.2577  0.0952
40019SOL    HW222065   2.904  10.765   0.636  0.2658 -0.0529 -0.1367
40020SOL     OW22066   3.328   8.172   6.622  0.2569  0.2767 -0.1778
40020SOL    HW122067   3.264   8.243   6.629 -0.4019 -0.4388  1.9365
40020SOL    HW222068   3.396   8.195   6.686  0.8112 -0.2423 -0.5716
40021SOL     OW22069   3.989   9.098   7.198 -0.1123 -0.1152 -0.1396
40021SOL    HW122070   4.066   9.057   7.236  1.0162  0.7906 -1.3823
40021SOL    HW222071   3.967   9.169   7.258  1.0282  0.6619 -0.6346
40022SOL     OW22072  10.896  11.099   7.129  0.0159 -0.4237 -0.1448
40022SOL    HW122073  10.924  11.057   7.210 -1.7860  0.3548  0.9368
40022SOL    HW222074  10.806  11.128   7.146  0.1973  1.3412 -1.8013
40023SOL     OW22075   9.939   7.303   0.877  0.1436  0.3741 -0.1978
40023SOL    HW122076   9.870   7.276   0.817  0.0458  1.0105 -0.3816
40023SOL    HW222077  10.005   7.235   0.870 -1.3468 -1.3827  1.5352
40024SOL     OW22078  10.218  10.370   4.668 -0.0692 -0.1503 -0.0548
40024SOL    HW122079  10.129  10.347   4.693  0.2902  1.5207  3.3374
40024SOL    HW222080  10.213  10.462   4.642  0.6355 -0.0536  0.1166
40025SOL     OW22081   6.377   9.392   3.216  0.2003  0.6392  1.1987
40025SOL    HW122082   6.388   9.329   3.287  1.5377 -0.3880  0.1554
40025SOL    HW222083   6.466   9.425   3.201  0.3548 -0.6362 -1.2296
40026SOL     OW22084   0.741   3.245   4.953 -0.6655 -0.1834  0.5287
40026SOL    HW122085   0.702   3.294   5.026  1.2696  0.6440  1.0537
40026SOL    HW222086   0.672   3.243   4.887 -1.5604  1.3538  1.3536
40027SOL     OW22087   1.192   9.507   5.298  0.6718  0.9249 -0.2641
40027SOL    HW122088   1.256   9.496   5.228  1.3083  0.5730  0.3610
40027SOL    HW222089   1.115   9.543   5.254  1.2266  1.1784 -1.0607
40028SOL     OW22090   4.311   3.728   9.711 -0.3964 -0.0561 -0.5605
40028SOL    HW122091   4.260   3.648   9.699 -1.8423  0.7752 -0.2272
40028SOL    HW222092   4.384   3.703   9.767 -1.6298 -0.8437  0.7462
40029SOL     OW22093  10.602   5.375   9.298 -0.3463 -0.3709 -0.0896
40029SOL    HW122094  10.518   5.336   9.276 -0.7167  1.1514 -1.5729
40029SOL    HW222095  10.665   5.325   9.245 -0.5558 -0.2841 -0.4236
40030SOL     OW22096   4.725   0.930   3.976  0.3166  0.0431 -0.6291
40030SOL    HW122097   4.817   0.953   3.970  0.7579  0.4482  3.9767
40030SOL    HW222098   4.724   0.835   3.964  1.1538  0.1358 -1.5931
40031SOL     OW22099   6.033   8.597   4.804 -0.0405 -0.1552 -0.2166
40031SOL    HW122100   6.014   8.572   4.894 -0.1034 -0.0174 -0.1914
40031SOL    HW222101   5.947   8.599   4.761 -0.0652  0.2970 -0.1465
40032SOL     OW22102   9.124   5.846  10.185  0.2776 -0.7729  0.6523
40032SOL    HW122103   9.202   5.793  10.196  1.0803  0.2443  0.0321
40032SOL    HW222104   9.090   5.858  10.274  0.7778 -1.2842  0.9147
40033SOL     OW22105   8.008   1.425   0.611 -0.1353  0.1825 -0.5383
40033SOL    HW122106   8.103   1.438   0.614 -0.2057  0.5438  1.0944
40033SOL    HW222107   7.973   1.495   0.667 -1.2554 -0.8679  0.1092
40034SOL     OW22108   4.944   8.066   6.130  0.0342  0.1915 -0.0460
40034SOL    HW122109   4.944   7.975   6.157 -1.5875  0.9011  2.7714
40034SOL    HW222110   5.031   8.099   6.154  0.3509 -0.4247 -0.3521
40035SOL     OW22111   7.833   0.933   8.118 -0.0548 -0.3072  0.4859
40035SOL    HW122112   7.893   0.903   8.186  0.0917 -3.8815 -0.9936
40035SOL    HW222113   7.862   1.022   8.098  3.7193 -1.2394  1.0249
40036SOL     OW22114   9.071   2.287  10.906  0.2547 -0.6702 -0.0410
40036SOL    HW122115   9.007   2.357  10.922  3.0510  2.5235 -1.4455
40036SOL    HW222116   9.098   2.259  10.993 -2.8045 -2.0730  0.6018
40037SOL     OW22117   3.552   8.806   6.539  0.5054  0.2466 -0.4960
40037SOL    HW122118   3.623   8.808   6.476  1.0356  2.3341  0.1086
40037SOL    HW222119   3.479   8.850   6.496 -0.3407 -1.4792 -0.9381
40038SOL     OW22120   1.885   8.253   8.051  0.1896 -0.0629 -0.0431
40038SOL    HW122121   1.793   8.278   8.061  0.0551 -0.4336 -0.3130
40038SOL    HW222122   1.896   8.176   8.107  0.1320 -0.4937 -0.6165
40039SOL     OW22123   4.691   6.919   9.401 -0.7918  0.2800  0.1652
40039SOL    HW122124   4.642   6.875   9.332  2.8971 -2.4478 -1.0187
40039SOL    HW222125   4.716   7.003   9.362  2.3544 -1.7314 -2.6402
40040SOL     OW22126   7.642   8.243   0.459 -0.1502 -0.1968  0.5859
40040SOL    HW122127   7.586   8.168   0.481  0.8831 -1.1576 -0.0131
40040SOL    HW222128   7.680   8.270   0.543  0.7859 -1.4263  0.5743
40041SOL     OW22129   1.039   2.544   3.830 -0.1351 -0.3766 -0.3406
40041SOL    HW122130   1.001   2.456   3.828 -0.6526 -0.2336  1.3626
40041SOL    HW222131   1.096   2.548   3.753 -1.2780 -1.6538 -1.2950
40042SOL     OW22132   6.206   7.172   3.606 -0.7193  0.1782 -0.1746
40042SOL    HW122133   6.254   7.193   3.686  1.5893 -1.4771 -1.0332
40042SOL    HW222134   6.245   7.228   3.539 -2.0191  0.8979 -0.3640
40043SOL     OW22135   7.161   0.706   6.562 -0.5078  0.8686 -0.1866
40043SOL    HW122136   7.242   0.655   6.553 -2.3260 -2.2396 -0.3293
40043SOL    HW222137   7.171   0.752   6.645  2.1470  2.1464 -1.0998
40044SOL     OW22138   0.336   2.679   1.356  0.6576  0.7981 -0.1334
40044SOL    HW122139   0.313   2.639   1.272  1.7793 -0.8044  0.2736
40044SOL    HW222140   0.408   2.625   1.389  0.6829  1.8034  1.5565
40045SOL     OW22141   4.013   2.777   9.798  0.0375  0.2784  0.5130
40045SOL    HW122142   3.953   2.835   9.752 -1.4281 -1.1442  0.5429
40045SOL    HW222143   4.080   2.755   9.732  1.6120  3.1944  0.9545
40046SOL     OW22144   8.654   8.717   4.102 -0.4924 -0.1698 -0.1311
40046SOL    HW122145   8.668   8.797   4.051  0.5236  0.2832  0.8137
40046SOL    HW222146   8.650   8.747   4.193 -2.3127 -0.9580  0.0773
40047SOL     OW22147   0.703  10.336   7.549 -0.8915  0.1720  0.2322
40047SOL    HW122148   0.721  10.361   7.640 -1.9549  1.6548  0.0815
40047SOL    HW222149   0.609  10.351   7.539 -1.1490 -1.7482 -0.6098
40048SOL     OW22150   1.010  10.568   8.329 -1.1235  0.2989 -0.1784
40048SOL    HW122151   0.982  10.574   8.238 -1.4132 -1.6196 -0.2550
40048SOL    HW222152   0.940  10.612   8.378 -2.0090 -0.4434 -0.7387
40049SOL     OW22153   0.494   8.140   4.206  0.1849  0.3605 -0.2910
40049SOL    HW122154   0.427   8.186   4.256  0.7616  0.1306  0.7092
40049SOL    HW222155   0.510   8.060   4.254  0.8108  0.1651 -0.8014
40050SOL     OW22156  10.058   2.444   0.747 -0.0024  0.2819  0.1111
40050SOL    HW122157   9.963   2.450   0.747 -0.3272 -2.9656  1.4261
40050SOL    HW222158  10.080   2.402   0.831  2.1041 -3.3647 -2.0074
40051SOL     OW22159   7.554   9.151  10.907 -0.2444 -0.3606 -0.0402
40051SOL    HW122160   7.477   9.178  10.856 -0.0747 -0.3182 -0.2756
40051SOL    HW222161   7.626   9.152  10.844  0.1095  0.4009  0.3594
40052SOL     OW22162   8.825  10.105   3.946  0.0739 -0.6058  0.1377
40052SOL    HW122163   8.828  10.052   4.025 -0.0751  0.3342  0.7967
40052SOL    HW222164   8.739  10.147   3.948  1.1127  1.6619  1.0307
40053SOL     OW22165   8.769   7.307   1.381 -0.3758  0.4166 -0.8598
40053SOL    HW122166   8.724   7.237   1.429 -0.6296  1.1155 -0.0661
40053SOL    HW222167   8.698   7.354   1.337 -0.2433  0.4379 -1.0526
40054SOL     OW22168   8.277   8.217   8.647 -0.0797  0.6463  0.2408
40054SOL    HW122169   8.271   8.307   8.678 -0.5326  0.2092  1.4756
40054SOL    HW222170   8.219   8.168   8.705  0.2892 -0.4665 -0.3095
40055SOL     OW22171   1.471   6.470   7.824 -0.3558  0.3489  0.2425
40055SOL    HW122172   1.426   6.520   7.756 -0.4577  0.5897  0.4855
40055SOL    HW222173   1.535   6.531   7.861 -1.3555  0.7278  1.4201
40056SOL     OW22174   2.141   7.972   4.708  0.5017 -0.7763  0.0215
40056SOL    HW122175   2.052   7.992   4.737 -0.2222 -1.3010 -1.7102
40056SOL    HW222176   2.183   8.058   4.702 -0.0586 -0.4721  0.3231
40057SOL     OW22177   4.206   1.675   5.261 -0.9090  0.0367  0.6587
40057SOL    HW122178   4.204   1.636   5.348  0.1612  0.5098  0.9183
40057SOL    HW222179   4.221   1.768   5.277  1.0143 -0.0992 -0.0517
40058SOL     OW22180   8.900   1.115   0.402 -0.1497 -0.2386 -0.2985
40058SOL    HW122181   8.960   1.052   0.442  1.6336  0.8640 -1.1253
40058SOL    HW222182   8.927   1.200   0.438  0.0607  0.5121 -2.1179
40059SOL     OW22183   8.779   0.728  10.272 -0.0016  0.2717 -0.4737
40059SOL    HW122184   8.784   0.666  10.200 -0.9497  0.6408 -0.8725
40059SOL    HW222185   8.694   0.772  10.261  1.1073  2.4630 -0.8858
40060SOL     OW22186  10.143   1.351   3.047  0.4768 -0.3124  0.7868
40060SOL    HW122187  10.229   1.310   3.049  0.9735  0.6437 -0.0809
40060SOL    HW222188  10.086   1.287   3.005  1.3476  0.0326 -1.0202
40061SOL     OW22189   9.976   1.322   7.799 -0.3027  0.4235  0.2581
40061SOL    HW122190  10.014   1.235   7.785  0.2338  0.9082 -1.5689
40061SOL    HW222191   9.898   1.324   7.743  0.0503  1.3225 -0.2289
40062SOL     OW22192   1.592   9.423   5.289 -0.4074 -0.2084 -0.2482
40062SOL    HW122193   1.635   9.497   5.333 -1.5844 -0.4029  1.3445
40062SOL    HW222194   1.663   9.367   5.261  0.4418  0.2223  0.9603
40063SOL     OW22195  10.991   8.154   6.384 -0.3837  0.3725 -0.2164
40063SOL    HW122196  10.986   8.171   6.478 -0.7317 -0.7663 -0.0166
40063SOL    HW222197  10.925   8.211   6.346  0.9706  2.2197 -0.0023
40064SOL     OW22198   8.476   6.217   9.456  0.2876 -0.4856  0.2357
40064SOL    HW122199   8.402   6.277   9.467  0.4642  0.0751 -1.2620
40064SOL    HW222200   8.545   6.253   9.511  0.9726  1.8124 -1.9128
40065SOL     OW22201   8.244   5.043  10.771  0.2163  0.0791 -0.4397
40065SOL    HW122202   8.220   4.954  10.798  0.1140  0.5657  1.2068
40065SOL    HW222203   8.168   5.074  10.722  0.9127 -1.2836 -2.5144
40066SOL     OW22204   9.002   8.933   5.942 -0.5697  0.9357  1.1506
40066SOL    HW122205   8.940   8.946   5.871  0.1225  0.7222  0.4882
40066SOL    HW222206   8.949   8.909   6.018 -1.2154 -0.1138  0.3749
40067SOL     OW22207   5.081   7.421   1.225 -0.3191 -0.4585  0.1331
40067SOL    HW122208   5.055   7.363   1.296 -2.3189  0.1569 -0.0538
40067SOL    HW222209   5.171   7.447   1.247 -0.7892 -0.4898  2.2923
40068SOL     OW22210   9.420   6.872   3.877 -0.3192  0.0374 -0.1031
40068SOL    HW122211   9.436   6.794   3.929  1.6588  1.0943  1.0117
40068SOL    HW222212   9.453   6.944   3.931  0.1684  1.3867 -2.0897
40069SOL     OW22213   5.168   4.416   1.450  0.4312 -0.5714 -0.2220
40069SOL    HW122214   5.124   4.342   1.492 -0.0684 -0.8494 -1.2148
40069SOL    HW222215   5.223   4.376   1.383 -0.2607 -0.0190 -1.1386
40070SOL     OW22216   9.611   7.790   4.352  0.7807  0.3823 -0.1245
40070SOL    HW122217   9.682   7.798   4.288  1.3163 -0.6424  0.3212
40070SOL    HW222218   9.572   7.877   4.355  1.1895  0.6193 -1.3341
40071SOL     OW22219   0.143   3.501   1.326  0.0360 -0.6287  0.3067
40071SOL    HW122220   0.197   3.422   1.318 -0.4860 -0.9407 -0.1699
40071SOL    HW222221   0.054   3.469   1.336 -0.4078 -0.1133 -1.5263
40072SOL     OW22222   1.416   6.509  11.035  0.0737  0.3903 -0.3209
40072SOL    HW122223   1.327   6.486  11.009  0.0360 -0.0792  0.1960
40072SOL    HW222224   1.425   6.474  11.124 -0.1657  2.8689  0.7689
40073SOL     OW22225   1.403   3.296   7.900 -0.6257  0.0407 -0.4831
40073SOL    HW122226   1.379   3.250   7.820 -0.9481 -1.5260  0.4549
40073SOL    HW222227   1.493   3.270   7.917 -1.3697 -1.8318  1.0157
40074SOL     OW22228   7.099   6.297   5.963  0.3350  0.2997  0.0061
40074SOL    HW122229   7.102   6.240   5.887 -2.2517 -0.9583  0.7061
40074SOL    HW222230   7.070   6.381   5.929  1.7160  0.5209 -0.6964
40075SOL     OW22231   3.811   0.995   4.646  0.1966 -0.1117 -0.2781
40075SOL    HW122232   3.721   1.025   4.663  0.1205 -1.0474  1.1758
40075SOL    HW222233   3.814   0.907   4.684  1.6345 -0.2216 -0.6034
40076SOL     OW22234   0.724   7.151   4.375 -0.5051 -0.2819 -0.0683
40076SOL    HW122235   0.683   7.147   4.288 -0.8692 -1.3755  0.1475
40076SOL    HW222236   0.676   7.221   4.420 -1.2260 -0.6207 -0.2901
40077SOL     OW22237   7.988   7.338   2.309 -0.2014  0.1509 -0.0366
40077SOL    HW122238   8.043   7.276   2.261 -0.2537 -0.5892  0.8371
40077SOL    HW222239   8.037   7.356   2.390 -0.2758  1.1107 -0.1916
40078SOL     OW22240   8.022   1.072   2.098  0.0447  0.3387  0.2339
40078SOL    HW122241   7.946   1.114   2.059 -1.1551 -0.3656  1.7572
40078SOL    HW222242   8.043   1.000   2.037 -0.9153  0.1317  0.1326
40079SOL     OW22243   3.418   2.433   3.211  0.1970  0.8845 -0.3861
40079SOL    HW122244   3.423   2.507   3.150 -2.0022  1.1398 -0.3034
40079SOL    HW222245   3.379   2.363   3.159 -1.1785  0.9397  0.5412
40080SOL     OW22246   6.955   8.456   0.025  0.0920 -0.2910 -0.0262
40080SOL    HW122247   6.989   8.371   0.052 -1.8455 -1.1955 -0.2712
40080SOL    HW222248   7.030   8.515   0.031  1.4378 -1.9675  0.3123
40081SOL     OW22249   0.598   3.791   2.292  0.0378 -0.1725  0.3142
40081SOL    HW122250   0.503   3.781   2.290 -0.2093  1.7288  0.6671
40081SOL    HW222251   0.624   3.770   2.381 -0.0121 -0.9088  0.1592
40082SOL     OW22252   6.360   8.450   1.001 -0.4387  0.2372  0.7038
40082SOL    HW122253   6.397   8.421   1.085 -0.6450  0.0321  0.7248
40082SOL    HW222254   6.270   8.474   1.022  0.1385  2.3264  0.9869
40083SOL     OW22255   1.105   1.963   1.066 -0.2871  0.1571 -0.0404
40083SOL    HW122256   1.183   1.907   1.062 -0.2862 -0.0240  1.6513
40083SOL    HW222257   1.046   1.928   1.000  0.5747 -0.4756 -0.4891
40084SOL     OW22258   7.492   5.779  10.808 -0.5591 -0.0144  0.4351
40084SOL    HW122259   7.479   5.726  10.730  0.1961  1.4511 -0.7299
40084SOL    HW222260   7.408   5.774  10.855 -1.7949  0.8251 -1.5739
40085SOL     OW22261   7.212   6.402   1.830  0.1425  0.1982  0.4279
40085SOL    HW122262   7.225   6.308   1.815  0.9208  0.1711  1.2164
40085SOL    HW222263   7.139   6.407   1.892  2.5491 -0.1130  3.5008
40086SOL     OW22264  10.550   2.925   8.513  0.3544  0.8362 -0.4467
40086SOL    HW122265  10.640   2.928   8.483  0.5129  0.5311 -0.0095
40086SOL    HW222266  10.539   2.838   8.550  0.1738  1.1947  0.3771
40087SOL     OW22267  10.990   0.267   0.606  0.7172 -0.0545 -0.1823
40087SOL    HW122268  11.014   0.177   0.629 -3.5917 -0.9671  1.7735
40087SOL    HW222269  10.973   0.309   0.690 -4.3694  0.1399 -0.9845
40088SOL     OW22270   1.921   4.206   9.437  0.1818  0.3090 -0.4207
40088SOL    HW122271   1.853   4.264   9.402  1.4792  1.1818 -1.5727
40088SOL    HW222272   1.893   4.118   9.411  0.0610  0.7617 -1.8972
40089SOL     OW22273   8.605   1.463   4.605 -0.7869  0.0507  0.2278
40089SOL    HW122274   8.575   1.489   4.518 -1.5513 -0.1747  0.4170
40089SOL    HW222275   8.670   1.529   4.628  0.4063 -0.6240 -1.0549
40090SOL     OW22276   2.806   9.398   2.005  0.3919 -0.0580  0.3131
40090SOL    HW122277   2.866   9.447   1.949  0.1999  1.3185  1.2663
40090SOL    HW222278   2.805   9.309   1.968  2.3738  0.0991 -0.1986
40091SOL     OW22279   7.836   1.817  10.510 -0.1042 -0.4365 -0.2947
40091SOL    HW122280   7.816   1.882  10.443  0.3771  2.3744  2.0527
40091SOL    HW222281   7.752   1.797  10.550  0.0436  1.3875  1.0872
40092SOL     OW22282   7.641   3.165   2.300  0.6319 -0.0927 -0.0787
40092SOL    HW122283   7.619   3.092   2.358  3.5085 -1.0268 -0.0116
40092SOL    HW222284   7.677   3.123   2.222 -0.1142  1.2467 -1.1760
40093SOL     OW22285   5.476  10.711   9.597 -0.1719 -0.2308  0.0371
40093SOL    HW122286   5.468  10.698   9.503 -1.0656 -0.8114  0.1836
40093SOL    HW222287   5.398  10.669   9.634  0.8508 -1.2668  1.1381
40094SOL     OW22288   1.323   3.375   4.341  0.0763 -0.0836  0.2334
40094SOL    HW122289   1.291   3.335   4.421 -0.5623  2.9624  1.6554
40094SOL    HW222290   1.245   3.388   4.287  0.0482  0.4472  0.3908
40095SOL     OW22291   1.360   0.326   1.139  0.9170  0.3931  0.0479
40095SOL    HW122292   1.435   0.266   1.140  0.6030 -0.0823 -1.9000
40095SOL    HW222293   1.399   0.413   1.147  1.5038  0.0521  1.1297
40096SOL     OW22294   1.899   0.115   3.397  0.4768 -1.1320  0.2065
40096SOL    HW122295   1.865   0.036   3.439 -0.7370 -0.9102 -0.3143
40096SOL    HW222296   1.909   0.178   3.469 -3.3510 -0.1351  0.0699
40097SOL     OW22297   5.086   1.259   5.025  0.4736 -0.9405 -0.1544
40097SOL    HW122298   5.132   1.183   4.990  1.1880 -0.4426 -0.3136
40097SOL    HW222299   5.135   1.282   5.104  1.1135  0.2010 -0.8639
40098SOL     OW22300   1.232   9.672   4.884 -0.1008 -0.0056 -0.4199
40098SOL    HW122301   1.213   9.590   4.837  0.3747  0.4496 -1.4302
40098SOL    HW222302   1.173   9.670   4.960  0.4707 -1.6544  0.0165
40099SOL     OW22303   0.568   7.480   2.010 -0.9157 -0.0818  0.1414
40099SOL    HW122304   0.495   7.446   2.062  0.4119 -2.1693  0.7436
40099SOL    HW222305   0.549   7.574   2.003 -2.6806 -0.2204  1.8631
40100SOL     OW22306  10.325   7.354   8.943 -0.7783 -0.3123  0.1002
40100SOL    HW122307  10.366   7.439   8.924  0.3961 -0.9319 -0.2389
40100SOL    HW222308  10.309   7.316   8.857 -0.2956 -0.8930  0.2615
40101SOL     OW22309   4.367   0.979   4.637  0.1469  0.3433 -0.4374
40101SOL    HW122310   4.379   1.008   4.547  1.5222  0.9282 -0.0794
40101SOL    HW222311   4.293   1.030   4.670 -1.0141 -0.5841 -1.5158
40102SOL     OW22312   0.975   6.628   0.107 -0.5457  0.4172 -0.3260
40102SOL    HW122313   0.945   6.573   0.179  2.2998  0.4072  0.9675
40102SOL    HW222314   0.981   6.568   0.032 -0.1060 -0.3988  0.3554
40103SOL     OW22315   0.207   5.534   5.048  0.7929  0.0016 -0.4322
40103SOL    HW122316   0.240   5.446   5.065  2.1231  0.5679  0.0716
40103SOL    HW222317   0.272   5.592   5.087  0.4591  1.2307 -1.6097
40104SOL     OW22318   8.657   2.325   5.188 -0.6753 -0.2949 -0.0446
40104SOL    HW122319   8.746   2.360   5.194 -0.6390 -0.5664  1.3418
40104SOL    HW222320   8.670   2.230   5.181 -0.8601 -0.4218  1.1715
40105SOL     OW22321   2.128   6.034   7.980  0.0047 -0.4998 -0.3887
40105SOL    HW122322   2.107   6.029   7.887  0.7649  0.1092 -0.5992
40105SOL    HW222323   2.074   5.966   8.021 -1.8226  0.4854 -1.0140
40106SOL     OW22324   7.351   6.181   7.167 -0.6220  0.1363  0.1944
40106SOL    HW122325   7.402   6.100   7.158 -0.3367  0.3849 -0.5364
40106SOL    HW222326   7.332   6.187   7.260  0.3169 -0.1934  0.4227
40107SOL     OW22327   5.770   9.085   3.263 -0.1020 -1.2249 -0.0143
40107SOL    HW122328   5.676   9.096   3.278 -0.1806  2.0242 -1.9718
40107SOL    HW222329   5.804   9.051   3.346 -2.1300  3.6389  3.2385
40108SOL     OW22330   8.068   5.548   6.292 -0.3924 -0.1278  0.0786
40108SOL    HW122331   8.120   5.467   6.294  0.4752  0.4271  1.0392
40108SOL    HW222332   7.983   5.523   6.327 -0.7564 -1.0187 -1.3457
40109SOL     OW22333   0.084   7.107   1.061 -0.2514  0.0467 -0.1874
40109SOL    HW122334   0.015   7.169   1.038  3.0523  3.0981 -3.4769
40109SOL    HW222335   0.132   7.151   1.132 -0.0526 -0.6158  0.0896
40110SOL     OW22336   4.011   0.126  10.351 -0.1238  0.8795 -0.1631
40110SOL    HW122337   3.973   0.069  10.285 -1.1802 -1.3724  2.1812
40110SOL    HW222338   4.093   0.082  10.376 -0.5883  0.7273  1.1674
40111SOL     OW22339   2.075   4.658   4.365  0.0711  0.1584 -0.1151
40111SOL    HW122340   2.091   4.734   4.421 -2.5157  0.7397 -0.0357
40111SOL    HW222341   2.119   4.678   4.283 -0.6519  1.8317 -0.1302
40112SOL     OW22342   8.821   2.302   6.641  0.1690 -0.0497 -0.3157
40112SOL    HW122343   8.916   2.299   6.646  0.0867 -0.9215  1.5117
40112SOL    HW222344   8.792   2.299   6.732 -1.6066  0.6058 -0.8257
40113SOL     OW22345   0.816   3.941   4.701 -0.2470 -0.4332  0.0204
40113SOL    HW122346   0.858   3.945   4.787 -0.1803 -0.8280  0.0107
40113SOL    HW222347   0.765   4.021   4.695  0.1164 -0.1808  0.2379
40114SOL     OW22348   7.247   9.049   6.055 -0.0169  0.5921  0.4743
40114SOL    HW122349   7.172   9.050   5.995 -0.1393  1.2363  0.6380
40114SOL    HW222350   7.223   9.110   6.125  0.8031  1.0499  0.3654
40115SOL     OW22351   7.591   3.238  10.739  0.0243 -0.5571  0.1393
40115SOL    HW122352   7.666   3.252  10.681 -1.4959 -1.1069 -2.1116
40115SOL    HW222353   7.612   3.288  10.817  2.1287  0.3911 -0.9339
40116SOL     OW22354   5.400   6.512   9.691 -0.7436 -0.4795  1.1780
40116SOL    HW122355   5.391   6.530   9.597 -0.4190  0.6057  1.3399
40116SOL    HW222356   5.374   6.420   9.700  1.2010 -1.2407 -0.2772
40117SOL     OW22357   9.941   2.755   4.411  0.2843  0.6843 -0.0083
40117SOL    HW122358   9.975   2.749   4.321 -0.1220 -0.3281 -0.1035
40117SOL    HW222359   9.873   2.689   4.415 -1.6690  2.5971  0.2124
40118SOL     OW22360   8.708   3.242  10.042  0.0472 -0.4883 -0.2719
40118SOL    HW122361   8.638   3.259   9.980 -0.0478 -1.4028 -0.4244
40118SOL    HW222362   8.670   3.262  10.128 -0.7511 -1.9572 -0.2540
40119SOL     OW22363   3.269   3.542   1.036 -0.2649  0.2974 -0.2280
40119SOL    HW122364   3.339   3.574   1.093 -0.7619  1.7262 -0.3822
40119SOL    HW222365   3.189   3.577   1.075 -0.5851  1.6110 -1.9805
40120SOL     OW22366   4.858   1.008   8.412 -0.7413 -0.9423 -0.1502
40120SOL    HW122367   4.903   1.042   8.335 -2.0329 -2.0988 -1.4944
40120SOL    HW222368   4.912   0.934   8.440 -0.2171 -0.4606  0.1339
40121SOL     OW22369   5.248   5.186   1.259  0.1693 -0.3127 -0.4267
40121SOL    HW122370   5.244   5.117   1.193 -1.2708  0.2956 -1.0120
40121SOL    HW222371   5.156   5.205   1.279  0.4713  2.2754 -1.1674
40122SOL     OW22372   1.966   0.564   4.483 -0.2521  0.6094  0.0541
40122SOL    HW122373   2.026   0.638   4.499 -0.8998  0.9604  0.8897
40122SOL    HW222374   1.923   0.549   4.567  0.9634 -1.7508  0.3471
40123SOL     OW22375   7.174  10.419   1.625  0.5089 -0.4811  0.2568
40123SOL    HW122376   7.253  10.463   1.656  0.4608 -0.2672  0.0747
40123SOL    HW222377   7.187  10.327   1.649  1.7628 -0.8562 -1.6426
40124SOL     OW22378  10.811   5.039   6.112 -0.4030 -0.4557  0.1624
40124SOL    HW122379  10.830   5.100   6.041 -2.5921  1.7209  1.3206
40124SOL    HW222380  10.726   5.002   6.090 -0.6493 -0.5069  1.1660
40125SOL     OW22381   7.063   1.030   9.420  0.3754  0.2834  0.4113
40125SOL    HW122382   7.057   1.125   9.432 -0.5732  0.5989 -1.9993
40125SOL    HW222383   6.976   0.997   9.445  1.0176 -0.1337  2.2370
40126SOL     OW22384   6.896   9.759   6.607  0.3857 -0.9734 -0.0783
40126SOL    HW122385   6.905   9.665   6.597  0.8109 -1.2111  2.1258
40126SOL    HW222386   6.969   9.785   6.664 -0.4915  0.4657  0.4645
40127SOL     OW22387   4.768   7.310   5.381 -0.1244  0.2304  0.1303
40127SOL    HW122388   4.808   7.302   5.468 -0.3139 -0.0143  0.1966
40127SOL    HW222389   4.676   7.331   5.399  0.5051  3.7243 -0.0133
40128SOL     OW22390   9.109   6.959   1.124 -0.6356 -0.4752  0.3512
40128SOL    HW122391   9.113   7.041   1.075  2.1400 -2.5836 -3.4770
40128SOL    HW222392   9.185   6.963   1.182  2.6233 -1.9593 -3.3372
40129SOL     OW22393   3.770   2.556   5.619  0.0904  0.3724 -0.2584
40129SOL    HW122394   3.685   2.519   5.595  0.6735 -0.5769 -0.9032
40129SOL    HW222395   3.821   2.481   5.651  2.0727  0.0600 -3.6714
40130SOL     OW22396   6.888   1.833   0.818  0.3917  0.0279  0.4471
40130SOL    HW122397   6.970   1.825   0.769  0.6032 -0.1808  0.8324
40130SOL    HW222398   6.837   1.757   0.792 -0.4094  1.0631 -1.1368
40131SOL     OW22399  10.727  11.028   2.675  0.1342 -0.2290 -0.4308
40131SOL    HW122400  10.745  11.121   2.684 -0.3677 -0.2888  1.9366
40131SOL    HW222401  10.812  10.985   2.685  0.0898 -0.0909  0.6518
40132SOL     OW22402   8.234   3.273  10.701 -0.3511  0.1509  0.0486
40132SOL    HW122403   8.291   3.292  10.627  1.1344 -0.1901  1.0473
40132SOL    HW222404   8.288   3.292  10.778 -1.5104 -0.4515  1.0483
40133SOL     OW22405   9.085   9.286   2.145  0.5496  0.2699 -0.0696
40133SOL    HW122406   9.114   9.303   2.234 -3.0709  1.8917  1.0001
40133SOL    HW222407   9.039   9.202   2.149  1.2935 -0.1795 -0.6842
40134SOL     OW22408   3.248   5.815   4.072 -0.3099 -0.4587 -0.5210
40134SOL    HW122409   3.201   5.735   4.047 -0.4758 -0.3265 -0.6273
40134SOL    HW222410   3.271   5.856   3.989 -0.7256 -0.0995 -0.4634
40135SOL     OW22411   9.138   8.199   4.322 -0.1637 -0.4211  0.2112
40135SOL    HW122412   9.196   8.238   4.256 -1.4442  0.2488 -0.5511
40135SOL    HW222413   9.095   8.126   4.277  1.8353 -2.5184  1.4887
40136SOL     OW22414   9.201   2.479  10.718 -0.0402 -0.2780  0.1554
40136SOL    HW122415   9.156   2.411  10.768 -1.6728 -0.5393 -1.5704
40136SOL    HW222416   9.133   2.518  10.663  1.6564 -0.1237 -1.9712
40137SOL     OW22417   1.967   3.422   8.009 -0.3429  0.6325  0.9142
40137SOL    HW122418   2.053   3.445   7.976  0.7924 -4.6223 -0.7403
40137SOL    HW222419   1.906   3.457   7.944  1.0253 -0.1190 -0.8638
40138SOL     OW22420  10.050   2.680   0.188  0.3435 -1.0977 -0.3846
40138SOL    HW122421  10.040   2.774   0.204  0.5753 -1.3931  1.7759
40138SOL    HW222422  10.143   2.669   0.170 -0.0760 -0.6138 -3.5671
40139SOL     OW22423   3.563  10.731   8.298 -0.6422 -0.2394 -0.2379
40139SOL    HW122424   3.548  10.722   8.204 -1.6948 -2.2733  0.0680
40139SOL    HW222425   3.649  10.692   8.313 -0.8812 -0.7920 -0.2605
40140SOL     OW22426   9.276   9.427   3.571 -0.3420 -1.0580 -0.6284
40140SOL    HW122427   9.331   9.349   3.565  2.9612  1.0659 -0.2944
40140SOL    HW222428   9.239   9.423   3.659  0.0576 -2.0707 -0.4923
40141SOL     OW22429   8.688   1.088   5.776 -0.3480 -0.8884  0.1225
40141SOL    HW122430   8.652   1.160   5.725 -0.4422  0.0364  1.4510
40141SOL    HW222431   8.769   1.122   5.813  0.5870 -2.0997 -0.7221
40142SOL     OW22432   7.557   7.294  10.434  0.0406 -0.5177  0.2128
40142SOL    HW122433   7.486   7.256  10.486  1.5389 -2.5699  0.9075
40142SOL    HW222434   7.557   7.244  10.353 -0.3187  0.5797 -0.4801
40143SOL     OW22435   0.179   1.050   1.963 -0.5786 -0.1216 -0.3556
40143SOL    HW122436   0.086   1.048   1.938 -1.1490 -2.0543  1.6045
40143SOL    HW222437   0.226   1.046   1.880 -2.2878 -1.5748 -1.3336
40144SOL     OW22438   7.701   3.915   7.482 -0.2680  0.1712  0.3477
40144SOL    HW122439   7.689   3.969   7.404 -2.9301  0.6047  0.9786
40144SOL    HW222440   7.719   3.977   7.552  2.6187 -0.2469  0.0968
40145SOL     OW22441   3.863  10.227  10.929  0.0893  0.0214 -0.3650
40145SOL    HW122442   3.862  10.194  11.019 -0.7979  1.2114  0.0925
40145SOL    HW222443   3.792  10.179  10.886  0.2504 -0.2621 -0.3183
40146SOL     OW22444   5.791   6.639   7.453  0.8612  0.1968 -0.4895
40146SOL    HW122445   5.862   6.635   7.389  0.4098 -2.5888 -0.9063
40146SOL    HW222446   5.771   6.548   7.473 -0.8697  0.9532  1.5841
40147SOL     OW22447   1.578   0.049   5.271  0.3180  0.6857  0.6588
40147SOL    HW122448   1.627   0.123   5.308  0.1373  0.6611  0.9528
40147SOL    HW222449   1.516   0.025   5.340 -0.1063  0.7136  0.2934
40148SOL     OW22450   4.346   4.987   3.778  0.4407 -0.4777 -0.5586
40148SOL    HW122451   4.265   5.020   3.816  0.4798 -0.0268 -0.8523
40148SOL    HW222452   4.354   5.034   3.694 -0.6621 -2.8644 -2.1104
40149SOL     OW22453   3.884  10.649   9.618  0.0765  0.1335  0.4287
40149SOL    HW122454   3.806  10.600   9.643  0.9839 -0.7949  1.5652
40149SOL    HW222455   3.900  10.708   9.691 -0.6375  1.7486 -0.6496
40150SOL     OW22456   6.490   5.473   4.221  0.3110 -0.3758 -0.3997
40150SOL    HW122457   6.534   5.388   4.219 -1.0289 -1.1352  0.6540
40150SOL    HW222458   6.441   5.476   4.139  1.1314 -0.1702 -0.8951
40151SOL     OW22459   4.376   6.973   0.644  0.4288 -0.4030 -0.2994
40151SOL    HW122460   4.319   6.898   0.660  1.2602 -1.2262 -1.0234
40151SOL    HW222461   4.334   7.020   0.572 -0.1375 -0.1326  0.2106
40152SOL     OW22462   4.987   7.414   7.409 -0.3264 -0.2660 -0.2605
40152SOL    HW122463   4.931   7.432   7.485  0.6059 -0.1261  0.4050
40152SOL    HW222464   5.029   7.330   7.430  1.7731  0.9103  0.5180
40153SOL     OW22465   3.669   7.137   6.871 -0.9743  0.5885  0.3740
40153SOL    HW122466   3.586   7.173   6.901 -2.6912 -0.1231 -3.0634
40153SOL    HW222467   3.693   7.192   6.796  0.5769 -0.4940  0.0153
40154SOL     OW22468   3.165   7.272  10.181  0.0170 -0.1679 -0.2742
40154SOL    HW122469   3.257   7.294  10.167 -0.2215 -1.0202 -4.6075
40154SOL    HW222470   3.117   7.350  10.152 -0.7054 -0.1922  0.7757
40155SOL     OW22471   8.327  10.357   8.007 -0.0952 -0.1474 -0.3523
40155SOL    HW122472   8.403  10.358   7.948 -0.0960 -0.4004 -0.3606
40155SOL    HW222473   8.307  10.264   8.018  0.2007 -0.1201  0.4313
40156SOL     OW22474   7.861   0.706   1.204  0.6720  0.5412 -0.1083
40156SOL    HW122475   7.940   0.689   1.152 -0.0160 -1.0196 -0.6971
40156SOL    HW222476   7.874   0.655   1.284  1.7140  2.9085  1.3356
40157SOL     OW22477   5.976   3.966  10.712  0.2662 -0.8343  0.8320
40157SOL    HW122478   5.896   3.913  10.713  0.2046 -0.7431  0.8316
40157SOL    HW222479   5.983   3.999  10.802 -0.0063 -0.3855  0.6949
40158SOL     OW22480   3.181   2.690  10.849 -0.1676  0.0203  0.0001
40158SOL    HW122481   3.114   2.702  10.916 -0.5931  0.9558 -0.5711
40158SOL    HW222482   3.260   2.727  10.888  0.2447 -1.7974  0.9864
40159SOL     OW22483   0.534   8.151   1.896 -0.8558  0.4121 -0.5228
40159SOL    HW122484   0.442   8.123   1.894 -0.4884 -0.8630 -1.9997
40159SOL    HW222485   0.571   8.116   1.815  0.5615  2.2838 -0.7480
40160SOL     OW22486  10.716   6.208   1.962  0.3943 -0.0687  0.4200
40160SOL    HW122487  10.718   6.193   1.867 -0.7187 -0.8652  0.5148
40160SOL    HW222488  10.696   6.123   2.000 -0.0199  0.4168  1.3193
40161SOL     OW22489  10.732   0.330   9.043 -0.4231 -0.4800 -0.1691
40161SOL    HW122490  10.769   0.242   9.033 -0.8371 -0.5798 -0.8975
40161SOL    HW222491  10.724   0.362   8.953  0.3839  0.5826  0.1260
40162SOL     OW22492   2.778   3.121   6.767  0.1137  0.0256  0.4396
40162SOL    HW122493   2.852   3.075   6.808  0.2911 -0.2315 -0.1596
40162SOL    HW222494   2.701   3.089   6.814  0.5002  1.6063  2.2702
40163SOL     OW22495   9.867  10.923  10.326  0.0517 -0.1973 -0.0461
40163SOL    HW122496   9.786  10.902  10.279 -0.2421  1.3884 -0.3165
40163SOL    HW222497   9.919  10.843  10.322 -1.4824 -1.2387  0.0987
40164SOL     OW22498   0.915   9.403   9.361 -0.8453  0.0028 -0.1517
40164SOL    HW122499   0.968   9.381   9.438  0.4853  2.4483 -0.2842
40164SOL    HW222500   0.978   9.420   9.292 -2.0003 -1.0077 -1.5254
40165SOL     OW22501   2.153   5.324   1.430 -0.5097 -0.4730  0.4542
40165SOL    HW122502   2.233   5.295   1.385  0.3659  0.7694  1.1295
40165SOL    HW222503   2.154   5.420   1.419 -2.3396 -0.4955 -0.1921
40166SOL     OW22504   7.074  10.352   3.798  0.0061 -0.2991 -0.2457
40166SOL    HW122505   7.080  10.404   3.878  3.5868 -0.6593 -0.1171
40166SOL    HW222506   7.119  10.270   3.819 -1.3582 -1.5278 -1.8498
40167SOL     OW22507   2.343   4.964   5.195  0.6956  0.5690 -0.0049
40167SOL    HW122508   2.328   4.921   5.111 -1.1069  0.0725  0.5275
40167SOL    HW222509   2.396   4.900   5.244  0.3826  0.1542 -0.1975
40168SOL     OW22510   1.074  10.552   5.498  0.6338 -0.7878  0.3458
40168SOL    HW122511   1.081  10.529   5.591 -0.0014 -1.9011  0.1306
40168SOL    HW222512   1.130  10.629   5.489 -1.6039  1.2244  2.2657
40169SOL     OW22513   1.225  11.100   0.139  0.0537  0.0202  0.2298
40169SOL    HW122514   1.186  11.185   0.158 -1.6867 -0.4823 -0.7699
40169SOL    HW222515   1.184  11.041   0.203  1.4734 -0.0443  1.1138
40170SOL     OW22516  10.797   3.816   1.432 -0.5607  0.4946  0.3666
40170SOL    HW122517  10.815   3.829   1.339  0.3321 -1.4507  0.2277
40170SOL    HW222518  10.702   3.808   1.437 -0.5495 -0.5071 -0.5710
40171SOL     OW22519   9.338   3.902   5.120 -0.3812  0.2760 -0.6593
40171SOL    HW122520   9.298   3.837   5.062 -0.3989 -0.3242  0.0060
40171SOL    HW222521   9.414   3.934   5.070  0.3383 -1.1394 -0.5516
40172SOL     OW22522   3.415   0.704   0.917  0.4185  0.7631  0.1150
40172SOL    HW122523   3.351   0.635   0.936  2.2788 -0.6817  1.6624
40172SOL    HW222524   3.419   0.708   0.821 -0.5007 -0.5705 -0.0084
40173SOL     OW22525   0.295   9.313   8.921 -0.2628 -0.1367  0.2231
40173SOL    HW122526   0.335   9.387   8.877  0.4809  0.7396  2.2510
40173SOL    HW222527   0.364   9.247   8.927 -0.7868 -0.8483 -1.1595
40174SOL     OW22528   1.005   4.459  10.218 -0.1952 -0.3744 -0.0540
40174SOL    HW122529   0.968   4.547  10.207 -0.5596 -0.5168  0.0048
40174SOL    HW222530   0.952   4.403  10.162  0.0336 -0.5600 -0.0868
40175SOL     OW22531   1.617   9.672   8.987  0.3662  0.7745  0.5172
40175SOL    HW122532   1.687   9.677   8.922  1.0402  0.1684  1.1700
40175SOL    HW222533   1.658   9.706   9.067  0.2642 -0.6046  1.1802
40176SOL     OW22534   1.788   9.466   5.488  0.2377 -0.3226 -0.0860
40176SOL    HW122535   1.771   9.557   5.511 -0.3078 -0.6065  0.6591
40176SOL    HW222536   1.765   9.416   5.567  1.5708 -1.0113 -0.0925
40177SOL     OW22537   0.345   8.675   8.792 -0.0683  0.0331 -0.3391
40177SOL    HW122538   0.337   8.723   8.710 -0.6856  0.9128  0.2263
40177SOL    HW222539   0.359   8.743   8.858  0.1901 -0.6480  0.3162
40178SOL     OW22540   8.845   9.538   8.893  0.2634  0.3430 -0.2989
40178SOL    HW122541   8.768   9.575   8.849  1.1285 -0.2254 -2.4565
40178SOL    HW222542   8.834   9.443   8.882  0.5256  0.1912  0.7414
40179SOL     OW22543   9.879   0.592   5.098 -0.1341  0.1608 -0.0929
40179SOL    HW122544   9.956   0.547   5.063  0.5910 -0.3787  2.0768
40179SOL    HW222545   9.840   0.635   5.021  1.9106 -0.1340 -1.3797
40180SOL     OW22546   4.625   2.036   3.335  0.1451  0.7445 -0.8831
40180SOL    HW122547   4.719   2.018   3.331  0.2644  1.5290 -1.6821
40180SOL    HW222548   4.586   1.969   3.279  0.0574 -0.5666  0.6572
40181SOL     OW22549   4.589  10.376   9.613  0.6370 -0.0968  0.4349
40181SOL    HW122550   4.589  10.472   9.617 -0.5309 -0.0223 -0.6849
40181SOL    HW222551   4.585  10.356   9.520 -1.6707 -1.1712  0.6998
40182SOL     OW22552   3.896   7.668   1.856 -0.7182 -0.6271 -0.5261
40182SOL    HW122553   3.985   7.693   1.832 -1.2826  1.3506 -0.7515
40182SOL    HW222554   3.862   7.623   1.779 -0.6929  0.7778 -1.3807
40183SOL     OW22555   2.054   2.098   5.335 -0.6284  0.4827 -0.7207
40183SOL    HW122556   2.038   2.171   5.275 -1.3028  0.2251 -0.8604
40183SOL    HW222557   2.130   2.126   5.386 -1.5794  1.8362  0.0648
40184SOL     OW22558   1.034   0.250   9.805 -0.5649  0.6903 -0.3144
40184SOL    HW122559   1.016   0.158   9.785  1.0527  0.2823 -0.0012
40184SOL    HW222560   1.102   0.276   9.743  0.5364  1.0139  0.9768
40185SOL     OW22561   5.172   4.005  11.066  0.1029  0.5452  0.6288
40185SOL    HW122562   5.233   3.935  11.040 -1.4456 -0.8075  0.4150
40185SOL    HW222563   5.100   3.958  11.109 -1.3939  1.9216 -0.2754
40186SOL     OW22564   8.955   8.586   1.620  0.3966 -0.5551  0.3490
40186SOL    HW122565   8.951   8.643   1.697 -0.9718  0.7333 -0.5997
40186SOL    HW222566   9.028   8.619   1.569 -1.0152  1.1206 -0.6968
40187SOL     OW22567   6.516   4.335   5.797 -0.6315  0.0251 -0.3179
40187SOL    HW122568   6.429   4.338   5.837 -0.4100 -0.6486  0.2380
40187SOL    HW222569   6.556   4.419   5.821 -1.2355  0.4725 -0.8434
40188SOL     OW22570   8.885   5.465   3.809  0.4615  0.0568 -0.8840
40188SOL    HW122571   8.868   5.543   3.757 -1.3564 -0.1694 -0.6797
40188SOL    HW222572   8.879   5.495   3.900  4.0454  0.5454 -0.6756
40189SOL     OW22573   4.638   0.855   9.797 -0.1797 -0.5813  0.2751
40189SOL    HW122574   4.598   0.840   9.711 -1.3783 -1.1662  0.9033
40189SOL    HW222575   4.704   0.785   9.805  2.6658  1.6253 -1.6517
40190SOL     OW22576   6.094   2.576   3.138  0.9893  0.2828  0.4172
40190SOL    HW122577   6.160   2.529   3.088 -1.0453  0.8151 -3.0782
40190SOL    HW222578   6.014   2.568   3.086 -1.1782  1.5672  3.2909
40191SOL     OW22579   9.895   1.075   1.464 -1.0981 -0.0187  0.3015
40191SOL    HW122580   9.862   1.032   1.543  0.8698 -1.5494  0.3671
40191SOL    HW222581   9.960   1.015   1.429 -1.2612  1.0399 -2.0228
40192SOL     OW22582  10.083   8.089   3.105  0.2524 -0.1158  0.4745
40192SOL    HW122583  10.007   8.133   3.068  0.6625  2.7014  2.6847
40192SOL    HW222584  10.157   8.121   3.053  0.2044 -1.3508 -0.4156
40193SOL     OW22585   9.216   2.136   1.042  0.1373 -0.5422  0.3915
40193SOL    HW122586   9.283   2.199   1.015  0.2233 -0.8213 -0.0598
40193SOL    HW222587   9.261   2.052   1.042  0.0068 -0.6125  0.9316
40194SOL     OW22588   2.098   7.772   8.545 -0.4401 -0.6413  0.0577
40194SOL    HW122589   2.173   7.751   8.490  0.4266 -1.0176  1.3313
40194SOL    HW222590   2.131   7.839   8.605 -1.1616 -0.7156  0.5478
40195SOL     OW22591  10.945   7.854   1.893 -0.2139 -1.0421 -0.9047
40195SOL    HW122592  10.994   7.925   1.852 -0.0049 -0.4309  0.3736
40195SOL    HW222593  10.881   7.828   1.827 -0.9303  0.9727 -1.0746
40196SOL     OW22594   4.179   5.497   5.642  0.4829  0.0560 -0.0687
40196SOL    HW122595   4.098   5.547   5.641  0.3684 -0.0332  1.3664
40196SOL    HW222596   4.208   5.495   5.551 -0.2315  1.5228 -0.3608
40197SOL     OW22597   2.157   6.561   3.774  0.0156  0.4456 -0.3240
40197SOL    HW122598   2.109   6.522   3.847 -0.6333  2.5422  0.4289
40197SOL    HW222599   2.183   6.486   3.720  3.4966 -1.6425  3.6787
40198SOL     OW22600   6.372  10.878   0.860  0.1897  0.2419 -0.2652
40198SOL    HW122601   6.353  10.964   0.899 -0.1774 -0.8678  2.1736
40198SOL    HW222602   6.299  10.862   0.801 -0.0071  1.3794 -0.3477
40199SOL     OW22603   4.956   0.686   1.068 -0.9143  0.1921  0.5952
40199SOL    HW122604   4.991   0.747   1.003 -0.9014 -0.3922  0.0455
40199SOL    HW222605   4.928   0.610   1.017  0.6516 -1.0076  1.4147
40200SOL     OW22606   8.708   4.600  10.953  0.0899 -0.1249  0.6904
40200SOL    HW122607   8.757   4.535  10.902  0.7552  0.3938  0.6604
40200SOL    HW222608   8.627   4.612  10.904  0.5283  0.0406 -0.0159
40201SOL     OW22609  10.076   8.355   5.619  0.1071 -0.6441  0.6414
40201SOL    HW122610  10.146   8.392   5.565 -2.6827  0.7093 -2.3240
40201SOL    HW222611  10.032   8.431   5.657 -1.2065 -1.3264  0.5332
40202SOL     OW22612   7.615   1.978   7.851 -0.1297 -0.1413 -0.1184
40202SOL    HW122613   7.590   2.002   7.762  0.3219 -0.4430 -0.3333
40202SOL    HW222614   7.705   2.009   7.859 -0.6448  1.1993  0.7426
40203SOL     OW22615   9.946   7.004  10.197  0.1973 -0.1988 -0.5799
40203SOL    HW122616   9.957   6.939  10.127 -0.2626 -0.1586 -0.6902
40203SOL    HW222617   9.912   7.081  10.152 -0.1542 -0.1936 -0.3048
40204SOL     OW22618   8.655   5.297   8.971 -0.0454 -0.3153  0.1307
40204SOL    HW122619   8.746   5.266   8.972  0.1635  0.2936 -0.0641
40204SOL    HW222620   8.636   5.316   9.063  1.2586  3.0977 -0.1692
40205SOL     OW22621   9.811  10.821  10.762 -0.3144  0.1487  0.2071
40205SOL    HW122622   9.752  10.746  10.772 -0.6902  0.3087 -0.7752
40205SOL    HW222623   9.888  10.797  10.815 -0.2947 -1.0755 -0.3337
40206SOL     OW22624   3.287   5.002  10.310  0.3429  0.3820 -0.5424
40206SOL    HW122625   3.323   4.914  10.295 -2.0386 -0.4860 -1.6908
40206SOL    HW222626   3.257   5.030  10.224  1.4076  2.5514 -0.2735
40207SOL     OW22627  10.651   0.433   3.996 -0.5061  0.4169  0.2944
40207SOL    HW122628  10.571   0.387   4.018  0.4068 -2.5409 -1.8583
40207SOL    HW222629  10.717   0.395   4.054  0.0248 -0.1591 -0.6503
40208SOL     OW22630   4.737   7.588   4.464  0.2398 -0.0492  0.1187
40208SOL    HW122631   4.755   7.607   4.372  1.2095  0.1525  0.3394
40208SOL    HW222632   4.754   7.495   4.474  0.4686 -0.0023  0.1685
40209SOL     OW22633   0.849  10.860   5.330  0.1127 -0.4902 -0.6579
40209SOL    HW122634   0.900  10.780   5.315 -0.5212 -0.9504 -0.3673
40209SOL    HW222635   0.916  10.928   5.343  0.6897 -1.3663  1.3290
40210SOL     OW22636   7.932   5.806   6.163  1.0027 -0.2482  0.1769
40210SOL    HW122637   7.916   5.827   6.255 -1.1162  1.2432 -0.4332
40210SOL    HW222638   7.953   5.891   6.123 -1.6680 -0.1578 -1.2874
40211SOL     OW22639   7.463   5.687   9.718 -0.0800  0.4701 -0.3614
40211SOL    HW122640   7.409   5.761   9.747 -0.6746 -0.5889  1.3905
40211SOL    HW222641   7.545   5.697   9.765 -0.0978  0.1315 -0.2513
40212SOL     OW22642   8.028   7.059   5.568 -0.7580  0.0952  0.0829
40212SOL    HW122643   8.025   7.120   5.642 -0.1285  0.6736 -0.3565
40212SOL    HW222644   7.941   7.066   5.527 -1.2906 -0.6110  1.0497
40213SOL     OW22645   6.497   2.644   0.957  1.1227  0.3633  0.7012
40213SOL    HW122646   6.434   2.601   0.899  0.7335 -0.5413  1.7529
40213SOL    HW222647   6.452   2.721   0.990  0.4386 -0.4133  1.6422
40214SOL     OW22648   3.120  10.425   2.465 -0.6762  0.0592  0.0361
40214SOL    HW122649   3.145  10.425   2.373 -0.1481  1.3206  0.1629
40214SOL    HW222650   3.140  10.513   2.496  1.1280 -0.9137  1.8935
40215SOL     OW22651   9.603   8.915   4.720 -0.1563  0.3299  0.1677
40215SOL    HW122652   9.514   8.947   4.736 -0.8073 -1.8331  1.1627
40215SOL    HW222653   9.624   8.861   4.796  1.2218 -0.8114 -0.9573
40216SOL     OW22654   1.040   1.968   5.740 -0.3133 -0.5339 -0.3096
40216SOL    HW122655   0.959   1.954   5.692 -1.3318 -1.6968  1.6225
40216SOL    HW222656   1.031   2.056   5.776 -0.6706 -0.5993 -0.2291
40217SOL     OW22657   8.972   9.026   2.134 -0.9550 -0.6210  0.2068
40217SOL    HW122658   8.885   9.026   2.096 -1.7458  1.0868  1.8204
40217SOL    HW222659   9.004   8.936   2.124 -2.5071 -1.0525 -1.2013
40218SOL     OW22660   6.502  10.232   3.390  0.0668 -0.2142  1.0428
40218SOL    HW122661   6.410  10.255   3.376  0.5872  1.7737  0.4477
40218SOL    HW222662   6.542  10.315   3.419  1.6615 -1.0452  1.3019
40219SOL     OW22663   7.251   2.784   6.733  0.3165 -0.8080  0.1192
40219SOL    HW122664   7.232   2.726   6.808 -1.1466  0.4093  0.7430
40219SOL    HW222665   7.189   2.756   6.666  1.8911 -2.1628 -0.8634
40220SOL     OW22666  10.962  10.967   3.505  0.4258 -1.1548 -0.0440
40220SOL    HW122667  11.013  11.044   3.479 -0.8352 -0.6730 -1.2190
40220SOL    HW222668  10.942  10.922   3.423 -1.7943 -0.8140  0.2357
40221SOL     OW22669   0.474   6.455   4.428 -0.4463  0.2505 -0.0428
40221SOL    HW122670   0.480   6.547   4.404  1.3633 -0.2485 -1.8382
40221SOL    HW222671   0.536   6.445   4.500 -2.1733  0.7819  1.5838
40222SOL     OW22672   2.197   2.295   3.651  0.8365 -0.1559  0.9538
40222SOL    HW122673   2.213   2.201   3.642  1.0435 -0.1655  1.4146
40222SOL    HW222674   2.228   2.317   3.739 -1.1811 -0.0720  1.7118
40223SOL     OW22675   6.768   0.510   3.488  0.6575 -0.0292  0.0913
40223SOL    HW122676   6.699   0.468   3.540 -0.5619  0.2583 -1.2308
40223SOL    HW222677   6.846   0.459   3.506 -0.7921 -3.1184 -1.6093
40224SOL     OW22678   4.515  10.049   0.448 -0.1232 -0.2972 -0.5519
40224SOL    HW122679   4.544  10.136   0.421  0.6353 -0.5401 -0.5440
40224SOL    HW222680   4.590   9.992   0.430 -0.1522 -0.7318  0.5936
40225SOL     OW22681   8.383   7.186  10.393  0.1159 -0.1024  0.1046
40225SOL    HW122682   8.356   7.276  10.380 -1.9535 -0.8682 -1.4984
40225SOL    HW222683   8.336   7.157  10.471 -0.0482 -0.0932  0.0096
40226SOL     OW22684   9.702   2.873   1.220 -0.0827 -0.5703 -0.0322
40226SOL    HW122685   9.677   2.964   1.206  0.0776 -0.0311  2.5969
40226SOL    HW222686   9.621   2.824   1.210 -0.2658 -0.0975 -1.0032
40227SOL     OW22687   0.147   2.597   9.554  0.7631 -0.3367 -0.1297
40227SOL    HW122688   0.139   2.516   9.503  3.3264 -0.9699  0.3743
40227SOL    HW222689   0.094   2.660   9.505  0.9994 -1.5795 -2.1251
40228SOL     OW22690   1.276   1.073   0.940 -0.1237 -0.9336  0.4654
40228SOL    HW122691   1.338   1.000   0.938  1.0140 -0.0065  0.8555
40228SOL    HW222692   1.227   1.061   1.022 -1.5731 -2.5234 -0.5667
40229SOL     OW22693   2.358   1.780   5.261 -0.1437  0.2000 -0.4005
40229SOL    HW122694   2.270   1.817   5.272 -0.7397 -0.4433 -2.4892
40229SOL    HW222695   2.387   1.813   5.175 -0.0219 -2.7088 -1.5853
40230SOL     OW22696  10.447   9.170   3.891  0.9191 -0.4620  0.2248
40230SOL    HW122697  10.518   9.234   3.901  0.5578 -0.2021  1.3978
40230SOL    HW222698  10.478   9.092   3.936  0.4286 -0.3037  0.8574
40231SOL     OW22699   4.782   5.359   9.795  0.8250 -0.2976 -0.5298
40231SOL    HW122700   4.780   5.425   9.725  1.0994  1.9451  1.4243
40231SOL    HW222701   4.870   5.366   9.832 -0.6086  2.1487  3.0115
40232SOL     OW22702   5.393   0.540   7.552  0.4755  0.4577 -0.6171
40232SOL    HW122703   5.413   0.451   7.521  2.0088  0.0425  1.3204
40232SOL    HW222704   5.318   0.529   7.610 -0.3588  0.7185 -1.6215
40233SOL     OW22705   0.502  10.380   9.741  0.8524 -0.0366 -0.2016
40233SOL    HW122706   0.460  10.295   9.748  1.5921 -0.3672  0.3642
40233SOL    HW222707   0.480  10.411   9.653  2.4570 -1.8341 -1.3109
40234SOL     OW22708   6.551   3.649   6.658 -0.3989 -0.5671  0.0967
40234SOL    HW122709   6.481   3.711   6.636 -1.8179 -2.2397 -0.3234
40234SOL    HW222710   6.631   3.696   6.636 -1.4478  0.8209 -1.0258
40235SOL     OW22711  10.931   6.396   2.047 -0.2147  0.0380  0.2528
40235SOL    HW122712  10.920   6.429   1.958 -0.4351  1.5408  0.8121
40235SOL    HW222713  10.894   6.308   2.045 -2.8980  1.1011 -0.4559
40236SOL     OW22714   9.515   7.195   2.591 -0.5190 -0.4383 -0.1122
40236SOL    HW122715   9.469   7.112   2.606 -2.1409  0.4465  0.0161
40236SOL    HW222716   9.479   7.227   2.508  0.2806  0.0286 -0.2859
40237SOL     OW22717   0.919   6.952  10.020  0.1110  0.0607 -0.1622
40237SOL    HW122718   1.008   6.988  10.024 -0.0239  0.4968 -0.9395
40237SOL    HW222719   0.862   7.028  10.031 -0.1691 -0.1437 -0.1879
40238SOL     OW22720   2.406   1.169  10.312  0.0401  0.1200  0.0799
40238SOL    HW122721   2.433   1.252  10.352 -2.0824  0.5343  0.7758
40238SOL    HW222722   2.393   1.110  10.386  0.1956 -0.4243 -0.3212
40239SOL     OW22723   9.488   6.601  10.178 -0.3539 -0.4895 -0.2551
40239SOL    HW122724   9.554   6.581  10.243  0.1503  1.5628 -0.0538
40239SOL    HW222725   9.480   6.522  10.126  1.0430 -1.3347  0.7545
40240SOL     OW22726   9.836   6.389   7.586  0.0698  0.3394  0.3539
40240SOL    HW122727   9.839   6.441   7.506  0.6483 -0.3329 -0.0727
40240SOL    HW222728   9.762   6.329   7.574  0.7759 -0.4478 -0.1184
40241SOL     OW22729   6.946   7.006   3.056 -0.3493 -0.5496  0.3282
40241SOL    HW122730   7.031   6.963   3.067 -0.2059 -0.6558 -1.0424
40241SOL    HW222731   6.968   7.095   3.028 -0.5977 -1.5750 -3.7709
40242SOL     OW22732   6.773   8.508   9.122  0.1327 -0.6317  0.2293
40242SOL    HW122733   6.712   8.575   9.091  2.1166  0.9056 -0.5273
40242SOL    HW222734   6.756   8.503   9.217  1.4099  2.6606  0.7762
40243SOL     OW22735   5.394   0.715   7.202  0.3588  0.0355  0.4899
40243SOL    HW122736   5.361   0.686   7.117  0.2971  1.1344  0.1225
40243SOL    HW222737   5.381   0.810   7.201  0.7262  0.1031  1.5692
40244SOL     OW22738   8.469   3.128   7.523 -0.1838 -0.3364  0.3319
40244SOL    HW122739   8.512   3.043   7.526  0.4528 -0.1942 -2.3997
40244SOL    HW222740   8.379   3.110   7.551 -0.0865 -1.9479 -0.2860
40245SOL     OW22741   6.898   5.020  10.280 -0.0138  0.1664 -0.0487
40245SOL    HW122742   6.931   5.061  10.201 -2.2281 -1.0577 -1.7349
40245SOL    HW222743   6.967   4.959  10.306  1.6566  2.1376  0.2795
40246SOL     OW22744  10.140   5.796   0.272 -0.3691 -0.7529 -0.3615
40246SOL    HW122745  10.065   5.848   0.242 -1.1481 -0.3765  1.9916
40246SOL    HW222746  10.105   5.743   0.344  1.8720  0.5076  1.8407
40247SOL     OW22747   8.956   8.372  10.850  0.3862 -0.2430 -0.5500
40247SOL    HW122748   8.942   8.312  10.923 -1.3534 -1.6443 -1.9176
40247SOL    HW222749   9.037   8.340  10.809  1.1447  0.2987  0.4770
40248SOL     OW22750   9.556   2.315   2.711  0.1391 -0.0493  0.1475
40248SOL    HW122751   9.618   2.360   2.653 -1.1387  0.1375 -1.1379
40248SOL    HW222752   9.597   2.319   2.797  2.3963 -0.8412 -0.7902
40249SOL     OW22753   8.680   0.317   6.842 -0.5182 -1.1711 -0.0846
40249SOL    HW122754   8.592   0.350   6.826  0.1400  0.2272 -1.0346
40249SOL    HW222755   8.724   0.387   6.889  0.7640 -0.8318 -1.6773
40250SOL     OW22756   6.350   0.981   6.749 -0.1524  0.9454  0.0954
40250SOL    HW122757   6.387   0.915   6.691 -0.1473  1.8978 -1.0236
40250SOL    HW222758   6.381   0.957   6.836 -0.6016 -0.8294 -0.2003
40251SOL     OW22759   3.752   6.946   1.487 -0.2001 -0.0997 -0.1354
40251SOL    HW122760   3.824   6.986   1.439 -0.3475  0.0071 -0.2698
40251SOL    HW222761   3.708   7.020   1.529 -0.0592 -0.1955  0.1797
40252SOL     OW22762   3.022   6.440   8.183 -1.0917 -0.5326 -0.1823
40252SOL    HW122763   3.108   6.481   8.184 -1.0754 -0.5723  0.1606
40252SOL    HW222764   3.033   6.361   8.236 -2.5868  2.0047  4.4225
40253SOL     OW22765   9.834   0.820   1.144 -0.4079  0.0071 -0.1077
40253SOL    HW122766   9.907   0.800   1.202 -0.1914 -0.5248 -0.5480
40253SOL    HW222767   9.875   0.860   1.067 -0.6490  0.3265 -0.0727
40254SOL     OW22768   8.629   9.299   1.012 -0.0458  0.2615 -0.3813
40254SOL    HW122769   8.598   9.358   1.081 -0.9294 -0.2100 -0.3556
40254SOL    HW222770   8.711   9.262   1.047 -0.1677  0.4905  0.1550
40255SOL     OW22771   0.368   5.060   0.037 -0.0806 -0.7262 -0.3602
40255SOL    HW122772   0.453   5.065  -0.006  0.2237  0.2875  0.3356
40255SOL    HW222773   0.373   5.123   0.109 -0.8115 -1.9033  0.7627
40256SOL     OW22774   2.444   0.421   7.145  0.4749 -0.8735 -0.6792
40256SOL    HW122775   2.539   0.429   7.135  0.5591 -2.1257 -0.9921
40256SOL    HW222776   2.409   0.502   7.108  1.4741  0.2246  0.6563
40257SOL     OW22777   5.140   1.426   3.646 -0.3473  0.0874 -0.6529
40257SOL    HW122778   5.183   1.510   3.631 -2.1239  0.8497 -1.7258
40257SOL    HW222779   5.118   1.427   3.739  1.6346 -0.2232 -0.1178
40258SOL     OW22780   7.809   1.185   8.361  1.0949  0.1984 -0.4998
40258SOL    HW122781   7.749   1.252   8.327 -0.6884 -0.4589  1.1720
40258SOL    HW222782   7.808   1.198   8.456 -0.3335 -2.9115  0.0395
40259SOL     OW22783   5.869   6.413  10.736 -0.1822 -0.7478  0.0151
40259SOL    HW122784   5.863   6.378  10.647  1.7383  1.5023 -1.1198
40259SOL    HW222785   5.940   6.363  10.776 -0.6405 -1.3496  0.0914
40260SOL     OW22786   3.281   1.444   9.569 -0.6347  0.3449  0.4175
40260SOL    HW122787   3.358   1.467   9.518 -1.0579 -0.4373 -0.6177
40260SOL    HW222788   3.236   1.379   9.516 -1.3972 -0.0775  1.5444
40261SOL     OW22789   8.957   5.340   8.675  0.4684  0.2150  0.0196
40261SOL    HW122790   9.023   5.273   8.690  0.1519 -0.0111  0.4205
40261SOL    HW222791   8.873   5.293   8.676  0.3532  0.3225 -1.5765
40262SOL     OW22792   5.166   0.948   3.076  0.1549 -0.2135  0.4167
40262SOL    HW122793   5.177   1.035   3.037  0.5048 -0.0685  0.8373
40262SOL    HW222794   5.145   0.965   3.168 -1.8059 -0.5233  0.0682
40263SOL     OW22795   3.464   7.440   5.337 -0.3162  0.7265  0.1148
40263SOL    HW122796   3.487   7.347   5.348 -3.5577  0.0395  2.4162
40263SOL    HW222797   3.503   7.483   5.413  0.2251  1.1045 -0.3621
40264SOL     OW22798   5.361   9.674   0.320 -0.0515  0.7228 -0.4167
40264SOL    HW122799   5.337   9.767   0.321 -3.8992 -0.0799 -0.0196
40264SOL    HW222800   5.425   9.665   0.391 -2.4300  2.5625  2.2185
40265SOL     OW22801   2.671   3.817   9.030 -0.8589 -0.1239 -0.5436
40265SOL    HW122802   2.766   3.820   9.042 -0.9308 -0.8426  0.3056
40265SOL    HW222803   2.643   3.909   9.036 -0.1787  0.1439 -1.2625
40266SOL     OW22804   8.563   2.274  10.850  0.0256 -0.5404  0.0131
40266SOL    HW122805   8.597   2.342  10.791 -1.2505  1.2239  1.2369
40266SOL    HW222806   8.470   2.268  10.828 -0.0199 -1.3844  0.4238
40267SOL     OW22807   5.190   4.591   1.199 -0.8420  0.4751  0.8333
40267SOL    HW122808   5.109   4.640   1.211 -0.9109  0.6690 -0.3413
40267SOL    HW222809   5.175   4.537   1.121  0.7993  1.9635 -0.6170
40268SOL     OW22810  10.641  10.634   6.502  0.2069 -1.2591 -0.2350
40268SOL    HW122811  10.581  10.605   6.571  0.7535 -0.5818  0.5523
40268SOL    HW222812  10.728  10.619   6.539  0.5311  1.1212  0.1635
40269SOL     OW22813   3.092   0.430   7.680 -0.7592 -0.4587  0.2431
40269SOL    HW122814   3.186   0.450   7.683 -0.2640 -2.4792 -0.1991
40269SOL    HW222815   3.085   0.343   7.720 -2.0882 -1.3982 -1.8215
40270SOL     OW22816   5.254   6.236   9.353 -0.0407 -0.0652  0.3100
40270SOL    HW122817   5.166   6.211   9.326  0.1298 -0.1248 -0.2027
40270SOL    HW222818   5.277   6.307   9.293  0.8713 -1.1051 -0.6109
40271SOL     OW22819   9.601   4.324   3.299 -0.1502  0.2551  0.0225
40271SOL    HW122820   9.687   4.363   3.286  0.0128  0.1036  0.5904
40271SOL    HW222821   9.565   4.370   3.376 -1.1686  1.2940 -1.0324
40272SOL     OW22822   4.369   0.033  10.769 -0.4664  0.4581 -0.5938
40272SOL    HW122823   4.439  -0.002  10.713  1.0740  1.2383  0.7548
40272SOL    HW222824   4.324   0.097  10.713  0.5157  0.6407 -1.2054
40273SOL     OW22825   0.053   0.357   8.196  0.2654 -1.1192  0.0982
40273SOL    HW122826   0.066   0.374   8.289  1.8935  0.7628 -0.4031
40273SOL    HW222827   0.136   0.320   8.166 -0.2995 -1.8595 -0.5952
40274SOL     OW22828   4.221   5.025   4.055  0.2556  0.1102 -0.2907
40274SOL    HW122829   4.144   5.062   4.012  0.0484  0.5575  0.4604
40274SOL    HW222830   4.249   5.092   4.117  1.3497  0.0167 -0.6581
40275SOL     OW22831   9.997   3.961   1.508  0.0965  0.3858  0.7668
40275SOL    HW122832   9.913   3.947   1.465  0.5591  2.1453 -0.8553
40275SOL    HW222833  10.050   3.887   1.482  0.1873  1.1253 -1.3774
40276SOL     OW22834  11.057   6.988   8.610 -0.1695 -0.2957 -0.1682
40276SOL    HW122835  11.080   7.037   8.531 -0.6608 -0.6738 -0.5627
40276SOL    HW222836  11.006   6.913   8.577 -2.2229  0.6595  0.6488
40277SOL     OW22837   2.955   2.527  10.256 -0.1699 -0.1985 -0.4288
40277SOL    HW122838   2.882   2.480  10.215 -1.0855  0.1187  0.7760
40277SOL    HW222839   2.993   2.578  10.185 -1.4818  0.0471 -0.9863
40278SOL     OW22840   8.112   0.529   7.372  0.6935 -0.4616 -0.2951
40278SOL    HW122841   8.086   0.513   7.462  1.1897 -0.6431 -0.1854
40278SOL    HW222842   8.131   0.443   7.336  2.3253 -0.2422 -0.0202
40279SOL     OW22843   4.012   2.015   7.644 -0.1651  1.1589  0.4285
40279SOL    HW122844   3.985   1.923   7.640  1.4695  0.6492  0.3005
40279SOL    HW222845   3.931   2.063   7.656 -1.0017 -0.3436  1.0894
40280SOL     OW22846   1.626   8.440   8.959  0.5838 -0.3399 -0.1470
40280SOL    HW122847   1.635   8.412   8.868 -0.3471 -0.2557 -0.2677
40280SOL    HW222848   1.709   8.415   8.999  0.7918 -0.8789 -0.8862
40281SOL     OW22849   8.012   0.741   2.972  0.1511 -0.5486  0.2787
40281SOL    HW122850   7.959   0.662   2.981  0.0158 -0.3444  1.4764
40281SOL    HW222851   7.950   0.807   2.939  0.4303 -1.0866 -1.4298
40282SOL     OW22852   8.109   7.198   1.825  0.4262  0.1530 -0.2512
40282SOL    HW122853   8.146   7.185   1.912  0.1783 -0.0636 -0.1773
40282SOL    HW222854   8.025   7.151   1.827 -0.3992  1.5494 -0.0373
40283SOL     OW22855   0.905   6.197   8.938 -0.6175 -0.4773 -0.3852
40283SOL    HW122856   0.938   6.277   8.979 -1.3121 -1.0614  1.4184
40283SOL    HW222857   0.983   6.147   8.917 -0.1116  1.0618 -2.4895
40284SOL     OW22858   9.637   0.662   6.333  0.1519 -0.3775 -0.4838
40284SOL    HW122859   9.732   0.672   6.339  0.0472 -0.2060  2.2282
40284SOL    HW222860   9.604   0.752   6.341 -0.2756 -0.2570 -2.8700
40285SOL     OW22861  10.299   8.061   1.902 -0.3063 -0.4289  0.0555
40285SOL    HW122862  10.330   8.022   1.983 -1.9011 -0.0908  0.8637
40285SOL    HW222863  10.332   8.151   1.904 -2.8651  0.5976  1.9176
40286SOL     OW22864  11.049   3.118   8.782  0.3584  0.3020 -0.7886
40286SOL    HW122865  11.047   3.023   8.795  0.1054  0.3256 -0.6404
40286SOL    HW222866  11.070   3.153   8.869 -1.1448  0.4524 -0.4590
40287SOL     OW22867   9.165   0.662   2.895  0.0666 -0.0148  0.3918
40287SOL    HW122868   9.123   0.648   2.980 -1.3788  0.2413 -0.2556
40287SOL    HW222869   9.167   0.757   2.884  0.1172 -0.0507  0.0836
40288SOL     OW22870   4.549   3.495   3.327  0.3892 -0.4036  0.1522
40288SOL    HW122871   4.519   3.575   3.282 -0.6437 -0.8126  0.0798
40288SOL    HW222872   4.521   3.424   3.269 -0.3509 -0.9075  1.1075
40289SOL     OW22873   8.317  11.082   9.860 -0.6805  0.3570  0.2158
40289SOL    HW122874   8.315  11.155   9.922  0.0897  0.2897  0.3291
40289SOL    HW222875   8.387  11.105   9.798  0.9955 -1.2096  1.4265
40290SOL     OW22876   0.828   1.342   3.317  0.4353 -0.2798 -0.6420
40290SOL    HW122877   0.870   1.317   3.235 -1.0074  0.5670 -1.6941
40290SOL    HW222878   0.794   1.430   3.300 -0.5843 -0.4028  0.5915
40291SOL     OW22879   8.619   9.460   3.777 -0.6106  0.5484  0.5210
40291SOL    HW122880   8.672   9.481   3.701 -2.2649 -0.8963 -1.1406
40291SOL    HW222881   8.665   9.500   3.851  0.6387  2.6847 -1.3046
40292SOL     OW22882   7.672   6.749   3.813  0.4481 -0.1311 -0.1565
40292SOL    HW122883   7.649   6.668   3.858  2.2055  0.6205  2.2979
40292SOL    HW222884   7.631   6.818   3.866 -0.9056  0.6481 -2.1177
40293SOL     OW22885   3.873   4.682   6.179  0.1084 -0.4139  0.1034
40293SOL    HW122886   3.864   4.598   6.223 -2.0396 -0.6204 -0.6214
40293SOL    HW222887   3.960   4.713   6.203 -0.7218 -0.6971  4.1735
40294SOL     OW22888   4.088  10.704   5.796  0.0918  0.7689  1.0060
40294SOL    HW122889   4.139  10.680   5.719  0.7789  1.1034  1.3398
40294SOL    HW222890   4.024  10.634   5.806 -1.8023  2.0465 -1.4163
40295SOL     OW22891   9.048   7.118  10.491  0.2589 -0.3371  0.1539
40295SOL    HW122892   9.125   7.067  10.465  0.6920 -0.1034  0.9492
40295SOL    HW222893   9.073   7.209  10.473 -0.4187 -0.3623 -1.0373
40296SOL     OW22894  10.866   0.050   3.955 -0.2484 -0.5604 -0.2746
40296SOL    HW122895  10.904   0.115   4.015 -0.8954  2.0122 -2.4826
40296SOL    HW222896  10.772   0.063   3.962 -0.3385 -0.3480 -1.7137
40297SOL     OW22897   1.297   0.422   4.365 -0.4782  1.0466 -0.1547
40297SOL    HW122898   1.294   0.327   4.371  0.8782  0.9390 -0.8841
40297SOL    HW222899   1.390   0.444   4.370 -0.7406  2.3090 -0.3870
40298SOL     OW22900   6.421   9.889   6.506  0.3053  0.4226  0.2671
40298SOL    HW122901   6.400   9.873   6.414 -0.6648 -0.9351  0.7039
40298SOL    HW222902   6.476   9.815   6.531 -1.1636 -0.3701  1.3135
40299SOL     OW22903   7.452   6.916   2.933  0.4483  0.0981 -0.1741
40299SOL    HW122904   7.383   6.970   2.894  0.7837 -0.2099 -1.2509
40299SOL    HW222905   7.523   6.978   2.952  0.3836  0.2220 -0.3303
40300SOL     OW22906   7.471   7.402   5.339 -0.1477 -0.2241 -0.6925
40300SOL    HW122907   7.516   7.319   5.330  2.2862  0.6796  1.8112
40300SOL    HW222908   7.460   7.434   5.249  0.4078 -2.4127 -1.5846
40301SOL     OW22909   7.945   2.454   1.734  0.1495 -0.0127  0.4030
40301SOL    HW122910   8.033   2.484   1.715  0.0480 -0.4138 -0.7819
40301SOL    HW222911   7.890   2.499   1.670 -0.5823  0.6553  1.4810
40302SOL     OW22912   9.664   1.318   3.091 -0.3448  0.4288 -0.1728
40302SOL    HW122913   9.641   1.381   3.023  3.4543  0.7368 -1.3667
40302SOL    HW222914   9.649   1.232   3.050  2.1445  0.6081 -1.6366
40303SOL     OW22915   4.970   0.939  10.742 -0.5687 -0.2046  0.4341
40303SOL    HW122916   4.996   1.011  10.684 -2.3898  0.4170  0.3226
40303SOL    HW222917   5.033   0.869  10.723  2.2365  1.7882  1.6415
40304SOL     OW22918  11.049   2.707   8.941 -0.3578 -0.5800  0.0091
40304SOL    HW122919  11.073   2.621   8.906  0.1845 -0.9451  1.2163
40304SOL    HW222920  11.104   2.768   8.893 -0.0097 -1.0138 -0.1562
40305SOL     OW22921   0.908   4.647   0.609  0.0712 -1.0043  0.0870
40305SOL    HW122922   0.939   4.623   0.697  2.2365  0.5354 -0.1963
40305SOL    HW222923   0.831   4.702   0.625  0.8157 -0.2149  1.0716
40306SOL     OW22924   6.175  10.223   2.364 -0.3916 -0.1224 -0.1928
40306SOL    HW122925   6.227  10.154   2.324 -0.9918 -0.2826 -0.7164
40306SOL    HW222926   6.176  10.295   2.301 -3.2545 -1.2198 -1.6442
40307SOL     OW22927   3.737   6.761   7.046 -0.3377  0.6220  0.0723
40307SOL    HW122928   3.709   6.848   7.074 -3.8804 -0.6085  0.8677
40307SOL    HW222929   3.724   6.705   7.122 -0.0229 -0.9587 -0.9734
40308SOL     OW22930   5.371   6.779   9.219  0.0774 -0.4865 -0.3816
40308SOL    HW122931   5.276   6.776   9.211  0.1601  0.3426 -2.1251
40308SOL    HW222932   5.403   6.758   9.132  1.5656 -2.3800  0.5422
40309SOL     OW22933   1.487   9.655   0.823 -0.0697 -0.4929  0.4754
40309SOL    HW122934   1.555   9.706   0.866 -0.1696 -0.6889  0.8712
40309SOL    HW222935   1.481   9.691   0.734  0.2170 -0.1643  0.5917
40310SOL     OW22936   5.076   9.420   0.062 -0.4554 -0.7103  0.1963
40310SOL    HW122937   5.099   9.445   0.151 -0.3512 -2.1875  0.6211
40310SOL    HW222938   5.100   9.327   0.057 -1.0804 -0.8190 -1.1584
40311SOL     OW22939   7.214   2.380   2.850  0.6457  0.1714 -0.1659
40311SOL    HW122940   7.213   2.410   2.940  2.0622 -0.2744  0.0157
40311SOL    HW222941   7.123   2.355   2.832  0.8703 -2.9863  2.2476
40312SOL     OW22942   6.034   5.591  10.094  0.0241 -0.3722 -0.4121
40312SOL    HW122943   6.102   5.559  10.153 -1.1066 -2.2967 -0.0668
40312SOL    HW222944   6.076   5.589  10.007  1.0121  0.3950  0.0304
40313SOL     OW22945   1.700   0.358   2.759  0.9722  0.0342 -0.2096
40313SOL    HW122946   1.739   0.401   2.834 -0.7157 -0.5416  1.0506
40313SOL    HW222947   1.693   0.426   2.692 -1.0584  1.6469  1.5054
40314SOL     OW22948   3.388   8.828   3.496 -0.3336 -0.5750  0.5060
40314SOL    HW122949   3.428   8.912   3.520  0.7304 -0.2012 -2.2473
40314SOL    HW222950   3.457   8.779   3.453 -1.3460 -2.3193  0.7531
40315SOL     OW22951   7.719   7.897   6.720 -0.1035  0.1540 -0.0448
40315SOL    HW122952   7.723   7.985   6.757 -1.7221 -0.3542  1.4781
40315SOL    HW222953   7.662   7.906   6.643  2.6047  1.0532 -2.0857
40316SOL     OW22954   7.201   0.474   9.471  0.2832 -0.1238  0.4563
40316SOL    HW122955   7.151   0.398   9.444 -0.7626  1.2145 -1.6223
40316SOL    HW222956   7.147   0.516   9.538  0.9119 -1.2163  1.6803
40317SOL     OW22957   7.804   3.334   0.378  0.9662 -0.6600  0.0444
40317SOL    HW122958   7.832   3.363   0.291 -0.3361  3.2751  0.7233
40317SOL    HW222959   7.711   3.312   0.367  1.1004 -1.3293  0.2238
40318SOL     OW22960   0.854   8.098   3.304 -0.3858 -0.3986  0.0549
40318SOL    HW122961   0.795   8.063   3.371 -0.1737 -0.9069 -0.0252
40318SOL    HW222962   0.865   8.190   3.329 -1.8655 -0.0821 -0.4059
40319SOL     OW22963   7.784   8.284   6.578 -0.4796 -0.5612  0.3279
40319SOL    HW122964   7.728   8.271   6.501 -0.7300 -0.3904  0.4776
40319SOL    HW222965   7.725   8.273   6.652  0.0473 -2.1732  0.5422
40320SOL     OW22966   1.713  10.111   1.435  0.5669 -0.3876  0.2949
40320SOL    HW122967   1.641  10.165   1.401  0.9439 -1.1241 -1.8043
40320SOL    HW222968   1.790  10.167   1.429  0.5168 -0.2816  0.6230
40321SOL     OW22969  11.071   2.721   6.140  0.4349 -0.0497  0.2782
40321SOL    HW122970  10.993   2.682   6.179 -0.4882  0.8785 -0.5753
40321SOL    HW222971  11.131   2.647   6.126 -0.4007 -0.8178  0.6784
40322SOL     OW22972   3.252   5.759   8.754 -1.0000 -0.1053  0.0228
40322SOL    HW122973   3.332   5.707   8.755 -0.6255  0.4143  2.3190
40322SOL    HW222974   3.280   5.846   8.782 -2.0771  0.6222 -1.0435
40323SOL     OW22975   2.946   5.349  10.519  0.0973 -0.1940  0.0897
40323SOL    HW122976   2.869   5.296  10.498  0.5286 -0.4810 -0.8526
40323SOL    HW222977   2.911   5.428  10.559 -0.5586 -1.2471  1.7276
40324SOL     OW22978   9.878   1.469   1.654 -0.0657 -0.3040 -0.4772
40324SOL    HW122979   9.971   1.456   1.669 -0.2297  1.1957  2.5323
40324SOL    HW222980   9.872   1.491   1.561  2.8354  1.4414 -0.3797
40325SOL     OW22981  10.749   9.270   7.095 -0.3513 -0.4524  0.3480
40325SOL    HW122982  10.725   9.359   7.069 -1.1380 -0.8862 -0.4775
40325SOL    HW222983  10.825   9.281   7.152  1.1824  0.5915 -1.7627
40326SOL     OW22984   3.824   0.817   6.434  0.9278 -0.0584 -0.0876
40326SOL    HW122985   3.784   0.796   6.518  1.7797  0.1606  0.3922
40326SOL    HW222986   3.751   0.838   6.376  0.2895 -0.9365  0.3891
40327SOL     OW22987   9.847   9.727   9.906  0.4379 -0.2854 -0.2019
40327SOL    HW122988   9.926   9.676   9.921  1.1125  0.8926  0.3858
40327SOL    HW222989   9.796   9.675   9.845  0.5685 -2.2100  1.2470
40328SOL     OW22990   2.832   4.949   1.848 -0.6365  0.2923 -0.1585
40328SOL    HW122991   2.804   4.999   1.771  0.4263 -1.4459 -1.7584
40328SOL    HW222992   2.754   4.944   1.903 -1.8807  0.3392 -1.8326
40329SOL     OW22993  10.514   3.795   7.247 -0.5815  0.1381 -0.4733
40329SOL    HW122994  10.565   3.715   7.260 -0.6695 -0.1700 -1.8493
40329SOL    HW222995  10.536   3.823   7.159  0.1499  2.1823  0.3156
40330SOL     OW22996  10.165   8.084   3.909 -0.3912 -0.4147  0.3371
40330SOL    HW122997  10.181   8.176   3.926 -0.1355 -0.5789  0.9925
40330SOL    HW222998  10.086   8.083   3.855 -0.5735  0.1688  0.5866
40331SOL     OW22999   0.052   2.010   4.835  0.1075  0.3762  0.3416
40331SOL    HW123000   0.016   2.017   4.924  0.7616  2.5255  0.5057
40331SOL    HW223001   0.145   1.989   4.849  0.5856  2.2855  0.2867
40332SOL     OW23002   5.982   2.507   8.776 -0.2453  0.4572 -0.3225
40332SOL    HW123003   5.920   2.470   8.839 -0.0878 -1.5454 -1.2608
40332SOL    HW223004   6.006   2.433   8.720  3.8522  0.8075  0.6550
40333SOL     OW23005   2.374   1.936   7.418  0.7945  0.3384 -1.1262
40333SOL    HW123006   2.387   1.994   7.343  0.5305  0.0914 -1.3639
40333SOL    HW223007   2.334   1.992   7.485 -0.0571  0.2858 -1.5742
40334SOL     OW23008   6.620   3.625   4.511 -0.1950  0.4742  0.0239
40334SOL    HW123009   6.609   3.715   4.541 -0.0328  0.8786 -1.0515
40334SOL    HW223010   6.648   3.635   4.419 -0.2333 -0.6718 -0.1183
40335SOL     OW23011   2.410   9.675   4.704  0.2020 -0.4769 -0.2674
40335SOL    HW123012   2.498   9.658   4.736  0.7662  1.2839 -0.7857
40335SOL    HW223013   2.354   9.618   4.757  1.5062 -0.6769  0.9629
40336SOL     OW23014   0.934   5.164   9.029 -0.5254  0.2085  0.6968
40336SOL    HW123015   0.885   5.123   8.957  2.8244 -2.0964 -0.5346
40336SOL    HW223016   0.933   5.098   9.099 -1.1730  1.1659  1.6208
40337SOL     OW23017   1.671   2.014   2.128  0.5261  0.6580  0.2102
40337SOL    HW123018   1.734   2.059   2.072  0.2217  1.6078  0.6141
40337SOL    HW223019   1.608   2.081   2.152 -0.3836 -0.1716  0.1951
40338SOL     OW23020   2.881   9.858   5.071  0.1346  0.3525  0.6023
40338SOL    HW123021   2.926   9.773   5.071  0.0239  0.2119 -1.8497
40338SOL    HW223022   2.929   9.909   5.005 -1.7343  1.0691 -0.2618
40339SOL     OW23023   9.976   6.124   3.731  0.0055  0.1325 -0.5021
40339SOL    HW123024  10.025   6.137   3.650  0.6605 -0.5459 -0.2266
40339SOL    HW223025   9.967   6.212   3.768  2.6510  0.1169  0.3604
40340SOL     OW23026  10.232   2.057   4.380 -0.1290  0.1095 -0.5063
40340SOL    HW123027  10.223   1.981   4.322  0.4350  0.1602 -0.6681
40340SOL    HW223028  10.269   2.020   4.461  0.0637  0.1988 -0.5541
40341SOL     OW23029   3.458   5.794   9.017  0.1640 -0.2510  0.4328
40341SOL    HW123030   3.507   5.864   9.060 -4.0866  2.7431  1.0319
40341SOL    HW223031   3.451   5.725   9.084  0.6181  0.7353  1.5345
40342SOL     OW23032   9.573   7.926   7.594 -0.3540  0.8827  0.0991
40342SOL    HW123033   9.608   8.014   7.583 -2.1731  1.6790  0.3510
40342SOL    HW223034   9.507   7.934   7.663 -0.3560 -0.7471  0.3458
40343SOL     OW23035   0.247   3.561   5.529  0.1922 -0.2664 -0.1238
40343SOL    HW123036   0.152   3.562   5.517 -0.1429 -0.2527  2.0742
40343SOL    HW223037   0.281   3.613   5.456 -1.5855  0.8416 -0.2227
40344SOL     OW23038   3.449   4.375   6.640  0.8059 -0.7110  0.5767
40344SOL    HW123039   3.535   4.335   6.648  0.1289 -3.1174 -2.4217
40344SOL    HW223040   3.392   4.304   6.610 -1.4589  1.5700 -0.9402
40345SOL     OW23041   5.051   6.973   5.684  0.3344  0.1907  0.3795
40345SOL    HW123042   5.005   6.974   5.600  2.0801 -0.1754 -0.6174
40345SOL    HW223043   5.064   6.880   5.703 -1.0848  0.2143  1.6945
40346SOL     OW23044  10.562   3.364   5.349  0.3018  0.0926  0.4816
40346SOL    HW123045  10.486   3.327   5.304  0.4749 -0.3545  0.5523
40346SOL    HW223046  10.637   3.330   5.301  0.4622  0.3550  0.5481
40347SOL     OW23047   7.854   1.582   1.470 -0.5974 -0.0181 -0.6341
40347SOL    HW123048   7.931   1.544   1.427  0.2511  2.1389 -1.1208
40347SOL    HW223049   7.786   1.515   1.459  0.6400 -1.1389 -1.9638
40348SOL     OW23050   8.737   5.560   5.014 -0.0570 -0.3066 -0.5207
40348SOL    HW123051   8.810   5.527   4.961 -0.5138 -2.3529  0.0120
40348SOL    HW223052   8.691   5.480   5.044 -1.2634  0.8503  0.8976
40349SOL     OW23053   4.824  11.078  10.672 -0.0261  0.1892  0.4476
40349SOL    HW123054   4.881  11.040  10.605 -1.6741 -1.2926 -0.1821
40349SOL    HW223055   4.877  11.075  10.752  0.8448 -1.0009 -0.1305
40350SOL     OW23056   2.251   1.272   0.759 -0.4017  1.0669  0.0574
40350SOL    HW123057   2.199   1.192   0.750 -0.6549  0.8027  3.0561
40350SOL    HW223058   2.303   1.276   0.678  0.4647 -2.7493  0.2527
40351SOL     OW23059   2.915  10.587   3.626  0.2554  0.4699  0.0496
40351SOL    HW123060   2.868  10.504   3.626 -0.4118  0.8392 -0.0741
40351SOL    HW223061   2.871  10.639   3.693 -1.4011  1.8433 -1.9678
40352SOL     OW23062   3.535   4.858  10.994  0.2394 -0.1590  0.0226
40352SOL    HW123063   3.624   4.837  10.967 -0.0185 -0.1086 -0.9155
40352SOL    HW223064   3.509   4.786  11.052  1.6133  0.8852  2.0465
40353SOL     OW23065   5.760   5.216   8.785  0.1660 -0.1913  0.3521
40353SOL    HW123066   5.806   5.250   8.861 -0.3767  0.1714  0.5195
40353SOL    HW223067   5.818   5.234   8.711  1.0117 -1.1714  0.7563
40354SOL     OW23068  10.115   2.710   5.789  0.1374  0.0205 -0.0432
40354SOL    HW123069  10.101   2.799   5.756 -4.8258 -0.4854  0.0201
40354SOL    HW223070  10.181   2.673   5.730  1.9921  3.4220 -0.4072
40355SOL     OW23071   9.939   8.639   7.600 -0.1035  0.1419 -0.1137
40355SOL    HW123072  10.029   8.664   7.619 -0.0446  0.1369 -0.3735
40355SOL    HW223073   9.942   8.543   7.596  0.4425  0.1860 -2.6842
40356SOL     OW23074   9.033   1.685   6.828  0.0542 -1.2737  0.0765
40356SOL    HW123075   8.951   1.654   6.867 -0.1939 -2.8720 -1.5506
40356SOL    HW223076   9.102   1.648   6.883 -0.3110 -1.9001  0.1291
40357SOL     OW23077   7.862   2.906   9.537  0.3288  0.1291 -0.1200
40357SOL    HW123078   7.879   2.899   9.631  0.2542 -1.1072 -0.1912
40357SOL    HW223079   7.921   2.975   9.507  0.3680  0.5208  0.8236
40358SOL     OW23080   0.862   3.599   8.585 -0.5323  0.7118  0.6474
40358SOL    HW123081   0.918   3.672   8.612 -0.2999  0.3430  1.1812
40358SOL    HW223082   0.887   3.527   8.643  1.2478 -0.6881 -1.6586
40359SOL     OW23083  10.805   7.294  10.564 -0.2383  0.3663  0.8581
40359SOL    HW123084  10.753   7.257  10.493  0.2745 -0.8192  1.0797
40359SOL    HW223085  10.743   7.349  10.612 -0.6133  1.1381 -0.4404
40360SOL     OW23086  10.342   4.146   2.041 -0.7019 -0.3609  0.3554
40360SOL    HW123087  10.303   4.222   2.083 -3.1409 -1.2636 -0.1097
40360SOL    HW223088  10.429   4.176   2.012 -1.2719  1.9651  0.8925
40361SOL     OW23089   2.166   4.524   1.603  1.2201 -0.0645  0.2292
40361SOL    HW123090   2.223   4.567   1.539  0.9013  0.9870  0.6277
40361SOL    HW223091   2.078   4.554   1.580  0.5110 -3.0031 -1.4747
40362SOL     OW23092   4.871   8.094   4.308  0.1665  0.5606 -0.2369
40362SOL    HW123093   4.906   8.053   4.387  0.9452  1.2743 -0.2046
40362SOL    HW223094   4.819   8.167   4.340 -0.1778  0.3695 -0.3542
40363SOL     OW23095   9.632   4.577   3.474 -0.1173  0.1487  0.6139
40363SOL    HW123096   9.702   4.626   3.431  1.1892 -1.9224  0.2317
40363SOL    HW223097   9.553   4.597   3.424  0.7675  0.2910 -0.7582
40364SOL     OW23098   7.291   9.983   4.331  0.6874 -0.2874 -0.5337
40364SOL    HW123099   7.359  10.036   4.289  0.8423  0.8151  1.0234
40364SOL    HW223100   7.216  10.041   4.339  1.3429  0.3570  2.5883
40365SOL     OW23101   8.363   6.480   1.826  0.1067  0.3160  0.4830
40365SOL    HW123102   8.287   6.462   1.881 -0.8679 -1.8584 -1.4103
40365SOL    HW223103   8.399   6.394   1.806  0.5299  0.9976 -2.0529
40366SOL     OW23104  10.888  10.668   7.148  0.3755  0.4067  0.3412
40366SOL    HW123105  10.944  10.655   7.225 -2.0802  3.2952  2.8126
40366SOL    HW223106  10.839  10.586   7.140 -0.5199  0.6050  2.9808
40367SOL     OW23107   4.174   4.856   9.348 -0.1054  0.1640 -0.1324
40367SOL    HW123108   4.119   4.915   9.400  0.8540  0.7310  0.2827
40367SOL    HW223109   4.139   4.861   9.260 -0.8333  0.3619  0.1614
40368SOL     OW23110   3.743   8.069   4.353  0.0198 -0.2125  0.2227
40368SOL    HW123111   3.681   8.087   4.424 -0.4097  0.4817 -0.3085
40368SOL    HW223112   3.826   8.052   4.397 -0.5892 -1.4125  0.9676
40369SOL     OW23113   0.973   8.086   6.144  0.3474 -0.2289  0.6892
40369SOL    HW123114   0.897   8.139   6.168  0.9096  1.1961 -0.5047
40369SOL    HW223115   1.041   8.111   6.206  0.2232 -0.5332  0.9472
40370SOL     OW23116  10.364   5.024   9.775  0.9327 -0.4328  0.0518
40370SOL    HW123117  10.355   5.048   9.868 -1.4166  1.5134 -0.5489
40370SOL    HW223118  10.442   5.070   9.746  0.7916  0.2593  0.7276
40371SOL     OW23119   6.062   2.829   7.768  0.0783 -0.1080  0.7900
40371SOL    HW123120   5.986   2.775   7.791  0.4562 -0.3648  1.4692
40371SOL    HW223121   6.119   2.771   7.717 -1.2499  0.7600 -1.8920
40372SOL     OW23122   1.008   4.163   2.677 -0.0397 -1.1112 -0.6550
40372SOL    HW123123   1.093   4.124   2.694 -0.5723 -2.0903 -0.1213
40372SOL    HW223124   1.015   4.253   2.710  0.2912 -1.6785  0.9331
40373SOL     OW23125  10.896   9.788   1.543 -0.0251 -0.4104 -0.6320
40373SOL    HW123126  10.859   9.707   1.508  0.1558 -0.3150 -1.0559
40373SOL    HW223127  10.820   9.846   1.554 -0.4551 -1.3278  1.6732
40374SOL     OW23128   2.740   6.538   5.082 -0.1829 -0.0427 -0.2159
40374SOL    HW123129   2.798   6.537   5.159  0.5391  0.8475 -0.7268
40374SOL    HW223130   2.653   6.552   5.118  0.0388 -0.4929  0.5099
40375SOL     OW23131   1.465   7.164   0.230 -0.9207  0.7296  0.6525
40375SOL    HW123132   1.437   7.252   0.255  1.1490  1.6485 -0.0514
40375SOL    HW223133   1.422   7.149   0.146  2.1375  3.0675 -1.5850
40376SOL     OW23134   7.344   0.017   4.266  0.4457 -0.5886 -0.2435
40376SOL    HW123135   7.439   0.027   4.261  0.3569 -0.1758 -2.0931
40376SOL    HW223136   7.330  -0.078   4.258  0.7473 -0.9730  2.7554
40377SOL     OW23137   9.814   5.055   7.438  0.6754  0.0695 -0.1864
40377SOL    HW123138   9.895   5.106   7.436  1.1142 -0.5718  0.7944
40377SOL    HW223139   9.814   5.012   7.523  0.4943 -1.8603 -1.1058
40378SOL     OW23140   5.592   9.754   7.778  0.4661  0.2429 -0.0639
40378SOL    HW123141   5.602   9.737   7.684 -0.6299  0.2508 -0.1964
40378SOL    HW223142   5.549   9.840   7.782  1.8790  0.9558  0.4957
40379SOL     OW23143   9.151   3.502   6.858  0.1730 -0.0081  0.9977
40379SOL    HW123144   9.176   3.432   6.917 -0.8719 -3.1820 -1.9611
40379SOL    HW223145   9.223   3.508   6.796 -1.2691 -1.2284 -0.9328
40380SOL     OW23146   6.457   3.118   3.276  0.1711 -0.2359 -0.2472
40380SOL    HW123147   6.383   3.066   3.246 -2.1131  3.3456 -1.3436
40380SOL    HW223148   6.454   3.111   3.372 -3.2736  1.6946 -0.0515
40381SOL     OW23149   8.270  10.994   7.509  0.1295  0.0221  0.3897
40381SOL    HW123150   8.284  10.906   7.475 -0.2962 -0.0936  0.5116
40381SOL    HW223151   8.181  10.993   7.542 -0.3444  0.8840 -0.7975
40382SOL     OW23152   7.956   8.607   7.069 -0.1975  0.2624  0.2817
40382SOL    HW123153   7.885   8.664   7.099  0.6973  1.0483  0.9738
40382SOL    HW223154   8.010   8.663   7.014 -0.0015 -0.2771 -0.0828
40383SOL     OW23155   4.591   6.803   1.592 -0.2193  0.6457  0.5102
40383SOL    HW123156   4.610   6.828   1.501  2.0825  0.1325  0.7710
40383SOL    HW223157   4.518   6.742   1.585  1.8326 -1.8711 -1.4541
40384SOL     OW23158   3.029   6.424   6.782  0.2639  0.2341 -0.3365
40384SOL    HW123159   3.040   6.388   6.870 -0.6702  1.2557  0.2271
40384SOL    HW223160   3.100   6.385   6.731  2.4149  1.5605  1.4710
40385SOL     OW23161   3.922   7.254   7.894  0.2731 -0.3894 -0.6467
40385SOL    HW123162   4.011   7.236   7.925 -0.5476 -1.6630  1.1355
40385SOL    HW223163   3.932   7.265   7.799  2.0719 -2.6032 -0.8170
40386SOL     OW23164   2.390   4.445   4.737  0.1348  0.1498  0.0419
40386SOL    HW123165   2.437   4.438   4.654  1.0504 -2.5242  0.7163
40386SOL    HW223166   2.299   4.460   4.711  0.4243 -0.4630 -1.4446
40387SOL     OW23167   9.256  10.419   6.928  0.4783 -0.2562  0.9350
40387SOL    HW123168   9.238  10.512   6.912  0.3670 -0.2635  1.0127
40387SOL    HW223169   9.183  10.390   6.984  0.6944 -0.3053  1.1956
40388SOL     OW23170   9.260   9.794   0.417  0.5956 -0.0170  0.4385
40388SOL    HW123171   9.281   9.750   0.335  1.9709  0.6147  0.4165
40388SOL    HW223172   9.194   9.739   0.459  1.1759 -1.2877 -0.2756
40389SOL     OW23173   6.287   9.029   6.695  0.1591  0.5185 -0.2268
40389SOL    HW123174   6.226   9.042   6.767  1.1684  0.6650  0.6133
40389SOL    HW223175   6.236   8.980   6.630  0.6793 -4.6336  2.7218
40390SOL     OW23176   4.785   6.344   2.707  0.2199 -0.1581 -0.0818
40390SOL    HW123177   4.739   6.261   2.695 -0.1327 -0.0088  0.1867
40390SOL    HW223178   4.802   6.375   2.619 -0.6647  0.0307 -0.1937
40391SOL     OW23179   7.543   8.713   2.158 -0.4841 -0.5887  0.0358
40391SOL    HW123180   7.485   8.661   2.102 -1.6313 -0.1430  0.7728
40391SOL    HW223181   7.510   8.802   2.151 -0.3432 -0.4477  1.0231
40392SOL     OW23182   7.108   2.493   0.685  0.1270  0.1590 -0.2106
40392SOL    HW123183   7.155   2.430   0.740 -1.4793  0.0702  1.1075
40392SOL    HW223184   7.039   2.442   0.643 -0.0619  0.6783 -0.5443
40393SOL     OW23185   6.729  10.245   0.980 -0.1189  0.4085  0.4476
40393SOL    HW123186   6.789  10.287   1.042  0.2467  0.2397  0.2087
40393SOL    HW223187   6.784  10.186   0.930 -0.1663  1.4592 -0.9040
40394SOL     OW23188   0.446  10.405  10.202 -0.1997  0.0964 -0.1208
40394SOL    HW123189   0.407  10.464  10.266  0.5112  0.6816 -0.2141
40394SOL    HW223190   0.496  10.342  10.254  0.0132  0.3045 -0.0668
40395SOL     OW23191   0.347   3.258   5.395 -0.3027  0.4610  0.1385
40395SOL    HW123192   0.369   3.329   5.456  1.7090  0.0287  0.0044
40395SOL    HW223193   0.284   3.204   5.442  0.6206  0.5618  1.5477
40396SOL     OW23194   5.114   9.625  10.676 -0.2342 -0.3096 -0.4082
40396SOL    HW123195   5.024   9.619  10.643 -0.1505 -1.6761 -0.4323
40396SOL    HW223196   5.105   9.618  10.771  0.0255 -3.5461 -0.5385
40397SOL     OW23197   7.790   6.399   8.320 -0.0128  0.4765  0.0363
40397SOL    HW123198   7.820   6.485   8.349 -0.4322  0.5624  0.2178
40397SOL    HW223199   7.788   6.405   8.224 -0.5867  0.8513  0.0703
40398SOL     OW23200   8.382   9.577   4.278 -0.9169 -0.4611  0.5197
40398SOL    HW123201   8.354   9.668   4.268  0.1959 -0.1454  0.0340
40398SOL    HW223202   8.354   9.533   4.198 -0.7634 -0.3521  0.4060
40399SOL     OW23203   7.787   2.212   1.886  0.2376  0.4639 -0.0062
40399SOL    HW123204   7.805   2.286   1.828 -0.3790 -0.2198 -1.1183
40399SOL    HW223205   7.858   2.150   1.868  1.0992  1.0095  1.3702
40400SOL     OW23206   5.339   8.161   4.692 -0.2030 -0.3688  0.2411
40400SOL    HW123207   5.325   8.234   4.753 -0.4802 -0.5050  0.3413
40400SOL    HW223208   5.254   8.118   4.686 -0.6546  0.6385 -1.5467
40401SOL     OW23209   4.916   4.165   6.292  0.0644  0.0902 -0.4327
40401SOL    HW123210   4.837   4.189   6.341 -1.0078  0.6493 -2.3346
40401SOL    HW223211   4.976   4.238   6.307 -0.3949  0.4487 -0.2927
40402SOL     OW23212   1.402   8.340  10.646  0.1485 -0.0618  0.3930
40402SOL    HW123213   1.490   8.367  10.619 -0.0529 -0.2002 -0.4549
40402SOL    HW223214   1.358   8.319  10.563 -1.0431  1.0877  0.7050
40403SOL     OW23215   6.029   3.197  10.324  0.4043 -0.2892  0.3039
40403SOL    HW123216   6.047   3.142  10.248 -2.3101 -1.2052  0.2441
40403SOL    HW223217   5.963   3.259  10.295  1.6594  1.4973  1.0685
40404SOL     OW23218   9.953   4.682   3.997  0.5914  0.1318 -0.3853
40404SOL    HW123219   9.954   4.753   3.933 -0.8343 -0.9587 -1.6864
40404SOL    HW223220   9.907   4.719   4.072  1.4846  1.1426 -0.3112
40405SOL     OW23221   5.441  10.543   4.259  0.2190 -0.2786  0.6600
40405SOL    HW123222   5.346  10.534   4.263  0.2867 -0.6165  2.7361
40405SOL    HW223223   5.461  10.614   4.319  1.3216 -0.4827  0.5586
40406SOL     OW23224   8.992   2.970   1.054  0.4093 -0.7471 -0.0491
40406SOL    HW123225   9.064   2.930   1.103 -0.3176  1.1968  2.9386
40406SOL    HW223226   8.914   2.922   1.081  0.1017 -0.2030  0.0617
40407SOL     OW23227  10.617   8.881   4.633  0.2742  0.4339  0.0914
40407SOL    HW123228  10.679   8.810   4.615 -0.6194 -0.9856  2.2092
40407SOL    HW223229  10.540   8.859   4.580  1.0827  1.5457 -1.6135
40408SOL     OW23230   0.277   4.198   4.691  0.3032  0.2830 -0.2435
40408SOL    HW123231   0.220   4.271   4.715  0.2282  0.1669 -0.0676
40408SOL    HW223232   0.250   4.127   4.749 -0.0869 -0.0968 -0.8749
40409SOL     OW23233   0.959   6.507   7.357  0.0290  0.3489  0.0708
40409SOL    HW123234   0.946   6.594   7.320  0.5047 -1.0270 -3.7178
40409SOL    HW223235   0.875   6.484   7.396 -0.1291  2.3727  1.0805
40410SOL     OW23236   0.472   0.756   0.910 -0.1205  0.0826 -0.3867
40410SOL    HW123237   0.441   0.755   0.819  0.2639 -0.2721 -0.5190
40410SOL    HW223238   0.508   0.668   0.923 -2.4539 -0.7814  0.9111
40411SOL     OW23239   6.652   5.848   3.349 -0.1444  0.9905 -0.4655
40411SOL    HW123240   6.584   5.833   3.415 -0.7523 -0.3925 -1.3620
40411SOL    HW223241   6.726   5.883   3.398 -1.4586  2.5182  0.5552
40412SOL     OW23242   5.011   7.295   2.331  0.3933 -0.2392  0.0801
40412SOL    HW123243   4.923   7.319   2.359 -0.5117 -0.5657 -2.2253
40412SOL    HW223244   5.065   7.303   2.410 -1.4276  1.2688  1.2556
40413SOL     OW23245   3.608   4.435  10.751  0.4110 -0.4962  0.4478
40413SOL    HW123246   3.614   4.416  10.658 -0.6749  0.0614  0.2573
40413SOL    HW223247   3.648   4.359  10.793  0.4797 -0.9678 -0.4494
40414SOL     OW23248   8.900   5.088   0.784 -0.6015  0.3092 -0.5714
40414SOL    HW123249   8.845   5.034   0.727  0.6846  0.3114 -1.8904
40414SOL    HW223250   8.990   5.068   0.756 -0.0140  1.6250  0.2790
40415SOL     OW23251   3.185   7.330   1.174  0.5437  0.4453 -0.0191
40415SOL    HW123252   3.109   7.374   1.135 -0.2213 -2.2178 -1.8052
40415SOL    HW223253   3.250   7.328   1.104  0.2950 -1.7454 -0.2430
40416SOL     OW23254   7.254   9.368   1.049  0.2052  0.1372  0.0823
40416SOL    HW123255   7.252   9.454   1.007  2.0734  0.1502 -0.0539
40416SOL    HW223256   7.172   9.327   1.022 -0.4720  1.6482 -0.3010
40417SOL     OW23257   4.121   6.218   4.123  0.0242 -0.2934  0.1207
40417SOL    HW123258   4.201   6.254   4.160 -0.1665 -0.5313  0.7955
40417SOL    HW223259   4.123   6.126   4.147 -1.5988  0.1605  2.3281
40418SOL     OW23260   9.152   2.378   9.867 -0.2505 -0.1680  0.0400
40418SOL    HW123261   9.223   2.429   9.826 -0.3090 -1.0177 -1.1685
40418SOL    HW223262   9.187   2.355   9.953  0.5222  0.3151 -0.1241
40419SOL     OW23263   3.919   6.406   4.146  0.6148  0.6124  0.6294
40419SOL    HW123264   3.960   6.489   4.125  0.5683 -0.0869 -2.7377
40419SOL    HW223265   3.991   6.345   4.159  0.6241  0.6938  0.9916
40420SOL     OW23266   9.768   0.278   2.591  0.0565  0.2119 -0.4910
40420SOL    HW123267   9.682   0.272   2.633  1.2014  1.3337  2.2426
40420SOL    HW223268   9.786   0.372   2.587  1.5912 -0.0227  0.0423
40421SOL     OW23269   9.213   9.427   5.230 -0.1424  0.8291 -0.0904
40421SOL    HW123270   9.216   9.345   5.280 -0.4753  0.9031  0.0564
40421SOL    HW223271   9.162   9.486   5.286 -0.0262  1.0885 -0.2628
40422SOL     OW23272   9.831   6.234   5.919 -0.0259  0.1563 -1.1428
40422SOL    HW123273   9.912   6.195   5.953  0.0757 -1.0487 -2.6497
40422SOL    HW223274   9.857   6.318   5.884 -0.1206  1.4255  1.5660
40423SOL     OW23275   5.468   9.440   7.501  0.3189 -0.6318  0.2448
40423SOL    HW123276   5.390   9.393   7.470 -1.0355  0.7115  1.4456
40423SOL    HW223277   5.538   9.375   7.497 -0.7121 -1.7359 -1.4030
40424SOL     OW23278   3.292   9.940   0.117  0.4497  0.8404  0.4270
40424SOL    HW123279   3.366   9.880   0.109  1.0610  1.6419 -0.0535
40424SOL    HW223280   3.241   9.905   0.191  1.8070  0.8129  1.3887
40425SOL     OW23281   8.815   4.023   4.830  0.5977 -0.4242  0.4661
40425SOL    HW123282   8.788   4.043   4.740  1.0681 -0.2196  0.3712
40425SOL    HW223283   8.846   4.106   4.865 -1.2108 -0.0880  1.4115
40426SOL     OW23284   2.324   1.219   1.551 -0.6245 -0.0262 -0.7755
40426SOL    HW123285   2.378   1.234   1.474 -0.2194  0.8246 -0.3496
40426SOL    HW223286   2.276   1.302   1.563 -0.5451 -0.0763 -0.0225
40427SOL     OW23287   1.281   5.584   8.189  0.4388 -0.1787  0.1608
40427SOL    HW123288   1.357   5.545   8.147  0.5844  1.1791 -0.9329
40427SOL    HW223289   1.208   5.528   8.163  0.6777  0.0606 -1.1224
40428SOL     OW23290   7.058   7.122   1.523 -0.2313  0.0078  0.7109
40428SOL    HW123291   7.023   7.141   1.609 -0.6568  2.7804  0.0134
40428SOL    HW223292   7.133   7.065   1.540  1.1214  2.3047  3.1685
40429SOL     OW23293   0.625   6.748  10.746  0.8173  0.2703  0.1201
40429SOL    HW123294   0.682   6.756  10.822 -0.1635 -0.3307  0.9496
40429SOL    HW223295   0.542   6.716  10.781 -0.0387  1.0934 -1.0484
40430SOL     OW23296   5.768   0.902   2.854  0.0871  1.2773 -0.2815
40430SOL    HW123297   5.697   0.864   2.803 -1.1665  2.1706  0.7252
40430SOL    HW223298   5.834   0.834   2.858 -0.7953  0.3415 -1.0623
40431SOL     OW23299   5.362   9.031   3.258 -0.1392  0.2702 -0.1475
40431SOL    HW123300   5.337   8.940   3.242  0.8696 -0.1757  0.7471
40431SOL    HW223301   5.363   9.040   3.353 -0.1003  1.1887 -0.2207
40432SOL     OW23302   2.839  10.482   2.052 -0.9687 -0.1461  0.0495
40432SOL    HW123303   2.811  10.574   2.061 -0.9335  0.0609 -1.7162
40432SOL    HW223304   2.921  10.486   2.003 -0.0998 -1.0472  1.3683
40433SOL     OW23305   8.935   5.786   6.692  0.4907 -0.0697 -0.2161
40433SOL    HW123306   8.998   5.724   6.657  1.3798  1.1751 -0.9051
40433SOL    HW223307   8.906   5.837   6.616 -1.6066 -0.7985  0.0284
40434SOL     OW23308   0.496   4.332   7.186  0.2641  0.1771  0.0619
40434SOL    HW123309   0.505   4.347   7.092 -0.4125  2.0589  0.2482
40434SOL    HW223310   0.434   4.400   7.215 -0.8584 -1.4006  1.5887
40435SOL     OW23311   9.310   4.984  10.801 -0.0944  0.2167 -0.2455
40435SOL    HW123312   9.364   4.948  10.731  0.8629  1.8690 -0.4098
40435SOL    HW223313   9.265   4.908  10.839  0.9018 -0.9510 -1.3303
40436SOL     OW23314   2.534   5.624   6.946 -0.5284 -0.5465  0.5208
40436SOL    HW123315   2.565   5.697   7.001 -0.7581 -0.6183  0.7489
40436SOL    HW223316   2.586   5.631   6.866 -0.8778  0.1661  0.3404
40437SOL     OW23317   3.828   9.396  10.509 -0.4234 -0.0062  0.2377
40437SOL    HW123318   3.798   9.463  10.570  1.0161  1.4969 -0.6269
40437SOL    HW223319   3.763   9.326  10.516 -2.5056  1.8605  0.4869
40438SOL     OW23320   2.855   0.641   0.417  0.2979  0.1090 -0.2551
40438SOL    HW123321   2.931   0.640   0.359 -0.1024  0.6701 -0.8071
40438SOL    HW223322   2.780   0.652   0.358 -0.2329 -0.6134  0.2621
40439SOL     OW23323   0.336   3.409   2.980  0.2508  0.8109 -0.2115
40439SOL    HW123324   0.426   3.435   3.002  0.1487 -0.2411  1.6055
40439SOL    HW223325   0.346   3.340   2.915  0.8848 -0.7415  1.4686
40440SOL     OW23326   2.998   2.953   7.637  0.3307  0.6369  0.2744
40440SOL    HW123327   2.986   2.917   7.725 -0.0938 -3.2666 -1.1400
40440SOL    HW223328   3.088   2.930   7.614  1.3599  3.9894  0.5094
40441SOL     OW23329   1.734   2.790  10.946 -0.0371 -0.4244  0.0321
40441SOL    HW123330   1.682   2.759  11.020 -1.8383 -0.1704 -1.0631
40441SOL    HW223331   1.677   2.854  10.903  1.8300  1.0826 -0.3171
40442SOL     OW23332   2.939   5.357   7.272 -0.5237  0.1839 -0.0059
40442SOL    HW123333   3.014   5.315   7.230  0.1062 -0.5533  1.7407
40442SOL    HW223334   2.864   5.331   7.219 -0.0640 -2.6041  0.5381
40443SOL     OW23335   1.745   5.479   0.521  0.6523  0.5814  0.3057
40443SOL    HW123336   1.779   5.548   0.463  1.2144  0.3205  0.3153
40443SOL    HW223337   1.771   5.397   0.478 -0.1598  0.3722  0.2114
40444SOL     OW23338   4.547   7.105   5.627  1.1527 -0.0003 -0.4290
40444SOL    HW123339   4.504   7.090   5.712  0.4061 -0.7261 -0.9135
40444SOL    HW223340   4.497   7.176   5.587  1.6634  0.5115 -0.1503
40445SOL     OW23341   7.709   1.613   9.744 -0.0736  0.1070  1.0014
40445SOL    HW123342   7.616   1.633   9.733  0.1482  1.1582  0.9155
40445SOL    HW223343   7.754   1.679   9.692  0.7092 -0.9396  0.2995
40446SOL     OW23344   3.673   5.050   6.788  0.0179  0.3740  0.7107
40446SOL    HW123345   3.754   5.100   6.799  0.5168 -0.1582 -0.4772
40446SOL    HW223346   3.626   5.096   6.718 -0.5726  0.4925  1.1770
40447SOL     OW23347   2.569   0.383   9.282  0.3171 -0.0640  0.2359
40447SOL    HW123348   2.555   0.374   9.377  2.8472  1.9904  0.9306
40447SOL    HW223349   2.536   0.470   9.261 -1.3788 -0.9780 -1.1043
40448SOL     OW23350   8.141   5.511   1.045 -0.6134  0.2365 -0.0714
40448SOL    HW123351   8.082   5.436   1.049  2.0317 -2.1525 -2.2341
40448SOL    HW223352   8.165   5.518   0.953  1.6754  1.7379  0.5483
40449SOL     OW23353   7.987   8.245   1.536 -0.3129 -0.5520 -0.2998
40449SOL    HW123354   8.008   8.153   1.519 -1.4808 -0.6212 -1.5846
40449SOL    HW223355   7.985   8.285   1.450 -0.9064  0.4287  0.1543
40450SOL     OW23356   0.114   8.735   8.040  0.5197  0.1999 -0.4635
40450SOL    HW123357   0.092   8.671   8.108  0.6081  0.2052 -0.4290
40450SOL    HW223358   0.035   8.743   7.987  0.0690  1.0301  0.3040
40451SOL     OW23359   7.128   5.328   9.046  0.6518  0.1070 -0.6249
40451SOL    HW123360   7.133   5.296   9.136  0.9286 -0.2091 -0.7504
40451SOL    HW223361   7.105   5.420   9.055 -0.3158 -0.1562 -0.2586
40452SOL     OW23362  10.263   6.035   9.318 -0.0757 -1.0083  0.2808
40452SOL    HW123363  10.172   6.043   9.289  0.0794  0.0846  0.0674
40452SOL    HW223364  10.315   6.057   9.240  0.3797 -1.7446  0.3672
40453SOL     OW23365   5.463   8.405   1.792  0.1577 -0.0142  0.6248
40453SOL    HW123366   5.460   8.446   1.706  2.4722  0.3923  0.6552
40453SOL    HW223367   5.554   8.417   1.820  0.3263 -3.0680  1.6883
40454SOL     OW23368   9.770   7.590   2.353 -0.6955  0.0759  0.1493
40454SOL    HW123369   9.782   7.626   2.266 -1.9480  2.1224  0.7483
40454SOL    HW223370   9.811   7.654   2.412 -0.6584 -0.8082  1.1293
40455SOL     OW23371   4.520   4.325   6.992 -0.7462 -0.8834 -0.2786
40455SOL    HW123372   4.502   4.419   6.988 -0.2556 -0.8290 -2.7800
40455SOL    HW223373   4.586   4.316   7.061  0.6169  0.9083 -1.2469
40456SOL     OW23374   0.827   5.528   1.997 -0.0307 -0.1394 -0.1336
40456SOL    HW123375   0.788   5.603   1.952 -1.6672 -1.0624 -0.3129
40456SOL    HW223376   0.867   5.566   2.076 -1.6580  0.8318  0.2777
40457SOL     OW23377  11.091   7.198   7.142  0.2290  0.3422  0.4269
40457SOL    HW123378  11.015   7.199   7.200  1.4822 -0.0199  2.1783
40457SOL    HW223379  11.105   7.290   7.119  0.4666  0.6669  1.7938
40458SOL     OW23380   0.639   6.351   9.059 -0.2676  0.1766  0.3026
40458SOL    HW123381   0.635   6.370   9.153 -0.4251  1.4586  0.0578
40458SOL    HW223382   0.567   6.403   9.022 -0.6580 -0.8620 -0.4540
40459SOL     OW23383  11.031   5.091   1.290  0.3204 -0.3644 -0.5335
40459SOL    HW123384  10.939   5.069   1.309  0.4231 -0.6662 -0.3745
40459SOL    HW223385  11.026   5.173   1.241  0.0203  0.1581  0.3543
40460SOL     OW23386   3.215   3.290   2.838 -0.5965  0.3688 -0.4210
40460SOL    HW123387   3.207   3.384   2.854 -1.2569  0.2506 -0.0038
40460SOL    HW223388   3.307   3.270   2.856 -1.0302  0.4398  2.2633
40461SOL     OW23389   9.541   8.617   1.643 -0.1486 -0.5231  0.1871
40461SOL    HW123390   9.550   8.708   1.671 -1.0543 -1.1323  2.7958
40461SOL    HW223391   9.563   8.566   1.721 -2.1022 -2.4762 -0.4298
40462SOL     OW23392   3.603   7.405   6.991 -0.4014  0.5729  0.3122
40462SOL    HW123393   3.514   7.419   6.960 -1.3973 -2.2899  1.5362
40462SOL    HW223394   3.617   7.473   7.057 -1.3880  1.4503 -0.3486
40463SOL     OW23395  10.287   5.124   2.064 -0.7268  0.2886  0.1618
40463SOL    HW123396  10.225   5.196   2.058  0.2769  1.2804  1.3582
40463SOL    HW223397  10.282   5.094   2.155 -0.2228 -0.3218  0.0004
40464SOL     OW23398  10.127  10.563   0.595 -0.9461  0.3991  0.3660
40464SOL    HW123399  10.079  10.640   0.626 -2.2655  0.3277 -1.3585
40464SOL    HW223400  10.100  10.493   0.653 -0.3825  1.0361  1.4294
40465SOL     OW23401   8.163   0.211   4.478  0.2636 -0.1893  1.0220
40465SOL    HW123402   8.247   0.238   4.515  0.7277  1.0538 -0.7923
40465SOL    HW223403   8.098   0.246   4.538  1.0106 -0.5722  2.0882
40466SOL     OW23404   5.553   9.997   0.937  0.1241 -0.5358  0.2264
40466SOL    HW123405   5.624  10.061   0.939 -0.0634 -0.3382  1.1225
40466SOL    HW223406   5.590   9.922   0.891  0.5217  0.0029 -0.3602
40467SOL     OW23407   1.385   5.658   7.243 -0.1056 -0.0928  0.1082
40467SOL    HW123408   1.430   5.715   7.305  0.0448 -1.2746  1.1070
40467SOL    HW223409   1.451   5.639   7.176 -0.6780  2.3407 -1.2771
40468SOL     OW23410   8.485   1.196   2.569 -0.3137 -0.1007  0.1926
40468SOL    HW123411   8.569   1.221   2.530 -1.1691  1.8629 -0.5043
40468SOL    HW223412   8.477   1.253   2.646 -1.1665 -0.0478  0.0686
40469SOL     OW23413   1.610   6.408   4.547  0.4662  0.1721 -0.2319
40469SOL    HW123414   1.677   6.385   4.611  0.7711  1.4028 -0.0884
40469SOL    HW223415   1.537   6.349   4.566  1.1911 -0.6346  0.1276
40470SOL     OW23416   4.133   8.911   4.170  0.7316  0.1612 -0.5066
40470SOL    HW123417   4.130   8.926   4.264  1.0706 -0.5886 -0.3616
40470SOL    HW223418   4.203   8.846   4.159  0.1587 -0.3633 -1.1852
40471SOL     OW23419   7.836   4.953   0.776 -0.3863 -0.3799  0.7447
40471SOL    HW123420   7.823   4.859   0.764  0.0423 -0.6605  2.2205
40471SOL    HW223421   7.771   4.978   0.841 -1.3559  0.6356 -0.5551
40472SOL     OW23422  10.020   3.460   1.890  0.4651  0.3420  0.2873
40472SOL    HW123423  10.079   3.428   1.958  1.3952  1.0389 -0.1832
40472SOL    HW223424  10.018   3.555   1.901 -0.5996  0.3334  0.3119
40473SOL     OW23425   2.755  10.024  10.001 -0.0125 -0.0672  0.2800
40473SOL    HW123426   2.796  10.108   9.982  0.5387 -0.0800  1.3501
40473SOL    HW223427   2.753   9.978   9.916 -0.7686  1.1926 -0.4196
40474SOL     OW23428   0.574   7.186   0.154 -0.3512  0.2953  0.1576
40474SOL    HW123429   0.575   7.220   0.243  0.6676 -0.8094  0.5954
40474SOL    HW223430   0.665   7.192   0.125 -0.6931  0.7853 -0.8842
40475SOL     OW23431   0.789   6.106   9.827 -0.3515 -0.0152 -0.3502
40475SOL    HW123432   0.780   6.026   9.879  0.9299 -0.8036 -1.2885
40475SOL    HW223433   0.882   6.110   9.805  0.1529  3.0512  1.6701
40476SOL     OW23434  10.334   0.342   4.879  0.5308  0.0701 -0.6772
40476SOL    HW123435  10.376   0.256   4.876  1.5605  0.4809  0.6466
40476SOL    HW223436  10.398   0.398   4.924 -0.3354  1.3947 -1.0438
40477SOL     OW23437  10.577   8.980   3.989 -0.4090 -0.1316 -0.8701
40477SOL    HW123438  10.668   9.009   3.985  0.1158 -1.3010  0.9452
40477SOL    HW223439  10.572   8.908   3.926 -0.1716  0.2027 -1.2697
40478SOL     OW23440   2.194  10.380   2.863  0.8869  0.4224  0.5812
40478SOL    HW123441   2.218  10.407   2.951 -1.4102 -0.5482  1.5839
40478SOL    HW223442   2.107  10.418   2.849 -0.6321 -2.7655  0.4308
40479SOL     OW23443   6.534   8.971   7.509  0.4685  0.4485 -0.2069
40479SOL    HW123444   6.551   9.050   7.458 -0.1403  1.2695  0.8230
40479SOL    HW223445   6.545   8.899   7.447  3.7170  1.1046 -0.5946
40480SOL     OW23446   2.094   4.002   0.318  0.0768 -0.2220 -0.0590
40480SOL    HW123447   2.016   3.954   0.291  0.3420 -0.5225 -0.2960
40480SOL    HW223448   2.151   3.935   0.358 -0.2337  0.1787  1.0860
40481SOL     OW23449   5.739  10.752   1.606 -0.7863 -0.7178 -0.3883
40481SOL    HW123450   5.705  10.733   1.693 -0.5035  3.1682  0.7662
40481SOL    HW223451   5.662  10.777   1.554 -0.8403 -2.1255 -1.0298
40482SOL     OW23452   4.871   3.785   3.718  0.5774 -0.5541  0.0333
40482SOL    HW123453   4.951   3.836   3.731  0.1442  0.4263 -1.0488
40482SOL    HW223454   4.895   3.718   3.654  0.3849  0.1335 -0.7744
40483SOL     OW23455   7.667   8.248   6.293  0.5204 -0.5013 -0.2956
40483SOL    HW123456   7.612   8.175   6.265  0.9721 -0.6558 -0.7910
40483SOL    HW223457   7.719   8.271   6.216  0.9908 -0.2122  0.0978
40484SOL     OW23458  10.250  10.427   1.357  0.2109 -0.2560  0.3788
40484SOL    HW123459  10.244  10.492   1.287 -0.3931 -1.2147 -0.4852
40484SOL    HW223460  10.176  10.447   1.414 -0.4790 -0.6749 -0.3405
40485SOL     OW23461   5.843   7.677   9.930 -0.0811 -0.0170 -0.4327
40485SOL    HW123462   5.756   7.638   9.936  0.6031 -1.6482 -0.6956
40485SOL    HW223463   5.826   7.771   9.927 -1.8750 -0.3093 -1.1974
40486SOL     OW23464   1.019   4.726   7.477 -0.1126 -0.3369  0.5567
40486SOL    HW123465   1.002   4.673   7.555 -2.4036 -0.7485 -0.1349
40486SOL    HW223466   0.993   4.815   7.503  0.9377 -0.0972  0.8206
40487SOL     OW23467   5.271   7.412   7.485 -0.5119  0.8710  0.3914
40487SOL    HW123468   5.267   7.507   7.497  0.7916  1.1044 -0.7990
40487SOL    HW223469   5.360   7.389   7.511 -1.3849 -0.3610  2.5771
40488SOL     OW23470   0.468   8.731   0.201  0.0468 -0.2633 -0.0602
40488SOL    HW123471   0.399   8.708   0.262  1.2644 -2.8877  0.5046
40488SOL    HW223472   0.428   8.721   0.114 -0.6359 -0.4217  0.2675
40489SOL     OW23473   1.339   4.387   1.627 -0.1391 -0.3202 -0.4348
40489SOL    HW123474   1.289   4.463   1.597  0.5645 -0.0248 -0.8896
40489SOL    HW223475   1.403   4.372   1.557  0.5306 -0.5691  0.2204
40490SOL     OW23476  10.188   1.617  10.478 -0.0547 -0.1901 -0.6161
40490SOL    HW123477  10.150   1.547  10.531 -1.4324  0.9384 -0.0355
40490SOL    HW223478  10.125   1.689  10.484  1.1298  0.9834 -1.4784
40491SOL     OW23479  10.957   3.899   5.156  0.0024 -0.3666 -0.1277
40491SOL    HW123480  10.891   3.845   5.198 -0.4710  0.4254  0.1754
40491SOL    HW223481  10.913   3.937   5.080 -0.0992  0.6738  0.4377
40492SOL     OW23482   2.839   6.109   2.714 -0.2790  0.8053 -0.1194
40492SOL    HW123483   2.827   6.102   2.808  1.3432 -1.6522 -0.0161
40492SOL    HW223484   2.897   6.184   2.703 -1.2382  1.7028  0.7093
40493SOL     OW23485   3.055   7.025   7.522  0.3276  0.7516 -0.9353
40493SOL    HW123486   3.014   6.949   7.564  2.8189 -0.2453 -0.1047
40493SOL    HW223487   3.018   7.027   7.434 -1.4391 -0.0644 -0.2474
40494SOL     OW23488   2.013   6.650   9.839 -0.7320  0.3915  0.6527
40494SOL    HW123489   2.004   6.745   9.834  1.5692  0.6625  0.9217
40494SOL    HW223490   2.089   6.630   9.784 -0.1219 -1.0779  1.9819
40495SOL     OW23491   5.718  10.649   9.247 -1.1342 -0.4822 -0.2332
40495SOL    HW123492   5.751  10.566   9.212  1.8431  0.8861 -0.9505
40495SOL    HW223493   5.696  10.701   9.170 -2.3939 -0.3085  0.2077
40496SOL     OW23494   6.848   3.091   2.203 -0.3539  0.1623 -0.4953
40496SOL    HW123495   6.849   3.182   2.234  2.1057 -0.1371  0.5378
40496SOL    HW223496   6.913   3.089   2.133 -1.5422 -0.5194 -1.6340
40497SOL     OW23497   8.882   1.320   7.385 -0.0274 -0.0108  0.3412
40497SOL    HW123498   8.891   1.232   7.421  2.3034  0.7099  1.7598
40497SOL    HW223499   8.816   1.361   7.441  1.5987  0.2326  2.2233
40498SOL     OW23500   6.641   5.796   3.040  0.4714  0.2890  0.0472
40498SOL    HW123501   6.574   5.745   3.085  0.3679  1.2617  1.0241
40498SOL    HW223502   6.632   5.885   3.075 -2.4395  2.3217 -4.7887
40499SOL     OW23503   4.779   4.850   7.180  0.2514  0.6098 -0.6984
40499SOL    HW123504   4.776   4.870   7.087 -2.7144 -0.4542 -0.9554
40499SOL    HW223505   4.698   4.801   7.196 -0.6676  2.9494  2.9194
40500SOL     OW23506  10.260  10.903   8.322 -0.1851  0.4202  0.1493
40500SOL    HW123507  10.288  10.991   8.296  0.2997 -0.1764 -1.5073
40500SOL    HW223508  10.341  10.860   8.351  0.2555 -0.5059 -2.2494
40501SOL     OW23509   9.296   5.892   5.380  0.2320 -0.3813  0.2603
40501SOL    HW123510   9.254   5.932   5.304  2.8447  0.8563 -0.6675
40501SOL    HW223511   9.229   5.893   5.449 -2.1491 -1.3347 -1.8918
40502SOL     OW23512   3.004   3.053   7.283 -0.4590  0.3143 -0.0511
40502SOL    HW123513   3.023   2.989   7.352  0.1793  2.2078  1.6197
40502SOL    HW223514   3.077   3.043   7.221  0.1740  0.0952  0.7084
40503SOL     OW23515   7.860   0.930   8.401  0.5044  0.2154  0.1395
40503SOL    HW123516   7.843   1.020   8.373  1.3890  0.5511  0.6475
40503SOL    HW223517   7.776   0.901   8.439  0.5416  1.2583  1.1014
40504SOL     OW23518   4.414   6.775   7.929  0.5787  0.2469  0.6526
40504SOL    HW123519   4.324   6.758   7.958  0.6199 -0.1389  0.5654
40504SOL    HW223520   4.436   6.860   7.966 -0.2143  0.8496 -0.2226
40505SOL     OW23521   0.871   5.902   4.380 -0.0225 -0.1690  0.2673
40505SOL    HW123522   0.828   5.958   4.316 -0.1416 -0.6934 -0.1228
40505SOL    HW223523   0.800   5.848   4.416  0.1064 -0.1447  0.5631
40506SOL     OW23524   0.934   5.763   0.917  0.3073 -0.0703 -0.7062
40506SOL    HW123525   0.923   5.680   0.872  0.2278 -0.6165  0.2779
40506SOL    HW223526   1.023   5.791   0.894  0.4019 -0.5204 -0.9077
40507SOL     OW23527   1.962  10.335   4.962  0.2786  0.2681 -1.0835
40507SOL    HW123528   1.934  10.276   4.892  0.0745 -0.0078 -0.7757
40507SOL    HW223529   2.053  10.354   4.942  0.0950  0.5533 -1.6703
40508SOL     OW23530   5.880   3.886   0.096 -0.0896 -0.3247  0.2107
40508SOL    HW123531   5.948   3.822   0.119 -1.0787 -1.5575 -0.1763
40508SOL    HW223532   5.819   3.838   0.041  0.3172  1.5960 -2.0522
40509SOL     OW23533   0.214   2.631   5.204 -0.2098 -0.5529  0.1520
40509SOL    HW123534   0.229   2.640   5.110 -0.8017 -0.2749  0.0757
40509SOL    HW223535   0.142   2.691   5.222  3.0179  3.3465  1.6607
40510SOL     OW23536  10.567   7.424   4.737  0.3377 -1.1476 -0.1695
40510SOL    HW123537  10.548   7.465   4.652  1.5512 -0.6497 -0.2246
40510SOL    HW223538  10.574   7.497   4.798 -1.7611 -1.5788  0.6546
40511SOL     OW23539   8.160   0.686  10.207 -0.0272 -1.0505 -0.1472
40511SOL    HW123540   8.252   0.678  10.183  1.0239 -0.7797  3.3150
40511SOL    HW223541   8.132   0.597  10.229 -0.0902 -0.8941  0.4153
40512SOL     OW23542   7.003  10.450   9.369 -0.1492  0.0097 -0.7984
40512SOL    HW123543   6.994  10.524   9.429  0.0839 -0.7510  0.1947
40512SOL    HW223544   7.097  10.436   9.362 -0.2174 -1.1945  0.3100
40513SOL     OW23545   4.228   3.375   4.204  0.7053  0.1003 -0.0245
40513SOL    HW123546   4.230   3.321   4.125  0.0181  0.4275 -0.2718
40513SOL    HW223547   4.150   3.346   4.251  0.7293  0.3848  0.1939
40514SOL     OW23548   8.388   3.923   5.233  0.5002  0.1352 -0.1985
40514SOL    HW123549   8.453   3.923   5.162 -0.8654 -0.9324 -1.5305
40514SOL    HW223550   8.405   3.841   5.279  1.2156  0.7037  0.5798
40515SOL     OW23551   8.050   3.017   8.379 -0.6667 -0.7596  0.9689
40515SOL    HW123552   8.125   3.009   8.438  0.1401  0.8722  0.2153
40515SOL    HW223553   8.051   3.108   8.351 -1.6120 -1.2427 -0.7942
40516SOL     OW23554   0.895   4.962   3.595  0.3459 -0.0659  0.2361
40516SOL    HW123555   0.894   5.025   3.667 -0.8300 -0.4832  0.6035
40516SOL    HW223556   0.835   4.999   3.530  2.1395  0.8104 -1.0185
40517SOL     OW23557   8.181  10.663   1.662  0.0186 -0.1523  0.0197
40517SOL    HW123558   8.235  10.585   1.655 -0.5593 -0.5368 -0.2235
40517SOL    HW223559   8.123  10.645   1.736  0.0740  0.1709  0.1449
40518SOL     OW23560   6.064   4.957   2.773 -0.0406  0.4098  0.2830
40518SOL    HW123561   5.981   5.002   2.762 -0.3509 -0.2095  0.0818
40518SOL    HW223562   6.075   4.950   2.868  0.1949  1.2392  0.3237
40519SOL     OW23563   5.344   3.729   3.507  0.4602 -0.9837  0.2991
40519SOL    HW123564   5.432   3.691   3.512  0.2528 -1.3379  1.5693
40519SOL    HW223565   5.305   3.687   3.430  1.0258 -1.6280  0.3481
40520SOL     OW23566   6.068   5.156  10.756 -0.4168 -0.1798 -1.0255
40520SOL    HW123567   6.101   5.087  10.814 -1.3703 -0.4584 -0.7898
40520SOL    HW223568   6.121   5.147  10.677  0.4497 -0.2318 -0.4586
40521SOL     OW23569   6.582  10.303   3.058  0.7728 -0.5874 -0.2304
40521SOL    HW123570   6.602  10.396   3.058 -2.4121  0.2802  1.4905
40521SOL    HW223571   6.604  10.274   3.147 -2.1066 -0.3137  0.6838
40522SOL     OW23572   7.460   7.640   0.649  0.4094 -1.2978 -0.2318
40522SOL    HW123573   7.446   7.546   0.658  0.2311 -1.3721 -1.1934
40522SOL    HW223574   7.385   7.680   0.693 -0.2881 -1.6305 -1.0893
40523SOL     OW23575   3.013  10.972   8.416 -0.1360  1.0205 -0.1507
40523SOL    HW123576   3.048  11.033   8.481 -0.0760 -0.7326  1.5557
40523SOL    HW223577   3.059  10.890   8.433 -0.3088  0.4203 -2.2920
40524SOL     OW23578  10.499   1.074   2.196  0.1644 -0.0404 -0.2193
40524SOL    HW123579  10.537   1.151   2.153  0.1512 -0.1053 -0.3465
40524SOL    HW223580  10.506   1.004   2.131 -1.6163  0.3295 -0.8569
40525SOL     OW23581   0.490   2.580  10.920 -0.2737 -0.6511  0.0972
40525SOL    HW123582   0.419   2.517  10.923  0.1269 -1.0769  2.7808
40525SOL    HW223583   0.538   2.567  11.002  1.4879  1.2344 -0.5411
40526SOL     OW23584  10.298   2.545   0.305  0.3962 -0.4140 -0.0491
40526SOL    HW123585  10.304   2.627   0.355  0.9513 -0.1475 -0.5327
40526SOL    HW223586  10.214   2.507   0.330  0.0166  0.4325 -0.0013
40527SOL     OW23587   5.988   8.660   3.174 -0.1379 -0.1887  0.4483
40527SOL    HW123588   5.917   8.618   3.222  0.1348 -1.8489 -0.4952
40527SOL    HW223589   6.064   8.602   3.189 -0.0919 -0.8666 -2.0371
40528SOL     OW23590   9.788   2.792   1.452 -0.1773 -0.2580 -0.1608
40528SOL    HW123591   9.729   2.717   1.442  1.5288 -1.4202 -2.6912
40528SOL    HW223592   9.781   2.838   1.368  1.0198  0.6953  0.2491
40529SOL     OW23593   7.466   3.126   1.983 -0.6355 -0.2705  1.0629
40529SOL    HW123594   7.522   3.086   1.916 -1.7226  1.2150 -0.8732
40529SOL    HW223595   7.525   3.182   2.033  0.2367 -1.5291  1.4635
40530SOL     OW23596  10.312   3.802   2.970  0.7319 -0.0977  0.1358
40530SOL    HW123597  10.362   3.773   2.893  1.5993 -0.6452  0.8852
40530SOL    HW223598  10.238   3.852   2.933  1.7368  0.6029 -1.0003
40531SOL     OW23599   0.827   7.819   9.128  0.5017  0.9806 -0.1857
40531SOL    HW123600   0.772   7.842   9.203 -0.1312 -1.5601  0.2308
40531SOL    HW223601   0.780   7.854   9.052 -0.5278  0.8263  0.3550
40532SOL     OW23602   7.812   1.014   1.528  0.1194 -0.3671  0.0173
40532SOL    HW123603   7.826   0.979   1.616 -0.5069  0.0659  0.2975
40532SOL    HW223604   7.758   0.948   1.484  0.5625 -0.6561 -0.0957
40533SOL     OW23605   4.228   5.391   8.094  0.8195  0.3852  0.4995
40533SOL    HW123606   4.139   5.410   8.124  0.5051 -1.0773  0.5661
40533SOL    HW223607   4.249   5.464   8.035 -0.6656  0.4275 -0.0352
40534SOL     OW23608   5.613   1.571  10.014 -0.1171  0.2390 -0.0826
40534SOL    HW123609   5.609   1.573   9.918 -1.4314  0.3966 -0.0487
40534SOL    HW223610   5.675   1.640  10.037  0.4217  0.0130 -0.8229
40535SOL     OW23611   5.665   2.157   0.976 -0.0711 -0.4523  0.7793
40535SOL    HW123612   5.620   2.133   0.895  0.5688 -0.7802  0.5131
40535SOL    HW223613   5.606   2.220   1.018 -0.9597 -1.1565  0.6285
40536SOL     OW23614  10.458   2.953   0.624 -0.0628 -0.1328 -0.5820
40536SOL    HW123615  10.478   2.894   0.696  1.2871  1.2853  0.2893
40536SOL    HW223616  10.363   2.955   0.619 -0.2263  0.2213  1.6440
40537SOL     OW23617   0.317   6.433   3.755  0.0486  0.6748 -0.5733
40537SOL    HW123618   0.283   6.500   3.815 -0.2043 -0.0649  0.1162
40537SOL    HW223619   0.392   6.395   3.802 -1.4830 -1.4438  0.2685
40538SOL     OW23620   6.899   6.489   8.780  0.6536 -0.3041  0.3204
40538SOL    HW123621   6.915   6.480   8.874  0.3879  0.3301  0.4367
40538SOL    HW223622   6.973   6.540   8.747 -0.0950  0.9404  0.5060
40539SOL     OW23623   9.652   4.793   3.188 -0.3426 -0.5131  0.2587
40539SOL    HW123624   9.669   4.828   3.276 -2.6788 -1.1342  1.0402
40539SOL    HW223625   9.726   4.735   3.171 -0.4274 -1.3188  2.3575
40540SOL     OW23626   0.522   2.606   8.979 -0.6471  0.5064  0.2040
40540SOL    HW123627   0.427   2.597   8.981 -0.6616  0.7642  0.7736
40540SOL    HW223628   0.538   2.700   8.976 -0.4197  0.4461 -0.9691
40541SOL     OW23629   7.293  10.491   5.189 -0.2061  0.1672 -0.7499
40541SOL    HW123630   7.352  10.512   5.261 -0.0254 -2.6037  0.0307
40541SOL    HW223631   7.218  10.550   5.200  1.4046  2.3005 -0.5274
40542SOL     OW23632   3.842   1.796   3.777 -0.1497  0.0705 -0.0150
40542SOL    HW123633   3.844   1.832   3.688  0.7488 -0.9603 -0.4493
40542SOL    HW223634   3.815   1.868   3.832 -0.3652  0.8357 -1.0945
40543SOL     OW23635   8.348   9.880   0.116 -0.2288  0.2036 -0.7021
40543SOL    HW123636   8.374   9.881   0.024 -0.1788  0.1435 -0.6883
40543SOL    HW223637   8.414   9.826   0.160 -1.1625 -1.1411 -0.8976
40544SOL     OW23638   0.172   0.040   4.473 -0.2540  0.2317 -0.4827
40544SOL    HW123639   0.101   0.034   4.409  0.6508  0.5247 -1.5420
40544SOL    HW223640   0.207   0.128   4.463  0.7520 -0.1619 -0.5133
40545SOL     OW23641   6.732   7.567   9.075  0.0999 -0.8244 -0.0961
40545SOL    HW123642   6.784   7.490   9.053 -1.2943 -1.7446 -0.3166
40545SOL    HW223643   6.744   7.577   9.170  1.2452 -0.5600 -0.2514
40546SOL     OW23644   6.085   8.950   5.512 -0.1410  0.9483 -0.0146
40546SOL    HW123645   6.127   9.031   5.540 -2.8271  2.8977 -1.2061
40546SOL    HW223646   6.097   8.949   5.417  2.1264 -1.5480  0.1576
40547SOL     OW23647  10.174   1.706   6.009  0.4168  0.0341  0.3483
40547SOL    HW123648  10.168   1.682   6.102  1.4919  0.9916  0.6869
40547SOL    HW223649  10.247   1.767   6.005  0.6172 -0.2769 -1.2020
40548SOL     OW23650   0.628   3.104   1.051 -0.2325  0.2426  0.0119
40548SOL    HW123651   0.587   3.099   1.137  0.3365  1.2133  0.3498
40548SOL    HW223652   0.718   3.076   1.065  0.1706  1.4747 -0.0377
40549SOL     OW23653  10.299   8.484   5.498 -0.0793  0.1660  0.6403
40549SOL    HW123654  10.315   8.442   5.414  1.3279 -2.2548  1.9976
40549SOL    HW223655  10.360   8.557   5.501 -0.0076  0.1507 -0.3622
40550SOL     OW23656   8.283   5.829   9.087 -0.0155 -0.2411  0.2642
40550SOL    HW123657   8.349   5.868   9.144  1.0429  0.4854 -1.3661
40550SOL    HW223658   8.236   5.767   9.142  1.3623 -0.0284  1.7382
40551SOL     OW23659   1.341   5.980   7.187  0.6321  0.3516 -0.8234
40551SOL    HW123660   1.399   6.052   7.163  0.9119 -0.1163 -1.5979
40551SOL    HW223661   1.386   5.937   7.260  0.8055  0.5411 -0.8163
40552SOL     OW23662   8.404   3.477   1.616 -0.1840 -0.2177 -0.2198
40552SOL    HW123663   8.412   3.550   1.678 -0.4077 -0.9829  0.7238
40552SOL    HW223664   8.384   3.401   1.670  0.9177 -1.1773 -1.1030
40553SOL     OW23665   0.202   3.770   0.457  0.6539 -0.2613 -0.0335
40553SOL    HW123666   0.250   3.774   0.374  2.6985  1.3833  1.1092
40553SOL    HW223667   0.255   3.711   0.512  0.9350  0.8639  0.9604
40554SOL     OW23668   4.912   2.443  10.568  0.3662 -0.1470 -0.3402
40554SOL    HW123669   4.901   2.351  10.544  0.2767  0.0241 -0.9815
40554SOL    HW223670   4.972   2.442  10.642 -0.0192 -0.7543 -0.0282
40555SOL     OW23671   9.552   2.888   9.939  0.0535  1.1095  0.2763
40555SOL    HW123672   9.543   2.833  10.017  0.0785  0.3891 -0.2207
40555SOL    HW223673   9.647   2.894   9.925  0.0392  0.9380  0.0973
40556SOL     OW23674   7.169   5.056   6.890  0.2502  0.3636  0.2444
40556SOL    HW123675   7.189   4.971   6.929 -1.2486  0.6681  1.8219
40556SOL    HW223676   7.181   5.043   6.796 -1.0664 -1.9670  0.3195
40557SOL     OW23677   9.517   3.002   9.172 -0.1106  0.3222  0.0423
40557SOL    HW123678   9.476   3.020   9.256 -0.7330 -0.9698  0.0265
40557SOL    HW223679   9.564   2.920   9.185 -0.7572 -0.2440 -1.0446
40558SOL     OW23680   8.350   8.474   7.177 -0.0437 -0.3472 -0.2669
40558SOL    HW123681   8.289   8.405   7.150 -1.2959  0.2150  0.9693
40558SOL    HW223682   8.436   8.433   7.175 -0.9042 -2.4729  1.9240
40559SOL     OW23683   1.905   6.474   6.769 -0.2897  0.1777  0.3403
40559SOL    HW123684   1.942   6.387   6.785 -1.0656 -0.2536 -0.1572
40559SOL    HW223685   1.974   6.520   6.722 -0.0956 -0.3750  0.0694
40560SOL     OW23686   1.510   7.468   1.005 -0.0866  0.2452  0.2871
40560SOL    HW123687   1.586   7.410   0.997  0.8259  1.1655  1.7913
40560SOL    HW223688   1.507   7.514   0.920  1.1091  0.2522  0.2223
40561SOL     OW23689   6.997   4.210   4.033  0.1530  0.4501 -0.2547
40561SOL    HW123690   6.985   4.256   4.116 -1.1754 -0.4965  0.1161
40561SOL    HW223691   6.930   4.246   3.976  1.4508  1.5344 -1.1504
40562SOL     OW23692   9.219   1.749   0.644  0.5493 -0.2142  0.0549
40562SOL    HW123693   9.293   1.712   0.596  0.1600 -2.3060  0.9790
40562SOL    HW223694   9.143   1.729   0.591  0.4112 -0.0948  0.2070
40563SOL     OW23695   4.267  10.348   5.932  0.3291  0.1672 -0.0584
40563SOL    HW123696   4.206  10.385   5.996 -0.2849 -1.2841  0.2399
40563SOL    HW223697   4.336  10.413   5.925 -0.0506  0.7803  1.4026
40564SOL     OW23698   3.674  10.718   9.431  0.2785 -0.9492 -0.0708
40564SOL    HW123699   3.691  10.649   9.367 -1.1517 -3.5446  2.1325
40564SOL    HW223700   3.592  10.693   9.473  0.8475  0.8578  2.4034
40565SOL     OW23701   2.435   3.837   8.466  0.2596  0.2157 -0.5476
40565SOL    HW123702   2.377   3.761   8.460  0.7121 -0.1687 -0.2095
40565SOL    HW223703   2.490   3.832   8.388  0.7219 -0.1713 -0.1967
40566SOL     OW23704  10.852   1.365   7.079  0.1592  0.1091 -0.1584
40566SOL    HW123705  10.821   1.436   7.134  0.3512 -0.7665  1.1169
40566SOL    HW223706  10.840   1.397   6.989 -1.6670  0.9406  0.3350
40567SOL     OW23707   3.381   4.181   3.538  0.1786  0.9041 -0.1754
40567SOL    HW123708   3.379   4.275   3.557 -2.6037  0.8484  0.2357
40567SOL    HW223709   3.350   4.174   3.448  3.3917  0.4977 -1.3568
40568SOL     OW23710   8.213   2.427   7.203  0.6046 -0.1824  0.1066
40568SOL    HW123711   8.232   2.481   7.127 -1.8350  0.8938  0.1676
40568SOL    HW223712   8.225   2.337   7.172  0.7881  0.2748 -1.2063
40569SOL     OW23713  10.887   2.839   1.195  0.5597  0.4827  0.4268
40569SOL    HW123714  10.914   2.887   1.116  0.5504  1.4972  1.0200
40569SOL    HW223715  10.791   2.840   1.192  0.5597  0.4255  0.3907
40570SOL     OW23716   8.842   9.599   2.957 -0.4555 -0.0246 -0.4520
40570SOL    HW123717   8.875   9.686   2.933 -2.4364  1.4618  1.6958
40570SOL    HW223718   8.889   9.578   3.038  0.6340 -1.4054 -1.4098
40571SOL     OW23719   0.950   7.002   0.843 -0.3625  0.3857  0.5388
40571SOL    HW123720   0.931   7.094   0.826  1.7229  0.7324 -0.2544
40571SOL    HW223721   0.925   6.957   0.763  1.7862  0.8211 -0.4522
40572SOL     OW23722   4.109   3.063   3.742  0.0504 -0.1510 -0.1211
40572SOL    HW123723   4.120   3.016   3.659 -3.0563 -0.2672 -0.5734
40572SOL    HW223724   4.042   3.013   3.789 -1.5492  2.3495  0.4568
40573SOL     OW23725   2.390   9.639   2.124  0.2780 -0.4804  0.4771
40573SOL    HW123726   2.364   9.639   2.032 -1.3015 -0.2295  0.9086
40573SOL    HW223727   2.333   9.574   2.165  0.5673 -0.1614  1.4052
40574SOL     OW23728   2.116   0.299   3.862 -0.6544 -0.2797  0.0966
40574SOL    HW123729   2.157   0.251   3.934  0.8912  1.6462  0.5963
40574SOL    HW223730   2.065   0.368   3.904  0.1366  0.7759 -0.6190
40575SOL     OW23731   5.172   8.431   2.686  0.4173  0.4284  0.9132
40575SOL    HW123732   5.181   8.380   2.605  0.4326  0.7552  0.7091
40575SOL    HW223733   5.188   8.367   2.755 -0.8411 -0.1407  0.7037
40576SOL     OW23734   1.102   2.504  10.727 -0.8569  0.1270  0.2502
40576SOL    HW123735   1.189   2.511  10.688 -0.3447 -2.2672  0.8007
40576SOL    HW223736   1.063   2.428  10.686 -1.3983 -0.7769  2.3101
40577SOL     OW23737   3.329   1.721   1.578  0.3763  0.1231  0.1489
40577SOL    HW123738   3.239   1.745   1.601 -1.3509 -1.1574 -4.2257
40577SOL    HW223739   3.342   1.636   1.619 -0.9357 -0.2588 -0.1758
40578SOL     OW23740   2.196   8.481   3.676  0.7689 -0.1579  0.0767
40578SOL    HW123741   2.197   8.439   3.762 -1.9444 -1.0120 -0.2025
40578SOL    HW223742   2.128   8.549   3.684  2.2302  1.4797 -0.6977
40579SOL     OW23743   0.088  10.938   6.558  0.3036  0.1227 -0.5368
40579SOL    HW123744   0.053  10.965   6.644  0.2658  2.1100 -1.1216
40579SOL    HW223745   0.107  10.845   6.568  1.2908  0.5129  1.9761
40580SOL     OW23746   6.556   3.255   6.825  0.5704  0.6846  0.2439
40580SOL    HW123747   6.519   3.272   6.912  0.4157  0.1603  0.2821
40580SOL    HW223748   6.607   3.174   6.837 -2.7570 -1.8455 -1.0721
40581SOL     OW23749   9.181   8.855   3.111  0.1171 -0.6376 -0.0137
40581SOL    HW123750   9.118   8.791   3.143  1.4544 -1.0930  1.8219
40581SOL    HW223751   9.266   8.810   3.113  0.5436 -0.1423 -2.7103
40582SOL     OW23752   7.535   3.769   1.848  0.8973 -0.1516  0.1586
40582SOL    HW123753   7.525   3.801   1.938  1.3023  1.1627 -0.2449
40582SOL    HW223754   7.460   3.806   1.801  1.6136  0.6294 -0.4136
40583SOL     OW23755   3.261   3.460   8.443  0.4180  0.2531  0.3508
40583SOL    HW123756   3.260   3.466   8.348  2.6429 -0.3265  0.2396
40583SOL    HW223757   3.346   3.422   8.464 -0.2520 -0.1848  2.5555
40584SOL     OW23758  10.438   3.061   3.756 -0.3349 -0.0933  0.1709
40584SOL    HW123759  10.497   3.111   3.812 -1.0148  0.1876  0.6461
40584SOL    HW223760  10.357   3.111   3.755 -0.2688  0.0170 -1.2515
40585SOL     OW23761   0.045   1.095   4.364  0.0396 -0.7634  0.2410
40585SOL    HW123762   0.021   1.104   4.457  1.0628  1.6762  0.3237
40585SOL    HW223763  -0.034   1.121   4.316  0.0331 -0.4111  0.4419
40586SOL     OW23764   4.232   0.360   5.391 -0.4049 -0.1231 -0.9644
40586SOL    HW123765   4.167   0.343   5.323 -0.6380 -0.9544 -0.5428
40586SOL    HW223766   4.182   0.405   5.460 -0.7745 -1.5903 -0.2345
40587SOL     OW23767   5.017   0.642   0.719 -0.1869  0.6595  0.1450
40587SOL    HW123768   4.952   0.584   0.758  1.3595  0.8182  3.3004
40587SOL    HW223769   4.992   0.729   0.749 -1.4421  1.5577 -3.0534
40588SOL     OW23770   2.254   5.887   0.266  0.0686  0.0893 -0.1838
40588SOL    HW123771   2.212   5.803   0.245  1.8036 -0.6545 -0.8739
40588SOL    HW223772   2.207   5.920   0.342 -1.2719 -1.0424 -0.4922
40589SOL     OW23773   6.089   9.152   9.481 -0.2369 -1.0151 -0.6177
40589SOL    HW123774   6.091   9.228   9.539  2.4668 -1.0806 -0.5012
40589SOL    HW223775   5.996   9.138   9.463 -0.9247  1.1630  0.8402
40590SOL     OW23776   4.816   8.412   3.161  0.0650  0.4608 -0.5583
40590SOL    HW123777   4.850   8.324   3.174  0.6251  0.8342  0.7553
40590SOL    HW223778   4.883   8.458   3.111  0.3339  0.4656 -0.2005
40591SOL     OW23779   1.547   0.091   3.345 -0.6936 -0.0016  0.2652
40591SOL    HW123780   1.522   0.038   3.420 -0.1167 -0.4770  0.1350
40591SOL    HW223781   1.499   0.173   3.356  1.7710  1.2601  2.9204
40592SOL     OW23782   5.902   4.681   7.602  0.3512 -0.0678  0.6519
40592SOL    HW123783   5.943   4.740   7.539 -1.0363 -0.5127 -0.7336
40592SOL    HW223784   5.952   4.599   7.595 -1.9817 -1.4241 -2.7711
40593SOL     OW23785   6.908   9.557   4.406 -0.2925  0.1297  0.2380
40593SOL    HW123786   6.922   9.490   4.473  1.7009  2.2955  2.1646
40593SOL    HW223787   6.911   9.510   4.324 -1.9560 -2.5380  1.5747
40594SOL     OW23788   0.646  10.343   6.261  0.1059 -0.3022  0.1880
40594SOL    HW123789   0.641  10.413   6.196 -1.0932  1.2738  1.9031
40594SOL    HW223790   0.698  10.379   6.332 -2.3123 -0.2468  2.0657
40595SOL     OW23791   8.535   7.768   5.899  0.0497 -0.4747  0.9711
40595SOL    HW123792   8.612   7.799   5.852  0.3771 -1.3838  0.8888
40595SOL    HW223793   8.520   7.680   5.866  0.1903 -1.0820  2.4479
40596SOL     OW23794   5.484   6.101   4.082 -0.0529 -0.6093  0.0394
40596SOL    HW123795   5.454   6.019   4.121 -1.7739  0.2065  0.5116
40596SOL    HW223796   5.446   6.102   3.995 -0.2582 -0.2067  0.1299
40597SOL     OW23797  10.209   7.299   4.421 -0.0706  0.0537  0.5453
40597SOL    HW123798  10.231   7.229   4.482  0.4852  0.4739  0.8423
40597SOL    HW223799  10.293   7.338   4.399 -0.4361  1.1405  1.0151
40598SOL     OW23800   1.823   7.684   6.002 -0.8824 -0.0253  0.3299
40598SOL    HW123801   1.866   7.680   5.917 -1.3112 -0.9636  0.1410
40598SOL    HW223802   1.741   7.732   5.985 -1.0699 -0.4011  0.1632
40599SOL     OW23803   4.293   3.361  10.618  0.1777 -0.0863  0.0290
40599SOL    HW123804   4.343   3.443  10.615 -4.1876  2.8733 -1.6145
40599SOL    HW223805   4.314   3.323  10.704  2.5570  2.5810  0.7814
40600SOL     OW23806   4.738   7.302   4.409 -0.5411 -0.2690 -0.4290
40600SOL    HW123807   4.767   7.212   4.427  0.4233  0.1417  0.1403
40600SOL    HW223808   4.654   7.291   4.364 -1.8161 -1.4284  2.0411
40601SOL     OW23809   6.624  11.091   6.925  0.2102  0.1261  0.3594
40601SOL    HW123810   6.673  11.018   6.887 -0.1151 -0.0496  0.2695
40601SOL    HW223811   6.576  11.128   6.851  1.2579  1.1689  0.1594
40602SOL     OW23812   8.263   7.067  10.610  0.0728 -0.4900 -0.2907
40602SOL    HW123813   8.349   7.095  10.642 -0.0857 -1.1191  0.7420
40602SOL    HW223814   8.202   7.096  10.678 -0.6797  0.8895 -1.5159
40603SOL     OW23815   5.985   1.011   6.669  0.1422  0.0735  0.3019
40603SOL    HW123816   6.040   1.015   6.591 -2.8337 -0.5935 -2.0511
40603SOL    HW223817   5.958   1.101   6.684  0.4377  0.1578  0.3274
40604SOL     OW23818  10.418   5.459   7.075 -0.3574  0.2605  0.3572
40604SOL    HW123819  10.511   5.439   7.085 -0.3203 -0.4141 -1.0975
40604SOL    HW223820  10.377   5.420   7.152  0.6020  0.9671  1.2520
40605SOL     OW23821   8.918   3.589   1.569 -0.0737 -0.5944 -0.2898
40605SOL    HW123822   8.998   3.589   1.516  1.0941 -1.3954  1.3959
40605SOL    HW223823   8.889   3.681   1.569  1.6537 -0.0150  0.2204
40606SOL     OW23824   6.669  10.975   3.802 -0.3215  0.0565  0.0275
40606SOL    HW123825   6.671  11.062   3.762  0.2067 -0.0106 -0.1008
40606SOL    HW223826   6.761  10.946   3.802 -0.3113  0.0132  1.1995
40607SOL     OW23827   9.938  10.586  10.105 -0.1905 -0.5242  0.0410
40607SOL    HW123828   9.891  10.521  10.157 -1.2512  1.7109  2.0561
40607SOL    HW223829   9.967  10.651  10.169  0.3115  1.2858 -1.9242
40608SOL     OW23830   2.545   6.048   8.968 -0.0194  0.6203  0.3212
40608SOL    HW123831   2.512   5.974   9.020 -0.3684  0.5200 -0.0327
40608SOL    HW223832   2.592   6.007   8.896 -0.9034  0.7097 -0.3316
40609SOL     OW23833   8.964   5.220   9.047  0.9815  0.1903 -0.5373
40609SOL    HW123834   8.974   5.141   8.993  0.8032 -1.0836  1.2026
40609SOL    HW223835   8.911   5.191   9.121 -0.7833  2.4651 -0.8053
40610SOL     OW23836   9.244   6.046   7.989 -0.1233  0.4233  0.0527
40610SOL    HW123837   9.228   6.082   7.902  0.0522  0.8914  0.2163
40610SOL    HW223838   9.338   6.030   7.992 -0.3456 -1.1826 -0.4546
40611SOL     OW23839   2.003   2.086   2.164  0.0247  0.3140  0.6521
40611SOL    HW123840   1.974   2.134   2.242  1.4142  1.2024  0.6590
40611SOL    HW223841   1.977   2.142   2.091 -4.2693 -1.9881  0.0901
40612SOL     OW23842   3.542   4.006   7.427  0.1584  0.6112 -0.2549
40612SOL    HW123843   3.473   4.059   7.469  1.4795  1.0071  1.5465
40612SOL    HW223844   3.580   3.955   7.499  1.0694 -0.3733 -1.3983
40613SOL     OW23845   2.054   2.634   6.175 -0.1550  0.3674  0.4971
40613SOL    HW123846   2.074   2.583   6.253 -0.3422 -0.3744  0.0647
40613SOL    HW223847   2.106   2.714   6.185 -0.6281  0.5463  1.6617
40614SOL     OW23848   1.556   5.074  10.584  0.1215 -0.1918 -0.2940
40614SOL    HW123849   1.639   5.042  10.548  0.9314 -0.9859  2.1044
40614SOL    HW223850   1.581   5.140  10.647 -1.1040 -0.1357  0.1610
40615SOL     OW23851   1.681   8.917   4.332  0.1760 -0.2106 -0.4010
40615SOL    HW123852   1.676   8.822   4.346  1.7970 -0.4591 -1.3597
40615SOL    HW223853   1.594   8.949   4.359 -1.3090 -2.2445 -2.4120
40616SOL     OW23854   8.227   9.299   1.996 -0.1937  0.0745 -0.1105
40616SOL    HW123855   8.265   9.387   1.989 -1.5510  0.6924 -0.0231
40616SOL    HW223856   8.134   9.311   1.978  0.0700 -1.8798 -3.5147
40617SOL     OW23857   9.537   8.218   7.586 -0.4590 -0.0186 -0.1983
40617SOL    HW123858   9.462   8.159   7.581  1.3933 -3.0488  2.8698
40617SOL    HW223859   9.517   8.275   7.660  0.7078 -1.8442  1.6332
40618SOL     OW23860   4.146   8.122   7.894  0.0637  0.5268 -0.0379
40618SOL    HW123861   4.060   8.141   7.931 -1.6983  0.1227 -3.5122
40618SOL    HW223862   4.184   8.208   7.875 -1.1956  0.7565 -1.7235
40619SOL     OW23863  10.949   0.688  10.683 -1.0350 -0.1203 -0.1858
40619SOL    HW123864  11.041   0.692  10.656 -0.8128 -1.1540  0.3743
40619SOL    HW223865  10.910   0.765  10.643  0.8480  2.5084  2.6039
40620SOL     OW23866   6.088   7.343   6.031  0.1442 -0.4168  0.3716
40620SOL    HW123867   6.085   7.439   6.030 -0.2165 -0.4266  0.2878
40620SOL    HW223868   6.170   7.321   5.987  0.9464 -0.1141  1.6524
40621SOL     OW23869   5.987   4.201   1.650 -0.2038 -0.1248  0.1266
40621SOL    HW123870   6.042   4.132   1.689  0.6190 -0.1174 -0.9900
40621SOL    HW223871   5.974   4.263   1.721 -0.4454 -1.1272  0.9843
40622SOL     OW23872   2.278   9.336   2.132  0.2264  0.3258  0.0842
40622SOL    HW123873   2.231   9.316   2.213 -2.6371  2.4741 -0.9003
40622SOL    HW223874   2.249   9.268   2.071  1.0279 -0.2770  0.3624
40623SOL     OW23875   3.598   6.352   1.699 -0.9211 -0.3620 -0.3239
40623SOL    HW123876   3.633   6.267   1.725  0.6354  0.2475 -0.3390
40623SOL    HW223877   3.585   6.399   1.781  3.4932  1.3648 -0.3299
40624SOL     OW23878   3.622   8.577   5.546 -0.1266 -0.6742 -0.2103
40624SOL    HW123879   3.707   8.588   5.504 -0.0350 -0.9710 -0.1024
40624SOL    HW223880   3.587   8.666   5.553  0.3975 -0.5005  0.2177
40625SOL     OW23881   3.655   7.219   2.799 -0.2068  0.2300 -0.4241
40625SOL    HW123882   3.608   7.159   2.742 -1.3336  0.9275 -0.2521
40625SOL    HW223883   3.683   7.165   2.873  0.0289 -0.3687 -0.9351
40626SOL     OW23884   5.665   3.816   9.287 -0.2348  0.5711 -0.1680
40626SOL    HW123885   5.688   3.779   9.202  0.3385  1.0562 -0.2336
40626SOL    HW223886   5.722   3.892   9.296  0.6963 -0.2457  1.2337
40627SOL     OW23887   6.405   7.556  10.530 -0.5762 -0.1749  0.8636
40627SOL    HW123888   6.389   7.630  10.472 -0.2427 -0.8604 -0.1083
40627SOL    HW223889   6.354   7.484  10.493 -0.2899 -0.6503  1.3717
40628SOL     OW23890   8.622   8.045   6.586 -0.4265  0.3710 -0.0023
40628SOL    HW123891   8.626   8.139   6.566 -1.3585 -0.1442 -3.2246
40628SOL    HW223892   8.546   8.014   6.536  0.3045 -2.2292  0.3740
40629SOL     OW23893   9.561   3.360   2.876 -0.4217 -0.2149 -0.1014
40629SOL    HW123894   9.650   3.358   2.841  0.5745  3.1977  1.7430
40629SOL    HW223895   9.504   3.352   2.799  1.5564  1.0915 -1.7938
40630SOL     OW23896   8.233   3.815  11.054 -0.3451  0.2489  0.7028
40630SOL    HW123897   8.245   3.873  10.978  0.4016 -0.6305  0.1326
40630SOL    HW223898   8.185   3.740  11.020 -1.8704  0.7884  1.5842
40631SOL     OW23899   9.722   4.649   8.785  0.6375 -0.5090 -0.0839
40631SOL    HW123900   9.740   4.679   8.875  1.9939 -2.0547  0.1998
40631SOL    HW223901   9.773   4.708   8.730 -0.2555  0.4957  0.1208
40632SOL     OW23902   2.531   7.280   0.808  0.3290 -0.7866 -0.5427
40632SOL    HW123903   2.511   7.346   0.743  4.4058  0.1340 -1.1428
40632SOL    HW223904   2.568   7.207   0.758  1.0003 -1.1941  0.4998
40633SOL     OW23905  10.313   5.143   4.954  0.4056 -0.0415  0.2864
40633SOL    HW123906  10.366   5.139   5.034  0.9591 -1.3202 -0.1156
40633SOL    HW223907  10.230   5.102   4.978  0.4007 -0.0077  0.3257
40634SOL     OW23908   6.894   9.283   2.105  0.2273 -0.4752 -0.0656
40634SOL    HW123909   6.878   9.377   2.101 -0.2200 -0.5301  0.3883
40634SOL    HW223910   6.811   9.245   2.135  0.6768 -0.9220  0.6505
40635SOL     OW23911   1.876   2.473   8.898  0.0321  0.0978  0.1991
40635SOL    HW123912   1.969   2.456   8.889 -0.2998 -0.7702 -2.2251
40635SOL    HW223913   1.859   2.464   8.992  2.2421 -0.3725  0.6038
40636SOL     OW23914   8.363   2.847   7.389  0.0172  0.3522 -0.5591
40636SOL    HW123915   8.449   2.827   7.426  0.8517  1.9398 -1.5145
40636SOL    HW223916   8.303   2.846   7.464  0.9971 -0.0402  0.2385
40637SOL     OW23917   0.284   6.728   7.109 -0.7776  0.5123  0.5878
40637SOL    HW123918   0.296   6.781   7.031  1.5973 -1.6322 -0.6748
40637SOL    HW223919   0.296   6.788   7.182  1.1135  1.8681 -0.7550
40638SOL     OW23920   2.868   2.609   4.290  0.1249  0.1874 -0.2081
40638SOL    HW123921   2.910   2.659   4.219  1.3974  0.6498  0.8146
40638SOL    HW223922   2.841   2.676   4.353 -1.9576 -0.1317 -0.6958
40639SOL     OW23923   6.135   8.947   0.486  0.1322  0.1686  0.4678
40639SOL    HW123924   6.150   8.949   0.392  1.0273 -1.0827  0.5517
40639SOL    HW223925   6.143   8.854   0.509  1.3047  0.5989  1.9745
40640SOL     OW23926   1.175   5.142   6.751 -0.0925  0.4922 -0.0377
40640SOL    HW123927   1.133   5.190   6.823 -0.7701  0.2597 -0.2734
40640SOL    HW223928   1.252   5.195   6.729 -0.5688  1.2274  0.0222
40641SOL     OW23929   2.877   3.148   9.977 -0.0326  0.0547  0.5197
40641SOL    HW123930   2.919   3.123   9.895 -1.7260 -2.3792  0.2793
40641SOL    HW223931   2.840   3.235   9.960  1.5640  0.5713 -0.4905
40642SOL     OW23932  10.118   3.825   6.171  0.8882  0.3744 -0.2368
40642SOL    HW123933  10.122   3.851   6.263 -0.2951  0.1559 -0.1056
40642SOL    HW223934  10.091   3.904   6.125  1.5981  0.5152 -0.4181
40643SOL     OW23935   9.898   3.775   8.897 -0.5483  0.2318  0.4961
40643SOL    HW123936   9.805   3.778   8.919 -0.7485 -1.1915 -0.0367
40643SOL    HW223937   9.903   3.813   8.809 -0.7948 -0.5888  0.1123
40644SOL     OW23938  10.772   1.318   7.615 -0.1174 -0.0789  0.0640
40644SOL    HW123939  10.725   1.391   7.656 -1.5374 -0.5689 -0.6300
40644SOL    HW223940  10.847   1.359   7.573  0.1587  0.7191  1.2720
40645SOL     OW23941   2.430   1.950   6.700  0.4946 -0.2868 -0.0588
40645SOL    HW123942   2.403   1.883   6.764 -4.2319  0.6460 -0.7224
40645SOL    HW223943   2.464   1.900   6.626 -0.6495 -1.8888  0.4259
40646SOL     OW23944  10.044   0.866   1.338  0.0636 -0.0410 -0.3959
40646SOL    HW123945  10.107   0.831   1.401 -2.1146 -0.7799  1.5050
40646SOL    HW223946  10.092   0.935   1.293  2.1739 -0.4486  1.0523
40647SOL     OW23947   5.612   6.790   9.936 -0.2279 -0.2199  0.5744
40647SOL    HW123948   5.586   6.702   9.962 -1.3768 -0.1252 -0.1459
40647SOL    HW223949   5.705   6.796   9.958  0.1356 -1.9747 -0.3460
40648SOL     OW23950  11.063   0.518   7.396  0.2782 -0.4258 -0.3005
40648SOL    HW123951  10.996   0.450   7.395  0.2646 -0.5048  1.6015
40648SOL    HW223952  11.106   0.511   7.311 -0.6567 -1.8644 -0.6915
40649SOL     OW23953   1.641   5.203   0.438 -0.1596  0.0301 -0.3063
40649SOL    HW123954   1.631   5.176   0.529  0.4656 -1.1404 -0.5725
40649SOL    HW223955   1.556   5.183   0.398 -0.4934  0.7039  0.0345
40650SOL     OW23956   4.628  11.086  10.064 -0.3898  0.5301  0.0494
40650SOL    HW123957   4.708  11.095  10.013 -0.0614 -0.3256  0.3980
40650SOL    HW223958   4.564  11.049  10.003 -1.2149  3.2595 -0.8738
40651SOL     OW23959   2.483  10.542   1.764  0.1421 -0.1036  0.2397
40651SOL    HW123960   2.480  10.584   1.850  1.2048 -1.0554  0.7727
40651SOL    HW223961   2.566  10.494   1.764  1.0934  1.3468 -2.0217
40652SOL     OW23962   2.133   3.645   9.891 -0.3385  0.3482 -0.2355
40652SOL    HW123963   2.188   3.602   9.956 -1.1059 -0.0037  0.1983
40652SOL    HW223964   2.129   3.584   9.817  1.2584  1.1318 -1.0110
40653SOL     OW23965   7.640   8.785   7.946 -0.6595 -0.2846  0.0640
40653SOL    HW123966   7.662   8.766   7.855 -0.2003  0.9161 -0.1028
40653SOL    HW223967   7.713   8.750   7.997  0.6056  1.6580 -0.3018
40654SOL     OW23968   5.815   1.708   5.576  0.4923 -0.5674  0.4057
40654SOL    HW123969   5.826   1.620   5.541  0.6453 -0.2747 -0.3149
40654SOL    HW223970   5.836   1.766   5.502  1.2024  0.0822  1.0927
40655SOL     OW23971   1.679   0.329   6.362  0.1224  0.1348 -0.3174
40655SOL    HW123972   1.613   0.337   6.294 -0.4261 -0.6974  0.1049
40655SOL    HW223973   1.689   0.418   6.397 -0.0062  0.4581 -1.0837
40656SOL     OW23974   8.831   5.989   0.772  0.4123 -0.2286  0.3719
40656SOL    HW123975   8.786   6.000   0.855  2.1051 -0.4439  1.3824
40656SOL    HW223976   8.762   5.980   0.707 -0.9819 -1.4663  1.9466
40657SOL     OW23977   3.809   7.040   5.916  0.1285  0.6221 -0.3703
40657SOL    HW123978   3.885   6.987   5.942 -0.3256 -0.0924 -0.4697
40657SOL    HW223979   3.736   6.978   5.917 -0.3739  1.2085 -0.6984
40658SOL     OW23980   3.153   4.494   0.769 -0.0708 -0.5612  0.2844
40658SOL    HW123981   3.141   4.465   0.679  1.4277 -0.8999  0.1697
40658SOL    HW223982   3.240   4.462   0.794  1.2906  2.8287  0.4941
40659SOL     OW23983   0.743   9.772   3.897 -0.5200 -0.3408 -0.2252
40659SOL    HW123984   0.758   9.678   3.907  0.3532 -0.3063 -1.0540
40659SOL    HW223985   0.701   9.798   3.979 -2.8419 -1.8311 -0.8461
40660SOL     OW23986  10.434   7.316  10.168  0.3114  0.2485 -0.1489
40660SOL    HW123987  10.509   7.257  10.174  0.5251  0.6060  0.9680
40660SOL    HW223988  10.399   7.318  10.257 -1.6177 -0.6708 -0.8211
40661SOL     OW23989   7.018   3.297   9.611  0.3633 -0.2131 -0.0578
40661SOL    HW123990   6.948   3.267   9.669 -0.7699  0.5876 -0.9470
40661SOL    HW223991   7.009   3.243   9.533  0.1303  0.4877 -0.5321
40662SOL     OW23992   6.630  10.548   6.020  0.0239  0.3648 -0.2427
40662SOL    HW123993   6.575  10.495   6.077  0.7427 -0.3146 -0.1618
40662SOL    HW223994   6.636  10.497   5.939  0.1754  0.6431 -0.4070
40663SOL     OW23995   9.340   6.889  10.567 -0.7230 -0.0959 -1.2043
40663SOL    HW123996   9.249   6.859  10.561 -0.7158  0.0988 -4.7742
40663SOL    HW223997   9.342   6.970  10.516  1.1236  0.9824  0.4536
40664SOL     OW23998   5.882   6.914   9.645 -0.1703 -0.0623 -0.1804
40664SOL    HW123999   5.948   6.967   9.599  0.1373  0.1429  0.4726
40664SOL    HW224000   5.931   6.841   9.681 -0.3614 -0.0913  0.0214
40665SOL     OW24001   3.560   8.901   8.164  0.1766 -0.0487 -0.2428
40665SOL    HW124002   3.468   8.889   8.188  0.0806  0.9008 -0.0678
40665SOL    HW224003   3.609   8.872   8.242  0.1201 -1.9341 -0.8577
40666SOL     OW24004   0.578   8.040  11.082 -0.4542 -0.3018 -0.1372
40666SOL    HW124005   0.572   7.976  11.011  0.4808  0.7719 -1.2498
40666SOL    HW224006   0.671   8.065  11.084 -1.1173  2.7876 -1.4535
40667SOL     OW24007   9.116   7.322   7.843  0.4691  0.4361  0.3335
40667SOL    HW124008   9.198   7.279   7.821  0.1016  0.0180 -0.2552
40667SOL    HW224009   9.062   7.252   7.881 -0.3884  0.1744 -1.2765
40668SOL     OW24010   4.179   4.447   2.726  0.4935  0.2322 -0.5331
40668SOL    HW124011   4.125   4.448   2.647 -2.1919  2.0660  1.1633
40668SOL    HW224012   4.251   4.507   2.707 -0.4921  1.1852 -1.3550
40669SOL     OW24013   5.015   3.421   4.361  0.2394 -0.2525  0.1004
40669SOL    HW124014   4.996   3.373   4.442 -3.0631 -0.8337 -0.8671
40669SOL    HW224015   5.006   3.513   4.385  0.7425 -0.3557  0.7046
40670SOL     OW24016   1.348   8.839   6.105  0.1700 -0.3463 -0.0834
40670SOL    HW124017   1.314   8.755   6.075  0.2787 -0.6074  0.4996
40670SOL    HW224018   1.409   8.867   6.036  2.9372 -2.5052  1.2750
40671SOL     OW24019   6.407   5.062   7.388 -0.5972  0.4687 -0.9168
40671SOL    HW124020   6.502   5.058   7.381 -0.5537 -1.0285 -0.0666
40671SOL    HW224021   6.375   5.043   7.300 -0.1031  0.3150 -1.0642
40672SOL     OW24022   3.092   2.372   1.360  0.1724 -0.2696 -0.0204
40672SOL    HW124023   3.100   2.374   1.455  0.0711  1.1791 -0.0083
40672SOL    HW224024   3.165   2.425   1.328 -1.0702  1.1817 -0.6060
40673SOL     OW24025   2.129   8.691   8.593  0.7962  0.1112 -0.2406
40673SOL    HW124026   2.178   8.718   8.515 -0.2993 -1.6897 -1.6460
40673SOL    HW224027   2.197   8.672   8.659  1.7131  2.2286 -0.5108
40674SOL     OW24028  11.058   6.454   2.447  0.3503 -0.0426 -0.1829
40674SOL    HW124029  11.128   6.463   2.513 -0.5814 -0.2465  0.8733
40674SOL    HW224030  11.073   6.368   2.408  2.6774  1.2480 -2.4103
40675SOL     OW24031  10.751   4.610   5.394 -0.6049 -0.1570  0.0918
40675SOL    HW124032  10.711   4.652   5.318 -1.2183 -2.5149 -0.9631
40675SOL    HW224033  10.791   4.531   5.360 -1.0102 -1.3768  2.2374
40676SOL     OW24034   2.871   1.866   8.219 -1.0333 -0.3568 -0.3698
40676SOL    HW124035   2.940   1.813   8.259 -2.1249 -1.5879 -0.0570
40676SOL    HW224036   2.888   1.954   8.252 -1.2054 -1.1065  1.9325
40677SOL     OW24037   3.145   1.695   7.261 -0.6764  0.4802 -0.1170
40677SOL    HW124038   3.055   1.662   7.260 -0.9321  0.7405  2.8722
40677SOL    HW224039   3.142   1.770   7.321  1.5987  0.2369  0.4009
40678SOL     OW24040   8.627   2.440   7.588 -0.7053 -0.2491 -0.5837
40678SOL    HW124041   8.661   2.355   7.558  0.1897 -0.4693  0.8912
40678SOL    HW224042   8.643   2.439   7.683 -0.2199  1.7580 -0.5918
40679SOL     OW24043   1.957   0.142   8.487 -0.1637 -0.6203 -1.0463
40679SOL    HW124044   2.038   0.111   8.447  0.8017 -1.5083  1.4256
40679SOL    HW224045   1.888   0.112   8.428  1.1070 -2.7079 -1.5498
40680SOL     OW24046   4.977   3.622   2.434  0.0311  0.1457 -0.1647
40680SOL    HW124047   4.909   3.572   2.389  1.3039 -2.0066  0.1584
40680SOL    HW224048   5.018   3.674   2.365 -0.1149 -0.7113 -0.9242
40681SOL     OW24049   8.299   0.479   2.440 -0.4778  0.3163 -0.7060
40681SOL    HW124050   8.206   0.482   2.464  0.0495 -2.5518  2.4471
40681SOL    HW224051   8.341   0.543   2.498 -0.1255 -0.9477  0.4773
40682SOL     OW24052   2.025   5.906   3.981  0.3201 -0.4885 -0.5999
40682SOL    HW124053   1.949   5.936   3.932  0.8382 -0.2570 -1.2777
40682SOL    HW224054   2.014   5.811   3.988  0.0651 -0.4760 -0.8500
40683SOL     OW24055   3.750   5.034   9.176 -0.1550  0.6147  0.1877
40683SOL    HW124056   3.747   5.065   9.086  0.6287  1.6865  0.5138
40683SOL    HW224057   3.725   4.942   9.170  0.5088  0.4913 -1.2154
40684SOL     OW24058   6.629  10.460   3.498  0.6150 -0.3389  0.0480
40684SOL    HW124059   6.689  10.403   3.547  1.1111  0.1357  0.0024
40684SOL    HW224060   6.578  10.504   3.566 -0.2253 -1.3092  0.0667
40685SOL     OW24061   1.691   6.276   6.095  0.8127 -0.3623  0.0718
40685SOL    HW124062   1.671   6.314   6.009  3.3282  1.8232  0.3043
40685SOL    HW224063   1.771   6.226   6.081 -1.1854 -3.9326  0.3065
40686SOL     OW24064   2.308   1.776   9.755 -0.1290  0.2575 -0.4052
40686SOL    HW124065   2.249   1.702   9.770  1.7415 -0.7517  3.1306
40686SOL    HW224066   2.343   1.762   9.667 -1.8725 -1.4836 -0.8809
40687SOL     OW24067  10.188   3.836   5.390 -1.1294  0.9413  0.2172
40687SOL    HW124068  10.281   3.832   5.412 -1.2961  1.2775  0.9840
40687SOL    HW224069  10.160   3.744   5.388 -0.7809  0.8393 -0.0244
40688SOL     OW24070   9.170   3.896   1.179  0.4189  0.0928 -0.2172
40688SOL    HW124071   9.168   3.957   1.253  0.2338 -1.4877  1.1221
40688SOL    HW224072   9.082   3.901   1.141  0.9262  2.0027 -1.3338
40689SOL     OW24073   9.962   4.655   8.121 -0.3977  0.2654  0.3360
40689SOL    HW124074  10.009   4.597   8.181 -0.7433  0.6698  1.0026
40689SOL    HW224075   9.943   4.733   8.173 -0.5297  0.7005 -0.3565
40690SOL     OW24076   0.466   9.975   7.481 -0.1751 -0.2267 -0.5356
40690SOL    HW124077   0.413   9.901   7.508  0.2524 -0.1025  0.6797
40690SOL    HW224078   0.471  10.031   7.558  1.5138 -0.1066 -0.6987
40691SOL     OW24079   5.108   6.214   1.845  0.3591  0.5908 -0.3669
40691SOL    HW124080   5.100   6.276   1.917 -1.9052 -0.0607  0.0080
40691SOL    HW224081   5.163   6.143   1.879  0.2449  0.8301  0.3242
40692SOL     OW24082   5.327   8.180   1.026  0.5447  0.1550 -0.0402
40692SOL    HW124083   5.378   8.160   1.105 -0.3075 -0.7949  0.2944
40692SOL    HW224084   5.345   8.273   1.009  0.5896  0.4325  1.3802
40693SOL     OW24085   2.290   9.598   1.861 -0.4531  0.5995 -0.4128
40693SOL    HW124086   2.369   9.568   1.816  0.3116  1.5039  0.2665
40693SOL    HW224087   2.221   9.540   1.831  0.5684 -0.5138 -0.6755
40694SOL     OW24088   9.266  10.525   8.010  0.2653  0.0072  0.8189
40694SOL    HW124089   9.345  10.568   8.043  0.2688  2.2066 -1.7086
40694SOL    HW224090   9.217  10.596   7.968 -0.9055 -2.0953 -1.5772
40695SOL     OW24091  10.516   4.908   0.056 -0.2187  0.4486 -0.6864
40695SOL    HW124092  10.569   4.846   0.107  0.9772 -0.6708 -3.1292
40695SOL    HW224093  10.432   4.865   0.046 -0.1831  0.3007 -0.3745
40696SOL     OW24094   2.902   1.861   2.763  0.1539  0.7780  0.2659
40696SOL    HW124095   2.861   1.910   2.835 -0.6290 -1.7658  1.6700
40696SOL    HW224096   2.980   1.821   2.802 -0.0333 -0.2688 -0.3851
40697SOL     OW24097   3.231   7.185   7.945  0.0678  0.2943  0.0781
40697SOL    HW124098   3.151   7.235   7.960  0.2812  0.1011  2.2795
40697SOL    HW224099   3.202   7.101   7.911 -0.4898  0.9000 -0.9951
40698SOL     OW24100   8.323   2.084   6.606 -0.1522 -0.4074 -0.5002
40698SOL    HW124101   8.314   2.155   6.669  1.3929  1.8921 -2.6595
40698SOL    HW224102   8.418   2.071   6.599 -0.3312 -1.1964 -1.6905
40699SOL     OW24103   2.954   4.644   1.835  0.5065  0.4944 -0.0287
40699SOL    HW124104   2.922   4.692   1.759 -0.8659  1.4721  1.1259
40699SOL    HW224105   2.947   4.551   1.811  2.5532  0.7789 -2.0324
40700SOL     OW24106   8.700   5.380   2.851  0.2315  0.0046 -0.3148
40700SOL    HW124107   8.789   5.401   2.881  0.9077 -3.1125  0.1840
40700SOL    HW224108   8.643   5.411   2.922  1.1852 -0.4270  0.6722
40701SOL     OW24109   8.049   6.865   8.881 -0.2991  0.0823  0.6176
40701SOL    HW124110   8.051   6.961   8.880 -0.8145  0.1161  1.5001
40701SOL    HW224111   8.069   6.842   8.972 -3.1415 -0.5293  1.1888
40702SOL     OW24112   1.075   7.944   0.138 -0.3067 -0.1329  0.0992
40702SOL    HW124113   1.086   7.979   0.226  0.1797  0.4978 -0.2088
40702SOL    HW224114   1.163   7.918   0.111 -0.4254 -0.1395 -0.2837
40703SOL     OW24115   1.865   5.811   6.252 -0.1325 -0.1184  0.1657
40703SOL    HW124116   1.849   5.815   6.346 -1.8714  0.9546 -0.1199
40703SOL    HW224117   1.953   5.775   6.244  0.2248  0.1674  2.1977
40704SOL     OW24118   1.192   6.517   3.548 -1.0132 -0.4026  0.4984
40704SOL    HW124119   1.141   6.487   3.473  0.9629  1.8936 -1.9812
40704SOL    HW224120   1.175   6.611   3.553 -1.7949 -0.6115  3.6207
40705SOL     OW24121  11.016   9.711   8.016  0.2750  0.0229 -0.5204
40705SOL    HW124122  11.012   9.712   8.112  1.1224 -1.2481 -0.4424
40705SOL    HW224123  11.004   9.619   7.993 -1.9090  0.5484 -1.7724
40706SOL     OW24124   4.286   0.047   1.968  0.0067 -0.2021  0.5171
40706SOL    HW124125   4.341   0.113   2.012 -0.6831  1.8785 -1.5357
40706SOL    HW224126   4.196   0.073   1.988 -0.2783 -0.4498 -0.4006
40707SOL     OW24127  10.115   9.069  10.932  0.4277 -0.2283  0.1491
40707SOL    HW124128  10.087   9.035  11.017  0.5907 -0.8936 -0.0587
40707SOL    HW224129  10.183   9.008  10.903  1.1985  0.6562  0.0691
40708SOL     OW24130   9.268   3.318   6.368  0.4624 -0.2501 -0.4183
40708SOL    HW124131   9.284   3.251   6.434 -1.8604 -2.3007 -1.7672
40708SOL    HW224132   9.330   3.298   6.298 -0.1586 -1.0057 -0.7747
40709SOL     OW24133   7.847   5.619   2.516 -0.7015 -0.5929 -0.0833
40709SOL    HW124134   7.776   5.667   2.475 -0.0472  1.1436  0.7092
40709SOL    HW224135   7.804   5.551   2.568 -1.8048  0.5241  0.5094
40710SOL     OW24136   3.342   2.262  10.689  0.0490  0.1283  0.0255
40710SOL    HW124137   3.323   2.192  10.752 -1.3446  0.7778  0.3585
40710SOL    HW224138   3.341   2.218  10.604  0.3551 -0.4561  0.3141
40711SOL     OW24139   7.940   7.178   8.400  0.6569  0.1276  0.0569
40711SOL    HW124140   7.934   7.092   8.358  0.2426  0.9203 -1.5741
40711SOL    HW224141   8.031   7.185   8.428  1.8409  0.7778 -3.5190
40712SOL     OW24142   9.404   5.162   0.809  0.0479 -0.3829 -0.2385
40712SOL    HW124143   9.496   5.136   0.809  0.1921 -0.2084 -3.0518
40712SOL    HW224144   9.402   5.241   0.754 -1.8629 -0.8694 -0.9532
40713SOL     OW24145   0.989  10.998   5.690 -0.0247  0.3174  0.9452
40713SOL    HW124146   0.988  11.015   5.596 -2.5523 -0.7389  0.6970
40713SOL    HW224147   1.065  10.941   5.703 -0.6856 -1.0955 -0.8359
40714SOL     OW24148   1.354   5.409   2.349  0.3337 -0.3718  0.2835
40714SOL    HW124149   1.312   5.334   2.306 -0.0184 -0.0641  0.0808
40714SOL    HW224150   1.369   5.472   2.278  0.1115 -0.0234  0.5427
40715SOL     OW24151   3.431   7.869   9.842  0.4766  0.1796  0.0346
40715SOL    HW124152   3.447   7.857   9.748 -0.1142  1.7064 -0.2866
40715SOL    HW224153   3.363   7.936   9.846 -0.5437 -0.8998  1.5335
40716SOL     OW24154   2.002   5.758   2.442 -1.1623 -0.9012  0.8021
40716SOL    HW124155   2.091   5.761   2.408 -1.4811 -1.1784 -0.0631
40716SOL    HW224156   2.002   5.685   2.504 -1.0167 -1.4745  0.1356
40717SOL     OW24157   7.487   2.744   8.910 -0.5408 -0.0198 -0.7123
40717SOL    HW124158   7.536   2.675   8.955 -0.2603  0.1218 -0.7983
40717SOL    HW224159   7.399   2.706   8.897 -0.8612  0.2332  0.6287
40718SOL     OW24160   0.850   4.492   3.882 -0.3794  0.2268 -0.2577
40718SOL    HW124161   0.915   4.434   3.842 -0.7981  0.9982 -2.1923
40718SOL    HW224162   0.898   4.536   3.952 -0.2558 -2.9557  1.8886
40719SOL     OW24163  10.201   5.472   4.777 -0.1930  0.0225  0.7432
40719SOL    HW124164  10.224   5.387   4.740 -0.6363 -0.1868  0.9348
40719SOL    HW224165  10.233   5.535   4.713  2.0993 -0.1696  1.6041
40720SOL     OW24166   7.265   9.166   2.492  0.2964 -0.6915  0.2233
40720SOL    HW124167   7.180   9.128   2.469  1.7824 -2.2303 -3.6129
40720SOL    HW224168   7.249   9.260   2.497 -2.1809 -1.1166  3.1702
40721SOL     OW24169   7.862   7.171   9.393  0.5589  0.6343 -0.3160
40721SOL    HW124170   7.819   7.247   9.355  0.6526  0.0354 -1.7077
40721SOL    HW224171   7.809   7.148   9.469 -0.0641  1.4647 -0.4891
40722SOL     OW24172   7.834   4.801   8.182  0.0930  0.1287  0.2769
40722SOL    HW124173   7.895   4.853   8.128  1.5177  0.9845  2.5691
40722SOL    HW224174   7.861   4.710   8.166 -0.4005  0.2400 -1.4166
40723SOL     OW24175   6.440   6.331   1.520 -0.0677 -0.1396  0.3323
40723SOL    HW124176   6.398   6.296   1.599 -0.6717 -3.0543 -1.1418
40723SOL    HW224177   6.390   6.293   1.448  2.1389  0.1924 -1.4756
40724SOL     OW24178   4.841   4.973   3.614 -0.0892 -0.1519  0.3123
40724SOL    HW124179   4.846   5.061   3.577 -1.6319  0.2078  0.8968
40724SOL    HW224180   4.871   4.983   3.705 -2.5973  0.3307  1.1724
40725SOL     OW24181   4.173   1.691   8.142 -0.0796  0.6389 -0.5571
40725SOL    HW124182   4.115   1.617   8.158 -0.4032  1.2158  1.1473
40725SOL    HW224183   4.229   1.663   8.070 -0.4454 -1.1096 -0.2005
40726SOL     OW24184   0.208   7.833   3.015  0.0641 -0.4112  0.3975
40726SOL    HW124185   0.193   7.928   3.018  0.4808 -0.3673  1.5898
40726SOL    HW224186   0.132   7.799   2.969 -0.4610  0.4401  0.6017
40727SOL     OW24187   9.612   6.642   8.976 -0.6043  0.3893 -0.5347
40727SOL    HW124188   9.564   6.716   8.939 -1.3623 -0.6893 -1.8105
40727SOL    HW224189   9.545   6.588   9.017 -0.3140 -0.4385 -1.1200
40728SOL     OW24190   0.744   3.834   9.832 -0.6045  0.0866 -0.0149
40728SOL    HW124191   0.739   3.925   9.803  2.2228  0.8457  1.4753
40728SOL    HW224192   0.790   3.789   9.761 -3.2252 -0.5868 -1.3844
40729SOL     OW24193  10.193   2.845   3.281  0.6388  0.7995 -0.0875
40729SOL    HW124194  10.118   2.877   3.231 -0.4828 -2.3074 -0.6461
40729SOL    HW224195  10.268   2.862   3.224 -0.3563 -0.6431 -1.9516
40730SOL     OW24196   9.178   4.515   1.544 -0.4767  0.5555  0.4637
40730SOL    HW124197   9.247   4.571   1.509 -0.5560  0.1328 -0.3776
40730SOL    HW224198   9.097   4.552   1.509 -0.4686 -0.6018 -0.8560
40731SOL     OW24199   4.206   2.808   6.578 -0.1044 -0.0602 -0.6351
40731SOL    HW124200   4.171   2.785   6.664 -1.7677 -0.0820 -1.2793
40731SOL    HW224201   4.301   2.807   6.589 -0.2553 -1.4642  0.8334
40732SOL     OW24202   2.701   8.011   2.129 -0.2439  0.4479  0.1207
40732SOL    HW124203   2.750   7.936   2.096  0.1679  1.2208 -1.0939
40732SOL    HW224204   2.743   8.087   2.089 -0.2449  1.4063  1.8097
40733SOL     OW24205   9.521   7.607   5.139  0.5585 -0.6784 -0.5031
40733SOL    HW124206   9.577   7.530   5.133  2.2475  0.5254 -1.0306
40733SOL    HW224207   9.576   7.679   5.109 -0.7913  0.8331  0.4631
40734SOL     OW24208   4.039   8.198   8.600 -0.4379 -0.0896  0.4837
40734SOL    HW124209   4.120   8.248   8.602 -0.5811  0.2027 -0.4173
40734SOL    HW224210   4.067   8.106   8.610 -0.1087  0.0970  1.3466
40735SOL     OW24211   9.125   7.654   6.695  0.2122  0.1424 -0.0292
40735SOL    HW124212   9.090   7.615   6.615  1.0804 -1.5303  0.3674
40735SOL    HW224213   9.054   7.645   6.759 -0.0996  0.5183 -0.3180
40736SOL     OW24214   5.644   0.664   8.928  0.7888  0.1615 -0.0667
40736SOL    HW124215   5.550   0.666   8.911  0.3917  0.0347  1.8285
40736SOL    HW224216   5.666   0.754   8.953  1.3876  0.4063 -1.3785
40737SOL     OW24217   6.400  10.020   0.053 -0.0094  0.0281  0.2902
40737SOL    HW124218   6.473  10.082   0.054 -0.0323  0.0813  1.8229
40737SOL    HW224219   6.348  10.044   0.130 -0.8768 -0.8920  0.0026
40738SOL     OW24220   6.313   3.040   9.368 -0.1112 -0.2675 -0.0936
40738SOL    HW124221   6.280   2.987   9.440 -1.1829 -0.5196 -0.7493
40738SOL    HW224222   6.317   3.129   9.403  1.0911 -0.6398  0.8110
40739SOL     OW24223   5.730   0.303   3.903  0.0381  0.2447 -0.1621
40739SOL    HW124224   5.709   0.282   3.812  2.7877  1.2667 -1.1490
40739SOL    HW224225   5.692   0.390   3.917 -0.4544  0.0542 -0.2917
40740SOL     OW24226   5.229   1.751   0.055  0.0236 -0.2825  0.3659
40740SOL    HW124227   5.231   1.773  -0.038  1.0990  0.6079  0.5834
40740SOL    HW224228   5.318   1.723   0.075 -0.4197 -1.3683  0.9460
40741SOL     OW24229  10.114   7.387   4.732 -0.1107 -0.0284 -0.6011
40741SOL    HW124230  10.038   7.425   4.776  0.1699 -1.2145  0.9942
40741SOL    HW224231  10.188   7.440   4.763  0.0850 -0.8522  0.3951
40742SOL     OW24232   1.080   2.040   3.744 -0.4174  0.2723  0.0402
40742SOL    HW124233   1.138   1.987   3.797 -0.8160 -1.1989 -0.9435
40742SOL    HW224234   1.098   2.130   3.772  1.8075 -0.1775  0.2492
40743SOL     OW24235   7.560   5.930   5.348 -0.2237 -0.6830 -0.2324
40743SOL    HW124236   7.605   5.996   5.400 -0.4349 -1.2509  0.7019
40743SOL    HW224237   7.539   5.860   5.411  0.2837 -1.7817 -1.2363
40744SOL     OW24238   2.735   3.525   8.833  0.2375  0.4924  0.8479
40744SOL    HW124239   2.794   3.593   8.867  1.2558 -0.3130  0.7380
40744SOL    HW224240   2.790   3.447   8.826 -0.8855 -0.3255  0.8740
40745SOL     OW24241   5.499   6.176   3.044  0.1373 -0.2331  0.1035
40745SOL    HW124242   5.551   6.250   3.076  0.8850 -1.1863  1.1723
40745SOL    HW224243   5.545   6.145   2.967 -0.1790  0.3962 -0.3508
40746SOL     OW24244   6.980   7.854   1.544 -0.2340 -0.0167  0.0460
40746SOL    HW124245   6.987   7.759   1.552  0.8786  0.0717  0.2249
40746SOL    HW224246   7.039   7.876   1.472  2.2866  0.8848  2.2442
40747SOL     OW24247   0.549   9.765   7.693 -0.2986  0.1851 -0.4209
40747SOL    HW124248   0.588   9.846   7.726  1.0817 -1.0676  1.1934
40747SOL    HW224249   0.620   9.701   7.697 -2.1910 -1.9813  1.6753
40748SOL     OW24250   0.120   8.428   5.714 -0.4748  0.0704  0.2215
40748SOL    HW124251   0.058   8.358   5.693 -0.4385 -0.1554  0.8651
40748SOL    HW224252   0.066   8.502   5.739 -0.5688  0.7145 -1.6864
40749SOL     OW24253   4.840  10.048   3.039  0.0844  0.4968 -0.4751
40749SOL    HW124254   4.788  10.008   3.109 -1.1699  0.0100 -1.6402
40749SOL    HW224255   4.775  10.073   2.973  1.4129 -1.1509 -2.4926
40750SOL     OW24256  10.238  10.724   3.010  0.2135 -0.7759  0.0656
40750SOL    HW124257  10.225  10.729   2.915  1.3617 -1.6485 -0.1612
40750SOL    HW224258  10.332  10.737   3.021  0.2512 -1.7832  0.9969
40751SOL     OW24259   8.293   1.050   4.483 -0.0398 -0.3281 -0.2095
40751SOL    HW124260   8.279   1.050   4.578 -0.4650 -1.2502 -0.2600
40751SOL    HW224261   8.224   1.106   4.448 -0.3269 -0.5680 -0.0285
40752SOL     OW24262  10.589   2.820  10.762  0.6134  0.3786 -0.0877
40752SOL    HW124263  10.507   2.816  10.811  0.8900  2.8054  0.7456
40752SOL    HW224264  10.562   2.843  10.673  0.3400  0.1588 -0.0647
40753SOL     OW24265   0.859   4.777   2.965  0.3854 -0.3080  0.3381
40753SOL    HW124266   0.947   4.754   2.994  0.7466 -0.9888 -1.2337
40753SOL    HW224267   0.808   4.697   2.976  0.0365 -0.0202  0.8870
40754SOL     OW24268   0.337   6.378  10.876 -0.9710 -0.7606  0.0058
40754SOL    HW124269   0.401   6.308  10.866 -0.7688 -0.3445 -1.7768
40754SOL    HW224270   0.259   6.334  10.911 -0.8833 -1.9053 -1.1929
40755SOL     OW24271   7.715   9.734   2.357  0.1635  0.0733 -0.0765
40755SOL    HW124272   7.695   9.821   2.393 -0.1061  0.3745 -0.9241
40755SOL    HW224273   7.763   9.752   2.276  0.5943 -0.5829  0.0287
40756SOL     OW24274   9.441  10.497   8.486 -0.5723  0.3559 -0.1175
40756SOL    HW124275   9.524  10.545   8.492  0.3897 -1.2462  0.0017
40756SOL    HW224276   9.401  10.507   8.572 -0.7451  1.5227 -0.3168
40757SOL     OW24277   2.358   4.842   7.958  0.6325 -0.0725  0.3871
40757SOL    HW124278   2.452   4.829   7.965  0.7302 -0.3476 -1.1083
40757SOL    HW224279   2.342   4.851   7.864 -1.1748 -2.6553  0.3513
40758SOL     OW24280   0.301   3.252   3.676  0.0275 -0.2428 -0.0587
40758SOL    HW124281   0.327   3.183   3.614 -1.3256 -0.3311 -0.5613
40758SOL    HW224282   0.210   3.270   3.654  0.3668  1.7569  0.0400
40759SOL     OW24283   4.692   4.023   2.448  0.0543 -0.1386  0.0184
40759SOL    HW124284   4.767   3.990   2.400  0.8402  1.2298  0.2720
40759SOL    HW224285   4.679   3.960   2.519 -0.4491 -1.5836 -1.2914
40760SOL     OW24286   7.570   3.502   8.894 -0.3147  0.0241 -0.2684
40760SOL    HW124287   7.532   3.418   8.917  0.5464 -0.2902  0.0317
40760SOL    HW224288   7.494   3.558   8.873 -1.2667  0.4955  3.7052
40761SOL     OW24289   8.986  10.443   1.598 -0.1773 -0.3347 -0.3530
40761SOL    HW124290   8.943  10.369   1.556 -2.4131  1.1007 -0.7808
40761SOL    HW224291   9.032  10.487   1.526  1.0910 -1.2160 -0.1116
40762SOL     OW24292   2.970   2.487   1.655 -0.6999  0.1515 -0.2720
40762SOL    HW124293   2.874   2.480   1.653 -0.8675  1.5096  1.0911
40762SOL    HW224294   2.991   2.546   1.583 -0.7805 -0.8403 -1.1341
40763SOL     OW24295  10.410   0.559   6.715  0.8703 -0.2866  0.2643
40763SOL    HW124296  10.413   0.465   6.698  1.4617 -0.9314  3.3185
40763SOL    HW224297  10.503   0.585   6.717  0.9478 -0.4416  2.6674
40764SOL     OW24298  10.937   8.507   7.590 -0.7199  0.3684  0.4585
40764SOL    HW124299  10.974   8.555   7.517 -0.2384 -0.6031  0.0425
40764SOL    HW224300  11.002   8.513   7.659 -1.2604  1.4511  0.8881
40765SOL     OW24301   7.564   2.471   9.100 -0.1175 -0.4866  0.4779
40765SOL    HW124302   7.647   2.508   9.069 -0.5723  1.1076  1.0620
40765SOL    HW224303   7.538   2.528   9.173 -2.8148  0.4921 -1.0815
40766SOL     OW24304  10.331   4.113   5.023 -0.3278 -0.1086 -0.3491
40766SOL    HW124305  10.254   4.151   5.066  0.3063  0.6540  0.1409
40766SOL    HW224306  10.325   4.145   4.933 -0.7561 -0.3325 -0.4072
40767SOL     OW24307   6.041   1.835   8.321  0.1309 -0.6385  0.2934
40767SOL    HW124308   5.949   1.811   8.310 -0.2101  0.9298 -0.6765
40767SOL    HW224309   6.066   1.873   8.237  2.2747 -2.7493 -0.1581
40768SOL     OW24310   1.027   4.825   7.151  0.6794 -0.2027 -0.0918
40768SOL    HW124311   0.939   4.825   7.189  1.2442 -0.1096  1.2972
40768SOL    HW224312   1.013   4.815   7.057 -0.9255  2.0646 -0.1789
40769SOL     OW24313  10.899   9.779   0.662  0.2240  0.4563  0.7017
40769SOL    HW124314  10.860   9.697   0.631  0.4562  0.4666  0.3854
40769SOL    HW224315  10.844   9.804   0.736 -0.5936  0.6541  0.0403
40770SOL     OW24316  11.046   5.475   6.892 -0.0066  0.6163  0.3328
40770SOL    HW124317  11.120   5.533   6.872  0.0606  1.0634  1.8004
40770SOL    HW224318  11.019   5.441   6.806  0.8346  1.7372 -0.4093
40771SOL     OW24319  10.971   5.510   6.595  0.2053 -0.2181 -0.2927
40771SOL    HW124320  11.064   5.489   6.609  0.0857 -1.3378 -0.9990
40771SOL    HW224321  10.971   5.600   6.564  1.1124 -0.3545 -0.7400
40772SOL     OW24322  10.617   8.272   4.602  0.8054  0.0106 -0.0346
40772SOL    HW124323  10.554   8.210   4.567  0.8731 -0.4755  0.6806
40772SOL    HW224324  10.692   8.218   4.628  1.8398  0.6577 -1.5662
40773SOL     OW24325   5.912   1.918   5.079  0.0238 -0.0764  0.1178
40773SOL    HW124326   5.817   1.910   5.091 -0.1487  1.5249  0.1025
40773SOL    HW224327   5.925   1.912   4.985 -0.2466  1.1308 -0.0094
40774SOL     OW24328   4.378   3.272  10.868  0.1007 -0.7105  0.4360
40774SOL    HW124329   4.435   3.196  10.883  2.0495  0.6883  0.5572
40774SOL    HW224330   4.342   3.291  10.955 -0.3841 -1.4460  0.4111
40775SOL     OW24331   2.952  10.692   7.127  0.1199  0.7346  0.5408
40775SOL    HW124332   2.997  10.645   7.057 -1.2711 -0.9390  0.6923
40775SOL    HW224333   3.013  10.691   7.200  0.3297 -0.4577  0.3758
40776SOL     OW24334   8.415   1.622   3.126  0.0539  0.0778 -0.1621
40776SOL    HW124335   8.500   1.595   3.091  0.3186 -1.1801  1.3346
40776SOL    HW224336   8.399   1.707   3.087  1.3295 -0.2888 -1.5939
40777SOL     OW24337   2.748   7.848   9.688  0.2412  0.6357 -0.4857
40777SOL    HW124338   2.724   7.775   9.745  0.6200 -0.8045 -2.1168
40777SOL    HW224339   2.838   7.868   9.712  0.7194 -0.5905 -1.1766
40778SOL     OW24340   4.852   3.406   8.360  0.2786  0.1508 -0.0225
40778SOL    HW124341   4.908   3.349   8.413  1.5867  0.8838 -0.5720
40778SOL    HW224342   4.847   3.364   8.275  1.5118  0.9694 -0.5295
40779SOL     OW24343   9.052   5.992   1.178 -0.1774 -0.2500 -0.2663
40779SOL    HW124344   9.051   5.964   1.087 -0.7627  1.2955 -0.7751
40779SOL    HW224345   8.978   5.947   1.218 -0.6003 -0.0829 -0.8471
40780SOL     OW24346   7.186   6.683   8.411  0.1709  0.5545  0.1763
40780SOL    HW124347   7.144   6.671   8.326  0.1966  2.0740 -0.0756
40780SOL    HW224348   7.274   6.716   8.390  2.0491 -3.5081  0.6307
40781SOL     OW24349   0.657   8.105   4.456 -0.0008 -0.0853 -0.4156
40781SOL    HW124350   0.648   8.161   4.379 -2.4920  1.0660  0.5910
40781SOL    HW224351   0.588   8.134   4.515 -0.4035 -3.1840  0.8564
40782SOL     OW24352   8.267   0.169   8.992  0.3210 -0.2115  0.8995
40782SOL    HW124353   8.188   0.221   8.977 -0.3846 -1.2145  0.9793
40782SOL    HW224354   8.312   0.167   8.908 -0.1625 -0.2928  0.6383
40783SOL     OW24355   5.604   5.622   1.037 -0.0888 -0.0052  0.4326
40783SOL    HW124356   5.538   5.681   1.075 -1.2630  0.3019 -1.9142
40783SOL    HW224357   5.683   5.675   1.033 -0.5015  0.6300  0.5199
40784SOL     OW24358   8.875   3.031   2.967  0.0685  0.4120  0.7250
40784SOL    HW124359   8.915   2.965   3.023 -1.0718 -1.0660 -0.1031
40784SOL    HW224360   8.785   3.039   2.999 -1.4520 -2.3399 -2.2115
40785SOL     OW24361   9.913   3.053   8.713  0.3615 -0.3036 -0.3298
40785SOL    HW124362   9.886   3.144   8.727  0.1956 -0.5334  0.9892
40785SOL    HW224363   9.923   3.017   8.801  2.7951 -0.9034 -0.7715
40786SOL     OW24364   8.357   4.062   7.284  0.1706 -0.5152  0.4901
40786SOL    HW124365   8.443   4.039   7.318  1.1966  0.5943 -1.1822
40786SOL    HW224366   8.373   4.139   7.229 -1.7443 -0.8632 -0.6416
40787SOL     OW24367   2.149   6.944   8.234 -0.3018  0.5413  1.1233
40787SOL    HW124368   2.215   6.901   8.288  0.5080  2.6639  1.8974
40787SOL    HW224369   2.145   6.890   8.155  1.3855 -0.3915  1.6244
40788SOL     OW24370  10.553   7.937   3.815  0.4558  0.5135  0.1014
40788SOL    HW124371  10.532   7.851   3.778  1.4365 -0.5090  1.8031
40788SOL    HW224372  10.524   7.999   3.748 -0.4177 -1.1186 -1.1146
40789SOL     OW24373   7.248   8.643   4.621  0.7971  0.1493  0.2491
40789SOL    HW124374   7.237   8.735   4.647  0.0568  0.4141 -0.9483
40789SOL    HW224375   7.171   8.623   4.569  1.1816 -1.0262  0.0976
40790SOL     OW24376   2.048   7.119   5.609 -0.1472 -0.6491 -0.1922
40790SOL    HW124377   2.002   7.036   5.617  0.1645 -0.8232 -0.1944
40790SOL    HW224378   1.979   7.184   5.603 -0.5383 -0.4756  3.4506
40791SOL     OW24379   3.412  11.016   3.976  0.7186  0.1104 -0.0299
40791SOL    HW124380   3.359  10.940   3.954  1.6102 -0.3205 -0.7517
40791SOL    HW224381   3.498  10.981   3.996  0.7623  0.8025  1.1251
40792SOL     OW24382   6.949   4.823   6.893  0.3192 -0.2215  0.5685
40792SOL    HW124383   6.918   4.912   6.876 -1.3190 -0.7950  0.3601
40792SOL    HW224384   6.877   4.781   6.940  2.2288 -0.5806  3.3717
40793SOL     OW24385   5.961   6.137   5.234  0.2413  0.8658  0.2175
40793SOL    HW124386   6.052   6.166   5.245  0.4645  0.0957  0.4765
40793SOL    HW224387   5.932   6.118   5.323 -0.4100  1.7693  0.2089
40794SOL     OW24388   7.477   1.131   8.372 -0.1805  0.1302  0.1180
40794SOL    HW124389   7.417   1.113   8.300  2.4586 -0.5320 -2.0670
40794SOL    HW224390   7.483   1.227   8.374 -0.5808  0.1683 -0.2609
40795SOL     OW24391   4.888   3.316   4.002  0.8885  0.8760 -0.0950
40795SOL    HW124392   4.898   3.235   3.951  1.0806 -0.3588  1.7954
40795SOL    HW224393   4.944   3.380   3.957  1.5658 -0.3377 -1.0381
40796SOL     OW24394   9.416   1.035   0.314 -0.1807 -0.4134  0.3477
40796SOL    HW124395   9.479   1.094   0.271 -2.0089  1.9587  0.6975
40796SOL    HW224396   9.431   0.950   0.274  2.0739  0.4260 -0.7856
40797SOL     OW24397   7.337  10.331   4.245 -0.9506 -0.4539  0.4732
40797SOL    HW124398   7.271  10.369   4.187  0.1067  2.1738  0.8989
40797SOL    HW224399   7.335  10.385   4.323 -1.5506 -3.2440  2.5575
40798SOL     OW24400   0.506   5.072   5.316 -0.1369  0.0114  0.0938
40798SOL    HW124401   0.464   5.034   5.393  2.5055 -1.1273  1.1012
40798SOL    HW224402   0.519   5.164   5.338 -1.9660  0.4023 -0.2571
40799SOL     OW24403   2.252  10.076   5.282  0.5618 -0.1198 -0.6604
40799SOL    HW124404   2.330  10.039   5.324 -0.6490 -1.4157  0.5731
40799SOL    HW224405   2.280  10.162   5.250  1.9459  0.3985  1.6724
40800SOL     OW24406   6.943   1.597   7.877  0.5914  0.0335  0.1871
40800SOL    HW124407   6.950   1.531   7.807 -2.1355 -0.7214  0.5302
40800SOL    HW224408   6.970   1.551   7.956  0.3103 -0.1773  0.1630
40801SOL     OW24409   8.640   9.430   2.635  0.4872  0.3230  0.7403
40801SOL    HW124410   8.681   9.365   2.578  0.2608  1.0776 -0.3199
40801SOL    HW224411   8.610   9.499   2.575  0.9000  1.5058  1.8336
40802SOL     OW24412   1.724   2.375   6.271  0.4011  0.4390 -0.5660
40802SOL    HW124413   1.640   2.356   6.229  0.6364  1.3574 -1.4624
40802SOL    HW224414   1.701   2.394   6.362 -0.2063 -0.6761 -0.4673
40803SOL     OW24415   0.661   5.524   3.530  0.5278  0.0456  0.3496
40803SOL    HW124416   0.724   5.486   3.468  1.1200  1.7255 -0.1384
40803SOL    HW224417   0.650   5.615   3.500 -2.2387 -0.2051  0.3439
40804SOL     OW24418   6.737   8.294   6.969 -0.5487 -0.0941 -0.2413
40804SOL    HW124419   6.720   8.233   7.041  1.4576 -0.3011  0.1151
40804SOL    HW224420   6.771   8.239   6.898 -0.2194  0.4154 -0.4858
40805SOL     OW24421   8.771   6.826   9.481  0.2701 -0.2277 -0.3997
40805SOL    HW124422   8.706   6.813   9.412 -0.2785 -2.0676  0.4220
40805SOL    HW224423   8.823   6.746   9.480  0.3405 -0.2249  1.2356
40806SOL     OW24424   9.509   7.499  10.610 -0.2721 -0.1826  0.0455
40806SOL    HW124425   9.558   7.522  10.689  0.5361 -1.0156 -0.1950
40806SOL    HW224426   9.433   7.557  10.612  0.1008  0.3091  1.0572
40807SOL     OW24427  10.556   2.175   6.276 -0.7112 -0.3568 -0.5330
40807SOL    HW124428  10.500   2.164   6.353  1.1392 -0.1491  0.9133
40807SOL    HW224429  10.532   2.103   6.218 -2.1923 -0.4838  0.1865
40808SOL     OW24430   7.322   9.524   9.176  0.4281 -0.2309 -0.2704
40808SOL    HW124431   7.334   9.461   9.247  1.2955  1.7737  1.4652
40808SOL    HW224432   7.332   9.609   9.217  0.5008  1.0553 -2.7390
40809SOL     OW24433   9.930   9.892   5.753  0.2985  0.4249  0.3384
40809SOL    HW124434   9.887   9.807   5.758  0.3305  0.4510  3.7344
40809SOL    HW224435   9.983   9.888   5.674 -1.0659 -2.0154 -0.5528
40810SOL     OW24436   1.462   0.356   3.282  0.2057 -0.3654  0.6070
40810SOL    HW124437   1.469   0.361   3.377 -1.0426 -0.3720  0.7126
40810SOL    HW224438   1.480   0.445   3.251  0.0068 -0.2253  0.8941
40811SOL     OW24439   8.808   5.646   1.570  0.5524  0.3601 -0.5693
40811SOL    HW124440   8.805   5.608   1.658 -0.3377  1.1515 -0.2414
40811SOL    HW224441   8.788   5.573   1.511  3.9095 -0.8816 -0.3885
40812SOL     OW24442   7.785   2.634  10.373  0.4652  0.2545  0.1549
40812SOL    HW124443   7.836   2.696  10.425 -0.1040  0.6619  0.2242
40812SOL    HW224444   7.837   2.553  10.376  0.8980  0.5413  0.5767
40813SOL     OW24445   0.678   5.122   3.612  0.8479 -0.1443 -0.0050
40813SOL    HW124446   0.675   5.217   3.625  1.5914  0.1545 -1.7945
40813SOL    HW224447   0.656   5.086   3.698  0.3944  1.6353  0.6758
40814SOL     OW24448   0.365   6.582   7.450  0.1919 -0.7139  0.5935
40814SOL    HW124449   0.417   6.639   7.394  0.0655 -1.3825 -0.2171
40814SOL    HW224450   0.404   6.592   7.537  0.7990 -0.1638  0.2635
40815SOL     OW24451   7.369   0.976   8.711  0.2400 -0.1148  0.4090
40815SOL    HW124452   7.363   1.054   8.765 -0.3867  1.0262 -1.2172
40815SOL    HW224453   7.463   0.959   8.703  0.6332  2.3826 -1.7044
40816SOL     OW24454   3.448   3.107   3.196  0.6412 -0.5360  0.2884
40816SOL    HW124455   3.486   3.169   3.258  2.0542  1.1880 -2.1383
40816SOL    HW224456   3.387   3.055   3.249 -0.7404  2.9397  2.4691
40817SOL     OW24457   7.122   1.773   3.604 -0.4168  0.2026  0.5508
40817SOL    HW124458   7.199   1.819   3.570 -0.2051  0.6133  1.5701
40817SOL    HW224459   7.137   1.766   3.698 -0.8708 -1.1607  0.5521
40818SOL     OW24460   3.934   8.805   3.467  0.5462  0.1495  0.0923
40818SOL    HW124461   3.892   8.753   3.399  1.0338  0.1277 -0.2010
40818SOL    HW224462   4.025   8.775   3.467  0.8052  0.9109 -0.0004
40819SOL     OW24463   2.069  10.855   9.965 -0.5227  0.4065 -0.3605
40819SOL    HW124464   2.118  10.789   9.916  0.0934  1.7823 -1.6766
40819SOL    HW224465   1.995  10.807  10.002  0.1275 -1.0927 -0.9360
40820SOL     OW24466   3.461  10.001   0.974 -0.4483  0.7923 -0.1052
40820SOL    HW124467   3.405  10.030   0.902  0.9268  1.4147 -0.9897
40820SOL    HW224468   3.503  10.082   1.005  2.0741  0.1120 -1.3973
40821SOL     OW24469   8.395   8.400   1.805 -0.3988  0.3422  0.5726
40821SOL    HW124470   8.482   8.391   1.842  0.4243  1.0128 -1.0891
40821SOL    HW224471   8.353   8.468   1.857  0.8984  1.6079  0.0367
40822SOL     OW24472   2.689   3.736   8.520 -0.2689  0.1336 -0.4010
40822SOL    HW124473   2.737   3.749   8.602  0.3927 -0.2845 -0.7117
40822SOL    HW224474   2.617   3.799   8.524  0.2444  0.7041  0.1230
40823SOL     OW24475   4.506   2.809   8.652  0.2766 -0.5306 -0.1635
40823SOL    HW124476   4.433   2.758   8.688 -0.0668 -0.1773 -0.3386
40823SOL    HW224477   4.517   2.776   8.563 -0.2856  0.0361 -0.4544
40824SOL     OW24478   1.971   6.092  11.026  0.0221  0.5756  0.0315
40824SOL    HW124479   1.976   6.075  11.120 -1.1810 -1.8193 -0.2657
40824SOL    HW224480   1.881   6.122  11.011  0.5023  1.9365 -0.2500
40825SOL     OW24481   2.161   1.142   2.577 -0.0160 -0.3607 -0.0207
40825SOL    HW124482   2.140   1.175   2.664  1.1303  0.6320 -0.0929
40825SOL    HW224483   2.166   1.047   2.588 -1.0068 -0.3441  0.7237
40826SOL     OW24484   0.487   2.246   8.272  0.2513  0.3040  0.4261
40826SOL    HW124485   0.552   2.206   8.215  1.2625  1.3436  0.8194
40826SOL    HW224486   0.532   2.320   8.313 -1.1499  1.0115  0.7666
40827SOL     OW24487   8.498   4.446   6.203  0.2915 -0.0223 -0.2153
40827SOL    HW124488   8.532   4.511   6.264 -0.2009 -0.8438  0.9574
40827SOL    HW224489   8.573   4.390   6.183 -0.1013 -1.4144  1.8359
40828SOL     OW24490   7.255   1.045   9.229 -0.1651  0.2775 -1.0534
40828SOL    HW124491   7.222   1.119   9.178  0.1103  1.6816  0.7020
40828SOL    HW224492   7.186   1.027   9.293  0.4997  0.1945 -0.3437
40829SOL     OW24493   2.735   5.366   2.848  0.3923  0.1159  0.2546
40829SOL    HW124494   2.811   5.376   2.791 -2.6285 -1.2134 -4.5858
40829SOL    HW224495   2.730   5.272   2.866 -1.0354 -0.1173 -1.1405
40830SOL     OW24496   1.309   9.206   9.685  0.3143  0.2951  0.4119
40830SOL    HW124497   1.323   9.210   9.591 -0.0055  2.6426  0.4116
40830SOL    HW224498   1.397   9.214   9.723  0.3075  0.8722  0.3127
40831SOL     OW24499   9.273   9.196   6.353  0.3424  0.3878  0.2787
40831SOL    HW124500   9.215   9.195   6.277 -1.3080  2.0802  1.4299
40831SOL    HW224501   9.219   9.165   6.426  1.4969  0.0533  1.0328
40832SOL     OW24502   2.936   6.736   7.142 -0.2649  0.0873  0.4296
40832SOL    HW124503   2.972   6.800   7.080  0.7138  0.2503  1.1485
40832SOL    HW224504   2.849   6.717   7.108  0.0851  0.4990 -0.7634
40833SOL     OW24505   8.660   4.246   5.857 -0.2974  0.4700  0.0243
40833SOL    HW124506   8.612   4.258   5.939  0.4997  3.6851  0.1660
40833SOL    HW224507   8.725   4.178   5.876 -0.7829  0.4387  1.7247
40834SOL     OW24508   9.094  10.847   1.297  0.0124  0.5142 -0.0221
40834SOL    HW124509   9.115  10.803   1.214 -1.1004 -0.6272  0.2570
40834SOL    HW224510   9.000  10.866   1.290 -0.3552 -0.6431  1.4131
40835SOL     OW24511   1.688   9.474   8.030 -0.5565  0.6093  0.3550
40835SOL    HW124512   1.604   9.499   7.992 -1.3572 -0.6595  1.2107
40835SOL    HW224513   1.748   9.543   8.003 -2.1382  2.2237  0.7833
40836SOL     OW24514   3.240   1.882   1.160 -0.2850 -0.1315 -0.0193
40836SOL    HW124515   3.267   1.932   1.082  0.5004 -0.8304 -0.2035
40836SOL    HW224516   3.306   1.903   1.226 -0.3454 -0.3799  0.1215
40837SOL     OW24517   9.354  11.069   4.191  0.3145 -0.4081  0.5123
40837SOL    HW124518   9.430  11.126   4.180 -0.5013  0.6434  0.2682
40837SOL    HW224519   9.388  10.993   4.238  2.1339 -1.2255 -1.9161
40838SOL     OW24520   9.311   6.081   6.256  0.2219  0.3601  0.1748
40838SOL    HW124521   9.252   6.113   6.324  0.2776 -1.3939  1.1160
40838SOL    HW224522   9.390   6.055   6.303  0.3076 -0.7946 -0.5478
40839SOL     OW24523  10.250   2.692   8.266 -0.5636 -0.2031 -0.1588
40839SOL    HW124524  10.196   2.614   8.249 -0.0251 -0.5504 -0.2878
40839SOL    HW224525  10.325   2.658   8.315  0.5721 -0.0600 -1.7229
40840SOL     OW24526   6.215   6.531   7.235  0.8094 -0.5270 -0.0126
40840SOL    HW124527   6.176   6.474   7.169  0.1113  0.6555 -0.6596
40840SOL    HW224528   6.305   6.545   7.205  1.0732 -1.4573  0.2886
40841SOL     OW24529   8.903   9.131   2.415 -0.1273 -0.3470 -0.6145
40841SOL    HW124530   8.874   9.103   2.502 -0.4928 -1.1051 -0.9734
40841SOL    HW224531   8.960   9.206   2.432  0.6826 -1.1562  0.3453
40842SOL     OW24532   4.030   1.380   2.999 -0.1074 -0.0728 -0.1537
40842SOL    HW124533   3.952   1.336   3.035 -0.3354 -0.0940 -0.6713
40842SOL    HW224534   3.995   1.451   2.946  0.2261 -0.1318 -0.4509
40843SOL     OW24535   2.184   8.976   7.038 -0.4811 -0.0424 -0.9332
40843SOL    HW124536   2.164   9.032   7.113  0.7554  2.2734 -2.2522
40843SOL    HW224537   2.128   8.899   7.051  0.1242 -0.0665  2.6881
40844SOL     OW24538   0.725   9.915   1.049 -0.2873  0.1096  0.1451
40844SOL    HW124539   0.660   9.861   1.093  0.5562  0.0554  1.3650
40844SOL    HW224540   0.746   9.867   0.969 -0.7239 -0.5556  0.4242
40845SOL     OW24541   9.430   8.757   3.172 -0.4654  0.4145 -0.1187
40845SOL    HW124542   9.480   8.699   3.229 -0.6909 -0.1174 -0.4554
40845SOL    HW224543   9.413   8.705   3.093 -0.0332  1.1831 -0.7337
40846SOL     OW24544  11.055   4.627   5.077  0.2174 -0.0738 -0.0165
40846SOL    HW124545  11.017   4.540   5.069  0.0864 -0.0233  0.0551
40846SOL    HW224546  11.041   4.651   5.169  2.6360 -1.0847  0.6999
40847SOL     OW24547   3.294   5.481   3.338 -0.3152 -0.6468  0.5349
40847SOL    HW124548   3.372   5.437   3.372  0.7930  0.0399 -1.0349
40847SOL    HW224549   3.324   5.568   3.313 -1.1503 -0.9462 -1.7180
40848SOL     OW24550   6.949   8.318  10.607  0.9484  0.5599 -0.5304
40848SOL    HW124551   6.939   8.249  10.672 -1.8038 -0.5256 -1.9543
40848SOL    HW224552   7.001   8.385  10.651  1.9403 -1.4843  1.6173
40849SOL     OW24553   7.301   2.006  10.321  0.0682 -0.8261 -0.1113
40849SOL    HW124554   7.210   2.035  10.332  0.1203 -0.9821  0.8119
40849SOL    HW224555   7.351   2.062  10.379  0.6954 -0.1667 -1.2536
40850SOL     OW24556   6.856   5.393   4.055  0.4095  0.4201 -1.1633
40850SOL    HW124557   6.821   5.479   4.032 -0.8334  1.0679  2.5200
40850SOL    HW224558   6.780   5.335   4.050  0.4854  0.2519 -0.4252
40851SOL     OW24559   0.327   7.658   2.744  0.1389 -0.3725  0.1617
40851SOL    HW124560   0.247   7.709   2.734  0.4383 -0.0981 -1.0517
40851SOL    HW224561   0.311   7.602   2.820 -0.7848  0.4320  0.5730
40852SOL     OW24562   9.108   2.394   5.412 -0.2200  0.1705  0.7839
40852SOL    HW124563   9.035   2.333   5.416  0.0351 -0.1055  1.2602
40852SOL    HW224564   9.112   2.434   5.499 -1.5828  2.2968 -0.0568
40853SOL     OW24565  11.000   1.851   8.887  0.3152 -0.1616 -0.1678
40853SOL    HW124566  10.930   1.791   8.861  3.0295 -1.9815 -4.1511
40853SOL    HW224567  10.976   1.934   8.846 -1.5496  0.5915  2.2143
40854SOL     OW24568   2.199   0.721   8.452 -0.2409 -1.1164  0.2360
40854SOL    HW124569   2.174   0.722   8.545  0.7549 -0.1927  0.5143
40854SOL    HW224570   2.295   0.724   8.453 -0.2396  1.7847 -0.8177
40855SOL     OW24571   6.716   7.065   1.529 -0.0431 -0.0018  0.6618
40855SOL    HW124572   6.747   6.977   1.551  1.5323  0.3051 -0.1934
40855SOL    HW224573   6.785   7.123   1.562 -1.2579  0.9734  1.6006
40856SOL     OW24574   0.561   3.147   6.551  0.2658  0.6346 -0.2410
40856SOL    HW124575   0.572   3.064   6.506 -0.6686 -0.5678  1.6272
40856SOL    HW224576   0.468   3.150   6.573  0.2044  2.3649 -0.5904
40857SOL     OW24577   6.173   4.381   3.349  0.0544 -0.1796  0.5892
40857SOL    HW124578   6.196   4.427   3.268  1.1142 -2.4887 -0.5141
40857SOL    HW224579   6.091   4.336   3.328  1.0437 -1.9300  0.2118
40858SOL     OW24580   3.308  11.082  10.516 -0.1379  0.1773  0.2421
40858SOL    HW124581   3.273  11.084  10.427  0.9791 -1.9470 -0.2978
40858SOL    HW224582   3.251  11.142  10.565 -1.4433  0.5762 -1.6408
40859SOL     OW24583   4.879   9.734   3.270  0.3616 -0.2995  0.0229
40859SOL    HW124584   4.787   9.711   3.282  0.4659 -0.1391  1.2017
40859SOL    HW224585   4.910   9.674   3.201 -0.1597 -1.5608  0.8543
40860SOL     OW24586   8.356   9.966   8.877 -0.1644 -0.4879 -0.1787
40860SOL    HW124587   8.324   9.984   8.789 -0.8316 -0.9447 -0.0325
40860SOL    HW224588   8.450   9.982   8.872 -0.5232  1.9222 -0.3320
40861SOL     OW24589  10.234   8.109   3.315 -0.2267  0.0661 -0.2612
40861SOL    HW124590  10.329   8.094   3.314  0.2159  2.5432 -0.3245
40861SOL    HW224591  10.198   8.033   3.268  1.7561 -0.6307 -0.7690
40862SOL     OW24592   5.713   0.320   3.614  0.0580 -0.1073 -0.1582
40862SOL    HW124593   5.653   0.394   3.627  0.2830 -0.0758  0.7896
40862SOL    HW224594   5.737   0.324   3.522  0.0900  1.0289 -0.1112
40863SOL     OW24595   6.256  10.843   2.979 -0.0183 -0.1484  0.1301
40863SOL    HW124596   6.302  10.881   2.904  1.0130 -2.2869 -0.4140
40863SOL    HW224597   6.229  10.918   3.031 -1.4407  1.4928 -2.7183
40864SOL     OW24598   8.100   5.186   0.355  0.2493  0.5172 -0.0575
40864SOL    HW124599   8.050   5.247   0.301  0.6369 -0.7206 -1.8782
40864SOL    HW224600   8.179   5.167   0.304  1.8823  1.2169  2.0587
40865SOL     OW24601   8.133   5.177   3.611 -0.1547 -0.3974 -0.2540
40865SOL    HW124602   8.070   5.147   3.675  2.9037 -2.0449  2.2528
40865SOL    HW224603   8.105   5.266   3.589 -3.2040 -1.0159  0.7226
40866SOL     OW24604   8.079   9.536   2.851  0.4887  0.1345 -0.5832
40866SOL    HW124605   7.986   9.558   2.841  0.3595 -0.7725 -1.6153
40866SOL    HW224606   8.095   9.469   2.785  2.5467  2.1762 -2.3239
40867SOL     OW24607   8.963   5.093  10.333 -0.0984  0.1334 -0.8474
40867SOL    HW124608   8.906   5.103  10.409  0.7841  1.1012 -0.2932
40867SOL    HW224609   8.904   5.098  10.258 -0.5595  3.3621 -0.4017
40868SOL     OW24610   5.528   4.223  11.004 -0.9133  0.1240  0.1471
40868SOL    HW124611   5.573   4.305  11.027 -2.9458  1.0378  1.1395
40868SOL    HW224612   5.551   4.208  10.913 -0.1103  1.5548  0.0855
40869SOL     OW24613   9.974   4.183   3.345  0.6217 -0.2390 -0.2310
40869SOL    HW124614   9.910   4.255   3.342 -1.4684 -1.9747 -3.6749
40869SOL    HW224615   9.931   4.116   3.398  0.5701 -0.5478 -0.6558
40870SOL     OW24616   1.503   6.888   1.222 -0.7724  0.3342 -0.2982
40870SOL    HW124617   1.599   6.893   1.226 -0.8108  0.5039  0.3945
40870SOL    HW224618   1.481   6.930   1.139 -0.2451  0.2723 -0.4763
40871SOL     OW24619   4.407   9.152  10.586 -0.3244  0.1335 -0.2052
40871SOL    HW124620   4.457   9.177  10.508 -0.9492  3.1436  0.2280
40871SOL    HW224621   4.439   9.210  10.655 -0.7492 -1.5185  1.4773
40872SOL     OW24622   5.633   4.172   4.160 -0.4462 -0.2091 -0.2548
40872SOL    HW124623   5.617   4.187   4.067 -1.3540  1.7236  0.1497
40872SOL    HW224624   5.567   4.225   4.204 -1.4524 -2.7563  1.5314
40873SOL     OW24625   9.183   0.533   9.587 -0.8963  0.0182  0.3618
40873SOL    HW124626   9.231   0.477   9.648  0.2621 -0.8626 -1.2899
40873SOL    HW224627   9.105   0.559   9.636 -0.8971 -2.0765  1.6054
40874SOL     OW24628  10.242   5.769   1.709 -1.0432 -0.3155 -0.5411
40874SOL    HW124629  10.257   5.792   1.617  0.6249 -2.5534 -0.9211
40874SOL    HW224630  10.328   5.741   1.741 -1.8644 -0.8855  1.2972
40875SOL     OW24631   7.276   5.279   1.486 -0.0216  0.7686  0.4628
40875SOL    HW124632   7.181   5.281   1.494  0.0457  0.1866  1.6042
40875SOL    HW224633   7.307   5.343   1.551  0.3544  1.4826 -0.3974
40876SOL     OW24634   1.295   6.049   0.368  0.6344  0.1465  0.9634
40876SOL    HW124635   1.313   6.014   0.280  0.4230  1.5967  0.3211
40876SOL    HW224636   1.381   6.055   0.409  0.8196  0.1575  0.5783
40877SOL     OW24637   6.370   7.240   3.804  0.4832  0.0346 -0.8134
40877SOL    HW124638   6.438   7.173   3.809 -0.1481 -0.5199  1.3324
40877SOL    HW224639   6.408   7.316   3.850 -0.4064 -0.3858  0.6859
40878SOL     OW24640   4.871   4.270   9.190  0.8982  1.0138  0.0718
40878SOL    HW124641   4.791   4.219   9.203  0.9557  1.0255  0.5142
40878SOL    HW224642   4.843   4.361   9.199  0.7402  1.0769 -1.0353
40879SOL     OW24643   3.072   0.357   1.759  0.1318  0.2763  0.0366
40879SOL    HW124644   3.153   0.349   1.708  0.2069 -1.0515  0.3344
40879SOL    HW224645   3.098   0.406   1.837  0.6742 -0.2399  0.1853
40880SOL     OW24646   0.147   3.461  10.057 -0.0325  0.0473  0.0609
40880SOL    HW124647   0.074   3.400  10.048  0.3933 -0.4041 -0.3796
40880SOL    HW224648   0.217   3.410  10.097  0.0813  0.4509  0.3915
40881SOL     OW24649   6.432   2.788   0.447 -0.4361 -0.4803 -0.5090
40881SOL    HW124650   6.403   2.789   0.356  1.6693 -0.7577 -1.2270
40881SOL    HW224651   6.512   2.735   0.447  0.8683  1.3393  1.0780
40882SOL     OW24652  10.750   5.460   6.428 -0.4888 -0.3869 -0.5885
40882SOL    HW124653  10.700   5.514   6.489 -1.6759 -2.6810  0.6108
40882SOL    HW224654  10.839   5.459   6.464 -1.4161 -2.7222  2.0405
40883SOL     OW24655   1.279   3.048   8.049  0.3650  0.0103 -0.1519
40883SOL    HW124656   1.271   2.998   7.968  1.3003  1.1313 -0.9712
40883SOL    HW224657   1.213   3.011   8.107 -0.0915 -1.0413 -1.3105
40884SOL     OW24658   4.798   2.986  10.571  0.1071  0.3990  0.0624
40884SOL    HW124659   4.784   3.061  10.629  0.0307 -0.1361  0.7494
40884SOL    HW224660   4.784   2.910  10.627  2.2602 -0.1606 -0.0666
40885SOL     OW24661   7.917   4.024   3.925  0.0455 -0.0251 -0.5970
40885SOL    HW124662   7.945   4.108   3.960 -0.5619 -0.0127 -0.1222
40885SOL    HW224663   7.822   4.024   3.935  0.1631 -1.4271  0.9210
40886SOL     OW24664   6.712   0.538   8.568  0.4046 -0.3787 -0.2118
40886SOL    HW124665   6.793   0.575   8.603  1.6987 -0.9856 -2.3902
40886SOL    HW224666   6.644   0.598   8.597  1.4790 -0.2973  2.3843
40887SOL     OW24667   6.537   1.306   6.264  0.1817 -0.3161 -0.1116
40887SOL    HW124668   6.544   1.344   6.177  1.8707  0.6453  0.4005
40887SOL    HW224669   6.465   1.243   6.257  0.9249 -1.0107 -2.4724
40888SOL     OW24670   9.794   8.271   6.465 -0.4689 -0.0237 -0.8199
40888SOL    HW124671   9.786   8.340   6.532 -1.4522  2.7597 -3.5693
40888SOL    HW224672   9.723   8.210   6.487 -1.3416  1.2742  0.2075
40889SOL     OW24673   5.108   3.311   5.468 -0.4462 -0.6634 -0.0167
40889SOL    HW124674   5.028   3.273   5.434 -0.5786 -1.7703  1.4339
40889SOL    HW224675   5.105   3.403   5.442 -2.9371 -0.3005  1.2791
40890SOL     OW24676   8.014   4.678   0.391 -0.5180  0.1678 -0.5810
40890SOL    HW124677   7.926   4.645   0.412 -0.9967  0.7093 -1.6520
40890SOL    HW224678   8.019   4.763   0.435 -0.8329  0.4822 -1.1380
40891SOL     OW24679   6.578   8.239   7.655  0.3571 -0.1767 -0.3141
40891SOL    HW124680   6.578   8.269   7.746  2.0379  1.2417 -0.7169
40891SOL    HW224681   6.494   8.195   7.644 -0.1291  0.1219  1.7544
40892SOL     OW24682   2.982   0.982   3.020 -0.0407 -0.7573 -0.5051
40892SOL    HW124683   3.028   0.930   2.954  0.6155 -0.8169 -0.0058
40892SOL    HW224684   2.909   1.022   2.972  0.5247 -0.6636 -1.3077
40893SOL     OW24685   8.326   6.755   4.336 -0.2969  0.0359 -0.1656
40893SOL    HW124686   8.318   6.665   4.305  2.2401  0.0437 -1.0348
40893SOL    HW224687   8.250   6.767   4.393 -1.9753 -1.8654 -1.8435
40894SOL     OW24688  10.586  10.064   9.034  0.6167  0.1595  0.1208
40894SOL    HW124689  10.514  10.124   9.054  0.8586  0.1595  1.0671
40894SOL    HW224690  10.644  10.113   8.976  1.1990  1.1442  1.4830
40895SOL     OW24691   5.078   9.061   8.734  0.3169 -0.0341  0.3020
40895SOL    HW124692   5.030   9.048   8.653  2.1139 -1.3208 -0.6492
40895SOL    HW224693   5.031   9.009   8.799 -0.3237 -0.1747 -0.2658
40896SOL     OW24694   3.201   2.341   4.142 -0.1716 -0.3781 -0.3272
40896SOL    HW124695   3.247   2.416   4.179  1.6850 -1.3585 -0.4645
40896SOL    HW224696   3.125   2.377   4.098  1.8134  1.7358 -2.3131
40897SOL     OW24697   6.650   6.646   8.244  0.4109 -0.6804  0.1872
40897SOL    HW124698   6.603   6.578   8.292 -1.2681 -0.9866 -1.7259
40897SOL    HW224699   6.665   6.607   8.157 -2.0178  1.8173 -1.5240
40898SOL     OW24700   8.382   0.348   9.476  0.4024 -0.3013 -0.3672
40898SOL    HW124701   8.312   0.411   9.460  1.7788  1.5540  0.5811
40898SOL    HW224702   8.404   0.314   9.389 -0.8275 -0.0020 -0.8103
40899SOL     OW24703   6.957   3.634   7.542 -0.7607  0.3547 -0.0123
40899SOL    HW124704   6.990   3.573   7.475  1.9763  0.2080  1.3518
40899SOL    HW224705   6.866   3.608   7.554  0.1364 -3.2723  0.1751
40900SOL     OW24706   4.753   7.820   4.219 -0.2107  0.1727  0.0537
40900SOL    HW124707   4.669   7.866   4.221 -0.8893 -0.9669 -1.0153
40900SOL    HW224708   4.815   7.884   4.183 -0.1680  1.6358  2.4963
40901SOL     OW24709  10.084   2.173  10.452  0.0568  0.0244  0.4033
40901SOL    HW124710  10.026   2.218  10.390 -1.5216 -1.2050  0.8901
40901SOL    HW224711  10.152   2.134  10.398  0.2370  1.2186 -0.2431
40902SOL     OW24712   5.694  10.649   5.377 -0.1059  0.4837  0.3741
40902SOL    HW124713   5.716  10.727   5.327 -1.6898  2.4725  2.5309
40902SOL    HW224714   5.600  10.656   5.392 -0.1890 -1.5582  1.1249
40903SOL     OW24715   2.503   9.916   1.675  0.0790  0.1967  0.0900
40903SOL    HW124716   2.513   9.992   1.732  0.9702  1.4366 -1.6144
40903SOL    HW224717   2.525   9.949   1.587  1.1536 -2.1898 -0.6167
40904SOL     OW24718   2.961   7.390   2.115  0.3901 -0.3603  0.8560
40904SOL    HW124719   2.921   7.461   2.064  0.4562  0.2644  1.6612
40904SOL    HW224720   2.895   7.321   2.113 -0.5823  0.4965  1.7918
40905SOL     OW24721  10.843   7.428   3.979 -0.7114 -0.4492  0.5975
40905SOL    HW124722  10.783   7.399   4.047 -1.7927  0.4197  0.0538
40905SOL    HW224723  10.802   7.507   3.943  1.7329  1.3496  1.5291
40906SOL     OW24724   3.832   5.011   3.704 -0.3375  0.1651  0.4224
40906SOL    HW124725   3.798   5.090   3.664  0.7204 -0.0563 -0.9815
40906SOL    HW224726   3.790   5.007   3.790  0.1473  2.6244  0.8254
40907SOL     OW24727   6.587   1.574   7.200 -0.2959 -0.1903  0.2263
40907SOL    HW124728   6.505   1.602   7.241  0.9316 -0.1727  2.7919
40907SOL    HW224729   6.564   1.492   7.155 -1.5250 -0.7498  1.7782
40908SOL     OW24730   9.779   6.211   9.488  0.0199  0.4339 -0.5409
40908SOL    HW124731   9.705   6.271   9.501  0.2340  1.5454 -3.4878
40908SOL    HW224732   9.744   6.143   9.430  0.4468 -1.0166  0.8426
40909SOL     OW24733   6.180  10.420   8.767 -0.6085  0.1876 -0.1399
40909SOL    HW124734   6.126  10.439   8.690 -2.7388  3.0807  1.8583
40909SOL    HW224735   6.242  10.493   8.773 -0.7695  0.2502  1.0912
40910SOL     OW24736   3.987   3.167   8.401  0.1622  0.1709 -0.0563
40910SOL    HW124737   4.073   3.191   8.367  0.3456 -1.2701 -0.6645
40910SOL    HW224738   3.931   3.161   8.324 -0.6071  1.4631  0.3623
40911SOL     OW24739  10.758   3.648   3.223 -0.7789 -0.3858  0.1207
40911SOL    HW124740  10.731   3.660   3.313 -2.5150  1.7246 -0.5975
40911SOL    HW224741  10.825   3.716   3.209  0.6504 -1.7121  0.1981
40912SOL     OW24742   8.927   2.237   7.398  0.3691  0.1449 -0.3018
40912SOL    HW124743   8.974   2.166   7.355 -2.7951 -1.2069 -1.9042
40912SOL    HW224744   8.995   2.300   7.423  3.0809 -2.3519 -0.8700
40913SOL     OW24745   6.643   8.301   0.796 -0.0640  0.4734  0.1479
40913SOL    HW124746   6.707   8.341   0.737 -2.5785  1.4448 -2.1342
40913SOL    HW224747   6.604   8.375   0.842 -2.1278  0.4237 -1.3501
40914SOL     OW24748  10.584   1.314   9.967  0.2537 -0.0286 -0.1317
40914SOL    HW124749  10.507   1.352   9.924 -1.0508 -0.5826  1.6188
40914SOL    HW224750  10.585   1.223   9.937  2.4485  0.7966 -3.0473
40915SOL     OW24751   2.961   7.296   7.909  0.7825 -0.6455 -0.3248
40915SOL    HW124752   2.970   7.391   7.901 -2.3294 -0.2872 -0.9404
40915SOL    HW224753   2.882   7.283   7.961  1.0402 -2.9077 -0.3678
40916SOL     OW24754   6.293   4.884   1.972 -0.4214  0.3899  0.2344
40916SOL    HW124755   6.355   4.827   1.926 -0.9210 -0.3161  0.4087
40916SOL    HW224756   6.330   4.972   1.965 -0.2385  0.2194 -1.0633
40917SOL     OW24757   8.341   5.091   6.055 -0.1750  0.0546  0.1719
40917SOL    HW124758   8.365   5.104   5.963 -0.2666 -1.1864 -0.0478
40917SOL    HW224759   8.254   5.130   6.062 -1.9390 -3.1987 -1.3215
40918SOL     OW24760   9.383   6.465   9.108  0.0387 -0.7746 -0.7907
40918SOL    HW124761   9.356   6.374   9.124  0.9876 -1.2114 -1.5482
40918SOL    HW224762   9.340   6.489   9.026 -1.6282  0.0927  0.2908
40919SOL     OW24763  10.372   7.317   9.607  0.4738  0.5787  0.6308
40919SOL    HW124764  10.292   7.356   9.571  0.0180 -1.9430 -1.4228
40919SOL    HW224765  10.343   7.237   9.651  1.7313  0.1565  0.7459
40920SOL     OW24766   0.789   7.336   9.531  0.0872 -0.1713 -0.3468
40920SOL    HW124767   0.795   7.418   9.482 -1.3209  0.5309  0.5881
40920SOL    HW224768   0.708   7.344   9.581 -0.1665 -2.2042 -0.3383
40921SOL     OW24769   4.581   8.699  10.242  0.4900 -0.1695  0.8278
40921SOL    HW124770   4.676   8.690  10.249  0.3748 -1.6566  1.0281
40921SOL    HW224771   4.567   8.772  10.183  1.7670 -0.0792  0.6145
40922SOL     OW24772   3.114  10.911  10.708 -0.0672 -0.1454 -0.1300
40922SOL    HW124773   3.047  10.942  10.647  0.3993  1.0577 -0.0630
40922SOL    HW224774   3.136  10.823  10.677 -0.0536  0.3244 -1.5376
40923SOL     OW24775   3.685   9.694   0.330 -0.3080 -0.1331  0.6372
40923SOL    HW124776   3.750   9.624   0.314 -0.4689 -0.3574  0.9525
40923SOL    HW224777   3.670   9.690   0.425 -2.9906 -2.0654  0.2346
40924SOL     OW24778   4.313   2.388   7.967 -0.3613  0.1780  0.2728
40924SOL    HW124779   4.360   2.458   8.013 -0.7335  0.2603  0.5330
40924SOL    HW224780   4.370   2.366   7.893 -0.2680  0.7961  0.1515
40925SOL     OW24781  10.848   4.706   6.399  0.7293 -0.0160 -0.6161
40925SOL    HW124782  10.835   4.651   6.476  0.8327  0.6372 -0.1135
40925SOL    HW224783  10.939   4.691   6.374  0.8691  0.2045 -0.2507
40926SOL     OW24784   8.625   2.485   9.262  0.7550  0.1591  0.2352
40926SOL    HW124785   8.625   2.558   9.201  1.1464  0.2111  0.2960
40926SOL    HW224786   8.537   2.448   9.256  2.1115 -3.1984 -4.4160
40927SOL     OW24787   1.406   9.654   5.476  0.4810  0.1681 -0.2579
40927SOL    HW124788   1.444   9.682   5.392  0.0910 -1.6681 -1.0890
40927SOL    HW224789   1.327   9.606   5.452 -1.1797  1.9140  1.3259
40928SOL     OW24790   2.292  10.505   5.165  0.1086  0.0699  0.2852
40928SOL    HW124791   2.350  10.466   5.231  2.0468  0.9688 -0.8072
40928SOL    HW224792   2.236  10.564   5.215  1.7524  0.9771  1.1195
40929SOL     OW24793   5.098   3.586   5.917 -0.6825 -0.0490 -0.2859
40929SOL    HW124794   5.111   3.565   6.009  0.7508 -1.1654 -0.7032
40929SOL    HW224795   5.136   3.511   5.869 -2.4018 -0.0471 -1.7818
40930SOL     OW24796   1.251   1.689   7.739  0.1286 -0.4129  0.1801
40930SOL    HW124797   1.245   1.607   7.789  0.2975 -0.3876  0.2413
40930SOL    HW224798   1.343   1.694   7.713 -0.1503 -0.9376 -0.9928
40931SOL     OW24799   7.695   3.166   3.995  0.3839  0.0472  0.3564
40931SOL    HW124800   7.615   3.197   3.952  0.1014 -1.0931  0.0449
40931SOL    HW224801   7.714   3.082   3.954  2.7381  1.0631 -0.8307
40932SOL     OW24802   2.279   0.608   1.085 -0.5080 -0.3568 -0.3929
40932SOL    HW124803   2.229   0.687   1.062  1.2453  0.7437 -0.6105
40932SOL    HW224804   2.263   0.548   1.013  0.5430  0.9869 -1.8223
40933SOL     OW24805   5.383   3.782   7.736  0.3017 -0.7568 -0.0448
40933SOL    HW124806   5.390   3.868   7.779  1.0477 -0.3002 -1.0280
40933SOL    HW224807   5.408   3.799   7.645 -2.7279 -1.3820 -1.0962
40934SOL     OW24808   7.964   9.281  10.132 -0.0729 -0.4230  0.7125
40934SOL    HW124809   7.923   9.338  10.066  1.1058 -1.3036 -0.8635
40934SOL    HW224810   7.891   9.235  10.173 -0.9099  0.8611  0.7150
40935SOL     OW24811   4.204   2.428   3.710 -0.2254 -0.6412  0.1309
40935SOL    HW124812   4.259   2.504   3.728  0.3512 -1.1945  0.7725
40935SOL    HW224813   4.178   2.396   3.796 -3.6270  1.0210 -0.1082
40936SOL     OW24814   8.063   0.013   6.313 -0.1874 -0.4710  0.1471
40936SOL    HW124815   8.136   0.031   6.373 -1.3800  1.3261  1.1286
40936SOL    HW224816   7.995  -0.024   6.368 -0.6191 -0.6053 -0.4655
40937SOL     OW24817   4.705   4.226   3.018  0.4721 -0.7824  0.3428
40937SOL    HW124818   4.774   4.200   2.957 -0.7410 -1.8119 -0.6516
40937SOL    HW224819   4.673   4.144   3.055 -0.3269 -0.3464  0.6650
40938SOL     OW24820   0.221   7.767   4.262  0.8706  0.0705 -0.2115
40938SOL    HW124821   0.161   7.727   4.326  0.7610  0.6143  0.0254
40938SOL    HW224822   0.217   7.860   4.281 -0.3030  0.4141 -1.9648
40939SOL     OW24823   2.427  10.390  10.110  0.0643 -0.0786 -0.6915
40939SOL    HW124824   2.439  10.348  10.195  1.0032  0.4585 -0.5456
40939SOL    HW224825   2.453  10.323  10.046 -2.2554 -1.0872 -0.6795
40940SOL     OW24826  10.632   9.980   5.633  0.4726  0.0646  0.3456
40940SOL    HW124827  10.565   9.968   5.566  2.1774 -1.7661 -1.1505
40940SOL    HW224828  10.715   9.984   5.585  1.5926  1.0692  2.2030
40941SOL     OW24829   0.352   1.268  10.422  0.0026  0.4530 -0.4706
40941SOL    HW124830   0.400   1.310  10.493 -1.3845  0.9349  0.2202
40941SOL    HW224831   0.408   1.196  10.394  0.2402 -0.2298  1.6416
40942SOL     OW24832   9.455   6.365   1.495  0.4408 -0.2676 -0.9823
40942SOL    HW124833   9.516   6.427   1.455 -0.4465  0.8753 -0.6231
40942SOL    HW224834   9.372   6.381   1.450 -0.4300  0.6149  0.8357
40943SOL     OW24835   3.198   3.273   6.157  0.5424 -0.0292  0.1064
40943SOL    HW124836   3.170   3.223   6.234  1.0446 -0.0414  0.2832
40943SOL    HW224837   3.214   3.361   6.190  0.5950  0.0082 -0.0193
40944SOL     OW24838   8.441   4.548  11.035  0.6363 -0.0728 -0.3550
40944SOL    HW124839   8.374   4.516  10.975 -0.1125  2.0424 -0.7495
40944SOL    HW224840   8.447   4.481  11.103 -0.9423 -0.9279 -1.0192
40945SOL     OW24841   4.712   6.129   0.127  0.3037 -0.4107  0.2672
40945SOL    HW124842   4.701   6.130   0.222  0.8182 -0.2149  0.3263
40945SOL    HW224843   4.623   6.117   0.093  0.2852 -2.2272  0.8012
40946SOL     OW24844   8.046  10.480   8.802 -0.6948 -0.5314 -0.7886
40946SOL    HW124845   8.127  10.506   8.847 -0.8401  0.0892 -0.8813
40946SOL    HW224846   8.005  10.418   8.862 -2.1052  2.0747  1.1591
40947SOL     OW24847   6.642   1.249  10.631 -0.4067 -0.1311 -1.0188
40947SOL    HW124848   6.703   1.323  10.627  2.2293 -2.1207 -0.7355
40947SOL    HW224849   6.661   1.198  10.552 -1.5815 -0.9269 -0.8108
40948SOL     OW24850   3.876   0.636   0.046 -0.0380  0.1896  0.7228
40948SOL    HW124851   3.909   0.726   0.040  0.9490 -0.1396  0.9936
40948SOL    HW224852   3.783   0.646   0.067  0.7431  1.1760  4.5579
40949SOL     OW24853  11.061   3.961   8.920 -0.0662  0.6480  0.4258
40949SOL    HW124854  11.137   3.994   8.968 -0.7347  0.7839  1.4108
40949SOL    HW224855  11.082   3.978   8.828  1.1659  0.5202  0.6685
40950SOL     OW24856  10.885   4.559   0.084 -0.0226  0.4529 -0.3064
40950SOL    HW124857  10.953   4.532   0.022 -0.3440  1.5890 -1.1892
40950SOL    HW224858  10.837   4.479   0.104  2.7551 -0.8191  1.8961
40951SOL     OW24859   8.533   5.458   9.474  0.2899 -0.0595 -0.0011
40951SOL    HW124860   8.557   5.383   9.528 -1.6702  0.3238  1.5361
40951SOL    HW224861   8.533   5.532   9.535  1.0537  0.9865 -1.2286
40952SOL     OW24862   4.027   6.444   2.029  1.1511 -0.3224 -0.1417
40952SOL    HW124863   4.096   6.508   2.010  0.8115 -0.4391 -2.0032
40952SOL    HW224864   4.059   6.363   1.989  1.7719 -1.4974  2.5549
40953SOL     OW24865   8.971   0.307   3.790  0.0318  0.3212 -0.7627
40953SOL    HW124866   8.943   0.308   3.698  0.3500  2.1762 -0.8646
40953SOL    HW224867   8.895   0.341   3.838  0.4712  0.9986 -0.5403
40954SOL     OW24868   1.326   1.597   6.780 -1.1684 -0.1605  0.4067
40954SOL    HW124869   1.375   1.678   6.764 -2.2241  0.4225  0.0871
40954SOL    HW224870   1.393   1.528   6.778  0.0280  0.8443  2.3953
40955SOL     OW24871   3.749   9.761   9.819 -0.5006  0.4214  0.3908
40955SOL    HW124872   3.702   9.844   9.822 -0.0926  0.9611 -3.5004
40955SOL    HW224873   3.683   9.697   9.793 -0.2732 -0.0019  0.8398
40956SOL     OW24874   4.630   4.269   7.632  0.2404 -0.3548  0.3015
40956SOL    HW124875   4.658   4.354   7.597  1.7898 -0.9527 -0.0225
40956SOL    HW224876   4.551   4.288   7.681 -0.4553  0.9870 -1.2287
40957SOL     OW24877   4.785   3.796   3.980  0.1537 -0.3306  0.2607
40957SOL    HW124878   4.716   3.856   3.953 -1.4281 -1.4648  1.5752
40957SOL    HW224879   4.836   3.781   3.900  0.9825  3.1088  0.0119
40958SOL     OW24880   5.769   9.273   5.850  0.8623 -0.1368  0.1749
40958SOL    HW124881   5.783   9.289   5.944 -2.8244  0.4561  0.7460
40958SOL    HW224882   5.712   9.197   5.846  3.2996 -2.0665 -1.8610
40959SOL     OW24883   3.957   4.645   3.782  0.5960 -0.5083 -0.7064
40959SOL    HW124884   4.010   4.650   3.703 -1.3587 -0.9943 -2.1252
40959SOL    HW224885   3.870   4.619   3.751  0.1887 -2.4842  1.7925
40960SOL     OW24886   3.811   0.489  10.404 -0.0199  0.2373 -0.1014
40960SOL    HW124887   3.733   0.510  10.456  1.0483  0.7146  1.4037
40960SOL    HW224888   3.839   0.404  10.437 -1.1837 -1.1013 -2.3095
40961SOL     OW24889   1.001   1.020   9.027  0.1118 -0.3925 -0.2430
40961SOL    HW124890   1.057   0.970   8.967  0.8296  0.4973 -0.3336
40961SOL    HW224891   0.963   1.088   8.972  1.1865  0.7604  0.3944
40962SOL     OW24892   2.592  11.070   6.246 -0.6912  0.0293  0.6492
40962SOL    HW124893   2.580  11.043   6.337  0.1669 -0.8450  0.5234
40962SOL    HW224894   2.678  11.111   6.244 -1.1709  1.0565  0.4394
40963SOL     OW24895  10.508   7.709   1.410 -0.3318  0.1729  0.7851
40963SOL    HW124896  10.466   7.653   1.345  1.9676  0.9693 -1.5727
40963SOL    HW224897  10.441   7.773   1.434 -1.3744 -0.4025 -0.4921
40964SOL     OW24898   9.708   1.704   2.770  0.1375 -0.8940  0.2570
40964SOL    HW124899   9.699   1.798   2.780 -0.5143 -0.8312 -0.7517
40964SOL    HW224900   9.797   1.691   2.738  0.6840 -0.7496  1.6474
40965SOL     OW24901   6.876   0.967  10.088  0.1958 -0.3392 -0.3924
40965SOL    HW124902   6.840   0.962  10.176  0.5163  1.0872 -0.1513
40965SOL    HW224903   6.855   0.882  10.048 -2.2503 -0.0762  0.1621
40966SOL     OW24904   2.977   9.032   2.059  0.0574 -0.2532 -0.9415
40966SOL    HW124905   2.935   9.093   2.119 -1.2312 -0.3203 -1.7374
40966SOL    HW224906   3.069   9.029   2.088  0.0845  1.7879 -0.6820
40967SOL     OW24907   2.296   5.038   1.362  0.0472  0.2505 -0.1572
40967SOL    HW124908   2.204   5.045   1.390  0.0894  3.2520 -0.4306
40967SOL    HW224909   2.292   5.028   1.267  0.0282 -1.3130 -0.0168
40968SOL     OW24910   8.760   2.770   8.301 -0.1847 -0.0035  0.2180
40968SOL    HW124911   8.849   2.751   8.270 -0.1676  0.1045  0.1999
40968SOL    HW224912   8.767   2.857   8.341 -0.5998  0.6977 -1.1459
40969SOL     OW24913   1.745   4.620   8.875 -0.1119 -0.4123  0.5916
40969SOL    HW124914   1.829   4.582   8.850  0.8668  1.9823 -0.0191
40969SOL    HW224915   1.682   4.584   8.813  0.9617 -0.2370 -0.6339
40970SOL     OW24916   8.718  10.390   8.242 -0.6347 -0.3327 -0.0079
40970SOL    HW124917   8.763  10.422   8.320  0.8754  0.4807 -1.1737
40970SOL    HW224918   8.657  10.460   8.220 -1.6296 -0.8934  0.8415
40971SOL     OW24919   4.073   2.403   0.930 -1.2268 -0.7354  0.0740
40971SOL    HW124920   4.038   2.319   0.899 -2.1049  0.3534 -2.0981
40971SOL    HW224921   4.095   2.450   0.850  0.7413  0.5311  1.2933
40972SOL     OW24922   5.171   2.244   9.003  0.4069  0.3292  0.1381
40972SOL    HW124923   5.123   2.266   8.924  1.2450 -0.1767 -0.5242
40972SOL    HW224924   5.172   2.149   9.006  1.1080  0.3314  0.2890
40973SOL     OW24925   0.847  10.946   9.946  0.2139  0.2035 -0.1039
40973SOL    HW124926   0.835  11.041   9.949 -1.2352  0.0002  1.4592
40973SOL    HW224927   0.837  10.917  10.036  1.6405 -1.3551 -0.3972
40974SOL     OW24928   6.209   6.681  10.197  0.6814 -0.3053  0.1628
40974SOL    HW124929   6.302   6.661  10.185  0.7210  0.2242 -0.5185
40974SOL    HW224930   6.165   6.623  10.135  0.6664  0.3966 -0.5010
40975SOL     OW24931   3.560   6.547   8.943 -0.0974  0.3152 -0.3862
40975SOL    HW124932   3.468   6.542   8.972  0.3880  1.9102  1.6115
40975SOL    HW224933   3.585   6.638   8.956  1.5328  0.1307 -1.8388
40976SOL     OW24934   3.532   6.739   3.272  0.3195 -0.5589 -0.2541
40976SOL    HW124935   3.505   6.827   3.246  1.1094 -0.3612 -0.4128
40976SOL    HW224936   3.450   6.690   3.277 -0.0780  0.0438 -0.6933
40977SOL     OW24937  10.513   0.624   0.686 -0.6384  0.2372 -0.1364
40977SOL    HW124938  10.470   0.708   0.702 -1.5065 -0.0884 -0.7382
40977SOL    HW224939  10.588   0.624   0.746  0.0237  1.9062 -0.9027
40978SOL     OW24940   1.285   3.561   1.291  0.4264 -0.1220 -0.5118
40978SOL    HW124941   1.257   3.540   1.202 -3.1330 -0.6393  0.5887
40978SOL    HW224942   1.272   3.656   1.298  0.6620 -0.0893 -0.4896
40979SOL     OW24943   4.525   5.663   1.367  0.1492 -0.6488  0.4956
40979SOL    HW124944   4.446   5.652   1.314 -0.8022  2.2826  1.0958
40979SOL    HW224945   4.495   5.651   1.457  0.9214 -1.7915  0.6151
40980SOL     OW24946   6.732  10.406   9.493 -0.0610  0.0047 -0.8629
40980SOL    HW124947   6.649  10.408   9.446 -1.0413  3.3065  0.6873
40980SOL    HW224948   6.790  10.464   9.442  0.7508 -0.9373 -1.0279
40981SOL     OW24949   9.483   3.970   9.297  0.1304 -0.1359 -0.2454
40981SOL    HW124950   9.515   4.051   9.336  1.1019 -0.4141 -0.4378
40981SOL    HW224951   9.437   3.997   9.218  0.1802  0.2441 -0.1441
40982SOL     OW24952   7.888   6.018  10.151 -0.4465  0.5224  0.1223
40982SOL    HW124953   7.902   5.928  10.182  2.0418  0.9949  0.5639
40982SOL    HW224954   7.938   6.023  10.070 -0.7211  1.4581  0.0027
40983SOL     OW24955  10.988   8.569   4.866  0.4489 -0.3763  0.0772
40983SOL    HW124956  11.018   8.659   4.877  0.2555 -0.5318  2.3235
40983SOL    HW224957  11.054   8.528   4.809  2.1806  0.4109  1.4305
40984SOL     OW24958   9.175   1.764   1.546 -0.3246 -0.9247 -0.0217
40984SOL    HW124959   9.175   1.670   1.565  0.7288 -1.2156 -1.3397
40984SOL    HW224960   9.262   1.794   1.572 -0.3081 -0.5144 -0.5371
40985SOL     OW24961   9.874   1.475   7.239 -0.3107  0.1634 -0.3462
40985SOL    HW124962   9.873   1.388   7.278 -0.8223  0.2702 -0.1144
40985SOL    HW224963   9.819   1.467   7.161  0.4551  0.0281 -0.8816
40986SOL     OW24964   5.994   3.653   1.489 -0.4477  0.5687  0.3122
40986SOL    HW124965   5.913   3.692   1.457  1.3680  2.6085 -2.3378
40986SOL    HW224966   6.045   3.727   1.522  0.2520 -0.7124  2.3133
40987SOL     OW24967   4.413   3.571   1.628 -0.4979 -0.0735 -0.2712
40987SOL    HW124968   4.435   3.497   1.572  0.0773 -0.5226  0.5246
40987SOL    HW224969   4.452   3.550   1.713  2.1793  2.3923 -0.7223
40988SOL     OW24970   4.218  11.054   5.032 -0.1954 -0.5476  0.4016
40988SOL    HW124971   4.243  11.012   4.950 -0.4778  0.7699 -0.3854
40988SOL    HW224972   4.280  11.020   5.096  0.9263 -0.5450 -0.6471
40989SOL     OW24973   7.968   6.756   6.595  0.2599 -0.2149  0.5705
40989SOL    HW124974   8.030   6.690   6.624  0.1730 -0.2694  0.6290
40989SOL    HW224975   7.900   6.707   6.548 -0.1964 -0.2467  1.2608
40990SOL     OW24976   4.126   4.316   4.525 -0.0417  0.2349  0.3214
40990SOL    HW124977   4.151   4.235   4.480  0.7991  1.7129 -2.0149
40990SOL    HW224978   4.150   4.386   4.464 -1.2899  2.2386  2.0141
40991SOL     OW24979  10.817   9.995   5.093  0.7214  0.6977 -0.0079
40991SOL    HW124980  10.800  10.050   5.017  0.2366  0.5816  0.0182
40991SOL    HW224981  10.861  10.054   5.155 -0.9861  1.4513  0.5509
40992SOL     OW24982   0.664   3.715   8.211 -0.3141 -0.2944  0.2557
40992SOL    HW124983   0.653   3.768   8.133 -1.8033  0.7341  1.1038
40992SOL    HW224984   0.757   3.691   8.212  0.4919  2.5014 -0.0522
40993SOL     OW24985  10.599   8.918   5.923 -0.2605 -0.0400 -0.6227
40993SOL    HW124986  10.543   8.994   5.905  0.1268  0.6476  0.9217
40993SOL    HW224987  10.540   8.843   5.918 -1.0968  0.5667 -0.1495
40994SOL     OW24988   6.001   3.628   9.589  0.5935  0.4898  0.8465
40994SOL    HW124989   5.958   3.705   9.626  1.8668  1.5696  0.1574
40994SOL    HW224990   5.940   3.595   9.523 -0.3303  0.3776  1.7370
40995SOL     OW24991   3.918   0.019   0.166 -0.1657 -0.7222  0.9092
40995SOL    HW124992   3.936  -0.055   0.108 -1.1421  1.0514 -1.9106
40995SOL    HW224993   4.003   0.042   0.202  0.9426 -0.7431 -1.4661
40996SOL     OW24994   5.399  10.924   0.171 -0.2077 -0.5216 -0.2473
40996SOL    HW124995   5.330  10.972   0.215  0.5769  2.2145 -1.7558
40996SOL    HW224996   5.469  10.988   0.158  1.2184 -2.2582 -1.8313
40997SOL     OW24997   6.798   9.931   4.963  0.7526 -0.3327  0.8049
40997SOL    HW124998   6.853   9.856   4.983  1.4819 -0.7940 -2.3508
40997SOL    HW224999   6.708   9.898   4.969  1.0361 -1.1852  0.4806
40998SOL     OW25000   6.039   5.612   7.129  0.0821  0.8581 -0.2414
40998SOL    HW125001   5.945   5.608   7.143  0.0544 -0.4276 -0.6674
40998SOL    HW225002   6.077   5.579   7.211  0.2813  3.6435  0.8906
40999SOL     OW25003   5.314   5.982   1.012 -0.2898  0.3826  0.2057
40999SOL    HW125004   5.238   5.955   1.064  0.4125 -1.8523  0.1613
40999SOL    HW225005   5.313   5.923   0.937  0.5844  1.4264 -0.6608
41000SOL     OW25006   9.896   8.845   0.947  0.1756 -0.6214 -0.4387
41000SOL    HW125007   9.918   8.833   0.855 -1.0891  1.5854 -1.1115
41000SOL    HW225008   9.951   8.919   0.975 -0.9108  0.0633 -0.0453
41001SOL     OW25009   0.894   3.768   3.293  0.3291  0.1549  0.0599
41001SOL    HW125010   0.935   3.823   3.226 -0.1823  0.5264  0.0463
41001SOL    HW225011   0.897   3.820   3.373  1.4904 -0.5286  0.4875
41002SOL     OW25012   0.737   5.542   4.703 -0.0307 -0.2497  0.3796
41002SOL    HW125013   0.770   5.481   4.768 -2.4968 -1.3468  0.6924
41002SOL    HW225014   0.670   5.493   4.655 -0.1369  1.3537 -1.2288
41003SOL     OW25015  11.043   8.473   2.251 -0.0987 -0.5017  0.1149
41003SOL    HW125016  11.008   8.403   2.196  1.3032 -0.3699 -1.0015
41003SOL    HW225017  11.040   8.551   2.195 -0.5334  0.0732  0.9292
41004SOL     OW25018   6.730   1.484   8.470 -0.0428 -0.4918 -0.4348
41004SOL    HW125019   6.724   1.466   8.377  2.0050 -0.6090 -0.5895
41004SOL    HW225020   6.683   1.566   8.482  0.1486 -0.1843 -1.6821
41005SOL     OW25021   2.621   0.451   1.941  0.1887 -0.1928  0.1309
41005SOL    HW125022   2.649   0.542   1.951  2.7111 -0.8713  0.0048
41005SOL    HW225023   2.592   0.445   1.850 -0.0757  0.4986  0.1627
41006SOL     OW25024   2.153   4.272   2.369 -0.0075  0.1681  0.5846
41006SOL    HW125025   2.187   4.195   2.416  0.7322  0.7969  1.1195
41006SOL    HW225026   2.058   4.264   2.375  0.0352 -1.1094 -0.0488
41007SOL     OW25027   0.765   3.224   4.607  0.0445  0.5662 -0.0022
41007SOL    HW125028   0.709   3.255   4.537 -0.0234 -0.6788 -0.5301
41007SOL    HW225029   0.799   3.139   4.576  0.1137  0.0386  1.4001
41008SOL     OW25030   5.603   8.849   7.621 -0.3544  0.2106  0.4862
41008SOL    HW125031   5.604   8.777   7.683 -4.5339  2.1847  3.3636
41008SOL    HW225032   5.562   8.813   7.542 -1.2656 -0.9013  1.4383
41009SOL     OW25033   7.044   4.918   8.635  0.0925 -0.8647  0.4113
41009SOL    HW125034   7.028   4.843   8.692  3.3316 -1.1919  1.0573
41009SOL    HW225035   7.014   4.889   8.548 -2.8699 -1.1429  1.4036
41010SOL     OW25036   2.687   4.823   6.649  0.2917  0.2348  0.5049
41010SOL    HW125037   2.761   4.807   6.708 -0.0066  1.9594  1.4224
41010SOL    HW225038   2.615   4.774   6.687 -0.0908  1.9092  2.0800
41011SOL     OW25039   2.600  10.524   3.885 -0.2669  0.0270 -0.1040
41011SOL    HW125040   2.505  10.520   3.892 -0.1687 -3.4575  1.1581
41011SOL    HW225041   2.623  10.450   3.828  1.6601  1.4061 -1.2181
41012SOL     OW25042   1.078   4.142   3.060 -0.1100 -0.1592 -0.2710
41012SOL    HW125043   1.097   4.052   3.087 -0.2081 -0.9331 -2.5623
41012SOL    HW225044   0.985   4.141   3.036  0.1283  0.2669 -1.2569
41013SOL     OW25045   4.294   9.065   8.908  0.0977 -0.7699 -0.1050
41013SOL    HW125046   4.284   9.158   8.888  1.3960 -0.4738  0.4722
41013SOL    HW225047   4.355   9.032   8.842  1.0725 -0.7680  0.7661
41014SOL     OW25048   6.652   6.487   9.173  0.2433 -0.0449 -0.3121
41014SOL    HW125049   6.617   6.498   9.085 -0.7126 -3.0273 -0.4259
41014SOL    HW225050   6.576   6.495   9.230  0.4824 -0.2095  0.0339
41015SOL     OW25051   7.296   9.881   3.803 -0.2468 -0.1410 -0.0046
41015SOL    HW125052   7.299   9.843   3.715  0.5067 -0.6331  0.2186
41015SOL    HW225053   7.388   9.898   3.824 -0.3082 -1.0203  1.0994
41016SOL     OW25054   2.703   1.974   0.265 -0.6948  0.1747 -0.2922
41016SOL    HW125055   2.620   1.928   0.253 -0.3348  0.0279 -2.6138
41016SOL    HW225056   2.766   1.925   0.213  0.5466  1.1490  0.2261
41017SOL     OW25057   8.994   3.615   7.249  0.4264  0.4290 -0.1577
41017SOL    HW125058   8.972   3.649   7.335  0.8712 -0.6415  0.3983
41017SOL    HW225059   8.979   3.520   7.256 -1.4910  0.5368 -1.8617
41018SOL     OW25060  10.710   6.482   6.864  0.0573 -0.0861 -0.9707
41018SOL    HW125061  10.733   6.416   6.798  0.7856 -0.6588 -0.1685
41018SOL    HW225062  10.792   6.497   6.912 -0.5351  0.0766  0.0129
41019SOL     OW25063   5.380   9.157   8.135 -0.0385 -0.2857 -0.0569
41019SOL    HW125064   5.354   9.125   8.222  0.3440 -0.0256  0.1566
41019SOL    HW225065   5.460   9.207   8.151 -1.1668  1.6775 -0.2219
41020SOL     OW25066   9.594   2.900   3.725  0.4660  0.3835 -0.5320
41020SOL    HW125067   9.562   2.884   3.814 -0.7894 -2.0537 -1.3241
41020SOL    HW225068   9.665   2.962   3.736  0.8646 -0.4266  2.2677
41021SOL     OW25069   2.837  10.701   8.054  0.9536 -1.1455  0.2747
41021SOL    HW125070   2.910  10.677   8.111 -0.3428 -0.0055  2.4973
41021SOL    HW225071   2.845  10.795   8.042 -0.4187 -0.9162  0.9760
41022SOL     OW25072   1.673   6.576   6.565 -0.3368 -0.1282 -0.1246
41022SOL    HW125073   1.741   6.624   6.518 -0.3688  0.0493  0.0099
41022SOL    HW225074   1.646   6.507   6.505  1.3568 -1.4606  0.5517
41023SOL     OW25075  10.511   4.551   2.136  0.7612 -0.2557 -0.0189
41023SOL    HW125076  10.512   4.485   2.205 -2.3380  1.1781  1.6284
41023SOL    HW225077  10.550   4.628   2.177 -1.1282  0.6168  0.2358
41024SOL     OW25078   2.802   3.784   1.922  0.2961  0.2187 -0.0961
41024SOL    HW125079   2.718   3.757   1.957  0.1238  1.7331  0.7291
41024SOL    HW225080   2.827   3.713   1.862 -1.2740 -0.5242  0.0815
41025SOL     OW25081   6.757  10.298   6.154  0.2848 -0.3206  0.4697
41025SOL    HW125082   6.826  10.233   6.145  1.1020  0.5207  0.4774
41025SOL    HW225083   6.803  10.380   6.172 -0.5500  0.7513 -1.8524
41026SOL     OW25084   9.904   6.079   4.122 -0.3955  0.2069  0.1294
41026SOL    HW125085   9.851   6.004   4.097  0.6479 -1.0281  1.4061
41026SOL    HW225086   9.877   6.099   4.212  0.6581  0.1197  0.4787
41027SOL     OW25087   7.954   5.931   0.743  0.6123 -0.0839  0.2476
41027SOL    HW125088   7.910   5.846   0.741 -0.8546  0.6564 -0.6732
41027SOL    HW225089   7.908   5.981   0.811 -0.1283  0.7578 -0.8361
41028SOL     OW25090   8.841  11.089   8.367  0.1832  0.5204  0.4423
41028SOL    HW125091   8.808  11.161   8.422 -0.7619  0.1561  0.3627
41028SOL    HW225092   8.871  11.023   8.430 -0.4892  0.2900  0.5285
41029SOL     OW25093   8.439   2.294   3.583 -0.7918 -0.3183  0.3227
41029SOL    HW125094   8.513   2.321   3.529 -0.6833 -0.3211  0.4674
41029SOL    HW225095   8.361   2.317   3.532 -0.6904 -0.3012  0.1781
41030SOL     OW25096   9.212  10.031   6.980 -0.2461  0.2076  0.8236
41030SOL    HW125097   9.162  10.080   7.046 -0.1292  1.5164 -0.0170
41030SOL    HW225098   9.303  10.047   7.003 -0.2081  0.2255  0.6655
41031SOL     OW25099   2.225   2.463   8.695 -0.1026  0.2886 -0.1907
41031SOL    HW125100   2.304   2.517   8.695  0.1796 -0.0977  0.9764
41031SOL    HW225101   2.182   2.483   8.778 -0.5230 -0.5171 -0.2060
41032SOL     OW25102   3.197   4.189   5.587 -0.0761  0.0151  0.2437
41032SOL    HW125103   3.288   4.196   5.559  0.2175  2.5112  1.5031
41032SOL    HW225104   3.151   4.258   5.539 -1.2921 -1.0944 -0.2472
41033SOL     OW25105   8.860   1.959   9.918 -0.2210  0.2307 -0.7965
41033SOL    HW125106   8.920   2.027   9.890 -1.7225  2.6946  1.4740
41033SOL    HW225107   8.796   1.952   9.847  0.2569  0.8214 -1.2896
41034SOL     OW25108   9.180   1.128  10.089 -0.3721  0.4169  0.0822
41034SOL    HW125109   9.130   1.209  10.087 -0.6468  0.2514 -2.2982
41034SOL    HW225110   9.255   1.147  10.146 -1.2013  1.8468  0.7289
41035SOL     OW25111   7.877   5.990   8.134  0.2864 -0.2053  0.4557
41035SOL    HW125112   7.802   6.017   8.080  1.5317 -0.8490 -1.7512
41035SOL    HW225113   7.872   6.045   8.212 -2.0546  0.2778  0.0255
41036SOL     OW25114   0.687   7.564   3.018  0.5864 -0.4225 -0.3323
41036SOL    HW125115   0.591   7.556   3.026  0.3801  0.4170 -1.6876
41036SOL    HW225116   0.714   7.480   2.981  0.3714 -0.6348 -0.0185
41037SOL     OW25117   2.423   9.601   6.632 -0.0031 -0.5524  0.7354
41037SOL    HW125118   2.504   9.554   6.611  0.2380 -0.3629  1.2254
41037SOL    HW225119   2.357   9.532   6.639 -0.0194 -0.6508 -0.2886
41038SOL     OW25120   5.750   8.481  10.229  0.0910 -0.1015 -0.0541
41038SOL    HW125121   5.810   8.456  10.300 -2.1896 -2.0180  1.3853
41038SOL    HW225122   5.668   8.504  10.274 -1.3721 -1.1376 -2.0176
41039SOL     OW25123   0.785   6.662   8.590 -0.2636 -0.6840 -0.4229
41039SOL    HW125124   0.808   6.603   8.518  0.5884 -1.9679  0.8388
41039SOL    HW225125   0.708   6.622   8.630 -1.5514  0.7483 -1.4092
41040SOL     OW25126  10.263   7.586   7.761 -0.9538 -0.1265 -0.5066
41040SOL    HW125127  10.180   7.568   7.716 -1.1810  0.8611 -0.5081
41040SOL    HW225128  10.283   7.677   7.738  0.6144 -0.6307 -1.2623
41041SOL     OW25129   8.418   4.675   7.308 -0.3180  0.0606 -0.2268
41041SOL    HW125130   8.480   4.602   7.313  0.4748  0.7075 -0.3886
41041SOL    HW225131   8.343   4.639   7.261 -0.7911 -1.2165  1.4374
41042SOL     OW25132   1.679   9.675   2.488 -0.2288  0.5319 -1.1800
41042SOL    HW125133   1.593   9.681   2.530  0.5274  0.1001  0.5116
41042SOL    HW225134   1.714   9.765   2.492 -0.4841  0.6523 -1.6224
41043SOL     OW25135   8.467   3.566  10.668 -0.4144  0.4366  0.0102
41043SOL    HW125136   8.495   3.658  10.668 -0.0638  0.3412 -1.2144
41043SOL    HW225137   8.386   3.567  10.719  0.5955  1.0795  1.6970
41044SOL     OW25138   6.789  10.336   7.075 -0.2201  0.0326  0.2325
41044SOL    HW125139   6.859  10.271   7.070  0.9885  1.2825  0.1029
41044SOL    HW225140   6.716  10.297   7.027  1.1453 -0.4345 -1.5838
41045SOL     OW25141   4.487   6.464   5.549 -0.5227 -0.1077  0.6208
41045SOL    HW125142   4.535   6.417   5.618  0.7441  0.7999  0.3951
41045SOL    HW225143   4.515   6.555   5.558 -0.2992  0.0357 -1.0878
41046SOL     OW25144   8.881   3.028  10.123 -0.0773 -0.0817 -1.1319
41046SOL    HW125145   8.820   2.969  10.078  0.3482 -1.6529  0.2553
41046SOL    HW225146   8.838   3.114  10.119 -1.7580 -0.8801 -1.3725
41047SOL     OW25147   3.758   4.775   0.673 -0.1549  0.6698 -0.0313
41047SOL    HW125148   3.841   4.765   0.626 -0.7597 -0.3239 -0.9500
41047SOL    HW225149   3.693   4.782   0.603 -0.6464  4.0889  0.6048
41048SOL     OW25150  10.488   2.551   1.997  0.6061 -0.4592 -0.8500
41048SOL    HW125151  10.423   2.505   1.945  0.1932 -0.2949 -0.4909
41048SOL    HW225152  10.528   2.614   1.937 -1.4185  1.2972 -0.4553
41049SOL     OW25153  10.137   7.744   6.765 -0.5083 -0.7334  0.3859
41049SOL    HW125154  10.051   7.785   6.776 -0.3422 -0.7211  1.8914
41049SOL    HW225155  10.198   7.804   6.809 -0.2549 -2.4842  2.6123
41050SOL     OW25156   7.712   8.703   5.102 -0.3634 -0.1325 -0.8572
41050SOL    HW125157   7.722   8.778   5.160  1.0859 -0.5416 -0.5371
41050SOL    HW225158   7.725   8.738   5.014 -2.3942  0.4564 -0.9638
41051SOL     OW25159   3.268   4.747   0.568 -0.4374 -0.1660  0.2356
41051SOL    HW125160   3.262   4.723   0.660  0.1970 -0.9136  0.0901
41051SOL    HW225161   3.251   4.666   0.520 -0.4406  0.1434 -0.2968
41052SOL     OW25162   0.190   5.553   6.399  0.0216 -0.7494 -0.1190
41052SOL    HW125163   0.175   5.521   6.488 -0.9293 -0.1438 -0.0467
41052SOL    HW225164   0.285   5.553   6.389  0.0955 -3.1323  0.0402
41053SOL     OW25165   3.973   8.732   7.503  0.2478  0.3659 -0.6784
41053SOL    HW125166   4.023   8.812   7.519 -0.5821  0.9056 -0.7082
41053SOL    HW225167   3.966   8.690   7.588  0.0385  0.7185 -0.5186
41054SOL     OW25168   8.122   1.323   3.872 -0.8538  0.2400  0.6145
41054SOL    HW125169   8.215   1.333   3.888 -0.8049 -0.9535  1.1799
41054SOL    HW225170   8.088   1.413   3.871  0.3645  0.7217 -0.1295
41055SOL     OW25171   8.850   4.451   8.179 -0.0103 -0.1681 -0.2266
41055SOL    HW125172   8.940   4.417   8.184 -0.2350 -0.7518 -0.0368
41055SOL    HW225173   8.811   4.405   8.104 -0.7007 -1.3045  0.7819
41056SOL     OW25174   6.595  10.753  10.646 -0.2175 -0.3991 -0.3064
41056SOL    HW125175   6.581  10.730  10.738 -2.6127  0.6312 -0.3427
41056SOL    HW225176   6.512  10.732  10.603  0.4668  0.2337 -2.0273
41057SOL     OW25177   2.269   7.327   9.264  0.4220 -0.0976  0.1876
41057SOL    HW125178   2.175   7.309   9.265 -0.2384  2.8884  0.7710
41057SOL    HW225179   2.302   7.281   9.341 -0.4319 -1.5980 -0.2942
41058SOL     OW25180   8.809   0.588   4.374 -0.0509  0.1808 -0.1797
41058SOL    HW125181   8.779   0.627   4.456 -0.5136  0.6320 -0.5535
41058SOL    HW225182   8.732   0.589   4.317 -0.2794 -1.9179  0.0137
41059SOL     OW25183  10.737   6.274   6.690 -0.0368 -0.1156  0.2411
41059SOL    HW125184  10.706   6.265   6.600  1.3520  1.7252 -0.4822
41059SOL    HW225185  10.663   6.246   6.744 -1.2204 -0.3987 -1.4517
41060SOL     OW25186   9.622   4.663   2.437 -0.5823  0.1910 -0.1867
41060SOL    HW125187   9.575   4.736   2.395  1.7648  1.0010 -1.5707
41060SOL    HW225188   9.613   4.590   2.375 -0.7065  0.0951 -0.0559
41061SOL     OW25189   1.841   1.572   1.696  0.1917  0.2404 -0.7967
41061SOL    HW125190   1.869   1.589   1.606 -2.2973  1.1141 -1.4816
41061SOL    HW225191   1.861   1.479   1.709 -0.0968 -0.1071 -2.5377
41062SOL     OW25192   8.873   3.294   7.657 -0.3930  0.3093 -0.1035
41062SOL    HW125193   8.939   3.317   7.722 -1.3293  0.7436  0.7180
41062SOL    HW225194   8.882   3.199   7.647 -0.5195  0.1655  0.9933
41063SOL     OW25195   3.600   7.558  10.289 -0.6705 -0.3101  0.3169
41063SOL    HW125196   3.538   7.503  10.338  0.3635 -1.9847 -0.1446
41063SOL    HW225197   3.557   7.574  10.205 -1.6573  0.9914  1.0346
41064SOL     OW25198   7.023   2.903   6.949  0.1034  1.2595 -0.4863
41064SOL    HW125199   6.956   2.865   7.006 -0.6839 -1.1392 -2.8198
41064SOL    HW225200   6.978   2.972   6.901 -0.8049 -0.2921 -1.9888
41065SOL     OW25201   1.903   7.048   2.001  0.3114  0.3154  0.3910
41065SOL    HW125202   1.962   7.121   1.979 -0.1717  0.4691 -0.4315
41065SOL    HW225203   1.855   7.031   1.920 -2.0712  1.3906  1.4613
41066SOL     OW25204   4.201   2.094   6.788 -0.5706  0.0319 -0.1141
41066SOL    HW125205   4.225   2.132   6.873 -3.0233 -2.1891  1.7617
41066SOL    HW225206   4.284   2.064   6.751  0.3854 -1.8294  3.0969
41067SOL     OW25207   3.947   2.488   7.663  0.6503 -0.1908  0.3029
41067SOL    HW125208   3.975   2.397   7.654  0.7833 -0.0815 -0.4396
41067SOL    HW225209   3.853   2.486   7.647  0.6540 -0.1992  0.2824
41068SOL     OW25210   7.296   7.609   1.032  0.1157  0.1037 -0.3372
41068SOL    HW125211   7.292   7.520   0.998  1.2846  0.0637 -0.4039
41068SOL    HW225212   7.358   7.604   1.105 -0.4633  0.6926  0.2038
41069SOL     OW25213   4.964   3.591   9.553  0.7398  0.0017  0.7488
41069SOL    HW125214   4.949   3.557   9.465  0.0686 -0.2879  0.9677
41069SOL    HW225215   4.894   3.656   9.566 -0.0880 -1.0215  1.6085
41070SOL     OW25216   9.105   6.066   1.805  0.3911  0.2924 -0.1128
41070SOL    HW125217   9.023   6.111   1.825  0.1817  1.6611 -3.4565
41070SOL    HW225218   9.170   6.107   1.862 -0.6635  1.5930  0.2005
41071SOL     OW25219   5.762   9.436   1.216  0.8297  0.2453  0.4518
41071SOL    HW125220   5.828   9.415   1.150 -0.3773 -1.5980 -0.2556
41071SOL    HW225221   5.735   9.351   1.251 -0.2606  1.0402  1.6387
41072SOL     OW25222   4.927   1.045  10.994 -0.5540 -0.0785  0.4358
41072SOL    HW125223   4.962   1.016  10.909  0.8842  2.8300 -0.0868
41072SOL    HW225224   4.843   1.084  10.973  0.3732  1.8153  0.0666
41073SOL     OW25225  10.651   3.199   1.858 -0.2721 -0.1551  0.7140
41073SOL    HW125226  10.599   3.230   1.784  0.6201 -0.2843  0.0159
41073SOL    HW225227  10.741   3.215   1.832  0.0461 -0.0521  1.8536
41074SOL     OW25228   0.871   5.096   6.904  0.1628 -0.0760  0.5541
41074SOL    HW125229   0.938   5.032   6.878 -0.0508  0.0451 -0.3056
41074SOL    HW225230   0.920   5.176   6.921  0.2919 -0.1165  0.3819
41075SOL     OW25231   6.122   1.493   1.911 -0.6248 -0.0921  0.3766
41075SOL    HW125232   6.136   1.535   1.826 -2.6274 -1.6490 -0.8263
41075SOL    HW225233   6.088   1.406   1.889  0.2467 -1.1458  2.7854
41076SOL     OW25234   3.061   3.873   0.572 -0.5571 -0.0090 -0.6674
41076SOL    HW125235   3.071   3.935   0.500 -0.4853  1.0398  0.2132
41076SOL    HW225236   3.150   3.864   0.608 -0.2216 -2.0383 -1.8903
41077SOL     OW25237   5.548   6.173   5.539 -0.6288  0.5357  0.6147
41077SOL    HW125238   5.586   6.261   5.543  0.7330  0.1975 -2.1099
41077SOL    HW225239   5.497   6.173   5.458  1.3122 -1.7714 -0.7405
41078SOL     OW25240   9.861   1.223   2.345 -0.5362 -0.0777 -0.0016
41078SOL    HW125241   9.775   1.196   2.312 -1.1893  1.3571  0.4885
41078SOL    HW225242   9.843   1.274   2.423  0.7789  0.0824  0.2279
41079SOL     OW25243   9.661  10.901   1.977 -0.0246 -0.2548  0.1444
41079SOL    HW125244   9.738  10.903   2.035 -1.0331 -2.3684  1.7026
41079SOL    HW225245   9.593  10.860   2.030 -1.5769 -0.5585 -1.9724
41080SOL     OW25246   7.772   7.879   2.484 -0.1074  0.1880 -0.2189
41080SOL    HW125247   7.835   7.951   2.492 -0.2046  0.2876 -0.3526
41080SOL    HW225248   7.825   7.803   2.461  0.2472 -0.1924  1.6926
41081SOL     OW25249   7.634   3.011   9.734  0.0185 -0.4228 -0.4408
41081SOL    HW125250   7.583   2.935   9.764  0.1310 -0.2542  0.1880
41081SOL    HW225251   7.597   3.032   9.648 -0.3783 -0.8537 -0.3794
41082SOL     OW25252   8.422   9.996   7.073 -0.5375  0.4526 -0.1756
41082SOL    HW125253   8.441   9.979   7.165  0.2212 -0.3011 -0.4541
41082SOL    HW225254   8.435  10.090   7.062 -2.8524  0.9895  0.9788
41083SOL     OW25255   0.306   6.573  10.676 -0.0025  0.2722  0.3384
41083SOL    HW125256   0.312   6.499  10.735 -3.1025  0.0943  0.6034
41083SOL    HW225257   0.344   6.646  10.725 -0.5051 -0.3317  1.6629
41084SOL     OW25258   8.196   6.628   2.274  0.3135  0.5057  0.2231
41084SOL    HW125259   8.211   6.552   2.330 -1.0800  0.0125 -0.0375
41084SOL    HW225260   8.284   6.664   2.259  0.9518 -0.7592  0.7508
41085SOL     OW25261   3.049   4.570   8.887  0.0272 -0.1568 -0.2476
41085SOL    HW125262   3.124   4.514   8.871 -0.0602 -1.3959  3.0109
41085SOL    HW225263   3.086   4.658   8.897  0.5154 -0.0743 -2.3047
41086SOL     OW25264   9.263   2.429  10.367 -0.2438 -0.1077  0.3583
41086SOL    HW125265   9.248   2.342  10.404 -0.6176  0.0058  0.4791
41086SOL    HW225266   9.225   2.489  10.431  2.9314  0.4041  1.9686
41087SOL     OW25267   8.797   3.791   1.915 -0.7770 -0.4546 -0.0400
41087SOL    HW125268   8.731   3.859   1.905 -0.2138  0.0760 -0.2431
41087SOL    HW225269   8.880   3.839   1.923 -0.5009 -1.0817  0.9921
41088SOL     OW25270   5.550   9.610  10.408 -0.0668 -0.4208 -0.1141
41088SOL    HW125271   5.592   9.527  10.431  1.2269  0.5440  1.1129
41088SOL    HW225272   5.461   9.602  10.443  0.8996 -0.2266  2.5793
41089SOL     OW25273  10.508   6.612   1.567 -0.2454 -0.5045 -0.0392
41089SOL    HW125274  10.501   6.516   1.575 -0.6899 -0.5722 -1.1179
41089SOL    HW225275  10.577   6.636   1.629  0.0280 -1.5453  0.0793
41090SOL     OW25276   9.276   2.176   5.811 -0.2703 -0.4398  0.5996
41090SOL    HW125277   9.234   2.091   5.822 -3.0348  0.8257  0.4460
41090SOL    HW225278   9.299   2.203   5.900 -1.4133 -0.3858  0.8866
41091SOL     OW25279   2.574   2.698  10.132  0.1200  0.3962 -0.3370
41091SOL    HW125280   2.507   2.739  10.077  0.4571  0.4790 -0.6891
41091SOL    HW225281   2.634   2.657  10.071 -0.3732 -0.9026  0.0272
41092SOL     OW25282  10.735   1.580   7.985 -0.4745  0.2812  0.0227
41092SOL    HW125283  10.795   1.623   8.045  0.0845  1.0673 -1.0670
41092SOL    HW225284  10.665   1.547   8.041  0.6172 -0.0702  1.2380
41093SOL     OW25285   6.794   2.149  10.585 -0.2497  0.2346 -0.4909
41093SOL    HW125286   6.711   2.181  10.549 -0.8513 -0.3235  0.3672
41093SOL    HW225287   6.768   2.084  10.651  0.8575  0.2855  0.0143
41094SOL     OW25288   1.054   2.228   4.645 -0.4057  0.3355  0.0028
41094SOL    HW125289   1.024   2.147   4.604 -0.5018  0.6589 -0.5760
41094SOL    HW225290   1.149   2.225   4.638 -0.3982  0.1659  0.1853
41095SOL     OW25291   3.320   9.669   7.959  0.4137 -0.1908 -0.2152
41095SOL    HW125292   3.293   9.723   7.885  2.4371  0.9768 -0.1817
41095SOL    HW225293   3.301   9.723   8.036  1.2522 -0.0355 -0.1036
41096SOL     OW25294  10.082   8.749   8.377 -0.0082 -0.5753  0.2003
41096SOL    HW125295  10.013   8.753   8.442  0.9930  1.5669  1.2540
41096SOL    HW225296  10.056   8.678   8.318 -3.5464  0.6658  0.0069
41097SOL     OW25297   4.316   8.066   4.842 -0.8980 -0.7012  0.0126
41097SOL    HW125298   4.328   7.995   4.779 -2.8212 -1.1201  0.0512
41097SOL    HW225299   4.227   8.053   4.876 -1.1126  1.4179  0.4088
41098SOL     OW25300  10.276   0.799   2.753  0.4553 -0.5256 -0.6338
41098SOL    HW125301  10.197   0.830   2.707  0.2856 -0.7474 -0.4937
41098SOL    HW225302  10.331   0.764   2.683  0.2554 -0.7383 -0.6865
41099SOL     OW25303   9.139   6.962   2.417 -0.1066 -0.5131 -0.4210
41099SOL    HW125304   9.070   7.023   2.394 -1.9376 -1.8504  1.1473
41099SOL    HW225305   9.122   6.885   2.363 -0.7522 -1.3717  0.9413
41100SOL     OW25306   7.806   9.084   1.441 -0.4727 -0.2710 -0.5413
41100SOL    HW125307   7.840   9.164   1.400  0.3641 -0.5157 -0.3428
41100SOL    HW225308   7.827   9.094   1.534 -1.5055 -0.1544 -0.3108
41101SOL     OW25309   7.899   9.548   6.546 -0.7801  0.5802 -0.2225
41101SOL    HW125310   7.958   9.473   6.544  0.7707  1.7629 -0.9874
41101SOL    HW225311   7.946   9.615   6.595 -1.4903  1.5558 -0.8224
41102SOL     OW25312   6.456   9.283   2.742 -0.3715 -0.2039 -0.2086
41102SOL    HW125313   6.482   9.375   2.755 -0.3525 -0.1600 -0.5442
41102SOL    HW225314   6.507   9.255   2.666 -0.1781 -0.5749  0.0527
41103SOL     OW25315   2.611   6.480   7.801 -0.5009 -0.0455 -0.0092
41103SOL    HW125316   2.671   6.463   7.873 -0.2289 -1.3858 -0.5344
41103SOL    HW225317   2.603   6.576   7.799  1.4715  0.1659  0.1883
41104SOL     OW25318   9.958   8.842   4.004 -0.1757  0.7518 -0.7406
41104SOL    HW125319   9.919   8.808   4.084  0.1761 -2.7182 -1.8914
41104SOL    HW225320   9.887   8.843   3.941  0.5337 -1.2632 -1.6345
41105SOL     OW25321   0.647   3.152   2.357 -0.1967 -0.5422  0.1754
41105SOL    HW125322   0.552   3.162   2.364 -0.1577 -1.1222  2.0862
41105SOL    HW225323   0.669   3.087   2.423  1.3838 -1.4893 -1.2094
41106SOL     OW25324   1.371   9.160   5.097 -0.7843 -0.3750 -0.6658
41106SOL    HW125325   1.462   9.146   5.071 -0.1691  1.2375  0.5325
41106SOL    HW225326   1.365   9.253   5.118 -1.6487 -1.1179  3.1254
41107SOL     OW25327   6.994   6.578   1.599  0.7366 -0.4836  0.0121
41107SOL    HW125328   6.913   6.622   1.574  0.8701 -0.0149  0.4125
41107SOL    HW225329   6.998   6.584   1.694  0.2837 -2.1907  0.1823
41108SOL     OW25330   8.472   9.934   9.408 -0.4402 -0.0580 -0.2700
41108SOL    HW125331   8.489   9.853   9.456 -0.4692 -0.0824 -0.3009
41108SOL    HW225332   8.453   9.905   9.319  0.9056  0.0728 -0.6107
41109SOL     OW25333   3.838   7.513   5.270  0.1645 -0.2294  0.5518
41109SOL    HW125334   3.792   7.597   5.266  0.9714  0.3795  2.6557
41109SOL    HW225335   3.815   7.469   5.188 -2.0415  1.1118  0.3752
41110SOL     OW25336   1.758  10.968  10.271 -0.3207  0.3520 -0.1544
41110SOL    HW125337   1.705  11.019  10.332  1.1041  0.1142  1.3594
41110SOL    HW225338   1.844  11.010  10.273  0.6591 -1.5556  0.4946
41111SOL     OW25339   6.822   8.610  10.548 -0.2756 -0.6735  0.1631
41111SOL    HW125340   6.890   8.629  10.483  0.5252  0.8381  1.3491
41111SOL    HW225341   6.867   8.619  10.632 -2.4324  3.4578  1.1915
41112SOL     OW25342   4.410   7.196   9.032 -0.0555 -0.4625 -0.6667
41112SOL    HW125343   4.370   7.223   8.950 -2.3793  1.3267  0.9240
41112SOL    HW225344   4.363   7.117   9.057 -0.0681 -0.4244 -0.5679
41113SOL     OW25345   8.220   9.845   5.301 -0.2196  0.4185  0.4710
41113SOL    HW125346   8.258   9.904   5.366 -0.3427  1.0665 -0.0342
41113SOL    HW225347   8.184   9.773   5.352 -0.3367  0.9322  1.1247
41114SOL     OW25348  10.791   9.055   0.384 -0.1419 -0.1553  0.5775
41114SOL    HW125349  10.762   9.078   0.473 -0.0765  2.1881  0.0552
41114SOL    HW225350  10.878   9.017   0.398 -1.0462 -1.9734  1.6655
41115SOL     OW25351   1.771   4.761   3.585  0.1038  0.2108  0.1165
41115SOL    HW125352   1.712   4.700   3.540 -2.1479  0.3791  2.6335
41115SOL    HW225353   1.733   4.848   3.567  1.7374  0.7175 -1.1889
41116SOL     OW25354   1.381   5.183   1.366 -0.0181 -0.1934 -0.0103
41116SOL    HW125355   1.394   5.233   1.447  1.1099  0.6894 -0.7063
41116SOL    HW225356   1.305   5.225   1.325  0.7484  0.8071 -0.4517
41117SOL     OW25357   7.297   1.480  10.174  0.0648  0.0527  0.2297
41117SOL    HW125358   7.298   1.573  10.196 -0.6790 -0.1183  1.0707
41117SOL    HW225359   7.220   1.446  10.220  0.0752 -0.8908 -0.4290
41118SOL     OW25360   2.183   9.391  10.770 -0.2971 -0.4633  0.3319
41118SOL    HW125361   2.183   9.487  10.764 -1.1720 -0.5279 -3.6159
41118SOL    HW225362   2.272   9.369  10.797  0.8054  1.4603 -1.3941
41119SOL     OW25363   0.391   9.876   5.654  0.7155  0.3520  0.0082
41119SOL    HW125364   0.349   9.962   5.645 -1.9721 -0.7730  0.8810
41119SOL    HW225365   0.433   9.861   5.570  0.1053  1.9385 -0.6269
41120SOL     OW25366   9.133   5.945   3.002  0.1704  0.1262  0.1784
41120SOL    HW125367   9.175   5.871   3.044  2.4830  0.0326 -2.0445
41120SOL    HW225368   9.041   5.919   2.994  0.3225 -1.1766  2.1073
41121SOL     OW25369   3.061   0.226   4.957  0.5358  0.0681 -0.5621
41121SOL    HW125370   3.157   0.229   4.960  0.5343 -0.0954 -0.3416
41121SOL    HW225371   3.041   0.139   4.924  0.4103 -1.3608  2.8834
41122SOL     OW25372   9.507   5.312   9.183  0.6731 -0.0710 -0.8554
41122SOL    HW125373   9.544   5.227   9.207  3.3402  0.5756 -2.2262
41122SOL    HW225374   9.413   5.296   9.174  1.0748 -2.8582 -1.0470
41123SOL     OW25375   8.849   1.228   1.510  0.0416 -0.0586 -0.0683
41123SOL    HW125376   8.871   1.275   1.430  1.6080  1.6619  1.2874
41123SOL    HW225377   8.775   1.276   1.547  0.7867  0.5983  0.6325
41124SOL     OW25378   4.893   7.779   0.255  0.2670  0.1839  0.4795
41124SOL    HW125379   4.845   7.862   0.262  0.4627  0.3698 -0.3187
41124SOL    HW225380   4.836   7.715   0.299  0.3832  0.8341  1.6300
41125SOL     OW25381   0.566   8.732   9.187  0.4091 -0.3762  0.4507
41125SOL    HW125382   0.630   8.792   9.149  0.5132 -1.3320 -0.9627
41125SOL    HW225383   0.618   8.659   9.220  0.2710  0.1920  2.0368
41126SOL     OW25384   8.333   0.666   5.501 -0.2038  0.1649 -0.0481
41126SOL    HW125385   8.322   0.644   5.594  0.0879  0.8362  0.1464
41126SOL    HW225386   8.357   0.758   5.501  1.0963 -0.1594 -0.7164
41127SOL     OW25387   5.343   1.215   2.101 -0.3016 -0.2318 -0.0803
41127SOL    HW125388   5.424   1.174   2.133  0.0368 -0.5272 -1.2681
41127SOL    HW225389   5.318   1.276   2.171  0.8235 -0.2947  0.4004
41128SOL     OW25390   5.191   2.064   2.132 -0.4944 -0.1605 -0.0367
41128SOL    HW125391   5.154   1.990   2.083  1.0102 -0.9675 -0.0258
41128SOL    HW225392   5.129   2.077   2.204 -0.7652 -1.4787  0.0115
41129SOL     OW25393   1.369   4.617   4.213 -0.0124  0.0967  0.0243
41129SOL    HW125394   1.443   4.557   4.204  0.5627  0.6481  0.8882
41129SOL    HW225395   1.404   4.702   4.186  0.0706  0.6189  1.6625
41130SOL     OW25396   2.131   2.546   8.433 -0.0841 -0.4894  0.3540
41130SOL    HW125397   2.039   2.521   8.422 -0.8954  1.9990  0.9001
41130SOL    HW225398   2.156   2.509   8.518 -0.3889 -1.6013 -0.0197
41131SOL     OW25399   2.239   0.964   0.546  0.6463 -0.0743 -0.3762
41131SOL    HW125400   2.177   0.987   0.615  2.5656  1.8442  0.8406
41131SOL    HW225401   2.240   1.040   0.488  0.2493 -1.0167 -1.6768
41132SOL     OW25402   8.827   6.088   3.303 -0.8125 -0.1797  0.1504
41132SOL    HW125403   8.834   5.992   3.297 -2.9493 -0.3490 -0.9140
41132SOL    HW225404   8.873   6.110   3.384  1.6992 -1.8098 -0.6948
41133SOL     OW25405  10.247   8.049   9.330 -0.0781 -0.1612  0.2711
41133SOL    HW125406  10.216   8.027   9.418 -1.3137 -0.7744 -0.2858
41133SOL    HW225407  10.235   8.143   9.324  0.0176 -0.1120  0.7656
41134SOL     OW25408   9.901   3.678   8.329  0.0904 -0.6307  0.0867
41134SOL    HW125409   9.949   3.619   8.387  0.9141  0.0015  0.0704
41134SOL    HW225410   9.815   3.637   8.318  1.0218 -2.4255 -0.8719
41135SOL     OW25411  10.264   8.191  10.147  0.4959  0.8373 -0.1352
41135SOL    HW125412  10.202   8.154  10.084  0.9229  1.3248 -0.8548
41135SOL    HW225413  10.273   8.123  10.215 -1.5278  1.1211  0.4878
41136SOL     OW25414   5.376   6.896   5.572 -0.0055 -0.1851 -0.3966
41136SOL    HW125415   5.455   6.925   5.527 -1.1063  3.5398 -0.3229
41136SOL    HW225416   5.308   6.898   5.504 -0.8639  1.3193  0.4435
41137SOL     OW25417  10.167   2.631   4.582  0.5307 -0.2073  0.4852
41137SOL    HW125418  10.231   2.670   4.523  2.1074 -1.8587  1.0072
41137SOL    HW225419  10.089   2.619   4.528  1.3799 -0.1554 -0.8034
41138SOL     OW25420   6.223  10.032  10.952  0.0648  0.4054  0.1092
41138SOL    HW125421   6.249  10.103  10.893  2.1130  0.4463  0.9867
41138SOL    HW225422   6.295  10.024  11.014 -1.6321 -0.2197  2.1124
41139SOL     OW25423  10.181   8.240  10.902  0.4941 -0.3896 -0.5128
41139SOL    HW125424  10.134   8.307  10.952  2.8001  0.5533  0.5328
41139SOL    HW225425  10.171   8.160  10.953 -0.9545 -0.5083 -0.9474
41140SOL     OW25426   4.597  11.043   2.859  0.3273 -0.7237  0.0156
41140SOL    HW125427   4.643  10.981   2.914  0.6372 -0.3975  0.1274
41140SOL    HW225428   4.505  11.037   2.887  0.4833 -0.5619  0.5674
41141SOL     OW25429   1.753   0.598   9.288 -0.6598  0.7056 -0.0219
41141SOL    HW125430   1.677   0.616   9.233 -0.7246  1.6228  0.3555
41141SOL    HW225431   1.762   0.676   9.343  0.9254  0.8659 -0.4703
41142SOL     OW25432   9.999   6.565   0.836 -0.1274  0.3791 -0.1142
41142SOL    HW125433  10.062   6.586   0.905  2.4309 -1.0140 -1.8595
41142SOL    HW225434   9.963   6.650   0.810  0.1243  1.0917  1.7459
41143SOL     OW25435   4.261  10.616   5.602  0.4453 -0.4904  0.0039
41143SOL    HW125436   4.304  10.532   5.617  1.4391 -0.1105 -0.6288
41143SOL    HW225437   4.266  10.629   5.507 -1.7461 -0.7663 -0.2063
41144SOL     OW25438   1.368   4.265   2.507 -0.2668  0.2009 -0.0806
41144SOL    HW125439   1.313   4.342   2.494 -0.3581 -0.0987 -1.6463
41144SOL    HW225440   1.311   4.191   2.489  0.0356 -0.2082  0.6114
41145SOL     OW25441   2.756  10.529   5.255 -0.4094 -0.0736  0.0388
41145SOL    HW125442   2.730  10.576   5.334 -1.1022  0.5044 -0.5180
41145SOL    HW225443   2.679  10.478   5.230 -0.2273 -0.1900 -0.3004
41146SOL     OW25444   4.680   9.511   0.410 -0.3047 -0.0325 -0.5342
41146SOL    HW125445   4.682   9.487   0.502 -1.6323 -1.6696 -0.8918
41146SOL    HW225446   4.749   9.577   0.401 -0.4646  0.5087  1.7052
41147SOL     OW25447   4.525   2.850  10.368  0.1625  0.6310 -0.3176
41147SOL    HW125448   4.514   2.943  10.388  0.6703  0.5611  0.2878
41147SOL    HW225449   4.516   2.845  10.272  0.4006  1.3416 -0.3800
41148SOL     OW25450   1.293   7.054   9.919 -0.9451 -0.2655  0.2663
41148SOL    HW125451   1.286   6.966   9.956 -0.9245 -1.2222 -1.8407
41148SOL    HW225452   1.378   7.086   9.948 -1.7101 -0.1613  2.5425
41149SOL     OW25453   7.458   6.920   3.647  0.4904  0.1413  0.1769
41149SOL    HW125454   7.484   6.984   3.713 -2.2243  1.7622 -0.1673
41149SOL    HW225455   7.379   6.879   3.683 -2.4561  2.6998 -2.8260
41150SOL     OW25456   1.562   5.143   1.152 -0.0240  0.1902  0.3061
41150SOL    HW125457   1.494   5.125   1.217 -0.8444  0.7226 -0.3835
41150SOL    HW225458   1.644   5.142   1.202 -0.7466  1.8941  1.6302
41151SOL     OW25459   4.806   2.025   5.299 -0.0804  0.9666  0.3088
41151SOL    HW125460   4.757   1.990   5.374 -0.4531  1.9280  0.5215
41151SOL    HW225461   4.883   1.968   5.293 -0.7830 -0.0389  0.4941
41152SOL     OW25462   8.231   7.104   2.141  0.5131  0.4949 -0.2693
41152SOL    HW125463   8.239   7.012   2.118 -0.6921 -0.1983  1.7751
41152SOL    HW225464   8.317   7.128   2.174  2.2440  1.4838 -4.8385
41153SOL     OW25465  11.081   0.359   4.923 -0.0072 -0.0954  0.1108
41153SOL    HW125466  11.124   0.339   4.839  0.8254 -0.3203  0.5772
41153SOL    HW225467  11.150   0.399   4.976 -0.3863 -0.4428  0.8808
41154SOL     OW25468   3.882   7.331   2.579 -0.2671 -0.4737  0.5846
41154SOL    HW125469   3.829   7.368   2.650 -2.2303 -2.0127  0.0047
41154SOL    HW225470   3.828   7.339   2.501  0.8780 -0.9557 -0.2969
41155SOL     OW25471   3.448   6.354   2.721  0.3463 -0.1325 -0.2032
41155SOL    HW125472   3.500   6.285   2.678 -0.3574 -1.0649  0.4153
41155SOL    HW225473   3.368   6.360   2.668 -0.4150 -1.1129  0.7879
41156SOL     OW25474   1.922   9.778   9.515 -0.5456  0.1517 -0.0417
41156SOL    HW125475   1.882   9.861   9.543  0.3029  0.3808  0.5363
41156SOL    HW225476   1.920   9.782   9.419 -0.3954  0.9054 -0.0222
41157SOL     OW25477   0.021   7.027   7.669 -0.4089  0.5412  0.3464
41157SOL    HW125478   0.040   6.991   7.755  2.4129  0.3404 -0.2605
41157SOL    HW225479  -0.009   6.952   7.617  0.0847  0.1943  0.5597
41158SOL     OW25480   0.945   6.696   4.526  0.2695 -0.4805 -0.7505
41158SOL    HW125481   0.872   6.686   4.586  1.3494 -1.3850  0.4914
41158SOL    HW225482   0.905   6.718   4.442 -1.3740 -0.5162 -0.0137
41159SOL     OW25483   0.377  10.703   7.920 -0.2178  0.2973  0.5352
41159SOL    HW125484   0.337  10.777   7.874 -0.4475  0.2263  0.6164
41159SOL    HW225485   0.471  10.713   7.906 -0.3375 -0.4300 -1.0608
41160SOL     OW25486   0.732   6.973   5.238 -0.1769 -0.5973 -0.4669
41160SOL    HW125487   0.794   6.916   5.283  0.6147 -0.8077 -1.7804
41160SOL    HW225488   0.767   7.061   5.251 -0.6463 -0.5231  0.3811
41161SOL     OW25489   5.217   3.691   4.680 -0.0158  0.4816  0.1523
41161SOL    HW125490   5.243   3.608   4.719  0.2848  1.2656  1.7058
41161SOL    HW225491   5.266   3.757   4.729 -2.0498  1.7533  0.5921
41162SOL     OW25492   2.978   7.730   7.143 -0.0544  0.2347 -0.2692
41162SOL    HW125493   2.933   7.723   7.227 -1.2562  1.2031 -0.7913
41162SOL    HW225494   2.907   7.737   7.079  0.8516  0.9280 -1.2275
41163SOL     OW25495  10.093   2.189   0.440  0.1030 -0.5537  0.0991
41163SOL    HW125496  10.094   2.284   0.452  0.6523 -0.2845 -1.7942
41163SOL    HW225497  10.005   2.170   0.406 -0.1638 -0.7926  0.9097
41164SOL     OW25498   2.151   6.493   1.200  0.4438 -0.1551  1.0745
41164SOL    HW125499   2.122   6.474   1.289  0.1909  0.7639  1.1989
41164SOL    HW225500   2.119   6.581   1.182  2.6357  0.6973  0.9966
41165SOL     OW25501   7.439   4.779   3.048  0.2988 -0.5224  0.0007
41165SOL    HW125502   7.377   4.797   3.118  1.4552  0.9020  0.7188
41165SOL    HW225503   7.514   4.835   3.068 -0.2651  1.8915 -3.6978
41166SOL     OW25504   5.552   0.961   7.251  0.8800  0.4875  0.1533
41166SOL    HW125505   5.525   0.971   7.160  2.5590  0.3996 -0.4009
41166SOL    HW225506   5.613   1.033   7.266  1.0785  0.1549  1.0185
41167SOL     OW25507   0.716  10.625   3.410 -0.0874  0.4538  0.0082
41167SOL    HW125508   0.800  10.580   3.405 -0.9824 -1.2373 -0.5455
41167SOL    HW225509   0.706  10.646   3.503  0.5072 -0.2144  0.2317
41168SOL     OW25510   9.221   1.420  10.903  0.0892 -0.2256  0.3379
41168SOL    HW125511   9.154   1.487  10.888 -0.1881 -0.6419 -0.3241
41168SOL    HW225512   9.279   1.426  10.828  0.6994  0.0024  0.8153
41169SOL     OW25513   6.808   3.756  10.019 -0.2442 -0.3968 -0.0017
41169SOL    HW125514   6.817   3.800  10.103 -0.8147  1.1978 -0.7317
41169SOL    HW225515   6.714   3.736  10.012  0.0454 -2.0488  0.4461
41170SOL     OW25516   3.171   9.369   2.839 -0.2742 -0.5059 -0.0107
41170SOL    HW125517   3.256   9.401   2.871 -1.0166  1.4187  0.1640
41170SOL    HW225518   3.128   9.333   2.917 -0.1435 -0.2489  0.1831
41171SOL     OW25519   9.075   2.749   6.193 -0.3050  0.2436 -0.4879
41171SOL    HW125520   9.058   2.833   6.151  0.8150 -0.1468 -1.8048
41171SOL    HW225521   9.007   2.691   6.159  0.2129  0.0945 -1.3181
41172SOL     OW25522   9.978   0.096   1.116  0.5107  0.8588 -0.6179
41172SOL    HW125523   9.973   0.191   1.127 -1.4956  0.6160  1.3303
41172SOL    HW225524   9.970   0.082   1.022 -0.1035  2.5869 -0.8703
41173SOL     OW25525   2.716   6.194   2.058  0.4348 -0.4220  0.0064
41173SOL    HW125526   2.786   6.171   1.997  0.7610 -1.0841  0.6127
41173SOL    HW225527   2.681   6.109   2.086  0.0001 -0.1130  0.4056
41174SOL     OW25528   9.394   1.975   1.646  0.1605 -0.1110  0.5464
41174SOL    HW125529   9.330   1.986   1.717 -1.7064  2.6055 -1.3559
41174SOL    HW225530   9.477   1.957   1.691 -1.5119 -1.6868  3.2114
41175SOL     OW25531  10.097   1.875   4.189  0.5663 -0.3977  0.0176
41175SOL    HW125532  10.056   1.853   4.105  1.5253  1.7002 -1.0612
41175SOL    HW225533  10.191   1.873   4.171  0.7585  0.9723  0.7923
41176SOL     OW25534   9.628   6.556   2.763 -0.4442 -0.1257  0.4638
41176SOL    HW125535   9.561   6.499   2.725  0.8592 -0.1321 -2.0727
41176SOL    HW225536   9.591   6.585   2.846 -2.5886 -1.9274  0.2396
41177SOL     OW25537   2.647  10.991   2.545 -0.1155  0.0280 -0.2686
41177SOL    HW125538   2.694  10.924   2.495 -0.7575 -0.1404 -0.6485
41177SOL    HW225539   2.696  10.997   2.627 -1.5136 -2.8076  0.8991
41178SOL     OW25540   6.503   4.341   5.467 -0.7628  0.0844  0.5011
41178SOL    HW125541   6.585   4.319   5.511 -0.6673 -2.3168 -0.7277
41178SOL    HW225542   6.518   4.318   5.375 -3.0958 -1.4131  0.4022
41179SOL     OW25543   8.175   6.126   1.397 -0.3891  0.6705  0.4931
41179SOL    HW125544   8.200   6.084   1.315 -0.8103 -2.3490  1.7648
41179SOL    HW225545   8.236   6.090   1.462 -1.4238  1.2822  1.8560
41180SOL     OW25546   9.105   2.743   1.737 -0.1351 -0.5821 -0.5507
41180SOL    HW125547   9.048   2.677   1.698  0.3645 -0.8693 -0.8013
41180SOL    HW225548   9.130   2.799   1.663 -0.3194 -0.2844 -0.3896
41181SOL     OW25549   2.604   3.483   7.815  0.3614  0.2891  0.3590
41181SOL    HW125550   2.538   3.494   7.884  2.1583 -0.3899  2.3146
41181SOL    HW225551   2.625   3.389   7.818 -0.2272  0.0459 -1.8624
41182SOL     OW25552  10.841   8.266   4.364 -0.2747 -0.0990  0.1099
41182SOL    HW125553  10.923   8.312   4.345 -0.3661 -0.3301 -0.9252
41182SOL    HW225554  10.773   8.329   4.343 -0.3744  0.0690  0.9048
41183SOL     OW25555   3.326   6.826   5.897  0.2475 -0.1958  0.6304
41183SOL    HW125556   3.256   6.886   5.924  0.3463 -0.2193  0.9423
41183SOL    HW225557   3.307   6.807   5.805  0.1338  0.1986  0.5716
41184SOL     OW25558   5.794   7.742   1.205 -0.0045  0.3284 -0.1411
41184SOL    HW125559   5.754   7.713   1.123 -1.2005  1.2577  0.0726
41184SOL    HW225560   5.751   7.826   1.224  1.7068  1.1408  0.3843
41185SOL     OW25561   8.403   1.599  10.312 -0.4392 -0.1046 -1.2593
41185SOL    HW125562   8.339   1.529  10.322  3.2162 -3.8082 -1.4494
41185SOL    HW225563   8.385   1.634  10.224 -2.8125 -0.1612 -0.8777
41186SOL     OW25564   9.796   0.595   0.368 -0.2971 -0.6060 -0.1987
41186SOL    HW125565   9.726   0.588   0.303 -0.5624 -0.5383  0.0755
41186SOL    HW225566   9.761   0.654   0.435  1.4222  2.5716 -1.8628
41187SOL     OW25567   1.575   9.650   4.995 -0.2364 -0.0368 -0.6020
41187SOL    HW125568   1.668   9.643   5.014 -0.1205 -0.7188 -1.3469
41187SOL    HW225569   1.546   9.729   5.041  0.1348 -1.2051  1.7952
41188SOL     OW25570   0.324   4.336   2.035  0.1510  0.5398  1.1475
41188SOL    HW125571   0.373   4.258   2.060 -2.8768 -2.0337 -0.2912
41188SOL    HW225572   0.235   4.305   2.019 -0.1923  3.1835 -4.7408
41189SOL     OW25573   5.776   8.775   4.824  0.0315  0.2777  0.3071
41189SOL    HW125574   5.785   8.772   4.729  2.7988 -3.1103  0.4867
41189SOL    HW225575   5.813   8.860   4.848  0.5570  0.6402 -1.5749
41190SOL     OW25576   2.747   2.147   1.558 -0.0560 -0.8397 -0.7184
41190SOL    HW125577   2.697   2.124   1.480 -2.0572  1.0305 -0.1000
41190SOL    HW225578   2.680   2.155   1.627  0.7559  3.1799 -0.1374
41191SOL     OW25579   1.436   7.659   1.724  0.1054 -0.6123  0.6045
41191SOL    HW125580   1.469   7.728   1.666  2.3251 -0.5323  1.8252
41191SOL    HW225581   1.432   7.581   1.669 -0.8555  0.1150 -0.3847
41192SOL     OW25582   9.456   8.970   4.161  0.2913 -0.2184  0.2289
41192SOL    HW125583   9.536   8.997   4.207  0.1287  0.7439 -0.0315
41192SOL    HW225584   9.386   9.023   4.201 -0.1034 -0.5448 -0.0200
41193SOL     OW25585   1.235   7.526   1.365 -0.1038 -0.3013  0.3349
41193SOL    HW125586   1.314   7.578   1.352 -1.1885  0.8582 -2.5587
41193SOL    HW225587   1.233   7.465   1.291 -2.2714  0.2901 -0.1802
41194SOL     OW25588   7.319  10.395   0.915 -0.0166  0.3990  0.0100
41194SOL    HW125589   7.350  10.394   0.825 -0.2012  0.7491 -0.0606
41194SOL    HW225590   7.245  10.456   0.914 -0.6961 -0.4038  0.1779
41195SOL     OW25591   8.034   9.326   3.909  0.7040 -0.2689  0.2986
41195SOL    HW125592   8.020   9.267   3.835  0.5188 -0.3639  0.4094
41195SOL    HW225593   8.090   9.277   3.968  0.9958 -0.1280  0.1428
41196SOL     OW25594   7.001   8.007   9.645  0.3503 -0.6041 -0.0797
41196SOL    HW125595   7.029   8.056   9.568  0.9965 -1.0401 -0.1255
41196SOL    HW225596   7.067   7.938   9.655 -0.6537 -1.5889 -0.1256
41197SOL     OW25597   5.681  10.783   1.064 -0.6126  0.8204 -0.3460
41197SOL    HW125598   5.662  10.873   1.091 -0.5958  0.1799  2.0420
41197SOL    HW225599   5.768  10.765   1.101 -0.7399 -0.2850 -0.5507
41198SOL     OW25600   5.419   4.983   9.743  0.3103  0.1277 -0.8765
41198SOL    HW125601   5.419   4.942   9.830 -5.0861 -0.8421 -0.9955
41198SOL    HW225602   5.434   5.075   9.761 -0.1231 -0.1221  1.0778
41199SOL     OW25603   9.016   2.259   1.688 -0.3760 -0.6994 -0.7353
41199SOL    HW125604   8.941   2.201   1.705  0.1990 -1.3527 -0.3553
41199SOL    HW225605   9.077   2.204   1.639  0.4045 -0.5758  0.0819
41200SOL     OW25606   2.148  10.113   2.850 -0.0526 -0.3278  0.0328
41200SOL    HW125607   2.063  10.086   2.816 -1.1842  1.8487  0.9212
41200SOL    HW225608   2.150  10.208   2.837  1.5440 -0.1157  1.5071
41201SOL     OW25609   7.635   1.348   1.779  0.1269 -0.4596 -0.1092
41201SOL    HW125610   7.703   1.367   1.715 -1.0513  1.5223 -0.8511
41201SOL    HW225611   7.653   1.406   1.852  0.5774 -1.6367  0.7566
41202SOL     OW25612   0.738   7.768   8.543 -0.1914 -0.5931 -0.3238
41202SOL    HW125613   0.648   7.798   8.531 -0.5648 -1.2999  0.5706
41202SOL    HW225614   0.789   7.848   8.552 -0.4231 -0.1092 -2.6654
41203SOL     OW25615   7.988   5.528   0.595 -0.1997 -0.1558  0.3760
41203SOL    HW125616   7.977   5.565   0.682 -0.6039  0.0084  0.2538
41203SOL    HW225617   8.059   5.579   0.556 -1.5743  1.3577 -0.2545
41204SOL     OW25618   1.427   0.777  10.461  0.3253 -0.6512  0.7118
41204SOL    HW125619   1.409   0.706  10.400 -1.4788 -0.8702  1.4613
41204SOL    HW225620   1.428   0.735  10.547 -0.3359  0.1619  1.1241
41205SOL     OW25621   6.771   0.498   6.922 -0.0134 -0.1703  0.0116
41205SOL    HW125622   6.809   0.421   6.881 -3.1066 -2.0030  0.2655
41205SOL    HW225623   6.797   0.492   7.014  0.6505 -0.2788 -0.1788
41206SOL     OW25624  10.346   4.361   1.826  0.1136 -0.3215  0.4959
41206SOL    HW125625  10.357   4.437   1.769  1.0083 -0.6553  0.1911
41206SOL    HW225626  10.257   4.331   1.809 -0.0370  0.2970  0.1630
41207SOL     OW25627   5.045   3.501  10.136 -0.4285  0.4109 -0.9743
41207SOL    HW125628   5.087   3.470  10.217  1.0142 -0.2197 -1.9265
41207SOL    HW225629   4.963   3.452  10.131 -0.2771  0.0557 -0.1889
41208SOL     OW25630   5.438   0.055   5.036  0.6469  0.2306  0.0798
41208SOL    HW125631   5.444   0.148   5.054 -0.6438  0.5749 -1.0881
41208SOL    HW225632   5.431   0.050   4.940 -0.1602 -1.0013  0.1859
41209SOL     OW25633   1.959   9.326   4.965  0.2904 -0.1022 -0.0304
41209SOL    HW125634   2.004   9.321   5.049  1.5649  1.0754 -0.6096
41209SOL    HW225635   1.969   9.238   4.927  0.7703 -0.2821  0.5008
41210SOL     OW25636   9.147   8.238   6.877 -0.0714 -0.7903 -0.4228
41210SOL    HW125637   9.066   8.284   6.858 -1.2633 -2.3769  0.5107
41210SOL    HW225638   9.130   8.148   6.848  0.8601 -1.4396  0.9408
41211SOL     OW25639  10.110   0.613   7.508 -0.5774 -0.0328 -0.4426
41211SOL    HW125640  10.029   0.640   7.464 -0.5439 -3.1559 -2.7683
41211SOL    HW225641  10.095   0.521   7.530  1.9994 -0.4113 -0.0161
41212SOL     OW25642   7.462   5.456   8.962  0.2064  0.2397 -0.2342
41212SOL    HW125643   7.428   5.377   8.919  1.2322  1.5761 -3.9236
41212SOL    HW225644   7.551   5.433   8.989 -0.8660 -1.0021  2.5996
41213SOL     OW25645  10.843   6.332   0.470  0.7198 -0.1605  0.5022
41213SOL    HW125646  10.927   6.377   0.457  0.4380  0.6226  1.2856
41213SOL    HW225647  10.778   6.393   0.434  0.4960 -0.9046 -0.3980
41214SOL     OW25648   3.297  10.860   9.582 -0.0035  0.6185 -0.3198
41214SOL    HW125649   3.226  10.910   9.622 -0.2064  0.0016  0.1108
41214SOL    HW225650   3.337  10.920   9.519 -1.0111  0.9142 -0.6860
41215SOL     OW25651   8.087   3.742   0.791  0.3171  0.5158 -0.1273
41215SOL    HW125652   8.154   3.809   0.806  2.2394 -1.1709 -0.6446
41215SOL    HW225653   8.057   3.757   0.701  1.0656  0.4392 -0.3995
41216SOL     OW25654   5.054   9.720   8.512 -0.1427  0.1145  0.0303
41216SOL    HW125655   4.986   9.733   8.446  1.1274  1.5993 -1.0763
41216SOL    HW225656   5.104   9.645   8.481 -0.8604 -0.5730  0.5041
41217SOL     OW25657   9.799   1.483   0.629  0.0642  0.6597 -0.1558
41217SOL    HW125658   9.759   1.492   0.716 -1.1397  2.7332 -0.8591
41217SOL    HW225659   9.821   1.572   0.603  1.7196 -0.0536 -1.4384
41218SOL     OW25660   0.499   8.689   7.591 -0.3356  0.8862  0.5151
41218SOL    HW125661   0.508   8.764   7.650  1.8186 -0.0869  1.5253
41218SOL    HW225662   0.566   8.627   7.620 -2.0919 -1.5198 -0.1845
41219SOL     OW25663   4.291   9.585   0.600  0.5932 -0.5910 -0.3746
41219SOL    HW125664   4.244   9.612   0.678  0.0990 -0.4504 -0.7149
41219SOL    HW225665   4.378   9.624   0.608  0.5701 -0.6455  0.1372
41220SOL     OW25666   5.342  10.293   3.626  0.0985 -0.2610  1.1924
41220SOL    HW125667   5.313  10.215   3.579  1.3054 -0.1616  0.2209
41220SOL    HW225668   5.337  10.269   3.718  0.1700 -1.3904  0.9197
41221SOL     OW25669  10.081   5.193   9.063 -0.3098 -0.1464 -0.0961
41221SOL    HW125670  10.006   5.149   9.024  0.6819 -0.1106 -2.1929
41221SOL    HW225671  10.143   5.205   8.990  1.0971  1.1802  1.2240
41222SOL     OW25672   2.917   9.625  10.746 -0.6401  0.5541 -0.0845
41222SOL    HW125673   2.959   9.711  10.753  0.1935  0.1337  0.2900
41222SOL    HW225674   2.848   9.626  10.812 -1.0286  1.1385 -0.4805
41223SOL     OW25675   3.246   9.994   6.590  0.3320  0.4862  0.1970
41223SOL    HW125676   3.250  10.086   6.564  2.3351  0.6410  0.8788
41223SOL    HW225677   3.297   9.989   6.670 -0.4463 -1.0973  0.6546
41224SOL     OW25678   0.156   4.840   6.759  0.0153  0.7614 -0.3310
41224SOL    HW125679   0.181   4.796   6.840 -0.1587  1.3151  0.0231
41224SOL    HW225680   0.114   4.921   6.787  1.4728  1.7794 -0.9945
41225SOL     OW25681   2.372   4.941   4.436 -0.0942  0.3047  0.1078
41225SOL    HW125682   2.299   4.950   4.375 -0.2566  0.2570  0.2922
41225SOL    HW225683   2.398   5.031   4.455  0.0014  0.3168 -0.0858
41226SOL     OW25684   9.947   1.783   1.789 -0.0796 -0.0399 -0.2159
41226SOL    HW125685   9.978   1.768   1.699  1.1576 -0.3895  0.2517
41226SOL    HW225686  10.026   1.780   1.843 -0.9831 -1.7888  1.1388
41227SOL     OW25687   8.069   6.999   1.482  0.1650 -0.5977 -0.0590
41227SOL    HW125688   8.141   7.053   1.450  0.9407 -1.5574 -0.0152
41227SOL    HW225689   8.005   6.997   1.411  0.0712  0.4642 -0.0073
41228SOL     OW25690   4.607   3.666   1.372 -0.6671 -0.5588  0.4955
41228SOL    HW125691   4.697   3.676   1.404 -0.0166  0.2417 -1.4540
41228SOL    HW225692   4.568   3.601   1.430  1.5936 -1.9408  0.5710
41229SOL     OW25693   0.838   1.132   4.385  0.5277 -0.3496  0.1603
41229SOL    HW125694   0.896   1.093   4.320  0.3219  0.5605 -0.5905
41229SOL    HW225695   0.750   1.105   4.359  0.4554 -0.0877  0.1243
41230SOL     OW25696   9.268   8.806  10.350  0.1643  0.0144 -0.4945
41230SOL    HW125697   9.272   8.734  10.287 -0.7834 -0.2130 -0.3088
41230SOL    HW225698   9.282   8.885  10.297 -0.7661 -0.1637 -1.0265
41231SOL     OW25699   2.013   1.580   8.386  0.3877  0.2297 -0.2460
41231SOL    HW125700   1.991   1.491   8.359 -0.7072  0.7804 -1.2494
41231SOL    HW225701   2.026   1.574   8.481  1.1113 -1.1350 -0.4091
41232SOL     OW25702   1.051   7.761   1.898 -0.0372  0.6254  0.8037
41232SOL    HW125703   0.975   7.769   1.955 -1.1816  0.8627 -0.6688
41232SOL    HW225704   1.057   7.846   1.853  0.2670  0.1677 -0.0552
41233SOL     OW25705   3.389   0.071   2.453 -0.1623 -0.3802 -1.1141
41233SOL    HW125706   3.480   0.044   2.463 -0.4852 -1.3703 -0.7305
41233SOL    HW225707   3.383   0.154   2.501  0.0500 -1.3980  0.7548
41234SOL     OW25708   4.998   0.358   4.381 -0.5336 -0.7968  1.0189
41234SOL    HW125709   5.092   0.351   4.396 -0.0530  3.8517  1.5305
41234SOL    HW225710   4.961   0.379   4.467 -1.3706  1.4734  0.1682
41235SOL     OW25711   1.565   6.694   3.171  0.5085  0.6523 -0.7361
41235SOL    HW125712   1.588   6.742   3.092  1.3536  1.9325  0.2424
41235SOL    HW225713   1.486   6.738   3.203 -0.7920 -0.8796 -1.6764
41236SOL     OW25714   7.449   0.469   3.379  0.6275  0.6841  0.2675
41236SOL    HW125715   7.385   0.539   3.373 -1.4257 -1.0894  0.3765
41236SOL    HW225716   7.462   0.456   3.473 -2.4774 -1.9311  0.5090
41237SOL     OW25717   3.734   3.955   9.904  0.2459  0.0860 -0.7674
41237SOL    HW125718   3.664   3.988   9.960  0.6158  0.2114 -0.3718
41237SOL    HW225719   3.793   3.910   9.964  0.2811 -0.4045 -1.1596
41238SOL     OW25720   3.494  10.368   3.816  0.1446  0.0971  0.0579
41238SOL    HW125721   3.576  10.399   3.775 -0.8571  2.7845 -0.1063
41238SOL    HW225722   3.475  10.433   3.883 -1.8131 -0.5359  0.1643
41239SOL     OW25723   3.294   0.236  10.323 -0.3931  0.0774  0.3502
41239SOL    HW125724   3.224   0.300  10.327  0.8915  1.7631 -1.8327
41239SOL    HW225725   3.255   0.159  10.282 -0.7521  1.4903 -2.1733
41240SOL     OW25726  10.057   6.469   3.108 -0.0718 -0.2936  0.2514
41240SOL    HW125727  10.147   6.438   3.108  1.0048  2.4355 -1.9284
41240SOL    HW225728  10.063   6.560   3.138 -2.1843 -0.1882  0.5118
41241SOL     OW25729   8.189   5.317   6.324  0.6833  0.1731 -0.0123
41241SOL    HW125730   8.112   5.276   6.285  1.5746 -1.4904 -0.1168
41241SOL    HW225731   8.204   5.269   6.405  2.4940 -0.6314 -0.7482
41242SOL     OW25732   1.117   3.245   3.194 -0.0763 -0.4990  0.6780
41242SOL    HW125733   1.183   3.293   3.245 -1.5723  1.8369  0.5602
41242SOL    HW225734   1.050   3.310   3.175 -1.6031 -2.3726 -0.6872
41243SOL     OW25735   4.316   0.296   4.706 -0.4718  0.4003 -0.2046
41243SOL    HW125736   4.343   0.236   4.636  0.2934  0.0886  0.3500
41243SOL    HW225737   4.351   0.257   4.786 -2.2465  0.1803  0.5190
41244SOL     OW25738   1.547   1.627   8.225  0.2496 -0.2824 -0.0084
41244SOL    HW125739   1.570   1.606   8.316 -0.5958 -2.5786 -0.2497
41244SOL    HW225740   1.458   1.591   8.214  0.6256 -0.7435 -1.9415
41245SOL     OW25741   2.845   7.200   0.400  0.1453  0.7422  0.4387
41245SOL    HW125742   2.870   7.158   0.482 -1.4591  0.9089  1.0461
41245SOL    HW225743   2.883   7.287   0.404  2.3260 -0.1081 -0.2166
41246SOL     OW25744   7.004   9.516   6.669  0.1319 -0.5065  0.5323
41246SOL    HW125745   7.043   9.525   6.756  1.0111 -0.4275  0.1379
41246SOL    HW225746   6.946   9.440   6.677  1.2029 -1.3214  0.8409
41247SOL     OW25747  10.204   9.132   9.358  0.0147  0.5764 -0.5392
41247SOL    HW125748  10.238   9.208   9.309 -2.0530  0.9998 -1.4017
41247SOL    HW225749  10.128   9.103   9.308  0.6167 -1.9826 -0.1081
41248SOL     OW25750   1.696   2.927   1.169  0.0321  0.6940 -0.3060
41248SOL    HW125751   1.632   2.961   1.232 -0.9698  1.3592 -1.6174
41248SOL    HW225752   1.781   2.943   1.211 -0.6103  0.5884  1.1106
41249SOL     OW25753  10.626   5.265   0.552 -0.2525  0.9197 -0.2451
41249SOL    HW125754  10.686   5.338   0.565 -2.0447  2.6606 -1.2625
41249SOL    HW225755  10.642   5.207   0.627  1.1224  2.4079  0.6605
41250SOL     OW25756   4.159   6.281   0.847 -0.4183 -0.0176  0.9641
41250SOL    HW125757   4.113   6.200   0.871 -1.5463  0.4555  0.4403
41250SOL    HW225758   4.250   6.264   0.872 -0.6003 -1.5044  0.7301
41251SOL     OW25759   9.440   3.785   3.106  0.0562  0.1705  0.2999
41251SOL    HW125760   9.359   3.776   3.156 -0.2651  0.0388 -0.2331
41251SOL    HW225761   9.488   3.855   3.150 -0.5107  0.4990  0.3991
41252SOL     OW25762   0.770  10.832   1.059  0.0170  0.0651  0.2148
41252SOL    HW125763   0.734  10.744   1.045  1.7738 -0.7330  0.4817
41252SOL    HW225764   0.815  10.853   0.978  1.4021 -0.1994  0.8875
41253SOL     OW25765   4.781   7.530   9.203  0.1941 -0.6296  0.5059
41253SOL    HW125766   4.718   7.533   9.131  0.3069 -1.0720  0.3860
41253SOL    HW225767   4.865   7.512   9.161  0.6174  1.0830  0.5394
41254SOL     OW25768   1.136   6.304   6.772 -0.0152 -0.0870  0.3066
41254SOL    HW125769   1.185   6.386   6.759 -2.2932  1.1155 -1.5656
41254SOL    HW225770   1.169   6.270   6.855  1.9349  2.0615  0.5427
41255SOL     OW25771   9.756   0.176   6.769  0.6532 -0.3180  0.4372
41255SOL    HW125772   9.762   0.121   6.691 -1.5927  0.5320 -0.4300
41255SOL    HW225773   9.814   0.135   6.832  3.3233 -0.5165 -1.9392
41256SOL     OW25774   5.988   7.457   3.601 -0.6906  0.0213 -0.1503
41256SOL    HW125775   6.016   7.405   3.526  1.5914  0.8717  0.0475
41256SOL    HW225776   5.902   7.420   3.625 -0.6642 -1.4104 -2.0500
41257SOL     OW25777   4.205   9.495   9.650  0.3991 -0.4601 -0.0292
41257SOL    HW125778   4.157   9.568   9.610 -1.5749 -1.0727  1.0935
41257SOL    HW225779   4.138   9.430   9.670  2.0071 -2.3271 -0.3306
41258SOL     OW25780   7.250   2.194   5.808 -0.7137 -0.1385  0.3860
41258SOL    HW125781   7.160   2.197   5.841 -0.1248  0.8099  1.9725
41258SOL    HW225782   7.297   2.141   5.872 -0.1955 -1.0185 -0.6755
41259SOL     OW25783   5.591   6.412   3.105  0.2365  0.2648 -0.3585
41259SOL    HW125784   5.636   6.494   3.084  1.5108 -0.1397  0.6180
41259SOL    HW225785   5.525   6.437   3.170  1.3314  0.3982  0.7482
41260SOL     OW25786   0.859   1.603  10.590 -0.2184  0.0253  0.1257
41260SOL    HW125787   0.898   1.626  10.505  1.1045 -2.6947 -0.1216
41260SOL    HW225788   0.921   1.635  10.655 -0.2751  0.4070 -0.0037
41261SOL     OW25789   0.590   7.739   7.534  0.1296 -0.1846  0.0690
41261SOL    HW125790   0.632   7.653   7.545  0.0601 -0.0108  2.0180
41261SOL    HW225791   0.511   7.720   7.482  0.0964 -1.3246  0.4958
41262SOL     OW25792   5.115   3.023  10.501 -0.4296  0.9134 -0.5674
41262SOL    HW125793   5.123   3.117  10.519 -2.4249  0.8585  0.9696
41262SOL    HW225794   5.021   3.009  10.490 -0.0063 -0.5827 -2.9421
41263SOL     OW25795  10.269   2.927   9.129  0.1643 -0.2022  0.6182
41263SOL    HW125796  10.361   2.910   9.110 -0.0914 -3.1508  1.4707
41263SOL    HW225797  10.265   3.021   9.149  3.2573 -0.2311  1.9564
41264SOL     OW25798   8.675   2.017  10.772 -0.2505  0.1290 -0.0200
41264SOL    HW125799   8.608   1.949  10.766  0.2338 -0.3482 -0.1248
41264SOL    HW225800   8.628   2.094  10.803 -0.9826 -0.0006 -0.7781
41265SOL     OW25801   0.092   2.524   7.989  0.1458  0.0427  0.0464
41265SOL    HW125802   0.057   2.570   7.913  0.7158 -1.2542 -1.0209
41265SOL    HW225803   0.018   2.518   8.049 -0.9782 -0.9487 -1.3737
41266SOL     OW25804   6.081  10.287   5.452  0.4257  0.7130  0.0381
41266SOL    HW125805   6.131  10.367   5.469  1.0240  0.3207  0.1799
41266SOL    HW225806   6.053  10.256   5.538 -0.0994  0.9505 -0.0442
41267SOL     OW25807   0.982  10.190  10.199 -0.2060 -0.1473  0.0889
41267SOL    HW125808   0.923  10.259  10.228 -1.0121 -0.1423 -1.4775
41267SOL    HW225809   1.052  10.236  10.152 -0.5597 -0.3630 -0.6553
41268SOL     OW25810  10.262  10.336   6.917 -0.1815 -0.5918 -0.0426
41268SOL    HW125811  10.356  10.324   6.932 -0.2395 -0.2696  0.6232
41268SOL    HW225812  10.222  10.265   6.968 -0.3569  0.1385  0.8600
41269SOL     OW25813   0.557   1.451   5.280  0.8063  0.7875  0.4729
41269SOL    HW125814   0.518   1.527   5.238 -0.1176  0.2468  0.2992
41269SOL    HW225815   0.489   1.384   5.275  1.5744 -0.0298  0.6778
41270SOL     OW25816   1.709   7.677   4.561 -0.0873 -0.5200  0.0861
41270SOL    HW125817   1.759   7.756   4.580  2.8964 -2.1443 -0.4665
41270SOL    HW225818   1.618   7.703   4.574  0.8235  2.6800  0.9640
41271SOL     OW25819  10.454   7.221   4.874 -0.8429  0.0403  0.5540
41271SOL    HW125820  10.460   7.305   4.828 -1.1353  0.4682  1.2681
41271SOL    HW225821  10.544   7.202   4.900 -0.2516 -1.3664 -2.1229
41272SOL     OW25822   4.188   4.977  10.297  0.4430 -0.3809  0.4286
41272SOL    HW125823   4.263   4.966  10.239 -1.5988  0.3962 -2.5814
41272SOL    HW225824   4.202   5.061  10.340  1.2837 -0.2327 -0.1150
41273SOL     OW25825   4.689  10.646   8.050  0.5208 -0.2802 -0.1380
41273SOL    HW125826   4.683  10.741   8.058 -0.6267 -0.1958 -1.6105
41273SOL    HW225827   4.617  10.622   7.993 -0.4034 -2.2904  1.7348
41274SOL     OW25828  10.775   3.120   0.751 -0.4366  0.0402  0.1260
41274SOL    HW125829  10.734   3.157   0.673  0.3436  1.2136  0.2495
41274SOL    HW225830  10.749   3.027   0.750  1.8842 -0.7625 -3.1275
41275SOL     OW25831   7.103   8.022   2.563  0.6054 -0.4369 -0.8913
41275SOL    HW125832   7.142   7.949   2.516 -0.0746 -0.9027 -0.7470
41275SOL    HW225833   7.098   8.093   2.499  1.0958 -0.5786 -1.0818
41276SOL     OW25834   9.077   6.732   2.253 -0.4798 -0.2847 -0.5860
41276SOL    HW125835   9.003   6.686   2.214 -0.3860 -1.5114  0.5833
41276SOL    HW225836   9.153   6.698   2.207 -0.6806  2.1378 -2.8866
41277SOL     OW25837  10.751   6.165   8.618  0.3863 -0.1783  0.5765
41277SOL    HW125838  10.660   6.195   8.618  0.4202 -0.0740  0.7269
41277SOL    HW225839  10.802   6.245   8.627  0.5347 -0.1244 -0.6434
41278SOL     OW25840   3.337   0.432   8.634  0.1556 -0.0792 -0.3993
41278SOL    HW125841   3.243   0.415   8.638 -0.0964  1.0538 -0.9158
41278SOL    HW225842   3.375   0.352   8.599 -0.3901 -1.2277  1.5264
41279SOL     OW25843   9.497   1.688   1.329 -0.2056  0.1833  0.7891
41279SOL    HW125844   9.468   1.671   1.419  1.4246 -1.4249  1.0697
41279SOL    HW225845   9.476   1.608   1.281 -0.7710  0.9082 -0.2033
41280SOL     OW25846   6.019   2.043   6.271 -0.3142  0.3785 -0.7438
41280SOL    HW125847   6.066   1.960   6.256 -1.6047 -0.8953  1.6401
41280SOL    HW225848   6.085   2.100   6.312 -0.0835 -0.4373  0.0698
41281SOL     OW25849   8.683   2.346   4.224 -0.1378 -0.4333  0.3048
41281SOL    HW125850   8.684   2.251   4.229 -1.0254 -0.4088  1.4733
41281SOL    HW225851   8.612   2.367   4.163  0.0707 -0.5097  0.0337
41282SOL     OW25852   2.257   5.617   0.894 -0.2768  0.1519  0.3291
41282SOL    HW125853   2.209   5.534   0.890 -0.1814 -0.0035  1.8622
41282SOL    HW225854   2.219   5.664   0.968  0.3295  1.0648  0.0846
41283SOL     OW25855  10.960   2.620   0.905  0.1849 -0.3801  0.3810
41283SOL    HW125856  10.988   2.709   0.927  1.3247 -0.5326 -0.3251
41283SOL    HW225857  11.025   2.564   0.947 -1.0305 -0.9492  1.5741
41284SOL     OW25858   9.216  10.156   1.409 -0.0386 -0.1589 -0.3964
41284SOL    HW125859   9.144  10.135   1.468  0.1488 -1.1216 -0.4837
41284SOL    HW225860   9.184  10.228   1.355 -1.7125 -1.8469 -1.8011
41285SOL     OW25861   2.742   9.318   8.316  0.3124  0.0442  0.3444
41285SOL    HW125862   2.732   9.340   8.409 -1.1563  0.1858  0.1853
41285SOL    HW225863   2.802   9.384   8.281  1.5293 -0.4960  1.3454
41286SOL     OW25864   2.612   6.921  10.699 -0.5014  0.5925  0.8215
41286SOL    HW125865   2.630   6.968  10.780  0.9671 -0.2055  1.0054
41286SOL    HW225866   2.627   6.829  10.721 -2.0369  0.1561  0.1407
41287SOL     OW25867   9.515   6.452  11.071 -0.2318 -0.0430 -0.3771
41287SOL    HW125868   9.516   6.510  11.147 -0.1704  0.1577 -0.5293
41287SOL    HW225869   9.533   6.365  11.107  1.9675  0.3330 -0.3762
41288SOL     OW25870   7.691   3.342   1.278  0.4547 -0.1338 -0.1318
41288SOL    HW125871   7.624   3.408   1.259  0.8123 -0.0832 -1.3490
41288SOL    HW225872   7.648   3.279   1.335 -0.4875  0.1564 -0.4992
41289SOL     OW25873   7.103   7.971   1.925 -0.0021  0.3428  0.5023
41289SOL    HW125874   7.178   7.971   1.865  0.7027 -0.0273  1.3536
41289SOL    HW225875   7.027   7.959   1.869  0.5541  0.9763 -0.4121
41290SOL     OW25876   4.765   2.975   1.045 -0.5994 -0.3461 -0.0706
41290SOL    HW125877   4.846   2.991   0.997 -0.5009  2.6484  0.8783
41290SOL    HW225878   4.767   2.881   1.066  1.4546 -0.8266 -2.0251
41291SOL     OW25879   2.171   7.041   9.607 -0.6476 -0.6998 -0.2652
41291SOL    HW125880   2.145   7.070   9.519 -0.8079  1.0315  0.3120
41291SOL    HW225881   2.118   7.095   9.666  0.1304 -1.1873  0.9089
41292SOL     OW25882   3.091  10.891   9.129  0.2473  0.3437  0.5038
41292SOL    HW125883   3.095  10.986   9.118  0.9458  0.3917  1.1674
41292SOL    HW225884   2.998  10.869   9.115  0.3065  0.9449 -1.0055
41293SOL     OW25885   8.337   1.880   5.541 -0.0985  0.0087  0.3469
41293SOL    HW125886   8.266   1.890   5.478 -1.4305 -0.1790  1.7320
41293SOL    HW225887   8.385   1.803   5.512 -0.0792  0.4952 -0.9605
41294SOL     OW25888   1.420   4.391   3.658 -0.1012 -0.3953 -0.0737
41294SOL    HW125889   1.393   4.476   3.691 -1.1389  0.2975 -2.5801
41294SOL    HW225890   1.344   4.357   3.612  0.5361 -2.3783  0.2340
41295SOL     OW25891   1.148   9.360   7.218 -0.1193  0.4666  0.0838
41295SOL    HW125892   1.156   9.455   7.207  2.4939  0.6005  2.1685
41295SOL    HW225893   1.188   9.324   7.139  3.5676  1.2379  1.4116
41296SOL     OW25894  10.606   2.108   9.347 -0.1602 -0.1352 -0.4928
41296SOL    HW125895  10.581   2.118   9.255 -0.6110 -1.2797 -0.5153
41296SOL    HW225896  10.526   2.077   9.390  0.0324  0.4396  0.3014
41297SOL     OW25897   1.727   4.917   7.422 -0.2139 -0.2993  0.6276
41297SOL    HW125898   1.684   4.909   7.507 -3.8090  2.4393 -0.6644
41297SOL    HW225899   1.682   4.854   7.366  0.9481 -0.8656  0.2882
41298SOL     OW25900   5.448   2.591   8.093 -0.2057 -0.6670 -0.3301
41298SOL    HW125901   5.505   2.516   8.110 -1.0329 -1.6005 -1.5590
41298SOL    HW225902   5.407   2.572   8.010  0.6653  1.8396 -1.4480
41299SOL     OW25903   3.345   5.924   3.847 -0.4239  0.9433 -0.4787
41299SOL    HW125904   3.300   5.945   3.766 -0.0443  1.3848 -0.5806
41299SOL    HW225905   3.417   5.867   3.820 -0.1157  1.3346 -0.4993
41300SOL     OW25906  10.896   1.175  10.006  0.4299  0.6297 -0.6449
41300SOL    HW125907  10.889   1.159   9.912 -1.0790 -0.0275 -0.4536
41300SOL    HW225908  10.968   1.237  10.015 -0.1257  1.5819 -2.3424
41301SOL     OW25909   6.541  10.656   0.244  0.6419  0.0502 -0.0500
41301SOL    HW125910   6.527  10.695   0.331 -0.3969 -0.0504 -0.1550
41301SOL    HW225911   6.483  10.706   0.186  1.4142  0.1871 -0.7131
41302SOL     OW25912   3.779   2.854   7.582  0.2175 -0.1431  0.4232
41302SOL    HW125913   3.714   2.811   7.638  0.2225 -0.4607  0.1846
41302SOL    HW225914   3.838   2.784   7.556 -1.9216 -0.8885 -3.1513
41303SOL     OW25915   4.409   9.143   0.510  0.2914  0.6454 -0.3230
41303SOL    HW125916   4.338   9.084   0.482  1.8947 -1.6624  0.2143
41303SOL    HW225917   4.412   9.209   0.441 -1.3409 -0.0920 -1.1797
41304SOL     OW25918  10.670  10.018   3.607 -0.0375  0.3787 -0.1682
41304SOL    HW125919  10.742  10.075   3.633 -0.8747  2.2833 -1.7805
41304SOL    HW225920  10.641  10.052   3.523  0.0917 -3.1246 -1.8162
41305SOL     OW25921   1.524  10.654   7.907  0.2062 -0.8835 -0.2126
41305SOL    HW125922   1.507  10.738   7.866 -0.8093 -2.0943 -2.4189
41305SOL    HW225923   1.611  10.629   7.877  0.8211 -0.3595  1.0256
41306SOL     OW25924   4.136   9.054   2.170 -0.0535 -0.2297 -0.3569
41306SOL    HW125925   4.128   9.105   2.090  0.1210  0.8856  0.3025
41306SOL    HW225926   4.223   9.077   2.204 -0.5563  0.1633  0.7040
41307SOL     OW25927   3.717   7.010   6.515 -0.2779  0.0338  0.1451
41307SOL    HW125928   3.738   7.026   6.423 -0.8688  0.9575  0.1611
41307SOL    HW225929   3.637   7.061   6.530  0.0999  0.2912  1.3136
41308SOL     OW25930   1.545  10.826   1.952  0.0108 -0.3145  0.0911
41308SOL    HW125931   1.592  10.767   2.010 -0.3270 -1.1490 -0.4566
41308SOL    HW225932   1.600  10.903   1.945  0.7200 -0.7864  0.4088
41309SOL     OW25933   4.826   5.742   1.229 -0.8398  0.3398 -0.2937
41309SOL    HW125934   4.810   5.802   1.301  1.7634  1.2150 -0.3318
41309SOL    HW225935   4.803   5.792   1.151 -0.9861  0.4060 -0.2084
41310SOL     OW25936   0.628   3.696   8.488  0.3885 -0.1203 -0.4335
41310SOL    HW125937   0.642   3.689   8.394 -0.8379 -0.7591 -0.5751
41310SOL    HW225938   0.712   3.671   8.527  0.5611 -0.9589 -1.3233
41311SOL     OW25939   5.289   7.681   7.515 -0.0985 -0.8335  0.8014
41311SOL    HW125940   5.337   7.711   7.438  1.3243  1.7225  2.5321
41311SOL    HW225941   5.206   7.728   7.512 -2.4213 -4.6360 -1.7518
41312SOL     OW25942  10.586   8.982   3.131  0.0988 -0.0200 -1.0925
41312SOL    HW125943  10.535   9.020   3.202  0.5848  0.7439 -1.1425
41312SOL    HW225944  10.528   8.918   3.090  0.6224 -2.4815  1.6485
41313SOL     OW25945   2.066   4.708  10.824  0.2457 -0.0578 -0.0195
41313SOL    HW125946   2.098   4.719  10.913 -1.8988 -1.0929  0.9449
41313SOL    HW225947   2.091   4.789  10.779 -0.2035  1.2730  2.0180
41314SOL     OW25948  10.858   9.053  10.831 -0.1203  0.0606  0.1979
41314SOL    HW125949  10.888   9.137  10.797 -0.7934  0.4368  0.5162
41314SOL    HW225950  10.815   9.011  10.756 -0.3163  0.2617  0.1953
41315SOL     OW25951   1.104   0.233   3.452 -0.3438  0.2389 -0.5472
41315SOL    HW125952   1.053   0.222   3.371 -3.8380  1.8436  1.1753
41315SOL    HW225953   1.038   0.231   3.521  2.2942  0.5126  2.1511
41316SOL     OW25954   8.802   6.389  10.609  0.0698  0.0318  0.9293
41316SOL    HW125955   8.750   6.327  10.557  1.2632 -2.3055  2.3197
41316SOL    HW225956   8.767   6.380  10.697 -1.9211  3.9248  0.7606
41317SOL     OW25957   9.268   0.959   2.539  0.0745  0.2719 -0.0766
41317SOL    HW125958   9.245   0.986   2.450  3.1341 -0.0064 -1.0580
41317SOL    HW225959   9.295   1.041   2.582 -1.7567  0.4674  0.7799
41318SOL     OW25960   6.721   5.137   7.390  0.2709  0.0322 -0.1560
41318SOL    HW125961   6.711   5.200   7.461 -0.2998  0.2151 -0.3956
41318SOL    HW225962   6.809   5.100   7.403  1.7490  2.7668 -1.4980
41319SOL     OW25963   2.092   5.412   4.075  0.0407 -0.2810  0.1357
41319SOL    HW125964   2.123   5.492   4.116 -1.7801  0.3453  0.4139
41319SOL    HW225965   2.120   5.420   3.984 -0.8721  1.1419 -0.0615
41320SOL     OW25966   6.923   4.167  10.510  0.0425 -0.1502 -0.2636
41320SOL    HW125967   6.873   4.196  10.585  0.3103 -0.7043  0.1395
41320SOL    HW225968   6.879   4.087  10.480  0.8196 -0.8017  0.2670
41321SOL     OW25969   1.527   7.097   2.706 -0.3387 -0.2561  0.3408
41321SOL    HW125970   1.622   7.110   2.706 -0.5886  1.9527 -0.8926
41321SOL    HW225971   1.512   7.027   2.642  0.3609  0.3908 -0.5439
41322SOL     OW25972   0.772   8.800   9.492  0.4743  0.6141 -0.2498
41322SOL    HW125973   0.805   8.863   9.429  0.3013  0.5141 -0.4422
41322SOL    HW225974   0.817   8.718   9.471 -0.1042  0.4035 -0.7038
41323SOL     OW25975   3.436   8.500  10.044 -0.2332  0.0179  0.3707
41323SOL    HW125976   3.382   8.556  10.100 -0.6363 -0.3465  0.3531
41323SOL    HW225977   3.374   8.436  10.008 -0.2217  0.9150 -1.3787
41324SOL     OW25978   4.574   3.003   1.439 -0.2967 -0.6276 -0.3997
41324SOL    HW125979   4.625   3.083   1.423 -0.4680 -0.6576 -1.1486
41324SOL    HW225980   4.532   2.985   1.355 -4.7768  1.6367  1.0031
41325SOL     OW25981   3.747   1.930   1.774  0.2082 -0.0003 -0.2565
41325SOL    HW125982   3.776   2.021   1.780 -0.0389  0.0236  0.6527
41325SOL    HW225983   3.651   1.934   1.779  0.2409 -0.3863  0.8844
41326SOL     OW25984   7.803   2.446   0.110 -0.4087 -0.2281  0.0859
41326SOL    HW125985   7.818   2.435   0.016  0.2489 -1.3919  0.3028
41326SOL    HW225986   7.872   2.506   0.138 -2.1054  2.1649 -0.5654
41327SOL     OW25987   9.947   3.558   2.367  0.0486 -0.0835 -0.4866
41327SOL    HW125988  10.029   3.559   2.319 -0.7265 -0.3291 -1.8674
41327SOL    HW225989   9.885   3.515   2.308 -0.5825 -1.8545  1.3611
41328SOL     OW25990   7.550  11.062   1.669 -0.8315  0.4120  0.1507
41328SOL    HW125991   7.595  11.133   1.714 -1.0744  1.3008 -0.9652
41328SOL    HW225992   7.565  11.079   1.576 -1.9821 -0.2631 -0.1825
41329SOL     OW25993   3.920   9.617  11.047  0.3958  0.4950  0.2778
41329SOL    HW125994   3.983   9.621  10.975  0.1720  0.9259  0.1047
41329SOL    HW225995   3.973   9.634  11.125  0.6902 -0.2606  0.2518
41330SOL     OW25996   3.489   8.782   8.776 -1.0668  0.9789  0.2219
41330SOL    HW125997   3.419   8.733   8.819 -3.4401  0.4077 -3.7536
41330SOL    HW225998   3.555   8.795   8.844 -4.2443  0.0730  3.8226
41331SOL     OW25999   9.955   1.697  10.023  0.1823  0.2529 -0.0169
41331SOL    HW126000   9.885   1.640  10.057 -0.4153  1.2037  0.3897
41331SOL    HW226001   9.970   1.760  10.094 -0.1847  1.4911 -1.0069
41332SOL     OW26002   4.861   8.758   2.830  0.3837  0.2785 -0.2823
41332SOL    HW126003   4.841   8.765   2.924 -0.9343 -0.0085 -0.5138
41332SOL    HW226004   4.955   8.745   2.826  0.3070 -0.9691  1.0879
41333SOL     OW26005   2.357   8.690  10.237  0.3426 -0.6527 -0.2614
41333SOL    HW126006   2.376   8.739  10.317 -2.3679  1.2573 -0.6412
41333SOL    HW226007   2.406   8.736  10.169 -0.0450 -0.1285 -0.1944
41334SOL     OW26008   9.209   5.177   9.868 -0.0407  0.2392  0.2243
41334SOL    HW126009   9.178   5.135   9.947  0.2016  0.1312  0.2645
41334SOL    HW226010   9.252   5.107   9.819  1.2365  0.6199  0.7458
41335SOL     OW26011   6.310  10.615   4.797 -0.7696  0.7386  0.0528
41335SOL    HW126012   6.337  10.641   4.885 -1.5405 -1.3507  0.9655
41335SOL    HW226013   6.329  10.521   4.793 -1.7571  0.5789 -1.6258
41336SOL     OW26014   7.354   2.181   8.119  0.3273 -0.1543 -0.0066
41336SOL    HW126015   7.275   2.235   8.127  0.6060  0.2741 -0.1262
41336SOL    HW226016   7.321   2.091   8.112 -0.1194 -0.0484  0.6660
41337SOL     OW26017   2.596   6.968   9.767 -0.3609 -0.4785  0.4844
41337SOL    HW126018   2.632   6.950   9.680  1.2598  1.8320  0.5653
41337SOL    HW226019   2.639   6.905   9.824  1.7852  0.6020  0.1660
41338SOL     OW26020   6.503  10.704   3.959  0.0333  0.1703 -0.4613
41338SOL    HW126021   6.556  10.718   3.880 -0.9744  1.3716 -0.9593
41338SOL    HW226022   6.485  10.610   3.960  1.6143 -0.1568 -0.6239
41339SOL     OW26023   8.245   9.879   2.769 -0.5291 -0.0314  0.2606
41339SOL    HW126024   8.168   9.909   2.721  0.9045  1.1499 -1.4337
41339SOL    HW226025   8.273   9.800   2.723 -0.7976 -0.5427  0.9618
41340SOL     OW26026   4.913   9.647   9.641  0.0814  0.1187  1.0525
41340SOL    HW126027   4.835   9.653   9.585  0.8498 -1.3051 -0.2300
41340SOL    HW226028   4.908   9.560   9.680  0.1567  0.6718  2.3702
41341SOL     OW26029   0.033  10.050   3.194  0.3377  0.0920 -0.0264
41341SOL    HW126030   0.016   9.982   3.130 -2.2379  1.4230 -0.9207
41341SOL    HW226031  -0.039  10.042   3.257 -0.7041  2.5626 -0.7681
41342SOL     OW26032   1.009   5.814   1.874 -0.6298 -0.3564 -0.4215
41342SOL    HW126033   1.069   5.833   1.946 -0.1953  0.4203 -0.9703
41342SOL    HW226034   0.965   5.733   1.900 -0.7549  0.1009  0.8844
41343SOL     OW26035   0.006   3.598   9.288  0.2973 -0.7047 -0.6680
41343SOL    HW126036  -0.058   3.668   9.282  1.0817 -0.0131 -1.1629
41343SOL    HW226037   0.079   3.635   9.337 -0.4881 -2.1415  1.7884
41344SOL     OW26038   4.306   3.877  10.832 -0.3330  0.5823  0.1068
41344SOL    HW126039   4.399   3.854  10.835 -0.6903 -1.1873 -0.8425
41344SOL    HW226040   4.302   3.964  10.871  1.6154  0.3926  0.8635
41345SOL     OW26041   8.966   8.516   0.062 -0.2053  0.4507 -0.4530
41345SOL    HW126042   8.928   8.494   0.146 -0.3328  1.1205 -0.3332
41345SOL    HW226043   9.060   8.502   0.074  0.1483  3.2168  0.6986
41346SOL     OW26044   1.360  10.615   9.537 -0.4507 -0.0483  0.7901
41346SOL    HW126045   1.330  10.594   9.625  0.7493 -1.3667  0.9286
41346SOL    HW226046   1.317  10.697   9.516  0.9166  1.5233  3.5047
41347SOL     OW26047  10.328   7.316   3.816  0.1135 -0.0209 -0.3340
41347SOL    HW126048  10.267   7.285   3.750 -1.2167  1.9699 -0.1321
41347SOL    HW226049  10.352   7.404   3.786 -1.2578  1.3228  2.2546
41348SOL     OW26050   9.873   4.708   3.454  0.5816  0.1769  0.4744
41348SOL    HW126051   9.965   4.718   3.432  0.8646 -0.5048  1.2463
41348SOL    HW226052   9.844   4.796   3.479  0.6823  0.6293 -0.9371
41349SOL     OW26053   5.666   7.872  10.392  0.1479 -0.3405  0.2096
41349SOL    HW126054   5.742   7.827  10.429  2.2403  1.4893 -1.5732
41349SOL    HW226055   5.660   7.840  10.302  0.6249  1.5547 -0.5574
41350SOL     OW26056   3.375   1.455   8.331  0.1266  0.5099  0.3293
41350SOL    HW126057   3.379   1.470   8.237 -2.9937  2.5769  0.3827
41350SOL    HW226058   3.430   1.523   8.369 -1.2575  1.8183  0.0527
41351SOL     OW26059  10.872   6.280   0.130  0.1827  0.2913 -0.0982
41351SOL    HW126060  10.782   6.272   0.163 -0.0313  2.8944  0.1035
41351SOL    HW226061  10.925   6.232   0.194 -1.1416 -3.0501 -1.2573
41352SOL     OW26062   7.502  10.447   2.200 -0.5674 -0.3532 -0.1576
41352SOL    HW126063   7.419  10.461   2.155 -1.3014 -0.0569  1.2437
41352SOL    HW226064   7.516  10.527   2.250 -0.1499 -0.9526  0.7070
41353SOL     OW26065   7.619   7.444   4.194  0.4650  0.7642  0.7182
41353SOL    HW126066   7.702   7.490   4.213  0.3863  0.9072  0.7217
41353SOL    HW226067   7.553   7.513   4.198  0.4269  0.7718  0.0525
41354SOL     OW26068   0.035   1.568  10.402  0.4895 -0.1494 -0.2754
41354SOL    HW126069   0.007   1.582  10.492 -3.0935 -0.4524 -1.2234
41354SOL    HW226070   0.062   1.476  10.399  0.0150 -0.3108  0.3197
41355SOL     OW26071   5.206   7.788   0.210  0.3451 -0.2852  0.3844
41355SOL    HW126072   5.113   7.803   0.191  0.9020 -0.3905 -3.0104
41355SOL    HW226073   5.211   7.694   0.229 -0.0556 -0.6740 -1.2628
41356SOL     OW26074  10.948   1.184   4.167  0.3902 -0.3927  0.1613
41356SOL    HW126075  10.969   1.267   4.124  0.5467  0.4839  1.8228
41356SOL    HW226076  10.890   1.139   4.106 -2.1908  2.2862  0.3951
41357SOL     OW26077  10.908   6.933   9.539  0.2249 -0.1965  0.3870
41357SOL    HW126078  10.986   6.883   9.516 -1.0097 -1.3876 -1.4820
41357SOL    HW226079  10.846   6.867   9.571 -0.8674  0.3359 -0.5653
41358SOL     OW26080   8.801   1.368   2.732  0.3829 -0.4439  0.0038
41358SOL    HW126081   8.800   1.383   2.827  1.4467 -0.2030 -0.0118
41358SOL    HW226082   8.854   1.289   2.721 -0.0452 -0.6842 -0.3774
41359SOL     OW26083   2.416   7.050   2.268 -0.0442  0.7082 -0.6345
41359SOL    HW126084   2.381   7.078   2.352 -0.4902  0.2260 -0.6538
41359SOL    HW226085   2.483   7.114   2.247  0.2583  0.6785  0.2184
41360SOL     OW26086   8.585   5.645   9.675  0.5367  0.0372 -0.0027
41360SOL    HW126087   8.552   5.697   9.748 -0.2008 -2.2753  1.4300
41360SOL    HW226088   8.650   5.701   9.633  0.6077  1.6680  2.0936
41361SOL     OW26089   0.343   1.672   8.334  0.6607 -0.6206  0.2082
41361SOL    HW126090   0.339   1.731   8.409  1.2666 -2.1424  1.4808
41361SOL    HW226091   0.369   1.587   8.371  0.0735 -1.6375 -1.5878
41362SOL     OW26092   8.173   4.036   9.649  0.7073 -0.2694  0.1296
41362SOL    HW126093   8.255   4.035   9.698  0.6127  1.3270  0.3987
41362SOL    HW226094   8.164   3.948   9.614  3.3779 -0.0705 -1.2986
41363SOL     OW26095   8.680   2.673   7.432 -0.0531  0.3002 -0.0010
41363SOL    HW126096   8.677   2.589   7.478 -0.3620 -0.0144 -0.5859
41363SOL    HW226097   8.726   2.655   7.350 -0.0738  0.7100 -0.1061
41364SOL     OW26098  10.228   8.773   9.357 -0.5445 -0.0474  0.5876
41364SOL    HW126099  10.171   8.696   9.347 -1.6364  0.8220 -0.1418
41364SOL    HW226100  10.297   8.744   9.416  0.3548 -2.3090 -1.4238
41365SOL     OW26101   3.626   3.989   2.388 -0.1169  0.1484 -0.7440
41365SOL    HW126102   3.574   3.909   2.389  0.6122 -0.3739 -2.1612
41365SOL    HW226103   3.598   4.037   2.466 -0.3684 -1.5931  0.2843
41366SOL     OW26104   8.189   9.422   3.395  0.5634  0.5761 -0.0414
41366SOL    HW126105   8.110   9.473   3.379 -0.2020 -1.2932 -3.0186
41366SOL    HW226106   8.261   9.477   3.366  0.1613  1.4287  0.5504
41367SOL     OW26107   3.863   5.535   7.920 -0.4890  0.2567 -0.1143
41367SOL    HW126108   3.889   5.602   7.855  0.1043  2.3657  2.1400
41367SOL    HW226109   3.768   5.530   7.912 -0.3295 -0.5087 -2.0087
41368SOL     OW26110   4.684   4.988   0.064  0.0165 -0.2106 -0.0679
41368SOL    HW126111   4.754   4.960   0.005 -0.9888 -1.7285 -0.5735
41368SOL    HW226112   4.729   5.006   0.147  1.1620  0.0398 -0.7156
41369SOL     OW26113   1.337   2.455   6.526 -0.0218 -0.1911 -0.1811
41369SOL    HW126114   1.394   2.384   6.496 -1.0725 -0.5048 -1.5645
41369SOL    HW226115   1.273   2.412   6.582  0.0558 -0.1248 -0.0402
41370SOL     OW26116  10.412   4.913   5.720 -0.0323 -0.4155 -0.5046
41370SOL    HW126117  10.429   4.972   5.793 -2.6163 -0.8788  0.5767
41370SOL    HW226118  10.431   4.965   5.641  1.7993  0.4224  0.4363
41371SOL     OW26119  10.803   4.348   6.138 -0.1659  0.5335 -0.2385
41371SOL    HW126120  10.749   4.271   6.119  0.0958  0.6939 -1.7874
41371SOL    HW226121  10.865   4.317   6.205 -0.9385 -0.1929  0.1591
41372SOL     OW26122   1.744   0.058   9.634 -0.0569  0.0461 -0.5884
41372SOL    HW126123   1.789   0.062   9.550  0.0530 -3.3089 -0.8393
41372SOL    HW226124   1.670   0.119   9.626  1.6128  2.0042 -1.9482
41373SOL     OW26125   9.728   1.970   3.664  0.2158  0.5438  0.1773
41373SOL    HW126126   9.668   2.034   3.626 -0.6834 -0.4489 -0.1243
41373SOL    HW226127   9.708   1.970   3.757  0.4484  0.9390  0.2278
41374SOL     OW26128   0.268   2.413   0.725  0.0443 -0.3829 -0.6210
41374SOL    HW126129   0.251   2.499   0.764  3.3231  0.8605 -1.6279
41374SOL    HW226130   0.196   2.401   0.662 -0.9038  1.2511  0.0898
41375SOL     OW26131  10.831   1.190   6.198  0.1221 -0.2080  0.0458
41375SOL    HW126132  10.877   1.270   6.225  0.8954 -0.9647  1.0839
41375SOL    HW226133  10.898   1.122   6.200 -0.6094 -0.9649 -0.4347
41376SOL     OW26134   1.065   3.447   6.975 -0.1274  0.0512  0.0825
41376SOL    HW126135   1.125   3.516   6.948  0.6857 -1.1707 -1.3885
41376SOL    HW226136   1.022   3.420   6.894 -2.5842  0.7667  1.0556
41377SOL     OW26137   8.464   2.660   1.716  0.4839  0.1065  0.7332
41377SOL    HW126138   8.516   2.684   1.639 -1.1018  0.0745 -0.4100
41377SOL    HW226139   8.479   2.566   1.726  0.9248  0.1637  0.6558
41378SOL     OW26140   2.126   7.841   9.929 -0.5142 -0.8244  0.6315
41378SOL    HW126141   2.060   7.782   9.893  1.9532 -2.7792 -1.0603
41378SOL    HW226142   2.129   7.820  10.022 -2.1411 -0.7598  0.7271
41379SOL     OW26143   0.531   6.675   0.738  0.0749 -0.6110  0.8703
41379SOL    HW126144   0.585   6.599   0.715  2.1512  1.4842 -2.0377
41379SOL    HW226145   0.593   6.736   0.778  0.1160  1.8832 -2.5698
41380SOL     OW26146   6.939   5.304   4.650 -0.5977  0.2469  0.2805
41380SOL    HW126147   6.914   5.279   4.739 -0.0500  0.3516  0.4686
41380SOL    HW226148   6.951   5.220   4.604 -4.4287  0.0824 -0.7838
41381SOL     OW26149   3.143   3.965   2.002 -0.1466 -0.0914  0.2519
41381SOL    HW126150   3.087   4.033   1.964 -0.3758 -1.4914 -2.1928
41381SOL    HW226151   3.228   4.007   2.012 -0.8623  1.2178  1.1260
41382SOL     OW26152   1.113   0.431   6.712 -0.2405 -0.1899  0.4871
41382SOL    HW126153   1.132   0.340   6.692  0.9286 -0.0761  0.9877
41382SOL    HW226154   1.018   0.434   6.724 -0.5212 -0.9779 -1.2837
41383SOL     OW26155   5.998   2.831   1.691 -0.5458  0.0403 -0.1304
41383SOL    HW126156   6.003   2.799   1.601 -2.0394  1.5855 -0.8122
41383SOL    HW226157   6.082   2.875   1.706 -0.1286 -0.5810 -0.6064
41384SOL     OW26158   1.090   9.144   2.961  0.0446 -0.4840  0.7751
41384SOL    HW126159   1.122   9.059   2.993  1.5585  0.0498  0.7926
41384SOL    HW226160   1.000   9.149   2.992  0.1683 -1.7600  1.4239
41385SOL     OW26161   6.726   8.507   9.380  0.0609 -0.2354 -0.2933
41385SOL    HW126162   6.748   8.429   9.430 -1.6907 -1.1379 -0.8635
41385SOL    HW226163   6.691   8.568   9.445 -2.6365 -1.5689 -0.3463
41386SOL     OW26164   7.734   8.409   1.102  0.2808 -0.2206 -0.0113
41386SOL    HW126165   7.687   8.380   1.179  0.1746 -1.6413 -0.5869
41386SOL    HW226166   7.671   8.463   1.054  0.2008  0.2789  0.6483
41387SOL     OW26167   9.707   8.422   0.048  0.3988  0.4508 -0.1584
41387SOL    HW126168   9.659   8.472   0.115 -2.1742 -1.4896 -0.3818
41387SOL    HW226169   9.657   8.437  -0.032  1.0676 -0.4440 -0.7536
41388SOL     OW26170   0.582   0.776   5.904  0.1799 -0.5605 -0.5342
41388SOL    HW126171   0.508   0.829   5.876  0.5620  0.1955 -0.1409
41388SOL    HW226172   0.561   0.750   5.994  0.9500  0.7076  0.0275
41389SOL     OW26173   5.560   0.746   2.685 -0.2006  0.3903  0.2256
41389SOL    HW126174   5.613   0.676   2.647  0.5541  1.1859 -0.2161
41389SOL    HW226175   5.517   0.787   2.610 -2.1144 -0.7395  0.6331
41390SOL     OW26176   4.773   1.394   2.220 -0.2537  0.3820 -0.7028
41390SOL    HW126177   4.703   1.447   2.183 -0.4844 -0.1376 -1.0255
41390SOL    HW226178   4.733   1.350   2.294  0.5190  2.3427  0.9711
41391SOL     OW26179   5.060   5.938   8.460  0.0754  0.4658  0.1666
41391SOL    HW126180   5.010   5.914   8.382  0.2868  1.7743 -0.4038
41391SOL    HW226181   5.094   6.025   8.440 -1.1641  1.5179  2.3559
41392SOL     OW26182   0.136   0.657   1.993  0.4535 -0.1133  0.0319
41392SOL    HW126183   0.080   0.702   2.055  0.8014 -1.3816  1.3241
41392SOL    HW226184   0.196   0.724   1.961  0.7477  0.4267  1.6395
41393SOL     OW26185   1.861   5.765   1.959 -0.3523 -0.2445  0.2514
41393SOL    HW126186   1.823   5.677   1.964 -1.7739  0.2220 -1.2504
41393SOL    HW226187   1.795   5.817   1.912  0.8903  1.3820  0.1997
41394SOL     OW26188   3.614   7.828   4.367 -0.0532  0.0695 -0.2117
41394SOL    HW126189   3.660   7.912   4.368  0.7985 -0.3837  0.0625
41394SOL    HW226190   3.684   7.763   4.362 -0.6074 -0.6764  1.1976
41395SOL     OW26191   1.783  10.594   1.199 -0.0017  0.3210 -0.6648
41395SOL    HW126192   1.728  10.521   1.226  0.9741 -0.3832 -0.5349
41395SOL    HW226193   1.734  10.672   1.224 -0.1110 -0.2911  1.1541
41396SOL     OW26194   8.856   6.848   2.060 -0.1045  0.1206 -0.2425
41396SOL    HW126195   8.847   6.892   1.975  0.9037 -0.2074 -0.5258
41396SOL    HW226196   8.778   6.792   2.065 -0.3397  0.3863 -0.8117
41397SOL     OW26197   1.120   6.083   8.192 -0.4648  0.1810  0.6101
41397SOL    HW126198   1.211   6.077   8.161 -0.8589 -2.6772 -0.2948
41397SOL    HW226199   1.086   6.162   8.150  0.5803 -0.6795 -2.0749
41398SOL     OW26200  10.687   1.448   5.383 -0.6959 -0.1958  0.8798
41398SOL    HW126201  10.602   1.491   5.378 -0.7616 -0.4011 -0.0197
41398SOL    HW226202  10.724   1.476   5.467 -2.4088 -1.5385  2.1613
41399SOL     OW26203  10.309   2.199  10.648 -0.6631  0.5207 -0.4209
41399SOL    HW126204  10.342   2.177  10.561 -0.4781  0.0948 -0.2428
41399SOL    HW226205  10.214   2.186  10.641 -0.4737 -1.1472 -0.0823
41400SOL     OW26206   6.752   4.858   4.399  0.2342 -0.0239  0.6484
41400SOL    HW126207   6.814   4.895   4.461 -0.8498  0.4071  1.5012
41400SOL    HW226208   6.783   4.888   4.313  0.0565  1.9208  1.2163
41401SOL     OW26209   6.091   9.789   8.097  0.2785 -0.2302 -0.2078
41401SOL    HW126210   6.044   9.794   8.014  1.0101  4.0389 -0.5674
41401SOL    HW226211   6.026   9.816   8.163  0.2343 -1.7429  0.4128
41402SOL     OW26212   7.884   3.202   0.636 -0.3340  0.5764 -0.7275
41402SOL    HW126213   7.979   3.199   0.647 -0.3301  4.1636  2.3941
41402SOL    HW226214   7.871   3.241   0.549  1.3052  3.2681  0.1024
41403SOL     OW26215   0.744   8.369   0.447 -0.3794 -0.5809 -0.4255
41403SOL    HW126216   0.745   8.314   0.369 -3.1059 -3.0796  1.1083
41403SOL    HW226217   0.713   8.454   0.415 -1.6022 -1.5767 -2.0714
41404SOL     OW26218   8.457   5.532   1.824  0.8447  0.2720  0.3542
41404SOL    HW126219   8.412   5.465   1.773  1.0354 -0.2215  0.8267
41404SOL    HW226220   8.434   5.614   1.781  1.0907 -0.1412 -0.5769
41405SOL     OW26221   3.623   4.366   2.052 -0.4404 -0.0177 -1.1536
41405SOL    HW126222   3.579   4.348   1.969  0.2480 -0.2290 -1.4865
41405SOL    HW226223   3.633   4.461   2.053 -1.4802  0.1010 -0.7606
41406SOL     OW26224   2.123   9.026   1.476 -0.6771 -0.2814 -0.3349
41406SOL    HW126225   2.119   9.049   1.569 -2.0007  0.9725 -0.6718
41406SOL    HW226226   2.200   8.969   1.469  0.6015  1.1449  1.1982
41407SOL     OW26227   5.469   8.714   2.108 -0.1223  0.2420 -0.1325
41407SOL    HW126228   5.555   8.727   2.148 -0.4658 -0.1028  0.7325
41407SOL    HW226229   5.415   8.785   2.143 -0.7899 -0.8289  1.1053
41408SOL     OW26230   1.905   1.904   5.503  0.3316 -0.4450  0.4498
41408SOL    HW126231   1.850   1.928   5.577 -0.7134  1.2331 -0.7970
41408SOL    HW226232   1.948   1.986   5.477  0.4305 -0.9159 -0.9859
41409SOL     OW26233   7.877   3.201   4.904  0.7984 -0.0186  0.4188
41409SOL    HW126234   7.849   3.176   4.816  0.9841  1.0545  0.0470
41409SOL    HW226235   7.926   3.282   4.892  0.3327  0.4578  1.5705
41410SOL     OW26236   6.096   8.877   3.038 -0.2516  0.7339 -0.4557
41410SOL    HW126237   6.038   8.947   3.068 -1.1614 -0.1107 -0.1987
41410SOL    HW226238   6.067   8.799   3.085  1.8998  0.5014  0.6433
41411SOL     OW26239   5.675   2.683   7.400  0.3298  0.0363  0.1182
41411SOL    HW126240   5.652   2.599   7.361  0.1699  0.4135 -0.6112
41411SOL    HW226241   5.768   2.675   7.422  0.5607  0.0150 -0.8498
41412SOL     OW26242   0.929   3.539  11.018  0.4208 -0.1830 -0.2889
41412SOL    HW126243   0.859   3.575  10.963  1.1857 -2.1398 -2.7926
41412SOL    HW226244   1.008   3.547  10.964  1.2116 -2.3595  0.4332
41413SOL     OW26245   3.441   9.781   3.599 -0.2350 -0.6512 -0.5611
41413SOL    HW126246   3.516   9.832   3.566 -0.9765  0.1769 -1.0123
41413SOL    HW226247   3.466   9.690   3.584  1.6296 -0.5395  1.3531
41414SOL     OW26248   4.520   6.192   3.764  0.7696  0.1517  1.0159
41414SOL    HW126249   4.559   6.214   3.680  1.0035  0.5404  1.2245
41414SOL    HW226250   4.434   6.156   3.742  1.3283 -0.9400  0.5364
41415SOL     OW26251   5.829   1.404  10.250 -0.5168  0.1423  0.0830
41415SOL    HW126252   5.837   1.499  10.240 -0.6608  0.2280  0.7424
41415SOL    HW226253   5.914   1.377  10.286 -0.5185  0.0412  0.0088
41416SOL     OW26254   4.311   8.755   1.728 -0.1422  0.2264 -0.5847
41416SOL    HW126255   4.267   8.701   1.793 -1.6001  0.9359 -0.9272
41416SOL    HW226256   4.393   8.709   1.709  1.6090  1.2180  3.5406
41417SOL     OW26257   9.878  10.780   8.519 -0.1143  0.5472 -0.0319
41417SOL    HW126258   9.919  10.695   8.504 -0.1072  0.7035 -0.9098
41417SOL    HW226259   9.875  10.821   8.433  2.9913  2.8766  0.7815
41418SOL     OW26260   5.839   3.468   7.550  0.1359  0.2450 -0.2117
41418SOL    HW126261   5.764   3.459   7.490 -1.2888  1.0066  1.3753
41418SOL    HW226262   5.874   3.379   7.557 -3.0164 -1.0166  1.9154
41419SOL     OW26263   2.439   8.438   2.458  0.1479 -0.4551 -0.8716
41419SOL    HW126264   2.364   8.394   2.418 -0.3155 -1.0487  0.5569
41419SOL    HW226265   2.514   8.383   2.435 -0.2805 -1.4592  0.0239
41420SOL     OW26266   7.816   3.505   5.416 -0.6903 -0.1814 -0.5750
41420SOL    HW126267   7.768   3.424   5.433 -0.2743 -0.2056  0.5639
41420SOL    HW226268   7.885   3.480   5.356 -0.8560 -0.5737 -0.6043
41421SOL     OW26269   8.803   2.687   1.738 -0.4078  0.3394  0.0003
41421SOL    HW126270   8.840   2.761   1.786 -0.4653 -0.2370  0.9669
41421SOL    HW226271   8.765   2.632   1.806  2.4325 -2.2218 -0.2817
41422SOL     OW26272  10.632   8.212   7.132 -0.6225  0.7080  0.4321
41422SOL    HW126273  10.583   8.164   7.199  0.1507  0.7544  1.0427
41422SOL    HW226274  10.675   8.283   7.179 -0.6261  1.1579 -0.2320
41423SOL     OW26275   9.326  10.714   9.297  0.1981 -0.6273 -0.7183
41423SOL    HW126276   9.292  10.629   9.270 -1.8220 -0.2756  0.5025
41423SOL    HW226277   9.255  10.775   9.278  0.9712  0.5246 -0.0150
41424SOL     OW26278   8.440   3.031   8.230  0.5934  0.2435  0.1576
41424SOL    HW126279   8.499   3.072   8.294  1.9878  3.3647 -2.7735
41424SOL    HW226280   8.494   2.966   8.186  0.8507  0.8082 -0.3689
41425SOL     OW26281   8.464   1.048   6.436  0.2929 -0.3101 -0.4394
41425SOL    HW126282   8.503   0.975   6.485 -0.6661  0.7516  2.1280
41425SOL    HW226283   8.532   1.116   6.437 -0.0497  0.0333  0.2659
41426SOL     OW26284   7.663   2.422   6.582  0.0531  0.2871  0.0472
41426SOL    HW126285   7.676   2.467   6.498  0.7275  1.3317  0.6792
41426SOL    HW226286   7.667   2.492   6.647  1.8746 -0.7580  1.1461
41427SOL     OW26287   8.791   3.086   1.986  0.1774  0.5634  0.4395
41427SOL    HW126288   8.880   3.114   1.969  0.8033 -1.2756  0.4133
41427SOL    HW226289   8.770   3.122   2.072  1.4379 -0.0107  1.0180
41428SOL     OW26290   4.424   4.180   6.286 -0.5606 -0.3351  0.2366
41428SOL    HW126291   4.505   4.193   6.335  0.5475  2.9366 -2.0545
41428SOL    HW226292   4.441   4.103   6.231  0.5711 -0.3447  0.5747
41429SOL     OW26293   5.353  10.298  10.460 -0.7925 -0.3983  0.3333
41429SOL    HW126294   5.434  10.326  10.503 -0.7199  1.2297 -0.7844
41429SOL    HW226295   5.305  10.379  10.445 -2.8206 -1.3627  1.2900
41430SOL     OW26296   7.892   2.287   9.645  0.9591  0.0686  0.1435
41430SOL    HW126297   7.920   2.215   9.589 -0.0625 -1.1014  1.0923
41430SOL    HW226298   7.815   2.324   9.602  2.2655  1.5548 -1.0644
41431SOL     OW26299   3.912   6.575   5.224  0.6634 -0.0908 -0.6901
41431SOL    HW126300   3.996   6.538   5.251  0.6688  0.2046 -0.3015
41431SOL    HW226301   3.907   6.660   5.267 -0.0774 -0.3313 -0.2755
41432SOL     OW26302   7.787  10.277   1.117  0.3506  0.0168 -0.5714
41432SOL    HW126303   7.730  10.262   1.192 -1.8240  0.4488 -2.0478
41432SOL    HW226304   7.874  10.289   1.155 -0.1513 -2.4317  1.6558
41433SOL     OW26305   6.382   0.631  11.072  0.1745 -0.2478 -0.1560
41433SOL    HW126306   6.361   0.578  10.995 -0.6718  0.9794 -0.8028
41433SOL    HW226307   6.307   0.689  11.082  0.6925  0.2456  1.0589
41434SOL     OW26308   7.420   6.777   0.087  0.2919 -0.0651 -0.4974
41434SOL    HW126309   7.398   6.720   0.014 -1.0911  0.2890 -0.3767
41434SOL    HW226310   7.391   6.730   0.165 -2.1210  1.2807 -0.4684
41435SOL     OW26311   1.253   6.259  10.559 -0.0661  0.4424  0.3708
41435SOL    HW126312   1.328   6.284  10.614 -0.2211  2.7337 -0.3665
41435SOL    HW226313   1.290   6.198  10.495  0.8003  0.2338  1.0506
41436SOL     OW26314   3.604   1.865   9.595  0.3128  0.2080  0.1779
41436SOL    HW126315   3.546   1.851   9.670  2.5970  1.6072  2.3358
41436SOL    HW226316   3.554   1.923   9.538 -0.5507  1.2370  1.8851
41437SOL     OW26317   3.993  10.769   2.367  0.2252 -0.0247  0.3365
41437SOL    HW126318   3.933  10.695   2.371  0.4749 -0.1602  2.2233
41437SOL    HW226319   4.080  10.729   2.360  0.2253  0.1672 -1.4395
41438SOL     OW26320  10.288   2.653   7.083 -0.3412 -0.1950 -0.4380
41438SOL    HW126321  10.237   2.608   7.015  0.7868 -2.0226 -0.1354
41438SOL    HW226322  10.365   2.686   7.037 -0.9730  1.1468 -0.5781
41439SOL     OW26323   6.951   3.848   3.418  0.5692 -0.1309  0.3302
41439SOL    HW126324   6.892   3.884   3.352 -1.4734 -1.3575  1.3807
41439SOL    HW226325   6.895   3.834   3.495  1.5576 -3.8787  0.5486
41440SOL     OW26326   8.220   5.125   2.790 -0.4584 -0.3004  0.2200
41440SOL    HW126327   8.127   5.128   2.768 -0.1440 -0.4295 -1.2882
41440SOL    HW226328   8.225   5.154   2.881 -1.8843  0.5628  0.0541
41441SOL     OW26329   0.845   5.562   0.653  0.3318 -0.0222 -0.0522
41441SOL    HW126330   0.853   5.529   0.563 -1.3393 -0.1834 -0.1818
41441SOL    HW226331   0.764   5.614   0.652  0.2123 -0.1364  1.3855
41442SOL     OW26332  10.462   6.540   9.288  0.1746 -0.1953  0.2615
41442SOL    HW126333  10.397   6.511   9.351 -0.7914  0.9284 -0.1683
41442SOL    HW226334  10.417   6.607   9.236  0.5991 -1.7123 -2.2657
41443SOL     OW26335  10.663   8.520   1.877 -0.0909 -0.2247 -0.0062
41443SOL    HW126336  10.698   8.605   1.851 -0.6543  0.1559  0.4638
41443SOL    HW226337  10.607   8.494   1.804 -0.1817 -0.0374 -0.0036
41444SOL     OW26338   1.651   3.239   7.529  0.4039  0.0814  0.1328
41444SOL    HW126339   1.642   3.296   7.453 -0.5123  2.9025  2.1857
41444SOL    HW226340   1.715   3.282   7.585 -0.6736 -0.6208  2.0126
41445SOL     OW26341   5.851  11.006   7.635 -0.2633 -0.4478 -0.1546
41445SOL    HW126342   5.904  10.951   7.693 -2.5174 -2.5515  0.0853
41445SOL    HW226343   5.803  10.944   7.581 -1.6179  1.3693 -1.1327
41446SOL     OW26344  10.942   9.161   0.195 -0.0451  0.2972  0.0702
41446SOL    HW126345  11.012   9.101   0.171  0.7820  0.9000  0.8946
41446SOL    HW226346  10.878   9.106   0.240 -0.5469 -0.4150 -1.4401
41447SOL     OW26347   1.834   9.399  10.623 -0.1376 -0.0706 -0.5965
41447SOL    HW126348   1.859   9.386  10.714 -2.8627 -2.0359 -0.0083
41447SOL    HW226349   1.746   9.435  10.626 -0.8303 -1.3982 -2.3830
41448SOL     OW26350   0.823  10.373   5.488  0.1156  0.5345  0.2984
41448SOL    HW126351   0.918  10.374   5.482  0.1101 -0.1471  0.0439
41448SOL    HW226352   0.803  10.428   5.564  0.7407  0.2444  0.6817
41449SOL     OW26353   1.184   8.957   9.435  0.3411  0.1932 -0.5110
41449SOL    HW126354   1.138   8.978   9.353  0.1749  1.3111 -0.1527
41449SOL    HW226355   1.233   9.036   9.455  0.3243 -0.0467  0.5061
41450SOL     OW26356  10.702  10.244   2.973  0.2735  0.0683  0.0032
41450SOL    HW126357  10.691  10.181   3.045 -2.5098  0.8322  0.3360
41450SOL    HW226358  10.623  10.297   2.975 -0.1377 -0.1141 -3.9161
41451SOL     OW26359   6.535  10.832   7.850 -0.3030  0.8021 -0.8118
41451SOL    HW126360   6.455  10.875   7.880  0.8331  0.8613  2.5395
41451SOL    HW226361   6.558  10.878   7.769 -3.3269  1.0788 -1.6400
41452SOL     OW26362   3.163   6.212   5.510 -0.0398  0.8483  0.0697
41452SOL    HW126363   3.234   6.227   5.572 -0.9468  0.5238  1.2079
41452SOL    HW226364   3.143   6.298   5.474  1.5874  0.8051 -1.0273
41453SOL     OW26365   9.699   7.935   2.633 -0.4430  0.2779 -0.4607
41453SOL    HW126366   9.612   7.959   2.666  0.7437  0.9139  2.4369
41453SOL    HW226367   9.741   8.018   2.613 -0.6480 -0.0506 -2.4872
41454SOL     OW26368   0.278  10.010  10.408  0.1603 -0.1758 -0.1671
41454SOL    HW126369   0.248  10.101  10.413  0.6791 -0.0604  1.3068
41454SOL    HW226370   0.237   9.976  10.329 -1.3822  0.8566  0.1437
41455SOL     OW26371   9.171   9.169   4.925 -0.6907 -0.1148 -0.2004
41455SOL    HW126372   9.150   9.262   4.911 -0.2207  0.2180  1.1049
41455SOL    HW226373   9.169   9.130   4.838  0.4866  1.4235 -0.9745
41456SOL     OW26374   4.039   4.873   2.942 -0.5292 -0.5254  0.4850
41456SOL    HW126375   4.084   4.920   2.872  1.9515  0.8835  2.7932
41456SOL    HW226376   3.982   4.939   2.982  0.3522 -0.4026  1.5961
41457SOL     OW26377   1.816   9.443   1.243  0.6113 -0.3113  0.4460
41457SOL    HW126378   1.826   9.522   1.296 -0.5860 -0.4122  0.8558
41457SOL    HW226379   1.753   9.389   1.292 -0.7857 -0.2773 -1.2160
41458SOL     OW26380   6.381   2.658   6.895  0.3389  0.3528  0.5532
41458SOL    HW126381   6.402   2.655   6.802 -1.5469  1.5899  0.0358
41458SOL    HW226382   6.288   2.680   6.898 -0.4028 -2.4432  2.6878
41459SOL     OW26383   7.748   2.181   6.708  0.1179  0.1549  0.0732
41459SOL    HW126384   7.716   2.165   6.620  1.4011 -0.6349 -0.2802
41459SOL    HW226385   7.724   2.272   6.726 -1.0167  0.0238 -0.7002
41460SOL     OW26386  10.413   9.489   6.147  0.1977  0.0972  0.1260
41460SOL    HW126387  10.461   9.456   6.224  1.8502 -0.1357 -0.9370
41460SOL    HW226388  10.427   9.584   6.149 -1.0898  0.2869  0.9457
41461SOL     OW26389   1.426   5.225   1.639 -0.3631  0.4090  0.0075
41461SOL    HW126390   1.453   5.155   1.698  2.3211  0.5660 -0.9068
41461SOL    HW226391   1.411   5.300   1.695 -0.1147 -0.0444  0.6932
41462SOL     OW26392   1.614  11.029   8.912  0.0516  0.3333 -0.2301
41462SOL    HW126393   1.650  10.947   8.878 -1.6566 -0.8330  0.6207
41462SOL    HW226394   1.601  11.084   8.834  3.2050  0.7257 -0.6216
41463SOL     OW26395   5.841   4.378   4.142 -0.5240  0.4965  0.5745
41463SOL    HW126396   5.816   4.287   4.159 -0.0903  0.2821  0.0965
41463SOL    HW226397   5.924   4.388   4.190  0.3791  0.0785 -0.8257
41464SOL     OW26398   7.066   5.554   9.852 -0.5104  0.2791  0.0252
41464SOL    HW126399   7.132   5.582   9.916  0.5407  1.7178 -1.5954
41464SOL    HW226400   7.058   5.628   9.792 -2.1567 -0.6538 -0.9779
41465SOL     OW26401   8.338   6.542   3.840 -0.3267 -1.0253 -0.3852
41465SOL    HW126402   8.334   6.474   3.907 -0.3577  0.7847  1.5629
41465SOL    HW226403   8.429   6.572   3.840  0.0067 -1.8983 -2.1709
41466SOL     OW26404   4.370   1.482   8.615 -0.3184  0.5463  0.4556
41466SOL    HW126405   4.369   1.541   8.690  0.5529  0.9262  0.1857
41466SOL    HW226406   4.289   1.432   8.622  0.0595  0.1090  2.0151
41467SOL     OW26407   3.773   7.180  10.036 -0.0140  0.4272 -0.5923
41467SOL    HW126408   3.745   7.170  10.127 -1.1616 -2.1299 -1.1216
41467SOL    HW226409   3.869   7.180  10.040  0.0404 -2.0938  0.5460
41468SOL     OW26410   2.722   6.187   1.044  0.4291  0.4246 -0.4034
41468SOL    HW126411   2.802   6.228   1.011 -2.1556  3.1587 -4.2345
41468SOL    HW226412   2.729   6.095   1.017  3.2468 -0.1636  1.8103
41469SOL     OW26413   6.905   9.722   9.434  0.4143  0.1915 -0.7661
41469SOL    HW126414   6.988   9.675   9.421 -0.0532 -0.4445 -1.5240
41469SOL    HW226415   6.838   9.657   9.417 -0.2680  1.3374 -2.7276
41470SOL     OW26416   1.640  10.279   3.759 -0.0858 -0.1306 -0.5676
41470SOL    HW126417   1.574  10.236   3.705  1.5207 -1.2198 -1.7510
41470SOL    HW226418   1.715  10.291   3.701  0.9081  0.7511  0.8224
41471SOL     OW26419   9.940   1.812   9.008 -0.2746  0.5655  0.8055
41471SOL    HW126420   9.980   1.767   8.933 -1.6254  1.8365 -0.7493
41471SOL    HW226421   9.856   1.768   9.021 -0.8344  1.4694  0.3820
41472SOL     OW26422   2.401  10.711   4.413 -0.4650  0.1162 -0.0890
41472SOL    HW126423   2.309  10.724   4.438 -0.2651  0.9261  0.2552
41472SOL    HW226424   2.436  10.800   4.404  0.0772 -0.1808 -1.0134
41473SOL     OW26425   1.736   0.103   4.908  0.0355 -0.1631 -0.1481
41473SOL    HW126426   1.829   0.080   4.904  0.6657  1.7373  1.3615
41473SOL    HW226427   1.703   0.060   4.987 -0.4996 -1.1900 -0.9186
41474SOL     OW26428   6.371   5.987   8.573 -0.0918  0.0290  0.0449
41474SOL    HW126429   6.402   6.050   8.637  0.3046  0.1606 -0.2748
41474SOL    HW226430   6.307   5.933   8.621 -0.9837  1.1271  0.1319
41475SOL     OW26431   8.711   2.047   7.804  0.1447 -0.7101  0.8991
41475SOL    HW126432   8.792   2.020   7.848  0.6499 -0.3361  0.2089
41475SOL    HW226433   8.736   2.124   7.754 -0.0978 -1.8463 -1.0690
41476SOL     OW26434   2.738   7.308   2.584 -0.4737 -0.1811  0.6061
41476SOL    HW126435   2.808   7.332   2.645 -0.0128 -1.1116  0.4699
41476SOL    HW226436   2.707   7.224   2.617  0.9967 -1.6080 -1.4136
41477SOL     OW26437   7.784   1.575   8.352  0.4031 -0.0971 -0.6579
41477SOL    HW126438   7.745   1.618   8.428 -2.8518  0.3899 -2.4098
41477SOL    HW226439   7.841   1.641   8.313  0.7929  0.2036  0.3825
41478SOL     OW26440   5.153   9.618   9.841  0.3196 -0.0530 -0.1840
41478SOL    HW126441   5.174   9.596   9.751  0.6600  1.2671 -0.4443
41478SOL    HW226442   5.062   9.588   9.853  0.7023 -1.4368 -0.5259
41479SOL     OW26443   7.456   1.195   9.892  0.0733  0.0316 -0.1275
41479SOL    HW126444   7.510   1.250   9.835 -1.0710  4.3004  2.4379
41479SOL    HW226445   7.517   1.163   9.958  0.3978  0.1629 -0.3600
41480SOL     OW26446   9.393   8.974   9.231  0.0930  0.0679  0.2151
41480SOL    HW126447   9.431   9.041   9.287 -0.6041  0.3447  0.3666
41480SOL    HW226448   9.299   8.975   9.251  0.0957 -1.1144  0.3962
41481SOL     OW26449   5.061   1.730   3.483  0.3297 -0.7287  0.3447
41481SOL    HW126450   4.970   1.751   3.501  0.7972  0.0837  1.9252
41481SOL    HW226451   5.106   1.742   3.567  1.8302 -1.4806 -0.3032
41482SOL     OW26452   8.293   0.077   7.831  0.3114 -0.1367 -0.4880
41482SOL    HW126453   8.211   0.028   7.842  0.8678 -1.2153 -0.9188
41482SOL    HW226454   8.330   0.043   7.750  1.0424  0.5586 -0.4576
41483SOL     OW26455   2.669   1.072   0.570 -0.0533  0.0316 -0.3532
41483SOL    HW126456   2.606   1.045   0.503 -0.0999 -1.5632  0.2803
41483SOL    HW226457   2.684   1.165   0.553 -3.7142  0.8980  0.4233
41484SOL     OW26458   0.851   0.624   9.676 -1.1683  0.6714 -0.2810
41484SOL    HW126459   0.874   0.704   9.723 -1.2558  1.0590 -0.8759
41484SOL    HW226460   0.805   0.570   9.740  0.1267  0.4823  0.5257
41485SOL     OW26461   5.030   6.918   3.982 -0.4004 -0.0459  0.2007
41485SOL    HW126462   5.100   6.871   4.028 -1.8349 -2.8638 -0.2188
41485SOL    HW226463   5.006   6.989   4.041 -0.3863 -1.9178  2.6253
41486SOL     OW26464   8.510   4.738   7.680  0.3000 -0.1336  0.1321
41486SOL    HW126465   8.500   4.642   7.681  1.8283 -0.3123  1.3876
41486SOL    HW226466   8.485   4.765   7.769  1.1163  0.4895  0.1761
41487SOL     OW26467   4.331   5.554   7.204  0.4749  0.1716  0.0222
41487SOL    HW126468   4.284   5.625   7.159 -0.6903  0.2036  1.2092
41487SOL    HW226469   4.423   5.568   7.181  0.0219  0.6295 -1.6985
41488SOL     OW26470   2.961   4.204  10.324 -0.6782  0.0994  0.5032
41488SOL    HW126471   2.920   4.279  10.366 -0.6953 -0.6638  1.8978
41488SOL    HW226472   2.930   4.128  10.374  0.6739 -0.6959  0.1911
41489SOL     OW26473   0.095   3.681   2.723 -0.2803  0.1979 -0.3492
41489SOL    HW126474   0.084   3.701   2.816 -0.5632  0.4403 -0.4349
41489SOL    HW226475   0.136   3.594   2.722 -0.7012 -0.0068 -0.0084
41490SOL     OW26476   8.618   2.730   9.132  0.0298 -0.4457 -0.3057
41490SOL    HW126477   8.692   2.747   9.075 -0.4423 -1.6513 -1.3179
41490SOL    HW226478   8.636   2.782   9.211  0.4585  1.6233 -1.6974
41491SOL     OW26479   3.601   3.494   6.411  0.0037 -0.4767  1.0305
41491SOL    HW126480   3.562   3.513   6.496 -0.8953  0.9149  0.3271
41491SOL    HW226481   3.664   3.564   6.397 -0.9100  0.1663 -0.0772
41492SOL     OW26482   6.605   9.541   8.794 -0.7180 -0.5521 -0.1570
41492SOL    HW126483   6.697   9.541   8.766 -1.2722  1.2625 -2.2611
41492SOL    HW226484   6.602   9.603   8.866 -0.1563 -1.3120  0.5334
41493SOL     OW26485   2.299   6.735   3.552  0.4609  0.1709 -0.2639
41493SOL    HW126486   2.259   6.649   3.565  0.7603 -0.1463 -1.3538
41493SOL    HW226487   2.336   6.757   3.637 -2.5049  0.7529  0.9812
41494SOL     OW26488   7.073   3.420  11.014 -0.0700  0.7816 -0.2830
41494SOL    HW126489   7.075   3.494  10.953  1.7036  0.7196 -0.3579
41494SOL    HW226490   7.127   3.449  11.088 -2.4983  1.0096  1.5225
41495SOL     OW26491   5.779   4.223   5.881  0.9832 -0.3683 -0.0519
41495SOL    HW126492   5.813   4.212   5.792  0.0012 -2.0235 -0.2758
41495SOL    HW226493   5.840   4.175   5.937  1.0673 -0.1503  0.0457
41496SOL     OW26494   3.250   1.503   7.612  0.0540  0.4663 -0.8363
41496SOL    HW126495   3.199   1.452   7.549 -1.4958  1.7749 -0.6996
41496SOL    HW226496   3.206   1.488   7.696 -2.9989  4.8605 -1.2909
41497SOL     OW26497   1.900   4.626   6.004  0.9440  0.4453 -0.1577
41497SOL    HW126498   1.934   4.544   6.040 -0.2295 -0.1915 -0.4574
41497SOL    HW226499   1.870   4.602   5.916 -3.6043  0.0296  1.2721
41498SOL     OW26500   4.883   2.958   5.396 -0.3196  0.2932  0.4090
41498SOL    HW126501   4.895   2.903   5.319 -0.0772  0.2111  0.5048
41498SOL    HW226502   4.865   2.897   5.467 -0.8399  0.3874  0.3599
41499SOL     OW26503   0.243   1.353   7.577 -0.8452  0.1271 -0.0887
41499SOL    HW126504   0.186   1.429   7.562  0.2298  0.6499 -1.9616
41499SOL    HW226505   0.221   1.323   7.665 -1.7864  2.2038  0.4546
41500SOL     OW26506   3.384   7.477   7.481 -0.3495  0.0407  0.1869
41500SOL    HW126507   3.470   7.469   7.524  0.1086 -1.3472 -0.9322
41500SOL    HW226508   3.376   7.571   7.461  2.0908 -0.1259 -2.0076
41501SOL     OW26509   2.708   9.609   1.418 -0.0702 -0.1590 -0.3715
41501SOL    HW126510   2.733   9.539   1.478 -1.6643  0.2849  0.8728
41501SOL    HW226511   2.627   9.579   1.377  0.9356 -0.4158 -2.3028
41502SOL     OW26512   9.769   2.414   0.895 -0.1046  0.1519  0.3401
41502SOL    HW126513   9.750   2.439   0.805 -0.0670  0.8572  0.5198
41502SOL    HW226514   9.713   2.470   0.949 -0.8884 -0.9722  0.7416
41503SOL     OW26515   1.457  10.019   2.862  0.2494 -0.2047 -0.0058
41503SOL    HW126516   1.482  10.086   2.927 -0.5946  1.3624 -1.2247
41503SOL    HW226517   1.371  10.047   2.831  0.4760 -1.1167 -1.5518
41504SOL     OW26518   9.240   2.055   4.226  0.1491  0.3592  0.0400
41504SOL    HW126519   9.321   2.078   4.181  1.1765 -0.2957  1.4866
41504SOL    HW226520   9.267   1.996   4.296 -1.4103  1.2171  1.4239
41505SOL     OW26521   4.883   5.415   1.790  0.4043 -0.1796 -0.4363
41505SOL    HW126522   4.845   5.423   1.878 -0.3526  2.3207 -0.9286
41505SOL    HW226523   4.969   5.456   1.798  0.2266  0.2881 -0.9191
41506SOL     OW26524   9.212   0.605   6.629  0.7852  0.3479 -0.1574
41506SOL    HW126525   9.279   0.668   6.602  0.3034  1.2228  0.5994
41506SOL    HW226526   9.165   0.650   6.700 -0.3924 -0.3583 -0.4630
41507SOL     OW26527   1.313   3.194   4.600  0.2096 -0.2957  0.2042
41507SOL    HW126528   1.373   3.125   4.629  0.2226 -0.0464  0.7985
41507SOL    HW226529   1.233   3.147   4.577  1.2401 -0.8528 -2.5472
41508SOL     OW26530  10.934   7.541   8.701  1.0483 -0.4852  0.0986
41508SOL    HW126531  10.856   7.596   8.709  3.2504  2.7909  1.4920
41508SOL    HW226532  10.900   7.452   8.696 -2.9296  0.8634 -3.4762
41509SOL     OW26533   6.554   6.363   0.781  0.1040 -0.1043 -0.6737
41509SOL    HW126534   6.482   6.317   0.823  0.2058 -1.4694 -1.9037
41509SOL    HW226535   6.625   6.298   0.778  0.8760  0.7238 -0.8322
41510SOL     OW26536   3.769   0.376   4.347 -0.4436  0.6128  0.5590
41510SOL    HW126537   3.741   0.316   4.416  0.9310 -2.3936 -1.3074
41510SOL    HW226538   3.687   0.401   4.303 -0.9438 -1.5063  0.1907
41511SOL     OW26539   3.900  10.561   5.580  0.1759  0.4077  0.0458
41511SOL    HW126540   3.975  10.617   5.560  0.8274  0.1747  1.6863
41511SOL    HW226541   3.932  10.499   5.645 -1.4382  0.3021  0.8045
41512SOL     OW26542   6.232   4.363   6.004  0.2868  0.1941 -0.3978
41512SOL    HW126543   6.157   4.422   6.007 -0.4003 -0.7066  0.7933
41512SOL    HW226544   6.217   4.311   5.924 -1.3557 -1.1931  0.7353
41513SOL     OW26545   3.812   0.085   5.416 -0.0130 -0.4251 -0.5334
41513SOL    HW126546   3.730   0.135   5.414  1.0049  1.4182  0.8220
41513SOL    HW226547   3.829   0.064   5.324 -1.7203 -0.3859 -0.8897
41514SOL     OW26548   1.303   7.094   3.661 -0.3143  0.6665 -0.4239
41514SOL    HW126549   1.208   7.097   3.656 -0.3268 -0.7193 -2.7172
41514SOL    HW226550   1.332   7.170   3.611 -0.2886 -0.2649 -1.8979
41515SOL     OW26551   4.304   7.496   3.113 -0.3695 -0.2613 -0.1115
41515SOL    HW126552   4.381   7.474   3.061  0.5281  0.7583  0.7429
41515SOL    HW226553   4.244   7.538   3.051  1.0732  1.8199 -0.1986
41516SOL     OW26554   1.088   0.534   4.756 -0.0657 -0.5464  0.4131
41516SOL    HW126555   1.020   0.499   4.698  0.4490 -2.4141  0.8397
41516SOL    HW226556   1.049   0.532   4.843 -0.5749  1.5399  0.2659
41517SOL     OW26557   1.232   7.852   3.692  0.3632 -0.1300  0.1604
41517SOL    HW126558   1.297   7.800   3.740  1.8027  2.1541  0.8958
41517SOL    HW226559   1.171   7.881   3.759  0.1742 -0.0358 -0.0524
41518SOL     OW26560   2.923   7.535   8.463  0.6616 -0.1808 -0.5075
41518SOL    HW126561   2.960   7.447   8.454 -2.4616 -1.6247 -0.8343
41518SOL    HW226562   2.922   7.570   8.374  0.0484 -0.7154 -0.7240
41519SOL     OW26563   7.281   6.639   9.300 -0.2009  0.2959 -0.3155
41519SOL    HW126564   7.308   6.548   9.292 -0.7847  0.2108 -1.4270
41519SOL    HW226565   7.186   6.638   9.287 -0.3778  0.9415  0.7370
41520SOL     OW26566   3.767   1.483  10.044 -0.1426 -0.0372  0.4876
41520SOL    HW126567   3.713   1.410  10.074 -0.3896 -0.6225 -1.2613
41520SOL    HW226568   3.706   1.558  10.040 -0.8805 -0.6895 -1.4593
41521SOL     OW26569   9.195   5.691   1.389  0.3352 -0.2886 -0.7281
41521SOL    HW126570   9.180   5.597   1.396  2.6381 -0.7693 -1.3011
41521SOL    HW226571   9.110   5.731   1.407 -0.9011 -2.4971 -1.3221
41522SOL     OW26572   3.542   7.960   6.955 -0.6779 -0.4495 -0.0370
41522SOL    HW126573   3.454   7.996   6.958 -0.6886 -0.3360 -1.1773
41522SOL    HW226574   3.600   8.036   6.944 -0.3458 -0.4401  1.6025
41523SOL     OW26575   2.021   1.520   2.342 -0.2011 -0.1721 -0.4243
41523SOL    HW126576   2.013   1.490   2.433 -0.1607 -0.3154 -0.4677
41523SOL    HW226577   2.035   1.614   2.349 -0.2939 -0.1680 -0.2850
41524SOL     OW26578   8.915   8.746   3.345  0.1917 -0.6077 -0.4302
41524SOL    HW126579   8.844   8.761   3.281  0.5796 -0.5687 -0.8552
41524SOL    HW226580   8.976   8.818   3.330 -0.5095  0.3870  1.1375
41525SOL     OW26581   7.907  10.594   1.585 -0.2919  0.5161 -0.3404
41525SOL    HW126582   7.983  10.561   1.538 -0.9975 -0.9704 -0.4956
41525SOL    HW226583   7.882  10.673   1.537 -0.2733 -0.3088 -1.7807
41526SOL     OW26584   0.455  10.160   8.000 -0.0413 -0.1319 -0.1446
41526SOL    HW126585   0.442  10.253   8.019  0.7505  0.0833 -0.6037
41526SOL    HW226586   0.373  10.119   8.026 -0.4000  0.6943  0.0749
41527SOL     OW26587   8.639   4.620   2.338 -0.1612 -0.0910 -0.0888
41527SOL    HW126588   8.572   4.642   2.272  0.7942  0.7153 -0.8363
41527SOL    HW226589   8.610   4.665   2.417 -1.6421 -1.5538  0.2497
41528SOL     OW26590   8.556   7.421   8.058 -0.9695  0.3699 -0.0021
41528SOL    HW126591   8.628   7.443   7.999 -2.3988  0.6814 -1.7107
41528SOL    HW226592   8.587   7.344   8.105  0.5764  0.6561 -0.4814
41529SOL     OW26593   8.265   8.609   9.085 -0.4762 -0.6332  0.1328
41529SOL    HW126594   8.256   8.517   9.059  0.2282 -0.6271 -0.1420
41529SOL    HW226595   8.188   8.652   9.046 -0.4102 -0.9685 -0.3800
41530SOL     OW26596   0.248  10.173   7.345  0.3322 -0.0959  0.1163
41530SOL    HW126597   0.274  10.096   7.396  0.6381  0.4894  0.8589
41530SOL    HW226598   0.291  10.161   7.260  1.8517  0.1083  0.8198
41531SOL     OW26599  11.060   7.007  10.360  0.1243  0.4902  0.0065
41531SOL    HW126600  11.033   7.049  10.442 -1.2906  2.7489 -1.4947
41531SOL    HW226601  10.978   6.989  10.315  0.8847 -0.6722 -0.9628
41532SOL     OW26602   2.469   1.466   5.040 -0.3936 -0.3628 -0.3347
41532SOL    HW126603   2.562   1.456   5.020 -0.7394  0.0768 -2.3118
41532SOL    HW226604   2.434   1.377   5.035  0.0840 -0.7331  1.6716
41533SOL     OW26605   7.066   0.346   5.505  0.1078 -0.1956  0.5748
41533SOL    HW126606   7.062   0.379   5.415  1.8722  1.9805  1.2026
41533SOL    HW226607   7.081   0.252   5.495  2.2697  0.2565 -1.5101
41534SOL     OW26608   0.454   0.625   9.983 -0.3164  0.0312  0.0986
41534SOL    HW126609   0.390   0.574  10.032 -0.1350 -0.6465 -0.3493
41534SOL    HW226610   0.408   0.706   9.961 -1.6608 -1.1065 -1.6612
41535SOL     OW26611   2.407   2.789   7.763  0.3514 -0.6384 -0.6744
41535SOL    HW126612   2.330   2.748   7.802  1.2997  0.1698  2.3065
41535SOL    HW226613   2.374   2.869   7.722 -0.4966 -0.6001  0.0561
41536SOL     OW26614   2.957   8.851   6.546  0.1318  0.2593  0.2301
41536SOL    HW126615   2.907   8.924   6.582  1.0553  0.7015  0.6719
41536SOL    HW226616   3.042   8.890   6.522  0.6533 -0.6760  0.4994
41537SOL     OW26617   9.006   4.476   0.087  0.3023 -0.4855 -0.7306
41537SOL    HW126618   8.922   4.492   0.130  1.0876 -1.3005  1.1944
41537SOL    HW226619   9.057   4.556   0.104  0.0674 -0.1327 -1.6055
41538SOL     OW26620   8.415   1.404   7.349  0.4252 -0.7168  0.5442
41538SOL    HW126621   8.444   1.357   7.271  0.7931  0.1839  0.1286
41538SOL    HW226622   8.471   1.481   7.353  0.3868 -0.7310  1.6819
41539SOL     OW26623   1.935   3.259   8.504 -0.4128  0.1750 -0.0219
41539SOL    HW126624   1.984   3.177   8.501  0.5047  0.7549 -1.5596
41539SOL    HW226625   1.960   3.298   8.588 -0.1272 -0.6588  0.2925
41540SOL     OW26626   5.638   2.657   3.455 -0.0821 -0.3636 -0.0121
41540SOL    HW126627   5.656   2.730   3.514  1.5347  1.4694 -2.5011
41540SOL    HW226628   5.699   2.588   3.483  2.5804  1.4170 -0.9634
41541SOL     OW26629   9.039   1.380   5.882 -0.5375  0.4035  0.3456
41541SOL    HW126630   9.123   1.372   5.837 -0.7434 -0.3144  0.0737
41541SOL    HW226631   9.058   1.434   5.959  0.3251 -0.3534  0.6772
41542SOL     OW26632   2.687   1.686  10.101  0.1531  0.4574 -0.3443
41542SOL    HW126633   2.594   1.682  10.123  0.6378 -0.5073  1.8340
41542SOL    HW226634   2.702   1.612  10.043 -0.1715 -0.3311  0.5528
41543SOL     OW26635  10.052   1.129   3.481 -0.0380 -0.5490  0.1208
41543SOL    HW126636   9.993   1.197   3.510  0.6745  0.0064  0.2933
41543SOL    HW226637  10.107   1.171   3.415  0.9378 -0.7189  0.8042
41544SOL     OW26638   6.633   5.679  10.219  0.0263 -0.2051  0.4633
41544SOL    HW126639   6.692   5.681  10.144 -0.1318 -0.7413  0.3171
41544SOL    HW226640   6.650   5.761  10.266  2.8897 -1.4940  1.9772
41545SOL     OW26641   5.909   7.325   0.994 -0.4362 -0.3059  0.3239
41545SOL    HW126642   5.956   7.274   1.059 -1.5467 -3.2720 -0.9767
41545SOL    HW226643   5.878   7.402   1.041  0.9153 -1.0621  2.6073
41546SOL     OW26644   2.519   7.688   4.285  0.6799 -1.0214  0.8389
41546SOL    HW126645   2.608   7.723   4.278  0.0138  0.8739  1.2525
41546SOL    HW226646   2.500   7.689   4.379 -0.8313  1.5723  0.6052
41547SOL     OW26647   0.201   1.994   6.129  0.2231 -0.1312  0.3706
41547SOL    HW126648   0.245   1.937   6.193  1.7810  0.3702 -0.2031
41547SOL    HW226649   0.201   2.080   6.171  0.2733 -0.0187  0.1375
41548SOL     OW26650   2.182   8.327   1.848  0.9213 -0.0590 -0.1977
41548SOL    HW126651   2.212   8.287   1.930  0.8539  0.2617 -0.0126
41548SOL    HW226652   2.232   8.284   1.780 -0.3124 -1.6494 -0.1637
41549SOL     OW26653   4.219   8.409  11.056  0.0015  0.4645 -0.3007
41549SOL    HW126654   4.220   8.342  10.988  2.5941  2.3086 -2.3117
41549SOL    HW226655   4.277   8.376  11.124 -1.8899 -0.9940  0.6806
41550SOL     OW26656  10.199   3.585   2.244 -0.0520 -0.3207  0.2039
41550SOL    HW126657  10.274   3.645   2.254 -0.7216  0.4301  0.8960
41550SOL    HW226658  10.146   3.625   2.174 -0.1659 -0.4603  0.2102
41551SOL     OW26659   0.971   6.192   7.544 -0.5359 -0.0147 -0.2780
41551SOL    HW126660   0.937   6.222   7.460 -2.1320 -0.0799  0.3017
41551SOL    HW226661   1.038   6.127   7.521 -1.4668 -0.6002 -1.5123
41552SOL     OW26662  10.891   9.691   8.955 -0.6907 -0.1681 -0.5326
41552SOL    HW126663  10.906   9.775   8.999  2.6053 -0.4494 -0.8190
41552SOL    HW226664  10.816   9.653   9.000  0.0311  1.3266  2.1729
41553SOL     OW26665   1.692   1.799  10.167 -0.0636  0.4077 -0.7510
41553SOL    HW126666   1.629   1.870  10.184  0.7991  0.7995  1.1567
41553SOL    HW226667   1.727   1.818  10.080 -1.5354  0.9744 -1.2593
41554SOL     OW26668   9.943  10.369   9.105 -0.2376 -0.4396 -0.2494
41554SOL    HW126669  10.021  10.421   9.121  1.4032 -2.3767 -1.4834
41554SOL    HW226670   9.971  10.300   9.045 -2.8916 -1.2616 -0.6958
41555SOL     OW26671   5.523   3.368   3.455 -0.1655 -0.2670  0.5399
41555SOL    HW126672   5.517   3.321   3.372 -1.2579 -1.8373  1.4476
41555SOL    HW226673   5.551   3.456   3.431  2.5798 -1.4620 -1.2071
41556SOL     OW26674   1.710   5.859   2.329 -0.0490 -0.0021  0.0525
41556SOL    HW126675   1.712   5.790   2.263 -0.7179 -0.4660  0.5136
41556SOL    HW226676   1.631   5.909   2.310 -1.2954 -1.2792  1.6240
41557SOL     OW26677   3.986   0.144   4.313 -0.2361  0.1266 -0.2907
41557SOL    HW126678   4.001   0.160   4.407 -0.3029  0.0211 -0.2622
41557SOL    HW226679   3.934   0.064   4.311  0.5462 -0.3879 -0.4566
41558SOL     OW26680   9.098   5.797   8.668  0.0837  0.3052  0.1862
41558SOL    HW126681   9.142   5.815   8.584  1.5090 -0.3322  0.7557
41558SOL    HW226682   9.017   5.753   8.643  0.7709 -0.4351 -0.8631
41559SOL     OW26683  10.742   0.857   0.739  0.0155 -0.0665  0.3190
41559SOL    HW126684  10.756   0.919   0.811  0.5620 -0.4804  0.5642
41559SOL    HW226685  10.775   0.903   0.662 -0.1703  0.2026  0.3962
41560SOL     OW26686   7.921   9.224   5.262 -0.0440 -0.1830  0.4026
41560SOL    HW126687   7.901   9.187   5.176  3.1223 -1.2161 -0.0148
41560SOL    HW226688   7.866   9.302   5.269 -1.0710 -0.5980 -2.1286
41561SOL     OW26689   9.192   3.613   5.544 -0.7490 -0.3479  0.0016
41561SOL    HW126690   9.135   3.612   5.467  0.8088 -1.5342 -1.2231
41561SOL    HW226691   9.217   3.704   5.554  1.1649 -0.4428 -2.6866
41562SOL     OW26692  10.804   4.136   5.759  0.4078  0.1969 -0.4386
41562SOL    HW126693  10.899   4.149   5.763  1.0638 -3.5804  2.5069
41562SOL    HW226694  10.774   4.156   5.848 -1.0880 -0.8332 -0.6755
41563SOL     OW26695   7.179   4.362   0.631 -0.1036  0.5634 -0.7621
41563SOL    HW126696   7.141   4.412   0.559 -0.1866  2.1793  0.3652
41563SOL    HW226697   7.245   4.307   0.589 -1.1463  0.3854 -2.2550
41564SOL     OW26698   0.977   8.325   9.469 -0.8230  0.9487 -0.1294
41564SOL    HW126699   1.014   8.280   9.394  0.8900  0.7280  0.7917
41564SOL    HW226700   0.927   8.258   9.516  1.4034 -0.0208  1.0348
41565SOL     OW26701   8.943   4.028  10.516  0.5835  0.0285 -0.4161
41565SOL    HW126702   9.016   3.996  10.570  0.7389 -1.5868 -1.5116
41565SOL    HW226703   8.947   3.974  10.437 -1.3530  0.4369 -0.8235
41566SOL     OW26704   5.221   7.005   9.688 -0.1311  0.0618  0.4469
41566SOL    HW126705   5.250   6.933   9.743  0.1061  0.4439  0.8311
41566SOL    HW226706   5.125   6.998   9.688 -0.1097 -0.2532  0.4751
41567SOL     OW26707   0.192   0.370   9.959 -0.3143 -0.0832  0.5543
41567SOL    HW126708   0.224   0.417  10.036  0.3350  1.5531 -0.6530
41567SOL    HW226709   0.137   0.434   9.914  1.4776 -0.0447 -1.7271
41568SOL     OW26710   4.877   2.701   1.835 -0.3986 -0.0293  0.9076
41568SOL    HW126711   4.830   2.748   1.904 -1.2364 -0.4551  0.6454
41568SOL    HW226712   4.827   2.720   1.755  0.0374 -0.2697  0.5737
41569SOL     OW26713   4.248   5.556   7.906 -0.3087 -0.5313 -0.1126
41569SOL    HW126714   4.191   5.546   7.830  0.1799  0.2872 -0.5965
41569SOL    HW226715   4.215   5.633   7.952 -0.1023 -0.5424  0.0569
41570SOL     OW26716   3.600   8.609  10.909  0.1335  0.0738 -0.2157
41570SOL    HW126717   3.531   8.570  10.963  0.1681 -2.4535 -1.8422
41570SOL    HW226718   3.553   8.654  10.839  0.1230  1.2442  0.5285
41571SOL     OW26719   6.224   5.512   7.846  0.4712 -0.2734 -0.3116
41571SOL    HW126720   6.298   5.568   7.821  0.9640  0.0247  1.6912
41571SOL    HW226721   6.218   5.448   7.775  1.4632  0.8163 -1.4270
41572SOL     OW26722   8.417   6.850   2.609 -0.0000  0.4339  0.0897
41572SOL    HW126723   8.354   6.788   2.571 -1.0980  0.5744  1.5569
41572SOL    HW226724   8.371   6.934   2.606  0.3433  0.6443  0.6649
41573SOL     OW26725   3.967   9.139   0.263 -0.7086  0.1943 -0.0845
41573SOL    HW126726   4.014   9.082   0.324 -1.4862 -0.0281  0.3108
41573SOL    HW226727   3.932   9.209   0.318  2.1384  2.4216 -0.8062
41574SOL     OW26728  10.263   8.739   0.711  0.2563  0.0639 -0.2592
41574SOL    HW126729  10.213   8.724   0.792  1.6901  4.7787  1.9141
41574SOL    HW226730  10.355   8.731   0.738  0.7527  1.3361 -1.4515
41575SOL     OW26731   4.677  10.142   2.819 -0.4126  0.4154  0.0166
41575SOL    HW126732   4.761  10.146   2.773  0.1102 -0.1656  0.8898
41575SOL    HW226733   4.656  10.233   2.840 -0.4678  0.6537 -0.9953
41576SOL     OW26734   9.129   1.789   3.132 -0.1343 -0.1052 -1.3718
41576SOL    HW126735   9.105   1.760   3.220  2.4072 -0.7144 -0.8016
41576SOL    HW226736   9.124   1.884   3.136  0.5045 -0.0946 -0.3685
41577SOL     OW26737   2.290  10.120   9.260  0.0628 -0.5164  0.4484
41577SOL    HW126738   2.340  10.045   9.226 -0.0193 -0.3693 -0.0055
41577SOL    HW226739   2.240  10.084   9.333  1.2957 -0.5299  1.3094
41578SOL     OW26740   0.740   8.839   4.776  0.2404  0.0796 -0.0554
41578SOL    HW126741   0.805   8.888   4.726 -1.4979  2.5036 -0.1689
41578SOL    HW226742   0.686   8.907   4.817 -1.2738 -1.8086  1.2797
41579SOL     OW26743   6.549   0.235   1.455 -0.2652 -0.6071  0.4262
41579SOL    HW126744   6.629   0.211   1.408 -0.6692 -1.8324  0.3433
41579SOL    HW226745   6.536   0.165   1.519  0.8005  1.4831  3.1184
41580SOL     OW26746   3.918  10.252   3.992  0.1152 -0.1041 -0.2851
41580SOL    HW126747   3.938  10.301   4.071 -0.7277  0.4042 -0.3712
41580SOL    HW226748   3.829  10.219   4.006  0.7181 -1.7903 -0.1400
41581SOL     OW26749   7.179   6.551   0.734  0.5385  0.4982  0.2894
41581SOL    HW126750   7.084   6.547   0.725  0.5581  1.0916 -0.2490
41581SOL    HW226751   7.203   6.467   0.773 -0.0467 -0.3795 -1.1360
41582SOL     OW26752   5.290  10.143   4.191  0.7137  0.7925  0.0169
41582SOL    HW126753   5.220  10.119   4.252 -0.3385 -0.0165 -1.4552
41582SOL    HW226754   5.350  10.196   4.244  0.6988 -1.1823  2.1740
41583SOL     OW26755   6.172   9.988   4.750 -0.1321 -0.4862  0.0790
41583SOL    HW126756   6.100   9.926   4.751 -1.6196  1.1548  0.4895
41583SOL    HW226757   6.250   9.935   4.767 -1.1143 -2.4203 -1.1649
41584SOL     OW26758   2.110   4.728   9.411  0.8828  0.0261  0.1457
41584SOL    HW126759   2.044   4.730   9.341  1.1023 -0.0638 -0.0625
41584SOL    HW226760   2.193   4.742   9.367  0.8633  1.7437  0.5848
41585SOL     OW26761   4.169  11.068   5.528 -0.0319 -0.6102  0.0769
41585SOL    HW126762   4.174  11.095   5.436 -0.4669  0.9252  0.4740
41585SOL    HW226763   4.247  11.014   5.541  1.3836  1.1486 -0.5898
41586SOL     OW26764   8.079   9.362   3.634  0.0200  0.0153  0.0085
41586SOL    HW126765   8.116   9.374   3.547 -0.5169  0.4682 -0.1585
41586SOL    HW226766   8.087   9.267   3.650 -2.9854 -0.7276 -1.9829
41587SOL     OW26767   1.580   0.841   8.267 -0.3726 -0.4211 -0.2406
41587SOL    HW126768   1.651   0.792   8.309  1.1862  2.8805  1.3553
41587SOL    HW226769   1.624   0.907   8.214 -2.1336  1.8521  0.9240
41588SOL     OW26770   2.245   8.056   3.184  0.7481 -0.1383 -0.9202
41588SOL    HW126771   2.291   8.057   3.269  0.9630 -1.9514 -0.9776
41588SOL    HW226772   2.153   8.044   3.207  0.7077  0.1660 -0.9205
41589SOL     OW26773   2.192   8.245   3.504 -0.3911  0.1750  0.0388
41589SOL    HW126774   2.220   8.319   3.558  1.0154  0.3869 -0.9114
41589SOL    HW226775   2.264   8.183   3.508 -0.6011 -0.1564 -0.9165
41590SOL     OW26776   9.760   9.692   6.771 -1.0716  0.1437 -0.1744
41590SOL    HW126777   9.801   9.702   6.685 -1.1353  0.9705 -0.1147
41590SOL    HW226778   9.813   9.627   6.816 -1.0896 -0.3643 -0.8709
41591SOL     OW26779   6.851   0.485   6.557  0.1603  0.2339  0.5214
41591SOL    HW126780   6.931   0.516   6.513  1.5903 -2.7226  0.8469
41591SOL    HW226781   6.812   0.565   6.592  2.8713  1.8556  0.1906
41592SOL     OW26782  10.852  11.096   9.973  0.3679 -0.5312  0.0353
41592SOL    HW126783  10.886  11.018   9.929  2.8907  0.6692 -0.3818
41592SOL    HW226784  10.793  11.136   9.909  0.8792 -0.8933 -0.6801
41593SOL     OW26785   2.893   3.929   4.336 -0.3034 -0.0858  0.0100
41593SOL    HW126786   2.916   4.020   4.349  2.6247 -0.8428  0.8871
41593SOL    HW226787   2.879   3.894   4.424 -0.0499 -0.7721 -0.2096
41594SOL     OW26788   8.921   7.985   3.383 -1.0722  0.4856  0.1046
41594SOL    HW126789   8.975   7.991   3.463  0.7685 -1.6016 -0.8541
41594SOL    HW226790   8.970   8.036   3.318 -2.4109  1.9265  0.1743
41595SOL     OW26791  10.194  10.408   6.040  0.3382  0.7310 -0.9949
41595SOL    HW126792  10.250  10.479   6.009  3.2176 -0.2448  1.5384
41595SOL    HW226793  10.174  10.431   6.130 -2.4767  0.4060 -1.4299
41596SOL     OW26794   9.277   3.542   3.518  0.9973 -0.2826  0.0113
41596SOL    HW126795   9.359   3.538   3.469  1.9637 -2.6054  1.6444
41596SOL    HW226796   9.296   3.598   3.593 -0.0046  1.9420 -1.2914
41597SOL     OW26797   9.742   0.851   5.467  0.5279 -0.1748 -0.0380
41597SOL    HW126798   9.712   0.811   5.386 -0.4276 -1.2380  0.7977
41597SOL    HW226799   9.672   0.831   5.531  0.3885  2.1586  0.6316
41598SOL     OW26800   4.578   8.098   3.967  0.1261  0.5343  0.2044
41598SOL    HW126801   4.584   8.050   3.884 -1.1742  3.9313 -2.0490
41598SOL    HW226802   4.661   8.145   3.973 -0.0380  0.7796  0.5512
41599SOL     OW26803   2.763   0.467   4.025 -0.2541  0.1208  0.5240
41599SOL    HW126804   2.799   0.412   3.955  0.4402 -1.2537  1.8877
41599SOL    HW226805   2.833   0.472   4.090 -1.3981  0.0560  1.8151
41600SOL     OW26806   4.789   9.190   3.366 -0.0022 -0.2659  0.7278
41600SOL    HW126807   4.818   9.165   3.278 -0.0374 -0.0322  0.6500
41600SOL    HW226808   4.702   9.150   3.375 -1.8952  3.0761 -0.9289
41601SOL     OW26809   8.676  10.112   7.722 -0.5658 -0.3745 -0.4523
41601SOL    HW126810   8.662  10.200   7.757 -2.5946 -0.8589  0.0975
41601SOL    HW226811   8.734  10.125   7.647 -0.2650  1.3408  0.0301
41602SOL     OW26812   0.539   3.077   7.101 -0.2095 -0.5218 -0.0576
41602SOL    HW126813   0.591   3.084   7.021  2.3668 -1.7591  1.4209
41602SOL    HW226814   0.498   2.991   7.096 -1.2924  0.0036 -0.6907
41603SOL     OW26815   6.763   5.550   9.891  0.0753  0.1562  0.0118
41603SOL    HW126816   6.717   5.554   9.808 -0.3212  0.3649  0.2382
41603SOL    HW226817   6.855   5.538   9.867  0.2040  1.9315 -0.5138
41604SOL     OW26818   0.910   7.019   4.131 -0.2599  0.3304 -0.0775
41604SOL    HW126819   0.829   6.970   4.145 -0.2475  0.1250 -0.6751
41604SOL    HW226820   0.885   7.111   4.140 -0.6375  0.2855 -0.5885
41605SOL     OW26821   6.558   9.528   3.502 -0.1398 -0.3971  0.9470
41605SOL    HW126822   6.534   9.608   3.456  1.1619 -1.0210 -0.9582
41605SOL    HW226823   6.481   9.505   3.554 -1.2581  0.9828 -0.0511
41606SOL     OW26824   9.116   9.302   5.913 -0.1893  0.1111  0.2263
41606SOL    HW126825   9.060   9.379   5.900  2.4891  2.2053  0.2750
41606SOL    HW226826   9.134   9.270   5.825 -1.3803 -0.6124  0.2101
41607SOL     OW26827   2.714   0.196   8.593  0.3378 -0.1884  0.3314
41607SOL    HW126828   2.772   0.265   8.628 -1.0853  0.6980  1.0499
41607SOL    HW226829   2.658   0.173   8.667 -0.6781 -0.5274 -0.5220
41608SOL     OW26830   3.880   9.143   2.397  0.1451  0.0799 -0.5163
41608SOL    HW126831   3.868   9.069   2.338 -0.5986  0.0836 -0.3852
41608SOL    HW226832   3.815   9.207   2.368  1.0931  0.8836 -0.9327
41609SOL     OW26833   4.559   4.212   6.677 -0.4485 -0.2005 -0.2554
41609SOL    HW126834   4.509   4.293   6.672  0.9272  0.8208  1.4991
41609SOL    HW226835   4.498   4.149   6.716 -0.9867  0.4617 -0.0004
41610SOL     OW26836   9.478   6.412   5.865  0.4630 -0.0785 -0.4245
41610SOL    HW126837   9.544   6.426   5.796  1.6203 -0.2383  0.6132
41610SOL    HW226838   9.406   6.368   5.820  0.6537  0.9076 -1.7908
41611SOL     OW26839   1.648   7.465   2.764  0.1041  0.2599 -0.3102
41611SOL    HW126840   1.728   7.469   2.710  0.6143  1.6129  0.4733
41611SOL    HW226841   1.580   7.436   2.704  0.9530  0.2808 -1.3216
41612SOL     OW26842   9.605   1.691   5.464  0.3244  0.6643  0.6542
41612SOL    HW126843   9.606   1.597   5.480 -0.3466  0.3951 -0.7370
41612SOL    HW226844   9.541   1.703   5.393 -0.2440  2.2577  1.3826
41613SOL     OW26845   8.479   6.737   9.006  0.6766 -0.1161 -0.1493
41613SOL    HW126846   8.532   6.690   8.942  0.1287  0.6023 -1.1581
41613SOL    HW226847   8.404   6.680   9.022  0.8857 -0.3602 -0.0377
41614SOL     OW26848   1.096   5.938   9.853  0.4787  0.6811 -0.5538
41614SOL    HW126849   1.157   6.012   9.855 -1.8444  2.7234  1.0727
41614SOL    HW226850   1.100   5.902   9.942 -0.6134  0.8152 -0.4411
41615SOL     OW26851   2.000   0.977   7.795  0.2125  0.5636  0.1906
41615SOL    HW126852   2.079   0.930   7.767 -0.8457  0.2908 -2.7386
41615SOL    HW226853   1.929   0.913   7.786 -0.4126  0.7219  3.0006
41616SOL     OW26854   0.715  10.149   3.694 -0.0895 -0.3687 -0.3666
41616SOL    HW126855   0.671  10.144   3.609 -0.9857  0.7214  0.0059
41616SOL    HW226856   0.804  10.177   3.674 -0.4473  0.4062 -0.9284
41617SOL     OW26857   3.336   7.493  10.366  0.5806  0.3024 -0.8122
41617SOL    HW126858   3.316   7.584  10.345 -2.9056  0.4417  2.0383
41617SOL    HW226859   3.260   7.444  10.336 -0.5919 -0.6002  3.0202
41618SOL     OW26860   8.502   0.082   4.870  0.1990 -0.0472 -0.7051
41618SOL    HW126861   8.569   0.149   4.883 -0.1327  0.5756 -2.0608
41618SOL    HW226862   8.530   0.035   4.791 -0.3553 -0.5435 -0.6167
41619SOL     OW26863   7.733   4.921   7.839 -0.2488 -0.0733 -0.4361
41619SOL    HW126864   7.681   4.908   7.759 -2.0977  0.0553  0.6896
41619SOL    HW226865   7.704   4.851   7.897 -0.5812  1.1432  0.9147
41620SOL     OW26866   1.069   9.058   1.325  0.4385 -0.3527  0.2887
41620SOL    HW126867   1.026   8.974   1.339  1.2110 -1.3046 -2.3173
41620SOL    HW226868   1.160   9.035   1.306  1.2170  1.2888  1.7861
41621SOL     OW26869   5.841   8.722   3.742 -0.4206  0.8173  0.4706
41621SOL    HW126870   5.750   8.697   3.758 -0.7990  0.9254 -1.3683
41621SOL    HW226871   5.869   8.665   3.671  1.0146  0.7100  1.0908
41622SOL     OW26872   3.230   9.034   3.213  0.0233 -0.3221  0.4365
41622SOL    HW126873   3.300   8.969   3.214 -0.4231 -0.9757 -2.4427
41622SOL    HW226874   3.190   9.028   3.300  1.4242 -2.2333  1.0172
41623SOL     OW26875   4.674  10.975   3.322  0.1872 -0.2321 -0.3165
41623SOL    HW126876   4.769  10.986   3.329 -0.0046  0.6831  1.2705
41623SOL    HW226877   4.650  10.929   3.403 -0.4923 -2.4658 -1.6947
41624SOL     OW26878   4.027   7.565   3.451 -0.3791  0.2846 -0.4232
41624SOL    HW126879   4.050   7.475   3.472  2.2562  1.0021  0.1114
41624SOL    HW226880   4.040   7.613   3.533 -1.9874  1.1530 -0.6318
41625SOL     OW26881   1.160   6.772   2.670  0.4900  0.2574  0.3783
41625SOL    HW126882   1.142   6.853   2.622 -1.4261 -0.0586  0.4830
41625SOL    HW226883   1.225   6.797   2.736  0.6406  1.4770 -0.2006
41626SOL     OW26884   8.046   6.762   9.493 -0.5711 -0.4074  0.2213
41626SOL    HW126885   7.959   6.752   9.454 -1.5450  1.4919  1.7407
41626SOL    HW226886   8.067   6.854   9.482  1.0199 -0.7096  0.4256
41627SOL     OW26887   0.185   8.012   4.356 -0.1732 -0.3343  0.0392
41627SOL    HW126888   0.176   8.103   4.329 -1.4920 -0.9162 -1.6571
41627SOL    HW226889   0.215   8.017   4.447 -0.0746  1.7720 -0.0599
41628SOL     OW26890   2.955   6.222   8.332 -0.0020 -0.6640 -0.2287
41628SOL    HW126891   2.866   6.256   8.332  0.4239  0.4985 -1.2166
41628SOL    HW226892   2.963   6.178   8.417 -1.4575 -0.6734 -0.0665
41629SOL     OW26893   2.955   8.965   2.432 -0.2872  0.2061 -0.3979
41629SOL    HW126894   2.962   8.914   2.513  0.4674  1.1367  0.1587
41629SOL    HW226895   3.043   9.003   2.421 -0.6451  0.8358 -1.1502
41630SOL     OW26896   6.326   4.255   3.556 -0.2234  0.4092  0.2572
41630SOL    HW126897   6.275   4.309   3.495  1.5951 -1.1601 -2.9108
41630SOL    HW226898   6.275   4.174   3.565 -0.4471  0.6039  0.8506
41631SOL     OW26899   4.032   3.373   8.598 -0.8446  0.5825 -0.4720
41631SOL    HW126900   4.024   3.291   8.549  6.8463 -1.2819  0.1406
41631SOL    HW226901   4.050   3.439   8.532  2.0395 -0.3860 -0.7922
41632SOL     OW26902   8.952   3.981   4.469  0.2630  0.4382  0.4884
41632SOL    HW126903   8.934   4.000   4.377  0.9444 -2.1546 -0.2680
41632SOL    HW226904   8.870   4.002   4.514 -0.1674  1.5166 -0.7194
41633SOL     OW26905   3.500   5.924   4.986 -0.9082 -0.3523 -0.2589
41633SOL    HW126906   3.492   5.845   4.932 -0.7721 -0.8917  0.4999
41633SOL    HW226907   3.426   5.920   5.046 -2.0350  1.1090 -1.4676
41634SOL     OW26908  10.605   8.762  10.527 -0.8660  0.0530  0.2674
41634SOL    HW126909  10.613   8.819  10.451 -1.4929 -0.6097 -0.3019
41634SOL    HW226910  10.519   8.782  10.564 -1.4809 -1.1251 -0.4559
41635SOL     OW26911   9.297   4.952   4.902  0.0922 -0.1063 -0.0850
41635SOL    HW126912   9.240   5.028   4.915 -0.1067 -0.2346 -0.1955
41635SOL    HW226913   9.238   4.884   4.870  0.6678  0.4339 -2.4891
41636SOL     OW26914  10.019   7.709   1.678  0.4065  1.6305  0.2275
41636SOL    HW126915  10.081   7.645   1.713  0.1596  2.0196  1.4258
41636SOL    HW226916   9.937   7.660   1.667 -0.2948  2.0959  2.8461
41637SOL     OW26917   3.698   4.375   4.463 -0.3683  0.3299  0.1212
41637SOL    HW126918   3.735   4.286   4.463 -0.8265  0.1385 -0.0004
41637SOL    HW226919   3.775   4.432   4.468 -0.0108 -0.0505 -0.7941
41638SOL     OW26920   9.643   9.164   1.236 -0.0773  0.3867  0.8839
41638SOL    HW126921   9.596   9.082   1.217 -2.5341  1.5826  1.3490
41638SOL    HW226922   9.703   9.140   1.307 -0.0720 -1.2164  0.3876
41639SOL     OW26923  10.216   4.130   4.451 -0.0413  0.0507  0.1543
41639SOL    HW126924  10.140   4.187   4.445  0.1432  0.2955  0.1487
41639SOL    HW226925  10.193   4.054   4.397 -1.4067 -1.1528  2.2761
41640SOL     OW26926  10.430   0.671   2.576  0.4632  0.6280 -0.8731
41640SOL    HW126927  10.427   0.576   2.586  0.7189  0.4283 -2.4487
41640SOL    HW226928  10.494   0.700   2.641 -0.0964 -0.1897  0.0670
41641SOL     OW26929   7.073   9.634   2.963 -0.0451  0.2832 -0.5690
41641SOL    HW126930   7.116   9.683   2.893 -1.3553 -0.0957 -1.6783
41641SOL    HW226931   7.066   9.544   2.930  0.1275 -0.1190  0.4292
41642SOL     OW26932   5.417   2.464   6.943 -0.4442  0.1603 -0.2648
41642SOL    HW126933   5.346   2.483   7.004 -1.3366 -0.8584 -0.9410
41642SOL    HW226934   5.452   2.380   6.972 -0.9560 -0.3950 -1.1863
41643SOL     OW26935   0.240   9.394   1.524  0.1726  0.0575 -0.0763
41643SOL    HW126936   0.284   9.338   1.460  0.2112 -1.8084  1.4824
41643SOL    HW226937   0.203   9.333   1.588 -0.1934  1.8102  1.4837
41644SOL     OW26938   1.713   9.415   3.645 -0.1037  0.3783  0.1668
41644SOL    HW126939   1.780   9.349   3.660  1.5835  1.6836 -1.1023
41644SOL    HW226940   1.710   9.425   3.550  0.0737  2.4612  0.3299
41645SOL     OW26941   3.532  10.821   5.549  0.3792  0.1256 -0.1623
41645SOL    HW126942   3.545  10.733   5.585 -1.7072  0.0217  0.4685
41645SOL    HW226943   3.549  10.811   5.455  1.1883 -0.6929  0.0523
41646SOL     OW26944   2.890   6.586   4.064 -0.4731 -0.3764 -0.3618
41646SOL    HW126945   2.972   6.602   4.019  0.4291  0.3623  1.4462
41646SOL    HW226946   2.873   6.492   4.051  1.1522 -0.7577 -0.0013
41647SOL     OW26947   2.242   7.384   2.305 -0.5828 -0.6587 -0.2134
41647SOL    HW126948   2.322   7.373   2.254 -0.6413 -2.1493 -0.0314
41647SOL    HW226949   2.255   7.330   2.383 -0.6345  1.2997  1.2316
41648SOL     OW26950   3.256   4.813   9.506  0.2257  0.3979 -0.4464
41648SOL    HW126951   3.178   4.867   9.494 -0.2113  0.2063  1.2236
41648SOL    HW226952   3.314   4.838   9.435 -0.1692  2.6896 -0.0474
41649SOL     OW26953   1.549   5.382   5.729 -0.0153 -0.3304 -0.0336
41649SOL    HW126954   1.460   5.412   5.747  0.3143  0.3790  0.4545
41649SOL    HW226955   1.573   5.426   5.647  0.9623  1.9070  1.3710
41650SOL     OW26956   5.808   4.722   7.871 -0.7557 -0.2227  0.1276
41650SOL    HW126957   5.836   4.751   7.784  0.5402 -2.8644 -0.4316
41650SOL    HW226958   5.712   4.723   7.867 -0.7265  0.9488 -0.8674
41651SOL     OW26959   9.363   1.706   6.487 -0.0336  0.2428  0.0252
41651SOL    HW126960   9.419   1.768   6.441  0.6079 -0.0831  0.3624
41651SOL    HW226961   9.274   1.740   6.474  0.3915  1.9954  1.3127
41652SOL     OW26962   6.576   4.267   4.808  0.3719  1.0153 -0.5494
41652SOL    HW126963   6.581   4.347   4.756 -1.2232  2.3640  1.2490
41652SOL    HW226964   6.590   4.296   4.898 -0.4338 -0.6867  0.1668
41653SOL     OW26965   1.103   6.638   0.585  0.5540  0.2782  0.2962
41653SOL    HW126966   1.187   6.669   0.552  0.4003  2.2661  1.5746
41653SOL    HW226967   1.098   6.547   0.557  2.4183  0.5509 -1.1448
41654SOL     OW26968   4.407   9.660  10.037 -0.1922  0.4190  0.2185
41654SOL    HW126969   4.463   9.725   9.997  0.3783 -0.8475 -1.1209
41654SOL    HW226970   4.446   9.644  10.123 -0.4178  1.8859  0.6223
41655SOL     OW26971   0.618   1.914   5.967  0.0534  0.0165 -0.4683
41655SOL    HW126972   0.534   1.885   5.930  0.0308  0.4209 -0.7544
41655SOL    HW226973   0.664   1.834   5.989  0.0257 -0.2409 -1.3020
41656SOL     OW26974   0.637   0.262   0.095  0.7262 -0.2026 -0.1279
41656SOL    HW126975   0.612   0.257   0.187 -1.3332  0.6577 -0.5852
41656SOL    HW226976   0.557   0.244   0.047  2.1464 -2.5716 -1.8479
41657SOL     OW26977   0.258   2.803   6.286  0.0160 -0.0963 -0.0731
41657SOL    HW126978   0.284   2.826   6.197  0.2509 -1.4127 -0.3639
41657SOL    HW226979   0.336   2.821   6.339 -0.5614  2.0358  0.1430
41658SOL     OW26980   9.870   4.138   5.072 -0.3914  0.4753  0.0030
41658SOL    HW126981   9.922   4.087   5.133 -0.7883 -1.1333 -0.9410
41658SOL    HW226982   9.913   4.127   4.988 -0.2398  2.0984 -0.1760
41659SOL     OW26983   2.159   1.152   0.318  0.4385 -0.6639 -0.0937
41659SOL    HW126984   2.169   1.059   0.298  0.5999 -0.6736  0.0241
41659SOL    HW226985   2.092   1.183   0.258  0.7321 -0.7513 -0.4673
41660SOL     OW26986   6.868   6.195   8.899  0.3861 -0.2250 -0.5992
41660SOL    HW126987   6.922   6.233   8.968 -1.0833  1.4724 -0.3040
41660SOL    HW226988   6.920   6.207   8.819  0.3450  1.7013 -0.3842
41661SOL     OW26989   1.903   6.817   0.995  0.2797  0.8898  0.8816
41661SOL    HW126990   1.873   6.747   1.052  0.6697  0.3169  0.3930
41661SOL    HW226991   1.909   6.777   0.908 -2.1437  2.2065 -0.0038
41662SOL     OW26992   5.457   0.749  10.095  0.1853  0.8978 -0.2257
41662SOL    HW126993   5.536   0.712  10.055 -1.0718 -1.1677 -0.9071
41662SOL    HW226994   5.470   0.736  10.189  0.5295  0.3453 -0.3468
41663SOL     OW26995   3.219   9.631  10.738 -0.5950 -0.4448 -0.3841
41663SOL    HW126996   3.228   9.685  10.816  2.3462 -2.7665  1.1035
41663SOL    HW226997   3.130   9.594  10.744 -2.5595  3.5275 -1.2537
41664SOL     OW26998   2.354   4.811   7.680 -0.6230  0.7721  0.0075
41664SOL    HW126999   2.449   4.824   7.677 -0.7367  1.5563 -0.7714
41664SOL    HW227000   2.322   4.847   7.597 -1.3475 -1.8230 -0.9273
41665SOL     OW27001  10.929   8.114   8.738 -0.2963  0.0932 -0.0353
41665SOL    HW127002  10.976   8.169   8.676  0.6209 -1.2816 -0.6213
41665SOL    HW227003  10.963   8.140   8.824  1.6052 -0.8687 -0.4444
41666SOL     OW27004   7.854   9.432   9.001 -0.2757  0.2072  0.1710
41666SOL    HW127005   7.869   9.519   8.963  0.0480  0.5527  1.0691
41666SOL    HW227006   7.765   9.436   9.034 -0.1284  0.3260  0.5522
41667SOL     OW27007   7.290   8.694   8.595  0.7270 -0.3980 -0.5007
41667SOL    HW127008   7.244   8.611   8.582 -0.3404 -0.1143  1.0991
41667SOL    HW227009   7.263   8.723   8.683  1.8430  1.1526 -0.6213
41668SOL     OW27010   5.608   7.953   2.450  0.5731  0.2213  0.0324
41668SOL    HW127011   5.624   7.904   2.530  1.3470  2.4232  1.2955
41668SOL    HW227012   5.557   7.893   2.395  0.6940 -1.6240  1.8274
41669SOL     OW27013   2.220  10.060   8.554  0.0143 -0.2708  0.3383
41669SOL    HW127014   2.204   9.988   8.616  0.9461 -0.6481  0.1569
41669SOL    HW227015   2.189  10.026   8.470 -0.0820 -0.2413  0.3616
41670SOL     OW27016   5.901   4.805  10.297  0.0334 -1.2025  0.1553
41670SOL    HW127017   5.887   4.882  10.241 -0.8311 -1.7656 -0.4331
41670SOL    HW227018   5.966   4.753  10.250  0.7633 -0.7406  0.6510
41671SOL     OW27019   9.849   0.310   8.760 -0.5885  0.3185  0.3930
41671SOL    HW127020   9.855   0.241   8.827 -0.9921 -0.8005 -0.6948
41671SOL    HW227021   9.826   0.264   8.680 -0.7996  1.7289 -0.3872
41672SOL     OW27022   4.960  10.852   3.127 -0.4417 -0.3341 -0.2397
41672SOL    HW127023   4.957  10.899   3.210 -1.7141 -0.1576 -0.3724
41672SOL    HW227024   4.975  10.921   3.061  1.0091 -0.5203 -0.1498
41673SOL     OW27025  10.532   1.563  10.094  0.4578 -0.3675  0.1806
41673SOL    HW127026  10.583   1.501  10.043 -1.3131 -1.0099 -0.8882
41673SOL    HW227027  10.573   1.648  10.077 -0.7926 -0.3030 -3.5102
41674SOL     OW27028  10.262   2.521   4.866 -0.2143 -0.3052  0.3327
41674SOL    HW127029  10.348   2.543   4.829 -1.1522 -0.5405 -2.1245
41674SOL    HW227030  10.277   2.438   4.912  1.1086  0.2828  1.0349
41675SOL     OW27031   2.290   6.685   5.646  0.1789  0.2240 -0.1480
41675SOL    HW127032   2.246   6.603   5.668 -1.1819  0.4637 -1.7564
41675SOL    HW227033   2.347   6.663   5.572  1.5961  0.2548  0.9124
41676SOL     OW27034   4.506   7.975   4.173 -0.5849  0.1372  0.1726
41676SOL    HW127035   4.516   8.019   4.089  0.1510 -2.1818 -1.0303
41676SOL    HW227036   4.477   8.044   4.233  2.0400  2.6086 -1.1825
41677SOL     OW27037   0.555   8.833   5.565  0.3857 -0.8679 -0.4118
41677SOL    HW127038   0.646   8.856   5.584  0.0285  1.2188 -1.0532
41677SOL    HW227039   0.559   8.787   5.481  0.8705 -1.1905 -0.2203
41678SOL     OW27040   7.969   0.352   3.749  0.1266  0.0458 -0.4968
41678SOL    HW127041   7.883   0.318   3.724 -0.5942  0.5602  1.1722
41678SOL    HW227042   7.986   0.422   3.686 -1.9578  1.7722  0.7125
41679SOL     OW27043   9.518   4.600   8.238  0.1882  0.4819  0.2047
41679SOL    HW127044   9.425   4.575   8.237  0.4458 -0.4924 -0.0154
41679SOL    HW227045   9.549   4.583   8.150  0.9252 -0.5941  0.6447
41680SOL     OW27046  10.312   3.922   3.228  0.3036  0.6233  0.0251
41680SOL    HW127047  10.290   4.015   3.218 -0.7117  0.5063  0.9825
41680SOL    HW227048  10.349   3.897   3.143 -2.1695  1.1803 -1.3278
41681SOL     OW27049  10.794   4.680   3.870  0.6784  0.0494  0.0012
41681SOL    HW127050  10.703   4.655   3.885  1.0391 -1.8396 -0.6436
41681SOL    HW227051  10.790   4.757   3.813 -0.5051 -0.0386 -0.0524
41682SOL     OW27052   8.456   6.693   2.341  0.3805 -0.0948 -0.2327
41682SOL    HW127053   8.520   6.763   2.330 -0.3892  0.7634  0.5417
41682SOL    HW227054   8.506   6.619   2.374  0.7865  0.9870  1.6916
41683SOL     OW27055   2.244   8.749   4.667 -0.1105 -0.5996 -0.1030
41683SOL    HW127056   2.255   8.768   4.761 -1.6504 -0.9141  0.1682
41683SOL    HW227057   2.330   8.717   4.639  0.9028  1.2254  0.7614
41684SOL     OW27058  10.204   9.040  10.020 -0.3714  0.3784  0.3680
41684SOL    HW127059  10.261   9.045  10.097 -0.7243 -0.2028  0.6745
41684SOL    HW227060  10.255   8.992   9.955 -0.2712  0.4162  0.4186
41685SOL     OW27061   4.032   6.371   9.551 -0.2334 -0.1131 -0.2878
41685SOL    HW127062   4.113   6.327   9.576 -1.3005 -0.8909  2.0486
41685SOL    HW227063   4.040   6.459   9.589  0.2546  0.4725 -1.6641
41686SOL     OW27064   0.047   8.342   7.442 -0.4051  0.9376 -0.0945
41686SOL    HW127065   0.013   8.334   7.353 -0.8849  2.7396 -0.1142
41686SOL    HW227066  -0.030   8.362   7.495 -0.1634 -0.3679  0.8043
41687SOL     OW27067   6.675   1.733   5.740 -0.2186 -0.3091 -0.1426
41687SOL    HW127068   6.716   1.683   5.669 -1.2221  2.4996 -2.9197
41687SOL    HW227069   6.585   1.747   5.710 -0.0185  3.0102  0.4663
41688SOL     OW27070   0.645   8.064   6.133  0.0086  0.7508  0.6328
41688SOL    HW127071   0.640   8.146   6.084 -0.3088  0.9487  0.9952
41688SOL    HW227072   0.709   8.011   6.084  2.1728  2.1529  1.7918
41689SOL     OW27073   0.432   9.360   5.994  0.0604  0.1395 -0.5063
41689SOL    HW127074   0.525   9.374   6.011  0.4586 -1.0251 -1.5595
41689SOL    HW227075   0.418   9.268   6.015 -1.1687  0.5940  0.8406
41690SOL     OW27076   6.087  10.654   9.784  0.2548 -0.5611  0.1213
41690SOL    HW127077   6.033  10.718   9.738 -0.6525 -1.7491 -0.5412
41690SOL    HW227078   6.114  10.592   9.716  0.5889 -1.2252  0.8394
41691SOL     OW27079   2.218   5.230   5.152  0.0627  0.6416 -0.0983
41691SOL    HW127080   2.233   5.254   5.060  0.2966 -0.1279 -0.2723
41691SOL    HW227081   2.223   5.134   5.152 -2.2889  0.4769  0.3009
41692SOL     OW27082   1.450   3.392   8.707 -0.0192 -0.6078  0.1933
41692SOL    HW127083   1.530   3.339   8.713 -0.6089 -1.4830  0.6480
41692SOL    HW227084   1.440   3.410   8.614  1.9773  1.5642  0.3093
41693SOL     OW27085   1.492   5.826   6.780  0.5584 -0.6293  0.1749
41693SOL    HW127086   1.413   5.850   6.828  0.6838  1.1994 -0.4483
41693SOL    HW227087   1.467   5.834   6.688  0.9265 -2.0018 -0.0646
41694SOL     OW27088   9.105   7.412   8.775 -0.2746 -0.5619  0.2097
41694SOL    HW127089   9.037   7.472   8.743 -1.3036 -0.5100  2.3238
41694SOL    HW227090   9.174   7.470   8.807 -0.2580 -0.5459  0.1433
41695SOL     OW27091   7.825   9.558   8.221 -0.4028 -0.6528  1.3066
41695SOL    HW127092   7.767   9.544   8.296  0.6216 -0.4275  2.1666
41695SOL    HW227093   7.777   9.522   8.147 -1.5340 -0.6893  2.0319
41696SOL     OW27094   0.331   9.053   0.529  0.1601  0.7738 -0.1165
41696SOL    HW127095   0.426   9.040   0.538  0.1653  0.8047 -0.1255
41696SOL    HW227096   0.319   9.147   0.540  0.2760  0.9485 -1.4085
41697SOL     OW27097   9.034   3.950   6.487 -0.5129  0.1011 -0.6967
41697SOL    HW127098   9.047   3.960   6.581 -0.8987  1.9310 -0.7989
41697SOL    HW227099   9.009   3.859   6.476  2.3949 -0.9984  0.6176
41698SOL     OW27100   8.225   1.230   7.881  0.1716  0.1050  0.4082
41698SOL    HW127101   8.240   1.149   7.930  0.9446  0.0310  0.0559
41698SOL    HW227102   8.256   1.300   7.940  0.7310  0.0450  0.1891
41699SOL     OW27103   3.270   5.319   6.620 -0.6335 -0.6359 -0.0685
41699SOL    HW127104   3.288   5.403   6.579 -0.7022 -0.4467  0.2819
41699SOL    HW227105   3.210   5.275   6.560 -1.2173 -0.1115  0.1241
41700SOL     OW27106   5.996   1.922   9.670 -0.1328 -0.0533  0.7355
41700SOL    HW127107   6.074   1.879   9.707  0.5583  0.8800  0.3961
41700SOL    HW227108   5.925   1.897   9.729  0.7744  0.6548  2.1810
41701SOL     OW27109   0.529   4.413   6.910  0.2605  0.0204 -0.5236
41701SOL    HW127110   0.471   4.483   6.881 -1.6816 -0.6130  1.5649
41701SOL    HW227111   0.607   4.459   6.942 -1.5025  1.4709  2.0785
41702SOL     OW27112   4.011   3.664   7.917 -0.1566  0.0499 -0.1175
41702SOL    HW127113   3.973   3.580   7.892 -0.6057 -0.1960  1.3168
41702SOL    HW227114   4.096   3.666   7.874 -0.7539 -0.4795 -1.3695
41703SOL     OW27115   1.632   6.895   0.177 -0.3982  0.2416  0.2432
41703SOL    HW127116   1.548   6.849   0.181 -1.3491  1.9547  2.2874
41703SOL    HW227117   1.611   6.978   0.134  0.1049  0.9100  1.2535
41704SOL     OW27118   8.622   3.857   8.457 -0.5527 -0.3745 -0.3375
41704SOL    HW127119   8.684   3.930   8.465 -1.3954  0.4250 -0.9253
41704SOL    HW227120   8.577   3.872   8.374 -1.7613 -0.7705  0.2199
41705SOL     OW27121  10.944  10.913   5.639 -0.9482 -0.4691  0.5467
41705SOL    HW127122  10.884  10.859   5.587 -3.1979  2.7464 -0.5334
41705SOL    HW227123  10.931  11.002   5.606  3.1220  0.7469  1.5998
41706SOL     OW27124   3.006  10.168   2.559 -0.0473 -0.1285 -0.6288
41706SOL    HW127125   3.035  10.257   2.536  3.0330 -0.3810  1.6433
41706SOL    HW227126   3.079  10.112   2.533 -1.6944 -2.0012 -1.4689
41707SOL     OW27127   3.069  10.927   7.129  0.2194  0.0759 -0.3004
41707SOL    HW127128   3.094  10.945   7.220  0.6839 -0.4302 -0.3236
41707SOL    HW227129   2.996  10.865   7.137 -2.2505  2.7725 -0.1772
41708SOL     OW27130   2.931   5.482   4.800 -0.1482 -0.1743 -0.3111
41708SOL    HW127131   2.946   5.541   4.726  0.4214  2.7921  1.9713
41708SOL    HW227132   2.837   5.462   4.796 -0.3356  0.7845 -1.2296
41709SOL     OW27133   5.503   4.595   3.869 -0.0095 -0.1351 -0.2742
41709SOL    HW127134   5.580   4.633   3.910 -0.0366  2.2588 -2.2090
41709SOL    HW227135   5.461   4.545   3.939  2.8822 -1.0024  1.0133
41710SOL     OW27136   1.274   0.516   0.360 -0.2480  0.2716  0.1109
41710SOL    HW127137   1.311   0.577   0.424 -1.5274 -2.1532  3.5098
41710SOL    HW227138   1.198   0.561   0.324 -0.3260  1.2221  1.3987
41711SOL     OW27139   8.259   3.552   5.661  0.4005 -0.0647  0.3401
41711SOL    HW127140   8.305   3.547   5.577  2.1060  0.3799  1.1855
41711SOL    HW227141   8.180   3.603   5.643  0.0323 -1.1151 -1.2530
41712SOL     OW27142   9.328  10.808   8.926  0.1037 -0.7934 -0.1835
41712SOL    HW127143   9.406  10.792   8.979 -0.0518 -0.2406  0.2284
41712SOL    HW227144   9.360  10.856   8.849  0.1348 -0.2476  0.1576
41713SOL     OW27145   9.509   8.200   2.025 -0.1407  0.2824 -0.1242
41713SOL    HW127146   9.426   8.200   2.073 -1.1291  1.9662 -1.6972
41713SOL    HW227147   9.492   8.149   1.947 -0.7837  3.0937 -1.9827
41714SOL     OW27148   1.395   1.248   7.602 -0.6313 -0.1429  0.1132
41714SOL    HW127149   1.481   1.289   7.608 -0.4517 -0.1490 -1.7511
41714SOL    HW227150   1.383   1.206   7.687  1.0767  0.1112  0.5318
41715SOL     OW27151   2.767   6.791   5.926  0.6153 -0.1605 -0.0828
41715SOL    HW127152   2.695   6.849   5.951  1.4496 -0.0252  2.3804
41715SOL    HW227153   2.726   6.707   5.909 -0.3301  0.4654 -1.0032
41716SOL     OW27154   4.431   1.161   7.078  0.3694 -0.2906 -0.0115
41716SOL    HW127155   4.480   1.211   7.012 -0.1916 -0.8612 -0.8878
41716SOL    HW227156   4.423   1.074   7.040 -1.8976 -0.0548 -0.2305
41717SOL     OW27157   8.255   4.373   9.825  0.5280  0.4759  0.0333
41717SOL    HW127158   8.169   4.351   9.860  0.2568 -0.1226 -0.9381
41717SOL    HW227159   8.316   4.357   9.897 -0.2197  1.3687  0.8767
41718SOL     OW27160   7.909   0.943   5.594  0.2965  0.2614  0.1859
41718SOL    HW127161   7.818   0.937   5.565 -0.0753  0.3645  1.2999
41718SOL    HW227162   7.904   0.976   5.684  1.4384  0.3339  0.2420
41719SOL     OW27163   5.933   5.070   3.984  0.3143 -0.2117  0.0242
41719SOL    HW127164   6.008   5.010   3.982 -0.3624 -1.0509 -0.7009
41719SOL    HW227165   5.941   5.115   4.069  2.0471  0.2726 -0.3579
41720SOL     OW27166   0.610   5.253   8.638  0.1942  0.0115  0.6490
41720SOL    HW127167   0.515   5.264   8.642  0.1495 -0.8115  2.1431
41720SOL    HW227168   0.632   5.277   8.548 -1.4493 -0.0020  0.2062
41721SOL     OW27169   0.353   8.820   9.014 -0.8486  0.5546 -0.1628
41721SOL    HW127170   0.325   8.808   9.105 -0.5692  2.3348  0.2013
41721SOL    HW227171   0.449   8.812   9.018 -0.8742  0.0062 -0.4383
41722SOL     OW27172   8.537   4.281  10.322 -0.6956 -0.0684 -0.1889
41722SOL    HW127173   8.621   4.236  10.307 -0.1602  0.2846  1.5802
41722SOL    HW227174   8.557   4.373  10.309 -0.5002  0.1304  1.3565
41723SOL     OW27175   5.124   0.047   8.042  0.3984 -0.6059 -0.1245
41723SOL    HW127176   5.151  -0.006   7.967 -0.4805 -0.8027 -0.3021
41723SOL    HW227177   5.178   0.015   8.114  1.6980 -0.0127 -0.7729
41724SOL     OW27178   7.598   8.510   2.915  1.0111 -0.4971  0.2108
41724SOL    HW127179   7.624   8.567   2.842  0.8671 -0.5933  0.0833
41724SOL    HW227180   7.635   8.552   2.993  1.7124 -0.7334  0.0139
41725SOL     OW27181   3.075   2.525   8.346  0.2204 -0.6153 -0.0934
41725SOL    HW127182   3.170   2.533   8.331  0.1213  0.7490 -0.1556
41725SOL    HW227183   3.036   2.533   8.259 -0.1301  3.1371  0.2496
41726SOL     OW27184   0.513   4.821   3.065  0.1252  0.1922  0.1102
41726SOL    HW127185   0.586   4.841   3.125  0.0449  0.5124  0.1062
41726SOL    HW227186   0.435   4.832   3.119  0.0900 -0.4425  0.1926
41727SOL     OW27187   1.551   6.514   5.184 -0.4024  0.1974 -0.0242
41727SOL    HW127188   1.634   6.513   5.136  1.0996  1.1935  2.3798
41727SOL    HW227189   1.571   6.559   5.266 -2.8713 -1.2325  1.4928
41728SOL     OW27190   9.525   7.584   8.611 -0.2115 -0.2880  0.3372
41728SOL    HW127191   9.486   7.665   8.578 -0.5818  0.1061  1.6815
41728SOL    HW227192   9.486   7.573   8.698  0.7111 -1.2951  0.6359
41729SOL     OW27193   2.256   5.656   6.897  0.2757 -1.4180  0.1137
41729SOL    HW127194   2.347   5.631   6.883  0.8673  1.4713 -2.1710
41729SOL    HW227195   2.212   5.633   6.816  0.4666  2.6200 -1.3746
41730SOL     OW27196   4.450   4.458   8.752 -0.1037 -0.0654 -0.6009
41730SOL    HW127197   4.390   4.439   8.681  0.2302 -1.5050 -0.5323
41730SOL    HW227198   4.400   4.512   8.813 -0.6490  0.4829 -1.5188
41731SOL     OW27199   9.656   5.007   7.189 -0.7171 -0.7005 -0.4687
41731SOL    HW127200   9.691   5.000   7.277 -1.3426  0.8941 -0.0659
41731SOL    HW227201   9.564   4.981   7.198 -0.9146 -0.0409 -0.5415
41732SOL     OW27202  10.765   9.429   2.563 -0.3364 -0.5176 -0.0698
41732SOL    HW127203  10.851   9.432   2.520 -0.3034  2.2150  0.0545
41732SOL    HW227204  10.710   9.380   2.502  1.0927 -1.6639 -0.5066
41733SOL     OW27205   5.169   0.229   8.425  0.1192  0.4092 -0.3671
41733SOL    HW127206   5.245   0.230   8.484 -0.1331 -0.2905 -0.0216
41733SOL    HW227207   5.196   0.172   8.353 -0.1443  0.0014 -0.1473
41734SOL     OW27208   4.072   9.176   4.183  0.6686 -0.2948 -0.7391
41734SOL    HW127209   3.984   9.161   4.151  0.2815  1.6166 -0.7012
41734SOL    HW227210   4.121   9.097   4.159 -0.9361 -1.1980 -1.1284
41735SOL     OW27211   7.406   1.514   8.883  0.4600 -0.4336 -0.4368
41735SOL    HW127212   7.312   1.529   8.876  0.0448 -0.7164  2.9837
41735SOL    HW227213   7.416   1.419   8.884  0.8201 -0.4057 -0.7452
41736SOL     OW27214   2.089   3.019   8.431 -0.7354  0.3666  0.5577
41736SOL    HW127215   2.061   2.931   8.404 -0.4388  0.2131  0.7435
41736SOL    HW227216   2.168   3.004   8.482 -0.4521  0.7786  0.2379
41737SOL     OW27217   6.117   8.043   2.123 -0.3269 -0.2761 -0.2514
41737SOL    HW127218   6.105   8.131   2.159 -0.6541  0.3428 -1.7903
41737SOL    HW227219   6.111   7.985   2.199  2.0256  1.1361  1.1637
41738SOL     OW27220   9.140   9.244   7.783  0.0362 -0.2583 -0.2562
41738SOL    HW127221   9.106   9.233   7.695  2.8793  0.3379 -1.5524
41738SOL    HW227222   9.143   9.339   7.796 -1.0419 -0.3459  0.8238
41739SOL     OW27223   5.612   9.144  11.007 -0.2300  0.3068 -0.0370
41739SOL    HW127224   5.579   9.055  10.998 -0.5869  0.5066 -0.7605
41739SOL    HW227225   5.625   9.174  10.917 -1.5922  1.5304  0.1274
41740SOL     OW27226   6.771   0.924   4.359 -0.2900 -0.3016 -0.6885
41740SOL    HW127227   6.846   0.870   4.334 -0.4887 -0.3771 -1.1152
41740SOL    HW227228   6.738   0.883   4.439  1.3491  0.8812  0.6924
41741SOL     OW27229   7.066   8.199   0.047  1.0092  0.1281 -0.1136
41741SOL    HW127230   7.086   8.121  -0.004  0.4180  0.4527 -0.8822
41741SOL    HW227231   7.063   8.170   0.138  0.4052 -0.8276 -0.4306
41742SOL     OW27232   2.016   3.844   1.878  0.2468 -0.0639  0.0441
41742SOL    HW127233   1.948   3.805   1.934 -0.5512  1.2239  0.0026
41742SOL    HW227234   2.081   3.878   1.939 -0.3483  0.8446  0.1831
41743SOL     OW27235   8.470   3.261   5.917  0.0075  0.4163 -0.1557
41743SOL    HW127236   8.561   3.281   5.940  0.4274  0.6884 -1.9230
41743SOL    HW227237   8.477   3.193   5.850 -1.1770 -0.8346  0.9398
41744SOL     OW27238   9.660   7.827   0.451  0.0347 -0.1654  0.6897
41744SOL    HW127239   9.652   7.911   0.496 -0.8102 -0.3597  0.9338
41744SOL    HW227240   9.750   7.799   0.467  0.0859  0.3165  1.2826
41745SOL     OW27241   0.143  10.348  10.976 -0.6602 -0.0958 -0.0668
41745SOL    HW127242   0.092  10.269  10.994  1.5070 -1.4771  0.3847
41745SOL    HW227243   0.107  10.382  10.893 -1.1001 -2.0301 -0.7066
41746SOL     OW27244   8.433   9.510   5.416  0.0236 -0.3632  0.9174
41746SOL    HW127245   8.439   9.467   5.331  1.2978 -0.8812  1.2432
41746SOL    HW227246   8.360   9.571   5.407 -0.5857 -1.2122 -0.1774
41747SOL     OW27247   1.735   4.298   9.205 -0.3531  0.0871 -0.7062
41747SOL    HW127248   1.816   4.342   9.180  0.8983 -1.5701  0.2456
41747SOL    HW227249   1.721   4.234   9.136  0.8737 -1.7004  0.6185
41748SOL     OW27250   6.563  10.529   7.122  0.3531  0.1701 -0.0918
41748SOL    HW127251   6.569  10.581   7.041  4.1306  0.1141 -0.0209
41748SOL    HW227252   6.618  10.453   7.106  1.2707  0.1745  2.5420
41749SOL     OW27253   2.085   6.387   6.332  0.4151 -0.8312 -0.0331
41749SOL    HW127254   2.115   6.443   6.261 -1.2972  2.4327  1.5759
41749SOL    HW227255   2.162   6.377   6.389  0.2874  1.9854  0.7912
41750SOL     OW27256   2.218   7.147   0.831 -0.2671  0.0484  0.4296
41750SOL    HW127257   2.203   7.103   0.748  0.5670 -0.0375  0.3189
41750SOL    HW227258   2.157   7.106   0.892  0.1217 -0.8956  0.2014
41751SOL     OW27259   9.430   1.476   7.513  0.7738 -0.2586  0.2357
41751SOL    HW127260   9.492   1.424   7.462  0.6012 -0.2563  0.0206
41751SOL    HW227261   9.484   1.539   7.561  1.0379 -0.9951  0.9354
41752SOL     OW27262   9.231   1.049   7.136  0.5315  0.3334  0.5335
41752SOL    HW127263   9.205   1.030   7.046  1.6375 -1.5090  0.5464
41752SOL    HW227264   9.161   1.104   7.170 -1.1979 -1.0022 -0.6734
41753SOL     OW27265   0.602  10.836   8.733 -0.2769 -0.1614 -0.7767
41753SOL    HW127266   0.659  10.854   8.659  1.9283 -0.3753  0.7546
41753SOL    HW227267   0.563  10.920   8.755 -0.2494  0.0760 -1.6160
41754SOL     OW27268   1.481   8.664   3.937  0.6836 -1.0956 -0.1808
41754SOL    HW127269   1.486   8.753   3.902 -1.4898 -2.3167 -4.3201
41754SOL    HW227270   1.428   8.673   4.016 -2.0101  1.1001 -2.0309
41755SOL     OW27271   4.375   6.574   6.207  0.4871  0.2868  0.2043
41755SOL    HW127272   4.348   6.623   6.286  0.8541  0.2172  0.3729
41755SOL    HW227273   4.444   6.515   6.238  0.9049  0.5358 -0.2478
41756SOL     OW27274   6.049   3.053   3.944  0.1076 -0.0974 -0.0059
41756SOL    HW127275   6.025   3.095   4.026  0.2453 -1.5482  0.8285
41756SOL    HW227276   6.117   3.109   3.907  0.6004  0.1910  1.2760
41757SOL     OW27277   7.876   5.189   9.798 -0.0808 -0.0967 -0.0253
41757SOL    HW127278   7.859   5.096   9.815 -0.5334  0.4112  2.6155
41757SOL    HW227279   7.806   5.215   9.738 -2.1764 -0.6655  2.0521
41758SOL     OW27280   1.392   9.153   6.899 -0.7700  0.6778  0.4724
41758SOL    HW127281   1.394   9.224   6.962 -0.4455  1.7273 -0.6844
41758SOL    HW227282   1.323   9.095   6.930 -0.7560  1.2592  1.6635
41759SOL     OW27283   6.025   5.474   8.353  0.0675  0.3801  0.2212
41759SOL    HW127284   6.052   5.507   8.267 -1.3321 -0.8418 -0.7276
41759SOL    HW227285   6.053   5.383   8.354 -0.7991  0.1168  0.6782
41760SOL     OW27286   5.451   4.666   8.836 -0.1510 -0.2242  0.2386
41760SOL    HW127287   5.493   4.615   8.906  1.0098  1.2536  0.6657
41760SOL    HW227288   5.361   4.679   8.866  0.1270 -0.2487  1.1065
41761SOL     OW27289   2.862   3.377   6.046  0.3756  0.2017  0.0104
41761SOL    HW127290   2.853   3.282   6.044 -1.1296  0.2888  1.2689
41761SOL    HW227291   2.785   3.410   6.000 -0.4889  0.8328  1.8497
41762SOL     OW27292  10.627   2.407   9.463  0.0865 -0.2809  0.0956
41762SOL    HW127293  10.620   2.349   9.539 -0.9378 -0.7568 -0.3331
41762SOL    HW227294  10.631   2.347   9.388 -0.6804  0.1921 -0.3388
41763SOL     OW27295   2.584   8.707   5.764  0.3342  0.0878 -0.4734
41763SOL    HW127296   2.649   8.656   5.715  0.9367  2.5013 -2.4274
41763SOL    HW227297   2.562   8.780   5.705  0.0160  2.4496  2.3367
41764SOL     OW27298   4.199   5.935  10.482  0.0492  0.1003 -0.2523
41764SOL    HW127299   4.228   5.976  10.401 -1.2868 -2.3620 -2.1464
41764SOL    HW227300   4.107   5.958  10.489 -0.0820 -0.4742  0.0071
41765SOL     OW27301  10.424   1.990   7.134  0.5876  0.4124  0.0561
41765SOL    HW127302  10.454   1.962   7.047 -2.9328  0.1049 -1.2000
41765SOL    HW227303  10.505   2.009   7.181  2.7428 -1.0257 -2.7044
41766SOL     OW27304   5.127   9.194   4.388  0.2792  0.7089 -0.0561
41766SOL    HW127305   5.133   9.103   4.361  0.3220  0.9286 -0.8014
41766SOL    HW227306   5.063   9.194   4.460  0.6603  0.0263  0.2903
41767SOL     OW27307   6.265   1.488  10.547 -0.1472 -0.2927 -0.9120
41767SOL    HW127308   6.338   1.541  10.577 -0.9614  1.5241 -1.9762
41767SOL    HW227309   6.203   1.489  10.619 -1.2263  2.3750 -1.7403
41768SOL     OW27310   0.275   0.256   2.563 -0.1163 -0.3558  0.2084
41768SOL    HW127311   0.215   0.184   2.544  2.2024 -2.8194  1.4693
41768SOL    HW227312   0.314   0.233   2.647  4.1153 -0.1722 -1.4591
41769SOL     OW27313   4.781   1.139   9.104 -0.1360 -0.5576  0.3716
41769SOL    HW127314   4.753   1.065   9.157  1.7590 -2.5495 -1.2472
41769SOL    HW227315   4.723   1.138   9.028  0.1221 -0.6129  0.1732
41770SOL     OW27316   9.068   6.095   8.256 -0.0182  0.0174 -0.6267
41770SOL    HW127317   9.081   6.022   8.317 -2.9778  0.7147  1.0586
41770SOL    HW227318   9.106   6.170   8.300  1.5497 -0.1751 -1.6059
41771SOL     OW27319   6.750   1.159   8.904 -0.6257  0.0387  0.2500
41771SOL    HW127320   6.700   1.135   8.982 -0.1947 -1.9419 -0.0216
41771SOL    HW227321   6.686   1.199   8.845 -1.3606 -0.2225  0.8606
41772SOL     OW27322   6.766   8.105   4.402  0.0681  0.4112  0.1911
41772SOL    HW127323   6.725   8.162   4.337  1.1596  1.2667  0.2193
41772SOL    HW227324   6.735   8.017   4.380 -0.3841  0.8147 -0.8555
41773SOL     OW27325   8.713   7.167   1.829 -0.2580 -0.6479  0.3205
41773SOL    HW127326   8.632   7.158   1.879 -0.8831  0.1767 -0.5114
41773SOL    HW227327   8.699   7.244   1.774  0.7125 -1.0733 -0.5595
41774SOL     OW27328   7.748   9.527   9.723  0.3326 -0.2402 -0.0471
41774SOL    HW127329   7.787   9.520   9.810 -1.9079  2.8725  1.3943
41774SOL    HW227330   7.780   9.610   9.689 -0.6685 -0.2951 -1.1834
41775SOL     OW27331   8.935   6.989   1.339  0.2424  0.3729  0.7715
41775SOL    HW127332   8.965   6.956   1.254  0.9562  0.4985  0.9680
41775SOL    HW227333   8.841   7.004   1.327  0.7936  3.2853 -0.9740
41776SOL     OW27334   4.989   6.552   3.423  0.0160 -0.0381 -0.0464
41776SOL    HW127335   4.930   6.540   3.498 -2.2991  0.2860 -1.7112
41776SOL    HW227336   5.004   6.646   3.419  2.6591 -0.2890  1.7357
41777SOL     OW27337   8.912   8.615   6.255  0.0192 -0.4063  0.1304
41777SOL    HW127338   8.856   8.537   6.252  0.6210 -0.8477  0.2560
41777SOL    HW227339   8.970   8.600   6.330 -0.8009  0.8236  1.0545
41778SOL     OW27340   1.900   3.266   2.660 -0.6585 -0.1083  0.5331
41778SOL    HW127341   1.827   3.300   2.608 -0.1444 -0.0482 -0.1667
41778SOL    HW227342   1.865   3.188   2.702 -1.6981  0.9528  1.7241
41779SOL     OW27343   2.296  10.642  10.459  0.2859  0.2612  0.1769
41779SOL    HW127344   2.314  10.564  10.512  1.5462  0.1456 -0.3785
41779SOL    HW227345   2.211  10.673  10.489 -0.2846 -1.3768  0.3581
41780SOL     OW27346   7.762   2.018   3.014 -0.4564 -0.1372 -0.0349
41780SOL    HW127347   7.688   2.067   3.050 -1.8409 -0.9033 -1.6617
41780SOL    HW227348   7.748   2.020   2.919  1.9915  0.2361 -0.4454
41781SOL     OW27349  10.564   0.256   0.840  0.7893 -0.6987  0.6854
41781SOL    HW127350  10.519   0.296   0.915 -0.7693 -0.3742 -0.3797
41781SOL    HW227351  10.622   0.325   0.807  1.2600 -0.7445  1.3899
41782SOL     OW27352   0.387   4.631   7.946 -0.6025 -0.1589  0.7534
41782SOL    HW127353   0.375   4.536   7.949  1.0018 -0.4377 -0.1957
41782SOL    HW227354   0.449   4.649   8.016  1.1482 -0.2297 -0.7088
41783SOL     OW27355   6.922   1.664   0.275  0.4147  0.6065 -0.0864
41783SOL    HW127356   6.830   1.646   0.293  0.5685 -2.3378 -1.6282
41783SOL    HW227357   6.922   1.696   0.185  0.9035  0.3700 -0.1725
41784SOL     OW27358   1.619   0.775   4.372  0.2601 -0.3524  0.6665
41784SOL    HW127359   1.675   0.834   4.423  1.3498 -1.8278  1.2640
41784SOL    HW227360   1.569   0.728   4.438 -1.0778  0.3283  0.1637
41785SOL     OW27361   0.865   6.725   5.611 -0.6038  0.1257  0.0008
41785SOL    HW127362   0.908   6.751   5.530 -0.9437 -1.6291 -0.7757
41785SOL    HW227363   0.897   6.637   5.629 -3.6796 -1.2648 -0.5732
41786SOL     OW27364   1.445   9.437   4.818  0.1491 -0.0235  0.4808
41786SOL    HW127365   1.446   9.511   4.879 -3.2972 -0.9989  1.9918
41786SOL    HW227366   1.515   9.380   4.847 -0.4071  0.2957  2.6033
41787SOL     OW27367   8.128   6.703   4.798 -0.0356 -0.2108 -0.3672
41787SOL    HW127368   8.041   6.671   4.773 -0.8305  3.2002 -2.6217
41787SOL    HW227369   8.115   6.744   4.883 -1.3892  2.4544 -1.7353
41788SOL     OW27370   6.202   3.258   5.551 -0.2938  0.3483  0.5798
41788SOL    HW127371   6.213   3.326   5.485 -0.6092 -0.8238 -0.7169
41788SOL    HW227372   6.182   3.306   5.632  3.7315  2.0360  0.7799
41789SOL     OW27373   5.043   1.409   1.985  0.1444  0.0431  0.2826
41789SOL    HW127374   5.006   1.428   2.072  0.3030  3.0744 -0.2275
41789SOL    HW227375   5.128   1.453   1.985  0.5723 -0.7351 -1.1055
41790SOL     OW27376   5.554   1.265   5.832 -0.1435 -0.5934 -0.0207
41790SOL    HW127377   5.467   1.231   5.850  0.0246 -1.0265 -0.0227
41790SOL    HW227378   5.609   1.228   5.901  0.4325 -1.9560 -1.1556
41791SOL     OW27379   8.880   7.534   7.951  0.0273  0.3198 -0.6007
41791SOL    HW127380   8.838   7.463   7.902  1.7709 -0.3531 -1.2054
41791SOL    HW227381   8.892   7.604   7.886  1.2981 -0.1341 -0.8940
41792SOL     OW27382   6.235   4.047   5.579 -0.4779 -0.2120  0.4467
41792SOL    HW127383   6.267   4.120   5.525 -1.5972 -1.1650 -1.6377
41792SOL    HW227384   6.302   3.979   5.571 -1.9316 -1.4803 -2.3414
41793SOL     OW27385   4.867   4.967   6.614  0.1174 -0.5701  0.2895
41793SOL    HW127386   4.910   4.895   6.661  1.6069  0.1174  0.0564
41793SOL    HW227387   4.936   5.032   6.602 -1.1217  0.7838  0.2403
41794SOL     OW27388   0.356   8.845   4.748 -0.1895  0.3705 -0.8935
41794SOL    HW127389   0.364   8.767   4.802 -1.1428 -0.6987 -2.2260
41794SOL    HW227390   0.379   8.816   4.660 -1.4713  1.3354 -1.5865
41795SOL     OW27391   2.981   9.827   3.234 -0.2802  0.3467 -0.2166
41795SOL    HW127392   3.033   9.879   3.173  0.0397 -1.3820 -1.4950
41795SOL    HW227393   2.897   9.813   3.190 -1.7745  2.6936  1.6223
41796SOL     OW27394   9.240   8.780   2.127  0.8450  0.0866 -0.2050
41796SOL    HW127395   9.207   8.768   2.216 -0.9193 -1.7767 -1.0327
41796SOL    HW227396   9.290   8.700   2.109  0.5238  0.0809 -1.1456
41797SOL     OW27397   9.167   6.392   3.129  0.5846  0.4887 -0.6752
41797SOL    HW127398   9.169   6.355   3.218  0.8675  0.4726 -0.6892
41797SOL    HW227399   9.119   6.327   3.078 -2.0722  1.7404  0.0409
41798SOL     OW27400   0.069   8.599   1.335 -0.0012 -0.2306 -0.3178
41798SOL    HW127401   0.155   8.640   1.333 -0.0263 -0.1905 -0.7397
41798SOL    HW227402   0.034   8.621   1.421  2.1099 -3.8655  1.6891
41799SOL     OW27403   8.632   4.849   5.825  0.0052 -0.1980 -0.0094
41799SOL    HW127404   8.596   4.824   5.910  1.2920  0.5706  0.7911
41799SOL    HW227405   8.571   4.914   5.791 -0.2735 -0.1765  0.5259
41800SOL     OW27406   4.385   0.016   4.054  0.6658  0.4978 -0.1861
41800SOL    HW127407   4.409   0.073   3.980  1.5240  1.1883  0.6030
41800SOL    HW227408   4.367   0.076   4.126 -1.9346 -0.0831 -0.2737
41801SOL     OW27409   2.800   7.371   6.852  0.2176  0.0584  0.3727
41801SOL    HW127410   2.768   7.320   6.926 -0.0476  0.1757  0.3414
41801SOL    HW227411   2.748   7.451   6.854  0.3911  0.1746  0.2165
41802SOL     OW27412  10.520   0.294   7.001 -0.2153 -0.1233  0.7075
41802SOL    HW127413  10.432   0.328   7.018 -1.2715 -2.9547  1.5943
41802SOL    HW227414  10.507   0.231   6.930  0.7469 -1.7320  1.9040
41803SOL     OW27415   2.238   5.132   8.961 -0.2241 -0.2268  0.0172
41803SOL    HW127416   2.307   5.187   8.924 -1.3930  2.3459  1.3618
41803SOL    HW227417   2.271   5.105   9.046 -1.1265  1.8310  1.0996
41804SOL     OW27418   7.614  10.738   5.288  0.2549  0.1421 -0.5503
41804SOL    HW127419   7.534  10.704   5.328  0.3658  0.5104  0.0002
41804SOL    HW227420   7.655  10.662   5.247 -1.1553  0.2292 -2.2127
41805SOL     OW27421   8.420   1.489   0.906  0.4021  0.3271 -0.0421
41805SOL    HW127422   8.515   1.492   0.897  0.3092  0.9561 -0.9652
41805SOL    HW227423   8.402   1.409   0.956  1.4611  0.6342  0.8647
41806SOL     OW27424   0.318   7.748   5.357 -0.0973  0.2370 -0.5561
41806SOL    HW127425   0.393   7.689   5.363 -0.9752 -0.8058  0.5971
41806SOL    HW227426   0.247   7.694   5.322 -0.5893  0.9514 -0.6896
41807SOL     OW27427   6.843   8.341   5.116  0.4637  0.0427 -0.4698
41807SOL    HW127428   6.759   8.384   5.100 -0.2760 -0.9570  0.5998
41807SOL    HW227429   6.874   8.379   5.198  2.2293  2.1123 -1.9854
41808SOL     OW27430   8.355   4.536   6.601  0.2152  0.2626 -0.0289
41808SOL    HW127431   8.288   4.468   6.600  0.0196  0.4233 -1.7372
41808SOL    HW227432   8.316   4.608   6.651 -0.1101 -0.3724  0.6381
41809SOL     OW27433   5.011   2.848   0.062  0.3052 -0.1733 -0.1710
41809SOL    HW127434   5.068   2.772   0.054 -0.3063 -0.5826 -0.6978
41809SOL    HW227435   4.926   2.818   0.030  0.4640  1.2193 -2.0482
41810SOL     OW27436   9.677   7.934   5.573 -0.3282  0.5554  0.9793
41810SOL    HW127437   9.681   7.984   5.492 -0.5922  1.5397  1.5519
41810SOL    HW227438   9.622   7.859   5.552 -1.2622  1.3347  0.5036
41811SOL     OW27439   0.995   7.495   4.470 -0.2854  0.4395  0.2317
41811SOL    HW127440   0.908   7.478   4.506 -0.5925  1.2954 -0.0919
41811SOL    HW227441   1.044   7.533   4.543 -1.3045  3.4395 -0.5249
41812SOL     OW27442   2.043   1.086   0.728  0.1771 -0.1245  0.1100
41812SOL    HW127443   1.974   1.035   0.684 -1.3947  1.3899  0.7106
41812SOL    HW227444   1.998   1.162   0.763  1.9048  0.1665  1.8774
41813SOL     OW27445   5.631   4.942   8.929  0.4328  0.8467  0.0237
41813SOL    HW127446   5.673   5.008   8.874 -0.0994 -0.6987 -2.4055
41813SOL    HW227447   5.620   4.866   8.872  0.9073 -1.3551  2.6236
41814SOL     OW27448   5.401   7.625   1.733  0.0212 -0.4626  0.2400
41814SOL    HW127449   5.334   7.693   1.743  0.1343 -0.3585  0.2812
41814SOL    HW227450   5.396   7.601   1.640 -0.7623 -1.1629  0.4438
41815SOL     OW27451   4.464   6.989   6.125  0.6367  0.0757  0.1841
41815SOL    HW127452   4.440   6.994   6.218 -0.8351 -0.3072 -0.1521
41815SOL    HW227453   4.507   7.073   6.108  0.8922  0.1695  1.1986
41816SOL     OW27454  10.604   0.911   5.426 -0.2147 -0.3067  0.0756
41816SOL    HW127455  10.684   0.887   5.378 -0.8098 -0.3626 -0.9167
41816SOL    HW227456  10.576   0.993   5.386 -0.2640  0.0889  0.9087
41817SOL     OW27457   8.778   1.447   7.091 -0.6180 -0.0386 -0.3120
41817SOL    HW127458   8.826   1.486   7.164  1.7356 -1.3053 -1.0622
41817SOL    HW227459   8.771   1.517   7.026  0.3242  0.1724 -0.2017
41818SOL     OW27460   5.201  10.028   5.507  0.0292  0.3887 -0.1358
41818SOL    HW127461   5.149   9.949   5.513  0.0745  0.2156 -1.6086
41818SOL    HW227462   5.253  10.029   5.587 -0.9061 -0.3831  0.4965
41819SOL     OW27463  10.498   0.205   6.436  0.0189 -0.3913  0.3193
41819SOL    HW127464  10.505   0.145   6.510 -0.7195  0.9124  1.5030
41819SOL    HW227465  10.565   0.175   6.374  0.0291 -2.0827  1.0784
41820SOL     OW27466  10.990   8.413   2.759 -0.4398  1.0004  0.0125
41820SOL    HW127467  11.056   8.422   2.690  1.6168  1.3812  1.9210
41820SOL    HW227468  10.941   8.334   2.735 -0.5892  1.7294 -2.4397
41821SOL     OW27469   2.492   0.345   7.399 -0.3259  0.3059  0.2798
41821SOL    HW127470   2.427   0.392   7.347 -1.5414 -1.2066  0.3373
41821SOL    HW227471   2.532   0.283   7.337  0.1522  0.3506  0.5369
41822SOL     OW27472   5.261  10.160   4.633 -1.1328  0.2666  0.1337
41822SOL    HW127473   5.209  10.204   4.701 -1.2957 -0.9191  0.8091
41822SOL    HW227474   5.210  10.170   4.553 -2.1169 -0.3382  0.6643
41823SOL     OW27475   5.207   2.822   0.379 -0.1153  0.1000  0.2169
41823SOL    HW127476   5.145   2.888   0.346  0.9888  1.1900  0.2727
41823SOL    HW227477   5.159   2.778   0.449 -0.6813  1.2653  0.5993
41824SOL     OW27478   3.088   8.210   0.671  0.5041  0.3917 -0.3551
41824SOL    HW127479   3.130   8.219   0.756 -0.2061  0.8689 -0.0386
41824SOL    HW227480   3.105   8.293   0.627  1.5427 -0.1504 -1.0048
41825SOL     OW27481   3.714   0.472  10.849  0.2546  0.0710  0.0488
41825SOL    HW127482   3.786   0.440  10.904 -0.5982 -0.7339  0.7359
41825SOL    HW227483   3.756   0.501  10.769  1.3774 -0.1476  0.5390
41826SOL     OW27484   1.727   2.952   2.211 -0.3757 -0.0167  0.0903
41826SOL    HW127485   1.677   3.008   2.271 -0.2859 -0.6048  0.7302
41826SOL    HW227486   1.815   2.990   2.211 -0.1593 -0.4733  0.9811
41827SOL     OW27487   2.546   0.963   0.772  1.1143  0.3520  0.0707
41827SOL    HW127488   2.570   0.999   0.686 -2.4235  0.7559 -0.8894
41827SOL    HW227489   2.572   1.031   0.834  2.5943  0.5998 -0.7669
41828SOL     OW27490   4.931   2.790  10.748 -0.1555 -0.1497 -0.4897
41828SOL    HW127491   4.912   2.775  10.841 -0.8494 -1.4490 -0.8130
41828SOL    HW227492   5.020   2.756  10.737 -0.3417 -0.6731 -0.4354
41829SOL     OW27493   0.069   8.672   1.596 -0.0461 -0.1271 -0.9551
41829SOL    HW127494   0.048   8.590   1.642 -1.3528  0.9817  0.5823
41829SOL    HW227495   0.144   8.707   1.644  0.2330 -0.2196 -1.3286
41830SOL     OW27496   3.351   7.948   4.027 -0.7158 -0.2816 -0.0072
41830SOL    HW127497   3.432   7.986   4.062 -0.8110  0.9489 -1.0632
41830SOL    HW227498   3.332   7.999   3.948 -2.4341 -0.6540  0.1183
41831SOL     OW27499   0.445   9.733   2.686  0.1960 -0.2142 -0.1450
41831SOL    HW127500   0.529   9.692   2.668  0.2246  0.6589 -2.1997
41831SOL    HW227501   0.462   9.827   2.682 -0.4664  0.0314  1.6254
41832SOL     OW27502   6.609   0.185   2.596  0.1307 -0.0129  0.1258
41832SOL    HW127503   6.579   0.199   2.686 -0.0464 -1.1733  0.2692
41832SOL    HW227504   6.655   0.101   2.600  1.3126  0.5746 -0.5940
41833SOL     OW27505   3.444   4.710   6.375  0.0463  0.2545 -0.3987
41833SOL    HW127506   3.479   4.731   6.461 -1.1144 -0.9107  0.3900
41833SOL    HW227507   3.492   4.767   6.315 -1.0840  3.1836  1.2741
41834SOL     OW27508   5.530   4.364   8.282 -0.5449 -0.5165 -0.4018
41834SOL    HW127509   5.548   4.288   8.226  1.5733 -0.5268  0.2195
41834SOL    HW227510   5.491   4.327   8.361  1.4543 -1.1488  0.3529
41835SOL     OW27511   9.509   8.546  10.145 -0.1840  0.2185 -0.4277
41835SOL    HW127512   9.526   8.586  10.230  3.2987 -0.1149 -0.8016
41835SOL    HW227513   9.514   8.452  10.161 -1.2339  0.0867 -0.7595
41836SOL     OW27514   5.647   9.258  10.172  0.1663  0.0138 -0.1487
41836SOL    HW127515   5.724   9.252  10.115 -0.3348  1.9406 -1.1112
41836SOL    HW227516   5.671   9.323  10.238 -0.4277  0.1902 -0.1027
41837SOL     OW27517   9.148   3.646   4.426  0.0610  0.4335 -0.2510
41837SOL    HW127518   9.157   3.621   4.518 -0.6570  2.5624  0.4545
41837SOL    HW227519   9.235   3.678   4.401 -0.0404  0.9586  0.0569
41838SOL     OW27520   3.899   9.010   4.698 -0.0125 -0.3126  0.4454
41838SOL    HW127521   3.831   8.970   4.753 -1.1342  0.7037 -0.1553
41838SOL    HW227522   3.867   8.999   4.609  0.3283  0.6775  0.1911
41839SOL     OW27523   6.178   4.351   5.236  0.9898 -0.0116  0.0452
41839SOL    HW127524   6.181   4.367   5.330 -1.4139 -0.4230  0.2588
41839SOL    HW227525   6.132   4.426   5.200  0.5933 -0.5441 -0.5842
41840SOL     OW27526   2.369   4.774   9.552  0.4251  0.1698  0.6798
41840SOL    HW127527   2.277   4.793   9.569  0.6088  0.3116  1.5950
41840SOL    HW227528   2.379   4.682   9.578  0.3840 -0.0558 -0.0990
41841SOL     OW27529   8.765   0.006   2.623 -0.1682 -0.1169  0.8159
41841SOL    HW127530   8.753  -0.079   2.580  0.8805  0.2529 -0.2488
41841SOL    HW227531   8.846  -0.005   2.674 -0.1099  0.1959  0.7889
41842SOL     OW27532  10.735   5.170   7.410 -0.2621  0.0513 -0.0490
41842SOL    HW127533  10.799   5.112   7.369 -0.4112 -0.0947 -0.0713
41842SOL    HW227534  10.666   5.180   7.345 -0.5336 -0.2373  0.1960
41843SOL     OW27535  10.861   4.938   5.000  0.0107  0.4839  0.4892
41843SOL    HW127536  10.813   5.020   4.987  0.6408  0.8895  0.6766
41843SOL    HW227537  10.937   4.963   5.052  0.7456 -0.0457 -0.3198
41844SOL     OW27538   1.972  10.334   0.847 -0.2249 -0.5641  0.2833
41844SOL    HW127539   1.919  10.272   0.796 -1.8677  2.2042 -1.6850
41844SOL    HW227540   2.060  10.324   0.812 -1.3837  1.7222 -4.0470
41845SOL     OW27541   1.391   7.370   4.642 -0.7014 -0.8261 -0.2776
41845SOL    HW127542   1.358   7.366   4.731  1.3204 -0.9777  0.5109
41845SOL    HW227543   1.355   7.451   4.606  1.2738  1.1581  1.9208
41846SOL     OW27544   3.644   6.867   7.834 -0.1121 -0.1528 -0.0538
41846SOL    HW127545   3.739   6.863   7.833 -0.0861  0.0693  1.0016
41846SOL    HW227546   3.623   6.938   7.895 -0.9499  0.0740 -0.5835
41847SOL     OW27547   5.625   0.134   6.876  0.3385  0.3751 -0.5378
41847SOL    HW127548   5.537   0.160   6.850 -0.1116 -0.6741 -0.1413
41847SOL    HW227549   5.646   0.189   6.951 -0.6245 -0.4286  0.3502
41848SOL     OW27550   8.103   8.377  11.018 -0.2335 -1.2296 -0.7981
41848SOL    HW127551   8.028   8.327  10.987  1.4538 -1.5435 -4.9793
41848SOL    HW227552   8.088   8.466  10.986 -1.3759  0.3070  3.3186
41849SOL     OW27553   8.256   1.887   7.697  0.0060  0.5355  0.4561
41849SOL    HW127554   8.236   1.795   7.680 -4.5213  0.7821  2.8898
41849SOL    HW227555   8.223   1.933   7.620 -1.0499  0.3271  0.7758
41850SOL     OW27556   7.648   5.998   3.317 -0.2441  0.7040 -0.0309
41850SOL    HW127557   7.638   6.062   3.247 -0.4778  1.3497  0.5781
41850SOL    HW227558   7.615   5.916   3.280 -0.7526  1.1314 -0.5308
41851SOL     OW27559  10.306   6.515   0.770  0.6465  0.6743 -0.0351
41851SOL    HW127560  10.388   6.468   0.779 -0.7256 -1.9741 -0.3116
41851SOL    HW227561  10.260   6.499   0.852  0.5535  2.5031  0.2994
41852SOL     OW27562   0.969   0.573   6.024 -0.2902  0.3204 -0.0930
41852SOL    HW127563   0.889   0.587   6.074 -0.0683  0.3328  0.2660
41852SOL    HW227564   0.969   0.479   6.004 -0.6357  0.4092 -0.5167
41853SOL     OW27565   1.450  11.038   4.956 -0.7883 -0.4171  0.1515
41853SOL    HW127566   1.405  10.958   4.929 -0.2608 -0.3934 -0.8462
41853SOL    HW227567   1.531  11.007   4.996 -0.5991 -0.3877 -0.2058
41854SOL     OW27568   5.005   0.376  10.032 -0.9645 -0.8194  0.0881
41854SOL    HW127569   5.035   0.461  10.001 -0.7519 -2.4032 -4.8295
41854SOL    HW227570   5.083   0.320  10.028 -2.0132 -2.2565 -1.3409
41855SOL     OW27571   3.985   9.476   4.458  0.1936 -0.6267  0.1312
41855SOL    HW127572   4.051   9.534   4.496 -1.8752  1.6736  0.4598
41855SOL    HW227573   3.954   9.424   4.531  1.1450 -1.2859  0.0926
41856SOL     OW27574   0.353   3.708   2.438 -0.1097 -0.4993  0.4115
41856SOL    HW127575   0.349   3.742   2.527  0.3528 -0.0969  0.2824
41856SOL    HW227576   0.284   3.755   2.391 -1.3171 -1.7274  0.8781
41857SOL     OW27577   8.295   7.728   3.246 -0.0549 -0.2776 -0.1143
41857SOL    HW127578   8.315   7.647   3.293  0.8343  1.8927  3.5994
41857SOL    HW227579   8.376   7.750   3.201 -0.1435 -1.0975 -0.7190
41858SOL     OW27580   9.494   0.249   9.511  0.1141 -0.7992  0.3421
41858SOL    HW127581   9.528   0.329   9.469  1.2527 -1.1523  0.5576
41858SOL    HW227582   9.408   0.236   9.471  0.1599  0.2078 -0.1269
41859SOL     OW27583   0.336   4.243   9.442  0.4456  0.2457  0.3812
41859SOL    HW127584   0.400   4.177   9.415  0.7261 -0.4807  2.5851
41859SOL    HW227585   0.386   4.324   9.450  0.3169  0.5274 -1.3018
41860SOL     OW27586   6.548   2.227   9.678  0.1285 -0.5377 -0.3053
41860SOL    HW127587   6.466   2.234   9.727 -0.2271 -0.8734 -0.8425
41860SOL    HW227588   6.570   2.134   9.681  0.1858 -0.5380 -0.6455
41861SOL     OW27589   4.384   7.813   7.891 -0.0799  0.5205  0.1245
41861SOL    HW127590   4.362   7.806   7.984  1.8475 -1.1993  0.5310
41861SOL    HW227591   4.350   7.732   7.852 -0.4301  0.9976 -0.5757
41862SOL     OW27592   9.970   8.844   3.203 -0.2808  0.2009 -0.1939
41862SOL    HW127593  10.039   8.783   3.229 -1.8348 -1.8997 -0.6952
41862SOL    HW227594   9.991   8.866   3.112  0.5586  0.8358  0.1448
41863SOL     OW27595   9.930   7.074   0.128 -0.3163 -0.0724  0.1676
41863SOL    HW127596  10.017   7.036   0.117 -0.5334 -0.3197 -0.8605
41863SOL    HW227597   9.880   7.007   0.175 -0.0922 -0.1481  0.2976
41864SOL     OW27598   3.947   5.232   2.369 -0.3049 -0.4710  0.1935
41864SOL    HW127599   3.936   5.137   2.376  0.0594 -0.4840  0.6101
41864SOL    HW227600   3.876   5.259   2.311 -1.9890 -0.6953  2.0129
41865SOL     OW27601   1.684   4.418  10.920  0.5466 -0.0417 -0.0140
41865SOL    HW127602   1.719   4.331  10.941  0.4326  0.3512  2.0639
41865SOL    HW227603   1.599   4.400  10.880  0.1439 -0.9150  1.1518
41866SOL     OW27604   0.878   7.353   2.933 -0.0892 -0.1155 -0.0575
41866SOL    HW127605   0.843   7.320   2.850  2.1484 -3.0663 -0.0150
41866SOL    HW227606   0.970   7.371   2.914 -0.5446  4.0342  0.6716
41867SOL     OW27607   7.011   9.722   7.212 -0.1698  0.0514 -0.6352
41867SOL    HW127608   6.933   9.774   7.231 -1.6550 -0.9690 -3.4404
41867SOL    HW227609   6.991   9.636   7.249 -1.9109 -1.1488 -3.9665
41868SOL     OW27610   5.176   1.321   4.328 -0.1426  1.0008  0.0921
41868SOL    HW127611   5.189   1.319   4.233  0.2716 -0.5063  0.1559
41868SOL    HW227612   5.098   1.267   4.343 -1.8363  3.3911  0.4206
41869SOL     OW27613   6.002  10.268   5.977 -0.3916 -0.0648 -0.6351
41869SOL    HW127614   5.990  10.311   5.893 -1.5941 -3.0378 -2.1142
41869SOL    HW227615   6.075  10.208   5.963 -0.5344 -0.5302  0.4884
41870SOL     OW27616   6.870  10.486   8.331 -0.3215 -0.0333 -0.2463
41870SOL    HW127617   6.924  10.503   8.254 -0.5071 -1.8240 -0.8101
41870SOL    HW227618   6.852  10.573   8.367  0.7108  0.7668 -1.5617
41871SOL     OW27619   9.477   2.575   2.502  0.0360 -0.3279 -0.1433
41871SOL    HW127620   9.533   2.604   2.430  2.3614 -0.0953  1.6562
41871SOL    HW227621   9.431   2.654   2.530 -0.9752 -0.4405 -1.3668
41872SOL     OW27622   9.305   1.149  10.642 -0.2197  0.2200 -0.5903
41872SOL    HW127623   9.362   1.215  10.682 -0.4272 -0.5983  1.1622
41872SOL    HW227624   9.241   1.200  10.592  0.0443  1.3275  0.1519
41873SOL     OW27625   2.685   4.104  10.140  0.6603 -0.3351 -0.0591
41873SOL    HW127626   2.641   4.185  10.164  1.0026 -0.0168 -0.4838
41873SOL    HW227627   2.742   4.084  10.214  2.8915  1.4714 -1.1540
41874SOL     OW27628   5.432   5.534   6.392  0.2678  0.6964  0.5063
41874SOL    HW127629   5.408   5.464   6.454  0.7762 -0.4942 -0.5853
41874SOL    HW227630   5.359   5.538   6.331  0.1550  1.2589  0.6799
41875SOL     OW27631   5.167   7.050   2.843  0.5373  0.6951 -0.5014
41875SOL    HW127632   5.106   7.122   2.855 -0.0088  0.2063 -0.3097
41875SOL    HW227633   5.253   7.087   2.863  0.1263  0.9711  0.8366
41876SOL     OW27634   2.840   4.356   2.074 -0.0656  0.0276  0.0143
41876SOL    HW127635   2.747   4.358   2.092  0.2081 -0.4276  1.5870
41876SOL    HW227636   2.846   4.333   1.981 -1.4961 -1.8746  0.3235
41877SOL     OW27637   5.524   2.914   7.353 -0.9723 -0.6329  0.2586
41877SOL    HW127638   5.581   2.842   7.383  1.7464  1.6422  1.0644
41877SOL    HW227639   5.471   2.936   7.429  0.0384 -0.1957  0.8650
41878SOL     OW27640   8.845  11.059   1.704 -0.2441 -0.3049 -0.7154
41878SOL    HW127641   8.816  11.000   1.773 -0.3901 -2.4491 -2.4972
41878SOL    HW227642   8.785  11.043   1.631 -0.4356  2.2730 -1.2142
41879SOL     OW27643   4.414   7.461  10.695 -0.8269  0.1941  0.0193
41879SOL    HW127644   4.475   7.456  10.769  0.5431 -2.0093 -1.1837
41879SOL    HW227645   4.446   7.535  10.643  0.7776 -0.8082 -0.4908
41880SOL     OW27646   9.044   3.156   9.748  0.3141  0.2015  0.0590
41880SOL    HW127647   9.037   3.069   9.787  0.0058  1.7339  3.8373
41880SOL    HW227648   8.969   3.162   9.689  0.4487 -2.0963 -0.4529
41881SOL     OW27649   9.001   5.397   4.142 -0.5741 -0.0456  0.0336
41881SOL    HW127650   8.969   5.342   4.214  1.0990  0.9293  1.5749
41881SOL    HW227651   8.925   5.451   4.118 -1.7256 -1.7141 -0.3296
41882SOL     OW27652  10.326   0.527   2.073  0.0470  0.0788 -0.2348
41882SOL    HW127653  10.282   0.443   2.083  0.4250 -0.1942 -0.7991
41882SOL    HW227654  10.409   0.516   2.120  0.1615  0.0836 -0.4344
41883SOL     OW27655   3.772   5.955  10.018 -0.5951 -0.3729  0.0589
41883SOL    HW127656   3.711   6.008  10.069 -0.1828  0.1466  0.0144
41883SOL    HW227657   3.727   5.940   9.935 -0.2367  0.8781 -0.3661
41884SOL     OW27658   1.066   8.034   5.097 -0.0423 -0.0896 -0.8248
41884SOL    HW127659   1.119   8.077   5.030  2.0945 -0.6078  0.4193
41884SOL    HW227660   1.074   8.090   5.174  0.2633 -1.1364 -0.0752
41885SOL     OW27661   2.184   8.171  11.046  0.4615  0.0993 -0.3302
41885SOL    HW127662   2.100   8.214  11.064 -0.0210 -0.7611 -0.4686
41885SOL    HW227663   2.166   8.112  10.973  1.2143 -0.0196 -0.4263
41886SOL     OW27664   6.332   2.155   9.129 -0.0828 -0.4167 -0.1738
41886SOL    HW127665   6.394   2.181   9.197 -1.0079 -0.0315  0.5370
41886SOL    HW227666   6.387   2.140   9.052  0.8974 -0.1080  0.4429
41887SOL     OW27667   9.744   2.288   8.932  0.0384 -0.3855  0.0002
41887SOL    HW127668   9.812   2.297   8.865 -2.0820 -1.0705 -2.4018
41887SOL    HW227669   9.737   2.193   8.946  1.1443 -0.2201  2.0475
41888SOL     OW27670   3.670   0.839   5.436  0.1125 -0.2808 -0.7816
41888SOL    HW127671   3.699   0.749   5.454 -0.6732 -0.3677  0.0717
41888SOL    HW227672   3.726   0.894   5.490  1.3935 -0.1422 -2.1760
41889SOL     OW27673   7.855   7.715   6.513  0.1222 -0.5696  0.4831
41889SOL    HW127674   7.919   7.782   6.489 -2.2258  1.9950  0.7879
41889SOL    HW227675   7.818   7.746   6.595 -0.6324 -2.6507  0.9932
41890SOL     OW27676  10.897   0.549   3.868  0.0765  0.8502 -0.5155
41890SOL    HW127677  10.896   0.645   3.865 -0.2765  0.8360 -1.9338
41890SOL    HW227678  10.818   0.526   3.916  0.7164  1.2680  0.7770
41891SOL     OW27679   9.162   6.853   6.306 -0.2281  0.0089 -0.1061
41891SOL    HW127680   9.133   6.765   6.329  0.3342 -0.5690 -1.4819
41891SOL    HW227681   9.090   6.890   6.256 -0.0535 -0.0663 -0.4165
41892SOL     OW27682   5.322   9.881   7.219  1.0692 -0.6654 -0.2883
41892SOL    HW127683   5.277   9.799   7.238  3.2014 -1.5022  1.6358
41892SOL    HW227684   5.374   9.899   7.298  0.6700  2.5783 -0.6131
41893SOL     OW27685  10.446   2.770   3.717  0.0031  0.6337 -0.4187
41893SOL    HW127686  10.370   2.718   3.691  0.3502 -0.4693  0.6411
41893SOL    HW227687  10.412   2.859   3.728 -0.9697  0.3128 -0.6955
41894SOL     OW27688   6.377   6.271   0.013  0.3134 -0.3594  0.1333
41894SOL    HW127689   6.291   6.233   0.031  0.0884  1.0129  2.1813
41894SOL    HW227690   6.361   6.333  -0.059 -0.4017 -0.1645  0.4534
41895SOL     OW27691   0.100   5.272   4.595 -0.4850  0.0052 -0.6342
41895SOL    HW127692   0.032   5.312   4.648 -0.2753  0.9264 -1.0420
41895SOL    HW227693   0.146   5.213   4.655  1.5769  3.0973  1.0848
41896SOL     OW27694   1.530   4.380   5.682 -0.2857 -0.0851 -0.2176
41896SOL    HW127695   1.591   4.380   5.607  0.1870 -0.1678  0.1595
41896SOL    HW227696   1.454   4.429   5.651 -0.2691 -0.4688 -0.8923
41897SOL     OW27697   2.288   4.628   7.386 -0.9009 -0.4556  0.2878
41897SOL    HW127698   2.324   4.597   7.468  0.9380 -1.4152 -0.8145
41897SOL    HW227699   2.314   4.563   7.321 -2.0015  0.4286 -1.1258
41898SOL     OW27700   5.120  10.923   7.228 -0.2701 -0.2544  0.6723
41898SOL    HW127701   5.113  10.865   7.304 -0.7511 -2.0611 -0.6748
41898SOL    HW227702   5.206  10.903   7.190 -1.2541 -1.6731 -0.9607
41899SOL     OW27703   8.727   1.556   5.627  0.1440 -0.0751 -0.0348
41899SOL    HW127704   8.638   1.589   5.641  0.6883  1.8083 -0.6423
41899SOL    HW227705   8.783   1.631   5.649  1.5391 -0.9522 -0.5021
41900SOL     OW27706   6.642  10.520   2.495 -0.0189  0.3248  0.0821
41900SOL    HW127707   6.625  10.602   2.541 -0.5340 -0.2639  0.9726
41900SOL    HW227708   6.667  10.547   2.406  2.2113  1.5565  0.9952
41901SOL     OW27709  10.042   7.909   7.312 -1.1636 -0.0778 -0.2386
41901SOL    HW127710   9.992   7.905   7.394  0.6645  0.5219  0.9454
41901SOL    HW227711  10.057   7.817   7.289 -0.4869 -0.2686  0.8793
41902SOL     OW27712   2.171   3.796   6.708  0.3869  0.7622 -0.0381
41902SOL    HW127713   2.240   3.735   6.733 -0.6107  0.3140  1.7863
41902SOL    HW227714   2.208   3.847   6.636  2.1706 -0.2595  0.1229
41903SOL     OW27715   2.555  10.866   1.595  0.7712  0.0576  0.4356
41903SOL    HW127716   2.629  10.805   1.602  0.7753  0.2279  2.5451
41903SOL    HW227717   2.564  10.922   1.672 -1.6863 -0.0699  0.8730
41904SOL     OW27718   6.804  10.244   5.778 -0.7771 -0.2499  0.1857
41904SOL    HW127719   6.771  10.333   5.768  0.8048  0.2408 -1.1487
41904SOL    HW227720   6.767  10.196   5.703 -0.0507 -0.1829 -0.2273
41905SOL     OW27721   4.350   4.850   4.414  0.4452 -0.3522 -0.2933
41905SOL    HW127722   4.399   4.916   4.462  0.6553  1.2479 -2.5494
41905SOL    HW227723   4.391   4.849   4.327 -1.0088 -1.8423 -1.0040
41906SOL     OW27724   3.181   0.281   6.472  0.3521  0.1484 -0.6410
41906SOL    HW127725   3.254   0.334   6.439  0.2671  0.4678 -0.3234
41906SOL    HW227726   3.164   0.316   6.560  1.4975 -1.5897  0.3253
41907SOL     OW27727   0.047   3.440   6.398 -0.4252 -0.7732  0.1006
41907SOL    HW127728   0.129   3.434   6.351 -0.5131 -0.0289 -0.1563
41907SOL    HW227729  -0.020   3.421   6.333 -0.4653 -1.3329  0.2989
41908SOL     OW27730   0.497   0.410   0.790  0.1291 -0.3738 -0.6586
41908SOL    HW127731   0.466   0.361   0.867  0.3880  1.8355  0.9386
41908SOL    HW227732   0.434   0.388   0.721 -1.3989 -0.7673  0.7933
41909SOL     OW27733   9.519   5.216   4.390  0.0657  0.0204  0.7720
41909SOL    HW127734   9.589   5.249   4.333 -1.9791  0.6372 -1.5984
41909SOL    HW227735   9.513   5.280   4.461 -1.3109  2.9252 -1.7172
41910SOL     OW27736   1.405   2.427   5.247  0.4049 -0.3030  0.4459
41910SOL    HW127737   1.365   2.417   5.161  0.2117  0.7441  0.3986
41910SOL    HW227738   1.333   2.417   5.309  0.2705  0.4532  0.4137
41911SOL     OW27739   0.166   7.165   0.259  0.8012 -0.1994 -0.0896
41911SOL    HW127740   0.208   7.238   0.213 -2.0867  0.8776 -1.2061
41911SOL    HW227741   0.127   7.113   0.189 -1.3882 -0.0212  0.9302
41912SOL     OW27742   5.436   4.625   2.391  0.3699  0.2035  0.1868
41912SOL    HW127743   5.510   4.657   2.339 -0.0885 -0.1525 -0.6944
41912SOL    HW227744   5.428   4.688   2.462  1.5153  0.2565  0.2945
41913SOL     OW27745   4.092   5.428  10.987  0.3051 -0.0455  0.3009
41913SOL    HW127746   3.999   5.451  10.995  0.3738 -0.0217  1.0038
41913SOL    HW227747   4.096   5.337  11.017  0.2192 -0.6753 -1.4280
41914SOL     OW27748   8.987   3.657   8.436  0.0266  0.6902 -0.6151
41914SOL    HW127749   8.894   3.638   8.445  0.1294  0.5455  0.2613
41914SOL    HW227750   8.992   3.750   8.416 -0.2760  0.8972  0.2431
41915SOL     OW27751   8.798  10.012   1.222 -0.4282  0.7746  1.0102
41915SOL    HW127752   8.876  10.001   1.276  0.1953 -1.5516 -0.2266
41915SOL    HW227753   8.725   9.995   1.282  0.2912 -3.8816  0.9261
41916SOL     OW27754  10.756   0.489  10.660  1.0744  0.0216 -0.4686
41916SOL    HW127755  10.817   0.559  10.681  1.9200 -0.8154 -0.0738
41916SOL    HW227756  10.807   0.426  10.609  1.2608 -1.8219  1.8087
41917SOL     OW27757   2.227   0.321   3.333 -0.3371  0.6728 -0.5166
41917SOL    HW127758   2.302   0.372   3.302 -0.6020  0.4397 -1.6016
41917SOL    HW227759   2.244   0.307   3.426  1.1602  0.3069 -0.8129
41918SOL     OW27760   5.845  10.178   4.782  0.2563 -0.1457  0.8651
41918SOL    HW127761   5.845  10.138   4.695  1.3927 -1.8576  1.6025
41918SOL    HW227762   5.782  10.250   4.775  1.0202  0.3709 -1.6302
41919SOL     OW27763   9.798   4.855  10.369  0.0196 -0.0075 -0.6977
41919SOL    HW127764   9.868   4.894  10.316 -1.5262  0.8700 -2.2170
41919SOL    HW227765   9.742   4.811  10.305 -1.7827  0.8417  0.2052
41920SOL     OW27766   4.429   5.110   6.059 -0.2911  0.0501  0.3987
41920SOL    HW127767   4.477   5.188   6.029  0.1277  0.2987  1.6788
41920SOL    HW227768   4.494   5.040   6.056  0.3130  0.4555  2.4624
41921SOL     OW27769   1.226  10.955   7.042 -0.1812  0.0436  0.8615
41921SOL    HW127770   1.204  10.894   7.112 -2.5602  0.9661  1.0047
41921SOL    HW227771   1.168  10.930   6.970 -0.7024  1.6475  0.6835
41922SOL     OW27772   5.984   7.159   7.745 -0.1061 -0.6377  0.6887
41922SOL    HW127773   5.926   7.143   7.671  0.1910 -1.8948  0.7048
41922SOL    HW227774   5.996   7.254   7.746 -0.0612 -0.6052 -0.9071
41923SOL     OW27775   1.630   2.325   8.044  0.1451  0.5187  0.2924
41923SOL    HW127776   1.573   2.297   7.972  0.6041  0.3296 -0.0049
41923SOL    HW227777   1.572   2.333   8.119 -0.9734  3.5634 -0.7177
41924SOL     OW27778   8.191   7.084   7.775 -0.5684  0.3330 -0.2401
41924SOL    HW127779   8.220   7.158   7.828 -0.0081 -0.7311  0.9933
41924SOL    HW227780   8.095   7.090   7.777 -0.5944 -0.0785  1.5342
41925SOL     OW27781   2.841   5.715   0.186 -0.4156 -0.0348  0.3757
41925SOL    HW127782   2.886   5.674   0.112 -0.9085  1.1639 -0.6360
41925SOL    HW227783   2.875   5.670   0.263 -0.5056 -1.9055 -0.6133
41926SOL     OW27784   6.154   2.796   0.593  0.0021 -0.6189 -1.0441
41926SOL    HW127785   6.085   2.858   0.567 -1.5702 -1.9045 -0.1320
41926SOL    HW227786   6.210   2.788   0.516 -0.8231  0.5036 -1.7965
41927SOL     OW27787   2.537   1.911   7.672 -0.5967 -0.1653 -0.1998
41927SOL    HW127788   2.498   1.826   7.691 -0.1344 -0.3757 -0.1961
41927SOL    HW227789   2.484   1.974   7.722  0.2710 -0.6462  1.3615
41928SOL     OW27790   6.296   3.243  10.872  0.3103  0.6308 -0.3239
41928SOL    HW127791   6.254   3.158  10.858  0.2966  0.9563 -2.6923
41928SOL    HW227792   6.331   3.239  10.961 -0.6463 -1.4234  0.0029
41929SOL     OW27793   1.784   1.737  10.448  0.4627  0.0104  0.5149
41929SOL    HW127794   1.879   1.723  10.449  0.2449 -1.6107  0.4550
41929SOL    HW227795   1.764   1.757  10.357  0.4031 -2.5502 -0.0997
41930SOL     OW27796   9.716   5.367   0.506  0.0152  0.9842 -0.4380
41930SOL    HW127797   9.625   5.375   0.478 -1.0119 -0.9087  2.0245
41930SOL    HW227798   9.721   5.282   0.549  2.9139  1.1551 -0.2192
41931SOL     OW27799   5.206   9.003   5.590 -0.5089 -0.3900 -0.4264
41931SOL    HW127800   5.206   9.087   5.543  0.4742  0.0598  0.3335
41931SOL    HW227801   5.208   8.937   5.521 -2.5917  0.1513 -1.0815
41932SOL     OW27802   8.448   6.100   4.844  0.1795 -0.1948 -0.1010
41932SOL    HW127803   8.473   6.111   4.752 -0.9796  1.1075 -0.2946
41932SOL    HW227804   8.502   6.027   4.875  2.0216  0.5999 -1.2744
41933SOL     OW27805  10.914   4.537   3.226 -0.5821  0.2161 -0.1250
41933SOL    HW127806  10.830   4.491   3.231 -0.9589 -0.0085 -4.4224
41933SOL    HW227807  10.891   4.630   3.224 -0.5884  0.2217  0.1917
41934SOL     OW27808   2.286  10.772  10.234 -0.5278  0.0648  0.9866
41934SOL    HW127809   2.225  10.730  10.174  0.3162  0.5421 -0.2425
41934SOL    HW227810   2.279  10.721  10.315 -1.1727 -1.0391  0.2570
41935SOL     OW27811   5.302   5.250   3.307 -0.3060 -0.3341  0.3627
41935SOL    HW127812   5.332   5.181   3.365 -1.9370 -2.4042 -1.0882
41935SOL    HW227813   5.306   5.330   3.360  0.0368 -1.7921  2.6695
41936SOL     OW27814   0.322   0.160   6.714 -0.1224 -0.3125  0.4561
41936SOL    HW127815   0.396   0.104   6.735 -0.0037  0.1487  1.3340
41936SOL    HW227816   0.354   0.249   6.732 -0.5064 -0.0165 -0.3014
41937SOL     OW27817   3.954   1.628   5.126  0.0320  0.0293 -0.3539
41937SOL    HW127818   3.948   1.543   5.082 -0.3501  0.8835 -2.0670
41937SOL    HW227819   4.043   1.632   5.160  0.8097 -0.2014 -2.2256
41938SOL     OW27820  10.672   2.947   3.952  0.8929  0.5803  0.6494
41938SOL    HW127821  10.624   2.958   3.870  0.9270  0.3459  0.5976
41938SOL    HW227822  10.613   2.982   4.019  0.7061  0.4236  0.5695
41939SOL     OW27823   9.675   0.493   6.142  0.0693  0.4108 -0.5149
41939SOL    HW127824   9.656   0.559   6.209 -1.7677  0.3627 -0.9292
41939SOL    HW227825   9.750   0.528   6.094  1.4518  0.4342  1.5399
41940SOL     OW27826   7.203   6.913  10.022  0.6628 -0.4494 -0.0977
41940SOL    HW127827   7.189   6.966   9.943  2.1427  0.2240  0.0719
41940SOL    HW227828   7.145   6.952  10.088 -1.6173 -1.8319 -1.1335
41941SOL     OW27829   7.658   7.366   3.349 -0.2621 -0.1712 -0.0386
41941SOL    HW127830   7.749   7.396   3.344 -0.4122  0.1351 -1.0778
41941SOL    HW227831   7.662   7.289   3.406  1.0120 -1.4899 -1.7718
41942SOL     OW27832   0.839  10.846  10.511 -0.2967  0.0507  0.1530
41942SOL    HW127833   0.799  10.783  10.572 -2.0270  0.1167 -0.8373
41942SOL    HW227834   0.777  10.850  10.438  0.2311  2.2336 -0.2239
41943SOL     OW27835   9.242   6.981   1.991 -0.4124 -0.0303  0.3616
41943SOL    HW127836   9.314   6.933   1.951  1.2513  1.6880  1.1468
41943SOL    HW227837   9.219   6.930   2.069  0.6600 -0.0877  0.6532
41944SOL     OW27838   5.268   0.614   5.342  0.5517 -0.4672  0.1838
41944SOL    HW127839   5.353   0.636   5.380  0.2287 -0.2814  0.8194
41944SOL    HW227840   5.210   0.602   5.418 -0.3717  0.9139 -0.2698
41945SOL     OW27841   3.144  11.091  10.262 -0.9087 -0.7131  0.1510
41945SOL    HW127842   3.165  11.008  10.220  0.7123 -0.2124 -0.1189
41945SOL    HW227843   3.070  11.126  10.213 -1.8374 -2.1402  0.4967
41946SOL     OW27844   7.061   8.557   9.320 -0.7228  0.6342 -0.2345
41946SOL    HW127845   7.053   8.631   9.261  0.5611  0.3393 -0.8205
41946SOL    HW227846   6.975   8.516   9.320 -0.2043 -0.8590 -3.9354
41947SOL     OW27847   7.400   1.099   9.578  0.2723  0.1995 -0.2711
41947SOL    HW127848   7.435   1.176   9.623 -1.7532  0.8299  0.3218
41947SOL    HW227849   7.449   1.095   9.496  1.9791  0.7615  0.6703
41948SOL     OW27850   5.855   4.055   1.929  0.3613 -0.3835  0.4785
41948SOL    HW127851   5.802   3.997   1.983 -3.2237 -0.4368 -2.6634
41948SOL    HW227852   5.912   3.997   1.878 -1.0342 -0.9775 -0.4662
41949SOL     OW27853   4.543   6.753  10.955  0.2091  0.1618 -0.1186
41949SOL    HW127854   4.499   6.795  10.882  1.9279  0.5859 -0.9599
41949SOL    HW227855   4.486   6.770  11.031 -1.6036 -0.3039 -1.3212
41950SOL     OW27856   0.010   4.092   3.617 -0.2003  0.1228 -0.3643
41950SOL    HW127857  -0.023   4.094   3.706 -0.0739 -0.8944 -0.2866
41950SOL    HW227858   0.106   4.091   3.627 -0.1872 -0.6848 -0.4758
41951SOL     OW27859   8.308   9.363   8.039  0.0640 -0.3607  0.3535
41951SOL    HW127860   8.324   9.451   8.074  0.5279 -0.2144 -0.2170
41951SOL    HW227861   8.220   9.340   8.071 -1.2220  1.3984 -1.6566
41952SOL     OW27862   2.170   5.919   7.009  0.7532 -0.2995 -0.0324
41952SOL    HW127863   2.210   5.854   6.952  1.1854  0.1474 -0.2391
41952SOL    HW227864   2.175   6.001   6.960 -0.6203 -0.2685 -0.1626
41953SOL     OW27865   3.038   5.587   7.375  0.0921 -0.0653  0.2981
41953SOL    HW127866   3.073   5.645   7.307  2.4173 -0.4881  1.0335
41953SOL    HW227867   2.982   5.525   7.328  0.5245  0.5113 -1.0164
41954SOL     OW27868   8.152   2.864   0.162 -0.5543 -0.4296  0.0961
41954SOL    HW127869   8.209   2.862   0.085 -1.0882 -1.9012 -0.3017
41954SOL    HW227870   8.093   2.937   0.146 -0.6711 -0.7281 -0.9278
41955SOL     OW27871   2.234   5.295   5.481  0.1349 -0.0611 -0.0954
41955SOL    HW127872   2.192   5.214   5.453 -0.7647 -0.0512  1.1042
41955SOL    HW227873   2.160   5.354   5.500  0.7390  1.7351 -2.7426
41956SOL     OW27874   2.126   3.977   4.673  0.9237 -0.2062 -0.0638
41956SOL    HW127875   2.163   4.002   4.588 -0.7771 -0.7269 -1.0219
41956SOL    HW227876   2.140   3.883   4.678  1.5489 -0.0857  0.5254
41957SOL     OW27877   1.890  10.287   5.813  0.4927 -0.4486 -0.1924
41957SOL    HW127878   1.960  10.350   5.797  0.5773 -0.9473 -1.9339
41957SOL    HW227879   1.811  10.331   5.781  0.0395 -0.0856  1.3143
41958SOL     OW27880   2.515   4.084   6.810  0.2190 -0.2472 -0.1310
41958SOL    HW127881   2.467   4.017   6.859  1.4269 -1.0903 -0.0710
41958SOL    HW227882   2.550   4.039   6.734  1.3405  0.2163  0.0839
41959SOL     OW27883   7.650  10.219   1.331 -0.1516  0.5197  0.4846
41959SOL    HW127884   7.642  10.301   1.381 -0.4059 -1.3729  3.8528
41959SOL    HW227885   7.665  10.152   1.398 -1.0161 -2.3885 -2.0315
41960SOL     OW27886   6.460   3.710   2.481  0.1609  0.1740 -0.1493
41960SOL    HW127887   6.383   3.660   2.507  0.4244  0.1104  0.5114
41960SOL    HW227888   6.460   3.786   2.539  0.2751  0.4727 -0.5378
41961SOL     OW27889   9.043   5.139   4.754 -0.1495 -0.3393  0.1841
41961SOL    HW127890   9.004   5.056   4.726  0.0472 -0.4568  0.2517
41961SOL    HW227891   8.999   5.206   4.701  1.5595 -0.7143 -1.8458
41962SOL     OW27892  10.939   2.403   6.969  0.2397  0.4669  0.3968
41962SOL    HW127893  10.950   2.498   6.965 -0.0148  0.4577 -1.5476
41962SOL    HW227894  10.951   2.374   6.879 -2.0673 -1.0873  0.5088
41963SOL     OW27895   3.528   8.534   7.419 -0.4783  0.0223 -0.2477
41963SOL    HW127896   3.528   8.490   7.505 -1.0821 -0.1698 -0.3382
41963SOL    HW227897   3.593   8.603   7.427  0.0386 -0.5001  0.1087
41964SOL     OW27898  10.843   7.599   0.143 -0.5890  0.2745  0.4576
41964SOL    HW127899  10.783   7.649   0.088  0.2884  0.9677  0.1079
41964SOL    HW227900  10.803   7.512   0.148 -1.6546  0.7297  0.2943
41965SOL     OW27901  11.005   0.874  10.927 -0.0407  0.3306  0.2753
41965SOL    HW127902  10.960   0.792  10.905 -0.8005  0.5046  1.1028
41965SOL    HW227903  11.073   0.882  10.861 -0.4247 -0.5958 -0.2641
41966SOL     OW27904   2.718   0.499   9.605 -0.3918  0.7646 -0.2883
41966SOL    HW127905   2.657   0.535   9.670 -1.0659  1.2265 -1.1516
41966SOL    HW227906   2.803   0.501   9.648 -1.2366 -1.9090  1.7997
41967SOL     OW27907   6.180   4.741   7.407  0.7055  0.0875  0.0792
41967SOL    HW127908   6.273   4.757   7.391  0.9534  0.8632  1.9394
41967SOL    HW227909   6.135   4.814   7.364  0.8649 -0.6828 -1.4526
41968SOL     OW27910   3.401   4.655   3.360 -0.0683  0.3227  0.0169
41968SOL    HW127911   3.418   4.677   3.268  1.7127  1.6842  0.6187
41968SOL    HW227912   3.483   4.674   3.405 -1.2033  0.6799  2.0735
41969SOL     OW27913   8.349   9.766   1.010  0.3213 -0.0958 -0.3283
41969SOL    HW127914   8.374   9.857   1.028  1.1106  0.0499 -1.9769
41969SOL    HW227915   8.259   9.772   0.980  0.3903  0.1468 -0.4912
41970SOL     OW27916   8.863   8.096   1.165  0.5900  0.5594  0.3870
41970SOL    HW127917   8.884   8.158   1.095  0.2376  0.0643 -0.1640
41970SOL    HW227918   8.935   8.104   1.227  0.6299  1.3986  0.2366
41971SOL     OW27919   6.047   1.057   7.923  0.0945  0.0507  0.2770
41971SOL    HW127920   5.983   0.991   7.897  0.7095 -1.0907  1.4746
41971SOL    HW227921   6.127   1.007   7.940  0.8128  1.2162  0.4514
41972SOL     OW27922   1.928   5.213   4.149  0.7370  0.1405  0.1968
41972SOL    HW127923   1.964   5.296   4.118 -0.4226  0.4394 -0.4229
41972SOL    HW227924   1.842   5.236   4.184  0.5875 -0.7367  0.4364
41973SOL     OW27925  10.386   3.214   6.709 -0.3979 -0.4312  0.1298
41973SOL    HW127926  10.420   3.279   6.769  1.7104 -1.0144 -0.3601
41973SOL    HW227927  10.328   3.263   6.650 -0.4673  0.5898  1.0250
41974SOL     OW27928   5.938   6.313   2.070  0.3079  0.8059 -0.1358
41974SOL    HW127929   5.945   6.232   2.121 -1.0653  0.7553  0.0252
41974SOL    HW227930   5.844   6.334   2.073  0.6804  2.5245  0.0053
41975SOL     OW27931   8.559   7.151   9.851 -0.0763  0.1761  0.5921
41975SOL    HW127932   8.519   7.236   9.830 -0.1006  0.1627  0.5845
41975SOL    HW227933   8.653   7.166   9.846 -0.0849  0.1087  0.2347
41976SOL     OW27934   1.887   3.252   3.389 -0.2864  0.4061 -0.1131
41976SOL    HW127935   1.882   3.196   3.311 -1.4493 -0.4976  0.5748
41976SOL    HW227936   1.863   3.194   3.461 -1.0040  1.6754  0.6909
41977SOL     OW27937   9.698   7.578   7.821 -0.2632 -0.4413  0.3917
41977SOL    HW127938   9.604   7.575   7.840 -0.7529  1.8505 -1.2434
41977SOL    HW227939   9.724   7.667   7.842  1.1024 -0.4633 -0.9947
41978SOL     OW27940   6.956   9.171   6.192  0.2136 -0.6609  0.3611
41978SOL    HW127941   6.964   9.236   6.122  1.8229  0.8440  1.8525
41978SOL    HW227942   6.920   9.093   6.148  0.5533  0.4131 -1.9813
41979SOL     OW27943   9.424  11.031   3.558  0.2121 -0.2376  0.3326
41979SOL    HW127944   9.515  11.003   3.542  0.5226  1.0131 -0.1594
41979SOL    HW227945   9.379  11.014   3.476  0.0183 -0.7491  0.5404
41980SOL     OW27946   1.173   0.905   1.155  0.2001  0.5321 -0.3192
41980SOL    HW127947   1.163   0.889   1.249  1.2202  1.5714 -0.0030
41980SOL    HW227948   1.104   0.854   1.114  0.5226 -0.9575  0.9095
41981SOL     OW27949  10.411   1.922   4.691 -0.2608  0.2123  0.9280
41981SOL    HW127950  10.317   1.902   4.683  0.3127 -1.9489 -2.3172
41981SOL    HW227951  10.439   1.870   4.766 -1.3815 -0.4669  0.9144
41982SOL     OW27952  10.827   2.510   5.006  0.3940  0.2891  0.1938
41982SOL    HW127953  10.844   2.419   4.981  1.1214  0.4983 -0.1314
41982SOL    HW227954  10.897   2.531   5.068 -2.1639 -0.6547  3.7057
41983SOL     OW27955   5.333   1.267   0.555  0.4415 -0.9106  0.2013
41983SOL    HW127956   5.417   1.236   0.521 -0.5233 -0.7802 -2.5883
41983SOL    HW227957   5.289   1.188   0.586  0.0668 -1.6595 -2.0550
41984SOL     OW27958   6.672   3.982   8.272 -0.5122  0.3350 -0.1365
41984SOL    HW127959   6.663   3.910   8.209  0.7526  0.9334 -1.0572
41984SOL    HW227960   6.761   3.974   8.305 -0.1266  1.8099 -0.7207
41985SOL     OW27961   6.533   7.803   3.630  0.1369 -0.6553  1.0741
41985SOL    HW127962   6.492   7.869   3.687  3.6770  1.9552  0.9176
41985SOL    HW227963   6.596   7.758   3.686  1.9519  0.2926 -0.0943
41986SOL     OW27964   2.597   5.313   6.535 -0.3574  0.1013 -0.0493
41986SOL    HW127965   2.602   5.264   6.617  0.8989  0.9034  0.3921
41986SOL    HW227966   2.689   5.332   6.513 -0.6399 -0.3854 -1.8295
41987SOL     OW27967   3.534   3.713   2.527 -0.1407  0.2552  0.4490
41987SOL    HW127968   3.627   3.728   2.546  0.6987 -1.1408 -2.1060
41987SOL    HW227969   3.508   3.642   2.586  0.7301 -0.0723  0.4472
41988SOL     OW27970   3.540   1.416   8.948  0.5091  1.2975  0.5799
41988SOL    HW127971   3.541   1.332   8.902  1.0747  0.6338  1.7555
41988SOL    HW227972   3.536   1.392   9.040  2.0050  2.5419  0.9963
41989SOL     OW27973   9.594   4.291   9.806 -0.2690 -0.4983 -0.1014
41989SOL    HW127974   9.522   4.230   9.791  0.2544 -0.8461 -1.3247
41989SOL    HW227975   9.552   4.375   9.819 -1.1259 -1.3080  3.4405
41990SOL     OW27976   0.438   4.591   0.519 -0.3326 -0.3446  0.4564
41990SOL    HW127977   0.352   4.585   0.478  0.2329  1.3181 -1.1411
41990SOL    HW227978   0.423   4.643   0.599 -0.7115  0.6711 -0.2511
41991SOL     OW27979  10.328   1.307   1.780 -0.0080 -0.1995  0.2807
41991SOL    HW127980  10.423   1.313   1.790 -0.0435  2.9302 -0.4365
41991SOL    HW227981  10.301   1.248   1.850  2.2677  0.3926  1.7871
41992SOL     OW27982  10.148   6.081   8.028  0.7088 -0.4093  0.2276
41992SOL    HW127983  10.122   6.108   8.117 -0.8077  0.5737 -0.4807
41992SOL    HW227984  10.078   6.114   7.972 -0.0057 -3.7537 -1.0235
41993SOL     OW27985   7.154   5.463   5.277  0.7988  0.5350  0.1101
41993SOL    HW127986   7.078   5.432   5.228  1.3444 -1.5180  0.4751
41993SOL    HW227987   7.182   5.542   5.231  1.6860 -1.6101 -3.3835
41994SOL     OW27988   8.182   9.729   7.185 -1.3629  0.0086  0.3121
41994SOL    HW127989   8.096   9.695   7.207 -1.2735 -1.2202 -1.0911
41994SOL    HW227990   8.203   9.689   7.101  0.5792  0.2746  0.6196
41995SOL     OW27991   9.153  11.004   3.803  0.1141 -0.3076  0.6346
41995SOL    HW127992   9.074  11.003   3.750 -1.1214  0.1946  2.3748
41995SOL    HW227993   9.169  10.912   3.824  0.1162 -0.4265  0.1301
41996SOL     OW27994  10.684  10.664   7.703  0.0894 -0.4997 -0.5206
41996SOL    HW127995  10.728  10.739   7.662  0.7577  0.4596  1.8208
41996SOL    HW227996  10.728  10.588   7.664  2.0315  0.3996 -0.2293
41997SOL     OW27997   0.547   0.055   1.798  0.5282 -0.0721  0.2344
41997SOL    HW127998   0.521   0.022   1.884 -0.5929  1.5445  0.5516
41997SOL    HW227999   0.464   0.069   1.752  0.9492  2.0338  0.0454
41998SOL     OW28000   2.258   4.340  11.032 -0.2776  0.0220  0.0946
41998SOL    HW128001   2.172   4.363  10.997  0.1752  0.9014 -0.4647
41998SOL    HW228002   2.243   4.327  11.126 -1.4391 -2.0408 -0.3235
41999SOL     OW28003   6.682   3.624   1.460  0.1813  0.3260 -0.3723
41999SOL    HW128004   6.679   3.542   1.508  0.8997  1.1763  1.2236
41999SOL    HW228005   6.775   3.647   1.457  0.1279  0.4647 -1.9525
42000SOL     OW28006   7.946   1.787   2.037 -0.6979 -0.1701  0.0189
42000SOL    HW128007   7.968   1.710   2.090  1.7511 -0.9868 -2.0017
42000SOL    HW228008   7.950   1.860   2.099  1.3415 -1.1772  1.1921
42001SOL     OW28009   5.884   6.409   7.871  0.5369 -0.1664 -0.0138
42001SOL    HW128010   5.853   6.467   7.940 -0.6544 -0.3153 -0.4063
42001SOL    HW228011   5.962   6.452   7.837  0.6550  0.3289  0.8559
42002SOL     OW28012   5.220   8.424   9.667 -0.4199 -0.6255 -0.1616
42002SOL    HW128013   5.246   8.345   9.620  1.4215 -0.9165  1.2121
42002SOL    HW228014   5.222   8.399   9.759  1.3289  1.2588  0.3959
42003SOL     OW28015   8.922   1.496   5.396  0.0632  0.1038  0.5510
42003SOL    HW128016   8.875   1.509   5.314  1.9903  0.0436 -0.6336
42003SOL    HW228017   8.854   1.476   5.461 -1.5865  1.0726 -0.8136
42004SOL     OW28018   6.122   6.414   8.147  0.4607 -0.2409  0.1771
42004SOL    HW128019   6.171   6.369   8.078  0.0320  1.3062 -1.1929
42004SOL    HW228020   6.071   6.345   8.189 -0.0689 -1.0884 -1.7427
42005SOL     OW28021   8.945   1.872   1.096  0.1298 -0.7828  0.0578
42005SOL    HW128022   8.854   1.894   1.075 -0.1676 -1.6828  0.3711
42005SOL    HW228023   8.952   1.886   1.190  0.4991 -0.0912 -0.0710
42006SOL     OW28024   1.170   4.054  10.468  0.0103  0.0363 -0.3013
42006SOL    HW128025   1.138   4.075  10.380  0.7358  1.0062 -0.3600
42006SOL    HW228026   1.254   4.101  10.475 -0.2336  0.3300  1.0568
42007SOL     OW28027   4.103   3.350   5.963 -0.1140 -0.3058  0.1674
42007SOL    HW128028   4.141   3.298   5.892 -0.2204 -1.0818  0.6634
42007SOL    HW228029   4.132   3.307   6.043 -0.1314  0.4634  0.5995
42008SOL     OW28030   4.574   4.296   5.855 -0.1152  0.1585  0.3672
42008SOL    HW128031   4.606   4.211   5.824 -0.5253  0.2921 -0.4391
42008SOL    HW228032   4.643   4.327   5.913  0.6505 -0.1424 -0.3540
42009SOL     OW28033   1.958   6.747   2.621 -0.3174 -0.2471 -0.1608
42009SOL    HW128034   1.912   6.817   2.575  0.5024  0.1720 -0.3650
42009SOL    HW228035   1.993   6.692   2.551  1.2151  0.5738 -0.0627
42010SOL     OW28036   5.297   5.515   6.122  0.2807 -1.0806 -0.1965
42010SOL    HW128037   5.362   5.510   6.052 -1.3206  1.1725 -1.9977
42010SOL    HW228038   5.289   5.425   6.153  1.3545 -2.1246 -2.6719
42011SOL     OW28039   6.266   2.512   0.459 -0.7520 -0.2452 -0.5823
42011SOL    HW128040   6.248   2.524   0.552 -2.4044 -2.1034 -0.5822
42011SOL    HW228041   6.361   2.509   0.453 -0.5979 -1.8022  1.3628
42012SOL     OW28042   1.731   3.820   0.819 -0.0920 -0.2171 -0.0811
42012SOL    HW128043   1.684   3.742   0.847 -1.3031  0.4761 -0.1251
42012SOL    HW228044   1.701   3.889   0.878 -0.6959  0.6888 -1.4064
42013SOL     OW28045   8.811   2.318   3.671  0.6728  0.0175  0.3588
42013SOL    HW128046   8.766   2.355   3.596  0.9095  3.3415  1.6793
42013SOL    HW228047   8.904   2.332   3.653  0.9979 -2.3909 -0.1985
42014SOL     OW28048   0.201   2.904   8.523 -0.1239 -0.3362 -1.1192
42014SOL    HW128049   0.296   2.906   8.528 -0.1113 -1.6694 -0.4328
42014SOL    HW228050   0.177   2.991   8.490  1.3549 -0.2325 -2.0259
42015SOL     OW28051   2.899   1.192   0.231 -0.3593 -0.4641  0.2363
42015SOL    HW128052   2.860   1.119   0.183  0.4915 -0.6762 -0.1502
42015SOL    HW228053   2.924   1.156   0.316 -2.5587  0.0920  1.1871
42016SOL     OW28054   9.542   7.712   8.323  0.0211  0.2391  0.2440
42016SOL    HW128055   9.495   7.754   8.395 -0.5027 -0.1827  0.1569
42016SOL    HW228056   9.630   7.699   8.357 -0.3523 -0.4318  1.0149
42017SOL     OW28057  10.716   2.576   2.969 -0.5582 -0.4694  0.0991
42017SOL    HW128058  10.695   2.515   3.040  1.3813 -2.4443 -0.9048
42017SOL    HW228059  10.803   2.610   2.992 -1.1785  1.1816  0.1163
42018SOL     OW28060   7.249   5.464   2.482  0.0903 -0.5169  0.8800
42018SOL    HW128061   7.300   5.540   2.455 -0.4017 -0.8819 -1.3089
42018SOL    HW228062   7.309   5.390   2.473 -0.4664 -0.8156 -0.6778
42019SOL     OW28063   6.598   9.724   4.056 -0.0848 -0.1815 -0.4330
42019SOL    HW128064   6.584   9.733   4.151 -2.8161 -0.7398 -0.6933
42019SOL    HW228065   6.688   9.752   4.042 -0.2772  2.0635  2.0490
42020SOL     OW28066   0.506   5.207   1.919  0.5236 -0.5625 -0.0382
42020SOL    HW128067   0.531   5.116   1.938  0.7264 -0.8969 -1.7360
42020SOL    HW228068   0.560   5.260   1.977  2.6560 -1.4206 -1.1366
42021SOL     OW28069  10.964   2.140   3.153  0.3437 -0.2801 -0.9722
42021SOL    HW128070  10.872   2.120   3.135  0.5716 -2.4663  0.0248
42021SOL    HW228071  11.010   2.112   3.073  0.3063 -0.6242 -0.8733
42022SOL     OW28072   4.810   1.611   7.763 -0.0247  0.0482 -0.0726
42022SOL    HW128073   4.757   1.531   7.758  0.2788 -0.0821 -2.0658
42022SOL    HW228074   4.889   1.585   7.810  0.8801 -1.3782 -2.2229
42023SOL     OW28075  10.420   1.299   7.787 -0.1621 -0.6988  0.2997
42023SOL    HW128076  10.412   1.309   7.692  3.8415  3.0234  0.0450
42023SOL    HW228077  10.446   1.208   7.800  0.5723 -0.9421 -2.3530
42024SOL     OW28078   8.719   1.319   8.757 -0.7046  0.4449 -0.3624
42024SOL    HW128079   8.669   1.374   8.817 -0.8146  0.6598 -0.6467
42024SOL    HW228080   8.803   1.306   8.800 -1.0379 -0.0011  0.1665
42025SOL     OW28081   2.783   1.376   6.480  0.6059 -0.6711 -0.5647
42025SOL    HW128082   2.760   1.417   6.397 -0.0608 -1.2465 -0.6723
42025SOL    HW228083   2.874   1.401   6.495  0.5549 -0.0959 -1.1827
42026SOL     OW28084   0.525   5.591   5.525 -0.3075 -0.4906 -0.4939
42026SOL    HW128085   0.479   5.674   5.539  0.9289  0.3650 -1.2752
42026SOL    HW228086   0.517   5.544   5.608  0.5381  1.2016  0.5932
42027SOL     OW28087   1.261   8.284   2.230  0.0414  0.3837  0.4413
42027SOL    HW128088   1.210   8.327   2.298 -1.3623 -1.3259  0.5325
42027SOL    HW228089   1.347   8.324   2.236 -1.3623  3.7845 -0.0787
42028SOL     OW28090   1.490   7.443   9.747  0.3268 -0.0712 -0.0342
42028SOL    HW128091   1.415   7.492   9.713 -0.4106  0.3783  2.0925
42028SOL    HW228092   1.478   7.445   9.842  2.6418 -0.6528  0.3080
42029SOL     OW28093   8.247   4.722   7.857  0.0198 -0.4159  0.4530
42029SOL    HW128094   8.225   4.807   7.819 -1.6619 -0.7294  0.6520
42029SOL    HW228095   8.329   4.737   7.903  1.0389  0.4869 -1.5160
42030SOL     OW28096  10.655   2.069   7.253  0.3430 -0.1682  0.8853
42030SOL    HW128097  10.693   2.081   7.166  2.2769  0.0308  1.7068
42030SOL    HW228098  10.614   2.153   7.274  0.2647 -0.0734  0.3577
42031SOL     OW28099   8.218   8.374   8.955 -0.4961  0.3668 -0.0966
42031SOL    HW128100   8.239   8.421   8.874 -1.5783  1.0978  0.0181
42031SOL    HW228101   8.142   8.320   8.931 -1.3023  1.1531  0.5923
42032SOL     OW28102   9.626  10.802   2.524  0.2878 -0.4101  0.4906
42032SOL    HW128103   9.675  10.872   2.481 -0.0725  0.1183  0.9446
42032SOL    HW228104   9.635  10.727   2.464 -0.5510  0.4216 -0.7251
42033SOL     OW28105   8.549   1.995   5.408 -0.1961  0.0499 -0.6922
42033SOL    HW128106   8.470   1.977   5.458  1.8194 -2.7795  1.8732
42033SOL    HW228107   8.580   2.080   5.441 -0.8783  0.0107  0.0601
42034SOL     OW28108  10.370   7.321  10.474  0.1761 -0.2585 -0.0525
42034SOL    HW128109  10.465   7.330  10.478  0.1389 -0.0822  0.4436
42034SOL    HW228110  10.347   7.271  10.552 -0.3774  1.7175  1.1194
42035SOL     OW28111   5.975   7.434   7.710 -0.1287  0.2553  0.1004
42035SOL    HW128112   5.924   7.435   7.629  0.9656 -2.6651 -0.7533
42035SOL    HW228113   6.056   7.479   7.687  1.0798 -2.3649 -1.2289
42036SOL     OW28114   6.330   8.412   4.056 -0.3632 -0.5717 -0.6163
42036SOL    HW128115   6.271   8.416   4.132 -0.0508  0.5606 -0.4136
42036SOL    HW228116   6.323   8.499   4.017 -0.5099 -1.1425 -1.8896
42037SOL     OW28117   2.079   7.946   9.447 -0.0463  0.8345 -0.3292
42037SOL    HW128118   2.024   7.869   9.452  1.6246 -0.4591 -0.9691
42037SOL    HW228119   2.080   7.981   9.536 -0.9468  0.2303 -0.0723
42038SOL     OW28120  10.460   9.718   6.798  0.0868  0.6637  0.3080
42038SOL    HW128121  10.416   9.769   6.729  0.8141 -0.8177 -1.3392
42038SOL    HW228122  10.411   9.636   6.800  1.7023 -0.3495 -0.3756
42039SOL     OW28123   1.722   7.512   8.480  0.4666 -0.3949 -0.2391
42039SOL    HW128124   1.706   7.432   8.530 -2.0562  0.3046  0.1810
42039SOL    HW228125   1.674   7.580   8.527  1.7313  1.2156 -1.1441
42040SOL     OW28126   6.716   3.367   7.923  0.1347  0.5901 -0.5480
42040SOL    HW128127   6.806   3.367   7.953  0.6025  2.1331 -1.8207
42040SOL    HW228128   6.663   3.381   8.001  0.6849 -3.2871  0.7575
42041SOL     OW28129   7.439  10.252   3.747 -0.6455  0.2459  0.0407
42041SOL    HW128130   7.532  10.260   3.767 -0.4718  1.3991 -1.1082
42041SOL    HW228131   7.425  10.157   3.741  1.2035  0.0106 -2.8440
42042SOL     OW28132   3.934   1.788   7.853  0.4794 -0.2471  0.4029
42042SOL    HW128133   3.899   1.790   7.764  1.4657 -1.7832 -0.0650
42042SOL    HW228134   3.978   1.703   7.859  0.8609  0.0420  2.1994
42043SOL     OW28135  10.265   3.987   8.572 -0.4411  0.4964 -0.3626
42043SOL    HW128136  10.276   3.895   8.597  0.8883  0.3739 -1.2786
42043SOL    HW228137  10.245   3.984   8.478 -0.5436  1.1429 -0.3670
42044SOL     OW28138   7.573   4.486   1.942  0.0074  0.1820 -0.3479
42044SOL    HW128139   7.504   4.431   1.905 -0.0109  0.9160 -1.4370
42044SOL    HW228140   7.567   4.471   2.037 -1.0808 -0.4066 -0.4923
42045SOL     OW28141   6.208   6.635   1.657  0.0203 -0.1409  0.0728
42045SOL    HW128142   6.226   6.655   1.749  2.8095 -1.8364  0.0115
42045SOL    HW228143   6.274   6.686   1.609 -1.1312  0.3929 -0.9968
42046SOL     OW28144   4.283   1.985   0.355 -0.0451 -0.4593 -0.6811
42046SOL    HW128145   4.197   2.013   0.385  0.1623 -0.7564  0.2223
42046SOL    HW228146   4.274   1.892   0.336 -0.0417 -0.3860 -1.0598
42047SOL     OW28147   6.120   3.600   6.037  0.0053  0.0953 -0.4803
42047SOL    HW128148   6.068   3.550   6.101 -0.1334  2.0938  1.0830
42047SOL    HW228149   6.138   3.537   5.967 -1.8704 -1.5534  0.3853
42048SOL     OW28150   4.242   3.090   0.246 -0.4256 -0.0869  0.1784
42048SOL    HW128151   4.227   2.996   0.241 -3.1758  0.2796 -0.0288
42048SOL    HW228152   4.337   3.100   0.233 -0.1598 -2.7326 -0.5529
42049SOL     OW28153   3.622   8.480   4.664 -0.2469  0.1136 -0.5807
42049SOL    HW128154   3.553   8.510   4.724 -2.0033  0.8105 -2.8193
42049SOL    HW228155   3.679   8.427   4.719 -1.2279  1.4632  1.9055
42050SOL     OW28156   3.152   7.700  10.612 -0.5000 -0.3780  0.4880
42050SOL    HW128157   3.121   7.620  10.569 -0.3632  0.9793 -2.3921
42050SOL    HW228158   3.151   7.679  10.705 -3.1014 -2.8000  0.0514
42051SOL     OW28159   9.239   8.819   3.396 -0.6757  0.5848  0.2086
42051SOL    HW128160   9.207   8.905   3.423 -1.9977  1.1768 -2.8210
42051SOL    HW228161   9.310   8.838   3.334 -1.6805 -0.3812 -1.3179
42052SOL     OW28162   3.336   3.031   0.339 -0.1547 -0.4433 -0.0796
42052SOL    HW128163   3.385   3.014   0.419 -0.8979 -0.5965  0.3477
42052SOL    HW228164   3.389   3.095   0.292 -0.6887  1.2066  1.4748
42053SOL     OW28165   1.784   3.488   3.488  0.0939  0.6012 -0.1305
42053SOL    HW128166   1.860   3.536   3.455 -0.9180  2.1753 -0.2613
42053SOL    HW228167   1.800   3.397   3.462  1.7354  0.9521 -0.4784
42054SOL     OW28168   9.191  10.029   7.672 -0.1907 -0.5271  0.5581
42054SOL    HW128169   9.126  10.040   7.742 -0.0475  0.8137  0.4967
42054SOL    HW228170   9.270  10.069   7.707 -0.4452  1.2973 -0.8326
42055SOL     OW28171   4.244   5.760   1.999  0.1844 -0.8726 -0.7612
42055SOL    HW128172   4.188   5.748   1.922 -0.4503 -1.4157 -0.2216
42055SOL    HW228173   4.189   5.736   2.073  0.6904 -0.0484 -0.1000
42056SOL     OW28174  10.646   9.532   3.152 -0.0970  0.6439 -0.2077
42056SOL    HW128175  10.721   9.532   3.092 -0.1563  0.4649 -0.2821
42056SOL    HW228176  10.664   9.604   3.212  1.0361 -0.5195  0.9038
42057SOL     OW28177   5.918  10.555   3.183 -0.4527 -0.3078 -0.2514
42057SOL    HW128178   5.903  10.592   3.270 -2.8716  0.4509 -0.9066
42057SOL    HW228179   5.862  10.608   3.125  0.4841 -1.3060 -2.1363
42058SOL     OW28180   6.638   9.121   2.042 -0.2385 -0.3728 -0.5803
42058SOL    HW128181   6.564   9.162   2.087 -1.3725 -1.6156 -1.2395
42058SOL    HW228182   6.668   9.052   2.102  1.8170  1.4296  0.6320
42059SOL     OW28183   4.573   3.372   6.131  0.8503  0.5577  0.2996
42059SOL    HW128184   4.616   3.365   6.216 -0.9509 -1.0403  1.1575
42059SOL    HW228185   4.524   3.290   6.122  0.6541  0.8677 -2.1093
42060SOL     OW28186   5.616   9.131   2.286  0.3181  0.1225  0.0375
42060SOL    HW128187   5.634   9.038   2.271 -2.3446 -0.3387 -0.9185
42060SOL    HW228188   5.686   9.177   2.240  0.6579 -1.4108 -1.0691
42061SOL     OW28189   9.066   4.913   2.905  0.2335  0.2880 -0.7210
42061SOL    HW128190   8.987   4.924   2.958 -1.1477 -1.5138 -2.2466
42061SOL    HW228191   9.125   4.861   2.961  0.6439  2.1340  0.6509
42062SOL     OW28192   8.907  10.007   8.085  0.9675 -0.2913 -0.0407
42062SOL    HW128193   8.916  10.097   8.115  1.6878 -0.1134 -0.7464
42062SOL    HW228194   8.942   9.954   8.157  3.7669  0.1893 -0.9375
42063SOL     OW28195  10.685   8.227   3.869 -0.4863 -0.0657  0.2524
42063SOL    HW128196  10.662   8.275   3.949  0.9035 -1.0513  1.2777
42063SOL    HW228197  10.746   8.159   3.897  0.4208 -0.1592 -1.7126
42064SOL     OW28198   8.656   1.749   5.431 -0.3698  0.2617 -0.1872
42064SOL    HW128199   8.620   1.836   5.412  0.9427  1.1961  1.2980
42064SOL    HW228200   8.746   1.767   5.459  0.0839 -1.6474 -0.3040
42065SOL     OW28201  10.959  10.814   1.056  0.6334 -0.3300  0.1160
42065SOL    HW128202  10.899  10.785   0.988 -0.1479 -1.1726  1.1390
42065SOL    HW228203  10.914  10.887   1.099 -0.3178 -1.8202  1.7625
42066SOL     OW28204   5.771   3.784   5.201  0.8188 -0.2248  0.3305
42066SOL    HW128205   5.828   3.776   5.124  1.8561  1.2420  0.9076
42066SOL    HW228206   5.728   3.869   5.191 -2.5187 -1.8763 -0.8343
42067SOL     OW28207   8.492   1.895  10.487 -0.0158 -0.0181  0.0480
42067SOL    HW128208   8.398   1.893  10.471 -0.2733 -2.6406  1.3207
42067SOL    HW228209   8.500   1.902  10.582  1.1640  2.0480 -0.1510
42068SOL     OW28210   8.562   6.884   9.657 -0.2451 -0.0987 -0.0862
42068SOL    HW128211   8.582   6.886   9.750 -0.8059 -0.0296  0.0324
42068SOL    HW228212   8.641   6.920   9.615  0.4175 -1.0733  0.2829
42069SOL     OW28213   0.061  11.065   1.154 -0.1061 -0.2832 -0.7262
42069SOL    HW128214   0.000  11.139   1.151 -0.3518 -0.5113 -1.9233
42069SOL    HW228215   0.005  10.988   1.163 -0.0247 -0.5111 -2.0417
42070SOL     OW28216   4.775   0.929   6.937  0.2517  0.1555 -0.2366
42070SOL    HW128217   4.773   0.930   6.841  1.0593  0.4169 -0.2556
42070SOL    HW228218   4.857   0.885   6.959  0.5635  0.9878  0.3212
42071SOL     OW28219  10.485   6.141   8.534  0.4066 -0.2209 -0.5393
42071SOL    HW128220  10.406   6.186   8.564 -0.1130 -1.3857 -0.1400
42071SOL    HW228221  10.479   6.143   8.438  1.4711  2.4373 -0.6445
42072SOL     OW28222   5.890   9.217   4.308  0.3112 -0.4691  0.0773
42072SOL    HW128223   5.921   9.167   4.384  2.3119 -0.4185 -0.6460
42072SOL    HW228224   5.798   9.191   4.299  0.5581 -1.9701  1.3336
42073SOL     OW28225   8.417   6.197   6.129 -0.0228  0.4152 -0.5044
42073SOL    HW128226   8.430   6.121   6.073  0.2583  1.1138 -1.4098
42073SOL    HW228227   8.331   6.231   6.104 -0.7998 -0.3973  0.8933
42074SOL     OW28228   2.341   0.716   5.871  0.0025 -0.2477 -0.7861
42074SOL    HW128229   2.402   0.657   5.916 -0.4716  0.7432  1.2936
42074SOL    HW228230   2.263   0.663   5.855  0.0224 -0.5365  0.0021
42075SOL     OW28231  10.702   1.195   7.992  0.1153  0.3884  0.0954
42075SOL    HW128232  10.662   1.130   8.049  0.2831  0.9900  0.9054
42075SOL    HW228233  10.647   1.195   7.913 -0.2906 -0.2268  0.3763
42076SOL     OW28234   4.470   1.682   5.786  0.5321 -0.0439 -0.7050
42076SOL    HW128235   4.437   1.632   5.711  2.1783 -0.4829 -1.1986
42076SOL    HW228236   4.432   1.638   5.862 -1.7113  0.8213 -1.2497
42077SOL     OW28237   0.374   6.180   0.152  0.9222  0.1128 -0.2308
42077SOL    HW128238   0.353   6.273   0.159  1.5906  0.2298  0.2964
42077SOL    HW228239   0.467   6.177   0.134  1.1691 -0.4770  1.0187
42078SOL     OW28240   1.554   4.328   9.394 -0.3007  0.4516  0.0198
42078SOL    HW128241   1.556   4.237   9.423 -3.4223  0.6426  1.1282
42078SOL    HW228242   1.624   4.333   9.328  2.0724 -1.8787  2.1099
42079SOL     OW28243  10.965   9.430   1.858 -0.3698 -0.1604  0.2095
42079SOL    HW128244  10.986   9.513   1.902 -1.1565 -0.5722  1.4420
42079SOL    HW228245  10.897   9.453   1.795  0.6039  0.4038 -0.6669
42080SOL     OW28246   1.357   6.116   7.996 -0.3663 -0.1334  0.9928
42080SOL    HW128247   1.302   6.114   7.918 -0.0043 -0.6758  0.7406
42080SOL    HW228248   1.418   6.188   7.981  1.4355 -1.8205 -0.4790
42081SOL     OW28249  10.120   4.020   8.047  0.5020  0.4134 -0.0979
42081SOL    HW128250  10.190   3.957   8.063  0.1593  0.3761  1.4044
42081SOL    HW228251  10.141   4.058   7.962  2.3824  0.4789  0.3545
42082SOL     OW28252   9.732   9.393   9.798 -0.0864  0.8951  0.6947
42082SOL    HW128253   9.657   9.402   9.856  0.1702  1.3553  0.9615
42082SOL    HW228254   9.702   9.335   9.728 -0.6224  0.9173  0.9035
42083SOL     OW28255   9.708   9.062   9.798  0.7773 -0.0984 -0.1510
42083SOL    HW128256   9.797   9.085   9.826  0.6576  0.4744 -0.2311
42083SOL    HW228257   9.699   9.105   9.713 -0.4143  1.8522  0.8991
42084SOL     OW28258   3.045   6.255   2.624 -1.0726 -0.0378  0.5927
42084SOL    HW128259   3.046   6.343   2.586 -2.2822  0.8427  2.4696
42084SOL    HW228260   3.014   6.199   2.553  1.3092  0.7084 -1.1730
42085SOL     OW28261  10.522   0.251   4.551  0.3240  0.8366 -0.8353
42085SOL    HW128262  10.462   0.179   4.572 -0.3879  1.1810 -1.6593
42085SOL    HW228263  10.596   0.208   4.507  0.7332  0.4048  0.2316
42086SOL     OW28264   7.911  10.625   4.329  0.4369  0.2412  0.0524
42086SOL    HW128265   7.888  10.660   4.415 -3.8526  0.0631 -0.8218
42086SOL    HW228266   7.904  10.530   4.339 -2.7861  0.2719 -0.9695
42087SOL     OW28267   8.268   4.046   9.226 -0.4460  0.0206 -0.2124
42087SOL    HW128268   8.280   3.952   9.241  0.1709 -0.3662 -2.6501
42087SOL    HW228269   8.260   4.083   9.314 -2.1915 -2.4758  0.8262
42088SOL     OW28270   4.611   3.779   0.169  0.4453 -0.0122  0.3677
42088SOL    HW128271   4.640   3.809   0.254 -1.3469  2.1342  0.3124
42088SOL    HW228272   4.558   3.851   0.135  0.2392 -1.2273 -2.1129
42089SOL     OW28273   9.170   6.226  10.640  0.0868  0.3041 -0.6846
42089SOL    HW128274   9.177   6.171  10.562 -2.3345 -2.6969  0.9548
42089SOL    HW228275   9.076   6.230  10.658  0.3890  3.0132  0.7380
42090SOL     OW28276   6.110   9.224   5.569  0.1604 -0.3121  0.1287
42090SOL    HW128277   6.027   9.262   5.541  0.3908  1.3211  1.4723
42090SOL    HW228278   6.120   9.254   5.660  1.9335 -0.9490  0.1777
42091SOL     OW28279  10.253   9.919   6.902 -0.7382  1.0253  0.0698
42091SOL    HW128280  10.222   9.901   6.813 -2.7401 -2.2632  1.2718
42091SOL    HW228281  10.343   9.884   6.903 -0.9163  0.5216 -0.4934
42092SOL     OW28282   6.202   2.522   7.781  0.9149 -0.3666  0.1526
42092SOL    HW128283   6.171   2.534   7.871 -0.1026 -0.2829 -0.1935
42092SOL    HW228284   6.297   2.519   7.788  0.8950  0.7197  1.1073
42093SOL     OW28285   3.371   5.284   2.184  0.4598 -0.4687  0.2089
42093SOL    HW128286   3.381   5.241   2.269 -2.0135 -0.6929  0.4553
42093SOL    HW228287   3.393   5.376   2.202 -0.9020 -0.3252  1.3582
42094SOL     OW28288   3.351  10.942   8.427  0.7588 -0.2067 -0.8600
42094SOL    HW128289   3.441  10.913   8.412  1.1157  1.1809 -1.5302
42094SOL    HW228290   3.343  11.023   8.377 -0.8260 -0.2281 -0.6932
42095SOL     OW28291   8.304   2.918   4.663 -0.0925 -0.3632 -0.5043
42095SOL    HW128292   8.305   2.887   4.573  0.8578 -1.5499 -0.1226
42095SOL    HW228293   8.225   2.880   4.701 -0.6766  0.4221 -0.9156
42096SOL     OW28294   2.355   3.600   3.193  0.2974  0.1413  0.1071
42096SOL    HW128295   2.449   3.582   3.196  0.2509 -0.0672  0.3637
42096SOL    HW228296   2.346   3.671   3.129  0.6439  0.2514  0.1787
42097SOL     OW28297   1.137   5.814   2.958  0.3614  0.2302 -0.2625
42097SOL    HW128298   1.144   5.851   2.870  0.9806 -2.2498 -1.3380
42097SOL    HW228299   1.177   5.727   2.951  1.4232  0.3471  2.7458
42098SOL     OW28300   6.462   0.525   8.699 -0.7736 -0.3130 -0.1127
42098SOL    HW128301   6.396   0.488   8.640 -1.0984 -0.6572  0.4593
42098SOL    HW228302   6.526   0.455   8.709 -1.2068 -0.6040  0.6894
42099SOL     OW28303   5.908   8.231   5.219 -0.4976 -0.2249 -0.6466
42099SOL    HW128304   5.846   8.163   5.246 -2.1721 -0.0346 -3.5318
42099SOL    HW228305   5.937   8.202   5.132  2.5610  0.3592  0.0924
42100SOL     OW28306   6.644   2.608  10.548  0.4920 -0.1784  0.0681
42100SOL    HW128307   6.590   2.622  10.625 -0.3025 -1.7496 -0.1760
42100SOL    HW228308   6.726   2.654  10.567 -1.1386  2.9812  0.1199
42101SOL     OW28309   2.011   9.339   2.266 -0.1301  0.6566  0.4618
42101SOL    HW128310   1.980   9.392   2.193  2.9993  0.4449 -1.2310
42101SOL    HW228311   2.065   9.398   2.318  0.3962  0.0204  0.6594
42102SOL     OW28312  10.437   4.161  10.422  0.1768 -0.1050  0.1077
42102SOL    HW128313  10.474   4.118  10.498  1.7767 -2.9015 -2.0643
42102SOL    HW228314  10.365   4.103  10.394 -0.5438  0.9903 -0.4044
42103SOL     OW28315   4.949   2.037   7.682  0.1476 -0.5008  0.2349
42103SOL    HW128316   4.947   2.083   7.766  0.0974 -1.7419  0.9280
42103SOL    HW228317   5.042   2.020   7.666  0.1283 -0.5756  0.2028
42104SOL     OW28318   3.927   4.341   3.897 -0.1708  0.0409 -0.2836
42104SOL    HW128319   3.916   4.430   3.862 -1.3575 -0.3079 -0.8427
42104SOL    HW228320   3.957   4.290   3.822 -0.8551 -0.3090 -0.3280
42105SOL     OW28321   7.427  10.338  10.118 -0.7561 -0.5424 -0.2539
42105SOL    HW128322   7.464  10.294  10.042 -0.8005 -0.7399 -0.1602
42105SOL    HW228323   7.340  10.366  10.090 -1.5143 -2.2258  0.2987
42106SOL     OW28324   6.272  10.200   3.937  0.6086 -0.3835  0.1551
42106SOL    HW128325   6.343  10.149   3.974  0.5621 -0.0540  0.7208
42106SOL    HW228326   6.197  10.140   3.935  0.3552 -0.1505  1.5033
42107SOL     OW28327   8.344   0.258   3.981 -0.4229  0.3040  0.7004
42107SOL    HW128328   8.254   0.274   3.953 -0.4673 -0.4249  0.3953
42107SOL    HW228329   8.340   0.253   4.076 -0.5860  0.9670  0.7269
42108SOL     OW28330   6.882   8.736   3.869  0.2871  0.2370 -0.0569
42108SOL    HW128331   6.829   8.704   3.942  0.6140 -2.7621 -0.9980
42108SOL    HW228332   6.965   8.761   3.910  0.2728 -0.8552  0.6965
42109SOL     OW28333   7.158   2.269   4.847  0.2728  0.0187 -0.2070
42109SOL    HW128334   7.084   2.324   4.819  0.0408 -0.7680 -1.1829
42109SOL    HW228335   7.210   2.258   4.768  0.2357 -1.3022 -0.0594
42110SOL     OW28336   6.617   5.384   5.838  0.1965 -0.1767  0.0386
42110SOL    HW128337   6.707   5.350   5.834 -0.1121 -1.0747  0.3629
42110SOL    HW228338   6.599   5.415   5.750  0.6078 -0.5855 -0.1952
42111SOL     OW28339   2.609   9.226   5.886  0.4049  0.5761  0.1995
42111SOL    HW128340   2.660   9.146   5.884 -2.2223 -1.4055  2.9959
42111SOL    HW228341   2.542   9.214   5.819 -0.4716  0.0080  1.1527
42112SOL     OW28342   4.719   9.557   5.102 -0.0862  0.4812  1.0347
42112SOL    HW128343   4.714   9.475   5.151 -3.4364  0.1437  0.3994
42112SOL    HW228344   4.719   9.530   5.010 -0.4045  1.1828  0.8235
42113SOL     OW28345   7.083   3.579   3.121  0.1531  0.0267 -0.2515
42113SOL    HW128346   7.106   3.606   3.210  1.3833 -0.1700 -0.5000
42113SOL    HW228347   7.026   3.649   3.090 -1.0845 -0.3600  1.0036
42114SOL     OW28348   4.220   6.856   7.235  0.3867 -0.6755  0.2879
42114SOL    HW128349   4.162   6.929   7.253  2.1467  0.8987 -0.1151
42114SOL    HW228350   4.208   6.797   7.310  0.1052  0.8125  1.4599
42115SOL     OW28351   6.819   8.755   6.711 -0.6196 -0.1006  0.5150
42115SOL    HW128352   6.907   8.718   6.711 -0.2735  0.6429 -0.9018
42115SOL    HW228353   6.767   8.693   6.761  0.7462 -0.4300  1.6041
42116SOL     OW28354   7.848   0.533   2.917 -0.1714  0.9712 -0.2343
42116SOL    HW128355   7.760   0.563   2.894 -1.4925 -1.3023  1.4605
42116SOL    HW228356   7.861   0.454   2.865 -0.9486 -1.0700  2.4504
42117SOL     OW28357   7.511   1.539   5.337 -0.1056  0.8232  0.0419
42117SOL    HW128358   7.579   1.477   5.309  1.4321  2.9309 -1.2135
42117SOL    HW228359   7.429   1.500   5.307  0.5421 -1.5304  1.0849
42118SOL     OW28360   9.624   6.756   4.876  0.6026 -0.6617 -0.6564
42118SOL    HW128361   9.674   6.699   4.818  2.3234  1.0547 -0.9521
42118SOL    HW228362   9.684   6.827   4.899 -1.5169  1.2379 -0.5550
42119SOL     OW28363   8.671   5.158   5.909  0.4045 -0.3321  0.3516
42119SOL    HW128364   8.637   5.246   5.894  1.6244 -0.0004 -0.6154
42119SOL    HW228365   8.615   5.101   5.856  0.5375  0.0477 -0.2049
42120SOL     OW28366   9.185   5.568   0.117 -0.1158  0.1734 -0.3759
42120SOL    HW128367   9.161   5.499   0.056 -0.7645 -1.2193  1.3655
42120SOL    HW228368   9.280   5.575   0.109 -0.1331 -0.3749 -1.1352
42121SOL     OW28369   3.499   1.832   1.367  0.2647  0.2627  0.0796
42121SOL    HW128370   3.428   1.797   1.420  1.8040 -0.5224  1.7249
42121SOL    HW228371   3.537   1.902   1.420  0.9161  0.4587 -0.6212
42122SOL     OW28372   2.843   5.851   0.959 -0.1119 -0.3215 -0.6421
42122SOL    HW128373   2.930   5.852   0.999 -1.2300  1.1793  1.9663
42122SOL    HW228374   2.853   5.903   0.879  1.5341 -0.9057 -0.8557
42123SOL     OW28375   6.549   7.521   5.723 -0.6179 -0.6016  0.5273
42123SOL    HW128376   6.508   7.537   5.638  0.5951 -2.2345 -0.4254
42123SOL    HW228377   6.540   7.427   5.737 -1.6361 -0.2455  2.6981
42124SOL     OW28378   0.969   6.433   5.273  0.2735 -0.0477  0.5462
42124SOL    HW128379   1.050   6.458   5.228 -0.9354  2.8628 -0.2705
42124SOL    HW228380   0.969   6.485   5.353 -0.8162  0.0610  0.4863
42125SOL     OW28381   5.047   2.850   4.906 -0.0348  0.0788  0.1616
42125SOL    HW128382   5.114   2.814   4.847  0.5195  1.6655 -0.2075
42125SOL    HW228383   5.052   2.793   4.984 -0.1351 -1.4709 -0.9116
42126SOL     OW28384   1.249   7.173   1.039  0.1144 -0.2052 -0.2642
42126SOL    HW128385   1.312   7.132   1.098 -0.9194  1.1113  1.8780
42126SOL    HW228386   1.228   7.105   0.974 -0.1197 -2.4127  1.9870
42127SOL     OW28387   9.868   1.813   4.989 -0.5682  0.3894  0.0401
42127SOL    HW128388   9.775   1.835   4.998 -0.5236  1.6200 -1.8475
42127SOL    HW228389   9.913   1.886   5.031 -0.4365  0.1034  0.4014
42128SOL     OW28390   5.364   4.377   1.775 -0.2970 -0.6582 -0.2826
42128SOL    HW128391   5.362   4.368   1.680 -0.9517  1.1149 -0.4700
42128SOL    HW228392   5.278   4.411   1.798 -0.0113 -0.7066  0.9057
42129SOL     OW28393   4.847   5.953  11.010 -0.7445 -0.6793  0.2618
42129SOL    HW128394   4.814   5.991  11.091  3.4308  0.8719  1.5063
42129SOL    HW228395   4.927   5.908  11.036 -0.0333 -1.4088 -2.8224
42130SOL     OW28396  10.789   0.203   5.101  0.4566  0.4083 -0.4402
42130SOL    HW128397  10.811   0.180   5.011 -0.8939  1.5016 -1.0919
42130SOL    HW228398  10.696   0.225   5.098  0.6679  1.6549  0.9668
42131SOL     OW28399   8.221   5.367  10.020  0.6682  0.5312  0.1978
42131SOL    HW128400   8.252   5.303   9.956  1.7138  2.1661 -1.0258
42131SOL    HW228401   8.136   5.396   9.987 -0.2954 -0.9065  1.3020
42132SOL     OW28402   7.435   2.750   9.672 -0.3920  0.1689 -1.0896
42132SOL    HW128403   7.478   2.664   9.671 -2.7552 -1.0998 -0.9173
42132SOL    HW228404   7.389   2.755   9.588 -3.1804 -0.3956  0.2770
42133SOL     OW28405   4.535   7.749   3.230  0.1315  0.7345  0.9062
42133SOL    HW128406   4.491   7.687   3.172  0.3705  0.3880  1.0879
42133SOL    HW228407   4.606   7.786   3.177  1.0759 -0.4293  1.2974
42134SOL     OW28408   2.809   2.839  10.469 -0.1656  0.4057  0.0902
42134SOL    HW128409   2.746   2.870  10.404 -1.0255 -0.7270  0.3552
42134SOL    HW228410   2.882   2.900  10.462 -2.3542  3.4801  1.6323
42135SOL     OW28411   9.429   2.628   7.909 -0.1143  0.2962 -0.1522
42135SOL    HW128412   9.495   2.697   7.901  0.6733 -0.2954  0.8871
42135SOL    HW228413   9.476   2.547   7.889 -0.4269 -0.1680  0.9047
42136SOL     OW28414   5.452   9.754   0.692  0.3168 -0.0713 -0.8120
42136SOL    HW128415   5.516   9.710   0.748 -0.1652  1.6529  1.2333
42136SOL    HW228416   5.502   9.780   0.615  1.9587  0.5259  0.3821
42137SOL     OW28417   4.574   9.246   6.383 -0.3871  0.2982 -0.9469
42137SOL    HW128418   4.509   9.279   6.321 -2.8039 -1.4456  0.5041
42137SOL    HW228419   4.576   9.151   6.369  1.4021  0.2168 -0.4786
42138SOL     OW28420   8.739   5.402   9.245 -0.5517 -0.1199  0.9336
42138SOL    HW128421   8.678   5.461   9.289 -0.4145  0.2711  0.6028
42138SOL    HW228422   8.759   5.335   9.311 -1.2698 -0.2025  1.0694
42139SOL     OW28423   0.564   7.278   3.589 -0.0677  0.3107  0.2081
42139SOL    HW128424   0.627   7.218   3.630  0.4762  1.5349  1.2253
42139SOL    HW228425   0.491   7.281   3.651 -0.2229  0.4835  0.0165
42140SOL     OW28426   5.614  10.205   7.238  0.0265  0.4407 -0.1462
42140SOL    HW128427   5.584  10.223   7.149 -0.3167  0.7035  0.0191
42140SOL    HW228428   5.537  10.169   7.283 -1.3950  4.7474  1.4140
42141SOL     OW28429   5.996   0.162   9.333 -0.5314 -0.0432 -0.0177
42141SOL    HW128430   5.996   0.086   9.275  0.5474  0.2177 -0.3950
42141SOL    HW228431   6.056   0.138   9.404 -0.9992  0.0569  0.4138
42142SOL     OW28432   2.758   6.019   7.306 -0.3630 -0.1476 -0.3643
42142SOL    HW128433   2.706   6.017   7.387 -0.0180  1.2353 -0.0928
42142SOL    HW228434   2.719   6.088   7.253 -0.4893 -0.9394 -1.3412
42143SOL     OW28435  10.671   6.465   5.684  0.0343  0.7026  0.4820
42143SOL    HW128436  10.694   6.396   5.621  2.0391  0.7004  1.1411
42143SOL    HW228437  10.615   6.422   5.748  0.1465  0.0277  0.1344
42144SOL     OW28438   6.991   5.209   0.717 -0.3533 -0.7083 -0.5542
42144SOL    HW128439   6.983   5.114   0.723 -1.0540 -0.6087  0.4260
42144SOL    HW228440   6.919   5.236   0.661 -1.1877 -0.6357  0.5105
42145SOL     OW28441   3.000   7.949   8.635  0.5108 -0.5234 -0.3541
42145SOL    HW128442   3.085   7.974   8.598  1.4352  0.2654  2.1239
42145SOL    HW228443   2.943   8.025   8.617  1.1625  0.1797  0.4842
42146SOL     OW28444   3.583   4.650   8.662  0.3743 -0.1993 -0.0032
42146SOL    HW128445   3.513   4.705   8.697 -0.0380  0.8091 -2.2629
42146SOL    HW228446   3.660   4.707   8.664  0.2333  0.0557 -1.1349
42147SOL     OW28447   8.931   7.544   6.875 -0.0782  0.1103 -0.9338
42147SOL    HW128448   8.891   7.629   6.889  1.1528  0.9720 -2.4201
42147SOL    HW228449   8.978   7.526   6.956 -0.2934  0.8759 -0.6319
42148SOL     OW28450   3.538   8.527   6.925 -0.2366 -0.6723  0.0501
42148SOL    HW128451   3.601   8.596   6.906 -1.3472  0.1673 -0.6963
42148SOL    HW228452   3.578   8.478   6.997  1.5068 -0.5133 -0.7382
42149SOL     OW28453   7.857  10.903   1.913 -0.4888  0.6608  0.3786
42149SOL    HW128454   7.792  10.972   1.927  0.4255  1.9940 -1.5666
42149SOL    HW228455   7.888  10.917   1.824  0.4772 -1.6739  0.2949
42150SOL     OW28456   7.504   0.070   5.569  0.3251 -0.1483  0.6538
42150SOL    HW128457   7.435   0.054   5.633  0.6128 -0.9573  0.7870
42150SOL    HW228458   7.523   0.163   5.575 -2.4663  0.6268 -1.1600
42151SOL     OW28459   4.714   9.247   2.141  0.3018 -0.3285 -0.4008
42151SOL    HW128460   4.746   9.216   2.225  2.0434 -2.8886 -1.8716
42151SOL    HW228461   4.668   9.172   2.103 -1.7305  1.2205 -1.1924
42152SOL     OW28462   9.317  10.029   5.422 -0.1750  0.1941 -0.7594
42152SOL    HW128463   9.390  10.050   5.480 -0.6347  1.6196 -0.6585
42152SOL    HW228464   9.243  10.078   5.459 -1.4091 -1.8518 -0.3662
42153SOL     OW28465   1.701   3.000   0.516 -1.1004  0.1690  0.0239
42153SOL    HW128466   1.675   2.909   0.503 -1.3583  0.1665  0.5097
42153SOL    HW228467   1.791   2.995   0.547 -1.0753  0.0822 -0.0625
42154SOL     OW28468  10.216   5.515   9.259  0.0626  0.4967 -0.1943
42154SOL    HW128469  10.200   5.423   9.284 -1.6840  0.7602 -0.1840
42154SOL    HW228470  10.264   5.551   9.333  1.0739 -0.4808 -0.3410
42155SOL     OW28471   0.718   2.327   1.126 -0.0361  0.4172 -0.2894
42155SOL    HW128472   0.651   2.381   1.084 -1.2805 -0.3018  0.7143
42155SOL    HW228473   0.669   2.267   1.182  1.3517 -1.2365 -0.7746
42156SOL     OW28474   9.410   8.684   2.441  0.4146 -0.2123 -0.3269
42156SOL    HW128475   9.460   8.765   2.447  1.2442 -0.8545  2.3350
42156SOL    HW228476   9.319   8.713   2.430  0.5442  1.1597  1.8113
42157SOL     OW28477   6.850   0.004   3.287 -0.4956 -0.4416  0.3862
42157SOL    HW128478   6.764  -0.027   3.259 -1.3822  2.6003 -0.7261
42157SOL    HW228479   6.837   0.098   3.301  2.5300  0.0041  0.7757
42158SOL     OW28480   9.472   0.140   0.423 -0.2519  0.6267 -0.2774
42158SOL    HW128481   9.553   0.100   0.455  0.1281  1.0638 -0.6911
42158SOL    HW228482   9.494   0.176   0.338 -0.4571  2.1486  0.2816
42159SOL     OW28483   1.106   3.451   4.944 -0.2491  0.8710 -0.7118
42159SOL    HW128484   1.119   3.545   4.938 -0.0072  0.8438 -0.6035
42159SOL    HW228485   1.082   3.424   4.856  2.6683  0.5593 -1.5156
42160SOL     OW28486   7.255   4.768   2.288 -0.2741  0.8499  0.1979
42160SOL    HW128487   7.346   4.742   2.302 -0.2099  0.3733 -1.0229
42160SOL    HW228488   7.261   4.859   2.259  0.0065  0.2443 -1.8353
42161SOL     OW28489   0.778  10.634   8.505 -0.0402 -0.2607 -0.1475
42161SOL    HW128490   0.721  10.678   8.442  0.3454  0.3268 -0.1001
42161SOL    HW228491   0.719  10.603   8.574 -0.2847  0.5696  0.0316
42162SOL     OW28492   5.895   3.146   7.554  0.3706  0.5028 -0.5912
42162SOL    HW128493   5.985   3.116   7.541  0.9887  1.3875  1.3085
42162SOL    HW228494   5.844   3.066   7.566  1.5576  0.0121  1.8727
42163SOL     OW28495  10.189   0.364   0.822 -0.0574 -0.4895 -0.1817
42163SOL    HW128496  10.238   0.283   0.837 -0.9190 -1.2436 -1.2981
42163SOL    HW228497  10.199   0.413   0.904  2.7121 -0.4832 -0.4226
42164SOL     OW28498  10.678   7.809  10.198  0.1668 -0.1231 -0.2992
42164SOL    HW128499  10.699   7.795  10.290  0.6870  2.6786  0.1029
42164SOL    HW228500  10.586   7.784  10.190  0.2516 -0.8580  0.8437
42165SOL     OW28501   6.682   4.553   3.819  0.4572  0.0317 -0.8604
42165SOL    HW128502   6.696   4.625   3.758  0.9916  0.3234 -0.4005
42165SOL    HW228503   6.681   4.594   3.906 -2.8318  0.0078 -0.7569
42166SOL     OW28504   9.052   2.583   3.729  0.3755 -0.0963  0.1820
42166SOL    HW128505   9.081   2.619   3.813  0.3665  0.3512 -0.0012
42166SOL    HW228506   9.114   2.619   3.666  0.7323 -0.8975  0.0669
42167SOL     OW28507   8.599   1.851   1.677  0.4120 -0.2996  0.1546
42167SOL    HW128508   8.659   1.778   1.665 -0.8963 -1.2035 -1.2075
42167SOL    HW228509   8.512   1.811   1.671 -0.3307  1.2800  0.0404
42168SOL     OW28510   0.320   7.327   7.008 -0.4880  0.1206 -0.8693
42168SOL    HW128511   0.256   7.283   6.953  0.2820  0.5834 -2.1853
42168SOL    HW228512   0.315   7.419   6.981 -2.0710  0.9287  1.8128
42169SOL     OW28513   6.545   0.497   1.554 -0.0319  0.3020  0.5971
42169SOL    HW128514   6.535   0.404   1.571  2.0986 -0.1772 -0.4647
42169SOL    HW228515   6.639   0.512   1.554 -0.0412  1.5493 -3.5459
42170SOL     OW28516   9.738   4.711   2.671 -0.3280  0.0097  0.3611
42170SOL    HW128517   9.672   4.710   2.600 -1.4724 -0.0642  1.3941
42170SOL    HW228518   9.713   4.786   2.724  2.2381  1.8466 -0.8321
42171SOL     OW28519   1.238   0.918   5.735  0.6301  0.1444 -0.0091
42171SOL    HW128520   1.192   0.896   5.654  0.6383 -1.2074  0.3377
42171SOL    HW228521   1.287   0.998   5.714 -0.9536  0.9743 -0.7207
42172SOL     OW28522   9.332   5.342   6.115  0.2851  0.2415  0.2481
42172SOL    HW128523   9.395   5.295   6.060 -2.7489 -2.6431 -1.1333
42172SOL    HW228524   9.327   5.289   6.195  1.9359  2.3267  1.8191
42173SOL     OW28525   6.144  10.813   2.567  0.1561 -0.5319 -0.3217
42173SOL    HW128526   6.186  10.898   2.582  2.2446 -1.1538 -2.2084
42173SOL    HW228527   6.076  10.831   2.502  2.9124 -0.7300 -3.5142
42174SOL     OW28528   1.581   7.556   3.997 -0.2268  0.0550  0.1369
42174SOL    HW128529   1.634   7.503   3.938 -0.9287 -0.3988 -0.1026
42174SOL    HW228530   1.493   7.517   3.992 -0.2454 -0.1527  1.6898
42175SOL     OW28531   1.669   1.600   6.646  0.5496  0.4765 -0.3287
42175SOL    HW128532   1.736   1.626   6.582  2.5658  2.1009  2.2087
42175SOL    HW228533   1.704   1.519   6.684 -0.1143  0.0803 -0.5534
42176SOL     OW28534   7.359   7.249   4.142 -0.2917  0.3068 -0.5246
42176SOL    HW128535   7.398   7.196   4.211 -0.4630  0.7458 -0.0826
42176SOL    HW228536   7.418   7.324   4.133 -1.0392  0.9985  0.1799
42177SOL     OW28537  10.417   3.499   0.044 -0.5935 -0.5796 -0.3818
42177SOL    HW128538  10.352   3.567   0.027  1.2315  1.0552 -1.3778
42177SOL    HW228539  10.389   3.458   0.126 -1.0798  2.3116  1.0295
42178SOL     OW28540   4.629   9.819   0.364 -0.1077  0.0009 -0.1695
42178SOL    HW128541   4.669   9.859   0.287  1.2177  1.3528  1.1596
42178SOL    HW228542   4.564   9.758   0.328  1.5424 -0.5936 -2.3770
42179SOL     OW28543   6.823   4.398   8.342  0.0601  0.1296 -0.0019
42179SOL    HW128544   6.733   4.426   8.356 -0.6969 -1.6670 -0.8884
42179SOL    HW228545   6.874   4.445   8.408 -1.2864  2.2661 -0.3719
42180SOL     OW28546   8.318   1.045   2.087  0.4251  0.4631 -0.4397
42180SOL    HW128547   8.223   1.049   2.099  0.4894  1.3319 -0.1713
42180SOL    HW228548   8.354   1.047   2.175  0.6826 -0.5026 -0.5131
42181SOL     OW28549   4.859   3.040   9.100 -0.1055 -0.1714 -0.3156
42181SOL    HW128550   4.902   3.023   9.184  1.0914 -1.4953 -1.1453
42181SOL    HW228551   4.796   2.968   9.090 -1.3809  0.8324  0.1178
42182SOL     OW28552   4.120   2.062   4.661 -0.5898  0.3287  0.2521
42182SOL    HW128553   4.068   1.996   4.616 -0.4184  1.5280 -1.8748
42182SOL    HW228554   4.080   2.145   4.635  2.0174  1.2771 -1.1095
42183SOL     OW28555   9.914  10.639   7.439  0.6936  0.2562 -0.6866
42183SOL    HW128556  10.000  10.603   7.418  0.8148  0.3789 -0.4086
42183SOL    HW228557   9.904  10.715   7.382  0.4687 -0.1684 -1.2244
42184SOL     OW28558   2.871   6.201   4.786  0.4945  0.1379 -0.5510
42184SOL    HW128559   2.913   6.158   4.711  0.5538  1.2084 -1.1407
42184SOL    HW228560   2.944   6.229   4.841  0.4940  0.3931 -0.6789
42185SOL     OW28561   9.455   9.375   0.509 -0.1319 -0.6061  0.5784
42185SOL    HW128562   9.426   9.385   0.600  0.6751 -1.3807  0.9328
42185SOL    HW228563   9.477   9.283   0.501  1.1271 -0.2704  0.0026
42186SOL     OW28564   2.676   9.318   8.048 -0.1067 -0.2297  0.5738
42186SOL    HW128565   2.744   9.349   7.989 -1.3963  0.9390 -0.3692
42186SOL    HW228566   2.720   9.309   8.133  1.6565 -1.4675 -0.4054
42187SOL     OW28567   7.845   0.511   6.118 -0.6600  0.5627 -0.5651
42187SOL    HW128568   7.848   0.524   6.213  0.5349 -3.5004  0.1530
42187SOL    HW228569   7.937   0.510   6.091 -0.7769 -1.7256 -1.0749
42188SOL     OW28570   1.856   1.068   6.070 -0.0163  0.1287  0.6267
42188SOL    HW128571   1.819   1.016   5.999 -0.3044  0.1807  0.7361
42188SOL    HW228572   1.946   1.085   6.043  0.5713 -1.6944  1.2826
42189SOL     OW28573  11.073   5.942   7.005  0.5135 -0.0938 -0.4543
42189SOL    HW128574  11.091   6.024   6.958 -1.1624  0.1607 -0.7244
42189SOL    HW228575  11.002   5.965   7.065 -0.3939 -1.4928 -0.9625
42190SOL     OW28576   9.326   3.494   4.657 -0.4579  0.4398 -0.7291
42190SOL    HW128577   9.262   3.565   4.663 -1.1710 -0.0876 -1.7134
42190SOL    HW228578   9.291   3.437   4.589 -0.3197 -1.2903  0.6031
42191SOL     OW28579   7.415   9.294   7.922  0.2941  0.2432  0.2474
42191SOL    HW128580   7.322   9.313   7.933  0.5147  0.7303  1.3875
42191SOL    HW228581   7.436   9.324   7.833 -0.9915 -1.4163 -0.6756
42192SOL     OW28582  10.909   5.303   3.960 -0.7276 -0.2977 -0.3434
42192SOL    HW128583  10.970   5.236   3.929 -2.8856 -2.2510 -0.6404
42192SOL    HW228584  10.895   5.359   3.884 -0.4968 -0.7476 -0.7231
42193SOL     OW28585  10.033   9.703   2.827 -0.2878  0.2402 -0.1745
42193SOL    HW128586   9.980   9.764   2.877  0.6883  0.8152  0.1802
42193SOL    HW228587  10.029   9.621   2.877  0.1620  0.6310  0.5088
42194SOL     OW28588   0.197   6.118   7.635  0.7544  0.3027  0.1790
42194SOL    HW128589   0.167   6.033   7.668  0.6754  0.5009  0.6335
42194SOL    HW228590   0.139   6.137   7.562 -0.8591  1.0964  1.6037
42195SOL     OW28591   9.625  10.731   7.776  0.3352  0.7392  0.0183
42195SOL    HW128592   9.548  10.775   7.810  0.1979  0.8594 -0.4445
42195SOL    HW228593   9.645  10.777   7.694 -1.2953 -1.5631 -1.8191
42196SOL     OW28594   1.274   1.694   6.450  0.8284 -0.2083 -0.1228
42196SOL    HW128595   1.329   1.624   6.485  0.7580  0.8646  2.4203
42196SOL    HW228596   1.247   1.664   6.364  1.0812 -3.1373  0.7188
42197SOL     OW28597   9.930   4.022   9.529  0.3645 -0.2296  0.1392
42197SOL    HW128598   9.987   3.964   9.478  0.2576 -0.3901  0.2024
42197SOL    HW228599   9.898   3.967   9.600 -1.5215 -0.7456 -1.0532
42198SOL     OW28600   1.225   1.406   2.169 -0.1420  0.2991  0.0072
42198SOL    HW128601   1.169   1.421   2.093 -0.3273 -1.1317 -0.1593
42198SOL    HW228602   1.310   1.442   2.143 -0.2557  0.0045 -0.8076
42199SOL     OW28603   9.219  11.019   0.180 -0.1719 -0.2572  0.0600
42199SOL    HW128604   9.201  10.983   0.266  0.1720  2.5320  1.4008
42199SOL    HW228605   9.314  11.007   0.168 -0.1950 -0.5108  0.1278
42200SOL     OW28606   4.082   2.196   6.351 -0.4658 -0.2354  0.2101
42200SOL    HW128607   4.128   2.238   6.279 -0.8331 -0.6131 -0.2551
42200SOL    HW228608   4.075   2.263   6.419 -0.5179  0.2616 -0.2853
42201SOL     OW28609   3.464   3.161  10.723 -0.5292  0.1750  0.2559
42201SOL    HW128610   3.529   3.123  10.783  0.5469 -1.0431 -1.5759
42201SOL    HW228611   3.420   3.228  10.776  0.1651 -0.9869  2.4629
42202SOL     OW28612  10.081   5.309   1.953  0.6681 -0.2394 -0.1478
42202SOL    HW128613  10.026   5.346   1.884  0.4651  0.1546  0.2250
42202SOL    HW228614  10.025   5.244   1.995  0.4752  0.1834  0.2516
42203SOL     OW28615   2.745   1.856   9.198 -0.3043 -0.0436 -0.1279
42203SOL    HW128616   2.730   1.824   9.109  0.2233 -1.6854  0.3332
42203SOL    HW228617   2.684   1.805   9.251  1.5852 -1.4304  0.8292
42204SOL     OW28618   8.520   7.566   2.018 -0.0012 -0.1066  0.4358
42204SOL    HW128619   8.467   7.645   2.010  1.6258  1.2291  1.9109
42204SOL    HW228620   8.597   7.584   1.964 -0.2341 -1.2746 -0.3026
42205SOL     OW28621  10.062  11.087   2.453 -0.3941 -0.3213  0.3238
42205SOL    HW128622  10.080  11.127   2.538  0.0868  1.4122 -0.5369
42205SOL    HW228623  10.039  11.161   2.396 -0.2925 -1.3720 -1.1534
42206SOL     OW28624   5.661   9.261   9.045  0.0436 -0.3278  0.6777
42206SOL    HW128625   5.604   9.323   9.090 -1.2016 -0.8195 -0.1824
42206SOL    HW228626   5.687   9.305   8.964 -0.7861 -0.8712  0.0986
42207SOL     OW28627   0.011   1.891  10.032  0.0785 -0.7633 -0.2161
42207SOL    HW128628   0.059   1.854   9.957  0.0041 -0.7185 -0.2871
42207SOL    HW228629  -0.040   1.818  10.066 -0.0009 -0.7492 -0.3017
42208SOL     OW28630   9.567   3.805   8.292 -0.2585 -0.9317 -0.1888
42208SOL    HW128631   9.598   3.895   8.288 -1.9488 -0.3267 -0.8881
42208SOL    HW228632   9.581   3.770   8.204  1.4711 -1.7763  0.3834
42209SOL     OW28633   7.930  10.334   6.546  0.4137 -0.0890 -0.1988
42209SOL    HW128634   7.863  10.279   6.506 -2.1039  2.3434  0.3410
42209SOL    HW228635   8.003  10.332   6.485 -1.3919 -0.3961 -2.4858
42210SOL     OW28636   1.832   0.473   2.155  0.2837 -0.9604  0.0137
42210SOL    HW128637   1.841   0.557   2.202  0.4847 -1.2653  0.5332
42210SOL    HW228638   1.922   0.446   2.138  0.2576 -1.6731  0.9513
42211SOL     OW28639   3.417   6.094   8.514 -0.0184 -0.4641 -0.0448
42211SOL    HW128640   3.401   6.011   8.467 -1.8824 -1.6721  2.4633
42211SOL    HW228641   3.493   6.075   8.570  0.6830  0.1658 -0.7620
42212SOL     OW28642   5.478   4.124   4.608 -0.6239 -0.1371  0.0675
42212SOL    HW128643   5.467   4.031   4.587 -2.4818  0.4060 -1.5849
42212SOL    HW228644   5.562   4.148   4.569 -0.3630 -0.9926  0.0817
42213SOL     OW28645   5.757   0.347  10.295 -0.0651 -0.6179  0.9145
42213SOL    HW128646   5.837   0.399  10.287 -0.4071  0.3936  3.2263
42213SOL    HW228647   5.687   0.412  10.297 -0.9163 -1.4495 -0.3145
42214SOL     OW28648   3.516   1.651   9.177 -0.1204  0.2391 -0.1609
42214SOL    HW128649   3.608   1.677   9.168  0.5963 -2.6317 -2.6325
42214SOL    HW228650   3.506   1.631   9.270  1.0607  2.5875  0.5601
42215SOL     OW28651   7.224   0.877   9.554 -0.3706  0.0215 -0.1096
42215SOL    HW128652   7.293   0.944   9.556  0.1548 -0.5088 -0.1323
42215SOL    HW228653   7.144   0.925   9.532  0.1477  0.5136 -0.9432
42216SOL     OW28654   7.819   4.129   4.894 -0.4254  0.2738  0.5416
42216SOL    HW128655   7.806   4.171   4.809 -1.7118 -0.3333  0.4149
42216SOL    HW228656   7.873   4.053   4.874 -2.3509 -1.0006 -0.1183
42217SOL     OW28657  10.493   1.098   8.777  0.1739  0.4805  0.0968
42217SOL    HW128658  10.408   1.057   8.758 -0.3264  1.9714 -1.1896
42217SOL    HW228659  10.535   1.039   8.838 -0.3458 -2.1213 -1.8616
42218SOL     OW28660  10.722   0.724   1.285  0.7279  0.3374  0.3374
42218SOL    HW128661  10.811   0.749   1.260  1.4382 -0.3581  2.0038
42218SOL    HW228662  10.668   0.800   1.265  1.7268  0.8612 -0.4503
42219SOL     OW28663   1.598   6.862   5.028 -0.3706 -0.4909  0.0594
42219SOL    HW128664   1.607   6.957   5.020 -1.3496 -0.4271 -0.4240
42219SOL    HW228665   1.673   6.826   4.981 -1.0965  0.0209 -1.5337
42220SOL     OW28666   7.699   9.235   1.105 -0.8217 -0.3244 -0.2777
42220SOL    HW128667   7.721   9.328   1.098  1.8267 -0.9058 -0.5427
42220SOL    HW228668   7.725   9.211   1.193 -0.5032 -1.0379 -0.5593
42221SOL     OW28669   7.543   0.654   8.889 -0.0329 -0.2667  0.2459
42221SOL    HW128670   7.508   0.629   8.803  0.3271  0.7859 -0.2325
42221SOL    HW228671   7.506   0.590   8.950 -2.1683  0.3308 -0.3470
42222SOL     OW28672   6.937   1.122  10.429  0.1632 -0.3300 -0.0477
42222SOL    HW128673   6.895   1.036  10.421  0.6714 -0.6813  0.8578
42222SOL    HW228674   7.029   1.106  10.409  0.3291 -0.0800  0.4756
42223SOL     OW28675   9.436   8.333   0.725 -0.8934  0.0153  0.4420
42223SOL    HW128676   9.407   8.260   0.670  0.5657  0.7830 -1.4382
42223SOL    HW228677   9.363   8.395   0.722 -0.7654  0.1252 -0.8045
42224SOL     OW28678   4.032   8.090   5.295 -0.2130  0.2720  0.0335
42224SOL    HW128679   3.987   8.167   5.260 -1.3379 -0.4267 -0.1120
42224SOL    HW228680   4.093   8.125   5.360 -3.4975  1.0725  2.9894
42225SOL     OW28681   6.752   8.876   2.202  0.0477 -0.2810  0.4854
42225SOL    HW128682   6.712   8.819   2.136 -1.1293  1.9130 -0.7985
42225SOL    HW228683   6.843   8.886   2.173 -0.0921 -0.4299 -0.0118
42226SOL     OW28684   6.624  11.014   1.817  0.0724 -0.8255  0.1488
42226SOL    HW128685   6.590  10.925   1.831  0.2782 -0.5542  2.9928
42226SOL    HW228686   6.559  11.071   1.858  0.9966  0.1641  0.2867
42227SOL     OW28687  10.614   0.256   7.660  0.0442  0.0816 -0.1105
42227SOL    HW128688  10.519   0.253   7.661 -0.0846  0.0577  3.9097
42227SOL    HW228689  10.635   0.350   7.667  0.3979  0.0971 -1.0709
42228SOL     OW28690   9.313   0.432   3.047  1.0129 -0.1157 -0.0573
42228SOL    HW128691   9.225   0.408   3.018  0.3943  0.0355  1.6057
42228SOL    HW228692   9.371   0.394   2.981 -0.2461 -0.8813 -0.7633
42229SOL     OW28693   7.680   0.800   1.408 -0.6378 -0.0018 -0.4585
42229SOL    HW128694   7.733   0.805   1.329 -0.6201  0.0762 -0.4421
42229SOL    HW228695   7.702   0.716   1.447 -1.6352 -0.6624 -1.2456
42230SOL     OW28696   4.205   4.512   2.122 -0.0483  0.0010 -0.1402
42230SOL    HW128697   4.257   4.576   2.171 -0.1545  0.3605 -0.4969
42230SOL    HW228698   4.244   4.510   2.035 -0.1050 -0.3528 -0.1618
42231SOL     OW28699   0.188   7.915   4.987  0.3170  0.0202  0.2871
42231SOL    HW128700   0.224   7.826   4.987  1.4079  0.4237 -1.2062
42231SOL    HW228701   0.134   7.918   5.066 -1.2906 -2.5657 -0.5665
42232SOL     OW28702   8.400   3.271   7.267 -0.0278  0.3453 -0.0271
42232SOL    HW128703   8.421   3.269   7.360  0.0906  0.4163 -0.0518
42232SOL    HW228704   8.483   3.250   7.224  0.2280  1.5710 -0.1642
42233SOL     OW28705  10.408   5.637   5.549 -0.0017 -0.4740 -0.4637
42233SOL    HW128706  10.450   5.706   5.497 -0.4252 -0.7598 -1.1973
42233SOL    HW228707  10.319   5.671   5.566  0.4329  0.0521  0.9321
42234SOL     OW28708   9.866   8.767   5.796 -0.3473 -0.1210 -0.3043
42234SOL    HW128709   9.850   8.857   5.821  0.9307 -0.2025  0.9287
42234SOL    HW228710   9.954   8.767   5.757  0.0601 -0.9599  0.5582
42235SOL     OW28711  10.948  10.393   1.501 -0.5607 -0.1810 -0.0190
42235SOL    HW128712  10.965  10.308   1.459  1.2600  0.8992 -1.6167
42235SOL    HW228713  10.857  10.386   1.532 -0.5542 -2.6014 -0.3348
42236SOL     OW28714   5.759   8.156   4.794  0.4558  0.2331 -0.2145
42236SOL    HW128715   5.817   8.120   4.727 -2.4120 -0.0366 -2.7572
42236SOL    HW228716   5.792   8.245   4.808  0.7484  0.5685 -2.5806
42237SOL     OW28717   2.900   9.462   9.938  0.0107 -0.6302  0.1301
42237SOL    HW128718   2.919   9.457   9.844 -3.1710 -0.0656 -0.6651
42237SOL    HW228719   2.859   9.379   9.959  1.3202 -1.0305  1.2620
42238SOL     OW28720   1.140   4.798   7.964  0.5825 -0.0980 -0.2160
42238SOL    HW128721   1.059   4.778   7.918 -0.1242 -0.0194  0.9374
42238SOL    HW228722   1.152   4.892   7.950 -0.2815  0.1744  0.7144
42239SOL     OW28723   7.879   7.683   2.663  0.0711 -0.1724  0.0029
42239SOL    HW128724   7.908   7.774   2.675 -0.7149  0.1650 -0.5578
42239SOL    HW228725   7.892   7.666   2.570 -0.4817 -0.3855 -0.0370
42240SOL     OW28726   8.107   6.144   3.227 -0.3936 -0.1628  0.1783
42240SOL    HW128727   8.051   6.067   3.240 -1.8351  0.8168  0.0259
42240SOL    HW228728   8.143   6.162   3.313  0.4815 -1.3681  0.0926
42241SOL     OW28729  11.001  10.880  10.653  0.6811  0.2789  0.4130
42241SOL    HW128730  11.082  10.889  10.603 -0.6015 -1.1691 -2.1545
42241SOL    HW228731  11.008  10.795  10.696 -0.1588 -0.7590 -1.3764
42242SOL     OW28732   5.039   9.565   9.378  0.2776  0.0668  0.3409
42242SOL    HW128733   5.086   9.594   9.456  0.7154  1.0334 -0.2522
42242SOL    HW228734   4.985   9.641   9.353  1.1673  0.3000 -1.0415
42243SOL     OW28735   0.243   9.585   9.085 -0.5581  0.2010 -0.2565
42243SOL    HW128736   0.311   9.646   9.113 -2.5873  2.9662 -0.8821
42243SOL    HW228737   0.250   9.512   9.147  1.3589  1.5138  1.2264
42244SOL     OW28738   4.283   4.405   5.331  0.0916  0.1273  0.0650
42244SOL    HW128739   4.231   4.327   5.312  2.4840 -2.6165  3.5059
42244SOL    HW228740   4.247   4.439   5.413  0.8145  0.9351  0.0645
42245SOL     OW28741  11.093   2.443   2.449  0.2633  0.7572  0.3337
42245SOL    HW128742  11.156   2.443   2.376  1.6434  2.0345  1.4647
42245SOL    HW228743  11.007   2.443   2.406  1.0151  0.1073 -1.2674
42246SOL     OW28744   3.891   5.791   6.908  0.0868  0.3232 -0.0656
42246SOL    HW128745   3.925   5.879   6.927  1.0652  0.1645 -1.0266
42246SOL    HW228746   3.859   5.760   6.993  0.0369  1.4714  0.3597
42247SOL     OW28747   3.038   0.315   7.088  0.2952 -0.2523 -0.0060
42247SOL    HW128748   2.963   0.284   7.139 -0.7335  0.9972 -0.6733
42247SOL    HW228749   3.114   0.288   7.138 -0.5379 -2.6348  0.0977
42248SOL     OW28750   2.068   8.919  10.730 -0.4544  0.1493  0.0377
42248SOL    HW128751   2.035   8.838  10.691  1.2295  0.1484 -1.5137
42248SOL    HW228752   2.118   8.961  10.660  0.1615  1.6895  1.3355
42249SOL     OW28753  10.410   8.621   8.491 -0.1335 -0.7644 -0.6255
42249SOL    HW128754  10.419   8.652   8.581  1.6435 -1.1138 -0.6377
42249SOL    HW228755  10.450   8.691   8.438 -2.3009  0.0415 -1.3074
42250SOL     OW28756   4.007   7.652   7.836  0.4481 -0.1669 -0.3164
42250SOL    HW128757   4.046   7.733   7.870  0.3115 -0.2943  0.1575
42250SOL    HW228758   4.024   7.654   7.742  0.4854  0.3931 -0.3001
42251SOL     OW28759   7.935   5.952   2.154 -0.3526 -0.3542  0.3918
42251SOL    HW128760   7.854   5.915   2.118  0.6045 -1.5202 -0.6474
42251SOL    HW228761   7.934   6.043   2.126 -0.3317 -0.8787 -1.4372
42252SOL     OW28762   3.971   0.159   0.979 -0.0831  0.4981  1.0162
42252SOL    HW128763   4.066   0.152   0.973 -0.0438  0.7740  1.2764
42252SOL    HW228764   3.944   0.198   0.896  0.2841  2.7381  1.8786
42253SOL     OW28765   3.171  10.173   7.817 -1.1182  0.3021  0.5401
42253SOL    HW128766   3.179  10.245   7.880 -1.0536  0.5557  0.2456
42253SOL    HW228767   3.116  10.108   7.861 -0.3436  0.0816  1.2139
42254SOL     OW28768   6.512   3.212   7.590 -0.3312  0.6602 -0.8065
42254SOL    HW128769   6.487   3.120   7.581 -1.0284  0.7327  0.2242
42254SOL    HW228770   6.522   3.243   7.500 -2.5124  0.2200 -1.2614
42255SOL     OW28771   1.741   7.389   9.516  0.2564 -0.4801 -0.7837
42255SOL    HW128772   1.833   7.385   9.544  0.6966  0.5675 -2.0075
42255SOL    HW228773   1.719   7.482   9.515 -0.4508 -0.6346 -1.6176
42256SOL     OW28774   0.059   6.605   4.413 -0.3639 -0.7499 -0.4169
42256SOL    HW128775   0.135   6.662   4.420 -1.4454  0.7466 -0.3907
42256SOL    HW228776   0.088   6.532   4.359  1.3200 -0.6402  0.2959
42257SOL     OW28777  10.122   8.907   4.465  0.7785 -0.3377 -0.5259
42257SOL    HW128778  10.112   9.001   4.485  0.5214 -0.2358 -1.1086
42257SOL    HW228779  10.034   8.871   4.479  0.7477 -0.3842 -0.8473
42258SOL     OW28780   2.136   8.844   6.471  0.0770  0.3352 -0.5089
42258SOL    HW128781   2.115   8.920   6.525 -1.2801  1.0942 -2.0092
42258SOL    HW228782   2.077   8.852   6.395  0.1105 -2.0608 -0.8425
42259SOL     OW28783   3.116   0.460  10.608 -0.6120  0.9584 -0.2010
42259SOL    HW128784   3.173   0.513  10.552 -0.3577  1.3735  0.4472
42259SOL    HW228785   3.115   0.505  10.692 -0.6751  0.1217  0.2607
42260SOL     OW28786   2.287   3.085   4.267 -0.1392 -0.2349  0.0147
42260SOL    HW128787   2.328   3.171   4.277  2.0113 -0.9132 -2.1934
42260SOL    HW228788   2.356   3.022   4.286 -1.1211 -1.4915 -0.4011
42261SOL     OW28789   2.251   1.663   6.618  0.0711  0.6100  0.4600
42261SOL    HW128790   2.208   1.578   6.630 -2.1020  1.8129  1.8783
42261SOL    HW228791   2.323   1.663   6.681  0.8651 -0.5935 -0.3949
42262SOL     OW28792   6.875   8.497   3.710  0.0233  0.2593 -0.3593
42262SOL    HW128793   6.848   8.588   3.723  1.9707  0.7734  0.3776
42262SOL    HW228794   6.968   8.502   3.689  0.9863 -1.6959  2.8213
42263SOL     OW28795   7.654   9.798   4.304  0.3371 -0.2617  0.3621
42263SOL    HW128796   7.637   9.852   4.227 -0.1963 -0.1060  0.5841
42263SOL    HW228797   7.667   9.710   4.269 -2.3795 -0.7098  0.2397
42264SOL     OW28798   3.785   8.354   7.818 -0.0833 -0.3437 -0.3271
42264SOL    HW128799   3.836   8.435   7.814  0.3929 -0.6649 -1.0908
42264SOL    HW228800   3.714   8.373   7.878 -0.4681  0.9254 -1.1494
42265SOL     OW28801   2.512   9.534   4.330  0.6434 -0.1277 -0.9703
42265SOL    HW128802   2.419   9.532   4.351  0.7997  3.8833  0.9740
42265SOL    HW228803   2.515   9.520   4.235 -1.3566 -4.9356 -0.5846
42266SOL     OW28804   9.214  10.858   8.113  0.7511  0.9664 -0.4614
42266SOL    HW128805   9.229  10.801   8.189 -0.1081  1.7500  0.3147
42266SOL    HW228806   9.179  10.939   8.150 -0.4394  1.0776 -1.7594
42267SOL     OW28807   1.308  10.088   2.223 -0.1103  0.1630 -0.5755
42267SOL    HW128808   1.356  10.170   2.211 -0.1847  0.4274  0.7580
42267SOL    HW228809   1.295  10.082   2.317 -1.0404 -0.8586 -0.7530
42268SOL     OW28810   5.219   7.023   2.495 -0.1165 -0.5317  0.0017
42268SOL    HW128811   5.274   7.065   2.429 -1.5373 -1.2115 -1.6741
42268SOL    HW228812   5.275   7.020   2.573  2.3557 -1.4530 -1.6595
42269SOL     OW28813   8.167   7.950   5.425  0.2199  0.5948 -0.1700
42269SOL    HW128814   8.083   7.908   5.439 -1.8423  4.2016 -0.6092
42269SOL    HW228815   8.195   7.919   5.339 -0.4842 -0.8935  0.1169
42270SOL     OW28816   1.360   2.736  10.117  0.0692  0.3214 -0.1807
42270SOL    HW128817   1.371   2.765  10.027 -0.2045  0.5211 -0.1514
42270SOL    HW228818   1.447   2.703  10.143  0.4850  1.4357 -0.1008
42271SOL     OW28819   7.347   8.961   0.402  0.0865 -0.2361  0.1199
42271SOL    HW128820   7.405   8.885   0.403 -0.8215 -0.9407  0.5002
42271SOL    HW228821   7.314   8.967   0.492 -0.9236 -0.2344 -0.2435
42272SOL     OW28822   6.697   5.072   3.219 -0.3624  0.1252 -0.7309
42272SOL    HW128823   6.627   5.086   3.283 -0.0923 -1.7955  0.0365
42272SOL    HW228824   6.651   5.060   3.136 -1.2787 -3.7674  0.1636
42273SOL     OW28825   9.180   3.650   4.024  0.0299 -0.5106  0.2470
42273SOL    HW128826   9.087   3.636   4.007 -1.1094  1.9717  3.4061
42273SOL    HW228827   9.197   3.606   4.107  0.6189  2.0434  1.6027
42274SOL     OW28828   4.944   4.330   7.566  0.2612  0.4169  0.3760
42274SOL    HW128829   4.970   4.330   7.473 -1.6478  1.6471 -0.2091
42274SOL    HW228830   4.931   4.238   7.587  2.0870 -0.0066 -0.1344
42275SOL     OW28831   4.873   3.909   8.745  0.2300  0.9402  0.7179
42275SOL    HW128832   4.920   3.919   8.828 -1.1562  0.9192  1.5357
42275SOL    HW228833   4.941   3.913   8.678  1.5400 -0.2776  1.9075
42276SOL     OW28834   4.366   2.700   4.507  0.2327 -0.4021  0.4201
42276SOL    HW128835   4.319   2.727   4.586 -0.7319  0.9374 -0.5458
42276SOL    HW228836   4.452   2.740   4.515  0.1837 -0.3761  0.8471
42277SOL     OW28837   5.250  10.689   1.487  0.1764  0.1792 -0.0171
42277SOL    HW128838   5.256  10.738   1.569  0.6300  0.7019 -0.3555
42277SOL    HW228839   5.169  10.721   1.445 -0.5289 -0.7182  0.6152
42278SOL     OW28840   6.454   0.377   7.914  0.0645  0.4376 -0.2491
42278SOL    HW128841   6.426   0.286   7.918 -0.2748  0.4387 -1.9698
42278SOL    HW228842   6.524   0.383   7.979 -1.1948 -0.5438  1.2733
42279SOL     OW28843   8.301  10.510   6.656  0.9996  0.8207 -0.7693
42279SOL    HW128844   8.321  10.568   6.582 -1.8400 -0.5285 -2.7881
42279SOL    HW228845   8.270  10.429   6.616  0.8272 -0.5818  1.9549
42280SOL     OW28846   9.801   3.468   6.096  0.0731  0.3304  0.0779
42280SOL    HW128847   9.761   3.443   6.013 -0.5259  0.4238  0.3318
42280SOL    HW228848   9.814   3.562   6.089 -2.5662  0.8691  1.1249
42281SOL     OW28849   3.561   6.301   6.009 -0.5546  0.0157  0.0277
42281SOL    HW128850   3.580   6.378   6.063  0.1592  0.0648 -0.2815
42281SOL    HW228851   3.634   6.297   5.948  1.3498 -2.9104  2.2201
42282SOL     OW28852   7.154   7.930  10.350 -0.1403 -0.6574  0.1322
42282SOL    HW128853   7.137   8.015  10.392 -1.4290 -1.0571  0.4566
42282SOL    HW228854   7.157   7.950  10.257 -0.9687 -0.3257  0.1694
42283SOL     OW28855   7.229   4.785  10.122  0.4009  0.1775  0.6994
42283SOL    HW128856   7.261   4.866  10.161  1.0008  0.1955  0.1831
42283SOL    HW228857   7.180   4.743  10.192 -0.8453  1.4958  0.6618
42284SOL     OW28858   6.748   7.882   2.048  0.3755  0.0243  0.1558
42284SOL    HW128859   6.800   7.931   2.112  0.0344  0.2382  0.2713
42284SOL    HW228860   6.796   7.891   1.966  0.6349  0.0384  0.3079
42285SOL     OW28861   2.168   7.014  10.625 -0.1820  0.1313 -0.1008
42285SOL    HW128862   2.234   7.071  10.587  1.4534  0.3759  2.8263
42285SOL    HW228863   2.217   6.949  10.675 -2.1066 -0.4827  1.1272
42286SOL     OW28864   9.107   3.827  10.626  0.0385  0.0961  0.2265
42286SOL    HW128865   9.023   3.781  10.614 -0.2379  0.6144  0.1702
42286SOL    HW228866   9.172   3.768  10.587  0.0858 -1.6038  2.6079
42287SOL     OW28867   5.823   5.521   2.200  0.3950  0.2412 -0.3966
42287SOL    HW128868   5.902   5.469   2.218  0.1849 -0.0321 -0.2565
42287SOL    HW228869   5.764   5.502   2.273  0.0883  0.2227 -0.6440
42288SOL     OW28870   7.535   3.623   9.887  0.1710 -0.1454  0.1028
42288SOL    HW128871   7.609   3.564   9.899  1.0412  1.0255  0.7182
42288SOL    HW228872   7.525   3.667   9.972  0.3278  1.4358 -0.6579
42289SOL     OW28873   3.737   5.639   3.121  0.2642 -0.3649 -0.8332
42289SOL    HW128874   3.748   5.685   3.038  0.4308 -2.4489 -2.0499
42289SOL    HW228875   3.786   5.691   3.184 -2.5073  3.1034 -1.2167
42290SOL     OW28876  10.981   9.635   8.268 -0.0336  0.0985 -0.4515
42290SOL    HW128877  10.899   9.589   8.283  0.2124 -0.2666 -0.2246
42290SOL    HW228878  11.047   9.566   8.261  0.7308  0.4547  2.1765
42291SOL     OW28879   5.836   9.290   1.652  0.4624 -0.1679  0.2876
42291SOL    HW128880   5.744   9.308   1.632  1.5061  3.4277 -2.5372
42291SOL    HW228881   5.872   9.376   1.676  2.8758 -1.7038  2.7697
42292SOL     OW28882   2.556   2.966   0.368 -0.2843  0.2555  0.1571
42292SOL    HW128883   2.649   2.962   0.345  0.1626  0.7169  1.7969
42292SOL    HW228884   2.514   3.003   0.290  1.0900  1.3042 -0.1186
42293SOL     OW28885   7.760   5.495   0.054  0.2570  0.0343  0.1532
42293SOL    HW128886   7.813   5.511  -0.024  0.2264  1.1535  0.3504
42293SOL    HW228887   7.693   5.564   0.052 -0.0906 -0.2750  0.8641
42294SOL     OW28888   0.670  10.401  10.548  0.3408 -0.0439 -0.6010
42294SOL    HW128889   0.750  10.399  10.496  1.9621  0.8250  1.6971
42294SOL    HW228890   0.648  10.309  10.561 -0.0507 -0.2853 -2.6364
42295SOL     OW28891   3.088   9.306   6.939 -0.2116 -0.6322  0.0862
42295SOL    HW128892   3.058   9.228   6.892 -0.4392 -2.0780  2.4634
42295SOL    HW228893   3.034   9.377   6.905 -2.6663 -2.2092  0.4593
42296SOL     OW28894   0.552   9.204   9.129  0.3227 -0.9045  0.0660
42296SOL    HW128895   0.610   9.179   9.057  1.1838 -0.8778  0.7453
42296SOL    HW228896   0.594   9.278   9.171 -1.1605  0.3596 -0.5928
42297SOL     OW28897   0.721   6.274   2.650 -0.2294  0.1478  0.1978
42297SOL    HW128898   0.715   6.180   2.666 -0.1067  0.0100 -0.5102
42297SOL    HW228899   0.690   6.315   2.731 -2.8630 -0.5013 -0.3999
42298SOL     OW28900   1.414   9.551   8.026  0.2921  0.4794  0.2157
42298SOL    HW128901   1.348   9.579   7.964  1.9006  0.7506 -1.4598
42298SOL    HW228902   1.440   9.630   8.072  0.6453  0.7029 -0.3514
42299SOL     OW28903  10.612   0.040   1.090 -0.0113 -0.0469  0.4612
42299SOL    HW128904  10.653   0.064   1.006 -0.3092 -2.5357 -0.4802
42299SOL    HW228905  10.676  -0.018   1.132 -0.7792 -0.5753  0.9225
42300SOL     OW28906   9.395   4.026   5.814 -0.2225 -0.0717  0.2984
42300SOL    HW128907   9.450   3.951   5.838 -1.3336 -1.3999 -1.0190
42300SOL    HW228908   9.392   4.081   5.892  4.0901  0.8705  0.0617
42301SOL     OW28909   2.521   4.907   5.406  0.6987 -0.2182 -0.1344
42301SOL    HW128910   2.462   4.943   5.472  1.8674  1.2603  0.1549
42301SOL    HW228911   2.540   4.818   5.437  0.2169  0.0020  0.8289
42302SOL     OW28912   3.346   3.538  10.794 -0.4084  0.4677  0.0339
42302SOL    HW128913   3.371   3.524  10.703 -1.1397  1.2307 -0.2962
42302SOL    HW228914   3.354   3.452  10.835  1.0772  0.3365 -0.4494
42303SOL     OW28915  10.401   5.272   1.552  0.1475  0.0365 -0.2033
42303SOL    HW128916  10.371   5.182   1.558  2.6968 -0.8639  0.5866
42303SOL    HW228917  10.467   5.280   1.621  0.4761  2.3117 -0.6881
42304SOL     OW28918  10.746   7.446   5.143 -0.0898 -0.3624 -0.6866
42304SOL    HW128919  10.712   7.503   5.211 -0.2918 -0.7763 -0.4385
42304SOL    HW228920  10.791   7.505   5.083 -2.1671  0.3558 -1.6257
42305SOL     OW28921   1.217   7.009   9.645  0.1648  0.0398 -0.1235
42305SOL    HW128922   1.251   7.035   9.730 -0.2524  1.3327 -0.3320
42305SOL    HW228923   1.221   7.088   9.592 -1.0934 -0.3244 -0.8208
42306SOL     OW28924   1.435   6.541   3.682 -0.5538  0.0607 -0.5723
42306SOL    HW128925   1.369   6.601   3.650 -1.2516  1.7826  3.5434
42306SOL    HW228926   1.393   6.455   3.678 -3.0947  1.0622  1.6360
42307SOL     OW28927  10.290   4.507   0.366 -0.0663  0.5648 -0.5020
42307SOL    HW128928  10.260   4.417   0.372 -4.7792  1.9373  1.7655
42307SOL    HW228929  10.252   4.540   0.284  0.2254  0.9008 -0.5053
42308SOL     OW28930   1.259   8.401   0.907  0.6061 -0.2067  0.5485
42308SOL    HW128931   1.318   8.407   0.983 -0.3163 -0.6815  1.3161
42308SOL    HW228932   1.251   8.491   0.876 -0.2391  0.2353  1.9775
42309SOL     OW28933   4.303   4.685   6.694  0.4413 -0.9348  0.3641
42309SOL    HW128934   4.223   4.688   6.642  0.8832 -1.6229 -0.3848
42309SOL    HW228935   4.312   4.773   6.731 -0.7606 -0.9052  0.6304
42310SOL     OW28936   3.575   1.588   7.567  0.5880 -0.2762  0.5513
42310SOL    HW128937   3.483   1.561   7.568  0.4201 -0.0742 -2.1355
42310SOL    HW228938   3.588   1.631   7.651 -2.3050  1.3170  0.3351
42311SOL     OW28939   2.855   7.725   4.525  0.5480  0.3676 -0.1919
42311SOL    HW128940   2.776   7.777   4.511  0.0302 -0.4453 -0.3397
42311SOL    HW228941   2.843   7.648   4.469  1.6006  0.3962 -0.4847
42312SOL     OW28942   1.272   8.250   7.964  0.1004  0.2413  0.5818
42312SOL    HW128943   1.325   8.265   8.042  0.3703  0.6056  0.3288
42312SOL    HW228944   1.229   8.334   7.947 -1.2979 -0.2987  1.3275
42313SOL     OW28945  10.707   5.975   2.133 -0.1253 -0.6300  0.3675
42313SOL    HW128946  10.643   5.946   2.198 -3.3290  1.2076 -1.6810
42313SOL    HW228947  10.708   5.905   2.068  0.2132 -0.8102  0.5663
42314SOL     OW28948   4.404   3.599  10.616 -0.3070 -0.0431 -0.2739
42314SOL    HW128949   4.364   3.621  10.533 -1.0823  2.0694  0.6027
42314SOL    HW228950   4.487   3.647  10.618 -0.3020 -0.0602  0.1874
42315SOL     OW28951   7.604   1.085   3.766 -0.6182 -0.0744  0.4508
42315SOL    HW128952   7.580   1.097   3.674 -0.6469  1.1273  0.6032
42315SOL    HW228953   7.680   1.142   3.779 -1.7576  1.2588  1.6223
42316SOL     OW28954   4.808   9.918  10.306 -0.1621 -0.1379  0.0441
42316SOL    HW128955   4.810   9.896  10.213  0.5734 -0.9206  0.2361
42316SOL    HW228956   4.889   9.881  10.342 -0.7817 -0.4999  1.1318
42317SOL     OW28957   6.634   8.573   6.776  0.3012  0.6838 -0.9079
42317SOL    HW128958   6.546   8.603   6.755  0.0287  0.4803 -0.0811
42317SOL    HW228959   6.651   8.502   6.713 -1.6004 -1.8754  1.2260
42318SOL     OW28960   6.631   5.190  10.229  0.4669 -0.1534 -0.0860
42318SOL    HW128961   6.711   5.183  10.281  0.7132  0.7114 -0.3307
42318SOL    HW228962   6.560   5.171  10.290  0.6258  2.5378  1.0543
42319SOL     OW28963   7.031   7.387  10.631 -0.3431  0.1600 -0.2132
42319SOL    HW128964   6.990   7.346  10.707 -1.0802 -0.3836 -0.8821
42319SOL    HW228965   7.102   7.441  10.667 -1.5570  1.0167  0.9708
42320SOL     OW28966   9.846   5.942   5.918 -0.6300 -0.0172 -0.5484
42320SOL    HW128967   9.925   5.948   5.865 -0.5532  2.0575 -0.3152
42320SOL    HW228968   9.800   6.025   5.901 -1.8141 -0.3658  0.7366
42321SOL     OW28969   2.302   8.297   0.345  0.0359 -0.1609  0.3807
42321SOL    HW128970   2.218   8.331   0.316  1.1367  0.9502 -1.6314
42321SOL    HW228971   2.284   8.205   0.366 -1.8688  0.3059  0.9733
42322SOL     OW28972  10.125   2.822   2.554  0.1637 -0.6051  0.4497
42322SOL    HW128973  10.157   2.879   2.483 -0.2836 -2.8544 -1.6824
42322SOL    HW228974  10.188   2.750   2.557 -0.2187 -0.9048  1.9186
42323SOL     OW28975   7.260   8.024   1.722  0.1374  0.0221  0.0733
42323SOL    HW128976   7.267   8.084   1.648 -2.0268  0.2202 -0.0316
42323SOL    HW228977   7.274   7.937   1.684 -1.3804  0.0846 -0.7067
42324SOL     OW28978   0.833   1.685   1.070 -0.0352  0.5205 -0.0177
42324SOL    HW128979   0.757   1.712   1.020 -1.7402 -1.5902  1.2487
42324SOL    HW228980   0.893   1.647   1.005 -0.7872  0.7049 -0.8336
42325SOL     OW28981   8.952   2.278   9.356 -0.2764 -0.2993 -0.5164
42325SOL    HW128982   8.967   2.310   9.445  0.5816  0.9062 -1.0622
42325SOL    HW228983   9.033   2.232   9.333 -0.9383 -1.6483 -0.2805
42326SOL     OW28984   1.206   1.508  10.236  0.1010 -0.3370  0.2559
42326SOL    HW128985   1.214   1.599  10.208 -2.9484 -0.5021 -1.6109
42326SOL    HW228986   1.295   1.483  10.261  1.0193  3.1782  1.1132
42327SOL     OW28987   3.658   2.815  10.878 -0.2645 -0.5605  0.7417
42327SOL    HW128988   3.745   2.799  10.915  0.5336  0.2680 -0.6571
42327SOL    HW228989   3.638   2.734  10.831  0.2413 -0.3835  0.2006
42328SOL     OW28990   9.770   8.824   8.245 -0.4924 -0.1172 -0.3534
42328SOL    HW128991   9.679   8.842   8.224 -0.5990 -1.4117 -1.1166
42328SOL    HW228992   9.819   8.893   8.200 -1.0483  0.1306 -0.5861
42329SOL     OW28993   7.129   5.551   2.703 -0.5677  0.4382  0.0802
42329SOL    HW128994   7.175   5.521   2.624 -1.8580 -1.9982  0.1583
42329SOL    HW228995   7.199   5.565   2.767  0.2605 -1.7055 -0.2557
42330SOL     OW28996   5.791   8.458   0.924  0.0095 -0.9487 -0.2075
42330SOL    HW128997   5.754   8.420   1.003 -2.9424  2.1705  0.1845
42330SOL    HW228998   5.731   8.431   0.854  0.8464 -1.2151 -0.8415
42331SOL     OW28999   2.379   7.721   0.350  0.4133 -0.3525  0.1024
42331SOL    HW129000   2.402   7.807   0.384  1.2463 -0.6477  0.3003
42331SOL    HW229001   2.334   7.678   0.422 -1.5778  0.5232 -0.5491
42332SOL     OW29002   8.419   9.438   7.370 -0.4754  0.1827  0.1666
42332SOL    HW129003   8.459   9.508   7.318 -0.3695  0.5430  0.7243
42332SOL    HW229004   8.448   9.357   7.327 -2.3847  0.4571 -1.8103
42333SOL     OW29005   0.958   9.182   2.705 -0.7160  0.3092  0.3100
42333SOL    HW129006   0.867   9.177   2.733 -0.0348  1.1366  2.8874
42333SOL    HW229007   1.008   9.144   2.777  1.1293  2.1002  0.0664
42334SOL     OW29008   6.602   3.541   1.190  0.3078  0.7238  0.5061
42334SOL    HW129009   6.631   3.583   1.272 -0.4105 -1.3963  1.9369
42334SOL    HW229010   6.673   3.560   1.128  2.9141 -0.9008  2.7545
42335SOL     OW29011   8.092   6.508   9.854 -0.4753 -0.3045  0.7905
42335SOL    HW129012   8.153   6.436   9.869 -0.1722 -0.2922 -0.2589
42335SOL    HW229013   8.147   6.579   9.821 -0.9130  0.0682  0.8475
42336SOL     OW29014   1.681   9.228   6.856 -0.6040 -0.8119  0.1129
42336SOL    HW129015   1.690   9.205   6.764 -1.4449 -0.3197 -0.1038
42336SOL    HW229016   1.588   9.218   6.875 -0.3995 -1.1863  0.9894
42337SOL     OW29017  10.574   1.174   6.095  0.2110 -0.3417 -0.0977
42337SOL    HW129018  10.664   1.159   6.123 -0.1420 -0.8170  0.8326
42337SOL    HW229019  10.530   1.090   6.110 -0.4600 -0.0170 -0.2178
42338SOL     OW29020   9.831  10.555   5.533 -0.3735 -0.4844 -0.0082
42338SOL    HW129021   9.828  10.603   5.450 -1.5237 -1.3412 -0.4887
42338SOL    HW229022   9.767  10.599   5.589 -0.1111 -0.3480  0.1882
42339SOL     OW29023   5.257   6.349   4.607 -0.4716 -0.4081  0.4789
42339SOL    HW129024   5.337   6.328   4.655 -1.2583 -1.7876  1.2412
42339SOL    HW229025   5.223   6.265   4.577 -1.5443  0.1693  0.0082
42340SOL     OW29026   1.445   5.976   8.453 -0.2952 -0.7087 -0.1757
42340SOL    HW129027   1.436   6.071   8.462 -1.6179 -0.6941 -1.2789
42340SOL    HW229028   1.450   5.962   8.358 -1.4329 -1.8150 -0.0980
42341SOL     OW29029   8.633   9.380   1.550  0.3340  0.4694  0.0603
42341SOL    HW129030   8.726   9.394   1.530  0.9622 -2.2331  0.5696
42341SOL    HW229031   8.622   9.285   1.543 -2.1315  0.6016  1.1469
42342SOL     OW29032   1.470  10.338   6.587 -0.7815  0.0831  0.0718
42342SOL    HW129033   1.542  10.278   6.606 -1.8497 -0.7335  1.9042
42342SOL    HW229034   1.510  10.409   6.537  0.6602 -1.8159 -1.6412
42343SOL     OW29035   1.414  10.613   7.601  0.3070 -0.0508 -0.1100
42343SOL    HW129036   1.332  10.587   7.559 -1.4873  1.6758  2.1238
42343SOL    HW229037   1.427  10.548   7.670 -0.3658  0.8637  0.9036
42344SOL     OW29038   4.183   4.385   0.073 -0.2435 -0.0223 -0.3677
42344SOL    HW129039   4.128   4.320   0.117 -0.6511  0.0386 -0.7760
42344SOL    HW229040   4.203   4.449   0.140  1.1088 -1.1493  0.3501
42345SOL     OW29041  10.493   4.177   6.863  0.1170 -0.0723 -0.3453
42345SOL    HW129042  10.419   4.117   6.861 -0.6017  0.8161 -0.8225
42345SOL    HW229043  10.523   4.182   6.773 -0.7469  1.3818 -0.5835
42346SOL     OW29044   8.313  10.779   3.879  1.0460  0.2568  0.6616
42346SOL    HW129045   8.245  10.818   3.934  0.0593  1.6231 -1.3790
42346SOL    HW229046   8.395  10.811   3.915  0.5112  0.2775  1.9190
42347SOL     OW29047   4.665   5.161   3.949  0.2366 -0.2310 -0.1444
42347SOL    HW129048   4.603   5.199   3.887 -0.9388 -2.8417 -0.6995
42347SOL    HW229049   4.661   5.067   3.932  1.7532 -0.8030  2.2271
42348SOL     OW29050   0.249   3.677   9.412 -0.6321  0.2090 -0.1281
42348SOL    HW129051   0.288   3.599   9.451  0.3361  0.6250 -0.2438
42348SOL    HW229052   0.323   3.734   9.391 -1.1457  0.2682 -1.9952
42349SOL     OW29053   2.426   1.188   2.682 -0.2996 -0.2720  0.3654
42349SOL    HW129054   2.391   1.140   2.756  1.1967  0.5948  1.7001
42349SOL    HW229055   2.394   1.141   2.605 -0.5468 -2.1562  1.5710
42350SOL     OW29056   9.709   6.051   8.175  0.1656 -0.6506 -0.0746
42350SOL    HW129057   9.724   6.017   8.263 -0.4571 -1.0623 -0.1180
42350SOL    HW229058   9.716   5.974   8.118 -1.0575 -0.6973 -0.1972
42351SOL     OW29059   7.254   9.389   1.796 -0.4669  0.1688 -1.1417
42351SOL    HW129060   7.344   9.402   1.827 -0.6847  1.4554 -0.9984
42351SOL    HW229061   7.239   9.295   1.807  0.4608  0.1130 -0.0626
42352SOL     OW29062  10.233   2.189   9.655  0.2749 -0.0146  0.4292
42352SOL    HW129063  10.137   2.184   9.660  0.2643 -0.6829 -0.3206
42352SOL    HW229064  10.255   2.155   9.569  1.1141  1.3708  0.0500
42353SOL     OW29065   1.375   9.217   9.107 -0.2622 -0.0726  0.1897
42353SOL    HW129066   1.431   9.295   9.105  0.8966 -0.8701 -2.0219
42353SOL    HW229067   1.432   9.148   9.141 -0.7109 -0.3629  0.3567
42354SOL     OW29068   7.855   7.102   0.320  0.0986  0.1646 -0.2259
42354SOL    HW129069   7.845   7.194   0.345 -0.4487  0.2600 -0.7923
42354SOL    HW229070   7.890   7.104   0.232  1.6251 -0.1797  0.3488
42355SOL     OW29071   3.098   1.666   5.269 -0.2656  0.0571  0.2837
42355SOL    HW129072   3.184   1.626   5.284 -1.1239 -3.0274 -1.9850
42355SOL    HW229073   3.114   1.733   5.203  0.3818 -0.6741 -0.3221
42356SOL     OW29074   7.972   6.542   6.279 -0.3289  0.7367 -0.1693
42356SOL    HW129075   7.998   6.455   6.311 -0.7998  0.1078 -1.3943
42356SOL    HW229076   7.911   6.575   6.344 -1.6218 -0.6946 -0.5817
42357SOL     OW29077   7.607   2.758   7.480  0.2225  0.2662  0.1127
42357SOL    HW129078   7.648   2.732   7.398 -0.1955 -1.0976  0.3140
42357SOL    HW229079   7.531   2.700   7.488  0.1624  0.4978  1.3848
42358SOL     OW29080   1.725   8.636  10.137 -0.2762  0.4720  0.4056
42358SOL    HW129081   1.723   8.547  10.103  0.0770 -0.0468  1.6552
42358SOL    HW229082   1.684   8.630  10.223  0.4767  1.3454  0.8581
42359SOL     OW29083   9.438   3.145   9.677 -0.2112 -0.4427  0.1374
42359SOL    HW129084   9.532   3.153   9.692 -0.3104 -2.2043  2.2130
42359SOL    HW229085   9.398   3.182   9.756 -1.2168 -0.8498 -0.1639
42360SOL     OW29086   4.817   6.592  10.074  0.8020 -0.3741  0.3945
42360SOL    HW129087   4.837   6.591  10.168  1.5901  0.4062  0.2448
42360SOL    HW229088   4.867   6.518  10.038  0.1323 -0.9633  0.6470
42361SOL     OW29089   6.284   3.302   7.952 -0.0279 -0.3456  0.3045
42361SOL    HW129090   6.199   3.257   7.956  0.8871 -2.1307  0.7407
42361SOL    HW229091   6.273   3.368   7.883 -1.0573 -2.1509 -1.3811
42362SOL     OW29092   7.782   3.115   6.582  0.0719 -0.0367 -0.4879
42362SOL    HW129093   7.813   3.155   6.501 -0.5832 -3.2707 -2.5222
42362SOL    HW229094   7.852   3.055   6.608 -0.7942 -0.9537 -0.1863
42363SOL     OW29095   3.118   4.177   7.900  0.0940  0.1900 -0.8045
42363SOL    HW129096   3.108   4.169   7.995 -1.1973 -0.8923 -0.9985
42363SOL    HW229097   3.208   4.208   7.887  1.7878 -3.5736  0.6345
42364SOL     OW29098   8.251   5.844   9.660  0.3588  0.0189 -0.0852
42364SOL    HW129099   8.255   5.939   9.649  0.5292 -0.0934 -1.0737
42364SOL    HW229100   8.161   5.821   9.636 -0.0622  0.0530  1.3436
42365SOL     OW29101   6.184   3.467   8.236 -0.2843  0.2369  0.5697
42365SOL    HW129102   6.123   3.450   8.165  0.8945  0.4406 -0.5263
42365SOL    HW229103   6.225   3.382   8.252 -0.5738  0.1828  1.0483
42366SOL     OW29104   7.818  10.671   9.549  0.2994 -0.5468  0.7964
42366SOL    HW129105   7.855  10.632   9.470  1.7548  0.6677  0.8325
42366SOL    HW229106   7.725  10.682   9.530  0.0295 -2.9194  0.3741
42367SOL     OW29107   0.313   4.626   8.965  0.3076  0.1113 -0.1030
42367SOL    HW129108   0.250   4.619   9.036 -0.6563  0.7162 -0.8764
42367SOL    HW229109   0.313   4.718   8.941 -1.1319 -0.4037 -2.4066
42368SOL     OW29110   6.499   9.688   2.553  0.3467 -0.0816 -0.3263
42368SOL    HW129111   6.421   9.665   2.603 -0.5342  3.6007  0.3070
42368SOL    HW229112   6.539   9.759   2.604  3.4927 -1.0260 -1.2603
42369SOL     OW29113   8.115   0.320   4.734  0.0139  0.2191 -0.1347
42369SOL    HW129114   8.194   0.373   4.731 -0.1574  0.5746  1.0896
42369SOL    HW229115   8.144   0.234   4.762  0.0320  0.2171 -0.1603
42370SOL     OW29116   6.086   2.420   1.873  0.3714 -0.0820  0.5262
42370SOL    HW129117   6.053   2.404   1.784  0.4780  1.4584  0.1831
42370SOL    HW229118   6.164   2.365   1.880 -0.4397 -1.3103  0.1946
42371SOL     OW29119   9.841   8.187   4.915 -0.2968 -0.1556  0.1745
42371SOL    HW129120   9.805   8.217   4.998 -1.6874  0.6446 -0.6801
42371SOL    HW229121   9.858   8.094   4.928 -3.2889 -0.7539  0.4670
42372SOL     OW29122  10.577   2.665  10.403 -0.0435  0.8818 -0.3114
42372SOL    HW129123  10.540   2.592  10.453  1.4438  1.9537  2.5984
42372SOL    HW229124  10.514   2.737  10.416 -0.4401  0.7457 -1.3829
42373SOL     OW29125   1.234  10.541   3.279  0.0643  0.4815 -0.0719
42373SOL    HW129126   1.255  10.565   3.189 -1.6065 -0.9884 -0.9223
42373SOL    HW229127   1.306  10.483   3.306  0.9463  1.5090 -0.1790
42374SOL     OW29128   7.284   6.136   6.096 -0.0396  0.2728 -0.5124
42374SOL    HW129129   7.343   6.196   6.142  1.4002 -0.7067 -1.0105
42374SOL    HW229130   7.226   6.194   6.046  0.2201  1.2776  0.3163
42375SOL     OW29131   3.218   7.709   1.631 -0.6137  0.3182  0.0524
42375SOL    HW129132   3.222   7.622   1.590  1.8919 -0.3064  1.4486
42375SOL    HW229133   3.165   7.695   1.710 -2.1987  0.6661 -0.8906
42376SOL     OW29134   5.437   3.706   9.881  0.1159 -0.7451  0.1699
42376SOL    HW129135   5.355   3.755   9.876 -0.7970 -2.1747  0.7720
42376SOL    HW229136   5.411   3.617   9.902  1.8685 -1.0793  1.1098
42377SOL     OW29137   7.554   1.986   6.830 -0.3323 -0.7564 -0.0654
42377SOL    HW129138   7.575   1.949   6.916  1.8975 -4.2805 -1.9124
42377SOL    HW229139   7.624   2.048   6.813 -1.0614  0.3514  0.7641
42378SOL     OW29140   2.986   0.250   2.264  0.7142 -0.3877 -0.4571
42378SOL    HW129141   3.004   0.344   2.263  0.1043 -0.2375  0.7145
42378SOL    HW229142   2.923   0.237   2.192  1.4560 -0.0666 -1.1870
42379SOL     OW29143   8.986  10.676   6.562 -0.0031  0.1665 -0.5301
42379SOL    HW129144   8.945  10.748   6.513 -0.2328 -0.1307 -0.7814
42379SOL    HW229145   9.050  10.639   6.501 -1.8306 -1.6396 -1.4872
42380SOL     OW29146   6.596   1.683   5.453 -0.2167  0.2961  0.0326
42380SOL    HW129147   6.633   1.609   5.404 -1.4442  0.3122 -0.9528
42380SOL    HW229148   6.670   1.743   5.466  0.6009 -0.6953  0.0967
42381SOL     OW29149   4.822   3.809   1.742 -0.2462 -0.4584 -0.1703
42381SOL    HW129150   4.908   3.816   1.783 -0.2499 -0.1595 -0.2101
42381SOL    HW229151   4.833   3.743   1.674 -0.1719 -0.7669  0.1392
42382SOL     OW29152   5.103   7.631   4.375 -0.1272  0.4733  0.4009
42382SOL    HW129153   5.186   7.611   4.418  0.0849  1.2840  0.3887
42382SOL    HW229154   5.067   7.705   4.425 -0.0405  1.2059 -0.5747
42383SOL     OW29155   6.950  10.769  10.303  0.5905  0.4328  0.3559
42383SOL    HW129156   6.912  10.722  10.229 -0.5806  2.7798 -0.6475
42383SOL    HW229157   7.045  10.765  10.288  0.4434 -0.4959 -0.3754
42384SOL     OW29158   2.117   7.797  10.692  0.0096 -0.3654 -0.0284
42384SOL    HW129159   2.180   7.847  10.744 -0.6704  1.5269 -0.9327
42384SOL    HW229160   2.067   7.747  10.757  0.7686  0.0701  0.9120
42385SOL     OW29161   9.544   9.767   9.750  0.4866 -0.1807 -0.3700
42385SOL    HW129162   9.561   9.736   9.661 -0.0965 -2.4085  0.2143
42385SOL    HW229163   9.527   9.860   9.741  1.3523 -0.1761 -2.4572
42386SOL     OW29164   6.881   1.389   1.461 -0.1565  0.1376  0.4394
42386SOL    HW129165   6.826   1.314   1.437  0.0596  0.3714 -0.9060
42386SOL    HW229166   6.850   1.460   1.405 -0.3612  1.0698  1.7037
42387SOL     OW29167   5.671   9.797   1.479  0.2509  0.1348  0.9545
42387SOL    HW129168   5.627   9.871   1.519 -1.9998 -0.2636 -0.5643
42387SOL    HW229169   5.656   9.724   1.540  0.6607  0.4638  1.4528
42388SOL     OW29170  10.013   7.132   2.926  0.1352  0.4770 -0.2604
42388SOL    HW129171  10.034   7.059   2.983  1.5966  1.0608 -0.0063
42388SOL    HW229172   9.993   7.092   2.841 -0.0849 -0.2708  0.1388
42389SOL     OW29173   2.015   0.001  10.293  0.7656  0.0837 -0.3035
42389SOL    HW129174   2.051  -0.044  10.369  0.6674  0.0794 -0.2601
42389SOL    HW229175   2.026   0.094  10.313  3.1500  0.1168 -1.3941
42390SOL     OW29176   2.771   9.225   9.929 -0.1801 -0.1981  0.3230
42390SOL    HW129177   2.676   9.210   9.936 -0.0742 -0.0379  4.6851
42390SOL    HW229178   2.803   9.149   9.881 -2.5316  0.3821 -2.5074
42391SOL     OW29179   4.788   8.699  10.709 -0.1933 -0.4165  0.1776
42391SOL    HW129180   4.864   8.748  10.678 -1.5030  1.5233 -0.1094
42391SOL    HW229181   4.816   8.607  10.706  1.4692  0.0946 -1.7705
42392SOL     OW29182   1.571  10.049   8.559 -0.3256  0.0628  0.7981
42392SOL    HW129183   1.640   9.985   8.573 -0.7619 -0.5208  0.3082
42392SOL    HW229184   1.553  10.045   8.466  0.3050  1.5916  0.5759
42393SOL     OW29185  10.992   5.143   8.458 -0.3728 -0.5384  0.2374
42393SOL    HW129186  10.994   5.118   8.550  0.8060 -1.5602 -0.0485
42393SOL    HW229187  10.993   5.060   8.410 -1.5716 -0.0443 -0.7137
42394SOL     OW29188  10.920   2.522  11.086  0.1887 -0.6018  0.4883
42394SOL    HW129189  10.884   2.472  11.013  3.1994  0.3088 -1.8093
42394SOL    HW229190  10.880   2.609  11.078 -0.1604 -0.7606  0.4952
42395SOL     OW29191   2.564   6.346   0.139  0.5296 -0.4374  0.4270
42395SOL    HW129192   2.522   6.423   0.176 -0.6263 -0.9182  0.1658
42395SOL    HW229193   2.593   6.295   0.214 -0.5288 -0.7213  0.6531
42396SOL     OW29194   0.468   8.929   5.791 -0.7204  0.6920  0.0578
42396SOL    HW129195   0.505   8.843   5.812 -2.6605 -0.5634 -1.2796
42396SOL    HW229196   0.511   8.954   5.709 -1.5172  0.0235 -0.5953
42397SOL     OW29197   4.578   8.078   7.883 -0.7301  0.6507 -0.2147
42397SOL    HW129198   4.643   8.012   7.908  0.4638  3.0801  4.0296
42397SOL    HW229199   4.501   8.057   7.935 -1.0895  1.3545 -0.4531
42398SOL     OW29200   2.300   3.907   6.482 -0.0887 -0.2101  0.1852
42398SOL    HW129201   2.370   3.880   6.423 -0.4145 -1.3207  0.2721
42398SOL    HW229202   2.234   3.948   6.426 -0.2171 -0.9005 -0.1801
42399SOL     OW29203   1.058   1.472   0.604  0.0837 -0.9978 -0.1126
42399SOL    HW129204   0.968   1.486   0.576  0.4231  2.1692  0.0442
42399SOL    HW229205   1.090   1.402   0.546 -1.0508  1.1330 -3.6124
42400SOL     OW29206   1.909   2.875   6.398  0.3420 -0.0503  0.1026
42400SOL    HW129207   1.832   2.831   6.362  0.9704 -0.4430 -0.7832
42400SOL    HW229208   1.940   2.932   6.327  1.1062 -0.2058  0.3014
42401SOL     OW29209   4.612  10.646   0.709 -0.6233  0.4261 -0.1622
42401SOL    HW129210   4.605  10.728   0.758  0.5096  1.0216 -0.9710
42401SOL    HW229211   4.522  10.613   0.705 -0.9600  1.1285  0.9870
42402SOL     OW29212   4.550   8.381   3.331 -0.6600 -0.2068 -0.3246
42402SOL    HW129213   4.526   8.463   3.375 -0.6300  0.6691 -1.8602
42402SOL    HW229214   4.640   8.395   3.302  0.3450 -1.8537  1.7163
42403SOL     OW29215   6.533   1.393   9.011  0.4543  0.0131 -0.2022
42403SOL    HW129216   6.548   1.425   8.922 -0.7988  0.5398 -0.2327
42403SOL    HW229217   6.569   1.461   9.068 -3.0607  2.1031 -0.2386
42404SOL     OW29218   7.770  10.404   8.154  0.8524 -0.1867  0.0976
42404SOL    HW129219   7.813  10.423   8.238 -0.5574  1.0498  0.5702
42404SOL    HW229220   7.681  10.437   8.165  0.1820 -1.4433 -1.3520
42405SOL     OW29221   7.578   9.090   9.729 -0.5332  0.1770 -0.4993
42405SOL    HW129222   7.665   9.090   9.768 -1.5974  0.7371  2.0549
42405SOL    HW229223   7.592   9.058   9.639  2.0447 -1.3942  0.3531
42406SOL     OW29224   4.449   1.093   5.062 -0.5554  0.0095  0.1678
42406SOL    HW129225   4.488   1.155   5.001 -0.3023 -2.3766 -2.2743
42406SOL    HW229226   4.414   1.147   5.133  0.4370  2.8084 -1.3503
42407SOL     OW29227   9.579   0.019  10.294  0.5987 -0.2727 -0.1450
42407SOL    HW129228   9.582   0.072  10.214  0.5915  1.7536  1.1286
42407SOL    HW229229   9.506   0.055  10.344 -0.7385 -2.8679 -0.0684
42408SOL     OW29230   1.546   8.293   2.192 -1.5588 -0.0409  0.4835
42408SOL    HW129231   1.631   8.319   2.158 -1.3205  1.0592  1.8589
42408SOL    HW229232   1.552   8.197   2.200 -0.8103 -0.0745 -0.3217
42409SOL     OW29233   1.616   6.274   5.160  0.3678  0.5422  0.5421
42409SOL    HW129234   1.685   6.333   5.131 -0.3081  0.1910 -1.9767
42409SOL    HW229235   1.554   6.331   5.206  2.3229  0.8330  3.0370
42410SOL     OW29236   4.781   2.564   5.510  0.0259  0.2598 -0.0685
42410SOL    HW129237   4.731   2.491   5.548  0.7901 -0.0331  0.3932
42410SOL    HW229238   4.847   2.522   5.456  0.9446  0.5705  0.7796
42411SOL     OW29239   8.620   6.998   6.561  0.0017  1.2968 -0.3710
42411SOL    HW129240   8.674   6.954   6.495  0.8692 -0.5051  1.4528
42411SOL    HW229241   8.680   7.062   6.602  0.1845  0.7047  0.2962
42412SOL     OW29242   3.709   7.242   8.727 -0.4015  0.5403  0.0198
42412SOL    HW129243   3.620   7.257   8.695 -0.5873  3.1045  1.4926
42412SOL    HW229244   3.726   7.149   8.708 -2.5158  0.5264 -2.2884
42413SOL     OW29245   9.617   2.914  10.996  0.8839 -0.1130  0.1504
42413SOL    HW129246   9.595   2.848  11.062  0.3784 -0.0575  0.0428
42413SOL    HW229247   9.690   2.876  10.947 -0.7381 -1.5637 -1.3028
42414SOL     OW29248   9.545   7.323  10.406 -0.3068  0.5653  0.5979
42414SOL    HW129249   9.542   7.395  10.469 -2.4622 -0.3856  1.7157
42414SOL    HW229250   9.564   7.246  10.459 -4.3297 -0.6224  0.6738
42415SOL     OW29251   4.615   2.511   4.131  0.2128 -0.1195 -1.3570
42415SOL    HW129252   4.649   2.449   4.067  0.4306  3.8124 -5.5364
42415SOL    HW229253   4.671   2.500   4.207 -0.0773 -5.1484 -1.5406
42416SOL     OW29254   9.639   3.283   1.853  0.3690 -0.2479 -0.4216
42416SOL    HW129255   9.549   3.260   1.833 -0.9530  1.3972  2.8985
42416SOL    HW229256   9.688   3.202   1.838 -2.1706 -2.0499  0.3679
42417SOL     OW29257   1.418   0.127   9.248  0.0767  0.1466 -0.2030
42417SOL    HW129258   1.348   0.134   9.184 -1.2029 -1.2586  0.9757
42417SOL    HW229259   1.377   0.150   9.332  0.6512 -1.8708  0.7013
42418SOL     OW29260   8.227   1.410  10.384 -0.3131  0.5364  0.0380
42418SOL    HW129261   8.312   1.379  10.416 -0.2054  1.8263  1.1330
42418SOL    HW229262   8.163   1.348  10.420  0.0547  0.3562  0.3896
42419SOL     OW29263   7.496  10.348   0.701  0.5542  0.0788  0.3159
42419SOL    HW129264   7.482  10.259   0.734 -0.3267  0.8092  2.0312
42419SOL    HW229265   7.484  10.341   0.606 -2.2657 -1.1765  0.6488
42420SOL     OW29266   0.239   9.237   2.968 -0.3362 -0.0940 -0.4527
42420SOL    HW129267   0.313   9.274   2.921 -0.6477  0.6382 -0.3841
42420SOL    HW229268   0.184   9.313   2.989  1.2998  0.1772  3.9167
42421SOL     OW29269   9.714  10.481   1.643  0.2454 -1.2443  0.4656
42421SOL    HW129270   9.663  10.558   1.668  1.2779 -0.4519  0.2140
42421SOL    HW229271   9.654  10.428   1.590 -0.3085 -0.3422  0.1748
42422SOL     OW29272   3.194   8.881   4.814  0.3137 -0.5919  0.3551
42422SOL    HW129273   3.186   8.888   4.909 -2.4011  4.7006  0.1066
42422SOL    HW229274   3.108   8.851   4.785  0.6167 -0.6841 -0.4871
42423SOL     OW29275   9.203   2.233   4.832 -0.4848  0.3495  0.3211
42423SOL    HW129276   9.204   2.328   4.819  2.0908  0.4433  0.5706
42423SOL    HW229277   9.199   2.197   4.743 -1.0388  0.6991  0.2006
42424SOL     OW29278   3.555   3.971   9.053 -0.2188 -0.7460  0.2664
42424SOL    HW129279   3.574   4.053   9.008 -0.0868 -1.1102 -0.3595
42424SOL    HW229280   3.641   3.936   9.076 -0.2997  0.5842  2.9915
42425SOL     OW29281   2.412   3.337   4.311  0.4850 -0.0047  0.0380
42425SOL    HW129282   2.402   3.420   4.358  1.2500 -1.4541  2.9921
42425SOL    HW229283   2.485   3.352   4.251  1.5351  1.1308  1.5075
42426SOL     OW29284   0.472   1.162   3.159  0.7208  1.1364  0.3489
42426SOL    HW129285   0.462   1.115   3.242  0.9229  0.8971  0.2356
42426SOL    HW229286   0.529   1.107   3.106  0.9246  1.4881  0.2009
42427SOL     OW29287   2.980  10.453   0.407 -0.4796 -0.0325  0.0314
42427SOL    HW129288   3.001  10.507   0.331 -3.2958  0.5026 -0.4630
42427SOL    HW229289   3.049  10.473   0.470  2.0678 -0.6527 -2.3596
42428SOL     OW29290  11.095   4.017   0.613  0.2130  0.6314 -0.4880
42428SOL    HW129291  11.036   3.951   0.576 -1.5312  1.4771  0.6220
42428SOL    HW229292  11.141   4.054   0.538  0.4819 -1.1008 -1.2316
42429SOL     OW29293   8.339  10.975   6.531  0.2137 -0.3311  0.2816
42429SOL    HW129294   8.415  10.949   6.480  1.4438  0.0342  1.8426
42429SOL    HW229295   8.337  11.070   6.526  1.1644 -0.1931  1.9720
42430SOL     OW29296   7.304   1.054   2.343  0.8306  0.0608 -0.1288
42430SOL    HW129297   7.272   1.141   2.320  1.1153 -0.3054 -2.0982
42430SOL    HW229298   7.226   1.006   2.371  0.0932  0.0345 -2.0853
42431SOL     OW29299   8.516   8.800   6.679  0.4409 -0.5795 -0.1343
42431SOL    HW129300   8.603   8.760   6.671  1.1010  0.9025 -0.5701
42431SOL    HW229301   8.510   8.826   6.771  0.6797 -0.1858 -0.2302
42432SOL     OW29302   4.073   4.565   2.476  0.9682  0.3819 -0.5590
42432SOL    HW129303   4.114   4.589   2.392  0.7662 -0.6838 -0.9854
42432SOL    HW229304   4.011   4.635   2.493 -0.1414 -0.1569 -2.1269
42433SOL     OW29305   3.895   5.840  10.973 -0.2024 -0.0169 -0.0503
42433SOL    HW129306   3.816   5.857  11.024 -0.1260 -0.7050  0.2978
42433SOL    HW229307   3.967   5.872  11.027 -0.2528  0.9756 -0.5323
42434SOL     OW29308   8.506   9.574   0.917 -0.8538 -0.1171 -0.2859
42434SOL    HW129309   8.573   9.576   0.985 -0.0797 -1.4963 -0.9566
42434SOL    HW229310   8.462   9.658   0.924  0.1832  0.3551  0.9440
42435SOL     OW29311  10.552   6.430   1.960 -0.8712  0.3351  0.9769
42435SOL    HW129312  10.627   6.375   1.941 -1.3115  0.4204 -1.3194
42435SOL    HW229313  10.505   6.384   2.030 -1.0842 -2.1327 -0.6652
42436SOL     OW29314   0.322   8.747   6.466  0.1064  0.1886  0.6308
42436SOL    HW129315   0.286   8.762   6.379  1.4992  0.7727  0.1123
42436SOL    HW229316   0.407   8.704   6.450 -0.1897 -0.8935  1.7688
42437SOL     OW29317  10.535  10.005   1.036  1.0965  0.1447 -0.5713
42437SOL    HW129318  10.555  10.098   1.026 -3.5178  1.5729  1.0624
42437SOL    HW229319  10.456   9.992   0.984  0.6616 -2.4393  0.5959
42438SOL     OW29320  10.476   9.111   1.887 -0.4006 -0.7015  0.1169
42438SOL    HW129321  10.402   9.081   1.939 -0.9720 -0.0438 -0.3027
42438SOL    HW229322  10.450   9.197   1.855  0.4607 -0.5503 -0.2117
42439SOL     OW29323   0.670   5.659  10.914  0.8458  0.0964 -0.2822
42439SOL    HW129324   0.601   5.668  10.980  0.3348  2.3699 -1.0433
42439SOL    HW229325   0.707   5.747  10.906  2.1144 -0.5274 -1.7503
42440SOL     OW29326   3.594   6.893   5.980  0.3925  0.2592  0.0060
42440SOL    HW129327   3.576   6.920   6.070  1.5365 -2.0644  1.0190
42440SOL    HW229328   3.509   6.897   5.936 -0.0912  1.9213  1.0300
42441SOL     OW29329   0.712  10.673   2.045  0.6044 -0.7074  0.5443
42441SOL    HW129330   0.699  10.626   1.963  0.8052 -1.5988  1.0095
42441SOL    HW229331   0.797  10.643   2.077 -0.0426 -1.3878  1.7254
42442SOL     OW29332   1.522   6.520   9.104  0.3078 -0.2660 -0.1136
42442SOL    HW129333   1.559   6.444   9.149 -0.4121 -1.0142 -0.7520
42442SOL    HW229334   1.548   6.510   9.013 -0.0668  0.0800 -0.2654
42443SOL     OW29335   0.206   2.366   7.317  0.5039  0.4477 -0.4186
42443SOL    HW129336   0.175   2.426   7.249 -0.5952  2.1853  1.5328
42443SOL    HW229337   0.300   2.362   7.304  0.3694  1.0901 -1.7595
42444SOL     OW29338   3.127   8.359   1.622  0.5167 -0.4633 -0.8506
42444SOL    HW129339   3.118   8.427   1.689 -2.1417 -0.1153 -1.4381
42444SOL    HW229340   3.179   8.401   1.553 -1.5308  1.2699 -1.4499
42445SOL     OW29341   4.080   2.434   6.514  0.1797 -0.0710 -0.1570
42445SOL    HW129342   4.125   2.515   6.540 -0.1066  0.6285 -1.6956
42445SOL    HW229343   3.988   2.452   6.531  0.1300 -0.1073 -0.3777
42446SOL     OW29344   2.735   3.951   4.820 -0.1803  0.2744  0.1814
42446SOL    HW129345   2.814   3.939   4.871 -1.0025 -1.0033  1.2110
42446SOL    HW229346   2.765   3.957   4.729  1.1217  0.3857  0.6051
42447SOL     OW29347   5.029   2.464   8.354  0.5548 -0.1039 -0.3057
42447SOL    HW129348   4.955   2.405   8.339 -2.7723  3.8687 -1.1953
42447SOL    HW229349   5.089   2.444   8.282  0.3407 -3.1723  0.1988
42448SOL     OW29350   1.637   7.364  10.291 -0.5082 -0.3383 -0.0651
42448SOL    HW129351   1.568   7.317  10.337 -1.0105  0.8510  0.4235
42448SOL    HW229352   1.694   7.397  10.360 -0.4470  0.1965 -0.3614
42449SOL     OW29353  10.439  10.113   7.541  0.4908  0.0006 -0.1918
42449SOL    HW129354  10.443  10.197   7.588 -0.4806  0.3121 -0.6537
42449SOL    HW229355  10.464  10.135   7.451  0.5356 -0.2668 -0.2458
42450SOL     OW29356   1.753   5.544   3.657 -0.2781 -0.1711  0.0624
42450SOL    HW129357   1.705   5.605   3.601  1.4811  0.8634 -0.4082
42450SOL    HW229358   1.844   5.573   3.652  0.6871 -2.9089 -0.2608
42451SOL     OW29359   8.680   0.436   3.204 -0.5790 -0.0833 -0.1983
42451SOL    HW129360   8.738   0.451   3.129  0.2700 -0.7981  0.3020
42451SOL    HW229361   8.679   0.341   3.216 -0.1424  0.0532  1.1163
42452SOL     OW29362   7.358   3.177   7.370 -0.1961 -0.0388 -0.0264
42452SOL    HW129363   7.399   3.177   7.283  0.0124 -0.8037  0.0626
42452SOL    HW229364   7.417   3.229   7.424  2.0457 -3.0201  0.6947
42453SOL     OW29365   9.178   0.190   0.142 -0.2517  0.3662  0.4632
42453SOL    HW129366   9.215   0.102   0.137 -0.9787 -0.0151  1.4714
42453SOL    HW229367   9.176   0.210   0.235  1.0161  1.9580  0.1946
42454SOL     OW29368   7.107  10.211   5.159 -0.0942 -0.4318  0.3593
42454SOL    HW129369   7.118  10.176   5.248 -1.5544 -1.5496  0.1336
42454SOL    HW229370   7.045  10.152   5.118 -1.7825  1.7700 -0.4385
42455SOL     OW29371   4.042   5.994   4.688 -0.6085 -0.5015  0.2244
42455SOL    HW129372   4.129   5.977   4.652 -0.2903  0.4233  0.5295
42455SOL    HW229373   3.994   5.912   4.676 -0.3741 -0.3887 -1.8840
42456SOL     OW29374   2.831   2.380   1.106  0.2440  0.2020  0.0311
42456SOL    HW129375   2.855   2.432   1.030 -0.6441  1.4027  0.5444
42456SOL    HW229376   2.815   2.444   1.175 -4.9285 -0.2760 -0.3302
42457SOL     OW29377   6.637   1.198   3.869  0.5745 -0.3285 -0.0325
42457SOL    HW129378   6.702   1.229   3.932  0.2209  3.0273 -1.0761
42457SOL    HW229379   6.589   1.130   3.914  1.0171  1.1967  2.9703
42458SOL     OW29380   4.145   1.244   9.728 -0.1463 -1.0842  0.3591
42458SOL    HW129381   4.082   1.240   9.656  0.1754  1.1003 -0.1053
42458SOL    HW229382   4.096   1.283   9.800  0.4974  0.1565  0.1483
42459SOL     OW29383   5.418   5.651   9.041 -0.7213  0.1465  0.6785
42459SOL    HW129384   5.403   5.624   8.950 -0.4602  2.0873  0.0042
42459SOL    HW229385   5.428   5.569   9.089 -2.1618 -0.9652 -0.7970
42460SOL     OW29386   1.261  10.775  10.108  0.0241  0.0801 -0.4456
42460SOL    HW129387   1.247  10.839  10.038 -0.2763  0.7849  0.2387
42460SOL    HW229388   1.235  10.821  10.188 -1.4229 -1.2977 -0.0535
42461SOL     OW29389   4.677   3.541   8.548 -0.4589 -0.2049  0.8536
42461SOL    HW129390   4.647   3.470   8.604 -3.3346  0.6668  0.5873
42461SOL    HW229391   4.731   3.498   8.482 -4.0570 -2.7447 -0.8234
42462SOL     OW29392   5.596   6.306   4.470  0.4372 -0.2911  0.0769
42462SOL    HW129393   5.571   6.374   4.407 -2.1758 -0.9608  0.2509
42462SOL    HW229394   5.613   6.228   4.416  0.6219 -0.2269  0.0439
42463SOL     OW29395   2.327   9.488   9.653 -0.1751 -0.1601  0.4632
42463SOL    HW129396   2.367   9.520   9.733  0.3677 -2.0799  1.0013
42463SOL    HW229397   2.280   9.564   9.617 -1.6484  0.3970  3.3154
42464SOL     OW29398   5.700   5.673   1.338  0.3995  0.0570  0.1714
42464SOL    HW129399   5.649   5.739   1.293  0.7700  0.1487 -0.1193
42464SOL    HW229400   5.644   5.644   1.411 -0.8706 -1.2319 -1.2422
42465SOL     OW29401  10.552   4.612   5.581 -0.5018 -0.2088  0.1544
42465SOL    HW129402  10.610   4.633   5.507 -0.6700  0.5339  0.2211
42465SOL    HW229403  10.474   4.575   5.541 -0.8728  0.8218 -0.1013
42466SOL     OW29404   5.591   1.178   5.571  0.5903  0.4603  0.2790
42466SOL    HW129405   5.581   1.203   5.663  1.9241  1.5484  0.1595
42466SOL    HW229406   5.684   1.161   5.560  0.0691 -2.8270 -0.1605
42467SOL     OW29407   6.406   7.447   2.731 -0.3160  0.0394  0.3828
42467SOL    HW129408   6.472   7.385   2.700  2.7117  3.0533  0.2953
42467SOL    HW229409   6.371   7.487   2.652  0.0750  0.6739  0.5285
42468SOL     OW29410   1.752   8.874   0.586 -0.0692 -0.0839 -0.8460
42468SOL    HW129411   1.844   8.891   0.568 -0.4147  0.4539 -2.1905
42468SOL    HW229412   1.709   8.958   0.572 -0.5981  0.0363  1.1868
42469SOL     OW29413   3.536   9.345   1.920 -0.4193  0.1130  0.4725
42469SOL    HW129414   3.478   9.283   1.965 -1.5259  1.7410  1.4375
42469SOL    HW229415   3.620   9.337   1.966 -1.2656  1.0744  2.3089
42470SOL     OW29416   7.024  10.612  10.074 -0.5703 -0.5171 -0.0087
42470SOL    HW129417   6.979  10.657  10.003  1.5039  1.4686 -0.1884
42470SOL    HW229418   7.111  10.654  10.078 -0.1745 -1.3714  2.8878
42471SOL     OW29419   2.016   2.765   5.419  0.1682 -0.6259 -0.1005
42471SOL    HW129420   2.038   2.769   5.512 -0.6472  0.3593  0.0671
42471SOL    HW229421   2.077   2.701   5.383  2.2942  0.8857  0.6036
42472SOL     OW29422   6.816   9.939   2.272  0.2526 -0.0461 -0.1724
42472SOL    HW129423   6.856  10.009   2.324  0.7460 -1.4398  1.3758
42472SOL    HW229424   6.723   9.943   2.293  0.2910  0.0885 -0.0292
42473SOL     OW29425   5.242   0.580   5.807 -0.2448 -0.0448 -0.6102
42473SOL    HW129426   5.237   0.664   5.851 -1.3367  0.1600 -1.1097
42473SOL    HW229427   5.220   0.516   5.875  2.9443 -0.2023  0.4403
42474SOL     OW29428   3.199   8.766   5.092  0.1697 -0.5068 -0.5070
42474SOL    HW129429   3.247   8.737   5.170  0.6348 -1.3466 -1.0861
42474SOL    HW229430   3.203   8.861   5.096 -0.9800 -0.4758  1.2055
42475SOL     OW29431   1.967   7.443   1.897  0.1402  0.3468 -0.2883
42475SOL    HW129432   1.898   7.406   1.842 -3.7044  1.8068  3.0682
42475SOL    HW229433   1.995   7.371   1.953 -2.0453  0.6304  1.3037
42476SOL     OW29434   8.068   0.234   6.606 -0.2007 -0.3861 -0.1998
42476SOL    HW129435   8.124   0.312   6.612  1.2018 -1.2076 -1.8018
42476SOL    HW229436   8.057   0.206   6.697 -1.9614  2.4407  0.6002
42477SOL     OW29437   8.719   5.554   8.240 -0.5702  0.8521 -0.1247
42477SOL    HW129438   8.777   5.558   8.316 -2.5882 -0.8335  1.6254
42477SOL    HW229439   8.770   5.594   8.170  2.2331  0.5717  1.5647
42478SOL     OW29440   7.644  10.705   4.236 -0.2701 -0.7628 -0.1993
42478SOL    HW129441   7.729  10.691   4.277  0.5327 -1.6231 -2.0416
42478SOL    HW229442   7.653  10.789   4.190 -1.0308  0.0006  0.9818
42479SOL     OW29443   4.896   1.250   4.234 -0.6702  0.1794  0.2318
42479SOL    HW129444   4.809   1.259   4.272  0.2234  1.2526  2.1299
42479SOL    HW229445   4.881   1.259   4.139 -2.6695 -0.2650  0.4563
42480SOL     OW29446   7.106   9.406   2.742 -0.4644  0.1992  0.3180
42480SOL    HW129447   7.068   9.486   2.706 -0.6439 -0.1532 -0.3057
42480SOL    HW229448   7.182   9.389   2.687  0.6560  0.9292  1.6022
42481SOL     OW29449   0.822   4.537   9.955 -0.5253  0.0655 -0.1772
42481SOL    HW129450   0.864   4.612   9.912 -0.8152  0.9762  1.0584
42481SOL    HW229451   0.759   4.577  10.014 -2.6821 -1.2436 -1.4647
42482SOL     OW29452   5.602   0.758   6.552  0.5459  0.1798  0.8433
42482SOL    HW129453   5.611   0.852   6.533  1.4528 -0.3059 -1.5653
42482SOL    HW229454   5.520   0.733   6.508  1.4313 -0.5330 -0.4688
42483SOL     OW29455   5.190   0.859  10.371 -0.5540 -0.1190 -0.0527
42483SOL    HW129456   5.254   0.914  10.324 -1.9924  2.3723  0.7166
42483SOL    HW229457   5.234   0.836  10.452 -0.1184  0.4070 -0.1264
42484SOL     OW29458   5.754  10.374   9.736 -0.0929  0.1673  0.4061
42484SOL    HW129459   5.725  10.424   9.660 -0.9298 -3.1103 -1.6339
42484SOL    HW229460   5.700  10.408   9.808 -1.8448  1.0423 -1.2061
42485SOL     OW29461   1.777   8.250  10.505 -0.4626 -0.1504  0.4979
42485SOL    HW129462   1.836   8.210  10.569 -1.0367 -0.2953  0.9449
42485SOL    HW229463   1.737   8.175  10.460  2.5391 -0.1538 -2.5671
42486SOL     OW29464   8.833   9.779   2.572  0.2042  0.5691  0.6011
42486SOL    HW129465   8.873   9.846   2.516 -0.9241 -0.0018 -0.9786
42486SOL    HW229466   8.797   9.827   2.646  1.5644  1.3883  0.7506
42487SOL     OW29467   7.564  11.037   6.952 -0.2580  0.1877  0.2763
42487SOL    HW129468   7.570  10.975   6.879  0.0985  1.2675 -0.6418
42487SOL    HW229469   7.633  11.101   6.934 -1.1452  1.3014  0.7691
42488SOL     OW29470   5.723   8.119   5.426  0.0216 -0.3790  0.2187
42488SOL    HW129471   5.731   8.028   5.397 -0.0550 -0.5469  0.7034
42488SOL    HW229472   5.635   8.123   5.464  0.0005 -0.0848  0.1356
42489SOL     OW29473   4.806   2.051   1.187 -0.5663 -0.6387  0.4209
42489SOL    HW129474   4.863   1.976   1.205  0.4235 -0.7976 -2.7312
42489SOL    HW229475   4.769   2.032   1.101  0.4732  2.8566 -0.9686
42490SOL     OW29476   3.446   1.276   5.812 -0.5069  0.4961  0.1417
42490SOL    HW129477   3.455   1.255   5.905 -0.9797 -0.7547 -0.0729
42490SOL    HW229478   3.474   1.367   5.805 -0.0855  0.4881  1.4436
42491SOL     OW29479   7.565   1.911   9.122  0.3093 -0.5175  0.2792
42491SOL    HW129480   7.473   1.886   9.130  0.4335 -1.4034 -0.7437
42491SOL    HW229481   7.607   1.832   9.088  1.2464  0.2427 -0.3432
42492SOL     OW29482   6.335   1.370   6.478  1.0215 -0.0809 -0.0083
42492SOL    HW129483   6.273   1.412   6.420  0.8810 -0.3483 -0.0557
42492SOL    HW229484   6.420   1.381   6.435  0.8488 -0.7569 -0.5518
42493SOL     OW29485  10.529   6.330   2.460 -0.0416 -0.1446  0.9332
42493SOL    HW129486  10.566   6.390   2.525  0.1266  0.1304  0.5883
42493SOL    HW229487  10.561   6.364   2.376 -0.2483 -0.5036  0.7103
42494SOL     OW29488   8.369  10.208  10.718 -0.3928  0.1041 -0.1749
42494SOL    HW129489   8.296  10.188  10.777 -0.2627  3.1999  1.2339
42494SOL    HW229490   8.330  10.258  10.647 -0.0920 -1.1631 -1.2764
42495SOL     OW29491   2.299   6.981   4.822 -0.0788 -0.5422 -0.0715
42495SOL    HW129492   2.367   6.932   4.777  0.7137  1.4957 -1.2024
42495SOL    HW229493   2.344   7.026   4.893 -0.5672 -0.4889  0.2123
42496SOL     OW29494   2.911   5.334   3.229 -0.0242 -0.4309 -0.7946
42496SOL    HW129495   2.872   5.378   3.153 -2.2218 -0.0136  0.4899
42496SOL    HW229496   3.000   5.313   3.201  0.2281  2.3176 -2.4629
42497SOL     OW29497  10.225   7.300   1.968 -0.3338  0.6363 -1.0383
42497SOL    HW129498  10.288   7.236   1.937  1.0713  0.4989  1.7912
42497SOL    HW229499  10.140   7.258   1.954  0.3919 -0.6724 -1.7371
42498SOL     OW29500  10.149   7.813   8.334 -0.0436  0.8175  0.3202
42498SOL    HW129501  10.156   7.870   8.411 -0.0549 -1.1106  1.8380
42498SOL    HW229502  10.178   7.727   8.366 -2.5336 -0.6668 -1.1169
42499SOL     OW29503   2.549   6.068   2.712  0.2791 -0.1117 -0.4729
42499SOL    HW129504   2.527   6.126   2.785 -1.4287 -0.2918 -0.8003
42499SOL    HW229505   2.598   5.996   2.752  0.7869  0.5983  0.2212
42500SOL     OW29506   4.093   4.311   7.393  0.3099  0.5727 -0.4958
42500SOL    HW129507   4.031   4.343   7.328  0.4193  1.0028 -0.3930
42500SOL    HW229508   4.055   4.230   7.426  0.6948 -0.1507 -1.7567
42501SOL     OW29509  10.085   4.794   1.597  0.3227 -0.1211  0.1758
42501SOL    HW129510   9.990   4.794   1.600  0.2701 -0.6935 -0.9472
42501SOL    HW229511  10.112   4.815   1.686 -0.8515  1.1844  0.2536
42502SOL     OW29512   1.511   8.462   3.547 -0.0504 -0.6747 -0.7957
42502SOL    HW129513   1.557   8.543   3.570 -0.0064 -0.9560  0.1498
42502SOL    HW229514   1.572   8.392   3.572  0.3491 -1.0083 -2.5418
42503SOL     OW29515   2.472   9.549   4.058 -0.5573  0.0375  0.0352
42503SOL    HW129516   2.395   9.603   4.044 -0.3676  0.8428  1.8650
42503SOL    HW229517   2.514   9.544   3.972 -1.5277  1.3233 -0.5403
42504SOL     OW29518   5.464   8.769  10.932  0.2212 -0.0240  0.0390
42504SOL    HW129519   5.433   8.859  10.926 -0.0000  0.2062  3.2116
42504SOL    HW229520   5.392   8.716  10.895  0.2252  1.0166 -1.5533
42505SOL     OW29521   8.221   5.050   1.450 -0.0456  0.1444  0.2207
42505SOL    HW129522   8.251   5.059   1.359 -1.7889  0.9821 -0.3199
42505SOL    HW229523   8.297   5.016   1.497  0.6331 -1.2624 -1.7288
42506SOL     OW29524  10.716   1.360   0.133 -0.1596 -0.8510 -0.4927
42506SOL    HW129525  10.749   1.274   0.108  2.6547 -0.1347  0.3834
42506SOL    HW229526  10.769   1.422   0.083 -0.7220  0.4012  0.4086
42507SOL     OW29527   8.401   1.351   1.927  0.2550  0.7375  0.3327
42507SOL    HW129528   8.494   1.368   1.941  0.6982 -1.9851  1.3202
42507SOL    HW229529   8.395   1.327   1.834  1.1225 -1.7566  0.8378
42508SOL     OW29530  10.253   0.496   3.231  0.2547 -0.3856  0.1476
42508SOL    HW129531  10.341   0.501   3.268  0.2175 -0.3759  0.2342
42508SOL    HW229532  10.242   0.579   3.184  0.2766 -0.3701  0.1701
42509SOL     OW29533   1.257   5.581  10.661 -0.2959  0.1174  0.4042
42509SOL    HW129534   1.311   5.660  10.654 -1.6406  1.3941  2.9404
42509SOL    HW229535   1.206   5.579  10.581  2.7935 -0.6978 -1.7345
42510SOL     OW29536   0.064   4.236   5.990  0.2533 -0.2231 -0.0550
42510SOL    HW129537   0.065   4.141   5.983 -2.4188 -0.2709 -0.8804
42510SOL    HW229538   0.041   4.253   6.081  0.8056 -0.3572  0.1113
42511SOL     OW29539   4.942   8.101   6.452  0.7436  0.6081 -0.5799
42511SOL    HW129540   4.888   8.103   6.373  0.4977  1.0472 -0.4001
42511SOL    HW229541   5.021   8.056   6.425 -0.5862 -2.1143 -0.3078
42512SOL     OW29542   0.119   9.342   1.782 -0.2835 -0.4957  0.8356
42512SOL    HW129543   0.089   9.271   1.838 -0.8280  0.1109  1.3259
42512SOL    HW229544   0.048   9.406   1.785  0.3546  0.2261  0.6817
42513SOL     OW29545   8.897   5.769   5.138  0.6833 -0.1945  0.1242
42513SOL    HW129546   8.984   5.747   5.104  1.0307 -0.6011  1.2395
42513SOL    HW229547   8.838   5.707   5.095  1.0379 -0.3598 -0.1271
42514SOL     OW29548  10.005   3.554   6.649 -0.4040  0.4096 -0.0526
42514SOL    HW129549   9.983   3.531   6.739 -5.5477  2.6080 -0.4526
42514SOL    HW229550   9.994   3.473   6.599  1.2668 -0.5233  1.0050
42515SOL     OW29551   1.275  10.157   2.494 -0.3324 -0.0351  0.3064
42515SOL    HW129552   1.332  10.224   2.530 -0.8062  0.4995  0.0748
42515SOL    HW229553   1.226  10.202   2.425  1.5600 -1.3200 -2.0679
42516SOL     OW29554   7.780   0.359   5.753 -0.3796 -0.2569  0.0321
42516SOL    HW129555   7.732   0.345   5.672  0.6184  0.6178 -0.7458
42516SOL    HW229556   7.851   0.295   5.751 -1.6369 -1.7742  1.3388
42517SOL     OW29557   5.351  10.503   1.741 -0.0065  0.3575 -0.2719
42517SOL    HW129558   5.262  10.497   1.706  0.2383 -2.2116 -0.6177
42517SOL    HW229559   5.404  10.449   1.682  1.3051 -0.1970  1.3364
42518SOL     OW29560   6.054   0.769   1.875  0.8527 -0.4489 -0.8639
42518SOL    HW129561   6.017   0.854   1.851  3.4120  2.1045  3.2114
42518SOL    HW229562   6.142   0.769   1.837  2.5722  0.9281  2.7152
42519SOL     OW29563   5.273   0.155   2.951  0.1293  0.2046 -0.0133
42519SOL    HW129564   5.187   0.172   2.990  0.9785  1.5504  1.4072
42519SOL    HW229565   5.327   0.228   2.980  1.9094 -0.8867 -0.4084
42520SOL     OW29566   5.512   6.505   9.952 -0.9018  0.9179  0.1321
42520SOL    HW129567   5.511   6.512   9.857 -0.1203 -2.1362 -0.2057
42520SOL    HW229568   5.436   6.556   9.981 -2.5364  0.0462 -2.3020
42521SOL     OW29569   4.691   1.435   3.326 -0.3551 -0.3222 -0.0043
42521SOL    HW129570   4.780   1.453   3.294 -0.3811 -1.3383 -0.6881
42521SOL    HW229571   4.703   1.382   3.405 -0.3368  0.5456  0.5864
42522SOL     OW29572  10.005   2.490   8.822  0.6055 -0.0093 -0.5171
42522SOL    HW129573  10.029   2.414   8.876 -0.5540 -0.9103 -1.2231
42522SOL    HW229574   9.910   2.492   8.826  0.5926  0.8724 -1.2567
42523SOL     OW29575   1.701   4.226   1.795  0.0106 -0.0989 -0.2231
42523SOL    HW129576   1.709   4.155   1.732  0.2627 -0.8955  0.6741
42523SOL    HW229577   1.627   4.200   1.851 -1.4583  1.5174 -1.3193
42524SOL     OW29578   1.360   3.879   6.881 -0.6835 -0.2709  0.0114
42524SOL    HW129579   1.401   3.952   6.927  0.7242 -1.5889  0.9333
42524SOL    HW229580   1.419   3.861   6.808 -1.1022 -0.4076 -0.2956
42525SOL     OW29581   5.546  10.471   5.038 -0.5367 -0.4937  0.3877
42525SOL    HW129582   5.576  10.386   5.068 -2.7047 -1.9990 -1.3822
42525SOL    HW229583   5.626  10.516   5.009  0.4105 -3.3435 -1.9512
42526SOL     OW29584  10.095   2.776   6.671  0.1845 -0.4346  0.1977
42526SOL    HW129585  10.006   2.741   6.682  0.6667 -2.5018 -1.7795
42526SOL    HW229586  10.081   2.866   6.640 -1.3049 -1.1733 -1.4693
42527SOL     OW29587   2.296   5.662   4.646  0.0542  0.4124  0.0490
42527SOL    HW129588   2.226   5.700   4.592 -0.6066 -1.6197 -0.6170
42527SOL    HW229589   2.363   5.637   4.583 -0.7791 -2.1022  0.0595
42528SOL     OW29590  10.907   7.536   7.941 -0.2250 -0.6820 -0.3170
42528SOL    HW129591  10.848   7.555   8.014 -0.0025  1.7740 -0.6963
42528SOL    HW229592  10.849   7.500   7.873 -1.2737  1.2356 -0.5103
42529SOL     OW29593   1.847   6.457  10.650  0.3276 -0.2251  0.0074
42529SOL    HW129594   1.896   6.517  10.705  1.3509 -1.3856  0.3908
42529SOL    HW229595   1.869   6.483  10.560 -0.9944  1.3746  0.0848
42530SOL     OW29596   3.866  10.994   4.375  0.4319  0.6448 -0.2648
42530SOL    HW129597   3.779  10.983   4.413  0.2907  0.2715 -0.6924
42530SOL    HW229598   3.911  10.911   4.392  1.0688  1.2059  0.8739
42531SOL     OW29599   5.337   8.966   0.846  0.0003  0.0928  0.1258
42531SOL    HW129600   5.328   9.040   0.906  0.6970 -0.2943  0.7202
42531SOL    HW229601   5.393   8.998   0.775  0.4586  0.0851  0.4804
42532SOL     OW29602   7.911   4.288   1.073  0.9068  0.2098  0.0790
42532SOL    HW129603   7.951   4.307   0.989 -4.0413  0.4661 -2.5870
42532SOL    HW229604   7.891   4.373   1.111  0.2817  0.1329 -0.0692
42533SOL     OW29605   9.469   8.890   5.208  0.3912  0.0973  0.3928
42533SOL    HW129606   9.511   8.810   5.239  0.9401  0.4646  0.6333
42533SOL    HW229607   9.470   8.948   5.285  0.9198  0.6903 -0.0495
42534SOL     OW29608   1.609   8.740   8.478  0.2270  0.2342 -0.5270
42534SOL    HW129609   1.687   8.779   8.517 -1.4652 -0.3970  4.0143
42534SOL    HW229610   1.536   8.781   8.524 -2.0132 -1.6457 -2.1810
42535SOL     OW29611   8.989   9.704  10.458 -0.2466 -0.1358  0.4732
42535SOL    HW129612   9.034   9.621  10.441 -1.2738 -0.6878  0.3924
42535SOL    HW229613   8.900   9.679  10.480 -1.5896  1.0675 -2.9053
42536SOL     OW29614   2.129   1.929   4.754 -0.6272 -0.4202 -0.7412
42536SOL    HW129615   2.175   1.909   4.672  0.4134  0.6886 -0.4690
42536SOL    HW229616   2.153   1.857   4.813  0.7021  0.0698 -0.6479
42537SOL     OW29617   9.425   2.737   3.307 -0.7179  0.2548  0.0667
42537SOL    HW129618   9.466   2.729   3.221  0.2778 -0.5640  0.6069
42537SOL    HW229619   9.414   2.647   3.338  1.4174  0.5298  1.9214
42538SOL     OW29620   5.868   2.535   9.641 -0.2213 -0.7955  0.6264
42538SOL    HW129621   5.872   2.472   9.713 -0.3687  0.3957  1.7260
42538SOL    HW229622   5.888   2.619   9.683  2.2918 -0.3848 -1.1694
42539SOL     OW29623   9.794   2.323  10.766  0.1420 -0.0021 -0.1804
42539SOL    HW129624   9.750   2.381  10.704 -0.3569 -0.7458 -0.5403
42539SOL    HW229625   9.726   2.261  10.794  1.0082 -1.3867 -1.0016
42540SOL     OW29626   5.848   9.586   3.419  0.2581 -0.4058 -0.3748
42540SOL    HW129627   5.827   9.494   3.400 -0.6055 -0.4231  0.5555
42540SOL    HW229628   5.762   9.628   3.431  0.6548  0.4452 -0.4557
42541SOL     OW29629   1.959   8.603   9.674 -0.4284  0.1156 -0.1163
42541SOL    HW129630   1.893   8.660   9.714 -2.3992 -1.9709 -0.1821
42541SOL    HW229631   1.938   8.605   9.580  0.3948  0.3439 -0.3086
42542SOL     OW29632   4.114   8.025   4.030 -0.4470 -0.7976 -0.1988
42542SOL    HW129633   4.019   8.035   4.040 -0.6887 -0.0015 -2.7303
42542SOL    HW229634   4.131   7.933   4.049 -2.3285 -1.9187 -3.3090
42543SOL     OW29635   7.198   5.409   7.603  0.4683 -0.2139  0.2069
42543SOL    HW129636   7.138   5.403   7.529  2.2103 -0.9294 -1.2206
42543SOL    HW229637   7.183   5.329   7.653 -0.5457  0.1569  0.5152
42544SOL     OW29638  10.936   7.530   0.708  0.3397 -0.2416 -0.5403
42544SOL    HW129639  10.841   7.537   0.721  0.4884 -0.3293  0.7764
42544SOL    HW229640  10.953   7.436   0.706  0.2554 -0.2381 -2.0976
42545SOL     OW29641   7.318  10.956   0.815  0.0876  0.5554 -0.2487
42545SOL    HW129642   7.251  10.922   0.875  2.1252 -3.4438  0.1420
42545SOL    HW229643   7.391  10.981   0.872  0.1087  1.9107 -0.8394
42546SOL     OW29644   2.405   5.321  11.094  0.4169  0.4108  0.1631
42546SOL    HW129645   2.476   5.354  11.150  1.1145  1.8561 -1.4680
42546SOL    HW229646   2.394   5.389  11.027 -0.2396 -1.3104 -1.5745
42547SOL     OW29647   4.569   2.351   2.434  0.4157 -0.1711 -0.3778
42547SOL    HW129648   4.641   2.333   2.495 -0.0914  0.9666  0.6135
42547SOL    HW229649   4.512   2.274   2.442  1.6121 -1.2105 -1.3781
42548SOL     OW29650   4.279   9.472   2.945 -0.2078  0.2482 -0.1266
42548SOL    HW129651   4.261   9.391   2.899 -1.0723  0.0457  0.5243
42548SOL    HW229652   4.346   9.516   2.893 -0.2267 -0.5623 -0.8505
42549SOL     OW29653   5.933  10.772   7.486  0.0329 -0.2894 -0.1818
42549SOL    HW129654   6.007  10.755   7.428  1.4257 -0.3226  1.5388
42549SOL    HW229655   5.892  10.687   7.498  1.3998 -0.8182  1.0227
42550SOL     OW29656   0.582   1.707   0.938 -0.0028  1.3452 -0.5501
42550SOL    HW129657   0.572   1.801   0.955 -0.8258  1.1330  0.2384
42550SOL    HW229658   0.507   1.684   0.884 -0.9247  0.7705  0.9248
42551SOL     OW29659   1.148   0.113   6.973  0.1762  0.0759 -0.1573
42551SOL    HW129660   1.099   0.143   7.049  0.2553 -0.2296  0.0169
42551SOL    HW229661   1.183   0.028   6.999 -2.0898 -1.3614 -1.4828
42552SOL     OW29662   0.480   2.822   6.447  0.2480  0.7685  0.0263
42552SOL    HW129663   0.537   2.874   6.390 -1.2555  2.4717 -0.0225
42552SOL    HW229664   0.475   2.737   6.404  2.5696  0.6054 -0.0478
42553SOL     OW29665   3.809   9.602   8.045  0.1405  0.5416  0.0004
42553SOL    HW129666   3.728   9.551   8.039 -1.1796  2.1043  2.5267
42553SOL    HW229667   3.816   9.646   7.960 -1.0181 -0.4817 -0.6663
42554SOL     OW29668   2.501   9.733   8.717 -0.4130 -0.0192 -0.4520
42554SOL    HW129669   2.532   9.806   8.772 -0.1083 -0.2787 -0.2799
42554SOL    HW229670   2.568   9.666   8.726 -1.4890 -0.9803  0.7074
42555SOL     OW29671  10.621   7.339   0.168 -0.0679 -0.2579  0.0923
42555SOL    HW129672  10.610   7.335   0.073 -0.1212 -1.7762  0.1323
42555SOL    HW229673  10.695   7.281   0.186  1.8210  2.2097  0.7472
42556SOL     OW29674   3.640   2.815   0.689 -0.0881 -0.0607 -0.0875
42556SOL    HW129675   3.708   2.806   0.755  2.4025  0.0406 -2.4430
42556SOL    HW229676   3.605   2.903   0.701  0.1894 -0.1007  1.1461
42557SOL     OW29677  10.056   5.623  10.358  0.2955 -0.8239 -0.5475
42557SOL    HW129678  10.007   5.557  10.407  0.3347  0.9767  2.1157
42557SOL    HW229679   9.990   5.671  10.308 -0.3283 -0.3249  0.7012
42558SOL     OW29680  10.899   2.680   4.218 -0.3964  0.3031  0.3896
42558SOL    HW129681  10.935   2.650   4.134 -0.2617  0.9018  0.2287
42558SOL    HW229682  10.860   2.602   4.257  2.3272 -0.7445  1.2286
42559SOL     OW29683   7.658   7.536   6.261  0.4737 -0.7536  0.5916
42559SOL    HW129684   7.616   7.482   6.328  1.0629 -1.7527  0.1888
42559SOL    HW229685   7.627   7.624   6.278  1.2569 -0.8332  2.7209
42560SOL     OW29686   5.036   2.328   4.212 -0.4033  0.5114 -0.2494
42560SOL    HW129687   5.081   2.409   4.190 -2.3951  1.4488 -1.0857
42560SOL    HW229688   5.062   2.266   4.144  1.5278  0.2241  0.6796
42561SOL     OW29689   9.658   5.649   8.301  0.3492 -0.6436  0.3210
42561SOL    HW129690   9.606   5.578   8.340  0.7699 -0.4880  1.2005
42561SOL    HW229691   9.749   5.620   8.310  0.5671  0.2580  1.2765
42562SOL     OW29692   2.418   9.307  10.854 -0.5511  0.3319 -0.0861
42562SOL    HW129693   2.442   9.311  10.947 -0.1768  0.2448 -0.1776
42562SOL    HW229694   2.442   9.219  10.827  0.8799  0.8764 -0.6749
42563SOL     OW29695   9.316   7.950   0.724  0.4476  0.2087  0.0355
42563SOL    HW129696   9.320   7.892   0.799  0.1893 -0.7350 -0.6708
42563SOL    HW229697   9.312   7.892   0.648  0.5177  1.1421 -0.7037
42564SOL     OW29698   4.842   0.646  10.558 -0.0771  0.1290 -0.4725
42564SOL    HW129699   4.799   0.581  10.502  0.0880 -1.7168  1.4402
42564SOL    HW229700   4.928   0.659  10.517 -0.5691  0.0768 -1.5573
42565SOL     OW29701   9.219   1.122   9.088  0.5977 -0.0086  0.2205
42565SOL    HW129702   9.269   1.118   9.007  0.2674 -0.2173  0.0246
42565SOL    HW229703   9.153   1.054   9.079 -0.1629  0.7141  0.1838
42566SOL     OW29704   4.045  10.835   3.238 -0.2760 -0.1380 -0.2225
42566SOL    HW129705   4.006  10.781   3.307 -1.3105 -2.0489 -2.1569
42566SOL    HW229706   4.050  10.922   3.276 -0.7256 -1.1090  2.2706
42567SOL     OW29707   6.940   2.677   2.744  0.2361 -0.2064  0.0043
42567SOL    HW129708   6.854   2.719   2.749 -0.4052 -0.9655 -2.8393
42567SOL    HW229709   6.994   2.727   2.805 -1.3822  2.4196 -0.5381
42568SOL     OW29710   7.904  11.063   6.898 -0.0275  0.3800  0.6097
42568SOL    HW129711   7.878  11.126   6.831 -0.5158  0.8830  1.2611
42568SOL    HW229712   7.977  11.014   6.858 -1.1091 -0.1866 -0.7549
42569SOL     OW29713   3.724   2.867   0.356  0.0784  0.2968  0.2068
42569SOL    HW129714   3.814   2.870   0.388  0.2638  0.3883 -0.3108
42569SOL    HW229715   3.694   2.958   0.356 -0.9891  0.0275  3.0355
42570SOL     OW29716   0.087   6.167   4.512 -0.3891  0.8364  1.3721
42570SOL    HW129717   0.174   6.128   4.497 -2.1643 -3.4661  0.8787
42570SOL    HW229718   0.073   6.225   4.436 -0.0390 -2.7615 -1.7326
42571SOL     OW29719   6.780   4.225   5.589  0.1400  0.3891 -0.2767
42571SOL    HW129720   6.821   4.297   5.540  1.3683  1.3075  1.9537
42571SOL    HW229721   6.840   4.151   5.577 -1.7626 -0.8154 -3.6392
42572SOL     OW29722   5.692   5.494   6.340 -0.3299  0.3263  0.0863
42572SOL    HW129723   5.679   5.399   6.343 -1.2580  0.3790 -1.3102
42572SOL    HW229724   5.605   5.531   6.357 -0.0606  0.9220  0.2108
42573SOL     OW29725   0.487   6.082   6.280 -0.0513  0.6193  0.4934
42573SOL    HW129726   0.563   6.075   6.223 -0.2439 -1.0369  0.3843
42573SOL    HW229727   0.522   6.082   6.369  0.0691 -0.8019  0.4632
42574SOL     OW29728   7.280   4.192   1.479  0.4636 -0.1336 -0.3216
42574SOL    HW129729   7.219   4.127   1.445  0.9752  0.3503 -2.3220
42574SOL    HW229730   7.358   4.182   1.426  2.5345 -1.2709  2.6662
42575SOL     OW29731   7.237   2.292   8.430  0.3554  0.4492  0.3873
42575SOL    HW129732   7.319   2.305   8.382  0.8363 -0.7480  0.8393
42575SOL    HW229733   7.199   2.380   8.436  0.0175  0.6020 -2.5694
42576SOL     OW29734   8.197   0.262   1.745  0.4669  0.2538  0.3831
42576SOL    HW129735   8.203   0.252   1.840  0.2900 -1.3403  0.2565
42576SOL    HW229736   8.238   0.183   1.710 -0.4222  0.3054 -0.8509
42577SOL     OW29737  10.312  10.151   8.012 -0.1787 -0.5585  0.3103
42577SOL    HW129738  10.253  10.165   8.087  2.0909  2.2976  1.7863
42577SOL    HW229739  10.299  10.229   7.958  1.0708 -0.6417 -0.1323
42578SOL     OW29740   5.755   5.219   3.257 -0.9966 -0.2176 -0.1241
42578SOL    HW129741   5.791   5.148   3.310 -0.8868  0.5462  0.8517
42578SOL    HW229742   5.821   5.288   3.262 -3.1783  1.8804  3.0825
42579SOL     OW29743   5.980   6.169   4.421 -0.6401  0.1713  0.9041
42579SOL    HW129744   6.063   6.159   4.374 -0.3050  0.3007  1.4545
42579SOL    HW229745   5.966   6.264   4.425 -1.2896  0.1254  0.0107
42580SOL     OW29746   6.381  10.359   8.338  0.0507 -0.3397  0.0495
42580SOL    HW129747   6.408  10.449   8.355 -2.5057  0.5874 -0.2975
42580SOL    HW229748   6.427  10.307   8.404 -0.0347  1.5118  1.6783
42581SOL     OW29749   8.206   1.618   7.581 -0.7566 -0.2530 -0.2790
42581SOL    HW129750   8.196   1.563   7.504 -1.4450 -0.6256  0.0631
42581SOL    HW229751   8.118   1.621   7.620 -0.3754 -0.2597  0.6116
42582SOL     OW29752   0.617   4.609   4.999 -0.4555  0.2520 -0.1341
42582SOL    HW129753   0.603   4.527   4.952  0.9487  0.4141 -0.8945
42582SOL    HW229754   0.538   4.621   5.050 -2.3957  0.3653 -2.9230
42583SOL     OW29755   2.070   7.282  10.117  0.1579 -0.3402  0.0216
42583SOL    HW129756   2.152   7.326  10.092 -0.1144  0.4955  0.5480
42583SOL    HW229757   2.095   7.192  10.135  0.6077 -0.6626 -1.9114
42584SOL     OW29758   2.267   8.327   8.029  0.2337 -0.2737 -0.2581
42584SOL    HW129759   2.198   8.333   8.095  0.7512 -1.7062  0.4550
42584SOL    HW229760   2.283   8.418   8.003  0.1749  0.3657  1.7481
42585SOL     OW29761   4.192   7.485   1.005 -0.6558 -0.0133 -0.6606
42585SOL    HW129762   4.172   7.514   1.094 -1.7801  0.4412 -1.0427
42585SOL    HW229763   4.282   7.454   1.010 -0.0180  1.8382  0.1887
42586SOL     OW29764   4.950   0.760  10.223  0.0641  0.5783 -0.2489
42586SOL    HW129765   4.976   0.744  10.132  1.0700 -0.9190  0.2688
42586SOL    HW229766   5.029   0.794  10.265 -0.5530  1.8234 -0.0220
42587SOL     OW29767   0.677   4.942   6.046  0.0883  0.4251  0.5278
42587SOL    HW129768   0.645   4.979   6.128  0.8227  1.0027  0.5510
42587SOL    HW229769   0.740   4.875   6.073 -1.1169 -0.7914  0.4823
42588SOL     OW29770   3.344   3.834   6.532 -0.2997  0.6892  0.5361
42588SOL    HW129771   3.306   3.864   6.615 -0.6357  0.7028  0.3777
42588SOL    HW229772   3.391   3.754   6.555 -2.6919 -0.9015  0.2736
42589SOL     OW29773  10.700   4.495   9.014  0.1458  0.5340  0.1086
42589SOL    HW129774  10.761   4.441   9.064  0.2070 -0.6545 -1.1803
42589SOL    HW229775  10.752   4.528   8.941 -0.8199 -0.8814 -1.2732
42590SOL     OW29776   8.998   3.437   0.280  0.5234 -0.5616 -0.3578
42590SOL    HW129777   9.055   3.510   0.256 -0.9769  1.1012  0.9588
42590SOL    HW229778   9.020   3.369   0.216  2.9500  0.4898 -0.7847
42591SOL     OW29779   4.774   7.193   3.205  0.2666 -0.5238  0.2382
42591SOL    HW129780   4.712   7.263   3.228 -0.5809 -1.2751  0.3159
42591SOL    HW229781   4.738   7.155   3.125  1.6250  0.1847 -0.7363
42592SOL     OW29782   2.817   8.481   6.033 -0.1811  0.1526  0.3505
42592SOL    HW129783   2.911   8.465   6.026 -0.1778  0.6332 -1.1233
42592SOL    HW229784   2.808   8.576   6.032 -0.7373  0.1102 -0.9517
42593SOL     OW29785   1.252   4.445   4.080 -0.4660 -0.3308  0.4158
42593SOL    HW129786   1.294   4.520   4.123 -0.1490  0.0583 -0.5377
42593SOL    HW229787   1.210   4.483   4.002 -0.0994 -1.1746 -0.2028
42594SOL     OW29788   3.090   2.506   5.422  0.1605 -0.4282  0.5209
42594SOL    HW129789   3.179   2.508   5.457  0.6107  1.3957 -0.6289
42594SOL    HW229790   3.101   2.513   5.328 -1.2063 -0.5458  0.3344
42595SOL     OW29791   2.235   8.024   8.178  0.2124 -0.2915  0.4867
42595SOL    HW129792   2.184   7.952   8.216  0.4060 -0.7597 -0.1214
42595SOL    HW229793   2.284   7.983   8.107 -0.8715  0.7579 -0.9046
42596SOL     OW29794   8.723   8.179   5.531  0.3453 -0.6470  0.3977
42596SOL    HW129795   8.776   8.248   5.571  0.6138 -1.0244  0.6915
42596SOL    HW229796   8.668   8.146   5.602  0.0059 -0.5344  0.1879
42597SOL     OW29797   0.949  10.280   5.172 -0.0004 -0.1716  0.2027
42597SOL    HW129798   0.994  10.248   5.250 -0.4150 -0.1614  0.4524
42597SOL    HW229799   1.013  10.273   5.102  0.3019 -0.3995  0.5010
42598SOL     OW29800   5.637   0.132  10.923 -0.0398 -0.3283 -0.3691
42598SOL    HW129801   5.672   0.186  10.994 -0.6024 -1.1057  0.5309
42598SOL    HW229802   5.703   0.065  10.908 -0.4578 -0.9063  0.3000
42599SOL     OW29803   1.391   1.697   7.399  0.1000  0.6010  0.1937
42599SOL    HW129804   1.481   1.666   7.390 -0.0676 -0.4085  1.7138
42599SOL    HW229805   1.400   1.787   7.432  0.5581  0.2823  0.9606
42600SOL     OW29806   7.761   8.635   7.289  0.8163  0.3424 -0.0432
42600SOL    HW129807   7.774   8.569   7.357 -0.4360  1.1816  1.0668
42600SOL    HW229808   7.726   8.586   7.214 -1.2901 -0.1563  1.1779
42601SOL     OW29809   5.586  10.551  10.236 -0.5314  0.1732  0.7767
42601SOL    HW129810   5.491  10.563  10.232 -0.4985  0.4490  0.7602
42601SOL    HW229811   5.617  10.580  10.150 -0.4600 -0.2005  0.6748
42602SOL     OW29812   4.125   0.513   3.956  0.6210  0.2043 -0.9107
42602SOL    HW129813   4.135   0.438   4.015  4.2011  1.0853 -0.1392
42602SOL    HW229814   4.099   0.475   3.872  0.8391 -1.7011 -0.1665
42603SOL     OW29815   9.918   9.274   6.341 -0.1291 -0.2704 -0.4317
42603SOL    HW129816   9.953   9.186   6.325 -0.4177 -0.2456 -1.2202
42603SOL    HW229817   9.983   9.315   6.399  0.5604 -0.6254 -0.9430
42604SOL     OW29818   8.234   2.481   8.780 -0.4066  0.1127  0.2459
42604SOL    HW129819   8.269   2.479   8.869 -0.3940  1.1620  0.2748
42604SOL    HW229820   8.246   2.392   8.748 -0.8830 -0.4222  1.4774
42605SOL     OW29821   6.464   4.404   6.639  0.0400  0.1052  0.0510
42605SOL    HW129822   6.495   4.468   6.576  0.9703 -0.2912  0.0956
42605SOL    HW229823   6.484   4.442   6.725 -0.1174  0.1029  0.0896
42606SOL     OW29824   7.341   6.835   1.427 -0.0820  0.1052  0.3303
42606SOL    HW129825   7.341   6.848   1.332 -0.1041  1.0686  0.4539
42606SOL    HW229826   7.363   6.921   1.463  0.7366 -0.4455  1.1770
42607SOL     OW29827   2.897   8.213   7.401 -0.1225 -0.6490  0.3448
42607SOL    HW129828   2.844   8.141   7.365 -0.8825 -0.5894  1.3002
42607SOL    HW229829   2.838   8.288   7.398  0.1571 -0.4143  0.7560
42608SOL     OW29830   0.254   1.591   4.633  0.4328 -0.2929 -0.1538
42608SOL    HW129831   0.310   1.630   4.700 -0.8219  1.8633 -0.2611
42608SOL    HW229832   0.165   1.599   4.668 -0.0808 -0.8679 -1.2633
42609SOL     OW29833   6.856   4.325   3.843  0.1625 -0.2542  0.4425
42609SOL    HW129834   6.907   4.329   3.762 -0.0491 -1.5067  0.2171
42609SOL    HW229835   6.798   4.401   3.840 -1.2867 -1.3389 -1.5886
42610SOL     OW29836   5.724   0.124   5.127  0.2763 -0.4940 -0.2460
42610SOL    HW129837   5.757   0.037   5.150  0.9769 -0.2419 -0.2781
42610SOL    HW229838   5.764   0.143   5.042  1.4545  0.5335  0.4994
42611SOL     OW29839   3.825   3.221   6.131  0.2810 -0.3157 -0.2444
42611SOL    HW129840   3.731   3.204   6.118  0.5149 -1.0650 -1.1416
42611SOL    HW229841   3.867   3.141   6.098  1.3003  0.6114 -1.2384
42612SOL     OW29842   6.773   2.393   3.834  0.0937  0.0085  0.1474
42612SOL    HW129843   6.800   2.469   3.781 -0.0540 -1.7141 -2.6177
42612SOL    HW229844   6.832   2.323   3.807  0.3220 -0.8998  2.7388
42613SOL     OW29845   1.665   5.854   0.727  0.3404 -0.2043  0.3733
42613SOL    HW129846   1.758   5.877   0.714  1.1562 -1.3783  3.3081
42613SOL    HW229847   1.653   5.856   0.822 -2.0588 -2.3199  0.2196
42614SOL     OW29848   0.668  10.732   5.501  0.2224  0.2979  0.0249
42614SOL    HW129849   0.731  10.787   5.454  2.2783 -2.8816 -1.2984
42614SOL    HW229850   0.690  10.744   5.593  1.9732  0.2434 -0.3522
42615SOL     OW29851   5.981   8.928   7.773  0.1357  0.2929 -0.0640
42615SOL    HW129852   5.929   8.893   7.845  0.1433  2.8874  1.3299
42615SOL    HW229853   6.008   8.851   7.723 -0.1827 -1.6083  2.4774
42616SOL     OW29854   3.872   3.920   4.276  0.3398  0.5020 -0.4251
42616SOL    HW129855   3.835   4.002   4.243  0.0130  0.4872 -0.1074
42616SOL    HW229856   3.848   3.855   4.211  0.9870  0.7343 -0.9068
42617SOL     OW29857   1.391   7.090   7.031 -0.1973  0.1110  1.0819
42617SOL    HW129858   1.407   7.183   7.042  1.2175 -0.1624  1.6118
42617SOL    HW229859   1.353   7.062   7.114 -1.7856  0.4073  0.4958
42618SOL     OW29860   7.657  10.705   4.951 -0.1035 -0.0981  0.2196
42618SOL    HW129861   7.684  10.655   5.028  1.5784  0.8389  0.2999
42618SOL    HW229862   7.694  10.657   4.877 -1.3752 -0.7775 -0.0005
42619SOL     OW29863   6.955  10.633   8.889  0.4743  0.1280  0.1034
42619SOL    HW129864   6.873  10.583   8.881  1.1098 -0.9524  0.1728
42619SOL    HW229865   7.020  10.568   8.917  0.9847  1.2991  1.8056
42620SOL     OW29866   2.460   6.351  10.183 -0.0365  0.1114 -0.3835
42620SOL    HW129867   2.484   6.434  10.224  1.4119 -0.3224 -0.2897
42620SOL    HW229868   2.425   6.298  10.255  0.0501  0.2631 -0.2290
42621SOL     OW29869   6.763   6.163   8.047  0.3097  0.2319  0.4902
42621SOL    HW129870   6.745   6.153   7.953 -1.2281 -1.2220  0.8731
42621SOL    HW229871   6.751   6.075   8.083 -1.8577  1.2100  2.4325
42622SOL     OW29872   1.706   8.841   3.025  0.0217  0.6882  0.1546
42622SOL    HW129873   1.772   8.780   2.992 -0.0293 -0.8180  2.6179
42622SOL    HW229874   1.750   8.926   3.025  2.0666 -0.2955  1.8418
42623SOL     OW29875   7.531   8.791   8.477  0.4471  0.5912  0.1536
42623SOL    HW129876   7.539   8.854   8.549 -0.5335 -0.0143  0.8320
42623SOL    HW229877   7.450   8.744   8.496  1.7790 -1.7638  0.3774
42624SOL     OW29878   7.653   8.072   5.693 -0.2079 -0.6497  0.2582
42624SOL    HW129879   7.616   8.072   5.605 -0.1327 -1.5305  0.2122
42624SOL    HW229880   7.722   8.006   5.689  1.3468  0.9147  0.3604
42625SOL     OW29881   0.104   8.372   0.610  0.2452  0.0968  0.2932
42625SOL    HW129882   0.177   8.328   0.566 -0.3362 -1.6779  1.0218
42625SOL    HW229883   0.065   8.304   0.666 -1.9503  1.0083 -0.0478
42626SOL     OW29884   4.800   0.432   7.269  0.4870  0.1070  0.0737
42626SOL    HW129885   4.870   0.422   7.334  0.7022  1.5319  0.1078
42626SOL    HW229886   4.727   0.468   7.319  0.0677 -0.4109 -0.1607
42627SOL     OW29887   9.352   0.862   9.617 -0.9264  0.2960  0.0470
42627SOL    HW129888   9.289   0.821   9.677 -0.8528  0.1605  0.0323
42627SOL    HW229889   9.433   0.813   9.630 -0.4958  1.2076  0.9200
42628SOL     OW29890   3.022   5.216   4.019 -0.1245  0.7391  0.2300
42628SOL    HW129891   2.995   5.143   4.076 -0.6485  0.7786  0.0346
42628SOL    HW229892   2.986   5.195   3.934  1.4881  0.1847 -0.3608
42629SOL     OW29893   5.382   1.802   7.439  0.3719 -0.1379 -0.2854
42629SOL    HW129894   5.423   1.779   7.522 -0.3818 -1.6760 -0.2963
42629SOL    HW229895   5.424   1.745   7.375  0.0284  0.1088 -0.7363
42630SOL     OW29896   9.628   9.106   2.165 -0.1818  0.5361 -0.5465
42630SOL    HW129897   9.713   9.129   2.203 -0.7273  0.2920  0.8986
42630SOL    HW229898   9.601   9.185   2.118  0.4198  0.9610 -0.2021
42631SOL     OW29899  11.054   8.246   4.641 -0.3667  0.4514  0.1012
42631SOL    HW129900  11.030   8.322   4.587  0.7735  2.5531  2.3811
42631SOL    HW229901  10.970   8.210   4.670 -0.9222  1.9160  0.3872
42632SOL     OW29902   5.532   9.296   4.851  0.3709  0.3428  0.1851
42632SOL    HW129903   5.624   9.321   4.861  0.3775  1.2227 -1.5517
42632SOL    HW229904   5.507   9.258   4.935  1.7918  1.8225  1.3298
42633SOL     OW29905   8.258   0.880   7.789  0.4326  0.3740 -0.5437
42633SOL    HW129906   8.268   0.793   7.752  0.8047  1.5496 -3.5336
42633SOL    HW229907   8.290   0.939   7.720 -2.4171  3.0124  0.1404
42634SOL     OW29908  10.545   7.753   2.258  0.1683  0.0920  0.2043
42634SOL    HW129909  10.606   7.785   2.191  0.0747 -0.0897  0.0316
42634SOL    HW229910  10.536   7.660   2.238  0.3115 -0.0072  0.6023
42635SOL     OW29911  10.431   8.181   4.239  0.0487 -0.4595 -0.2294
42635SOL    HW129912  10.499   8.153   4.178 -0.3051 -0.0948 -0.7993
42635SOL    HW229913  10.450   8.274   4.255 -1.0683 -0.0089 -1.4132
42636SOL     OW29914   3.075  11.006   9.639  0.2220  0.2310  0.1481
42636SOL    HW129915   3.124  11.084   9.664 -1.8286  1.2056  1.4691
42636SOL    HW229916   3.023  10.985   9.717  0.4673 -2.2939 -0.2793
42637SOL     OW29917   7.246   0.687   7.641 -0.4224 -0.3727 -0.8197
42637SOL    HW129918   7.202   0.671   7.557 -2.8608  1.7225 -0.0561
42637SOL    HW229919   7.209   0.769   7.672  1.3873 -0.4158  1.7262
42638SOL     OW29920   3.764   8.077  10.412  0.0105  0.0146 -0.2910
42638SOL    HW129921   3.812   8.079  10.329 -1.3180  1.0113 -1.0869
42638SOL    HW229922   3.752   7.984  10.430  1.0352 -0.2309 -0.7763
42639SOL     OW29923   7.159   2.343   6.164 -0.1872  0.2373  0.0692
42639SOL    HW129924   7.240   2.357   6.213 -0.1505  1.0225 -0.2055
42639SOL    HW229925   7.171   2.257   6.123  1.0497  0.8860 -0.9941
42640SOL     OW29926   5.927  10.129   4.198 -0.3885 -0.3181 -0.1850
42640SOL    HW129927   5.863  10.188   4.158  1.1973  0.3269 -1.9135
42640SOL    HW229928   5.970  10.087   4.124  1.4530 -0.4306  0.8953
42641SOL     OW29929   3.634   9.759   5.832 -0.1926 -0.3718  0.0549
42641SOL    HW129930   3.673   9.685   5.786  0.3510  1.3439 -2.4529
42641SOL    HW229931   3.541   9.736   5.840 -0.2438 -0.8818 -1.6690
42642SOL     OW29932   2.620   3.686   9.550  0.6480 -0.5588 -0.1464
42642SOL    HW129933   2.610   3.748   9.622 -0.8073 -1.6822  0.6624
42642SOL    HW229934   2.570   3.724   9.478  1.7872  0.3769 -0.4764
42643SOL     OW29935   6.657   6.099   2.997 -0.7481  0.8141  0.4701
42643SOL    HW129936   6.630   6.182   2.959 -0.8399  1.0812  1.1066
42643SOL    HW229937   6.684   6.121   3.086  2.2085  0.7057 -0.2769
42644SOL     OW29938   5.998   6.020   0.717 -0.3534  0.5342 -0.3898
42644SOL    HW129939   5.975   5.938   0.759 -1.1105 -0.0323 -1.8500
42644SOL    HW229940   5.956   6.087   0.771 -0.4662 -0.0897  0.3111
42645SOL     OW29941   1.008   3.617  10.692 -0.3747 -0.1695  0.1006
42645SOL    HW129942   0.940   3.660  10.639 -0.2292  0.6702  0.5840
42645SOL    HW229943   1.077   3.683  10.700  0.3466 -0.8927 -0.0827
42646SOL     OW29944   6.590   1.234   3.496 -0.2022  0.1213  0.1403
42646SOL    HW129945   6.513   1.203   3.449  0.9602  0.0399 -1.8000
42646SOL    HW229946   6.571   1.326   3.514 -0.5089  0.2787 -0.9024
42647SOL     OW29947  10.394   7.444   6.949  0.0645 -0.2991 -0.1722
42647SOL    HW129948  10.391   7.349   6.941  1.7892 -0.2978 -1.4580
42647SOL    HW229949  10.306   7.469   6.976 -0.1049 -2.3330  1.3431
42648SOL     OW29950   7.733   5.560   2.133  0.3426  0.2257 -0.0458
42648SOL    HW129951   7.755   5.647   2.166  1.4077 -0.0526  0.0148
42648SOL    HW229952   7.689   5.576   2.050 -0.4299  0.8551  0.4723
42649SOL     OW29953   9.345   8.020   7.694  0.2931 -0.1509 -0.4337
42649SOL    HW129954   9.300   8.032   7.777  0.2173 -1.2864 -0.2963
42649SOL    HW229955   9.279   7.978   7.637  0.8624 -0.9561 -0.5231
42650SOL     OW29956   0.799   9.485   6.938 -0.7310 -0.6873  0.3220
42650SOL    HW129957   0.718   9.522   6.904  0.8126 -0.5612 -3.7731
42650SOL    HW229958   0.783   9.391   6.942 -1.4624 -0.5467  0.8790
42651SOL     OW29959   9.287   1.351   1.759 -0.5831 -0.2360 -0.0007
42651SOL    HW129960   9.193   1.332   1.757 -0.5443 -0.6870  1.5793
42651SOL    HW229961   9.323   1.295   1.690 -1.0042 -3.1401  1.9369
42652SOL     OW29962   1.965   6.307   4.107  0.4200  0.3839  0.2284
42652SOL    HW129963   1.973   6.335   4.198  0.4539  1.6043 -0.1364
42652SOL    HW229964   2.054   6.313   4.072  0.2421  0.8448 -0.1470
42653SOL     OW29965  10.429   0.873   0.366 -0.1850 -0.6398  0.0651
42653SOL    HW129966  10.369   0.923   0.422  0.2217  1.7678 -1.4797
42653SOL    HW229967  10.377   0.854   0.287  0.3688 -0.6243 -0.3063
42654SOL     OW29968   6.586   8.027   9.538  0.2423 -0.8036 -0.0437
42654SOL    HW129969   6.649   7.958   9.558  1.0685  0.1982  0.9348
42654SOL    HW229970   6.633   8.086   9.479 -0.1940 -0.6680 -0.2606
42655SOL     OW29971   4.997   4.754   6.825 -0.0105  0.1934  0.6324
42655SOL    HW129972   5.068   4.722   6.769 -0.5651  1.4845 -0.8910
42655SOL    HW229973   4.967   4.676   6.872 -2.5925 -2.2851 -4.2763
42656SOL     OW29974   4.079   0.559   4.891  0.7222 -0.2183 -0.6142
42656SOL    HW129975   4.152   0.573   4.951 -1.0877  1.4315  1.3644
42656SOL    HW229976   4.106   0.602   4.810  1.7392  0.7816  0.2323
42657SOL     OW29977   8.982   0.371   1.012  0.3617  0.3105 -0.3412
42657SOL    HW129978   9.026   0.290   1.036  1.2748  0.5490 -1.1494
42657SOL    HW229979   9.047   0.439   1.026 -0.1047  0.8027 -0.5275
42658SOL     OW29980   0.119   0.075   5.725 -0.8230  0.1229  0.0272
42658SOL    HW129981   0.150   0.078   5.635 -1.4997 -0.3637 -0.2286
42658SOL    HW229982   0.147   0.159   5.763 -2.7026  1.4877 -1.3773
42659SOL     OW29983   7.692   2.113   8.416 -0.2403 -0.3339  0.8866
42659SOL    HW129984   7.767   2.090   8.472 -1.3242 -0.1728  2.4565
42659SOL    HW229985   7.667   2.031   8.374  2.3665  0.0364 -1.7391
42660SOL     OW29986   9.350   9.348  10.175 -0.9057  0.6365  0.1972
42660SOL    HW129987   9.428   9.298  10.199 -0.7828  0.2569 -0.9211
42660SOL    HW229988   9.379   9.439  10.173 -0.2187  0.4138 -1.1533
42661SOL     OW29989  10.090   6.412   7.891 -0.6740  0.3425 -0.0049
42661SOL    HW129990  10.135   6.495   7.906 -0.3080 -0.1239  1.6584
42661SOL    HW229991  10.159   6.353   7.860 -0.7293  0.3753 -0.1940
42662SOL     OW29992   0.590   1.466   1.125  0.1432 -0.6795  0.6125
42662SOL    HW129993   0.663   1.514   1.164  1.9944 -2.5926 -0.2852
42662SOL    HW229994   0.556   1.525   1.057  2.1984 -0.4672 -0.3092
42663SOL     OW29995   8.346  10.418   1.637 -0.0922 -0.1764  0.2102
42663SOL    HW129996   8.309  10.337   1.599  2.0445 -1.0915 -0.0645
42663SOL    HW229997   8.424  10.389   1.684 -0.1489  1.5640  1.4765
42664SOL     OW29998   7.000   6.905   1.824 -0.1099  0.1862  0.5217
42664SOL    HW129999   6.987   6.823   1.871 -0.7713 -0.3562 -0.5709
42664SOL    HW230000   7.088   6.899   1.788 -0.8016 -0.9251 -1.1442
42665SOL     OW30001   2.833   7.521   9.520  0.5217  0.6952 -0.2648
42665SOL    HW130002   2.789   7.599   9.485 -1.0818 -0.0220  0.0688
42665SOL    HW230003   2.829   7.458   9.448 -0.4115  0.1013  0.2975
42666SOL     OW30004   1.731   3.122   5.276  0.2585  0.2104 -1.3941
42666SOL    HW130005   1.703   3.031   5.281 -1.8757  0.7112 -2.8772
42666SOL    HW230006   1.785   3.128   5.198 -0.2967  0.3715 -1.7687
42667SOL     OW30007  10.298   0.652  10.302  0.0646  0.1760  0.0358
42667SOL    HW130008  10.230   0.710  10.337 -1.8611 -1.7212 -0.3334
42667SOL    HW230009  10.326   0.694  10.220  0.7437  1.9317  1.1150
42668SOL     OW30010   6.119   3.775  10.983  0.7103 -0.0436  0.1319
42668SOL    HW130011   6.193   3.717  11.001  0.7787  0.3834  1.2708
42668SOL    HW230012   6.153   3.863  10.994  0.1856  0.1785  0.0244
42669SOL     OW30013   6.253   0.312   5.556 -0.5308 -0.8764 -0.1481
42669SOL    HW130014   6.343   0.278   5.552 -0.0553  0.3724 -0.4358
42669SOL    HW230015   6.204   0.254   5.498  0.1935 -1.2533 -0.4086
42670SOL     OW30016   8.008  10.886   3.688  0.5009  0.4389 -0.1967
42670SOL    HW130017   7.930  10.862   3.638  0.8444 -0.9379 -0.1072
42670SOL    HW230018   7.996  10.978   3.709  0.3298  1.0840 -2.7866
42671SOL     OW30019   2.079   0.245   9.951 -0.2549  0.1574 -0.5388
42671SOL    HW130020   2.167   0.278   9.937  0.1551 -0.3942  0.5462
42671SOL    HW230021   2.076   0.162   9.903 -0.0796  0.0457 -0.3608
42672SOL     OW30022   9.862   4.710   4.688 -0.4748 -0.4809 -0.1077
42672SOL    HW130023   9.870   4.686   4.595  0.6703 -1.4253  0.2147
42672SOL    HW230024   9.768   4.704   4.706 -0.6022 -1.2329 -0.9622
42673SOL     OW30025  10.603   5.069   1.751 -0.3540 -0.0744  0.5891
42673SOL    HW130026  10.673   5.071   1.686 -1.1425 -2.4948 -0.4469
42673SOL    HW230027  10.643   5.104   1.830  0.9032  2.0926 -0.9154
42674SOL     OW30028   4.933  11.074   0.457 -0.2761 -0.2125  0.0763
42674SOL    HW130029   4.923  10.983   0.428  0.5370 -0.3106  0.0895
42674SOL    HW230030   4.876  11.081   0.534 -0.2705 -0.7352  0.1332
42675SOL     OW30031   0.013   5.955   5.118  0.0961 -0.1114 -0.1494
42675SOL    HW130032   0.013   5.967   5.213  0.7922 -1.1175 -0.0084
42675SOL    HW230033   0.098   5.916   5.099  1.4152  3.0844 -1.6136
42676SOL     OW30034   2.388   3.077   2.811  0.2170 -0.4232  0.1147
42676SOL    HW130035   2.326   3.094   2.740 -1.1587 -1.5677  0.9891
42676SOL    HW230036   2.451   3.016   2.773  2.6281  2.8443 -1.6685
42677SOL     OW30037   9.160   1.899   8.269  0.9242  0.1078 -0.3280
42677SOL    HW130038   9.146   1.810   8.301 -1.2243  0.3144 -0.5530
42677SOL    HW230039   9.191   1.887   8.179  0.5213 -0.4078 -0.4030
42678SOL     OW30040   6.949   4.788   3.303  0.1899  0.4716  0.4373
42678SOL    HW130041   6.879   4.837   3.345  0.8045  0.0034  2.0863
42678SOL    HW230042   6.919   4.697   3.305 -0.0171  0.5009 -0.6838
42679SOL     OW30043   1.257   8.090   5.889 -0.0312  0.1400 -0.5926
42679SOL    HW130044   1.293   8.022   5.946  0.4950 -0.2612 -1.3822
42679SOL    HW230045   1.324   8.103   5.822 -0.4164  0.9657 -0.8342
42680SOL     OW30046   7.717   0.179   4.394 -1.3666  0.1291  0.3453
42680SOL    HW130047   7.647   0.168   4.459 -2.7916 -0.8104 -1.2537
42680SOL    HW230048   7.761   0.094   4.391  0.0756  0.7902  1.5207
42681SOL     OW30049   4.582   9.567   9.180  0.2133  0.3050  0.1745
42681SOL    HW130050   4.676   9.575   9.168 -0.0660  2.1417 -1.2879
42681SOL    HW230051   4.565   9.473   9.184  2.1837 -0.0522  1.5307
42682SOL     OW30052   1.235   2.460   0.962  0.0820 -0.2580  0.1304
42682SOL    HW130053   1.175   2.506   1.020 -0.2005  0.2273 -0.5252
42682SOL    HW230054   1.225   2.368   0.985  0.3260 -0.0433  1.1584
42683SOL     OW30055   8.221   9.528   3.787 -0.0520 -0.9923 -0.3294
42683SOL    HW130056   8.150   9.474   3.822 -1.5386  0.9906 -0.1083
42683SOL    HW230057   8.205   9.532   3.693 -2.3100  2.0553  0.0274
42684SOL     OW30058   0.350   1.921   3.556 -0.0056 -0.0831  0.3023
42684SOL    HW130059   0.435   1.965   3.561  0.4016 -0.6852 -0.9212
42684SOL    HW230060   0.293   1.973   3.612  0.8281  1.1398  0.0613
42685SOL     OW30061   1.338   2.805  10.610  0.6771  0.1671  0.7229
42685SOL    HW130062   1.402   2.736  10.596  1.2476  0.7680  0.2798
42685SOL    HW230063   1.371   2.879  10.559 -0.7693  0.2497 -0.1682
42686SOL     OW30064   1.795   7.306   9.865  0.5489 -0.1147 -0.2380
42686SOL    HW130065   1.716   7.312   9.811  0.3831  1.0645  0.1080
42686SOL    HW230066   1.779   7.366   9.938  1.4228 -0.4944  0.2812
42687SOL     OW30067   5.334   6.422   3.802 -0.2552  0.4386 -0.5483
42687SOL    HW130068   5.388   6.500   3.812 -0.4716  0.4134  1.1509
42687SOL    HW230069   5.387   6.363   3.748 -1.0645  2.5670 -3.9760
42688SOL     OW30070   4.154   5.387   3.802  0.4965 -0.0278  0.1742
42688SOL    HW130071   4.075   5.438   3.784  1.0546  1.5784  1.8849
42688SOL    HW230072   4.122   5.300   3.827 -0.5177 -0.3814 -2.1572
42689SOL     OW30073   6.050   9.928  10.484  0.6648  0.4374  0.1116
42689SOL    HW130074   5.994   9.999  10.452 -0.4030 -0.2364  0.4528
42689SOL    HW230075   6.099   9.967  10.556  1.7136  1.4407 -1.0930
42690SOL     OW30076   8.107   8.762   6.846  0.3695 -0.1383  0.1081
42690SOL    HW130077   8.092   8.714   6.764  0.4978 -1.7212  0.9707
42690SOL    HW230078   8.188   8.724   6.881 -0.5282 -0.6270  1.7488
42691SOL     OW30079   2.263   5.476  10.340  0.0310  0.4341 -0.2785
42691SOL    HW130080   2.288   5.384  10.351  1.9389  1.0000  0.5824
42691SOL    HW230081   2.294   5.499  10.253 -0.8667  0.1612 -0.6824
42692SOL     OW30082   7.145   0.065   1.607 -0.2187 -0.1721 -0.3622
42692SOL    HW130083   7.123   0.088   1.697  3.4873  1.9447  0.2343
42692SOL    HW230084   7.170  -0.027   1.611  3.1838  0.6518  1.7450
42693SOL     OW30085  10.341   2.010   9.481  0.2716 -0.2210  0.0487
42693SOL    HW130086  10.383   1.967   9.555 -0.3733  0.9112  1.0954
42693SOL    HW230087  10.279   1.946   9.448 -0.9151 -0.0432  1.7922
42694SOL     OW30088   0.968   1.331   3.094  0.1381  0.2166  0.2757
42694SOL    HW130089   1.021   1.381   3.032  1.1770  0.2452  1.1557
42694SOL    HW230090   0.946   1.251   3.047 -0.5649  0.9816 -0.7352
42695SOL     OW30091   3.411   4.083   8.231  0.1042 -0.0116  0.6646
42695SOL    HW130092   3.488   4.043   8.192  0.0329 -0.1036  0.6157
42695SOL    HW230093   3.357   4.109   8.156  0.2251  0.3236  0.6959
42696SOL     OW30094   8.884   2.591   6.064 -0.4349  0.1629 -0.5580
42696SOL    HW130095   8.853   2.655   6.000  0.5829  0.4891 -0.7499
42696SOL    HW230096   8.950   2.540   6.017 -0.7331 -0.5751 -0.1983
42697SOL     OW30097   1.834   6.084   9.313 -0.4446  0.1139  0.2746
42697SOL    HW130098   1.900   6.037   9.262 -1.8283 -1.1373 -0.4655
42697SOL    HW230099   1.849   6.055   9.403 -1.0667 -1.5917 -0.1216
42698SOL     OW30100   7.676  10.929   2.569 -0.6703 -0.1280 -0.7292
42698SOL    HW130101   7.704  11.020   2.583 -0.3128 -0.5828  1.9062
42698SOL    HW230102   7.587  10.925   2.603  0.2758 -1.3321  1.8304
42699SOL     OW30103   4.486   3.027   2.030 -0.3707 -0.0307  0.0551
42699SOL    HW130104   4.407   2.991   2.071 -0.8501 -0.6023 -1.3327
42699SOL    HW230105   4.496   2.977   1.949  0.0400  1.6815 -0.9932
42700SOL     OW30106   4.730   5.739   3.093  0.2318  0.2619 -0.1238
42700SOL    HW130107   4.644   5.768   3.125 -0.8555  0.0629 -2.6600
42700SOL    HW230108   4.791   5.806   3.124 -0.6603  0.0727  2.2899
42701SOL     OW30109   9.742   7.974   6.061  0.2616  0.1238  0.2243
42701SOL    HW130110   9.743   7.935   5.974  0.2215 -0.0334  0.2933
42701SOL    HW230111   9.794   7.913   6.114  1.7452  1.0811 -0.0627
42702SOL     OW30112   1.247   4.718   0.865  0.4593 -0.4538 -0.3619
42702SOL    HW130113   1.329   4.670   0.873  0.8110  0.3681  1.4421
42702SOL    HW230114   1.272   4.806   0.839 -0.0358 -0.6711 -1.6881
42703SOL     OW30115   5.081   4.529   4.825  0.1211 -0.3596  0.0115
42703SOL    HW130116   4.998   4.481   4.827 -0.6393  0.9116  1.0800
42703SOL    HW230117   5.144   4.470   4.866 -0.2170 -1.3661 -0.8579
42704SOL     OW30118   5.255   6.199   7.459 -0.2055 -0.2338 -0.2424
42704SOL    HW130119   5.222   6.236   7.541 -0.5152 -1.4258  0.1921
42704SOL    HW230120   5.204   6.243   7.390 -0.3273  0.3711  0.2282
42705SOL     OW30121  10.314   9.494   6.439  1.2156  0.1890 -0.7465
42705SOL    HW130122  10.314   9.503   6.534 -0.3805  4.1228 -0.9398
42705SOL    HW230123  10.396   9.535   6.411  1.4296 -0.4718 -1.0938
42706SOL     OW30124   1.457   1.775   2.145  0.4795 -0.1441  0.0531
42706SOL    HW130125   1.492   1.846   2.091 -0.8126  0.1204 -0.4773
42706SOL    HW230126   1.481   1.695   2.098  3.2092 -0.2168  1.3821
42707SOL     OW30127   0.601   0.262   3.572 -0.4598  0.3235  0.1796
42707SOL    HW130128   0.510   0.251   3.544 -0.2856  2.2393 -1.3812
42707SOL    HW230129   0.596   0.327   3.643 -0.4004 -0.4107  0.8620
42708SOL     OW30130   3.600   2.003   7.397  0.2116  0.4687 -0.3189
42708SOL    HW130131   3.690   1.972   7.391 -0.1010 -0.4637 -0.3685
42708SOL    HW230132   3.547   1.929   7.367 -0.6358  0.6192  0.7366
42709SOL     OW30133   8.583   7.581   0.195  0.9702 -0.3406 -0.2304
42709SOL    HW130134   8.564   7.588   0.101 -1.2159  3.2493  0.2695
42709SOL    HW230135   8.631   7.662   0.215  1.0048 -0.8209  1.8016
42710SOL     OW30136   2.190   5.915   4.199 -0.1310 -0.2992  0.3200
42710SOL    HW130137   2.119   5.898   4.137 -0.4883  0.8733  0.3824
42710SOL    HW230138   2.148   5.957   4.274  0.7703  1.5878 -0.1828
42711SOL     OW30139   1.199   2.705   5.208  0.4774 -0.2840  0.0488
42711SOL    HW130140   1.254   2.781   5.226  4.3578 -3.1441  1.7185
42711SOL    HW230141   1.171   2.674   5.294 -0.5605 -1.1020 -0.5448
42712SOL     OW30142   7.483   6.070   9.876  0.3625  0.4865  0.7564
42712SOL    HW130143   7.542   6.145   9.887  1.8496 -0.2332 -1.6242
42712SOL    HW230144   7.539   5.998   9.848 -1.3941 -0.7782  0.2748
42713SOL     OW30145   1.691   8.410  10.009 -0.3247  0.2444  0.1755
42713SOL    HW130146   1.678   8.321  10.041 -0.7389 -0.9363 -2.8711
42713SOL    HW230147   1.623   8.421   9.942  2.6622  0.8732 -3.0802
42714SOL     OW30148   5.467   0.486   4.883  0.1945 -0.5163 -0.2499
42714SOL    HW130149   5.460   0.483   4.978 -3.2211 -0.6168 -0.3953
42714SOL    HW230150   5.422   0.566   4.858  0.1140 -1.0307 -1.8352
42715SOL     OW30151   0.348   9.869   0.263  0.7739  0.3400  0.1305
42715SOL    HW130152   0.401   9.870   0.183  0.9438 -0.2996  0.2324
42715SOL    HW230153   0.260   9.846   0.234  1.3174 -2.4264  0.3802
42716SOL     OW30154   8.801   6.576   1.558 -0.3857  0.1370  0.5907
42716SOL    HW130155   8.863   6.633   1.513  1.6382 -0.0316  2.9178
42716SOL    HW230156   8.780   6.507   1.495 -1.1959  2.1981 -1.5367
42717SOL     OW30157   0.637   8.066   9.747  0.1079 -0.8129  0.2363
42717SOL    HW130158   0.553   8.066   9.793  0.4744 -1.0344  0.9328
42717SOL    HW230159   0.645   8.154   9.711 -0.2838 -0.6993  0.4213
42718SOL     OW30160   6.142   6.206   9.475  0.1566  0.1659 -0.7320
42718SOL    HW130161   6.070   6.264   9.450  1.6778  3.5992  2.0522
42718SOL    HW230162   6.206   6.215   9.404 -0.5844 -0.0136 -1.4418
42719SOL     OW30163   0.562   7.458   6.841  0.0968  0.0711 -0.2301
42719SOL    HW130164   0.621   7.448   6.766 -0.8327  0.1896 -0.9913
42719SOL    HW230165   0.478   7.481   6.803 -0.1779  1.0535  0.9066
42720SOL     OW30166  10.724   6.153   5.134 -0.3269  0.3855  0.2471
42720SOL    HW130167  10.726   6.180   5.042 -2.3107 -0.4940 -0.1222
42720SOL    HW230168  10.668   6.219   5.177 -0.5758  0.0096  0.5072
42721SOL     OW30169   8.078   8.156   0.224 -0.8204 -0.4143  0.2437
42721SOL    HW130170   7.991   8.121   0.246 -1.7835  0.9401 -1.1742
42721SOL    HW230171   8.063   8.249   0.206  1.4427  0.5484  2.6717
42722SOL     OW30172   9.702   2.547   8.287  0.0405 -0.0027 -0.3282
42722SOL    HW130173   9.729   2.561   8.196  3.3431  1.3606  0.7404
42722SOL    HW230174   9.695   2.452   8.296 -0.3046 -0.1641 -1.9557
42723SOL     OW30175   2.557   0.651   9.401  0.3214 -0.1582 -0.1196
42723SOL    HW130176   2.634   0.622   9.450  0.5676  0.5513 -0.0804
42723SOL    HW230177   2.582   0.736   9.366 -0.5854  0.2519  0.2082
42724SOL     OW30178   8.438   8.968   2.415  0.7150  0.0515 -0.0030
42724SOL    HW130179   8.431   9.053   2.371  0.1660 -0.9630 -1.9544
42724SOL    HW230180   8.509   8.923   2.371 -0.8881 -1.6149 -1.0096
42725SOL     OW30181   9.699   6.082   4.426 -0.3422 -0.2287 -0.2760
42725SOL    HW130182   9.624   6.110   4.479  0.4217 -0.0935  0.7730
42725SOL    HW230183   9.769   6.068   4.490  0.9720  1.1007 -1.3726
42726SOL     OW30184   1.825   3.253   4.182  0.1576  0.3065 -0.3252
42726SOL    HW130185   1.905   3.306   4.179  0.9171 -0.6524  1.5842
42726SOL    HW230186   1.776   3.287   4.257 -0.7934  0.2527 -0.9037
42727SOL     OW30187   6.481   3.587   2.840 -0.7642  0.3852 -0.3980
42727SOL    HW130188   6.499   3.673   2.879 -3.3038  0.2202  1.4018
42727SOL    HW230189   6.408   3.603   2.780 -0.4454 -0.3345 -1.0008
42728SOL     OW30190   5.052   0.507   0.316  0.7469 -0.3656 -0.0190
42728SOL    HW130191   5.087   0.439   0.258  0.9394  0.6728 -1.1450
42728SOL    HW230192   5.116   0.512   0.387  1.2020 -0.7172 -0.3970
42729SOL     OW30193   1.676   1.582   2.272  0.4296 -0.3093  0.2646
42729SOL    HW130194   1.765   1.549   2.258  0.7285  0.5066  0.1811
42729SOL    HW230195   1.688   1.676   2.287 -0.3426 -0.3384  1.1159
42730SOL     OW30196   5.830   9.812   1.045  0.6500  0.2869 -0.3420
42730SOL    HW130197   5.866   9.901   1.055  2.1990 -0.4077  0.5441
42730SOL    HW230198   5.788   9.794   1.128  1.2114 -0.1765 -0.1519
42731SOL     OW30199  10.616   7.520   8.572 -0.6460  0.0179 -0.0673
42731SOL    HW130200  10.650   7.441   8.530 -0.0522  1.4042 -2.3236
42731SOL    HW230201  10.605   7.582   8.501 -2.1423  1.6383  1.4996
42732SOL     OW30202   1.107   1.979   7.384 -0.6420 -0.6181  0.1723
42732SOL    HW130203   1.122   1.904   7.440  0.2013  0.5989  1.6507
42732SOL    HW230204   1.183   1.981   7.326 -1.5730 -1.9470 -1.1767
42733SOL     OW30205  10.930   1.946   6.326 -1.2896  0.0836  0.3058
42733SOL    HW130206  10.840   1.915   6.317 -0.7669 -1.4625  0.1251
42733SOL    HW230207  10.971   1.884   6.386 -0.2658  0.5782  0.1323
42734SOL     OW30208  10.482   7.985   9.439  0.2648 -0.5685  0.7043
42734SOL    HW130209  10.555   8.032   9.478 -0.2753 -0.2805  1.4020
42734SOL    HW230210  10.422   8.054   9.410 -0.2920 -0.8077  1.2603
42735SOL     OW30211   7.539   9.963   3.909 -0.4109  0.7413  0.1222
42735SOL    HW130212   7.577   9.883   3.945 -1.1036  0.0075 -0.7476
42735SOL    HW230213   7.472   9.988   3.974 -0.0957  0.7053  0.4665
42736SOL     OW30214   3.508   9.353   3.994 -0.4618  0.4953  0.1524
42736SOL    HW130215   3.441   9.332   3.928 -2.7368  0.2787  2.3730
42736SOL    HW230216   3.537   9.268   4.026 -1.1928  0.5954  1.1166
42737SOL     OW30217   0.468   8.781   8.536 -0.3169 -0.0757  0.4690
42737SOL    HW130218   0.426   8.750   8.455 -0.8245 -0.3181  0.8178
42737SOL    HW230219   0.472   8.876   8.525 -0.1542 -0.1273  0.0532
42738SOL     OW30220   0.356   9.094  10.246  0.4266 -0.3360  0.0547
42738SOL    HW130221   0.329   9.148  10.171  0.6497 -0.3541 -0.0390
42738SOL    HW230222   0.344   9.151  10.322  1.4065  0.1277 -0.1195
42739SOL     OW30223   2.489   5.155   9.697  0.2226  0.2731 -0.3278
42739SOL    HW130224   2.511   5.064   9.678  1.3182  0.6358 -0.9364
42739SOL    HW230225   2.437   5.184   9.622 -0.5089  0.0264  0.0800
42740SOL     OW30226   3.247   2.913   6.748  0.7403  0.0166 -0.2325
42740SOL    HW130227   3.278   2.900   6.838  0.7693  0.6732 -0.1489
42740SOL    HW230228   3.192   2.836   6.731 -1.1918  1.0239  1.1818
42741SOL     OW30229   5.737   2.776   9.461 -0.2294 -0.1170  0.0392
42741SOL    HW130230   5.773   2.698   9.420  1.6288 -0.6772  2.4391
42741SOL    HW230231   5.813   2.834   9.474 -1.3915  1.6928 -0.7714
42742SOL     OW30232   4.462   9.301   7.051  0.0515 -0.4119 -0.5472
42742SOL    HW130233   4.394   9.297   6.984  0.2179 -0.8630 -0.6959
42742SOL    HW230234   4.472   9.210   7.080 -2.0096  0.0802  2.1230
42743SOL     OW30235   1.673   3.894   6.713 -0.0214 -0.3467 -0.3580
42743SOL    HW130236   1.761   3.932   6.712  0.4433 -1.3335 -1.7656
42743SOL    HW230237   1.634   3.924   6.631  0.3320 -2.6878 -1.4769
42744SOL     OW30238   0.090   8.551   7.716  0.6339 -0.1713  0.0251
42744SOL    HW130239   0.093   8.636   7.758 -3.1338 -0.1240  0.5707
42744SOL    HW230240   0.081   8.488   7.787 -0.0257 -0.6497 -0.4578
42745SOL     OW30241   4.906   5.110  10.424  0.1627 -0.1853 -0.0226
42745SOL    HW130242   4.994   5.128  10.392  1.3191 -0.3295  2.8128
42745SOL    HW230243   4.919   5.065  10.508 -2.6252 -1.3221 -0.0770
42746SOL     OW30244   0.678   0.993   3.038 -0.6438  0.0672 -0.1062
42746SOL    HW130245   0.726   1.022   3.116 -0.3054  3.1617 -1.3048
42746SOL    HW230246   0.743   0.946   2.986  1.4365  4.1484 -1.6910
42747SOL     OW30247  10.016  10.448   7.898  0.0126  0.1051 -0.3672
42747SOL    HW130248   9.949  10.383   7.918 -0.2429 -0.5576 -3.0175
42747SOL    HW230249   9.974  10.505   7.833  1.4973  0.5996 -0.9254
42748SOL     OW30250   4.429   5.612   0.447 -0.1234  0.4144  0.1515
42748SOL    HW130251   4.337   5.625   0.470 -0.0270 -0.3744  1.0656
42748SOL    HW230252   4.440   5.660   0.365 -1.3946  0.3390 -0.0888
42749SOL     OW30253   1.196   8.504  11.099 -0.3561 -0.8670 -0.4362
42749SOL    HW130254   1.203   8.589  11.056  0.9158 -1.1887 -0.9068
42749SOL    HW230255   1.104   8.499  11.127 -0.5447  0.4897 -0.7280
42750SOL     OW30256  10.147   4.394   5.945  0.8997 -0.0100  0.0779
42750SOL    HW130257  10.147   4.373   6.038  3.5592  0.7973  0.3395
42750SOL    HW230258  10.129   4.311   5.902  0.7764 -0.6280  1.2839
42751SOL     OW30259   1.081   6.704   3.854 -0.7486  0.9416  0.0983
42751SOL    HW130260   1.155   6.715   3.794 -1.9768  1.2034 -1.4260
42751SOL    HW230261   1.079   6.785   3.905  1.6199 -0.1404  2.1015
42752SOL     OW30262   3.898   7.082   3.490  0.1301  0.1555 -0.1207
42752SOL    HW130263   3.834   7.120   3.550  0.6663 -2.0546  2.0061
42752SOL    HW230264   3.889   7.133   3.409 -0.4105  3.5198  1.8688
42753SOL     OW30265   0.571   7.162   8.855  0.2399  0.1197 -0.6010
42753SOL    HW130266   0.526   7.214   8.922  0.6434 -0.8490  0.4509
42753SOL    HW230267   0.500   7.122   8.804 -0.0792  0.2882 -0.2952
42754SOL     OW30268   8.730   4.499   9.256 -0.0565 -0.1488  0.3025
42754SOL    HW130269   8.771   4.423   9.294 -0.4451 -0.9033 -0.7330
42754SOL    HW230270   8.637   4.489   9.276 -0.1610 -0.1565 -0.1716
42755SOL     OW30271   3.885   0.526   6.304  0.0895 -0.4658 -0.4456
42755SOL    HW130272   3.979   0.539   6.319 -0.1589  3.0565 -1.1435
42755SOL    HW230273   3.845   0.536   6.390  0.0951  2.4773 -0.6878
42756SOL     OW30274   8.551   6.356   4.882 -0.1789 -0.6121  0.1291
42756SOL    HW130275   8.500   6.278   4.858  1.1896 -1.7223  0.6313
42756SOL    HW230276   8.496   6.430   4.858 -1.0568 -1.7192 -1.4363
42757SOL     OW30277   3.088   4.951   5.793 -0.1169  0.1729  0.3613
42757SOL    HW130278   3.018   4.891   5.818  0.9843 -0.5286  1.9568
42757SOL    HW230279   3.047   5.037   5.791 -1.6856 -0.5513 -1.7835
42758SOL     OW30280   7.824   8.574  10.320  0.1020  0.1212  0.1987
42758SOL    HW130281   7.758   8.505  10.322 -0.2841  0.1807 -3.4665
42758SOL    HW230282   7.902   8.532  10.284  0.1330  1.3436 -1.2634
42759SOL     OW30283   3.611   7.694   6.843  0.2229 -0.0612  0.4770
42759SOL    HW130284   3.645   7.711   6.756  2.0286 -1.0423  0.9520
42759SOL    HW230285   3.522   7.661   6.828 -0.2111  1.5893 -0.8473
42760SOL     OW30286   1.669   0.209   9.905  0.5262  0.2141  0.0657
42760SOL    HW130287   1.724   0.287   9.902 -2.3865  2.4271 -0.1764
42760SOL    HW230288   1.602   0.230   9.970 -1.8451 -0.9747 -1.8500
42761SOL     OW30289   5.729   3.608   5.403 -0.9286 -0.1335  0.5854
42761SOL    HW130290   5.648   3.557   5.395 -0.9023 -0.0077 -0.8105
42761SOL    HW230291   5.725   3.670   5.330  1.3192 -1.4111 -0.7381
42762SOL     OW30292   7.188   0.050  10.616  0.1713  0.2074  0.1263
42762SOL    HW130293   7.142   0.124  10.578 -0.6878 -0.3301  0.0823
42762SOL    HW230294   7.264   0.088  10.659 -0.0248  1.0607 -0.2646
42763SOL     OW30295  10.953   5.493   2.954 -0.4095 -0.0398  0.5120
42763SOL    HW130296  10.928   5.453   2.871  0.4574 -0.4009  0.4226
42763SOL    HW230297  11.048   5.498   2.951 -0.1455 -2.2992  2.4941
42764SOL     OW30298   9.029   0.009   4.362 -0.4987  1.2144  0.1828
42764SOL    HW130299   9.084  -0.003   4.285  1.2434  1.9321  1.2556
42764SOL    HW230300   8.982   0.091   4.345 -0.4259  1.1666 -0.2698
42765SOL     OW30301   8.120   6.047   8.762 -0.0232 -0.0995  0.1329
42765SOL    HW130302   8.075   6.021   8.682 -0.0687 -0.2168  0.1965
42765SOL    HW230303   8.132   6.142   8.754  0.9324 -0.2536 -0.5082
42766SOL     OW30304   7.308  10.060   7.875 -0.3095 -0.4842  0.5533
42766SOL    HW130305   7.302   9.971   7.912 -1.4445 -0.4797  0.3952
42766SOL    HW230306   7.324  10.116   7.951 -2.0876 -0.5399  0.9985
42767SOL     OW30307   7.794   0.362   1.683  0.1172 -0.2009  0.5334
42767SOL    HW130308   7.845   0.422   1.737 -0.9591 -0.3982  1.8109
42767SOL    HW230309   7.704   0.373   1.713 -0.3974 -0.9381 -0.6608
42768SOL     OW30310   6.537  10.167   9.183  0.0558 -0.3609 -0.1879
42768SOL    HW130311   6.516  10.239   9.123 -0.1251 -1.1797 -1.1207
42768SOL    HW230312   6.608  10.120   9.139 -0.5531 -1.3842 -0.1037
42769SOL     OW30313   9.423   7.371   7.426  0.5740  0.3471  0.0789
42769SOL    HW130314   9.517   7.380   7.446  0.4401  0.9100  0.4639
42769SOL    HW230315   9.412   7.410   7.340  0.4045  1.8234  0.7492
42770SOL     OW30316   1.058   3.218   3.597  0.6283 -0.7729  0.0718
42770SOL    HW130317   1.024   3.173   3.675 -0.8514 -0.8148 -0.5713
42770SOL    HW230318   1.070   3.148   3.533 -0.7910 -0.4058 -0.6239
42771SOL     OW30319   6.442  11.008   2.370  0.1075  0.1703 -0.1012
42771SOL    HW130320   6.516  10.947   2.363 -0.9135 -0.9886 -1.4519
42771SOL    HW230321   6.473  11.089   2.329  0.6028 -0.3312 -0.7384
42772SOL     OW30322   5.692   8.343   1.141  0.1768  0.3242 -0.6240
42772SOL    HW130323   5.618   8.284   1.155  0.7206 -0.2931 -0.3279
42772SOL    HW230324   5.700   8.391   1.223 -0.2635  0.8233 -0.8638
42773SOL     OW30325   6.013   0.487   4.409 -0.4892 -0.0471 -0.1388
42773SOL    HW130326   5.997   0.543   4.485 -0.1398  0.0710 -0.1505
42773SOL    HW230327   5.931   0.440   4.396 -0.3101 -0.6393  0.7800
42774SOL     OW30328   0.532   0.766   3.747 -0.9818 -0.0513  1.0115
42774SOL    HW130329   0.446   0.723   3.750 -1.2885  0.1748 -1.9884
42774SOL    HW230330   0.513   0.859   3.761 -1.6562  0.3596 -2.0079
42775SOL     OW30331   5.124   2.411   3.637 -0.5096 -0.2901 -0.1916
42775SOL    HW130332   5.095   2.499   3.612  1.2764  0.9279  1.7182
42775SOL    HW230333   5.055   2.378   3.695  0.0092  1.0119  1.2405
42776SOL     OW30334  10.277   7.843   5.013  0.2382 -0.2965  0.5811
42776SOL    HW130335  10.199   7.797   4.984  0.1416 -0.2967  0.8386
42776SOL    HW230336  10.323   7.780   5.069 -0.0651  0.0269  1.2074
42777SOL     OW30337   9.582   4.707   7.556  0.5588 -0.2412 -0.0488
42777SOL    HW130338   9.635   4.778   7.592  0.9619 -1.0092  0.9455
42777SOL    HW230339   9.642   4.660   7.497 -0.5873  2.0604 -3.3115
42778SOL     OW30340   0.968   3.425   6.476 -0.1475  0.5376 -0.7781
42778SOL    HW130341   0.938   3.374   6.551  0.0111  1.4999 -0.0443
42778SOL    HW230342   0.923   3.509   6.484 -1.5789  0.0645 -2.7860
42779SOL     OW30343   1.040  10.845   8.921 -0.4819 -0.0379  0.1762
42779SOL    HW130344   1.039  10.909   8.850  1.3390  1.1876  1.1966
42779SOL    HW230345   0.980  10.777   8.892 -0.1183  0.6276 -2.3371
42780SOL     OW30346   0.001   0.674   0.680  0.1738 -0.7011  0.4898
42780SOL    HW130347  -0.075   0.619   0.697 -0.0840 -0.2066  0.9595
42780SOL    HW230348  -0.014   0.708   0.591  0.5553 -1.7193  0.0143
42781SOL     OW30349   7.928   6.716   6.943  0.0824 -0.0340  0.1368
42781SOL    HW130350   7.854   6.766   6.977 -0.3491 -0.1184 -0.6625
42781SOL    HW230351   7.937   6.745   6.852  2.0762  1.2018  0.6614
42782SOL     OW30352   3.473   0.050   2.092  0.2457  0.7895 -0.3196
42782SOL    HW130353   3.472  -0.044   2.112 -1.4252  0.5204 -1.3823
42782SOL    HW230354   3.508   0.092   2.171 -1.5082 -0.5283  1.2408
42783SOL     OW30355   1.256   6.168   8.805 -1.0001 -0.1463 -0.0019
42783SOL    HW130356   1.294   6.198   8.722 -0.5746  0.6602  0.4699
42783SOL    HW230357   1.287   6.231   8.869 -1.3511 -0.7495  0.7735
42784SOL     OW30358   6.990   7.295   9.236  0.3366  0.1557 -0.0545
42784SOL    HW130359   6.960   7.325   9.322  2.5648 -1.2508  1.2943
42784SOL    HW230360   6.930   7.337   9.174 -1.4209  1.1223  2.1634
42785SOL     OW30361   2.201  10.640   3.383  0.5885 -0.0769 -0.6430
42785SOL    HW130362   2.157  10.715   3.344 -0.6623 -0.3931  0.1205
42785SOL    HW230363   2.131  10.579   3.405  1.4566 -0.8645  0.0389
42786SOL     OW30364   2.530   4.033   3.231 -0.0175 -0.3797 -0.3905
42786SOL    HW130365   2.564   4.009   3.145 -0.4688 -0.3328 -0.5817
42786SOL    HW230366   2.605   4.072   3.277  0.2306 -0.4399 -0.7457
42787SOL     OW30367   0.216   9.748  10.961  0.4809 -0.8949  0.3261
42787SOL    HW130368   0.141   9.700  10.928 -1.7661  1.8967  0.9697
42787SOL    HW230369   0.243   9.805  10.889 -0.4225  0.7087  1.1966
42788SOL     OW30370   1.912  10.194   4.729  0.8288 -0.4831 -0.4318
42788SOL    HW130371   1.947  10.105   4.719 -0.9844 -1.6096  2.2024
42788SOL    HW230372   1.817  10.182   4.732  0.5904  1.3739  1.0357
42789SOL     OW30373   7.120   7.875   2.335 -0.3301 -0.3339  0.7494
42789SOL    HW130374   7.053   7.912   2.278 -1.2953 -1.8795  0.8239
42789SOL    HW230375   7.191   7.850   2.275 -0.6815 -0.5296  0.4094
42790SOL     OW30376   3.526   8.046   7.467 -0.2330  0.3270 -0.2200
42790SOL    HW130377   3.576   7.965   7.477  1.2694  0.9991 -1.7012
42790SOL    HW230378   3.550   8.078   7.380 -1.0560  2.1847  0.1845
42791SOL     OW30379  10.743   3.063   0.133  0.7287 -0.6603  0.0426
42791SOL    HW130380  10.671   3.090   0.076  0.8992  0.2397  0.2515
42791SOL    HW230381  10.712   3.082   0.222  1.1785 -0.3933  0.1403
42792SOL     OW30382   1.395   2.399   9.233  0.3871 -0.5965  0.1465
42792SOL    HW130383   1.400   2.486   9.272 -2.1117 -1.1858  2.0307
42792SOL    HW230384   1.356   2.414   9.147 -0.2032  0.1358  0.5376
42793SOL     OW30385   0.732   1.403   0.653  0.6708  0.0464 -0.2748
42793SOL    HW130386   0.703   1.395   0.744  1.6021  0.5597  0.0837
42793SOL    HW230387   0.653   1.389   0.601  0.0028  0.3728  0.6295
42794SOL     OW30388   8.527   0.004   9.330  0.2786 -0.9657  0.1963
42794SOL    HW130389   8.616  -0.029   9.340  1.1565  1.2193  0.3004
42794SOL    HW230390   8.528   0.049   9.245 -0.7340 -0.9842  0.1702
42795SOL     OW30391   4.919   9.534   1.589  0.1806  0.4012  0.6422
42795SOL    HW130392   4.861   9.539   1.513 -0.2664  0.5343  0.9885
42795SOL    HW230393   4.872   9.581   1.658  0.5489  0.2113  1.0253
42796SOL     OW30394   4.962   7.977   4.082  0.5149  0.0191 -0.7701
42796SOL    HW130395   4.953   8.020   4.167  0.2087 -1.9681  0.2606
42796SOL    HW230396   5.030   8.026   4.037 -0.4460  2.1090 -0.0578
42797SOL     OW30397   1.640   2.208   3.858  0.1857 -0.6624  0.0440
42797SOL    HW130398   1.572   2.202   3.790 -0.0724  2.4981 -0.1437
42797SOL    HW230399   1.630   2.128   3.910 -1.8507 -1.5749 -1.6065
42798SOL     OW30400  10.279   3.868   7.664 -0.4890  0.0854 -0.5345
42798SOL    HW130401  10.354   3.916   7.699  1.2431 -1.8171 -1.4622
42798SOL    HW230402  10.290   3.871   7.569 -3.3911  2.4435 -0.9611
42799SOL     OW30403   6.497   1.915   6.456  0.2054  1.1391 -0.3482
42799SOL    HW130404   6.536   1.836   6.420 -2.2376 -0.2239 -0.2218
42799SOL    HW230405   6.519   1.984   6.393  0.4666 -0.1108 -1.6782
42800SOL     OW30406   1.622  10.664   4.519 -0.5910 -0.4323  0.7499
42800SOL    HW130407   1.608  10.756   4.496  3.2329  0.2047  0.3248
42800SOL    HW230408   1.619  10.617   4.436 -1.9086 -0.6632  0.8982
42801SOL     OW30409   9.045   2.833   3.122  0.4140 -0.1433 -0.3898
42801SOL    HW130410   9.025   2.741   3.133 -0.2594 -0.0579 -0.8703
42801SOL    HW230411   9.109   2.852   3.191  0.2156 -0.8550 -0.0014
42802SOL     OW30412   6.472   5.476   3.781 -0.6271 -0.2178 -0.1105
42802SOL    HW130413   6.461   5.523   3.864 -1.0728 -2.2482  1.0548
42802SOL    HW230414   6.566   5.467   3.770 -0.5701 -1.2835  1.0323
42803SOL     OW30415   6.538   9.120   0.094  0.1584  0.3538  0.2726
42803SOL    HW130416   6.539   9.089   0.003  0.0667 -0.8631  0.6710
42803SOL    HW230417   6.624   9.096   0.128  0.1943  0.8120  0.5167
42804SOL     OW30418  10.852  10.404   9.479  0.3960 -0.6038 -0.5537
42804SOL    HW130419  10.860  10.345   9.405  0.8145  0.6306 -1.5212
42804SOL    HW230420  10.904  10.480   9.455  0.3442 -0.0710  0.9079
42805SOL     OW30421  10.550  10.130   6.519  0.3664  0.7959  0.5028
42805SOL    HW130422  10.558  10.113   6.425  1.7671 -0.8368  0.8688
42805SOL    HW230423  10.461  10.163   6.530  0.4200  1.7582 -1.4839
42806SOL     OW30424   9.618   2.256   9.716 -0.1119  0.3969  0.4007
42806SOL    HW130425   9.535   2.288   9.680 -0.2744  0.3095  0.6962
42806SOL    HW230426   9.596   2.173   9.758 -0.1318  0.9874  1.5955
42807SOL     OW30427   4.943   4.472   6.968  0.1771 -0.6808  0.0094
42807SOL    HW130428   4.908   4.501   7.052  1.0285 -0.3847  0.2738
42807SOL    HW230429   4.872   4.422   6.928 -0.5809 -0.0048  0.4762
42808SOL     OW30430   0.818   5.032   9.660  0.1375 -0.5311 -0.3014
42808SOL    HW130431   0.728   5.013   9.634  0.2204 -1.3003 -0.0589
42808SOL    HW230432   0.867   5.030   9.578 -0.4299  2.4584 -0.8430
42809SOL     OW30433   6.583   1.272   7.110 -0.0948  0.2893 -0.0642
42809SOL    HW130434   6.567   1.282   7.016 -0.7255 -0.6025 -0.0563
42809SOL    HW230435   6.505   1.230   7.143  1.0905 -1.6207  0.4583
42810SOL     OW30436   5.863   1.035   8.261 -0.1986 -0.2940  0.0458
42810SOL    HW130437   5.876   0.941   8.252  1.0250 -0.1371  0.0273
42810SOL    HW230438   5.823   1.045   8.348 -0.0500 -0.8111  0.1769
42811SOL     OW30439   7.091   0.325   1.519  0.0331  0.3436 -0.4601
42811SOL    HW130440   7.167   0.381   1.536 -1.1849  1.9564 -0.0656
42811SOL    HW230441   7.122   0.236   1.536  1.7979  0.9591 -0.2408
42812SOL     OW30442  10.658   3.946   3.417  0.4930  0.2927 -0.0153
42812SOL    HW130443  10.721   4.015   3.438 -0.1561  0.4794  1.4691
42812SOL    HW230444  10.628   3.967   3.329  1.0495  1.3274  0.0263
42813SOL     OW30445   2.603   1.391   2.772 -0.5120  0.1687 -0.6847
42813SOL    HW130446   2.541   1.339   2.720 -1.8928 -0.5895  1.5578
42813SOL    HW230447   2.622   1.336   2.848 -0.5012  2.1409  0.8222
42814SOL     OW30448   9.394   9.790   4.948 -0.0568  0.4269 -0.5440
42814SOL    HW130449   9.377   9.883   4.932 -0.2464  0.4172 -0.3967
42814SOL    HW230450   9.488   9.785   4.966 -0.1650  0.6849  0.1232
42815SOL     OW30451   7.776   7.670   9.196 -0.4692 -0.0533  0.0589
42815SOL    HW130452   7.849   7.627   9.152 -0.0412  0.2730  0.4417
42815SOL    HW230453   7.709   7.680   9.128 -0.3642 -0.8168 -0.1671
42816SOL     OW30454   5.845   2.812   3.987 -0.3465 -0.1612  0.0505
42816SOL    HW130455   5.760   2.855   3.991  0.8658  2.3610  0.8637
42816SOL    HW230456   5.908   2.882   4.001  1.8978 -1.9412 -0.4993
42817SOL     OW30457   4.327  10.303   9.240  0.5903 -0.0282  0.2906
42817SOL    HW130458   4.343  10.285   9.148 -0.0081  1.3295 -0.0992
42817SOL    HW230459   4.236  10.279   9.254  0.6955 -0.2865  0.5521
42818SOL     OW30460   5.825   3.258   8.286 -0.2495 -0.7491  0.4715
42818SOL    HW130461   5.855   3.284   8.373 -0.0521  2.5903 -0.4288
42818SOL    HW230462   5.733   3.282   8.283  0.3692  1.8769 -0.9998
42819SOL     OW30463   3.369   5.046   6.726  0.8961  0.0251  0.1583
42819SOL    HW130464   3.352   5.139   6.709 -3.1631 -0.0991  2.2376
42819SOL    HW230465   3.398   5.044   6.818  1.5138 -0.7586 -0.0452
42820SOL     OW30466   9.535   6.947   2.337 -0.1116  0.0385 -0.9001
42820SOL    HW130467   9.534   6.950   2.433  0.1212 -1.2830 -0.8343
42820SOL    HW230468   9.590   6.872   2.317  1.6318  1.5507 -2.1300
42821SOL     OW30469   9.976   7.612  11.079 -0.3385  0.1429  0.0310
42821SOL    HW130470   9.889   7.580  11.055 -1.0510 -0.2838  2.7717
42821SOL    HW230471  10.032   7.534  11.077 -0.5617 -0.0313  0.4087
42822SOL     OW30472   3.929   4.543   5.043 -0.2697  0.6890 -0.4554
42822SOL    HW130473   3.968   4.568   5.127  1.8579 -2.4365 -0.3365
42822SOL    HW230474   3.835   4.535   5.061  0.3864 -3.3846  2.8729
42823SOL     OW30475   2.411   9.160   5.685 -0.2217 -0.5439  0.4920
42823SOL    HW130476   2.341   9.225   5.678  0.5581  0.2096 -0.7779
42823SOL    HW230477   2.366   9.078   5.704 -1.6407 -0.3939 -1.8220
42824SOL     OW30478   9.881   9.574   5.471 -0.1042 -0.8266 -0.0271
42824SOL    HW130479   9.792   9.541   5.458 -0.7360  0.2364  1.3282
42824SOL    HW230480   9.885   9.654   5.420  0.7083 -1.7734 -1.5366
42825SOL     OW30481   8.753  10.417  10.302 -0.2744  0.6391  0.2608
42825SOL    HW130482   8.660  10.435  10.286 -0.2294  0.9775  0.3686
42825SOL    HW230483   8.756  10.325  10.326 -0.7305  0.9263  1.4828
42826SOL     OW30484   0.652   6.002   2.642  0.8065  0.6599 -0.1601
42826SOL    HW130485   0.567   6.015   2.684  0.7624  0.3938 -0.1646
42826SOL    HW230486   0.645   5.916   2.601  1.4720  0.1351  0.7983
42827SOL     OW30487  10.127   3.810   1.212 -0.5536 -0.0383  0.2819
42827SOL    HW130488  10.102   3.725   1.247 -0.2543  0.0622  0.7601
42827SOL    HW230489  10.183   3.848   1.280 -3.4061  2.0101  1.7121
42828SOL     OW30490  10.845   0.736  10.226 -0.1154 -0.0472  0.5257
42828SOL    HW130491  10.902   0.660  10.242  0.7578  0.7286  1.2117
42828SOL    HW230492  10.776   0.702  10.169  0.6236 -1.2024  0.2700
42829SOL     OW30493   3.425   0.081  10.032  0.2385 -0.2065  0.9095
42829SOL    HW130494   3.469   0.132  10.100  1.2789  1.7670 -1.0970
42829SOL    HW230495   3.497   0.045   9.979 -0.5397 -0.5642  0.0668
42830SOL     OW30496   4.894   4.446   1.148  0.7628  0.2546 -0.4423
42830SOL    HW130497   4.859   4.402   1.070 -2.5161  3.0067 -0.7666
42830SOL    HW230498   4.910   4.375   1.210 -0.4212 -1.6962 -2.2210
42831SOL     OW30499   5.113   2.443   6.874  0.1898 -0.8548  0.0559
42831SOL    HW130500   5.187   2.503   6.874  0.5329 -1.2664 -0.6639
42831SOL    HW230501   5.102   2.419   6.966  0.1168  0.2092  0.3392
42832SOL     OW30502   6.965   5.465   8.451 -0.3350 -0.3586 -0.5818
42832SOL    HW130503   6.956   5.421   8.536  1.4502  1.1824  0.4857
42832SOL    HW230504   7.011   5.546   8.471  3.2891 -1.4590 -3.4515
42833SOL     OW30505   5.024   5.830   2.403 -0.4928  0.5376  0.2327
42833SOL    HW130506   5.025   5.922   2.430  2.0915  0.0881  1.9159
42833SOL    HW230507   4.960   5.788   2.460 -0.3677  0.9532  0.6768
42834SOL     OW30508   0.264   1.921   7.762 -0.1282  0.8366 -0.3305
42834SOL    HW130509   0.183   1.885   7.726 -0.0829  0.1090  0.2590
42834SOL    HW230510   0.298   1.977   7.693 -0.4708  0.1316 -1.0941
42835SOL     OW30511   1.908  10.744   3.697  0.1455  0.5594 -0.4940
42835SOL    HW130512   1.924  10.688   3.773 -1.4184  2.6773  1.5598
42835SOL    HW230513   1.981  10.806   3.697  0.5957  0.0345 -1.2606
42836SOL     OW30514   3.766   4.068   3.566  0.1460  0.3411 -0.2218
42836SOL    HW130515   3.799   4.144   3.614 -0.2209  0.8921 -0.8354
42836SOL    HW230516   3.693   4.036   3.620  1.3793 -0.6473  0.9367
42837SOL     OW30517   3.582   1.882   5.365  0.2720  0.0578  0.4453
42837SOL    HW130518   3.613   1.862   5.453 -0.8196  0.2748  0.8940
42837SOL    HW230519   3.662   1.904   5.316  0.8527  0.3271  1.4783
42838SOL     OW30520   5.930   2.890   6.961  0.0352  0.4158  0.2424
42838SOL    HW130521   5.933   2.923   7.051  0.3603  1.5107 -0.1613
42838SOL    HW230522   5.979   2.954   6.910 -2.0486  1.0381 -1.0891
42839SOL     OW30523   0.842   5.783   9.929 -0.1101  0.3710  0.0801
42839SOL    HW130524   0.879   5.695   9.935  1.3604  0.9421 -0.0113
42839SOL    HW230525   0.916   5.838   9.900 -1.0546  1.5847 -0.1223
42840SOL     OW30526   2.805   6.228   6.728  0.0796  0.5474  0.4432
42840SOL    HW130527   2.864   6.303   6.724  1.3366 -0.4388 -1.1440
42840SOL    HW230528   2.733   6.252   6.669  1.0896  0.0947 -1.0584
42841SOL     OW30529   4.146  10.652   8.108  0.1928 -0.6117 -0.5555
42841SOL    HW130530   4.186  10.698   8.034  0.9674 -2.1819 -1.1643
42841SOL    HW230531   4.214  10.653   8.176 -1.1403  2.4550  0.9706
42842SOL     OW30532   8.004   4.583   6.129  0.0356 -0.3847  0.2354
42842SOL    HW130533   7.926   4.554   6.177  1.9648 -0.2240  3.8754
42842SOL    HW230534   8.077   4.547   6.180  2.3867 -0.0644 -2.6678
42843SOL     OW30535   6.005   0.361   7.471 -0.1589  0.0650 -0.0314
42843SOL    HW130536   5.955   0.433   7.509  1.0033  1.1983 -0.5653
42843SOL    HW230537   5.959   0.339   7.390 -0.6821 -0.0082  0.2819
42844SOL     OW30538   0.400   7.578   7.732 -0.0751  0.2980 -0.1609
42844SOL    HW130539   0.373   7.503   7.679  0.3572  0.1912 -0.2315
42844SOL    HW230540   0.492   7.562   7.753 -0.2128  0.3860  0.5479
42845SOL     OW30541   1.387   7.039   1.954  0.0148 -0.5154 -0.1972
42845SOL    HW130542   1.327   6.982   1.906 -1.7156 -0.0773  1.3491
42845SOL    HW230543   1.335   7.115   1.978  1.7783  0.8679 -0.5695
42846SOL     OW30544  10.293   7.376   7.431 -0.2843  0.3271  0.0179
42846SOL    HW130545  10.247   7.352   7.511  1.2211  0.5684  0.9821
42846SOL    HW230546  10.224   7.407   7.372 -1.5520 -0.8797  0.8062
42847SOL     OW30547   6.397   5.986   7.384 -0.0443 -0.5775  0.0080
42847SOL    HW130548   6.408   5.892   7.398  0.1862 -0.7825 -1.4005
42847SOL    HW230549   6.472   6.026   7.429 -0.4126 -1.0122  1.0347
42848SOL     OW30550   9.725   2.460   9.144 -0.6857  0.0420  0.1871
42848SOL    HW130551   9.748   2.535   9.089  2.2849 -0.2617  0.8319
42848SOL    HW230552   9.739   2.384   9.088 -1.6557 -0.1460  0.1763
42849SOL     OW30553   4.712   2.650   9.612  0.0177 -0.5884  0.3024
42849SOL    HW130554   4.792   2.702   9.624  0.7482 -1.4999 -0.4485
42849SOL    HW230555   4.743   2.562   9.591 -1.1324 -2.0357  3.9423
42850SOL     OW30556   9.975   3.124   7.507 -0.1749  0.0046 -0.5051
42850SOL    HW130557   9.888   3.106   7.471 -1.3011  1.9613  1.0447
42850SOL    HW230558   9.966   3.208   7.551  2.3598 -0.0487  0.2794
42851SOL     OW30559   9.170   2.004   7.743 -1.2541 -0.0862  0.0009
42851SOL    HW130560   9.228   1.929   7.734  0.7187  1.4053 -0.2914
42851SOL    HW230561   9.105   1.992   7.674  0.3520 -0.4255 -1.5241
42852SOL     OW30562   4.838   7.067   6.732  0.0493  0.2483 -0.1468
42852SOL    HW130563   4.759   7.066   6.678  0.3753 -0.4223 -0.6330
42852SOL    HW230564   4.906   7.028   6.676  0.8176  1.1502  0.1313
42853SOL     OW30565   1.149   6.100   9.269 -0.1693 -0.9565  0.1609
42853SOL    HW130566   1.234   6.143   9.263 -0.0341 -1.3065 -0.7259
42853SOL    HW230567   1.120   6.091   9.178 -1.9760  0.7210  0.5040
42854SOL     OW30568   9.826   7.432   4.792  0.1705 -0.3262  0.2408
42854SOL    HW130569   9.820   7.339   4.770 -1.0526 -0.1645 -0.1806
42854SOL    HW230570   9.827   7.435   4.888  2.6263 -0.8770  0.2972
42855SOL     OW30571   3.555   2.685   2.706 -0.7801 -0.7022  0.3250
42855SOL    HW130572   3.576   2.749   2.638  1.1551 -1.2208  0.3765
42855SOL    HW230573   3.477   2.641   2.673 -0.6137 -0.0922 -0.9699
42856SOL     OW30574   9.305   8.654  11.092  0.8232  0.0978  0.2213
42856SOL    HW130575   9.257   8.710  11.152  0.8206  0.1961  0.1282
42856SOL    HW230576   9.299   8.699  11.007  0.2150 -0.3905 -0.0038
42857SOL     OW30577   2.447   8.079   4.014 -0.4837 -0.1030 -0.0113
42857SOL    HW130578   2.444   7.986   4.034  0.3676 -0.1197  0.0562
42857SOL    HW230579   2.412   8.122   4.092 -0.3718 -0.3375  0.1663
42858SOL     OW30580   3.588   6.669   6.543  0.7821 -0.7731 -0.5741
42858SOL    HW130581   3.640   6.659   6.464 -0.4800 -0.0186 -1.5422
42858SOL    HW230582   3.651   6.668   6.615  2.2688  1.2679 -1.7520
42859SOL     OW30583   3.328   0.678   8.513  1.0303  0.3552  0.9446
42859SOL    HW130584   3.367   0.592   8.532  0.4392  0.1886  1.4507
42859SOL    HW230585   3.326   0.682   8.418  1.5215  0.0162  0.9141
42860SOL     OW30586   3.024  10.907   3.185  0.1730  0.0378  0.6044
42860SOL    HW130587   2.970  10.982   3.159 -1.6179 -0.8753  1.5305
42860SOL    HW230588   3.103  10.946   3.224 -0.3245  1.4167  0.2885
42861SOL     OW30589   2.347   1.091   6.716  0.5175  0.4838 -0.0431
42861SOL    HW130590   2.400   1.026   6.669  3.3097  2.8078 -0.4141
42861SOL    HW230591   2.393   1.103   6.799 -2.3562 -0.9661  1.9041
42862SOL     OW30592   8.337  10.716   4.349 -0.0613 -0.7696  0.0312
42862SOL    HW130593   8.312  10.717   4.441 -0.1246 -0.3352  0.0121
42862SOL    HW230594   8.327  10.807   4.320  0.5304 -0.7891 -0.2536
42863SOL     OW30595   1.918   5.025   3.901 -0.1494 -0.2622  0.3215
42863SOL    HW130596   2.012   5.013   3.893 -0.1904 -0.4674  0.1495
42863SOL    HW230597   1.907   5.085   3.975 -0.0433 -2.7669  2.5146
42864SOL     OW30598  10.513  11.087   5.143  0.0111  0.0400 -0.3982
42864SOL    HW130599  10.529  11.117   5.232 -1.1298 -0.4361 -0.0115
42864SOL    HW230600  10.531  10.993   5.146 -2.5785 -0.5126  0.0500
42865SOL     OW30601   9.583   6.216   1.690  0.7904  0.1971  0.3321
42865SOL    HW130602   9.637   6.282   1.734  1.0288 -0.5625  1.2017
42865SOL    HW230603   9.535   6.265   1.623 -0.6549  1.6757  2.3218
42866SOL     OW30604   9.882   7.278   4.328 -0.5082  0.4542 -0.2444
42866SOL    HW130605   9.836   7.211   4.378 -0.3962  0.6638  0.1442
42866SOL    HW230606   9.846   7.361   4.359  0.5289  0.6508  0.4898
42867SOL     OW30607   0.215   8.259   7.662  0.3841  0.9120  0.1035
42867SOL    HW130608   0.277   8.323   7.629  1.1928  0.6410  1.0478
42867SOL    HW230609   0.132   8.281   7.619  1.2779  0.8213 -1.7327
42868SOL     OW30610   6.557   8.168   4.875 -0.0671  0.5719 -0.2923
42868SOL    HW130611   6.548   8.105   4.946 -1.9549  1.4117  0.2948
42868SOL    HW230612   6.560   8.115   4.795 -0.1946 -0.3137  0.2794
42869SOL     OW30613   5.088   3.413   6.468 -0.5052 -0.1127  0.4781
42869SOL    HW130614   5.086   3.317   6.468 -2.5966 -0.1187 -0.0772
42869SOL    HW230615   5.180   3.435   6.483  0.4947 -2.2227 -1.7847
42870SOL     OW30616   6.114   0.790   0.533 -0.2263  0.5149 -0.1754
42870SOL    HW130617   6.145   0.721   0.475  2.5504 -0.6330  2.4403
42870SOL    HW230618   6.189   0.848   0.544 -0.9257  1.1566  1.6057
42871SOL     OW30619   2.275   0.921   5.362  0.5315  0.3477  0.3050
42871SOL    HW130620   2.356   0.871   5.352  0.8641  1.1335 -1.4633
42871SOL    HW230621   2.267   0.936   5.456  3.0415  1.1533  0.4716
42872SOL     OW30622   4.883   8.964   9.197  0.0132  0.3433  0.2702
42872SOL    HW130623   4.843   8.943   9.281 -2.6268 -2.4602 -1.4680
42872SOL    HW230624   4.844   9.048   9.172  0.3182  0.8696  1.4962
42873SOL     OW30625  11.018   0.257   3.548  0.3350 -0.5301  0.2510
42873SOL    HW130626  10.938   0.215   3.517  0.6129 -0.4360 -0.6335
42873SOL    HW230627  11.079   0.249   3.474  1.0552 -0.3808  0.8213
42874SOL     OW30628   4.802   1.911   5.792  0.0060 -0.2285  0.1405
42874SOL    HW130629   4.783   1.820   5.813  0.2566  0.0817  1.9007
42874SOL    HW230630   4.774   1.960   5.870  0.4212  1.1326 -0.5279
42875SOL     OW30631   1.371   7.068   9.127 -0.4073 -0.1546  0.0825
42875SOL    HW130632   1.408   6.981   9.112 -2.4922 -1.2155  0.6856
42875SOL    HW230633   1.377   7.081   9.221 -0.6031  0.1152  0.0590
42876SOL     OW30634   8.378   7.315   5.607 -0.6106  0.1686  0.1115
42876SOL    HW130635   8.357   7.336   5.516 -0.5775  1.8564  0.4559
42876SOL    HW230636   8.348   7.225   5.619 -1.2370  0.1549 -1.3632
42877SOL     OW30637   5.772   4.832   5.308 -0.1563  0.1951  0.4397
42877SOL    HW130638   5.820   4.890   5.366 -2.1035  0.7736  1.5805
42877SOL    HW230639   5.730   4.769   5.366  2.0480 -2.5816 -0.7620
42878SOL     OW30640   5.955   4.406   6.029  0.1336  0.3376 -0.2199
42878SOL    HW130641   5.867   4.410   6.067 -0.1652  1.5568 -1.0282
42878SOL    HW230642   6.013   4.416   6.105 -0.4293  0.7483  0.1675
42879SOL     OW30643   9.888   3.904   7.159  0.1916  0.4325 -0.2843
42879SOL    HW130644   9.886   3.969   7.229  3.6060 -2.0032  2.4004
42879SOL    HW230645   9.981   3.894   7.137 -0.2994 -2.4516 -1.6160
42880SOL     OW30646   1.034   4.317  10.501 -0.3592  0.1145 -0.1893
42880SOL    HW130647   1.033   4.221  10.499 -1.8062  0.0929  0.2257
42880SOL    HW230648   1.111   4.341  10.450  1.2123 -1.2976  1.3741
42881SOL     OW30649  11.025   9.369   9.251  0.4576  0.3807  0.5732
42881SOL    HW130650  11.060   9.283   9.229  1.0473  0.4064  1.3779
42881SOL    HW230651  10.953   9.382   9.189 -0.2378 -1.0758  1.0519
42882SOL     OW30652   2.315   2.703   2.686 -0.6271 -0.3342  0.2269
42882SOL    HW130653   2.274   2.787   2.706 -0.7414  0.1441 -1.7679
42882SOL    HW230654   2.264   2.639   2.734 -3.1648  0.3395 -1.3776
42883SOL     OW30655   4.810  10.697  10.788  0.2185 -0.6387 -0.7452
42883SOL    HW130656   4.886  10.639  10.784  1.0112  0.3673 -0.6939
42883SOL    HW230657   4.768  10.688  10.702  0.3660 -1.2405 -0.7555
42884SOL     OW30658   0.734   2.802   2.834  0.8103 -0.0906 -0.5269
42884SOL    HW130659   0.692   2.887   2.819 -0.3600 -0.3191  1.1908
42884SOL    HW230660   0.753   2.769   2.746 -1.1364  0.7712 -1.3294
42885SOL     OW30661   9.606   1.897   1.178  0.2758  0.4743 -0.2306
42885SOL    HW130662   9.586   1.987   1.202 -2.9703 -0.0014 -0.6999
42885SOL    HW230663   9.570   1.845   1.250  0.1381 -0.5022 -0.9797
42886SOL     OW30664   7.685   9.650  10.267 -0.4157  0.1225  0.2273
42886SOL    HW130665   7.756   9.694  10.313 -1.5024  1.6067  0.5681
42886SOL    HW230666   7.608   9.668  10.320 -1.0862 -1.3104 -0.2241
42887SOL     OW30667   8.528   2.661   4.216 -0.2625  0.8589 -0.0750
42887SOL    HW130668   8.487   2.574   4.212  1.4545 -0.1218  1.8378
42887SOL    HW230669   8.572   2.671   4.131 -1.4753  0.4303 -0.7854
42888SOL     OW30670   9.096   9.329   7.294  0.6642  0.0173 -0.6581
42888SOL    HW130671   9.136   9.369   7.217 -1.0697 -0.6588 -1.9998
42888SOL    HW230672   9.056   9.248   7.261 -2.1468  0.8442  0.3606
42889SOL     OW30673   0.580   5.896   3.174 -0.3568  0.0023 -0.0533
42889SOL    HW130674   0.620   5.844   3.244  0.3910  1.1525  0.4079
42889SOL    HW230675   0.633   5.877   3.097 -0.0708  0.0938  0.1186
42890SOL     OW30676   9.131  10.199   6.731  0.1975  0.1347  0.0710
42890SOL    HW130677   9.210  10.233   6.772  0.8545 -1.1356 -0.1072
42890SOL    HW230678   9.101  10.129   6.789 -1.2680  1.0993  0.5520
42891SOL     OW30679   0.898   8.945  10.529  0.5808  0.3811 -0.0872
42891SOL    HW130680   0.917   8.860  10.489  0.3807  1.0735 -1.7322
42891SOL    HW230681   0.984   8.978  10.557  0.8495  0.2574 -0.7481
42892SOL     OW30682  10.328   6.859   8.213 -0.2774 -0.2903 -0.5592
42892SOL    HW130683  10.400   6.796   8.204  1.5963  1.3443  1.6820
42892SOL    HW230684  10.332   6.912   8.134  1.8367  0.5150  0.0230
42893SOL     OW30685   0.230   2.959   5.269 -0.3737 -0.2029 -0.5525
42893SOL    HW130686   0.277   2.987   5.191 -2.0146  0.1427 -1.4672
42893SOL    HW230687   0.287   2.893   5.309  0.6831 -0.1089 -1.8249
42894SOL     OW30688   4.438   5.787   1.077 -0.5055 -0.2186  0.1897
42894SOL    HW130689   4.396   5.873   1.075  2.1391  1.1906  0.5569
42894SOL    HW230690   4.491   5.788   1.157 -0.5752 -2.2925  0.3013
42895SOL     OW30691   3.995  10.090   0.152 -0.7561 -0.0886 -0.1585
42895SOL    HW130692   4.071  10.103   0.209 -1.1928 -1.3822  0.7760
42895SOL    HW230693   3.980  10.175   0.112  0.8326  0.3329  0.0722
42896SOL     OW30694   5.590   9.192   9.479  0.2228 -0.2799  0.1164
42896SOL    HW130695   5.509   9.158   9.517 -0.0932  1.8753  1.5356
42896SOL    HW230696   5.644   9.115   9.465 -0.6350 -1.4503  2.6655
42897SOL     OW30697   7.385   8.574   1.994  0.2799  0.0159 -0.0894
42897SOL    HW130698   7.357   8.552   1.905  0.5150 -0.8213  0.0408
42897SOL    HW230699   7.321   8.533   2.051 -0.5898  1.5768  0.1294
42898SOL     OW30700  10.007   2.256   6.081  0.2299  0.1589  0.1619
42898SOL    HW130701  10.052   2.276   6.163 -0.0716  2.0765 -0.1011
42898SOL    HW230702   9.984   2.341   6.044  1.4390 -0.5576 -2.5291
42899SOL     OW30703   7.805  10.091   4.274  0.1181 -0.0484  0.2203
42899SOL    HW130704   7.872  10.094   4.343  0.1180 -2.0625  0.3442
42899SOL    HW230705   7.835  10.023   4.214 -0.4117  0.9724 -1.2715
42900SOL     OW30706   0.661   9.998   8.043  0.8164  0.1964  0.0435
42900SOL    HW130707   0.583  10.049   8.022  1.0160  0.1871 -0.7239
42900SOL    HW230708   0.696   9.971   7.958 -0.0482 -2.3726  0.3873
42901SOL     OW30709   8.824   9.166   4.417  0.5029 -0.5096 -0.1196
42901SOL    HW130710   8.824   9.236   4.352 -0.0445 -2.1332 -1.9431
42901SOL    HW230711   8.876   9.096   4.379 -0.4480 -1.8003  0.8331
42902SOL     OW30712   3.812   0.241   6.437  0.0556 -0.1987 -0.3570
42902SOL    HW130713   3.880   0.302   6.465 -0.1560  0.7214 -1.7412
42902SOL    HW230714   3.857   0.157   6.428  1.3122  0.6009 -2.2771
42903SOL     OW30715   9.887   1.103  10.992 -0.0222 -0.6137 -0.3652
42903SOL    HW130716   9.974   1.097  11.031  0.2726  0.5307 -0.7822
42903SOL    HW230717   9.827   1.074  11.060  0.4911  1.0907  0.8679
42904SOL     OW30718   0.204   0.985   4.168  0.1702  0.8336  0.6704
42904SOL    HW130719   0.139   0.948   4.108  1.4651  1.5394 -1.2984
42904SOL    HW230720   0.156   1.047   4.222 -0.9043  0.9218 -0.3560
42905SOL     OW30721   5.233   2.031   8.469 -0.6923 -0.6094  0.0783
42905SOL    HW130722   5.298   2.084   8.422 -1.3114  0.9406  0.8993
42905SOL    HW230723   5.162   2.019   8.406 -0.5969 -0.3564 -0.0788
42906SOL     OW30724   0.488   3.498  10.155 -0.0287 -0.3845 -0.5851
42906SOL    HW130725   0.494   3.579  10.105  0.9631  0.1600  0.4035
42906SOL    HW230726   0.574   3.457  10.145 -0.3784 -1.1013 -0.7126
42907SOL     OW30727   9.407   1.301   8.047 -0.8319 -0.1894  0.2829
42907SOL    HW130728   9.342   1.266   7.987 -1.0680 -1.3483  1.2029
42907SOL    HW230729   9.462   1.226   8.070  0.7187  0.7060 -0.2857
42908SOL     OW30730   6.326   1.746   7.130  0.0749  0.5746 -0.6004
42908SOL    HW130731   6.299   1.798   7.054 -0.9286  0.7597 -0.1319
42908SOL    HW230732   6.304   1.801   7.205  1.6910  0.6930 -0.1742
42909SOL     OW30733  10.500   1.242   7.088  0.3066  0.0667  0.1969
42909SOL    HW130734  10.570   1.188   7.051 -0.3294 -0.1134 -0.7757
42909SOL    HW230735  10.419   1.199   7.060 -0.2141 -0.1890  1.9783
42910SOL     OW30736   8.679   9.731   4.300 -0.4171  0.5185 -0.6424
42910SOL    HW130737   8.746   9.679   4.346  0.2786  0.8392 -1.2586
42910SOL    HW230738   8.620   9.666   4.263  0.3890  0.1479 -1.3182
42911SOL     OW30739  10.671   3.586   9.247 -0.3939 -0.5759 -0.0463
42911SOL    HW130740  10.666   3.515   9.311 -1.9680  0.2239  0.7886
42911SOL    HW230741  10.736   3.557   9.183 -0.0270 -2.1591  0.9946
42912SOL     OW30742   4.421   0.406   5.215  0.0033 -0.0691 -0.2976
42912SOL    HW130743   4.413   0.461   5.293 -2.0697  0.0722 -0.5476
42912SOL    HW230744   4.342   0.351   5.216 -0.0157 -0.1512 -2.2141
42913SOL     OW30745   1.718   0.733   6.231 -0.7538 -0.7206 -0.0241
42913SOL    HW130746   1.773   0.809   6.250  0.0467 -1.7331  2.0018
42913SOL    HW230747   1.634   0.752   6.272 -1.1386 -0.2059 -1.0292
42914SOL     OW30748   8.511  10.527   3.850 -0.0487  0.2334 -0.0120
42914SOL    HW130749   8.425  10.570   3.859  0.9515  2.1634  1.0343
42914SOL    HW230750   8.507  10.485   3.764 -3.2036 -2.6568  1.2994
42915SOL     OW30751   1.591   6.019   5.080  0.5256 -0.4939 -0.2379
42915SOL    HW130752   1.623   5.967   5.153  2.3859 -0.2605 -0.8513
42915SOL    HW230753   1.618   6.108   5.100  0.5603 -0.3411 -0.9404
42916SOL     OW30754   8.849   8.946   6.494  0.8557  0.1792 -0.0127
42916SOL    HW130755   8.755   8.959   6.509  0.2564 -1.3271 -2.0046
42916SOL    HW230756   8.884   9.035   6.488 -0.4962  0.7783  0.4765
42917SOL     OW30757   2.419   3.872  10.436  0.1001  0.0768 -0.2615
42917SOL    HW130758   2.359   3.873  10.511  0.2088 -0.2347 -0.1705
42917SOL    HW230759   2.362   3.882  10.360 -0.0764 -0.2923 -0.1803
42918SOL     OW30760   7.268   1.632   3.240  0.3215  0.2474 -0.2533
42918SOL    HW130761   7.328   1.634   3.165  0.5660  0.1250 -0.0619
42918SOL    HW230762   7.278   1.719   3.280 -0.0191  0.4155 -0.5233
42919SOL     OW30763   0.807   6.089   4.181 -0.1788 -0.6049  0.1113
42919SOL    HW130764   0.729   6.068   4.129 -0.7984 -1.7577  1.4228
42919SOL    HW230765   0.776   6.154   4.244 -0.7700 -2.6676  2.1018
42920SOL     OW30766   2.241   1.669   2.963  0.1305  0.0397  0.1641
42920SOL    HW130767   2.333   1.673   2.938  0.3098 -1.1189  0.5433
42920SOL    HW230768   2.232   1.734   3.032  0.3645  1.0260 -0.7082
42921SOL     OW30769  10.148   2.420   7.311 -0.3495  0.4956 -0.0990
42921SOL    HW130770  10.171   2.336   7.352  0.1308 -0.6892 -2.6318
42921SOL    HW230771  10.232   2.456   7.283 -0.7291  0.8150 -0.8469
42922SOL     OW30772   2.783   2.774   5.965 -0.1476 -0.2590 -0.4642
42922SOL    HW130773   2.848   2.706   5.950  0.5721  0.6447 -1.6501
42922SOL    HW230774   2.816   2.823   6.041 -0.6621 -1.1765  0.3848
42923SOL     OW30775   8.249   7.452   5.075  0.3184 -0.6019 -0.2360
42923SOL    HW130776   8.224   7.385   5.139 -1.1291  0.3229  0.2149
42923SOL    HW230777   8.343   7.464   5.088  0.2375 -1.1827  0.9943
42924SOL     OW30778   3.621   9.000   4.786  0.5870  0.0099  0.2707
42924SOL    HW130779   3.561   8.928   4.767  1.2704 -0.2288 -1.1576
42924SOL    HW230780   3.571   9.060   4.840 -0.9069 -0.2496 -0.7574
42925SOL     OW30781   2.542   3.036   6.873  0.0402 -0.2183  0.5999
42925SOL    HW130782   2.485   2.995   6.807  0.6345  1.1967 -0.8787
42925SOL    HW230783   2.505   3.009   6.957  0.4021 -3.6877 -0.2294
42926SOL     OW30784   6.810   5.051   1.513 -0.1313 -0.2763 -0.6749
42926SOL    HW130785   6.892   5.083   1.550 -1.3222  0.7051  1.2945
42926SOL    HW230786   6.796   5.103   1.434 -1.0964  2.9172  1.4512
42927SOL     OW30787   4.964   1.847   6.361  0.1520 -0.1570 -0.4400
42927SOL    HW130788   4.933   1.799   6.285  1.8765 -0.4993 -0.9567
42927SOL    HW230789   4.983   1.780   6.426 -1.5021  0.1442  0.4095
42928SOL     OW30790   2.199   0.172   1.367 -0.3803 -0.0901  0.0723
42928SOL    HW130791   2.282   0.135   1.398 -1.7030 -1.6525  2.1123
42928SOL    HW230792   2.212   0.266   1.369  0.3240 -0.0875  3.9403
42929SOL     OW30793   4.918   5.137  10.742 -0.7343 -0.2214 -0.4539
42929SOL    HW130794   4.848   5.079  10.711 -1.2215  0.4388 -0.6290
42929SOL    HW230795   4.883   5.225  10.728  0.4964  0.1451 -1.3767
42930SOL     OW30796   3.512   4.371   5.783  0.3048 -0.5956 -1.0421
42930SOL    HW130797   3.484   4.453   5.824 -1.2717 -1.7398  0.3357
42930SOL    HW230798   3.606   4.367   5.799  0.6009  1.3833 -2.0091
42931SOL     OW30799  10.753   8.890   6.444 -0.1146 -0.3480  0.3368
42931SOL    HW130800  10.737   8.844   6.526 -4.5122  0.8561  0.4407
42931SOL    HW230801  10.739   8.824   6.376 -0.0999 -0.5401  0.5186
42932SOL     OW30802   8.425   0.630   1.130 -0.6073 -0.3711  0.6401
42932SOL    HW130803   8.435   0.655   1.038  2.0394 -0.8379  0.7146
42932SOL    HW230804   8.332   0.642   1.148 -0.8034  2.0806 -1.4061
42933SOL     OW30805   4.872   2.286   2.096 -0.1930  0.1193  0.4534
42933SOL    HW130806   4.840   2.265   2.184 -3.0977  0.3252 -0.4435
42933SOL    HW230807   4.841   2.215   2.041  0.1502  0.8089 -0.6687
42934SOL     OW30808   4.671   0.760  10.273  0.2274 -0.7297  0.2547
42934SOL    HW130809   4.690   0.796  10.360 -1.6291 -0.3573  0.5457
42934SOL    HW230810   4.757   0.745  10.234  1.1297 -1.4816  2.3797
42935SOL     OW30811   0.130   6.343   2.894  0.5229 -0.6241 -0.8173
42935SOL    HW130812   0.098   6.272   2.837 -0.0099 -2.2646  1.3932
42935SOL    HW230813   0.213   6.311   2.928  0.5665  0.0627 -0.2585
42936SOL     OW30814   1.502  10.385   8.142  0.4052 -0.5900  0.0978
42936SOL    HW130815   1.473  10.333   8.217 -1.3078  0.7518  0.4207
42936SOL    HW230816   1.495  10.476   8.170 -2.5193  0.0906 -2.3307
42937SOL     OW30817   0.085   2.541   1.725  0.2605  0.0471 -0.6228
42937SOL    HW130818   0.017   2.604   1.703  1.0361  0.4165 -2.0559
42937SOL    HW230819   0.038   2.458   1.734 -0.3417  0.1555 -2.3099
42938SOL     OW30820  10.108   4.959   7.985  0.1252  0.1766 -0.2453
42938SOL    HW130821  10.111   5.049   8.018 -1.3682  0.0838  0.2125
42938SOL    HW230822  10.153   4.908   8.052  1.8020  0.6613 -0.9386
42939SOL     OW30823   4.837   9.353   5.933  0.0713 -0.5953  0.1570
42939SOL    HW130824   4.898   9.424   5.952  1.4019 -1.7443  0.3263
42939SOL    HW230825   4.786   9.343   6.013 -0.5245  0.5141 -0.0595
42940SOL     OW30826   6.356  11.007   9.719  0.3053 -0.0697 -0.3867
42940SOL    HW130827   6.433  11.061   9.737  1.4194 -1.4970 -0.6749
42940SOL    HW230828   6.388  10.917   9.726 -1.0911 -0.6925 -1.5375
42941SOL     OW30829   9.214   1.244   7.845 -0.7557 -0.0508 -0.5047
42941SOL    HW130830   9.224   1.151   7.822 -2.4225 -0.4170  0.1392
42941SOL    HW230831   9.185   1.285   7.763 -5.1176 -1.0789  0.2651
42942SOL     OW30832   9.380   8.574   4.038  0.0813 -0.3353  0.1416
42942SOL    HW130833   9.392   8.654   4.090  0.5254  0.1016 -0.6071
42942SOL    HW230834   9.326   8.517   4.093 -1.9282  1.2435 -0.0663
42943SOL     OW30835   9.853   7.746   1.300  0.6245  0.2699  0.5979
42943SOL    HW130836   9.829   7.761   1.391 -1.9456  4.0324 -0.4395
42943SOL    HW230837   9.948   7.750   1.299  0.6605  2.9264  2.8347
42944SOL     OW30838   5.535   2.116   1.816  0.5124 -0.0323 -0.4832
42944SOL    HW130839   5.550   2.162   1.899 -0.3442 -0.4351 -0.0878
42944SOL    HW230840   5.576   2.171   1.750  1.8957 -0.0867  0.2932
42945SOL     OW30841   3.306   9.922   3.113 -0.4388 -0.5674 -0.8926
42945SOL    HW130842   3.239   9.989   3.098 -0.6075 -1.1679 -3.3828
42945SOL    HW230843   3.380   9.968   3.152 -2.0620  0.2065  1.4901
42946SOL     OW30844   3.427   6.388  10.730  0.1733 -0.3159  0.4923
42946SOL    HW130845   3.336   6.403  10.757  0.7226  0.5271  1.9740
42946SOL    HW230846   3.436   6.438  10.649 -0.8969 -1.0844 -0.1363
42947SOL     OW30847   5.097   4.906  10.523 -0.2475 -0.1030  0.5020
42947SOL    HW130848   5.162   4.972  10.546  0.3866 -1.0584  1.5527
42947SOL    HW230849   5.068   4.872  10.608 -0.1935 -1.5221 -0.0405
42948SOL     OW30850   6.414   1.395   9.998 -0.1716  0.0582 -0.6707
42948SOL    HW130851   6.496   1.354  10.025 -0.2723 -0.2515 -0.8273
42948SOL    HW230852   6.390   1.350   9.917 -0.4643  0.1885 -0.6590
42949SOL     OW30853   4.493   4.051   5.174  0.5434  0.1108 -0.1263
42949SOL    HW130854   4.440   4.007   5.108  1.0845 -0.2656 -0.3197
42949SOL    HW230855   4.452   4.028   5.257 -1.0665  1.8429 -0.3748
42950SOL     OW30856   9.912   3.531  10.277  0.7777 -0.7200 -0.4199
42950SOL    HW130857   9.949   3.456  10.230  0.8537  1.3666 -4.0208
42950SOL    HW230858   9.895   3.596  10.209 -0.3629  2.1402  2.3651
42951SOL     OW30859   9.788   2.808  10.801  0.3352  0.2194  0.6255
42951SOL    HW130860   9.848   2.787  10.873 -1.2334 -0.7489  1.6938
42951SOL    HW230861   9.823   2.761  10.726  2.2686  1.6162  0.5701
42952SOL     OW30862   4.104  11.053   6.741  0.0060 -0.6412 -0.0272
42952SOL    HW130863   4.147  11.032   6.825  1.3683  0.4985 -0.4063
42952SOL    HW230864   4.142  10.991   6.679  1.5499  0.6743 -0.4628
42953SOL     OW30865   5.813   9.948   6.130 -0.0438  0.8905 -0.4352
42953SOL    HW130866   5.772   9.884   6.189  1.9729  1.1041  1.3278
42953SOL    HW230867   5.788   9.919   6.042 -2.8784  0.3336  0.4476
42954SOL     OW30868   6.818   1.120   8.466  0.1220 -0.1174 -0.3385
42954SOL    HW130869   6.900   1.072   8.480  0.1154 -0.1451 -0.3935
42954SOL    HW230870   6.756   1.053   8.436  0.7660  0.3148 -2.8797
42955SOL     OW30871   6.499   5.707   1.248 -0.6602 -0.2378 -0.1136
42955SOL    HW130872   6.426   5.648   1.270 -0.6166 -0.3679 -0.3152
42955SOL    HW230873   6.479   5.738   1.160 -0.5724 -0.1205 -0.0920
42956SOL     OW30874   5.881   7.712   9.112 -0.5595 -0.0264 -0.6196
42956SOL    HW130875   5.875   7.631   9.061  0.3652  0.3932 -1.4343
42956SOL    HW230876   5.932   7.771   9.057  1.7197 -0.0006  1.3685
42957SOL     OW30877   4.073   2.850   1.569 -0.1528 -0.2382 -0.6538
42957SOL    HW130878   4.058   2.883   1.657 -0.6270  1.8737 -1.4700
42957SOL    HW230879   3.986   2.844   1.529 -0.0197 -1.8598 -0.8017
42958SOL     OW30880   7.213   0.044   8.589 -0.2900  0.5184 -0.1997
42958SOL    HW130881   7.259   0.127   8.603 -0.9867  1.2438 -1.8558
42958SOL    HW230882   7.135   0.051   8.644  2.0705 -1.3287  3.7576
42959SOL     OW30883   3.018   0.704   2.956  0.5579 -1.0957  0.0662
42959SOL    HW130884   3.091   0.731   3.012 -0.8002 -0.8228  1.7769
42959SOL    HW230885   2.949   0.768   2.973 -0.0895 -1.2983 -1.5752
42960SOL     OW30886   3.420   8.489  11.072 -0.0235  0.4030 -0.5831
42960SOL    HW130887   3.374   8.423  11.021  2.8098 -2.1114 -0.1202
42960SOL    HW230888   3.358   8.512  11.142 -1.7489 -0.3366 -1.7834
42961SOL     OW30889  10.829   5.777   7.720 -0.3875  0.2280 -0.3550
42961SOL    HW130890  10.878   5.720   7.661 -0.2561 -0.3938  0.3409
42961SOL    HW230891  10.859   5.865   7.699  2.3382 -0.2382  1.2083
42962SOL     OW30892   0.898   2.721   6.751 -0.5800 -0.4982 -0.5699
42962SOL    HW130893   0.975   2.665   6.755 -0.4906 -0.2817  1.7731
42962SOL    HW230894   0.910   2.785   6.821 -0.9222  2.2349 -2.7961
42963SOL     OW30895  10.190   6.253  10.086  0.0254  0.2388  0.1594
42963SOL    HW130896  10.170   6.160  10.076 -0.7550  0.3798  0.3158
42963SOL    HW230897  10.168   6.292  10.002  2.8047 -0.0901 -0.8135
42964SOL     OW30898   8.172   9.793   6.349  0.1259 -0.3011  0.0470
42964SOL    HW130899   8.112   9.824   6.416  0.2141 -0.6981  0.3126
42964SOL    HW230900   8.233   9.735   6.395  1.3480  0.8717 -0.0228
42965SOL     OW30901   2.454   6.578   0.243  0.0328  0.1490 -0.2784
42965SOL    HW130902   2.368   6.588   0.203  0.4448 -0.8490 -1.4941
42965SOL    HW230903   2.438   6.583   0.337 -1.5609 -1.4210 -0.4119
42966SOL     OW30904   1.132  10.504   4.420 -0.2291  0.5838  0.4171
42966SOL    HW130905   1.086  10.469   4.497 -0.4539 -1.9399 -0.7505
42966SOL    HW230906   1.225  10.500   4.444 -0.2532 -0.8875  0.3495
42967SOL     OW30907   8.111   7.124   4.425 -0.1439  0.1502  0.1720
42967SOL    HW130908   8.091   7.105   4.517  1.2996  1.6124  0.8471
42967SOL    HW230909   8.055   7.199   4.404  0.7109  0.8872  0.4248
42968SOL     OW30910   4.031   9.288   9.781  0.4912  0.2030 -0.2904
42968SOL    HW130911   3.965   9.220   9.766  0.0932 -0.2608  2.8478
42968SOL    HW230912   3.980   9.368   9.795  0.3770 -0.3079  2.9472
42969SOL     OW30913  10.924   9.773  10.130  0.4067  0.7224 -0.0673
42969SOL    HW130914  10.882   9.775  10.044  1.4463  1.3333 -0.5809
42969SOL    HW230915  10.857   9.738  10.189  0.4079 -2.0777 -1.5443
42970SOL     OW30916   0.210  10.233   0.938 -0.0590 -0.5210  0.6275
42970SOL    HW130917   0.294  10.200   0.969  0.0325 -0.1086  0.8194
42970SOL    HW230918   0.173  10.160   0.888  0.7806 -0.4327 -0.1544
42971SOL     OW30919   9.846   4.144   6.525  0.1309  0.0701  0.6456
42971SOL    HW130920   9.833   4.197   6.604 -0.2885 -1.0149  1.3405
42971SOL    HW230921   9.887   4.064   6.558  0.5486 -0.1290 -0.3410
42972SOL     OW30922   4.751   3.342   0.555  0.4092  0.7333  0.0657
42972SOL    HW130923   4.755   3.433   0.583  0.3397 -0.0452  2.8357
42972SOL    HW230924   4.658   3.322   0.547  0.4221  0.8405 -0.4122
42973SOL     OW30925   9.193   1.227   4.473  0.0516 -0.6583 -0.5133
42973SOL    HW130926   9.146   1.202   4.394  2.9976 -0.9961 -2.3430
42973SOL    HW230927   9.233   1.312   4.452 -0.1667 -0.1068  1.1388
42974SOL     OW30928   9.236   9.335   1.629  0.5143  0.2547  0.1550
42974SOL    HW130929   9.243   9.369   1.718  0.1857  1.9624 -0.4256
42974SOL    HW230930   9.221   9.241   1.640 -0.6293  0.5978  1.9332
42975SOL     OW30931   7.939   1.444   3.265  0.2591  0.0776 -0.0074
42975SOL    HW130932   7.977   1.430   3.179  0.6764 -1.8603  0.4474
42975SOL    HW230933   7.984   1.382   3.322 -0.6398  0.6814  1.4204
42976SOL     OW30934   6.837   9.004   6.819  0.1126  0.0923  0.5004
42976SOL    HW130935   6.927   9.003   6.851  0.3897  2.3731 -0.0575
42976SOL    HW230936   6.830   8.925   6.765  1.3960 -0.7201  1.4601
42977SOL     OW30937   0.887   6.451  10.668 -0.0901  0.0341 -0.2167
42977SOL    HW130938   0.801   6.418  10.693 -0.1237 -0.5794 -1.0814
42977SOL    HW230939   0.879   6.469  10.574  0.9051 -0.6307 -0.4457
42978SOL     OW30940   1.607   3.540   6.252 -0.0160  0.4087  0.0313
42978SOL    HW130941   1.630   3.534   6.159  4.1869 -2.8305  0.9726
42978SOL    HW230942   1.536   3.478   6.263  1.1339 -1.1075 -0.7097
42979SOL     OW30943   6.537   9.122   5.856  0.5684 -0.0892  0.6447
42979SOL    HW130944   6.554   9.050   5.796 -0.6166  1.3909 -1.6094
42979SOL    HW230945   6.458   9.096   5.904  2.0686 -1.7047  2.4077
42980SOL     OW30946   0.131   2.965  10.281  0.0177  0.6920  0.4420
42980SOL    HW130947   0.166   2.930  10.199 -1.4879  0.1021  0.0055
42980SOL    HW230948   0.143   3.059  10.273 -0.0414  0.6392 -0.4398
42981SOL     OW30949   6.518   0.427   9.412  0.1394 -0.2681 -0.2216
42981SOL    HW130950   6.554   0.349   9.368 -1.3355 -0.6201 -0.8375
42981SOL    HW230951   6.424   0.412   9.415 -0.1928  1.5512 -0.4395
42982SOL     OW30952   0.756  10.155   9.966  0.3719  0.1485 -0.2287
42982SOL    HW130953   0.834  10.197   9.930  0.9099 -0.4893  0.1676
42982SOL    HW230954   0.774  10.148  10.060  0.8279 -2.0492 -0.4276
42983SOL     OW30955   8.509  10.667   7.118 -0.3872 -0.5135 -0.4171
42983SOL    HW130956   8.575  10.635   7.179 -0.0679  0.5654 -0.1649
42983SOL    HW230957   8.429  10.620   7.142  0.0500 -1.0868 -0.0590
42984SOL     OW30958   1.973   9.690  11.085 -0.1831 -0.3650  0.3503
42984SOL    HW130959   1.924   9.646  11.155 -0.5843 -0.0162  0.2930
42984SOL    HW230960   1.971   9.627  11.013  1.3928 -1.3068  1.0738
42985SOL     OW30961   9.733   1.685   3.342  0.5857 -0.3035  0.2082
42985SOL    HW130962   9.806   1.725   3.389 -0.1324 -1.2369  2.2251
42985SOL    HW230963   9.759   1.593   3.331 -0.6747 -0.9318  1.9655
42986SOL     OW30964   8.116   8.820   4.057 -0.0422  0.2272  0.1646
42986SOL    HW130965   8.118   8.831   4.152  0.3745 -0.8605  0.2941
42986SOL    HW230966   8.131   8.727   4.043  1.0104  0.5464 -1.0151
42987SOL     OW30967   4.988   3.972   9.548  0.1799  0.0136 -0.0278
42987SOL    HW130968   5.068   3.937   9.587 -0.9029 -2.3458  0.2449
42987SOL    HW230969   5.004   3.969   9.454  0.5443 -0.1233  0.0373
42988SOL     OW30970   7.476   6.382  10.798 -0.3707  0.0964  0.2390
42988SOL    HW130971   7.503   6.430  10.720 -1.3567  2.2971  1.1716
42988SOL    HW230972   7.499   6.439  10.871 -0.1736 -1.5636  1.5560
42989SOL     OW30973   8.196   8.354   8.262  0.2409  0.1089 -0.3583
42989SOL    HW130974   8.269   8.327   8.317 -0.8574 -1.4343  0.3978
42989SOL    HW230975   8.236   8.369   8.176  1.2834 -2.0130 -0.3116
42990SOL     OW30976   3.638  11.065   7.430 -0.1420 -0.2799 -1.0302
42990SOL    HW130977   3.563  11.006   7.424 -1.2792  1.0623 -0.4507
42990SOL    HW230978   3.600  11.152   7.438  1.4785  0.3922 -0.1739
42991SOL     OW30979   9.033   0.048   9.104 -0.2005  0.0242  0.3193
42991SOL    HW130980   8.962   0.108   9.126  1.7309  2.9978 -0.8763
42991SOL    HW230981   9.021   0.030   9.010  2.0463  3.0086 -0.7246
42992SOL     OW30982   9.067   3.197   5.729  0.5156  0.1548 -0.0703
42992SOL    HW130983   9.047   3.182   5.637 -2.7056  1.2878  0.3177
42992SOL    HW230984   9.091   3.290   5.734 -0.4649  0.4040  0.3356
42993SOL     OW30985   5.697   5.932   6.669  0.8282 -0.1383  0.2800
42993SOL    HW130986   5.603   5.930   6.688  0.7478 -0.3855 -0.1215
42993SOL    HW230987   5.703   5.976   6.584  1.1391  0.5275  0.6356
42994SOL     OW30988   8.042   5.829   7.017  0.3358 -0.0946 -0.2000
42994SOL    HW130989   8.095   5.752   7.039  3.0781  1.8836  0.7012
42994SOL    HW230990   8.010   5.861   7.101 -0.5389 -0.0509 -0.5397
42995SOL     OW30991   5.131   2.353   5.329 -0.6563  0.0833  0.3370
42995SOL    HW130992   5.165   2.308   5.252 -0.2041  2.3679 -0.8802
42995SOL    HW230993   5.038   2.368   5.309 -1.2312 -1.6092  1.4441
42996SOL     OW30994   0.417   9.103   6.046 -0.5031 -0.1694 -0.0186
42996SOL    HW130995   0.374   9.020   6.027  0.2382 -0.7449  0.7377
42996SOL    HW230996   0.371   9.136   6.124 -0.7120  0.0687 -0.2419
42997SOL     OW30997   7.081  10.386   8.892  0.0687  0.4245 -0.2728
42997SOL    HW130998   7.066  10.292   8.901  1.0191  0.2395 -0.5263
42997SOL    HW230999   7.158  10.393   8.835 -0.1233  1.3604 -0.4348
42998SOL     OW31000   6.021   7.772   1.463  0.3781  0.2750  0.9463
42998SOL    HW131001   6.087   7.760   1.532  1.4110  1.3612  0.1917
42998SOL    HW231002   6.060   7.730   1.386 -0.1037  0.3775  0.6441
42999SOL     OW31003   4.213   9.076   9.662  0.2667 -0.1774  0.1798
42999SOL    HW131004   4.227   9.148   9.600  0.3504  0.5532  1.0394
42999SOL    HW231005   4.168   9.116   9.736 -0.3422 -1.1625  0.3567
43000SOL     OW31006   3.199   8.722   6.944  0.6335 -0.4693  0.1357
43000SOL    HW131007   3.118   8.746   6.900  0.9711  0.7358  0.1376
43000SOL    HW231008   3.267   8.769   6.896  1.1340 -0.1097  1.1701
43001SOL     OW31009   5.363   8.591   1.525  0.3605 -0.1747 -0.4418
43001SOL    HW131010   5.298   8.600   1.455 -0.3828  1.2827  0.3830
43001SOL    HW231011   5.346   8.666   1.583  1.0634 -1.2182  1.1974
43002SOL     OW31012   9.896   4.959   9.696 -0.2886 -1.1823 -0.6346
43002SOL    HW131013   9.980   4.961   9.649 -1.5113  1.1925 -3.0522
43002SOL    HW231014   9.833   4.929   9.631 -1.6426 -0.7141  0.4126
43003SOL     OW31015   2.073   0.429   8.288 -0.9337  0.0570 -0.2677
43003SOL    HW131016   2.121   0.381   8.355 -1.5375  0.2242  0.2966
43003SOL    HW231017   2.076   0.520   8.317 -2.8640 -0.1059  0.6028
43004SOL     OW31018   4.761  10.927   4.536  0.1694  0.6851 -0.4134
43004SOL    HW131019   4.739  10.920   4.629 -3.0063 -0.5511 -1.1117
43004SOL    HW231020   4.822  11.000   4.531  0.8187  0.4856  2.6687
43005SOL     OW31021  11.000   2.298   0.919  0.0691 -0.1594 -0.0020
43005SOL    HW131022  10.919   2.251   0.938 -2.2742  3.6729  0.5216
43005SOL    HW231023  10.975   2.364   0.854  2.5827  1.5921  0.6638
43006SOL     OW31024  10.838   9.268   4.103 -0.1597  0.1800 -0.6581
43006SOL    HW131025  10.775   9.330   4.068  0.9106  1.0470 -1.1042
43006SOL    HW231026  10.864   9.305   4.188  0.7067  0.5181 -1.0607
43007SOL     OW31027   1.537   6.550   1.840  0.1642  0.0907  0.2622
43007SOL    HW131028   1.537   6.610   1.766  2.2639 -0.6270 -0.3758
43007SOL    HW231029   1.454   6.502   1.831 -0.0397  0.6441 -1.0853
43008SOL     OW31030   1.351   0.116   4.047 -0.3234 -0.5476  0.1344
43008SOL    HW131031   1.322   0.206   4.036  0.9004 -0.1313  0.1792
43008SOL    HW231032   1.430   0.122   4.100 -0.3730 -1.6781  0.3755
43009SOL     OW31033   2.935   2.000   7.207 -0.1866  0.2222  1.0200
43009SOL    HW131034   2.961   1.965   7.292  1.6194  0.0945  0.4525
43009SOL    HW231035   2.855   1.953   7.185 -0.2448 -0.3049  2.2878
43010SOL     OW31036   8.299   8.052   1.960 -0.7556 -0.0623 -0.1180
43010SOL    HW131037   8.204   8.043   1.966 -1.4249  1.5711 -4.5458
43010SOL    HW231038   8.315   8.085   1.872  3.9680  0.0583  0.4996
43011SOL     OW31039   6.977  10.686   9.471 -0.0545  0.0117 -0.0387
43011SOL    HW131040   7.024  10.766   9.493 -0.1530  0.0929 -0.1200
43011SOL    HW231041   6.887  10.703   9.501 -0.4280  0.5067 -1.3834
43012SOL     OW31042   7.893   0.101   1.800 -0.0639  0.0322  0.0189
43012SOL    HW131043   7.920   0.185   1.764 -1.5788  1.2438  1.5563
43012SOL    HW231044   7.941   0.036   1.748 -1.0518  1.6699 -3.1979
43013SOL     OW31045   6.352  10.644   9.055 -0.4716  0.3198  0.0381
43013SOL    HW131046   6.281  10.704   9.077  0.3922  0.7100  2.0005
43013SOL    HW231047   6.425  10.673   9.109  0.6887 -1.0682 -0.7180
43014SOL     OW31048  10.954   5.626   7.510 -0.0390 -0.0889  0.1230
43014SOL    HW131049  10.909   5.570   7.447  1.0799 -2.7596  1.5555
43014SOL    HW231050  11.033   5.655   7.464 -0.8009  0.6674 -0.7496
43015SOL     OW31051   5.209  10.208   1.394 -0.6212 -0.6973  0.2399
43015SOL    HW131052   5.144  10.191   1.325 -1.2956  1.6603  0.2177
43015SOL    HW231053   5.253  10.288   1.366  0.1619 -0.5468  1.8086
43016SOL     OW31054   7.677   1.632  10.909 -0.3044  0.1080  0.0409
43016SOL    HW131055   7.655   1.579  10.985 -0.1375  2.2857  1.7103
43016SOL    HW231056   7.766   1.604  10.885  0.3135  0.5137  1.7216
43017SOL     OW31057   0.271   3.246   1.151 -0.7194  0.0588  0.1437
43017SOL    HW131058   0.332   3.186   1.194 -0.8875 -2.4443 -2.7040
43017SOL    HW231059   0.191   3.195   1.140 -2.5902  2.4504  1.6183
43018SOL     OW31060   8.357   1.886   6.325  0.3451 -0.3191  0.3288
43018SOL    HW131061   8.429   1.853   6.379  3.4693  0.4054 -2.9514
43018SOL    HW231062   8.361   1.981   6.334  0.1494 -0.2478 -0.2722
43019SOL     OW31063   4.488   5.300   9.781 -0.8856 -0.4912  0.3210
43019SOL    HW131064   4.465   5.377   9.729  1.1750 -1.3838 -2.1396
43019SOL    HW231065   4.472   5.326   9.871 -1.6046  2.3117 -0.5193
43020SOL     OW31066   7.099   6.320   0.207 -0.0077 -0.5014 -0.0640
43020SOL    HW131067   7.070   6.363   0.287  2.6039  0.8062  0.2955
43020SOL    HW231068   7.159   6.251   0.237 -0.9724 -1.7241 -0.8320
43021SOL     OW31069   7.060   2.144   1.859 -0.3043  0.1465 -0.0369
43021SOL    HW131070   7.105   2.199   1.795  1.4194  1.5062  2.1705
43021SOL    HW231071   7.020   2.074   1.807  3.2013 -0.3847 -2.3958
43022SOL     OW31072   8.468   5.642   0.500 -0.0548  0.0813 -0.5001
43022SOL    HW131073   8.532   5.633   0.571  1.7363 -1.6199 -2.2056
43022SOL    HW231074   8.418   5.561   0.503  1.7106 -1.2203 -2.5968
43023SOL     OW31075   1.599   6.363   4.282  0.2674  0.3856  1.1369
43023SOL    HW131076   1.654   6.426   4.236  0.2414 -0.1760  0.3163
43023SOL    HW231077   1.583   6.403   4.368  2.1016  0.4871  1.4837
43024SOL     OW31078  10.107   2.612   6.043 -0.1247 -0.1759 -0.4693
43024SOL    HW131079  10.113   2.693   6.093  0.4127 -0.4290 -0.1123
43024SOL    HW231080  10.121   2.638   5.952  4.2272 -0.2957 -0.0559
43025SOL     OW31081   1.392   5.065   3.396  0.6184  0.0860  0.3345
43025SOL    HW131082   1.390   5.160   3.404  2.0898  0.2258 -0.6207
43025SOL    HW231083   1.378   5.048   3.303  0.5136 -0.6314  0.4738
43026SOL     OW31084   2.748  10.366   6.579  0.4767  0.3559 -0.4828
43026SOL    HW131085   2.705  10.392   6.661  0.6873 -2.4601  0.6415
43026SOL    HW231086   2.677  10.361   6.515 -0.3579 -0.9618  0.4949
43027SOL     OW31087   9.799   2.651   8.981 -0.1318  0.0779  0.0528
43027SOL    HW131088   9.761   2.733   9.016  0.8257 -0.3832  2.3560
43027SOL    HW231089   9.892   2.658   8.999 -0.0989 -1.7382  0.8259
43028SOL     OW31090   4.669  10.863   6.183  0.1127  0.1675  0.6805
43028SOL    HW131091   4.707  10.949   6.168 -0.8058  0.6189  0.8899
43028SOL    HW231092   4.687  10.814   6.103  1.8547  0.0743  1.0765
43029SOL     OW31093   8.159   8.774  10.412 -0.1999 -0.7209 -0.4822
43029SOL    HW131094   8.199   8.846  10.363 -1.3412  1.3029  1.3931
43029SOL    HW231095   8.067   8.776  10.386 -0.9771  0.8304  2.0926
43030SOL     OW31096   0.414   9.871   5.119 -0.0675 -0.1948 -0.0213
43030SOL    HW131097   0.379   9.875   5.208  0.1571  1.2438  0.0222
43030SOL    HW231098   0.375   9.946   5.074  0.3297 -0.5311 -0.9546
43031SOL     OW31099   6.540   0.209  10.769 -0.3522 -0.1542  0.1067
43031SOL    HW131100   6.615   0.248  10.724 -1.2187 -0.0368 -1.3029
43031SOL    HW231101   6.521   0.269  10.840 -0.5874  1.1170 -0.9890
43032SOL     OW31102   0.272   4.155   2.515 -0.2095 -0.8951  0.1961
43032SOL    HW131103   0.335   4.210   2.562 -1.4423  0.4417  0.3542
43032SOL    HW231104   0.246   4.089   2.579  0.9718 -1.4476  0.1425
43033SOL     OW31105  10.778  10.766   0.832  0.2516 -0.1318  0.8035
43033SOL    HW131106  10.787  10.851   0.789 -1.1025  1.1766  2.9649
43033SOL    HW231107  10.686  10.744   0.824 -0.3108  0.6820  3.7907
43034SOL     OW31108   2.054   0.130   0.185 -0.6685  0.8041  0.1179
43034SOL    HW131109   2.139   0.172   0.199  0.1506 -1.0240  0.9305
43034SOL    HW231110   2.005   0.146   0.266 -0.2099 -0.0800  0.5867
43035SOL     OW31111   6.392   9.966   1.259 -0.2325  0.0563  0.0849
43035SOL    HW131112   6.345   9.912   1.322  1.9500 -0.0481  1.7462
43035SOL    HW231113   6.478   9.923   1.250  0.6489  1.8316 -0.4834
43036SOL     OW31114   7.653   9.298   0.377  0.1394  0.3211 -0.7107
43036SOL    HW131115   7.579   9.342   0.418 -1.3782 -0.1817 -2.7294
43036SOL    HW231116   7.695   9.367   0.324  1.2359  0.6354  0.5283
43037SOL     OW31117   5.096   4.443   1.868 -0.6006 -0.4564  0.4569
43037SOL    HW131118   5.090   4.355   1.832  0.4379  0.4352 -2.2133
43037SOL    HW231119   5.043   4.441   1.947 -1.4039 -3.1879 -0.0478
43038SOL     OW31120   3.132   3.882  10.117 -0.2339 -0.5594  0.5388
43038SOL    HW131121   3.126   3.847  10.028 -2.1507  2.3508 -0.6378
43038SOL    HW231122   3.215   3.848  10.151  0.8373 -1.3537 -2.5473
43039SOL     OW31123   6.168   4.780   5.227  0.2466  0.2605  0.7088
43039SOL    HW131124   6.208   4.860   5.262 -2.7457  2.1444  0.1781
43039SOL    HW231125   6.098   4.759   5.288 -0.6234 -0.4373 -0.4744
43040SOL     OW31126   9.730   3.515   2.206  0.2144 -0.4807  1.1559
43040SOL    HW131127   9.694   3.596   2.242 -0.0713 -1.7829  4.0999
43040SOL    HW231128   9.653   3.460   2.189  0.3665 -0.0812 -1.3040
43041SOL     OW31129   8.872   8.435   5.571 -0.0821 -0.4843  0.3521
43041SOL    HW131130   8.794   8.453   5.624 -0.7279 -0.8637 -0.4483
43041SOL    HW231131   8.878   8.509   5.511  0.6922 -0.0194  0.9759
43042SOL     OW31132   2.954   3.993   7.195 -0.1695 -0.2440  0.1861
43042SOL    HW131133   2.940   3.927   7.127  2.7190  1.1185 -1.9456
43042SOL    HW231134   2.882   4.056   7.182  0.3269 -0.0142 -1.6970
43043SOL     OW31135  10.681   0.165   0.546  0.1831 -0.0408 -0.0024
43043SOL    HW131136  10.727   0.227   0.603 -0.6810  0.3707  0.2688
43043SOL    HW231137  10.675   0.210   0.462 -1.1191  0.6024  0.3998
43044SOL     OW31138   8.423   3.099   4.182 -0.3529 -0.5566 -0.8543
43044SOL    HW131139   8.456   3.068   4.098  0.1566 -0.6147 -0.6415
43044SOL    HW231140   8.490   3.161   4.212 -1.4313  0.8980 -1.3551
43045SOL     OW31141   1.959   5.324  10.704  0.5951 -0.0796  0.2824
43045SOL    HW131142   2.002   5.297  10.785 -1.5518 -2.5553  0.7440
43045SOL    HW231143   1.985   5.257  10.640  2.0915  1.7213 -1.0846
43046SOL     OW31144   3.950   6.706   1.507 -0.6121  0.0036  0.3517
43046SOL    HW131145   3.927   6.759   1.583 -0.0811 -0.2455  0.6869
43046SOL    HW231146   3.865   6.678   1.472 -0.8949  0.9426  0.2512
43047SOL     OW31147   2.359   8.295   2.688 -0.3004 -0.6514 -0.1660
43047SOL    HW131148   2.393   8.355   2.622  0.1359 -2.9506 -2.1936
43047SOL    HW231149   2.437   8.257   2.729 -0.5327 -0.9212  0.0390
43048SOL     OW31150   4.599   1.533   4.969 -0.3149  0.0843  0.3612
43048SOL    HW131151   4.680   1.505   5.012  0.3708  1.8393  0.2964
43048SOL    HW231152   4.628   1.590   4.898 -1.5109 -1.4332 -1.4434
43049SOL     OW31153   5.526   4.717   8.358 -0.1361  0.0434 -0.2700
43049SOL    HW131154   5.481   4.715   8.443  1.1425  1.4335  0.4889
43049SOL    HW231155   5.471   4.774   8.303 -0.4035  0.0198 -0.0287
43050SOL     OW31156   9.695   9.086   4.270 -0.1034 -0.3218 -0.1709
43050SOL    HW131157   9.740   9.164   4.303 -0.9082  0.7469 -1.5360
43050SOL    HW231158   9.743   9.013   4.310  0.5572  0.8464  1.2871
43051SOL     OW31159   6.677   9.200   0.464  0.4503 -0.3168  0.6561
43051SOL    HW131160   6.663   9.295   0.465 -0.0622 -0.3314  3.2131
43051SOL    HW231161   6.695   9.179   0.373  2.6463  2.5291  0.2711
43052SOL     OW31162   1.153   9.120   8.362 -0.2141  0.3098  0.4544
43052SOL    HW131163   1.153   9.194   8.302 -0.9475  0.9639  1.2440
43052SOL    HW231164   1.169   9.158   8.448  0.4193 -0.5693  0.7447
43053SOL     OW31165   7.750   8.305   0.013 -0.0081 -0.4429 -0.2746
43053SOL    HW131166   7.797   8.264   0.086 -1.1745 -1.8482 -0.2719
43053SOL    HW231167   7.752   8.240  -0.057  0.6112  0.6681 -1.3290
43054SOL     OW31168  10.815   4.091   0.735  0.5124  0.1283  0.1076
43054SOL    HW131169  10.808   4.118   0.643  1.7203  3.4828  0.8521
43054SOL    HW231170  10.907   4.071   0.747  0.2734 -0.7706  0.5181
43055SOL     OW31171   9.331   2.348   8.471  0.1176 -0.4398 -0.3927
43055SOL    HW131172   9.293   2.343   8.383  1.7329  1.4389 -1.2774
43055SOL    HW231173   9.396   2.277   8.473  0.5079 -0.1112 -0.9653
43056SOL     OW31174   2.311   4.290   0.967  0.4721  0.4722 -0.0280
43056SOL    HW131175   2.228   4.252   0.938  2.7085 -3.6866 -1.8454
43056SOL    HW231176   2.331   4.356   0.901  0.0277 -0.7310 -1.4270
43057SOL     OW31177  10.319   6.983   2.586 -0.4176  0.4628  0.1088
43057SOL    HW131178  10.366   7.006   2.666 -0.3801 -0.9580  0.5192
43057SOL    HW231179  10.270   6.904   2.608 -1.9800  1.1562 -0.7031
43058SOL     OW31180   8.432   9.468   2.837  0.1860 -0.2632  0.1073
43058SOL    HW131181   8.519   9.441   2.806  0.2481  2.2161 -2.2383
43058SOL    HW231182   8.449   9.538   2.899 -0.1471 -1.6289  1.8333
43059SOL     OW31183   8.129   1.698  10.545  0.2563  0.8075 -0.0360
43059SOL    HW131184   8.172   1.765  10.491  0.1314  0.8579 -0.0735
43059SOL    HW231185   8.043   1.736  10.566 -0.1510  0.3130 -0.7604
43060SOL     OW31186   0.582   8.696  10.463  0.0898 -0.0332 -0.1919
43060SOL    HW131187   0.527   8.620  10.482  1.5044 -1.0835 -0.1692
43060SOL    HW231188   0.640   8.704  10.538  1.3230 -0.1950 -1.1074
43061SOL     OW31189  10.850   7.036   1.837  0.4819  0.0228 -0.0691
43061SOL    HW131190  10.909   6.962   1.851 -0.6524 -0.4836  2.4828
43061SOL    HW231191  10.780   7.001   1.782  0.9063 -0.2522 -0.4436
43062SOL     OW31192   0.254  10.810   0.415 -0.4873  0.0815  0.2991
43062SOL    HW131193   0.271  10.730   0.366 -0.2603 -0.9238  1.9287
43062SOL    HW231194   0.230  10.779   0.503 -0.7049  1.7929  0.8757
43063SOL     OW31195   9.823   8.040   7.491 -0.2424 -0.6525  0.0712
43063SOL    HW131196   9.831   8.119   7.544  0.9665 -1.6889  1.4932
43063SOL    HW231197   9.737   8.048   7.450 -0.6569  0.8129  1.1458
43064SOL     OW31198   7.282  10.608   6.229 -0.3001 -0.1348  0.2479
43064SOL    HW131199   7.277  10.514   6.245 -0.8236 -0.0568  0.5745
43064SOL    HW231200   7.199  10.642   6.261 -0.0536  0.4585  0.2706
43065SOL     OW31201   6.765   0.770   9.806  0.9093 -0.5210  0.3402
43065SOL    HW131202   6.682   0.818   9.807  0.7458 -0.8072  1.3461
43065SOL    HW231203   6.739   0.677   9.809  1.2623 -0.6089  0.7093
43066SOL     OW31204   1.003   6.536   3.261  0.1787  0.1454 -0.3229
43066SOL    HW131205   1.042   6.623   3.255  0.6019 -0.1102 -1.7905
43066SOL    HW231206   0.910   6.552   3.275  0.1576  0.8573 -1.2154
43067SOL     OW31207   3.257  10.236   4.228 -0.1123  0.4434 -0.1382
43067SOL    HW131208   3.253  10.295   4.153  2.5147  0.9481  0.0323
43067SOL    HW231209   3.262  10.149   4.189 -0.2822  0.5933 -0.5006
43068SOL     OW31210   4.171   8.597   1.287  0.1043  0.2331  0.5949
43068SOL    HW131211   4.106   8.639   1.343 -0.9306 -2.0272  1.1902
43068SOL    HW231212   4.120   8.549   1.223  1.2180 -0.5958  0.3049
43069SOL     OW31213  10.521   7.743   7.775  0.1472 -0.4368  1.1728
43069SOL    HW131214  10.601   7.788   7.804 -0.5301  1.8596 -0.2597
43069SOL    HW231215  10.458   7.759   7.844  0.1344  0.1512  1.0256
43070SOL     OW31216   5.466   2.545   6.038  0.5696  0.5122 -0.0449
43070SOL    HW131217   5.438   2.593   5.960 -2.1911 -0.7684  0.0330
43070SOL    HW231218   5.513   2.469   6.004 -1.2982 -0.4635 -0.6077
43071SOL     OW31219  10.818   6.821   6.417  0.9374 -0.4040 -0.3695
43071SOL    HW131220  10.848   6.855   6.333  1.7979 -1.3495 -0.4541
43071SOL    HW231221  10.724   6.838   6.417  1.3971  2.9379  0.0331
43072SOL     OW31222  10.594   8.800   3.789  0.9729 -0.1857  0.2208
43072SOL    HW131223  10.515   8.844   3.757  2.3564  2.6633  0.3390
43072SOL    HW231224  10.651   8.795   3.712  1.7246  0.4725  0.7080
43073SOL     OW31225   0.422   7.993   2.159 -0.6856 -0.1705  0.0180
43073SOL    HW131226   0.485   8.029   2.221 -0.3452 -1.2089  0.2897
43073SOL    HW231227   0.345   8.050   2.168 -0.2526  0.3450  0.5935
43074SOL     OW31228   2.897   3.661   3.143  0.0120  0.4542 -0.1062
43074SOL    HW131229   2.903   3.757   3.145  0.8135  0.4462  3.0999
43074SOL    HW231230   2.806   3.642   3.165  0.4256  0.5633  1.9352
43075SOL     OW31231   4.815  10.123   1.848  0.5278  0.1894 -0.3196
43075SOL    HW131232   4.731  10.077   1.850  0.6063 -0.0072 -1.0798
43075SOL    HW231233   4.841  10.120   1.756  2.6295 -2.0703  0.2398
43076SOL     OW31234   9.514   6.348   2.170  0.2918  0.4498 -0.1566
43076SOL    HW131235   9.560   6.273   2.207  1.2891  0.1607 -1.8922
43076SOL    HW231236   9.458   6.311   2.102  0.6821  1.2292 -0.9266
43077SOL     OW31237   9.841   3.939   8.006  0.3523  0.6394 -0.1622
43077SOL    HW131238   9.811   3.940   8.097 -1.1285  0.2309 -0.6316
43077SOL    HW231239   9.935   3.956   8.013  0.1034  1.6293  1.3712
43078SOL     OW31240   5.002   6.409   9.928 -0.1212 -0.0323 -0.5222
43078SOL    HW131241   4.940   6.453   9.870 -0.4587  0.7282  0.3866
43078SOL    HW231242   5.067   6.371   9.869 -0.6576  0.3976 -1.4126
43079SOL     OW31243   7.560   0.952  10.800  0.4113 -0.7710 -0.0790
43079SOL    HW131244   7.488   0.896  10.770  0.2512 -0.5660 -0.0776
43079SOL    HW231245   7.518   1.031  10.832  0.5329 -1.2619  1.3396
43080SOL     OW31246   9.881   6.663   6.323 -0.2313  0.1225 -0.1583
43080SOL    HW131247   9.913   6.753   6.321  1.6807 -0.4002  2.0446
43080SOL    HW231248   9.839   6.656   6.409 -0.2466 -1.1204 -0.2591
43081SOL     OW31249   1.531   4.750   1.909 -1.0756 -0.0491 -0.4856
43081SOL    HW131250   1.477   4.799   1.847  0.3923 -1.6315 -3.1764
43081SOL    HW231251   1.494   4.662   1.909 -0.1209 -0.4582 -0.3054
43082SOL     OW31252   1.658   5.580   3.259  0.5507  0.2502  0.0610
43082SOL    HW131253   1.578   5.549   3.301  0.7137 -0.4306 -0.1106
43082SOL    HW231254   1.631   5.611   3.173  0.2971  1.1489  0.4493
43083SOL     OW31255   0.327   1.741   5.300 -0.4789  0.1118 -0.1792
43083SOL    HW131256   0.354   1.711   5.213 -2.5003 -0.2417 -0.7190
43083SOL    HW231257   0.254   1.684   5.324  0.5206 -0.2892  2.1127
43084SOL     OW31258   5.623   3.471   5.644  0.8838 -0.2568 -0.3571
43084SOL    HW131259   5.676   3.432   5.574  0.5146 -2.0144  0.2886
43084SOL    HW231260   5.561   3.402   5.668  0.5846  0.5405  1.2682
43085SOL     OW31261   4.745   4.381   2.511  0.0400  0.2732  0.2840
43085SOL    HW131262   4.813   4.448   2.516 -1.6506  2.2352 -1.1744
43085SOL    HW231263   4.767   4.330   2.433 -1.8599  3.0950 -2.2902
43086SOL     OW31264   8.438   4.144   4.110 -0.0051  0.4360  0.3298
43086SOL    HW131265   8.485   4.070   4.072 -0.7133 -0.2829  0.8272
43086SOL    HW231266   8.360   4.153   4.054  0.8328  1.8066 -0.6733
43087SOL     OW31267   5.303   9.417   9.954  0.1052  0.7990 -0.1447
43087SOL    HW131268   5.254   9.489   9.913  0.4351  0.6739 -0.7576
43087SOL    HW231269   5.355   9.460  10.022  0.0064  1.0836 -0.2455
43088SOL     OW31270   4.701   9.108   9.944  0.2615  0.6458  0.7360
43088SOL    HW131271   4.713   9.193   9.986 -1.6307  2.3563 -1.9059
43088SOL    HW231272   4.784   9.092   9.900  0.5385  1.2427  1.0186
43089SOL     OW31273  10.717   3.998   8.806  0.1731 -0.6652 -0.6045
43089SOL    HW131274  10.672   3.932   8.752  3.0835 -2.5623 -0.9257
43089SOL    HW231275  10.753   3.948   8.879  0.0424  1.1327  0.7459
43090SOL     OW31276   2.388   0.863   2.145  0.2257  0.8261  0.0072
43090SOL    HW131277   2.295   0.889   2.145 -0.5022 -1.4862  1.3424
43090SOL    HW231278   2.388   0.776   2.106  1.1376 -1.0287  3.6747
43091SOL     OW31279   3.071  10.185   4.411 -0.1375  0.3808  0.4271
43091SOL    HW131280   2.987  10.185   4.364 -1.1204  1.5768  2.0601
43091SOL    HW231281   3.137  10.196   4.343 -0.9817 -3.3831 -1.2644
43092SOL     OW31282   2.526   2.617   3.020 -0.3698  0.1477 -0.2601
43092SOL    HW131283   2.458   2.676   3.054 -0.7531  0.5484 -1.6342
43092SOL    HW231284   2.602   2.674   3.007  0.3479 -0.3436  1.4839
43093SOL     OW31285  10.433   2.870   8.149 -0.6571  0.4740 -0.1752
43093SOL    HW131286  10.360   2.844   8.205 -1.9038  0.6556 -1.6545
43093SOL    HW231287  10.486   2.928   8.204 -0.8435 -0.7592  1.3667
43094SOL     OW31288   6.055   4.867   3.741  0.3357 -1.0019 -0.1533
43094SOL    HW131289   5.961   4.870   3.759  0.2564 -0.1700 -0.6962
43094SOL    HW231290   6.062   4.863   3.646  0.8804  1.2584 -0.2505
43095SOL     OW31291   5.192   7.335   8.496  0.1585 -0.9930 -0.3930
43095SOL    HW131292   5.228   7.260   8.448  0.3343 -2.9111  2.5334
43095SOL    HW231293   5.269   7.379   8.532 -0.0882 -1.9578  1.4091
43096SOL     OW31294  10.729   2.716   0.513 -0.5997 -0.0386  0.2742
43096SOL    HW131295  10.809   2.663   0.513  0.2376  1.1642  0.0690
43096SOL    HW231296  10.659   2.655   0.534  0.1839 -1.4171 -0.9753
43097SOL     OW31297   1.982   2.898   9.742  0.0981 -0.0791  0.3483
43097SOL    HW131298   1.918   2.857   9.684 -1.7206  0.8404  1.5883
43097SOL    HW231299   2.054   2.835   9.746  0.2704 -0.2144 -2.7591
43098SOL     OW31300   6.989   6.989  10.747  0.0975  0.2246 -0.2171
43098SOL    HW131301   7.082   7.006  10.766  0.3630  1.2633 -2.1677
43098SOL    HW231302   6.947   6.990  10.833  1.6805  1.1233  0.6071
43099SOL     OW31303   0.926   3.896   3.591  0.5118  0.2577 -0.2357
43099SOL    HW131304   0.900   3.878   3.681  1.0183 -0.3303 -0.2012
43099SOL    HW231305   1.015   3.862   3.584 -0.7888 -3.4304 -2.0121
43100SOL     OW31306  10.863  10.368  11.051 -0.6237  0.5231  0.3739
43100SOL    HW131307  10.779  10.400  11.021 -0.5365 -0.4274 -0.9550
43100SOL    HW231308  10.855  10.366  11.147 -1.4209  2.2205  0.3753
43101SOL     OW31309   9.649   5.500  10.898 -0.0750 -0.3741  0.0139
43101SOL    HW131310   9.718   5.527  10.959 -0.3023  0.9498 -0.2811
43101SOL    HW231311   9.689   5.430  10.847  0.5331 -0.6658  0.8657
43102SOL     OW31312   5.860   5.978   3.546  0.4129 -0.1269  0.1940
43102SOL    HW131313   5.933   6.040   3.547  0.6899 -0.4400 -0.1697
43102SOL    HW231314   5.862   5.941   3.458 -0.2438 -0.0722  0.1531
43103SOL     OW31315   8.879   0.498   7.328  0.4907  0.2300  0.4850
43103SOL    HW131316   8.814   0.473   7.394 -0.8960  2.3607  0.0447
43103SOL    HW231317   8.942   0.426   7.327 -1.7496 -1.8717  1.1022
43104SOL     OW31318   5.684   3.773   3.852 -0.3179 -0.9355 -0.2400
43104SOL    HW131319   5.627   3.808   3.783  1.7851  2.0292 -0.6853
43104SOL    HW231320   5.655   3.819   3.931  1.1169  0.3080 -0.4019
43105SOL     OW31321   2.999   7.738   3.074 -0.5098 -0.5759 -0.0855
43105SOL    HW131322   3.008   7.649   3.108 -1.4932 -1.0281 -0.9390
43105SOL    HW231323   2.915   7.769   3.109  0.6517  0.7352  1.7046
43106SOL     OW31324   9.154   1.409   0.049  0.3942  0.6506 -0.2418
43106SOL    HW131325   9.212   1.412  -0.027 -0.5853  0.0040 -1.0439
43106SOL    HW231326   9.161   1.497   0.087  0.8519  1.0115 -1.1182
43107SOL     OW31327   2.051   7.637   6.999  0.3079 -0.5012  0.0849
43107SOL    HW131328   1.980   7.582   7.033 -1.4447  1.8877  0.5021
43107SOL    HW231329   2.082   7.589   6.922 -2.1155 -1.4210 -0.4406
43108SOL     OW31330   2.535   8.089  10.357  0.4048  0.9351 -0.6998
43108SOL    HW131331   2.608   8.063  10.301  0.8987  0.5265  0.1238
43108SOL    HW231332   2.497   8.165  10.312  0.9025  0.7286 -1.4925
43109SOL     OW31333   3.033  10.755   8.870 -0.4907 -0.7797 -0.6084
43109SOL    HW131334   3.080  10.676   8.848 -0.1073 -0.7106 -0.0643
43109SOL    HW231335   3.079  10.791   8.946 -0.7664 -0.1343 -0.7320
43110SOL     OW31336   3.647   8.333   0.319  0.3180  0.5568  0.2924
43110SOL    HW131337   3.644   8.313   0.413 -1.5698 -1.1037 -0.0637
43110SOL    HW231338   3.566   8.296   0.284  2.1252 -1.1814 -2.4165
43111SOL     OW31339   0.216   9.301   0.702 -0.2384 -0.3876  0.7893
43111SOL    HW131340   0.266   9.383   0.704  1.3156 -1.2929  0.5009
43111SOL    HW231341   0.159   9.306   0.778  0.2319  0.7196  1.0916
43112SOL     OW31342   8.824   0.269   0.316 -0.7623 -0.3498  0.2536
43112SOL    HW131343   8.889   0.305   0.255 -0.0911  1.8678  2.1454
43112SOL    HW231344   8.740   0.290   0.276 -0.3379 -0.0218 -0.4905
43113SOL     OW31345   6.974   3.851   7.849 -0.0320 -0.7032  0.5832
43113SOL    HW131346   7.035   3.839   7.777 -0.2273 -1.8407  0.6013
43113SOL    HW231347   6.890   3.819   7.815 -0.3356 -0.3762  1.0071
43114SOL     OW31348   8.441   1.056   0.721  0.0566  0.7646  0.3010
43114SOL    HW131349   8.422   0.962   0.729  0.2436  0.6318 -0.6654
43114SOL    HW231350   8.536   1.060   0.708  0.1371  1.1363  0.9694
43115SOL     OW31351   0.405   5.557   0.769 -0.1806  0.4350 -0.7326
43115SOL    HW131352   0.405   5.467   0.802 -0.2388  0.3186 -1.0418
43115SOL    HW231353   0.348   5.554   0.692 -0.0823  0.7090 -0.8174
43116SOL     OW31354   7.904   2.780   8.635  0.1360  0.5845  0.4948
43116SOL    HW131355   7.956   2.745   8.562  0.8202 -0.6092  1.5202
43116SOL    HW231356   7.844   2.842   8.594  3.7864  3.8107 -0.5423
43117SOL     OW31357   3.337   7.497   5.109 -0.3893  0.4394 -0.3708
43117SOL    HW131358   3.313   7.405   5.117  4.6130 -1.1893 -0.5419
43117SOL    HW231359   3.389   7.515   5.187  1.2653  2.1270 -1.7663
43118SOL     OW31360   4.023   1.853   8.739 -0.0462  0.7016 -0.7184
43118SOL    HW131361   3.959   1.800   8.692 -1.1440  1.3765 -0.0339
43118SOL    HW231362   4.020   1.939   8.696 -1.1044  1.3462  0.5272
43119SOL     OW31363   7.480   7.147   0.830 -0.3366 -0.3249  0.1705
43119SOL    HW131364   7.473   7.079   0.763 -0.7971 -0.9351  0.8271
43119SOL    HW231365   7.543   7.112   0.893  0.2070  0.3108 -0.0097
43120SOL     OW31366   2.077   0.168   6.382 -0.2285  0.3312 -0.0338
43120SOL    HW131367   2.055   0.150   6.473 -0.3896  2.3976  0.3944
43120SOL    HW231368   2.149   0.232   6.387  2.1414 -2.0270 -1.3798
43121SOL     OW31369  10.505   5.143  10.461  0.6406  0.8067  0.1662
43121SOL    HW131370  10.482   5.192  10.381 -0.6885 -0.2021 -0.0979
43121SOL    HW231371  10.598   5.126  10.452  0.3834  0.0786 -1.5591
43122SOL     OW31372   6.568   6.480   3.749 -0.3034 -0.3111 -0.1480
43122SOL    HW131373   6.520   6.455   3.827 -3.0199  1.2190 -1.1990
43122SOL    HW231374   6.619   6.557   3.775 -0.6323 -0.2501  0.3141
43123SOL     OW31375   6.043   3.247   8.933  0.3202  0.6944  0.0088
43123SOL    HW131376   6.109   3.266   8.866  0.0998  1.4606 -0.0037
43123SOL    HW231377   6.087   3.187   8.993 -0.3105 -2.1985 -2.2068
43124SOL     OW31378  10.082   8.266   4.815  0.3241  0.4037 -0.5061
43124SOL    HW131379  10.126   8.317   4.883 -0.4993 -0.2933  0.5975
43124SOL    HW231380   9.989   8.271   4.839  0.1614 -1.0901 -0.6978
43125SOL     OW31381   2.073   9.311  10.468  0.3936  0.5040 -0.2668
43125SOL    HW131382   1.997   9.359  10.501 -0.7497 -2.2635  1.5309
43125SOL    HW231383   2.135   9.312  10.541  1.1366  0.7886 -0.8915
43126SOL     OW31384   7.556   7.317   7.920 -0.0246 -0.2823  0.6090
43126SOL    HW131385   7.506   7.259   7.978  0.8822 -1.0809  0.6152
43126SOL    HW231386   7.510   7.313   7.837 -1.1404  0.6058  1.1431
43127SOL     OW31387   7.097  10.161   3.256 -0.5015  0.3641  0.4059
43127SOL    HW131388   7.096  10.219   3.180  0.0746  1.6722  1.3550
43127SOL    HW231389   7.042  10.205   3.321  0.8359  0.4411  1.5416
43128SOL     OW31390   0.324   8.039   0.988  0.2327  0.0818  0.3613
43128SOL    HW131391   0.291   8.117   0.944 -0.8395 -0.2814  0.5025
43128SOL    HW231392   0.375   7.994   0.921  0.0636  0.4149  0.0048
43129SOL     OW31393   7.401  10.889   9.221 -0.1792 -0.1703 -0.2451
43129SOL    HW131394   7.469  10.919   9.161 -0.9436  0.3735 -0.8470
43129SOL    HW231395   7.320  10.922   9.185 -0.6246  0.5770  1.3334
43130SOL     OW31396   2.243   6.096   6.042  0.1702  0.4677  0.5709
43130SOL    HW131397   2.217   6.173   5.992 -2.4115 -0.1584  0.8155
43130SOL    HW231398   2.244   6.025   5.978  0.8397  0.3785  0.6735
43131SOL     OW31399   1.113   2.176   8.369  0.6258  0.0098  0.1642
43131SOL    HW131400   1.064   2.180   8.287 -0.6299 -0.4613  0.8749
43131SOL    HW231401   1.182   2.111   8.352 -0.3411 -0.9612 -0.1699
43132SOL     OW31402   5.598   8.359   0.054 -0.3186 -0.3899  0.1733
43132SOL    HW131403   5.545   8.281   0.039 -1.9216  1.0175 -2.2826
43132SOL    HW231404   5.546   8.412   0.116 -1.3235  0.4976 -1.3739
43133SOL     OW31405   5.161   3.071   0.136  0.1982 -0.1265 -0.0862
43133SOL    HW131406   5.070   3.040   0.131  0.7308 -1.8175  0.1784
43133SOL    HW231407   5.212   3.000   0.096  1.6100 -0.2395  1.8011
43134SOL     OW31408   3.810   5.447  10.260  0.4047  0.0860 -0.0135
43134SOL    HW131409   3.873   5.510  10.294  2.1691 -0.7215 -1.6134
43134SOL    HW231410   3.767   5.493  10.188  3.1120 -1.0030 -2.5297
43135SOL     OW31411   9.356   4.051   3.698  0.5775 -0.0537  0.6180
43135SOL    HW131412   9.385   4.080   3.785  0.1080  0.6125  0.5533
43135SOL    HW231413   9.338   3.957   3.710 -0.0282  0.1431  1.3923
43136SOL     OW31414   0.123   6.959   0.060  0.8525 -0.0654  0.4102
43136SOL    HW131415   0.043   6.908   0.042  0.5344 -0.0105  1.6065
43136SOL    HW231416   0.148   6.994  -0.025 -0.7792  0.4683  0.1121
43137SOL     OW31417   0.755   7.594  10.643 -0.4245 -0.5653 -0.2708
43137SOL    HW131418   0.668   7.577  10.609 -1.2730 -0.5157  1.7221
43137SOL    HW231419   0.780   7.512  10.686  0.2672 -0.3874 -0.3236
43138SOL     OW31420   2.001   7.836   0.166  0.5663 -0.3687 -0.4437
43138SOL    HW131421   2.004   7.756   0.219  1.5431 -0.5937 -0.8064
43138SOL    HW231422   1.973   7.904   0.227  0.4848 -0.8483  0.0622
43139SOL     OW31423   1.758   7.538   0.343  0.3234  0.2484 -0.4222
43139SOL    HW131424   1.740   7.632   0.347  0.9503  0.3530  2.4177
43139SOL    HW231425   1.676   7.500   0.312 -0.4118  1.6468 -0.2827
43140SOL     OW31426  10.473   8.809   8.998  0.4080 -0.1562  0.4516
43140SOL    HW131427  10.521   8.792   8.917 -2.3343 -0.2891 -1.3125
43140SOL    HW231428  10.520   8.761   9.065  3.0465  0.2972 -0.9418
43141SOL     OW31429   8.401   6.854   5.918 -0.7127  0.5268  0.5651
43141SOL    HW131430   8.487   6.848   5.959 -0.7684  0.5494  0.6859
43141SOL    HW231431   8.367   6.765   5.920  0.0375  0.1715 -1.0867
43142SOL     OW31432   7.163   4.342   7.274 -0.3557 -0.4639 -0.7743
43142SOL    HW131433   7.196   4.315   7.188  0.3758 -0.3806 -0.5309
43142SOL    HW231434   7.152   4.437   7.266  1.9556 -0.0706 -0.0944
43143SOL     OW31435   6.808   9.552   5.739  0.7820  0.5042 -0.0891
43143SOL    HW131436   6.758   9.478   5.772  1.3072  0.1523 -0.0763
43143SOL    HW231437   6.745   9.624   5.734  0.2449  0.0211 -0.2292
43144SOL     OW31438  10.506   7.101   8.337 -0.3824  0.9237  0.7498
43144SOL    HW131439  10.442   7.055   8.283 -0.3144 -0.0318  1.4485
43144SOL    HW231440  10.464   7.107   8.423  1.4958 -2.3028  2.0586
43145SOL     OW31441   8.110   0.134   9.579 -0.2637 -0.3796  0.2605
43145SOL    HW131442   8.154   0.193   9.641 -1.3366 -2.1336  2.8648
43145SOL    HW231443   8.181   0.082   9.542  0.2812 -0.2113  1.0435
43146SOL     OW31444   2.842  10.979   2.784  0.0337  0.1273 -0.4621
43146SOL    HW131445   2.766  10.958   2.838  1.0660 -0.8168  0.6789
43146SOL    HW231446   2.917  10.962   2.840  1.1178  0.7023 -1.6784
43147SOL     OW31447   3.194   9.007   2.283 -0.0997 -0.1712 -0.9090
43147SOL    HW131448   3.218   9.096   2.307  3.6835 -1.0235 -1.0107
43147SOL    HW231449   3.218   8.953   2.358  0.3624 -1.4321 -1.9141
43148SOL     OW31450   7.242  10.302   0.274  0.1948  0.3895 -0.9049
43148SOL    HW131451   7.154  10.265   0.269 -0.0321  0.8631 -0.4307
43148SOL    HW231452   7.256  10.342   0.188 -1.0296  2.4926 -0.1975
43149SOL     OW31453  10.454   9.037   1.343 -0.1081  0.9861  0.2912
43149SOL    HW131454  10.371   8.988   1.343 -0.7345  2.0118  0.0084
43149SOL    HW231455  10.510   8.989   1.283 -1.0037  1.0680 -0.6446
43150SOL     OW31456   7.196   5.795  10.427  0.1821  0.3859  0.0174
43150SOL    HW131457   7.125   5.779  10.364 -1.4731 -0.5579  1.9895
43150SOL    HW231458   7.160   5.860  10.487  0.5981 -0.7436  1.5697
43151SOL     OW31459   2.988   3.127   1.188 -0.6682  0.0045 -0.4256
43151SOL    HW131460   2.972   3.051   1.133 -0.1316  0.4819 -1.2629
43151SOL    HW231461   2.909   3.136   1.241 -0.7513 -1.1086 -0.3371
43152SOL     OW31462   2.634   8.892   2.878  0.3203 -0.0348  0.2734
43152SOL    HW131463   2.697   8.867   2.811 -0.0422  1.6861 -0.7617
43152SOL    HW231464   2.548   8.878   2.837  0.0955  2.3794 -0.2428
43153SOL     OW31465   7.069   0.071   1.337 -0.2131 -0.3825  0.5499
43153SOL    HW131466   7.097   0.110   1.419 -0.8891 -0.0818  0.6497
43153SOL    HW231467   6.973   0.078   1.339 -0.2787 -1.0841  0.0916
43154SOL     OW31468   8.003   5.190  10.147  0.0180  0.1470 -0.0943
43154SOL    HW131469   8.092   5.222  10.160 -0.1113  0.1339  0.9699
43154SOL    HW231470   7.991   5.125  10.217 -1.3239  1.2185  0.7095
43155SOL     OW31471   5.353   0.693   8.923  0.6303  0.1860 -0.2264
43155SOL    HW131472   5.267   0.666   8.891  0.6246  0.5320 -0.5136
43155SOL    HW231473   5.333   0.749   8.998  0.5193  1.6343 -1.2874
43156SOL     OW31474   3.871   1.252   5.807  0.1830 -0.1673  0.4523
43156SOL    HW131475   3.829   1.338   5.801  0.5497  0.2184  2.5127
43156SOL    HW231476   3.833   1.214   5.886  1.3739 -1.1392  0.5650
43157SOL     OW31477   5.345   4.041   5.118 -0.0977  0.1650 -0.4510
43157SOL    HW131478   5.368   4.133   5.116 -0.1111  0.1734 -0.2470
43157SOL    HW231479   5.332   4.017   5.026  0.5035  0.2152 -0.5474
43158SOL     OW31480   5.715  10.406   4.623  0.2547 -0.0986 -0.0826
43158SOL    HW131481   5.623  10.387   4.606  0.0692  0.0229  0.7039
43158SOL    HW231482   5.734  10.483   4.570 -0.2700  0.2274  0.1883
43159SOL     OW31483   1.652   2.769   3.523 -0.1105  0.2027 -0.5070
43159SOL    HW131484   1.580   2.831   3.520 -1.6962 -1.5127  0.0394
43159SOL    HW231485   1.658   2.743   3.614  1.6183  0.7332 -0.4404
43160SOL     OW31486   8.103   9.052   7.549  0.0730 -1.0226  0.0761
43160SOL    HW131487   8.015   9.031   7.581 -0.3611  2.5220  1.7339
43160SOL    HW231488   8.160   8.987   7.590 -1.4539 -1.5863  1.4015
43161SOL     OW31489  10.583   4.670  10.484  0.6987  0.3997 -0.3930
43161SOL    HW131490  10.573   4.576  10.471  2.4700  0.2697 -1.0347
43161SOL    HW231491  10.668   4.691  10.446  0.4024  2.2465 -0.1392
43162SOL     OW31492   7.583   0.329   6.236  0.0952 -0.1533 -0.1302
43162SOL    HW131493   7.587   0.422   6.255  0.7547 -0.2621  0.3078
43162SOL    HW231494   7.674   0.303   6.222 -0.0245 -0.8282  0.2729
43163SOL     OW31495   7.391   9.796   4.501 -0.3609  0.3069 -0.3672
43163SOL    HW131496   7.310   9.782   4.551 -1.7867 -0.5690 -2.7222
43163SOL    HW231497   7.377   9.878   4.455 -0.4055 -0.3742 -1.6111
43164SOL     OW31498   2.765   1.296   2.539 -0.3574  0.1934  0.4109
43164SOL    HW131499   2.755   1.297   2.634  0.6977 -0.6185  0.5422
43164SOL    HW231500   2.816   1.375   2.519 -1.7379  1.1009  0.3569
43165SOL     OW31501   3.322   0.561   0.698 -0.1083  0.6059  0.2011
43165SOL    HW131502   3.303   0.559   0.604  1.2700  3.9687 -0.2902
43165SOL    HW231503   3.245   0.523   0.739 -1.1725 -0.0781 -2.2489
43166SOL     OW31504  10.178   0.708   3.015 -0.7183  0.1925 -0.3768
43166SOL    HW131505  10.220   0.715   2.929 -3.3912  0.9437 -1.7305
43166SOL    HW231506  10.205   0.787   3.061  2.6747 -1.3032  0.5627
43167SOL     OW31507   6.594   6.881   8.937  0.5191  0.2356  0.3533
43167SOL    HW131508   6.638   6.823   8.875  2.3191 -0.0956  1.8469
43167SOL    HW231509   6.604   6.968   8.900  1.0006 -0.0297 -0.1547
43168SOL     OW31510   8.456   9.883   6.586 -0.1535 -0.1688 -0.2169
43168SOL    HW131511   8.500   9.853   6.665 -0.3416  0.0404 -0.0325
43168SOL    HW231512   8.496   9.831   6.515  0.8443  0.4592 -0.1369
43169SOL     OW31513   3.775   8.340  10.908 -0.1749  0.6050 -0.3912
43169SOL    HW131514   3.750   8.361  10.997 -1.0061 -0.4130 -0.3573
43169SOL    HW231515   3.761   8.245  10.901  2.3208  0.2036 -0.8376
43170SOL     OW31516   8.122   6.541   6.707 -0.2249 -0.3927 -0.2629
43170SOL    HW131517   8.095   6.492   6.785 -0.3965 -0.0245 -0.0841
43170SOL    HW231518   8.146   6.474   6.643  0.3748 -0.6926  0.2701
43171SOL     OW31519   0.134   5.476   2.276  0.2220  0.0936 -0.1160
43171SOL    HW131520   0.221   5.466   2.316  0.1929 -0.2271 -0.1243
43171SOL    HW231521   0.088   5.395   2.301  0.4222 -0.4132 -1.3422
43172SOL     OW31522   3.898   2.713   5.958  0.3209  0.4855  0.0378
43172SOL    HW131523   3.868   2.801   5.939 -0.1702 -0.2527 -3.2239
43172SOL    HW231524   3.863   2.694   6.045  0.8110  3.5789  1.0392
43173SOL     OW31525   3.545  10.216   6.388 -0.2825  0.6252 -0.5539
43173SOL    HW131526   3.457  10.239   6.416 -0.4530  0.0692 -0.6357
43173SOL    HW231527   3.545  10.121   6.382  0.5416  0.5666  0.1822
43174SOL     OW31528  10.730   4.529   1.403  0.6924 -0.1438  0.0584
43174SOL    HW131529  10.748   4.565   1.490 -0.6241  1.6347 -0.3470
43174SOL    HW231530  10.683   4.448   1.419  1.8746 -0.6678  1.0002
43175SOL     OW31531  10.035   9.641   1.159 -0.1452 -0.3176  0.0171
43175SOL    HW131532  10.036   9.559   1.209 -0.2367 -0.3280  0.0031
43175SOL    HW231533  10.066   9.707   1.221  0.4175 -0.4484 -0.1285
43176SOL     OW31534   9.359   6.977   0.731 -0.2585  0.2475 -0.1723
43176SOL    HW131535   9.319   6.925   0.661 -2.2312 -0.7558  1.5843
43176SOL    HW231536   9.445   6.938   0.743 -0.3203 -0.2747 -1.2791
43177SOL     OW31537   1.339   9.869  11.015  0.1183 -0.5830 -0.5415
43177SOL    HW131538   1.280   9.805  11.056  0.8053 -0.4863  0.6252
43177SOL    HW231539   1.317   9.952  11.057  0.7755 -0.4655 -0.4237
43178SOL     OW31540   0.809  10.820   5.752  0.1020 -0.1190 -0.1622
43178SOL    HW131541   0.873  10.891   5.743 -0.1456 -0.1561 -3.0428
43178SOL    HW231542   0.861  10.743   5.774  1.0398 -0.0511 -1.9883
43179SOL     OW31543   1.954   4.095   6.663  0.3106  0.2234  0.0089
43179SOL    HW131544   1.997   4.158   6.605  0.0005  0.6789  0.2587
43179SOL    HW231545   2.017   4.080   6.733  0.4304  0.1730 -0.1104
43180SOL     OW31546   5.998  10.945   3.569 -0.3398  0.2803  0.2140
43180SOL    HW131547   6.004  10.900   3.653 -0.5598 -2.0866 -0.9562
43180SOL    HW231548   6.045  11.027   3.582 -0.1304 -0.1511  2.5437
43181SOL     OW31549  10.564  10.059   0.655 -0.1645 -0.7019 -0.3011
43181SOL    HW131550  10.563   9.972   0.615  1.2977 -1.0985  0.4653
43181SOL    HW231551  10.637  10.057   0.717 -0.7692  0.7276  0.5254
43182SOL     OW31552   2.396   8.160   5.634  0.0620 -0.6251  0.0091
43182SOL    HW131553   2.471   8.108   5.609 -0.4689 -1.4926  0.1901
43182SOL    HW231554   2.432   8.230   5.689  0.6876 -1.2319  0.3767
43183SOL     OW31555   5.252  10.637   2.435 -0.3389 -0.8634  0.1550
43183SOL    HW131556   5.201  10.707   2.476  0.6374  1.0939 -1.7539
43183SOL    HW231557   5.312  10.607   2.504 -0.4469  0.5426  0.9004
43184SOL     OW31558   6.277   6.651   1.132 -0.0945  0.6304  0.1533
43184SOL    HW131559   6.305   6.727   1.082  1.9883 -0.7292 -0.8863
43184SOL    HW231560   6.193   6.626   1.093  1.3506 -0.2612 -2.6455
43185SOL     OW31561   0.202  10.653   6.426  0.7425  0.6494  0.1515
43185SOL    HW131562   0.140  10.590   6.390  2.6619 -1.1853 -0.1131
43185SOL    HW231563   0.217  10.716   6.355 -2.8124  2.8609  1.0982
43186SOL     OW31564   1.777   9.624   0.630 -0.0087 -0.3594 -0.5689
43186SOL    HW131565   1.776   9.550   0.690  0.7240  0.6355  0.7362
43186SOL    HW231566   1.685   9.651   0.623 -0.0662 -0.2718  0.4099
43187SOL     OW31567   4.500   8.042   5.031  0.0774  0.4492 -0.7521
43187SOL    HW131568   4.567   7.989   4.989 -0.6205 -2.4357  1.4381
43187SOL    HW231569   4.426   8.042   4.970  0.2581 -0.7703 -0.9853
43188SOL     OW31570   7.481   3.027   7.166  0.6706  0.0455  0.0577
43188SOL    HW131571   7.422   2.969   7.214 -1.3982  1.4604 -0.6179
43188SOL    HW231572   7.422   3.086   7.119  2.6652  1.1803 -1.1197
43189SOL     OW31573   5.156   9.814   0.656 -0.1138  0.4326  0.2929
43189SOL    HW131574   5.244   9.800   0.692 -0.5908 -2.4142  0.5456
43189SOL    HW231575   5.172   9.855   0.571  1.5010 -0.4218  0.1404
43190SOL     OW31576  11.043   3.336   4.454 -0.2050  0.1621 -0.2020
43190SOL    HW131577  11.028   3.336   4.360 -0.0347  1.5838 -0.2458
43190SOL    HW231578  11.073   3.247   4.473 -0.4635 -0.2137 -1.4424
43191SOL     OW31579   0.225   3.652   9.081 -0.5280  0.0475 -0.1547
43191SOL    HW131580   0.178   3.604   9.150  0.3489 -1.2237 -0.4162
43191SOL    HW231581   0.163   3.655   9.008 -0.1442 -1.8870 -0.6059
43192SOL     OW31582   9.989   2.138   1.121 -0.1121  0.2314  0.6436
43192SOL    HW131583  10.015   2.228   1.100 -1.0835  0.2367 -0.6837
43192SOL    HW231584  10.065   2.100   1.164  1.4497  0.7702 -1.4723
43193SOL     OW31585  10.403   3.973   3.510  0.2523  0.1269  0.4504
43193SOL    HW131586  10.497   3.985   3.505  0.5623 -2.1851 -1.1836
43193SOL    HW231587  10.372   3.984   3.420 -1.2471  1.8574  1.1035
43194SOL     OW31588   6.070   4.550   0.971  0.3178  0.4574 -0.1031
43194SOL    HW131589   6.156   4.590   0.956  0.2402  0.8883  0.5339
43194SOL    HW231590   6.089   4.467   1.014  0.6408 -1.5939 -3.8074
43195SOL     OW31591   1.289   4.615   4.824  0.5791  0.5365  0.5519
43195SOL    HW131592   1.384   4.606   4.824  0.4761 -0.9034  0.0207
43195SOL    HW231593   1.272   4.691   4.879  2.0263  0.7556  0.7435
43196SOL     OW31594   3.069   9.172   8.249 -0.1153  0.2605  0.1317
43196SOL    HW131595   3.158   9.181   8.283  0.1865 -1.9422  0.0713
43196SOL    HW231596   3.047   9.259   8.216  2.4166  0.6163 -0.8351
43197SOL     OW31597   0.317   9.768   6.047 -0.1316 -0.1511  0.2129
43197SOL    HW131598   0.226   9.798   6.052  0.0523  0.4408  0.1218
43197SOL    HW231599   0.326   9.704   6.117 -0.7763 -0.6346 -0.1399
43198SOL     OW31600  10.732  10.766   5.512  0.4483 -0.7443 -0.5359
43198SOL    HW131601  10.645  10.805   5.507  1.6721  2.3659 -0.1849
43198SOL    HW231602  10.720  10.685   5.561 -2.2127 -0.4519 -0.5674
43199SOL     OW31603   2.133   5.820   7.270  0.0479  0.0502 -0.6171
43199SOL    HW131604   2.201   5.858   7.325 -0.1353  0.6167 -0.7795
43199SOL    HW231605   2.136   5.871   7.189 -0.4485 -0.0388 -0.6968
43200SOL     OW31606  10.262   3.774   0.520 -0.5393 -0.2552  0.2582
43200SOL    HW131607  10.272   3.773   0.424  0.2609 -0.2932  0.3293
43200SOL    HW231608  10.299   3.858   0.546  1.0411 -1.0468  0.6906
43201SOL     OW31609   3.561   0.481  10.521  0.3237 -0.4445  0.2265
43201SOL    HW131610   3.494   0.427  10.563 -0.0739  0.6520  1.0439
43201SOL    HW231611   3.512   0.537  10.461  0.3990  0.8281  1.3120
43202SOL     OW31612   0.551   2.566   6.030  0.1943  0.0326 -0.0146
43202SOL    HW131613   0.534   2.490   5.975  2.2097 -1.8271  1.7680
43202SOL    HW231614   0.504   2.547   6.111  1.5886  0.1370  0.8410
43203SOL     OW31615   4.108   6.533   4.675 -0.0373  0.1427  0.2323
43203SOL    HW131616   4.194   6.509   4.708  0.5100  1.7568  0.0944
43203SOL    HW231617   4.054   6.542   4.754  0.4261  0.8904  0.4813
43204SOL     OW31618   1.575   2.068   4.127 -0.4823  0.0594 -0.1769
43204SOL    HW131619   1.658   2.107   4.153 -0.4549 -0.5327  0.6400
43204SOL    HW231620   1.554   2.006   4.196 -0.7885 -0.9940 -1.1761
43205SOL     OW31621   6.948   3.160   1.569 -0.2107 -0.2159  0.0798
43205SOL    HW131622   6.885   3.153   1.641 -1.6474 -1.3422 -1.2147
43205SOL    HW231623   7.032   3.173   1.613 -1.0209 -0.9049  1.9804
43206SOL     OW31624   6.959   0.749   4.142 -0.2413 -0.5807 -0.2854
43206SOL    HW131625   7.029   0.686   4.125  0.5387  0.4402 -0.9229
43206SOL    HW231626   6.953   0.801   4.062 -1.6017 -0.5182 -0.1681
43207SOL     OW31627   2.689   7.864   1.421 -0.1640  0.3387  0.0924
43207SOL    HW131628   2.726   7.952   1.419  1.2705 -0.1867 -2.8244
43207SOL    HW231629   2.715   7.826   1.336 -2.8124 -2.0428  0.2214
43208SOL     OW31630   8.282   8.646   5.841 -1.1255 -0.1059 -0.1410
43208SOL    HW131631   8.292   8.658   5.747 -0.6649 -2.3063 -0.4225
43208SOL    HW231632   8.363   8.680   5.878  0.2259 -2.3242 -0.8977
43209SOL     OW31633  10.589   8.938   7.822 -0.6895  0.2181 -0.0679
43209SOL    HW131634  10.601   8.854   7.778 -1.0275 -0.0444  0.3347
43209SOL    HW231635  10.616   8.922   7.912  0.9164  0.9988 -0.3662
43210SOL     OW31636   9.263  10.320   4.754  0.2332 -0.2988 -0.4576
43210SOL    HW131637   9.219  10.235   4.757 -0.3674 -0.0355 -1.2806
43210SOL    HW231638   9.356  10.300   4.763  0.2001 -1.1510 -1.8361
43211SOL     OW31639   3.126   9.771   6.231 -0.1644 -0.2006  0.1358
43211SOL    HW131640   3.105   9.809   6.146  0.5925 -0.8988 -0.3902
43211SOL    HW231641   3.215   9.801   6.249  0.6607 -2.0536 -0.5433
43212SOL     OW31642   0.105   7.898   7.384  0.8262 -0.1010  0.3998
43212SOL    HW131643   0.015   7.931   7.383  1.4408  1.7028  1.1684
43212SOL    HW231644   0.123   7.877   7.475  1.0286 -0.9934  0.1718
43213SOL     OW31645   9.301  10.363   5.861  0.3898 -0.0388  0.0628
43213SOL    HW131646   9.287  10.268   5.860 -1.2639  0.1365 -1.8910
43213SOL    HW231647   9.283  10.390   5.951  0.7944 -1.5445  0.6203
43214SOL     OW31648   9.901   9.025   8.132 -0.2835  0.1731  0.0966
43214SOL    HW131649   9.956   9.073   8.193 -2.5997  1.9411  0.9702
43214SOL    HW231650   9.932   9.051   8.045  3.0187 -2.3312  0.3349
43215SOL     OW31651  10.631   3.838   4.826  0.0802  0.3328 -0.2260
43215SOL    HW131652  10.602   3.920   4.789  1.6553  1.1465  0.2360
43215SOL    HW231653  10.710   3.861   4.876  0.2014 -1.3445  0.4203
43216SOL     OW31654  10.712   5.969   0.118  0.0939  0.1908 -0.3640
43216SOL    HW131655  10.796   5.939   0.083 -0.2091  1.1926 -2.0661
43216SOL    HW231656  10.708   5.931   0.205  0.7410 -2.7204 -1.4955
43217SOL     OW31657   0.064   7.056   3.693  0.2537  0.1119 -0.2354
43217SOL    HW131658   0.010   6.984   3.663  0.1189  0.1059  0.0164
43217SOL    HW231659   0.081   7.037   3.785  1.6153 -0.4600 -0.5781
43218SOL     OW31660  10.537   8.655   2.929 -0.0618  0.3346 -0.3408
43218SOL    HW131661  10.491   8.577   2.899  0.6656  0.1731 -1.0721
43218SOL    HW231662  10.472   8.704   2.979  0.0238 -1.7561  1.9711
43219SOL     OW31663   1.453   2.600   2.198 -0.3635  0.2483 -0.3669
43219SOL    HW131664   1.495   2.682   2.170  1.4094 -0.5904 -0.2741
43219SOL    HW231665   1.367   2.627   2.230  0.5003  2.1837  0.4513
43220SOL     OW31666  10.858   2.587   9.808 -0.6810 -0.7140  0.9999
43220SOL    HW131667  10.941   2.628   9.833  0.4372 -0.1059 -2.9971
43220SOL    HW231668  10.882   2.496   9.788  0.0307  0.2049 -3.3824
43221SOL     OW31669   9.030   3.968   6.132 -0.0119 -0.3848  0.4408
43221SOL    HW131670   9.099   4.023   6.094 -0.5522  0.5078  0.7179
43221SOL    HW231671   8.958   3.971   6.069 -0.3690 -0.0656  0.8553
43222SOL     OW31672   9.187   1.491   3.282  0.3621 -0.0644  0.4525
43222SOL    HW131673   9.096   1.467   3.298 -0.6263  0.8194 -3.0205
43222SOL    HW231674   9.208   1.553   3.352 -1.3449 -0.9708  1.8549
43223SOL     OW31675   7.584   4.242   2.803 -0.1155  0.4026 -0.0604
43223SOL    HW131676   7.581   4.333   2.774 -0.0860  0.5693  0.4472
43223SOL    HW231677   7.493   4.219   2.822 -0.4275 -0.3265 -2.1025
43224SOL     OW31678   0.875   2.967   8.388  0.2053 -0.0663 -0.6031
43224SOL    HW131679   0.810   3.037   8.399 -0.2577 -0.2210 -2.1329
43224SOL    HW231680   0.863   2.912   8.466 -1.6587 -0.1927 -0.9191
43225SOL     OW31681   8.896   9.944   1.757  0.0999  0.3654 -0.2414
43225SOL    HW131682   8.832  10.008   1.789  0.2924  0.3959  0.0891
43225SOL    HW231683   8.954   9.929   1.831 -0.7840 -1.2789  0.1792
43226SOL     OW31684   5.070   8.409  11.012 -0.7369 -0.4863  0.4195
43226SOL    HW131685   5.079   8.356  11.091  0.5492 -0.5284  0.2779
43226SOL    HW231686   5.113   8.492  11.035  1.3609 -1.1554 -0.7842
43227SOL     OW31687   8.252   9.407   0.818  0.9724  0.4921 -0.0240
43227SOL    HW131688   8.293   9.321   0.831  1.6752  0.1946 -3.2666
43227SOL    HW231689   8.322   9.470   0.837  0.3243  0.4678  2.8200
43228SOL     OW31690   7.198   1.690   6.376 -0.1979 -0.9096  0.0303
43228SOL    HW131691   7.248   1.652   6.304 -0.2145 -1.4284  0.2864
43228SOL    HW231692   7.227   1.642   6.454  2.5823  2.1059  1.0617
43229SOL     OW31693   1.817   7.096  10.384 -0.5272 -0.0799 -0.2317
43229SOL    HW131694   1.826   7.129  10.294 -0.5766 -2.6761 -1.2823
43229SOL    HW231695   1.892   7.133  10.431  1.8565 -1.7309 -2.4168
43230SOL     OW31696   9.099   7.429   7.142 -0.1378 -0.8055 -0.0846
43230SOL    HW131697   9.186   7.409   7.106  0.0227 -0.0673 -0.1306
43230SOL    HW231698   9.093   7.524   7.135 -0.6249 -0.7794  0.6823
43231SOL     OW31699   9.896   6.458  10.494 -0.2845  0.2003 -0.5111
43231SOL    HW131700   9.919   6.405  10.417  0.7676 -0.8615  0.4802
43231SOL    HW231701   9.961   6.433  10.560 -1.3730  0.8039  0.8453
43232SOL     OW31702   8.794  10.222   5.789 -0.1146  0.2147 -0.1309
43232SOL    HW131703   8.721  10.178   5.746  0.2350  0.5560 -1.1016
43232SOL    HW231704   8.754  10.293   5.838 -0.2878  2.1810 -2.8696
43233SOL     OW31705  10.118   8.063   6.875  0.2327 -0.2264  0.3922
43233SOL    HW131706  10.033   8.020   6.889 -0.8596  0.6449 -2.7521
43233SOL    HW231707  10.097   8.139   6.820  3.0003  0.3178 -0.0265
43234SOL     OW31708   7.105   7.812   6.942 -0.1296  0.5543  0.5909
43234SOL    HW131709   7.018   7.775   6.928 -0.4960  1.3255  0.7831
43234SOL    HW231710   7.117   7.811   7.037 -0.5794  1.8696  0.6801
43235SOL     OW31711   0.355   3.770   3.479  0.7284  0.8396 -0.1995
43235SOL    HW131712   0.346   3.782   3.384  0.1622 -0.4807 -0.3355
43235SOL    HW231713   0.434   3.718   3.489 -0.0877 -0.4142 -0.0840
43236SOL     OW31714   3.887   3.713   1.479 -0.8190  0.0838  0.6363
43236SOL    HW131715   3.979   3.740   1.481 -1.2442  1.6182  0.5735
43236SOL    HW231716   3.845   3.763   1.549 -1.7168 -0.2060  0.3259
43237SOL     OW31717  10.183   3.575   7.757  0.9895 -0.2199 -0.8675
43237SOL    HW131718  10.223   3.661   7.755 -1.7973  1.2994  1.2226
43237SOL    HW231719  10.227   3.529   7.828  1.2853  0.1362 -0.8206
43238SOL     OW31720   8.668   0.084   9.108  0.6791 -0.4346 -0.3757
43238SOL    HW131721   8.686   0.172   9.074  0.9342  0.2345  1.3959
43238SOL    HW231722   8.704   0.025   9.042  1.9806  0.8064 -0.8230
43239SOL     OW31723   8.657   7.965   1.697 -0.3033  0.6748  0.1236
43239SOL    HW131724   8.683   7.928   1.781 -1.7462 -1.0933 -0.1508
43239SOL    HW231725   8.564   7.944   1.689 -0.3261  1.2940 -1.6732
43240SOL     OW31726   4.733   1.953   1.820 -0.0296 -0.0525  1.0256
43240SOL    HW131727   4.751   2.030   1.766 -2.0883 -0.7236 -0.7682
43240SOL    HW231728   4.789   1.884   1.784  0.3907  0.1044  1.3695
43241SOL     OW31729   7.688   1.914   9.794  0.2903 -0.1306 -0.9986
43241SOL    HW131730   7.614   1.973   9.778  0.1479  0.1500  0.5458
43241SOL    HW231731   7.709   1.878   9.708 -3.0903 -1.9759 -1.1829
43242SOL     OW31732   2.721   8.740   0.535  0.1519 -0.5628  0.2901
43242SOL    HW131733   2.650   8.805   0.538  0.2159 -0.4302 -0.7316
43242SOL    HW231734   2.721   8.701   0.623 -1.7542 -1.1633  0.0821
43243SOL     OW31735   1.314   6.777   8.843 -0.0769 -0.1156  0.1968
43243SOL    HW131736   1.343   6.799   8.754  2.3395  0.3121  0.9994
43243SOL    HW231737   1.376   6.710   8.871 -0.8782 -0.3195  1.5246
43244SOL     OW31738   0.592   8.027   2.353  0.0575  0.2844  0.0858
43244SOL    HW131739   0.606   7.945   2.401  1.7474  0.4351 -0.0684
43244SOL    HW231740   0.588   8.095   2.420  3.0279  0.5761  0.1076
43245SOL     OW31741   6.794   0.090   1.365  0.0338 -0.0727  0.3625
43245SOL    HW131742   6.779   0.153   1.295  1.5854  1.3056  1.2295
43245SOL    HW231743   6.718   0.031   1.360 -1.0815  1.3956 -0.9291
43246SOL     OW31744   4.721   5.116   4.935 -0.5326  0.4928  0.2859
43246SOL    HW131745   4.795   5.132   4.994 -0.6265  0.8607  0.3057
43246SOL    HW231746   4.730   5.183   4.867  1.5697 -1.9758 -2.1013
43247SOL     OW31747   8.676   7.769   9.800  0.1009 -0.3080 -0.3109
43247SOL    HW131748   8.607   7.719   9.757  0.9255 -3.0868  1.3506
43247SOL    HW231749   8.712   7.825   9.731 -1.9685 -0.8080 -1.8674
43248SOL     OW31750   1.371   1.393   9.352  0.2173  0.0241 -0.0225
43248SOL    HW131751   1.341   1.459   9.289 -0.4642 -0.9388 -0.7423
43248SOL    HW231752   1.442   1.347   9.307  0.5207  0.0936  0.3784
43249SOL     OW31753   3.299   3.554   9.891  0.0603 -0.2718 -0.0124
43249SOL    HW131754   3.305   3.632   9.836  0.6600  0.5992  1.2594
43249SOL    HW231755   3.383   3.510   9.880  1.0607  1.0692  1.8665
43250SOL     OW31756   4.013   5.409   4.543 -0.8396 -0.3462 -0.5977
43250SOL    HW131757   4.087   5.449   4.588 -0.5488 -1.2419 -0.2810
43250SOL    HW231758   4.020   5.442   4.453  0.1706 -0.7391 -0.6697
43251SOL     OW31759   4.027   7.995   3.175  0.3299 -0.5064  0.0048
43251SOL    HW131760   4.071   7.913   3.195  1.0559  0.1265  1.0375
43251SOL    HW231761   3.958   8.002   3.241  2.8944  1.7072  2.7107
43252SOL     OW31762   2.184   5.560   9.749  0.0891 -0.1848  0.6435
43252SOL    HW131763   2.129   5.487   9.779  0.7632 -0.5455  1.0274
43252SOL    HW231764   2.147   5.585   9.665  0.5928 -1.8052 -0.1031
43253SOL     OW31765   3.196   2.629   3.802 -0.1650  0.1306 -0.2862
43253SOL    HW131766   3.120   2.613   3.857 -1.3571 -2.6746 -2.4715
43253SOL    HW231767   3.161   2.631   3.713  1.6649  4.3460 -1.1571
43254SOL     OW31768   7.346   9.104   4.577 -0.4125  0.4457 -0.1639
43254SOL    HW131769   7.301   9.056   4.508  0.4878 -0.1796 -0.3361
43254SOL    HW231770   7.302   9.189   4.579 -2.3299 -0.5117  0.4633
43255SOL     OW31771   8.053   0.522   8.022 -0.2771  0.0195  0.7144
43255SOL    HW131772   8.097   0.438   8.035 -0.0293 -0.2558 -1.5012
43255SOL    HW231773   8.107   0.568   7.958 -3.1560 -0.3971 -2.2700
43256SOL     OW31774   1.386   3.524  10.502  0.8719  0.1612 -0.7960
43256SOL    HW131775   1.319   3.592  10.504  0.7988  0.0762 -0.0240
43256SOL    HW231776   1.464   3.565  10.539  1.2827  0.2860 -1.7749
43257SOL     OW31777  10.626   5.319   8.247 -0.9155  0.0565  0.1328
43257SOL    HW131778  10.703   5.308   8.302 -1.3016  0.7795  0.8363
43257SOL    HW231779  10.633   5.250   8.181  1.1002  1.0097 -0.7225
43258SOL     OW31780   1.031  10.244   5.998 -0.4278  0.2400  0.0164
43258SOL    HW131781   1.026  10.196   6.081 -2.2267 -0.3031 -0.3797
43258SOL    HW231782   1.122  10.231   5.969 -0.3586 -1.3667  0.8472
43259SOL     OW31783   6.835   0.832   3.881 -0.1143  0.0421 -0.0419
43259SOL    HW131784   6.766   0.810   3.943 -0.3309  0.2136 -0.2230
43259SOL    HW231785   6.789   0.871   3.806  0.1942  0.3266 -0.0851
43260SOL     OW31786   0.750   6.118   0.582 -0.2051  0.0798 -0.3566
43260SOL    HW131787   0.741   6.023   0.571 -1.6191  0.2707 -1.1319
43260SOL    HW231788   0.680   6.155   0.528 -0.0181  1.5532  0.3597
43261SOL     OW31789   1.888   3.662   9.351 -0.6970 -0.3101 -0.5475
43261SOL    HW131790   1.800   3.694   9.332 -1.3155 -0.3398  1.8863
43261SOL    HW231791   1.890   3.573   9.315 -0.9003  0.4318 -2.4572
43262SOL     OW31792   2.895   2.236   7.105 -0.3723  0.2426  0.0117
43262SOL    HW131793   2.965   2.207   7.046 -0.6339 -0.2621 -0.0609
43262SOL    HW231794   2.884   2.163   7.166 -0.7470  0.3733  0.1029
43263SOL     OW31795   0.190  10.001   6.682 -0.1440 -0.3224  0.0595
43263SOL    HW131796   0.277   9.971   6.707  0.0360 -1.3665 -1.6887
43263SOL    HW231797   0.192  10.096   6.699  1.3665 -0.3111 -0.0592
43264SOL     OW31798   4.611   6.774  10.432 -0.8637  0.4725  0.3846
43264SOL    HW131799   4.677   6.723  10.480 -1.2548 -0.5969 -0.1813
43264SOL    HW231800   4.580   6.714  10.364  0.5310  2.2940 -2.0034
43265SOL     OW31801   7.697   7.568   5.701  0.5882  0.2571  0.1399
43265SOL    HW131802   7.688   7.587   5.795  1.3831 -1.6592  0.6554
43265SOL    HW231803   7.620   7.515   5.680  1.4529 -1.0592  0.2284
43266SOL     OW31804   8.845  10.793   4.708 -0.3555  0.3540  0.0028
43266SOL    HW131805   8.922  10.758   4.754 -3.1029 -0.5769  4.6119
43266SOL    HW231806   8.825  10.727   4.641  1.3859 -0.7273  0.4812
43267SOL     OW31807   2.291   2.499   1.060 -0.2767 -0.0339 -0.5605
43267SOL    HW131808   2.273   2.406   1.072  0.6345 -0.1073  0.5140
43267SOL    HW231809   2.304   2.532   1.149  1.9873  0.5458 -1.0316
43268SOL     OW31810   5.699   7.041   3.677  0.1070  0.1950  0.3708
43268SOL    HW131811   5.793   7.035   3.691 -0.0051  0.6203  1.3848
43268SOL    HW231812   5.665   7.079   3.758 -0.9230  0.1540 -0.0279
43269SOL     OW31813   1.579   9.447   9.154 -0.0571 -0.3261 -0.0300
43269SOL    HW131814   1.671   9.426   9.164  0.1106 -0.2600 -1.2939
43269SOL    HW231815   1.578   9.534   9.114 -0.6717 -0.1045  0.4496
43270SOL     OW31816   1.733   8.027   2.945 -0.4235  0.2218 -0.1655
43270SOL    HW131817   1.696   7.982   3.020 -0.2482  0.4559  0.0653
43270SOL    HW231818   1.753   7.957   2.882 -2.9729  0.2380 -1.0933
43271SOL     OW31819   9.094   6.242   5.581  0.6030 -0.3267  0.6270
43271SOL    HW131820   9.076   6.209   5.668  1.9616 -1.2486  0.5821
43271SOL    HW231821   9.034   6.194   5.524  1.1504 -1.2765  0.8195
43272SOL     OW31822   6.457   3.886   5.311  0.2058  0.2775 -0.1741
43272SOL    HW131823   6.423   3.973   5.330  0.1677  0.1170  0.5218
43272SOL    HW231824   6.387   3.843   5.262  0.5852  0.9415 -1.3203
43273SOL     OW31825  10.469   0.462   8.569 -0.2116  0.2915 -0.4887
43273SOL    HW131826  10.405   0.497   8.632 -1.6110 -0.1762 -1.5922
43273SOL    HW231827  10.520   0.539   8.542 -1.2784  0.9787 -0.6541
43274SOL     OW31828   9.781   4.846   2.096 -1.0662  0.4135  0.1922
43274SOL    HW131829   9.690   4.866   2.076 -0.6910 -0.2669 -2.4916
43274SOL    HW231830   9.810   4.791   2.024  1.5844  0.8891  0.8031
43275SOL     OW31831   3.316  11.040   3.410  0.5396  0.6980 -0.0360
43275SOL    HW131832   3.366  11.119   3.433  1.2021  0.4406 -0.5602
43275SOL    HW231833   3.226  11.071   3.401  0.2108  0.8604  2.7954
43276SOL     OW31834   3.968   0.839   1.104  0.3831 -0.4735 -0.3649
43276SOL    HW131835   3.938   0.925   1.133  1.3196  0.1263 -1.1098
43276SOL    HW231836   3.888   0.788   1.095 -0.2298  0.4500 -0.3236
43277SOL     OW31837   9.312   2.956   8.047  0.0216 -0.4288 -0.2245
43277SOL    HW131838   9.400   2.920   8.041  0.6035  0.8328  0.2710
43277SOL    HW231839   9.283   2.934   8.135 -0.8027 -2.1680 -0.8820
43278SOL     OW31840   4.845   6.633   9.184  0.2445 -0.1895 -0.5583
43278SOL    HW131841   4.858   6.598   9.096 -0.0305  0.5155 -0.8854
43278SOL    HW231842   4.767   6.688   9.177  0.1192 -0.2608  0.1689
43279SOL     OW31843   7.042   5.045   1.298  0.4163  0.3810  0.3637
43279SOL    HW131844   7.072   4.971   1.351  0.2988  2.0416  2.9329
43279SOL    HW231845   7.080   5.030   1.212 -2.0594 -4.2004 -0.2131
43280SOL     OW31846   0.301   5.536   0.493  0.0776  0.1711 -0.4277
43280SOL    HW131847   0.297   5.450   0.452  0.6576  1.4577 -3.3980
43280SOL    HW231848   0.230   5.585   0.453  0.6939  1.5192  0.0808
43281SOL     OW31849   2.582   6.223   7.185  0.1770  1.4825 -0.7034
43281SOL    HW131850   2.666   6.249   7.147  1.4801 -1.3224  0.0036
43281SOL    HW231851   2.582   6.263   7.272  3.1191 -2.1578  1.2366
43282SOL     OW31852   4.680   0.572   8.350 -0.1922  0.3827  0.9754
43282SOL    HW131853   4.682   0.497   8.291 -0.4112  0.7838  0.4559
43282SOL    HW231854   4.758   0.561   8.405 -0.2880 -0.2842  0.9814
43283SOL     OW31855   4.352   0.233   1.548  0.3383  0.3040  0.6702
43283SOL    HW131856   4.324   0.160   1.603  2.7990 -0.4319  1.0603
43283SOL    HW231857   4.271   0.264   1.507 -0.8189 -2.6043  0.4957
43284SOL     OW31858   2.025  10.782   8.930 -0.2281  0.3448 -0.4808
43284SOL    HW131859   2.026  10.687   8.931 -0.6173  0.2987 -2.0284
43284SOL    HW231860   2.110  10.807   8.892 -0.2580  0.6011 -0.3859
43285SOL     OW31861   1.470   1.931  10.216  0.1541  0.0275 -0.3210
43285SOL    HW131862   1.401   1.930  10.149 -0.7075 -1.0218  0.5346
43285SOL    HW231863   1.466   2.018  10.254 -1.2418 -0.2369  0.2168
43286SOL     OW31864   0.306   9.707   7.055  0.5480  0.2619  0.4003
43286SOL    HW131865   0.387   9.689   7.007  0.4267 -0.0241  0.2996
43286SOL    HW231866   0.320   9.670   7.142 -0.0968 -1.3033 -0.1284
43287SOL     OW31867  10.622   5.774   2.348 -0.3306 -0.1584 -0.0382
43287SOL    HW131868  10.542   5.735   2.311 -0.1988 -0.0562 -0.4393
43287SOL    HW231869  10.600   5.790   2.440 -0.0895 -2.0150  0.3878
43288SOL     OW31870  10.110   3.998   2.002  0.1341 -0.4546 -0.0198
43288SOL    HW131871  10.089   3.982   1.911  0.3669  0.7649 -0.3100
43288SOL    HW231872  10.203   4.019   2.002  0.1802 -0.6388  0.5280
43289SOL     OW31873   4.847   9.763  10.510  0.3187  0.1115 -0.8472
43289SOL    HW131874   4.824   9.754  10.417  0.6606 -0.1962 -0.9022
43289SOL    HW231875   4.839   9.674  10.545 -0.5494  0.3511 -0.4033
43290SOL     OW31876   7.165   7.420   5.367 -0.1455  0.4987  0.1337
43290SOL    HW131877   7.092   7.404   5.307  0.2528  0.6180 -0.3900
43290SOL    HW231878   7.243   7.415   5.312  0.2865 -0.1936  0.7977
43291SOL     OW31879   3.699  10.486   0.155  0.6816 -0.2825  1.1033
43291SOL    HW131880   3.616  10.533   0.161  0.7517 -0.1996  1.4376
43291SOL    HW231881   3.757  10.547   0.108  0.1542 -0.9055 -0.4237
43292SOL     OW31882   7.128   7.457   5.000  0.0643 -0.6967  0.4804
43292SOL    HW131883   7.092   7.376   5.034 -0.6059  0.4489  2.6686
43292SOL    HW231884   7.062   7.490   4.940  0.7886 -2.2153 -1.2444
43293SOL     OW31885   8.585   8.853   3.402 -0.1070 -0.2023 -0.4508
43293SOL    HW131886   8.587   8.947   3.386 -0.1491 -0.3176 -1.1332
43293SOL    HW231887   8.542   8.845   3.487 -3.1592  0.2254 -1.8266
43294SOL     OW31888   6.118   1.467  10.010  0.7107  0.0505 -0.2178
43294SOL    HW131889   6.177   1.397  10.039  1.9297  0.3294 -1.9084
43294SOL    HW231890   6.080   1.501  10.091  1.5987 -1.2441  0.7848
43295SOL     OW31891   9.637  10.823   3.495  0.2830  0.4961 -0.0476
43295SOL    HW131892   9.681  10.750   3.453  1.7133  0.9991  0.5150
43295SOL    HW231893   9.546  10.794   3.505  0.8111 -1.1861  0.1427
43296SOL     OW31894   7.519   8.250  10.309 -1.0268 -0.2123  0.2386
43296SOL    HW131895   7.468   8.170  10.322  1.0448 -1.5837  0.2276
43296SOL    HW231896   7.534   8.255  10.215  0.2877 -0.7530  0.4083
43297SOL     OW31897   2.097  10.096   8.059 -0.3402 -0.5058 -0.3806
43297SOL    HW131898   2.096  10.064   8.149  0.3068 -1.2561 -0.6227
43297SOL    HW231899   2.062  10.024   8.007  0.8735 -0.7475 -0.9058
43298SOL     OW31900   6.579   7.000   2.109  0.3588 -0.0658 -0.0548
43298SOL    HW131901   6.663   7.009   2.154 -0.5437 -2.3645  2.3137
43298SOL    HW231902   6.529   6.940   2.163 -2.4218  0.2940 -2.0219
43299SOL     OW31903   9.551   3.916   9.676  0.1861 -0.0401 -0.5676
43299SOL    HW131904   9.517   3.985   9.734  0.1670 -0.7973  0.3400
43299SOL    HW231905   9.594   3.964   9.605 -1.3112  0.9244 -0.8759
43300SOL     OW31906   8.866   4.737   5.714  0.9557 -0.5869 -0.5243
43300SOL    HW131907   8.793   4.791   5.745 -0.1424 -0.5601 -2.9852
43300SOL    HW231908   8.882   4.766   5.625  1.2108 -3.4146 -1.4836
43301SOL     OW31909   3.671   5.710   1.576  0.3640  0.1480  0.0491
43301SOL    HW131910   3.640   5.751   1.656  3.6817  1.0587  1.0108
43301SOL    HW231911   3.592   5.698   1.523 -1.4857  2.8023  1.9562
43302SOL     OW31912   2.173   3.123   4.609  0.0607 -0.7465 -0.7279
43302SOL    HW131913   2.248   3.177   4.585 -1.0890  1.6505  0.7419
43302SOL    HW231914   2.201   3.081   4.691 -0.4227  0.7850  0.2648
43303SOL     OW31915   4.088  10.375   7.837  0.3826 -0.1490  0.2624
43303SOL    HW131916   4.167  10.417   7.870 -0.8345  1.3391  1.4283
43303SOL    HW231917   4.105  10.360   7.744  2.0400  0.0671  0.5039
43304SOL     OW31918   6.111   2.537   8.437  0.6687 -0.2067 -0.0255
43304SOL    HW131919   6.060   2.586   8.502  0.5022 -0.1901 -0.1681
43304SOL    HW231920   6.170   2.603   8.399  0.9489 -0.2699  0.2884
43305SOL     OW31921   2.624   9.353   3.088 -0.4664 -0.5212 -0.0212
43305SOL    HW131922   2.605   9.279   3.030 -0.2182  0.1031 -0.9334
43305SOL    HW231923   2.642   9.425   3.028 -1.5808  0.5073  0.8433
43306SOL     OW31924   3.171   8.240  10.268 -0.3435  0.4210  0.4769
43306SOL    HW131925   3.167   8.272  10.178  2.2972  1.2024  0.5437
43306SOL    HW231926   3.259   8.203  10.276 -0.8937 -0.5941  2.4452
43307SOL     OW31927   3.092   7.042   5.912  0.0274 -0.0703  0.3369
43307SOL    HW131928   3.076   7.016   5.822 -1.1160  1.6877 -0.0065
43307SOL    HW231929   3.081   6.961   5.962 -0.0044 -0.9319 -1.0133
43308SOL     OW31930   2.785   0.804   3.115  0.0018  0.3928 -0.3362
43308SOL    HW131931   2.723   0.772   3.049 -1.1216 -1.4297  1.4917
43308SOL    HW231932   2.763   0.897   3.125 -1.1595  0.2212 -1.0857
43309SOL     OW31933   6.138   6.112  10.549  0.4932 -0.6740  0.4247
43309SOL    HW131934   6.199   6.185  10.553  0.3018 -0.4941  0.1398
43309SOL    HW231935   6.102   6.115  10.460 -2.0383  0.9381  1.3884
43310NA      NA31936   8.630   6.901   0.641  0.1885 -0.2010  0.5185
43311NA      NA31937   7.311  10.400   7.334 -0.1773 -0.0962  0.7456
43312NA      NA31938   3.263   1.432   9.798  0.1863  0.5004  0.2338
43313NA      NA31939   0.882   1.031   9.248 -0.0569  0.2614 -0.4872
43314NA      NA31940   2.754   3.183  10.931  0.2189 -0.0372 -0.5487
43315NA      NA31941   0.762   1.852  10.313 -0.1822  0.9092 -0.1335
43316NA      NA31942   7.425  11.052   4.783  0.2679 -0.3137 -0.7663
43317NA      NA31943   4.692   5.781  10.643  0.1882 -0.1685 -0.2551
43318NA      NA31944   2.543  10.164   4.140  0.1405 -0.3442 -0.4182
43319NA      NA31945   8.458   6.933   4.229  0.6175  0.7104 -0.4106
43320NA      NA31946   4.685   5.168   9.732 -0.1682  0.3965 -0.0436
43321NA      NA31947   8.576   4.718   0.012  0.3508  0.1294  0.1446
43322NA      NA31948   0.042   2.867  10.473  0.5476 -0.2181  0.3665
43323NA      NA31949  10.177  10.242  10.349 -0.1276  0.1737  0.0943
43324NA      NA31950   0.514   6.660   3.374 -0.2889  0.3649 -0.0347
43325NA      NA31951   9.442   3.270   2.265 -0.2790  0.0655  0.7428
43326NA      NA31952   3.688   6.437   4.838  0.1326 -0.2994  0.3856
43327NA      NA31953   3.931  11.045   5.610  0.4140  0.3189  0.1130
43328NA      NA31954   7.004   7.429   6.071 -0.3600 -0.3139 -0.1072
43329NA      NA31955   1.757  11.083   9.842 -0.4654  0.5586  0.0048
43330NA      NA31956   3.437   4.690   5.491 -0.1262 -0.4593  0.4776
43331NA      NA31957   9.793   8.495   2.098 -0.4686 -0.0359  0.1680
43332NA      NA31958   7.880   7.532   6.353  0.1305  0.1324  0.5502
43333NA      NA31959   0.320   2.225   8.106 -0.0403 -0.2258  0.2386
43334NA      NA31960   1.597   9.811   6.823 -0.6184 -0.0014  0.0296
43335NA      NA31961   2.929   0.094   9.949 -0.6354  0.1251  0.5559
43336NA      NA31962   9.862   2.975   4.494 -0.4471 -0.3863  0.0002
43337NA      NA31963   1.950   9.137   0.044 -0.0804 -0.0963 -0.1624
43338NA      NA31964   1.885  11.067   2.741  0.1606  0.2364  0.4575
43339NA      NA31965   5.508   9.057   3.651 -0.1818 -0.6411 -0.1564
43340NA      NA31966   0.212  10.885   4.437  0.3810  0.4667  0.2881
43341NA      NA31967   4.182   9.681   7.120 -0.0994  0.0447  0.3432
43342NA      NA31968   0.754   8.651   7.385 -0.2846  0.1765 -0.3469
43343NA      NA31969   4.223   9.777   7.767  0.1735  0.2413  0.2693
43344NA      NA31970  10.925   2.885   4.343  0.2650  0.3566  0.6420
43345NA      NA31971   4.402   1.087   9.258  0.1854 -0.1306 -0.2577
43346NA      NA31972   8.029   4.663   5.912 -0.1087  0.4006 -0.1947
43347NA      NA31973   3.949   4.856   4.418  0.3184  0.4529  0.1288
43348NA      NA31974   5.227   4.778   5.193 -0.0994 -0.7190  0.4701
43349NA      NA31975   2.973  10.404  10.724 -0.0418 -0.2660  0.0021
43350NA      NA31976   2.421   1.650   4.847  0.1493 -0.3038 -0.3576
43351NA      NA31977   7.685   9.240   4.334 -0.3474  0.0191  0.0448
43352NA      NA31978  10.454   9.653   8.616 -0.0983  0.3356 -0.0058
43353NA      NA31979   0.232   7.482   8.593  0.3374 -0.0251 -0.2583
43354NA      NA31980   3.765   2.794   5.340  0.6443 -0.1503  0.3745
43355NA      NA31981   1.812   5.926   2.521  0.2571 -0.1752  0.1095
43356NA      NA31982   6.273   6.052   7.196 -0.4269  0.1207  0.3126
43357NA      NA31983   7.327  10.609   9.143 -0.0120 -0.0188 -0.4535
43358NA      NA31984   7.187   5.961   4.295  0.1761  0.0805  0.0774
43359NA      NA31985   6.556   5.595   6.506  0.3644  0.1697  0.3784
43360NA      NA31986   6.265   6.849   7.482 -0.4283  0.1708 -0.3651
43361NA      NA31987   6.387   7.365   7.698  0.4458 -0.0591 -0.2733
43362NA      NA31988   4.847   8.189   6.661  0.5019  0.2618 -0.2505
43363NA      NA31989   2.021   8.844   4.092  0.2420 -0.2773  0.2673
43364NA      NA31990   5.679   4.764   6.158 -0.1697  0.9488  0.0075
43365NA      NA31991   5.236   5.777   6.771  0.0940  0.0508 -0.5334
43366NA      NA31992   5.892   9.651   7.724  0.6624 -0.7907  0.1673
43367NA      NA31993   0.653   6.124   8.975  0.2361  0.2158 -0.3787
43368NA      NA31994   4.558   6.991   9.578  0.0012 -0.0860  0.2386
43369NA      NA31995  10.056   8.998   1.923  0.2688 -0.5126  0.4089
43370NA      NA31996   3.851   7.590   3.290 -0.0198 -0.5156  0.0625
43371NA      NA31997  10.637   1.709   0.474  0.2233 -0.1699 -0.0335
43372NA      NA31998   5.901   0.832   1.574  0.0335 -0.4906 -0.1962
43373NA      NA31999   0.453   7.987   3.567  0.0973  0.1807  0.1527
43374NA      NA32000   5.277   7.369   9.714  0.4984 -0.4526  0.0025
43375NA      NA32001   5.061   9.015   6.379  0.5165 -0.1454 -0.2341
43376NA      NA32002   3.306   9.389   6.949 -0.2586  0.2177 -0.3621
43377NA      NA32003   4.216   6.711   7.036  0.1711 -0.2774 -0.7914
43378NA      NA32004   9.859   3.749   2.463 -0.2729  0.1827 -0.2240
43379NA      NA32005   2.877  10.697   3.127  0.2389 -0.1160  0.1127
43380NA      NA32006   7.359   6.690   5.668  0.6674 -0.6389 -0.1416
43381NA      NA32007   7.918   5.612   6.023 -0.0730 -0.2801 -0.3861
43382NA      NA32008   4.879   6.756   6.824  0.8361  0.1050 -0.4903
43383NA      NA32009   3.689   7.812   7.030  0.0534 -0.3196  0.0848
43384NA      NA32010   5.296   8.139   8.949  0.1250 -0.1237 -0.1295
43385NA      NA32011   2.885   1.474   7.868 -0.2634  0.5115  0.1391
43386NA      NA32012   7.774   5.007   5.846  0.3136 -0.4906  0.4925
43387NA      NA32013   2.268   4.621  10.048  0.0971 -0.3135 -0.3251
43388NA      NA32014   6.773   6.818   8.353  0.1898  0.0956 -0.5440
43389NA      NA32015   5.888   8.593   6.740  0.6155 -0.0422 -0.0582
43390NA      NA32016   1.286   6.580   9.407  0.1731 -0.4517  0.3298
43391NA      NA32017   7.813   3.626   5.625 -0.1422 -0.6156 -0.5114
43392NA      NA32018   6.494   5.497   6.029 -0.4382 -0.0625 -0.0351
43393NA      NA32019   5.730   7.660   6.497 -0.6312  0.2389 -0.4176
43394NA      NA32020   5.377   7.082   7.174  0.2479 -0.8234  0.4116
43395NA      NA32021   6.097   7.634   5.683  0.4489  0.0216 -0.2773
43396NA      NA32022   6.033   9.826   6.705 -0.1644 -0.2017 -0.3475
43397NA      NA32023   6.663   7.038   5.387  0.0537  0.0953 -0.2359
43398NA      NA32024   6.892   7.265   6.883 -0.2112 -0.1203  0.4425
43399NA      NA32025   6.232   8.471   4.700  0.7588 -0.4654 -0.3747
43400NA      NA32026   3.115   4.095   0.989 -0.1328 -0.6256  0.4734
43401NA      NA32027   5.356   1.146   7.088 -0.2059 -0.1796 -0.3155
43402NA      NA32028   4.633   9.414   7.365  0.2752  0.7281  0.8256
43403NA      NA32029   6.753  10.747  10.441  0.1574 -0.0018 -0.2021
43404NA      NA32030   3.817   8.696   2.687 -0.3110 -0.1475 -0.4456
43405NA      NA32031   0.776   7.163   6.611 -0.4946 -0.2377  0.4478
43406NA      NA32032   8.431   5.367   7.372 -0.0290 -0.4719  0.3114
43407NA      NA32033   8.560  10.611   2.936 -0.6019  0.0757  0.2082
43408NA      NA32034   7.662  10.907   8.384  0.4265  0.1383 -0.6495
43409NA      NA32035   0.982   3.267   5.087 -0.1028 -0.4483 -0.0207
43410NA      NA32036   4.921   3.211   8.953 -0.5904 -0.3268 -0.0579
43411NA      NA32037   8.117   3.380   3.233 -0.2080  0.2452 -0.0095
43412NA      NA32038   7.596  10.660   1.028 -0.7531 -0.6822  0.0288
43413NA      NA32039   9.125   9.868  10.520  0.2679 -0.0710  0.2572
43414NA      NA32040   4.405   4.244   1.289 -0.4770 -0.1485 -0.1088
43415NA      NA32041   6.569   5.581   5.196  0.0843 -0.4141 -0.3640
43416NA      NA32042   3.861   5.644   6.743  0.2153 -0.0613 -0.2424
43417NA      NA32043   6.948   1.409   1.682 -0.4756 -0.1731 -0.2109
43418NA      NA32044   7.720   5.359   3.343 -0.4847 -0.1333 -0.2173
43419NA      NA32045   6.964   5.999   4.898  0.6388  0.1079 -0.1954
43420NA      NA32046   5.516   6.905   6.825 -0.4434  0.3151  0.2225
43421NA      NA32047   0.385   5.728   9.589  0.4310 -0.0399  0.7473
43422NA      NA32048   3.946   3.514   4.543 -0.2105 -0.2870 -0.6263
43423NA      NA32049  10.101  10.168   6.003 -0.4856 -0.6529  0.1188
43424NA      NA32050   2.339  10.371   1.599 -0.2951  0.0842 -0.0662
43425NA      NA32051   6.002   7.172   6.474 -0.2297 -0.0167  0.2674
43426NA      NA32052   4.969   4.002  10.085 -0.6759 -0.1969 -0.1841
43427NA      NA32053   8.434   8.952   0.430  0.4855 -0.1334  0.0321
43428NA      NA32054   5.377   6.860   5.814 -0.0547 -0.2263 -0.1027
43429NA      NA32055   6.487   8.672  10.224 -0.0869  0.0508 -0.4644
43430NA      NA32056   9.303   6.446   4.671 -0.0055  0.0286  0.2024
43431NA      NA32057   7.654   7.152   6.112 -0.3910  0.3515 -0.3295
43432NA      NA32058   1.506   3.174   0.515  0.1000 -0.3786 -0.3229
43433NA      NA32059   6.697   7.319   7.562  0.3378  0.3311 -0.3514
43434NA      NA32060   9.727   3.498   9.369  0.0877  0.6414 -0.3507
43435NA      NA32061   1.571   2.025  10.961  0.0735  0.2327 -0.3303
43436NA      NA32062   7.597   8.627   2.371 -0.1328  0.1083 -0.2519
43437NA      NA32063   6.200  10.256   2.941 -0.4052  0.7417 -0.6001
43438NA      NA32064   3.872   1.242   0.692 -0.3737  0.2074  0.2110
43439NA      NA32065   5.383   0.126   2.747  0.3900 -0.6458 -0.2301
43440NA      NA32066   0.814   8.547   5.290 -0.1311  0.2245 -0.8528
43441NA      NA32067   6.924   1.525  10.759  0.1336  0.5721  0.2975
43442NA      NA32068   6.958   5.398   4.419  0.3292 -0.2017  0.4825
43443NA      NA32069   8.306   9.311   7.817 -0.7052 -0.3081 -0.0187
43444NA      NA32070   9.203   7.750   9.953  0.4825 -0.4197  0.1526
43445NA      NA32071   6.010  10.155   3.674 -0.1506 -0.9062 -0.3544
43446NA      NA32072   4.473   2.677   4.020 -0.1504  0.2602 -0.1791
43447NA      NA32073   7.406   4.236   4.439 -0.0029 -0.4424  0.2618
43448NA      NA32074   6.685   3.675   5.623 -0.6521 -0.8418 -0.6988
43449NA      NA32075   8.162   5.888   6.840  0.9092 -0.4028  0.5439
43450NA      NA32076   6.602   6.008   6.680  0.0258  0.1057 -0.2458
43451NA      NA32077   1.230  10.596   1.103 -0.5684 -0.5964  0.1782
43452NA      NA32078   6.676   1.199   5.422  0.7004 -0.2014  0.1343
43453NA      NA32079   9.380   9.993   1.247  0.4383  0.2637 -0.8427
43454NA      NA32080   4.559   7.872   3.445  0.2552 -0.5298  0.1294
43455NA      NA32081   0.314   3.501   1.143 -0.3156 -0.4694  0.3099
43456NA      NA32082   6.819   6.024   5.414 -0.2613 -0.2645 -0.3268
43457NA      NA32083   7.829   4.197   5.128  0.1660  0.8885  0.1771
43458NA      NA32084   3.382   2.430   0.790 -0.3819 -0.1970  0.5797
43459NA      NA32085   0.652   8.443   3.890 -0.1178  0.2627  0.2586
43460NA      NA32086   1.114   8.221   0.906  0.2534  0.1915  0.2137
43461NA      NA32087   0.330   5.147   8.070 -0.2343 -0.2636 -0.4832
43462NA      NA32088   8.322   1.346   0.259 -0.1640  0.0887 -0.0136
43463NA      NA32089   2.491   5.870   8.205  0.0818 -0.0381 -0.0906
43464NA      NA32090   9.031   6.719   5.208 -0.2326  0.0023  0.5574
43465NA      NA32091   7.678   6.039   3.901  0.0848 -0.3623 -0.1212
43466NA      NA32092   7.811   6.794  10.651 -0.1179 -0.0196 -0.4274
43467NA      NA32093   7.050   9.680   3.570  0.1661  0.8582  0.2778
43468NA      NA32094   5.436   7.867   3.987  0.2274  0.4774  0.0012
43469NA      NA32095   5.837   5.221   5.487 -0.1920  0.5263  0.5137
43470NA      NA32096   6.667   8.507   7.004 -0.3547 -0.0333  0.1051
43471NA      NA32097   5.052   3.300   2.797  0.4127  0.2461  0.3292
43472NA      NA32098   0.614   9.071  10.178 -0.1792  0.2384 -0.2255
43473NA      NA32099   4.170   9.493   8.841  0.5790 -0.6851 -0.6026
43474NA      NA32100   9.279   5.823   9.072 -0.3280 -0.1479  0.2903
43475NA      NA32101   5.008   7.614   5.222 -0.2586 -0.8103 -0.0225
43476NA      NA32102  10.519   1.605   6.654 -0.0422 -0.0595 -0.5628
43477NA      NA32103   8.766   0.460   0.955 -0.2305  0.3809  0.1528
43478NA      NA32104   2.025   9.913   4.509 -0.0461 -0.4072  0.1203
43479NA      NA32105   9.089   4.039   5.444 -0.2548 -0.1793 -0.0969
43480NA      NA32106   8.394   3.849   4.707  0.7208 -0.0494  0.6829
43481NA      NA32107   7.890   3.503   1.321 -0.0196 -0.2133  0.1148
43482NA      NA32108  10.289   4.588   2.037  0.0336  0.3258 -0.3344
43483NA      NA32109   8.977   4.730   3.822  0.2079  0.2588  0.6145
43484NA      NA32110   9.239   6.313   7.126  0.1806 -0.6532 -0.1506
43485NA      NA32111  10.883   4.714   5.848 -0.2877 -0.2234 -0.3579
43486NA      NA32112   1.596   3.531   5.348  0.3135  0.2534 -0.3444
43487NA      NA32113   8.446   4.585   5.762  0.6977  0.1964 -0.2423
43488NA      NA32114   9.995   4.874   4.818 -0.0398 -0.3603 -0.1825
43489NA      NA32115   3.826   8.557  10.849  0.3222  0.2916  0.0051
43490NA      NA32116   6.575   5.204   8.679 -0.3356  0.7595 -0.0543
43491NA      NA32117   1.307   7.650   1.951  0.3229 -0.2502  0.7144
43492NA      NA32118   7.698   6.770   3.569 -0.4004 -0.1155 -0.0959
43493NA      NA32119   8.979   5.879   6.912  0.2033 -0.1752 -0.6338
43494NA      NA32120   7.919  10.495   0.663  0.3613 -0.6713 -0.2077
43495NA      NA32121   7.243   5.428   5.498 -0.5295  0.3536  0.1831
43496NA      NA32122   7.816   8.614   5.617 -0.3631 -0.0134 -0.1694
43497NA      NA32123   6.040   5.516   0.012  0.1225 -0.4525  0.3418
43498NA      NA32124   6.498   9.113   6.555 -0.1661 -0.1797 -0.5566
43499NA      NA32125  10.982   6.598   9.892 -0.0870 -0.3240 -0.2735
43500NA      NA32126   9.809   1.497   0.161  0.4713  0.3992 -0.5947
43501NA      NA32127   8.092   0.025   1.015 -0.6809  0.1507  0.1231
43502NA      NA32128  10.287   0.376   0.370  0.3503  0.3091 -0.5877
43503NA      NA32129   1.914   0.662   5.892  0.0947 -0.1274 -0.3346
43504CL      CL32130  10.521   2.341   7.358 -0.0504 -0.0608  0.0351
43505CL      CL32131   2.336   3.189   4.908  0.0339 -0.2592 -0.1342
43506CL      CL32132   2.535   2.052   0.753  0.1077 -0.4821  0.1263
43507CL      CL32133   1.066  11.063   5.388 -0.2946  0.0463 -0.3430
43508CL      CL32134   4.531   3.882   0.852  0.1119  0.0181 -0.3758
43509CL      CL32135   9.705   3.839   2.258 -0.1549 -0.1967  0.0245
43510CL      CL32136   8.279   0.995  10.696  0.2095  0.0392 -0.1732
43511CL      CL32137   1.371   1.176   5.613  0.2777  0.0721 -0.3184
43512CL      CL32138   4.012  10.484   3.528 -0.0862 -0.3275  0.1425
43513CL      CL32139   4.428   5.830   9.107 -0.1575  0.3454  0.0047
43514CL      CL32140   4.051   3.047   4.463  0.5282  0.3857 -0.2917
43515CL      CL32141   1.411   5.408   3.376  0.1748  0.0505 -0.3067
43516CL      CL32142   0.711   9.499   7.650 -0.2516 -0.2753 -0.1972
43517CL      CL32143   5.413   4.034   9.762  0.2400  0.2735  0.3726
43518CL      CL32144  10.956   6.833   3.592 -0.7041  0.2856  0.1560
43519CL      CL32145   5.132   3.777   2.220  0.0193 -0.1747 -0.1864
43520CL      CL32146   2.720   8.525   1.563 -0.2910 -0.3763 -0.4769
43521CL      CL32147  10.121   6.994   0.666 -0.0233 -0.2589  0.3865
43522CL      CL32148   8.368   8.636   5.513 -0.0172  0.3870  0.1236
43523CL      CL32149   3.361   3.089   4.333 -0.1979  0.3887 -0.1674
43524CL      CL32150   4.360   8.859   9.300 -0.1342  0.2346  0.3124
43525CL      CL32151   0.614   8.012   9.326  0.3673 -0.4814  0.3761
43526CL      CL32152   8.500   4.669   0.262  0.4134 -0.1102 -0.0315
43527CL      CL32153   7.429  10.188   9.047 -0.4574 -0.2318 -0.2863
43528CL      CL32154   0.214   2.988   9.018  0.3813 -0.0414 -0.0141
43529CL      CL32155   2.542   3.633   1.949  0.0561  0.6549 -0.0108
43530CL      CL32156   2.108   2.130   9.867  0.0778  0.2946  0.2061
43531CL      CL32157   1.566  10.380   1.313 -0.3839 -0.0385 -0.0115
43532CL      CL32158   9.029   8.617   7.919 -0.2870  0.3349 -0.0599
43533CL      CL32159   5.901   2.513  10.510  0.2539  0.4423  0.0529
43534CL      CL32160  10.988   0.781   1.069 -0.1652 -0.2023  0.3221
43535CL      CL32161  10.770   1.577   6.549  0.4264 -0.1280  0.5516
43536CL      CL32162   4.941   0.581   6.495 -0.1871 -0.6346  0.6402
43537CL      CL32163   0.402   9.562   9.735  0.0479 -0.0861 -0.0419
43538CL      CL32164   1.976   9.192   3.705  0.4322 -0.2053 -0.2026
43539CL      CL32165   7.067   1.837   1.749  0.0316 -0.4102  0.1275
43540CL      CL32166   0.829   7.120  11.044 -0.5776  0.0518 -0.3421
43541CL      CL32167   7.747   9.697   3.506  0.3499 -0.3347  0.0457
43542CL      CL32168   1.810   5.805   2.774  0.0532  0.4066 -0.1892
43543CL      CL32169   0.199   7.163   5.697 -0.4853 -0.3403  0.2891
43544CL      CL32170   7.957  10.370   5.308 -0.2001  0.3034  0.2192
43545CL      CL32171   2.722   7.474   8.088  0.3513 -0.0793  0.2378
43546CL      CL32172   0.746   2.655   1.505  0.1420  0.2000  0.4130
43547CL      CL32173  10.387   2.052   1.772  0.2088  0.2857 -0.2647
43548CL      CL32174   3.235  10.298   6.491  0.2225 -0.3412  0.6028
43549CL      CL32175   4.172   6.556   7.970  0.1331  0.1527  0.2106
43550CL      CL32176   3.736   7.212   7.362  0.4468 -0.4075 -0.3440
43551CL      CL32177   1.257   8.918   4.424 -0.6772  0.0169 -0.1158
43552CL      CL32178  10.048  10.880   0.752 -0.4018 -0.1919  0.2830
43553CL      CL32179   5.541   1.301   8.678 -0.0884  0.1219 -0.0750
43554CL      CL32180   6.222   8.879   4.604 -0.1749 -0.1432  0.3913
43555CL      CL32181   0.898  10.643   7.404  0.3738  0.4659 -0.0134
43556CL      CL32182   2.915   1.772  10.776 -0.2639 -0.3274 -0.0019
43557CL      CL32183   2.266   1.594   7.264 -0.2694 -0.1680 -0.0162
43558CL      CL32184   4.278   9.390  10.861 -0.2833  0.0333  0.0372
43559CL      CL32185   9.191   7.795   8.994  0.0336 -0.2089  0.0376
43560CL      CL32186   4.247   6.010   0.984 -0.7141 -0.1730  0.0510
43561CL      CL32187   6.527   9.507   5.018 -0.4969  0.0216 -0.2654
43562CL      CL32188   8.393   0.778   0.862 -0.1244 -0.3057  0.0644
43563CL      CL32189   3.786   9.784   7.775  0.0842 -0.2563 -0.0406
43564CL      CL32190  11.070   4.259   6.302 -0.1277 -0.0592  0.1730
43565CL      CL32191  10.386   2.916  10.550 -0.3473 -0.1158 -0.2752
43566CL      CL32192   1.769   1.629  11.052  0.1102  0.3586  0.1479
43567CL      CL32193   8.813   8.334   6.335 -0.0995  0.1919 -0.0804
43568CL      CL32194   8.882   9.237   8.829  0.2357  0.0671  0.8004
43569CL      CL32195   7.155   8.419   2.161 -0.1178 -0.2077  0.4777
43570CL      CL32196   9.926   9.220   2.996  0.4256  0.0315  0.4249
43571CL      CL32197  10.874   9.400  10.793 -0.3658  0.0426 -0.2200
43572CL      CL32198  11.076   8.541   8.249 -0.1397 -0.3087 -0.5080
43573CL      CL32199   3.586   0.354   7.830 -0.1748 -0.0239  0.2097
43574CL      CL32200   0.749   5.410   8.425  0.5023  0.7113  0.1174
43575CL      CL32201   0.887   4.679   7.808 -0.5450  0.4028  0.0418
43576CL      CL32202   2.619   8.187   2.785  0.1966  0.0691 -0.3002
43577CL      CL32203   2.075   4.369   8.277 -0.1232  0.1747  0.0494
43578CL      CL32204   0.243   1.973   0.116 -0.4133 -0.1190 -0.3894
43579CL      CL32205  10.455   2.749   5.267  0.1352 -0.1587 -0.0421
43580CL      CL32206   5.145   8.794   3.786  0.3445 -0.7569  0.2598
43581CL      CL32207   0.814   7.196   2.666 -0.1420 -0.2011  0.1275
43582CL      CL32208   6.650   0.495   9.888  0.1454  0.1045  0.1355
43583CL      CL32209   1.096   9.000  11.097  0.0177 -0.3329 -0.5818
43584CL      CL32210   9.673   1.105   0.135 -0.1323 -0.2059 -0.0136
43585CL      CL32211   8.948   9.101   1.111  0.0343  0.3641 -0.0072
43586CL      CL32212   8.675   1.310   3.323 -0.5039  0.1969  0.2959
43587CL      CL32213   3.203   4.399   0.471 -0.0822 -0.1228 -0.4847
43588CL      CL32214   7.168   7.545   6.523  0.6254 -0.3804 -0.2228
43589CL      CL32215   4.810   7.583   2.877  0.0663  0.1113 -0.5196
43590CL      CL32216   3.373   2.494   1.311  0.1262  0.0752 -0.0927
43591CL      CL32217   6.433   7.587   9.480 -0.1440  0.1952 -0.2740
43592CL      CL32218  10.203  11.071   9.742 -0.0070 -0.4246 -0.5584
43593CL      CL32219   2.378   4.517   0.806  0.0582  0.4531 -0.1374
43594CL      CL32220   5.511   3.132   3.207 -0.2391  0.4155  0.3949
43595CL      CL32221   9.477   7.735   9.894 -0.1677 -0.0475 -0.0748
43596CL      CL32222   0.513   8.319   4.913  0.0304 -0.1122  0.1257
43597CL      CL32223   6.845   6.676   2.450 -0.0294 -0.0137 -0.1466
43598CL      CL32224   7.232   0.571   4.104  0.0623 -0.0732 -0.3460
43599CL      CL32225   7.631   0.524   2.083  0.1733 -0.2621  0.2511
43600CL      CL32226   4.277   4.711   0.810  0.0403  0.2548  0.3440
43601CL      CL32227   2.442   9.713   0.346 -0.0804  0.3235 -0.0380
43602CL      CL32228   0.898  10.564   8.056 -0.6416  0.0046 -0.0896
43603CL      CL32229   0.536   2.487   5.673 -0.0130 -0.0132 -0.2668
43604CL      CL32230   8.954   0.733   7.772 -0.3254 -0.0838 -0.3268
43605CL      CL32231   9.853   3.014   4.203  0.0272 -0.2506 -0.3121
43606CL      CL32232   8.561   1.559   8.911 -0.1119  0.3108  0.0894
43607CL      CL32233   5.150   0.105   2.572 -0.3248 -0.2299 -0.2311
43608CL      CL32234   2.987  11.022   4.903 -0.2055  0.1464 -0.0710
43609CL      CL32235   6.934   1.293   5.432  0.3566  0.0730 -0.0582
43610CL      CL32236   5.249   5.008   5.738  0.1883  0.7889 -0.3915
43611CL      CL32237   2.470   1.752   3.566  0.2190  0.2579  0.3885
43612CL      CL32238   5.119   1.050   0.638 -0.0264  0.4058 -0.1045
43613CL      CL32239   7.820   6.728   7.909 -0.0273 -0.0452  0.0204
43614CL      CL32240  10.063   8.574   1.570 -0.4109  0.0329 -0.0374
43615CL      CL32241   8.382   4.400   9.271 -0.2894  0.2622 -0.3586
43616CL      CL32242  10.143  10.415   2.529 -0.6445  0.1874 -0.1795
43617CL      CL32243   6.517   0.260   0.202 -0.1154  0.1767 -0.1056
43618CL      CL32244   2.342   0.652   2.893 -0.1454 -0.0930 -0.1505
43619CL      CL32245   3.217   6.707   5.614  0.2846  0.4684 -0.0022
43620CL      CL32246   1.506   4.261   1.374  0.1954 -0.4497 -0.1098
43621CL      CL32247   3.685   0.975   9.359  0.2016 -0.3143 -0.0265
43622CL      CL32248   1.288   8.132   5.544  0.0518  0.0845  0.6052
43623CL      CL32249   8.870   2.361  10.159 -0.2444 -0.6834  0.4851
43624CL      CL32250   8.258  10.733   0.986 -0.1115  0.2746 -0.4133
43625CL      CL32251   0.078   5.626   5.587 -0.2736  0.2192  0.0983
43626CL      CL32252   7.756  10.839   0.898 -0.3674  0.2869  0.1437
43627CL      CL32253  10.320   7.142  10.717 -0.4112  0.2827  0.0123
  11.10136  11.10136  11.10136
